                         Program Version 4.2.1 -  RELEASE  -
|  1> ! wB97X-D3 SP def2-SVP
|  2> %pal
|  3> nprocs 16
|  4> end
|  5>
|  6> * xyz 0 1
|  7> S 	 -66.4248 	 47.0406 	 125.092
|  8> C 	 -67.0175 	 45.737 	 126.085
|  9> C 	 -68.2241 	 46.0676 	 126.639
| 10> C 	 -68.6227 	 47.3535 	 126.368
| 11> C 	 -67.7111 	 48.127 	 125.609
| 12> H 	 -69.5098 	 47.7796 	 126.802
| 13> C 	 -69.0879 	 45.0356 	 127.397
| 14> H 	 -68.5033 	 44.1129 	 127.474
| 15> H 	 -70.0069 	 44.9475 	 126.838
| 16> C 	 -69.4345 	 45.4396 	 128.84
| 17> H 	 -68.5547 	 45.8237 	 129.348
| 18> H 	 -70.0466 	 46.2984 	 128.867
| 19> C 	 -70.1955 	 44.4325 	 129.745
| 20> H 	 -71.1062 	 44.231 	 129.254
| 21> H 	 -69.6048 	 43.5158 	 129.911
| 22> H 	 -70.4796 	 44.9093 	 130.71
| 23> S 	 -69.231 	 50.0289 	 124.297
| 24> C 	 -68.911 	 51.6972 	 124.498
| 25> C 	 -67.6236 	 51.8398 	 125.089
| 26> C 	 -67.043 	 50.5915 	 125.558
| 27> C 	 -67.8975 	 49.5216 	 125.265
| 28> H 	 -67.2603 	 52.8537 	 125.191
| 29> C 	 -65.7346 	 50.453 	 126.379
| 30> H 	 -65.0448 	 51.1442 	 125.89
| 31> H 	 -65.3111 	 49.4464 	 126.248
| 32> C 	 -65.7467 	 50.8913 	 127.879
| 33> H 	 -66.5994 	 50.357 	 128.335
| 34> H 	 -65.9475 	 51.9693 	 127.883
| 35> C 	 -64.4008 	 50.5523 	 128.604
| 36> H 	 -64.7036 	 50.3617 	 129.622
| 37> H 	 -63.5753 	 51.2812 	 128.527
| 38> H 	 -64.0054 	 49.5891 	 128.319
| 39> H 	 -66.5996 	 44.7857 	 126.197
| 40> H 	 -69.5364 	 52.5152 	 124.154
| 41> *
| 42>
| 43>                          ****END OF INPUT****

CARTESIAN COORDINATES (ANGSTROEM)
---------------------------------
  S    -66.424800   47.040600  125.092000
  C    -67.017500   45.737000  126.085000
  C    -68.224100   46.067600  126.639000
  C    -68.622700   47.353500  126.368000
  C    -67.711100   48.127000  125.609000
  H    -69.509800   47.779600  126.802000
  C    -69.087900   45.035600  127.397000
  H    -68.503300   44.112900  127.474000
  H    -70.006900   44.947500  126.838000
  C    -69.434500   45.439600  128.840000
  H    -68.554700   45.823700  129.348000
  H    -70.046600   46.298400  128.867000
  C    -70.195500   44.432500  129.745000
  H    -71.106200   44.231000  129.254000
  H    -69.604800   43.515800  129.911000
  H    -70.479600   44.909300  130.710000
  S    -69.231000   50.028900  124.297000
  C    -68.911000   51.697200  124.498000
  C    -67.623600   51.839800  125.089000
  C    -67.043000   50.591500  125.558000
  C    -67.897500   49.521600  125.265000
  H    -67.260300   52.853700  125.191000
  C    -65.734600   50.453000  126.379000
  H    -65.044800   51.144200  125.890000
  H    -65.311100   49.446400  126.248000
  C    -65.746700   50.891300  127.879000
  H    -66.599400   50.357000  128.335000
  H    -65.947500   51.969300  127.883000
  C    -64.400800   50.552300  128.604000
  H    -64.703600   50.361700  129.622000
  H    -63.575300   51.281200  128.527000
  H    -64.005400   49.589100  128.319000
  H    -66.599600   44.785700  126.197000
  H    -69.536400   52.515200  124.154000

 Total Charge           Charge          ....    0
 Multiplicity           Mult            ....    1
 Number of Electrons    NEL             ....  134
 Basis Dimension        Dim             ....  322

ORBITAL ENERGIES
----------------

  NO   OCC          E(Eh)            E(eV)
   0   2.0000     -88.970594     -2421.0129
   1   2.0000     -88.966319     -2420.8966
   2   2.0000     -10.331830      -281.1434
   3   2.0000     -10.323527      -280.9175
   4   2.0000     -10.319495      -280.8077
   5   2.0000     -10.308993      -280.5220
   6   2.0000     -10.308674      -280.5133
   7   2.0000     -10.299760      -280.2707
   8   2.0000     -10.295197      -280.1465
   9   2.0000     -10.293697      -280.1057
  10   2.0000     -10.290733      -280.0251
  11   2.0000     -10.290364      -280.0150
  12   2.0000     -10.289914      -280.0028
  13   2.0000     -10.280355      -279.7427
  14   2.0000     -10.280205      -279.7386
  15   2.0000     -10.278053      -279.6801
  16   2.0000      -8.084426      -219.9884
  17   2.0000      -8.081853      -219.9184
  18   2.0000      -6.042871      -164.4349
  19   2.0000      -6.040228      -164.3630
  20   2.0000      -6.038949      -164.3281
  21   2.0000      -6.036079      -164.2501
  22   2.0000      -6.035407      -164.2318
  23   2.0000      -6.032869      -164.1627
  24   2.0000      -1.007807       -27.4238
  25   2.0000      -0.987415       -26.8689
  26   2.0000      -0.908670       -24.7262
  27   2.0000      -0.898117       -24.4390
  28   2.0000      -0.869320       -23.6554
  29   2.0000      -0.850091       -23.1321
  30   2.0000      -0.844818       -22.9887
  31   2.0000      -0.811681       -22.0870
  32   2.0000      -0.782208       -21.2850
  33   2.0000      -0.772355       -21.0168
  34   2.0000      -0.710395       -19.3308
  35   2.0000      -0.697746       -18.9866
  36   2.0000      -0.692297       -18.8384
  37   2.0000      -0.660437       -17.9714
  38   2.0000      -0.638260       -17.3679
  39   2.0000      -0.620265       -16.8783
  40   2.0000      -0.588446       -16.0124
  41   2.0000      -0.573377       -15.6024
  42   2.0000      -0.565307       -15.3828
  43   2.0000      -0.561289       -15.2734
  44   2.0000      -0.525966       -14.3123
  45   2.0000      -0.517196       -14.0736
  46   2.0000      -0.511679       -13.9235
  47   2.0000      -0.511247       -13.9117
  48   2.0000      -0.509490       -13.8639
  49   2.0000      -0.497826       -13.5465
  50   2.0000      -0.494603       -13.4588
  51   2.0000      -0.480661       -13.0794
  52   2.0000      -0.473798       -12.8927
  53   2.0000      -0.469667       -12.7803
  54   2.0000      -0.464563       -12.6414
  55   2.0000      -0.446365       -12.1462
  56   2.0000      -0.439855       -11.9691
  57   2.0000      -0.431543       -11.7429
  58   2.0000      -0.430546       -11.7158
  59   2.0000      -0.422355       -11.4929
  60   2.0000      -0.420819       -11.4511
  61   2.0000      -0.418009       -11.3746
  62   2.0000      -0.415074       -11.2947
  63   2.0000      -0.337542        -9.1850
  64   2.0000      -0.333362        -9.0712
  65   2.0000      -0.327144        -8.9020
  66   2.0000      -0.297004        -8.0819
  67   0.0000       0.028338         0.7711
  68   0.0000       0.067882         1.8472
  69   0.0000       0.108432         2.9506
  70   0.0000       0.124775         3.3953
  71   0.0000       0.136437         3.7126

MULLIKEN ATOMIC CHARGES
-----------------------
   0 S :    0.125462
   1 C :   -0.113882
   2 C :   -0.079901
   3 C :    0.019641
   4 C :   -0.157567
   5 H :    0.005768
   6 C :    0.118804
   7 H :    0.015213
   8 H :    0.036248
   9 C :   -0.108770
  10 H :    0.021742
  11 H :    0.009939
  12 C :   -0.031232
  13 H :    0.018752
  14 H :    0.038975
  15 H :    0.039005
  16 S :    0.136528
  17 C :   -0.117013
  18 C :   -0.050864
  19 C :   -0.018110
  20 C :   -0.176442
  21 H :    0.019244
  22 C :    0.059312
  23 H :    0.021563
  24 H :    0.020497
  25 C :   -0.075257
  26 H :    0.038836
  27 H :    0.032521
  28 C :   -0.037608
  29 H :    0.029428
  30 H :    0.047398
  31 H :    0.022004
  32 H :    0.022686
  33 H :    0.067079
Sum of atomic charges:    0.0000000

LOEWDIN ATOMIC CHARGES
----------------------
   0 S :    0.420059
   1 C :   -0.191372
   2 C :   -0.069529
   3 C :   -0.057976
   4 C :   -0.194111
   5 H :    0.028257
   6 C :   -0.018677
   7 H :    0.029079
   8 H :    0.032544
   9 C :   -0.048678
  10 H :    0.021836
  11 H :    0.014643
  12 C :   -0.059704
  13 H :    0.017521
  14 H :    0.025148
  15 H :    0.033480
  16 S :    0.442149
  17 C :   -0.206129
  18 C :   -0.072689
  19 C :   -0.051425
  20 C :   -0.219274
  21 H :    0.028073
  22 C :   -0.037514
  23 H :    0.029901
  24 H :    0.020449
  25 C :   -0.035013
  26 H :    0.027367
  27 H :    0.024889
  28 C :   -0.067972
  29 H :    0.029241
  30 H :    0.029452
  31 H :    0.023981
  32 H :    0.018410
  33 H :    0.033585

  Mayer bond orders larger than 0.100000
B(  0-S ,  1-C ) :   1.1552 B(  0-S ,  4-C ) :   1.1542 B(  1-C ,  2-C ) :   1.5750
B(  1-C ,  4-C ) :   0.1074 B(  1-C , 32-H ) :   0.9730 B(  2-C ,  3-C ) :   1.2998
B(  2-C ,  6-C ) :   1.0205 B(  3-C ,  4-C ) :   1.5154 B(  3-C ,  5-H ) :   0.9977
B(  4-C , 20-C ) :   1.0627 B(  6-C ,  7-H ) :   0.9407 B(  6-C ,  8-H ) :   0.9367
B(  6-C ,  9-C ) :   1.0591 B(  9-C , 10-H ) :   0.9571 B(  9-C , 11-H ) :   0.9525
B(  9-C , 12-C ) :   1.0893 B( 12-C , 13-H ) :   0.9733 B( 12-C , 14-H ) :   0.9776
B( 12-C , 15-H ) :   0.9734 B( 16-S , 17-C ) :   1.1777 B( 16-S , 20-C ) :   1.1674
B( 17-C , 18-C ) :   1.5679 B( 17-C , 20-C ) :   0.1017 B( 17-C , 33-H ) :   0.9706
B( 18-C , 19-C ) :   1.2569 B( 18-C , 21-H ) :   0.9937 B( 19-C , 20-C ) :   1.5424
B( 19-C , 22-C ) :   1.0480 B( 22-C , 23-H ) :   0.9325 B( 22-C , 24-H ) :   0.9292
B( 22-C , 25-C ) :   1.0611 B( 25-C , 26-H ) :   0.9619 B( 25-C , 27-H ) :   0.9563
B( 25-C , 28-C ) :   1.0692 B( 28-C , 29-H ) :   0.9753 B( 28-C , 30-H ) :   0.9778
B( 28-C , 31-H ) :   0.9746

Dispersion correction           -0.013765598
FINAL SINGLE POINT ENERGY     -1339.880681928509

DIPOLE MOMENT
-------------
                                X             Y             Z
Electronic contribution:     -2.44721       5.32517     -24.68191
Nuclear contribution   :      2.35692      -5.29548      25.14517
                        -----------------------------------------
Total Dipole Moment    :     -0.09029       0.02969       0.46326
                        -----------------------------------------
Magnitude (a.u.)       :      0.47291
Magnitude (Debye)      :      1.20204

Rotational constants in cm-1:     0.016723     0.008048     0.006987
Rotational constants in MHz :   501.347248   241.260916   209.466656

                             ****ORCA TERMINATED NORMALLY****
TOTAL RUN TIME: 0 days 0 hours 0 minutes 32 seconds 625 msec
