                         Program Version 4.2.1 -  RELEASE  -
|  1> ! wB97X-D3 SP def2-SVP
|  2> %pal
|  3> nprocs 16
|  4> end
|  5>
|  6> * xyz 0 1
|  7> S 	 -77.2057 	 48.9044 	 136.642
|  8> C 	 -78.8067 	 48.1264 	 136.596
|  9> C 	 -79.7791 	 49.1183 	 136.747
| 10> C 	 -79.2245 	 50.4175 	 136.988
| 11> C 	 -77.8442 	 50.4586 	 137.022
| 12> H 	 -79.7437 	 51.3428 	 137.206
| 13> C 	 -81.254 	 48.9986 	 136.827
| 14> H 	 -81.5976 	 48.7692 	 137.816
| 15> H 	 -81.5563 	 48.1139 	 136.182
| 16> C 	 -82.1192 	 50.1462 	 136.279
| 17> H 	 -82.0197 	 50.9958 	 136.927
| 18> H 	 -81.6519 	 50.4761 	 135.344
| 19> C 	 -83.6089 	 49.7905 	 136.16
| 20> H 	 -84.0227 	 49.9875 	 137.203
| 21> H 	 -84.0671 	 50.4682 	 135.444
| 22> H 	 -83.8431 	 48.7319 	 135.907
| 23> S 	 -75.796 	 52.0542 	 136.062
| 24> C 	 -75.4863 	 53.6429 	 136.808
| 25> C 	 -76.3379 	 53.8418 	 137.87
| 26> C 	 -77.2038 	 52.7618 	 138.13
| 27> C 	 -77.0699 	 51.68 	 137.244
| 28> H 	 -76.3342 	 54.7518 	 138.43
| 29> C 	 -78.2075 	 52.7437 	 139.356
| 30> H 	 -77.5441 	 52.6795 	 140.277
| 31> H 	 -78.9258 	 51.8838 	 139.327
| 32> C 	 -79.0345 	 54.0328 	 139.535
| 33> H 	 -78.4414 	 54.9282 	 139.582
| 34> H 	 -79.419 	 53.9965 	 140.612
| 35> C 	 -80.26 	 54.145 	 138.592
| 36> H 	 -80.8345 	 54.9671 	 138.929
| 37> H 	 -80.9406 	 53.265 	 138.54
| 38> H 	 -79.9924 	 54.4521 	 137.617
| 39> H 	 -79.0222 	 47.0575 	 136.563
| 40> H 	 -74.8231 	 54.4736 	 136.461
| 41> *
| 42>
| 43>                          ****END OF INPUT****

CARTESIAN COORDINATES (ANGSTROEM)
---------------------------------
  S    -77.205700   48.904400  136.642000
  C    -78.806700   48.126400  136.596000
  C    -79.779100   49.118300  136.747000
  C    -79.224500   50.417500  136.988000
  C    -77.844200   50.458600  137.022000
  H    -79.743700   51.342800  137.206000
  C    -81.254000   48.998600  136.827000
  H    -81.597600   48.769200  137.816000
  H    -81.556300   48.113900  136.182000
  C    -82.119200   50.146200  136.279000
  H    -82.019700   50.995800  136.927000
  H    -81.651900   50.476100  135.344000
  C    -83.608900   49.790500  136.160000
  H    -84.022700   49.987500  137.203000
  H    -84.067100   50.468200  135.444000
  H    -83.843100   48.731900  135.907000
  S    -75.796000   52.054200  136.062000
  C    -75.486300   53.642900  136.808000
  C    -76.337900   53.841800  137.870000
  C    -77.203800   52.761800  138.130000
  C    -77.069900   51.680000  137.244000
  H    -76.334200   54.751800  138.430000
  C    -78.207500   52.743700  139.356000
  H    -77.544100   52.679500  140.277000
  H    -78.925800   51.883800  139.327000
  C    -79.034500   54.032800  139.535000
  H    -78.441400   54.928200  139.582000
  H    -79.419000   53.996500  140.612000
  C    -80.260000   54.145000  138.592000
  H    -80.834500   54.967100  138.929000
  H    -80.940600   53.265000  138.540000
  H    -79.992400   54.452100  137.617000
  H    -79.022200   47.057500  136.563000
  H    -74.823100   54.473600  136.461000

 Total Charge           Charge          ....    0
 Multiplicity           Mult            ....    1
 Number of Electrons    NEL             ....  134
 Basis Dimension        Dim             ....  322

ORBITAL ENERGIES
----------------

  NO   OCC          E(Eh)            E(eV)
   0   2.0000     -88.968196     -2420.9477
   1   2.0000     -88.966445     -2420.9000
   2   2.0000     -10.332495      -281.1615
   3   2.0000     -10.329392      -281.0770
   4   2.0000     -10.324079      -280.9325
   5   2.0000     -10.320649      -280.8391
   6   2.0000     -10.308265      -280.5022
   7   2.0000     -10.304377      -280.3963
   8   2.0000     -10.303214      -280.3647
   9   2.0000     -10.295008      -280.1414
  10   2.0000     -10.292667      -280.0777
  11   2.0000     -10.290940      -280.0307
  12   2.0000     -10.289697      -279.9969
  13   2.0000     -10.288653      -279.9685
  14   2.0000     -10.286404      -279.9073
  15   2.0000     -10.277326      -279.6603
  16   2.0000      -8.082602      -219.9388
  17   2.0000      -8.080190      -219.8731
  18   2.0000      -6.041219      -164.3899
  19   2.0000      -6.038831      -164.3249
  20   2.0000      -6.037061      -164.2768
  21   2.0000      -6.034774      -164.2146
  22   2.0000      -6.033343      -164.1756
  23   2.0000      -6.030914      -164.1095
  24   2.0000      -1.004389       -27.3308
  25   2.0000      -0.981127       -26.6978
  26   2.0000      -0.914685       -24.8898
  27   2.0000      -0.901230       -24.5237
  28   2.0000      -0.870745       -23.6942
  29   2.0000      -0.848292       -23.0832
  30   2.0000      -0.843200       -22.9446
  31   2.0000      -0.813565       -22.1382
  32   2.0000      -0.781644       -21.2696
  33   2.0000      -0.773947       -21.0602
  34   2.0000      -0.711425       -19.3589
  35   2.0000      -0.695648       -18.9295
  36   2.0000      -0.693774       -18.8785
  37   2.0000      -0.655315       -17.8320
  38   2.0000      -0.641554       -17.4576
  39   2.0000      -0.619376       -16.8541
  40   2.0000      -0.592660       -16.1271
  41   2.0000      -0.574547       -15.6342
  42   2.0000      -0.566397       -15.4125
  43   2.0000      -0.548976       -14.9384
  44   2.0000      -0.535708       -14.5774
  45   2.0000      -0.524964       -14.2850
  46   2.0000      -0.516009       -14.0413
  47   2.0000      -0.511779       -13.9262
  48   2.0000      -0.503656       -13.7052
  49   2.0000      -0.500145       -13.6096
  50   2.0000      -0.491341       -13.3701
  51   2.0000      -0.478967       -13.0333
  52   2.0000      -0.473654       -12.8888
  53   2.0000      -0.469956       -12.7881
  54   2.0000      -0.458431       -12.4746
  55   2.0000      -0.451135       -12.2760
  56   2.0000      -0.442650       -12.0451
  57   2.0000      -0.436501       -11.8778
  58   2.0000      -0.431656       -11.7460
  59   2.0000      -0.425729       -11.5847
  60   2.0000      -0.420279       -11.4364
  61   2.0000      -0.417986       -11.3740
  62   2.0000      -0.403447       -10.9783
  63   2.0000      -0.350024        -9.5246
  64   2.0000      -0.331960        -9.0331
  65   2.0000      -0.329301        -8.9607
  66   2.0000      -0.289677        -7.8825
  67   0.0000       0.026901         0.7320
  68   0.0000       0.068380         1.8607
  69   0.0000       0.109093         2.9686
  70   0.0000       0.118101         3.2137
  71   0.0000       0.124531         3.3887

MULLIKEN ATOMIC CHARGES
-----------------------
   0 S :    0.111440
   1 C :   -0.125738
   2 C :   -0.051247
   3 C :    0.003983
   4 C :   -0.128982
   5 H :    0.000136
   6 C :    0.038097
   7 H :    0.035459
   8 H :    0.022623
   9 C :   -0.106352
  10 H :    0.028013
  11 H :    0.032271
  12 C :   -0.049822
  13 H :    0.039174
  14 H :    0.044213
  15 H :    0.041601
  16 S :    0.095455
  17 C :   -0.098373
  18 C :   -0.036249
  19 C :   -0.021856
  20 C :   -0.155630
  21 H :    0.010187
  22 C :    0.037483
  23 H :    0.050888
  24 H :    0.038476
  25 C :   -0.106204
  26 H :    0.024064
  27 H :    0.031294
  28 C :   -0.023094
  29 H :    0.020221
  30 H :    0.041217
  31 H :    0.028006
  32 H :    0.054869
  33 H :    0.074374
Sum of atomic charges:   -0.0000000

LOEWDIN ATOMIC CHARGES
----------------------
   0 S :    0.410099
   1 C :   -0.194553
   2 C :   -0.061783
   3 C :   -0.067265
   4 C :   -0.202175
   5 H :    0.028527
   6 C :   -0.038549
   7 H :    0.028533
   8 H :    0.033937
   9 C :   -0.044785
  10 H :    0.016981
  11 H :    0.024011
  12 C :   -0.066244
  13 H :    0.034589
  14 H :    0.029555
  15 H :    0.027687
  16 S :    0.384577
  17 C :   -0.182159
  18 C :   -0.074620
  19 C :   -0.060354
  20 C :   -0.186801
  21 H :    0.028483
  22 C :   -0.032962
  23 H :    0.041201
  24 H :    0.032739
  25 C :   -0.046341
  26 H :    0.018415
  27 H :    0.031493
  28 C :   -0.066475
  29 H :    0.024613
  30 H :    0.028420
  31 H :    0.021362
  32 H :    0.035523
  33 H :    0.044323

  Mayer bond orders larger than 0.100000
B(  0-S ,  1-C ) :   1.1251 B(  0-S ,  4-C ) :   1.1602 B(  1-C ,  2-C ) :   1.5962
B(  1-C , 32-H ) :   0.9740 B(  2-C ,  3-C ) :   1.2387 B(  2-C ,  6-C ) :   1.0295
B(  3-C ,  4-C ) :   1.5582 B(  3-C ,  5-H ) :   0.9924 B(  4-C , 20-C ) :   1.0400
B(  6-C ,  7-H ) :   0.9352 B(  6-C ,  8-H ) :   0.9402 B(  6-C ,  9-C ) :   1.0686
B(  9-C , 10-H ) :   0.9456 B(  9-C , 11-H ) :   0.9624 B(  9-C , 12-C ) :   1.0728
B( 12-C , 13-H ) :   0.9755 B( 12-C , 14-H ) :   0.9744 B( 12-C , 15-H ) :   0.9773
B( 16-S , 17-C ) :   1.1454 B( 16-S , 20-C ) :   1.1345 B( 17-C , 18-C ) :   1.6116
B( 17-C , 20-C ) :   0.1039 B( 17-C , 33-H ) :   0.9595 B( 18-C , 19-C ) :   1.2591
B( 18-C , 21-H ) :   0.9892 B( 19-C , 20-C ) :   1.5901 B( 19-C , 22-C ) :   1.0138
B( 22-C , 23-H ) :   0.9388 B( 22-C , 24-H ) :   0.9462 B( 22-C , 25-C ) :   1.0728
B( 25-C , 26-H ) :   0.9540 B( 25-C , 27-H ) :   0.9556 B( 25-C , 28-C ) :   1.0732
B( 28-C , 29-H ) :   0.9682 B( 28-C , 30-H ) :   0.9711 B( 28-C , 31-H ) :   0.9737

Dispersion correction           -0.014502937
FINAL SINGLE POINT ENERGY     -1339.878911030964

DIPOLE MOMENT
-------------
                                X             Y             Z
Electronic contribution:     29.86349      -8.68044      -8.25034
Nuclear contribution   :    -30.55102       9.12019       8.62703
                        -----------------------------------------
Total Dipole Moment    :     -0.68752       0.43975       0.37669
                        -----------------------------------------
Magnitude (a.u.)       :      0.89887
Magnitude (Debye)      :      2.28474

Rotational constants in cm-1:     0.016828     0.009667     0.006869
Rotational constants in MHz :   504.503260   289.798156   205.940027

                             ****ORCA TERMINATED NORMALLY****
TOTAL RUN TIME: 0 days 0 hours 0 minutes 35 seconds 470 msec
