                         Program Version 4.2.1 -  RELEASE  -
|  1> ! wB97X-D3 SP def2-SVP
|  2> %pal
|  3> nprocs 16
|  4> end
|  5>
|  6> * xyz 0 1
|  7> S 	 4.92944 	 -13.4112 	 58.3741
|  8> C 	 4.43225 	 -12.856 	 59.9553
|  9> C 	 3.57004 	 -13.7901 	 60.5869
| 10> C 	 3.24478 	 -14.8802 	 59.7161
| 11> C 	 4.07672 	 -14.9862 	 58.6062
| 12> H 	 2.5028 	 -15.6121 	 59.9767
| 13> C 	 3.03598 	 -13.8234 	 62.0254
| 14> H 	 2.79301 	 -12.7562 	 62.4024
| 15> H 	 3.99601 	 -14.0297 	 62.5929
| 16> C 	 1.89318 	 -14.8735 	 62.406
| 17> H 	 1.0601 	 -14.8212 	 61.7331
| 18> H 	 2.28726 	 -15.8935 	 62.3788
| 19> C 	 1.4397 	 -14.5561 	 63.8185
| 20> H 	 0.950728 	 -13.5898 	 63.9129
| 21> H 	 0.708062 	 -15.3697 	 64.0655
| 22> H 	 2.23667 	 -14.6675 	 64.5706
| 23> S 	 4.28191 	 -15.4822 	 55.9728
| 24> C 	 4.23931 	 -17.0955 	 55.3934
| 25> C 	 4.08199 	 -17.9594 	 56.4273
| 26> C 	 3.89271 	 -17.3884 	 57.7067
| 27> C 	 4.14388 	 -16.0345 	 57.636
| 28> H 	 4.07384 	 -18.9925 	 56.2924
| 29> C 	 3.74944 	 -18.2185 	 58.9609
| 30> H 	 3.36608 	 -19.2502 	 58.7004
| 31> H 	 2.98591 	 -17.8819 	 59.6126
| 32> C 	 5.12152 	 -18.2898 	 59.6853
| 33> H 	 5.38126 	 -17.3708 	 60.127
| 34> H 	 5.9531 	 -18.4888 	 59.008
| 35> C 	 5.04418 	 -19.2803 	 60.826
| 36> H 	 5.2166 	 -20.2892 	 60.4631
| 37> H 	 4.06145 	 -19.1255 	 61.3572
| 38> H 	 5.80156 	 -19.1394 	 61.6585
| 39> H 	 4.72139 	 -11.9316 	 60.5019
| 40> H 	 4.37399 	 -17.4389 	 54.3947
| 41> *
| 42>
| 43>                          ****END OF INPUT****

CARTESIAN COORDINATES (ANGSTROEM)
---------------------------------
  S      4.929440  -13.411200   58.374100
  C      4.432250  -12.856000   59.955300
  C      3.570040  -13.790100   60.586900
  C      3.244780  -14.880200   59.716100
  C      4.076720  -14.986200   58.606200
  H      2.502800  -15.612100   59.976700
  C      3.035980  -13.823400   62.025400
  H      2.793010  -12.756200   62.402400
  H      3.996010  -14.029700   62.592900
  C      1.893180  -14.873500   62.406000
  H      1.060100  -14.821200   61.733100
  H      2.287260  -15.893500   62.378800
  C      1.439700  -14.556100   63.818500
  H      0.950728  -13.589800   63.912900
  H      0.708062  -15.369700   64.065500
  H      2.236670  -14.667500   64.570600
  S      4.281910  -15.482200   55.972800
  C      4.239310  -17.095500   55.393400
  C      4.081990  -17.959400   56.427300
  C      3.892710  -17.388400   57.706700
  C      4.143880  -16.034500   57.636000
  H      4.073840  -18.992500   56.292400
  C      3.749440  -18.218500   58.960900
  H      3.366080  -19.250200   58.700400
  H      2.985910  -17.881900   59.612600
  C      5.121520  -18.289800   59.685300
  H      5.381260  -17.370800   60.127000
  H      5.953100  -18.488800   59.008000
  C      5.044180  -19.280300   60.826000
  H      5.216600  -20.289200   60.463100
  H      4.061450  -19.125500   61.357200
  H      5.801560  -19.139400   61.658500
  H      4.721390  -11.931600   60.501900
  H      4.373990  -17.438900   54.394700

 Total Charge           Charge          ....    0
 Multiplicity           Mult            ....    1
 Number of Electrons    NEL             ....  134
 Basis Dimension        Dim             ....  322

ORBITAL ENERGIES
----------------

  NO   OCC          E(Eh)            E(eV)
   0   2.0000     -88.967188     -2420.9203
   1   2.0000     -88.963092     -2420.8088
   2   2.0000     -10.330604      -281.1100
   3   2.0000     -10.322532      -280.8904
   4   2.0000     -10.317241      -280.7464
   5   2.0000     -10.309333      -280.5312
   6   2.0000     -10.308915      -280.5198
   7   2.0000     -10.304426      -280.3977
   8   2.0000     -10.299786      -280.2714
   9   2.0000     -10.297938      -280.2211
  10   2.0000     -10.297365      -280.2055
  11   2.0000     -10.291363      -280.0422
  12   2.0000     -10.285599      -279.8854
  13   2.0000     -10.282999      -279.8146
  14   2.0000     -10.282669      -279.8056
  15   2.0000     -10.280416      -279.7443
  16   2.0000      -8.080652      -219.8857
  17   2.0000      -8.078593      -219.8297
  18   2.0000      -6.039376      -164.3398
  19   2.0000      -6.037146      -164.2791
  20   2.0000      -6.035401      -164.2316
  21   2.0000      -6.033030      -164.1671
  22   2.0000      -6.031206      -164.1175
  23   2.0000      -6.029219      -164.0634
  24   2.0000      -1.009535       -27.4708
  25   2.0000      -0.978883       -26.6368
  26   2.0000      -0.913090       -24.8464
  27   2.0000      -0.906374       -24.6637
  28   2.0000      -0.872048       -23.7296
  29   2.0000      -0.855566       -23.2811
  30   2.0000      -0.845679       -23.0121
  31   2.0000      -0.810876       -22.0651
  32   2.0000      -0.778646       -21.1880
  33   2.0000      -0.763980       -20.7889
  34   2.0000      -0.714314       -19.4375
  35   2.0000      -0.702140       -19.1062
  36   2.0000      -0.693118       -18.8607
  37   2.0000      -0.666187       -18.1279
  38   2.0000      -0.630498       -17.1567
  39   2.0000      -0.621770       -16.9192
  40   2.0000      -0.604096       -16.4383
  41   2.0000      -0.570190       -15.5157
  42   2.0000      -0.564404       -15.3582
  43   2.0000      -0.557212       -15.1625
  44   2.0000      -0.525397       -14.2968
  45   2.0000      -0.524475       -14.2717
  46   2.0000      -0.519524       -14.1370
  47   2.0000      -0.508690       -13.8422
  48   2.0000      -0.500150       -13.6098
  49   2.0000      -0.496605       -13.5133
  50   2.0000      -0.491192       -13.3660
  51   2.0000      -0.484221       -13.1763
  52   2.0000      -0.476710       -12.9719
  53   2.0000      -0.463803       -12.6207
  54   2.0000      -0.454699       -12.3730
  55   2.0000      -0.447952       -12.1894
  56   2.0000      -0.445943       -12.1347
  57   2.0000      -0.436582       -11.8800
  58   2.0000      -0.434549       -11.8247
  59   2.0000      -0.430524       -11.7152
  60   2.0000      -0.424978       -11.5642
  61   2.0000      -0.418666       -11.3925
  62   2.0000      -0.411465       -11.1965
  63   2.0000      -0.354232        -9.6391
  64   2.0000      -0.332528        -9.0485
  65   2.0000      -0.323758        -8.8099
  66   2.0000      -0.277928        -7.5628
  67   0.0000       0.018878         0.5137
  68   0.0000       0.077672         2.1136
  69   0.0000       0.103731         2.8227
  70   0.0000       0.117405         3.1948
  71   0.0000       0.132139         3.5957

MULLIKEN ATOMIC CHARGES
-----------------------
   0 S :    0.103595
   1 C :   -0.122716
   2 C :   -0.087783
   3 C :   -0.001154
   4 C :   -0.120830
   5 H :    0.012627
   6 C :   -0.026328
   7 H :    0.038683
   8 H :    0.054843
   9 C :   -0.073570
  10 H :    0.044175
  11 H :    0.037852
  12 C :   -0.049840
  13 H :    0.042820
  14 H :    0.034031
  15 H :    0.035917
  16 S :    0.099877
  17 C :   -0.052506
  18 C :   -0.018685
  19 C :   -0.035720
  20 C :   -0.141114
  21 H :   -0.014952
  22 C :    0.055080
  23 H :    0.024475
  24 H :    0.010864
  25 C :   -0.032363
  26 H :    0.023849
  27 H :    0.031171
  28 C :   -0.076452
  29 H :    0.037859
  30 H :    0.032154
  31 H :    0.035567
  32 H :    0.056253
  33 H :    0.042322
Sum of atomic charges:   -0.0000000

LOEWDIN ATOMIC CHARGES
----------------------
   0 S :    0.382874
   1 C :   -0.218766
   2 C :   -0.064502
   3 C :   -0.064525
   4 C :   -0.175660
   5 H :    0.026060
   6 C :   -0.046959
   7 H :    0.035740
   8 H :    0.044894
   9 C :   -0.039600
  10 H :    0.023675
  11 H :    0.027149
  12 C :   -0.064949
  13 H :    0.025701
  14 H :    0.031419
  15 H :    0.027053
  16 S :    0.414409
  17 C :   -0.190455
  18 C :   -0.064396
  19 C :   -0.054619
  20 C :   -0.190578
  21 H :    0.018887
  22 C :   -0.026148
  23 H :    0.035373
  24 H :    0.020733
  25 C :   -0.034744
  26 H :    0.021355
  27 H :    0.027452
  28 C :   -0.073355
  29 H :    0.022637
  30 H :    0.028781
  31 H :    0.029665
  32 H :    0.037740
  33 H :    0.027659

  Mayer bond orders larger than 0.100000
B(  0-S ,  1-C ) :   1.1275 B(  0-S ,  4-C ) :   1.1302 B(  1-C ,  2-C ) :   1.6078
B(  1-C ,  4-C ) :   0.1051 B(  1-C , 32-H ) :   0.9645 B(  2-C ,  3-C ) :   1.2640
B(  2-C ,  6-C ) :   0.9989 B(  3-C ,  4-C ) :   1.5424 B(  3-C ,  5-H ) :   0.9829
B(  4-C , 20-C ) :   1.0941 B(  6-C ,  7-H ) :   0.9487 B(  6-C ,  8-H ) :   0.9363
B(  6-C ,  9-C ) :   1.0602 B(  9-C , 10-H ) :   0.9552 B(  9-C , 11-H ) :   0.9461
B(  9-C , 12-C ) :   1.0904 B( 12-C , 13-H ) :   0.9755 B( 12-C , 14-H ) :   0.9718
B( 12-C , 15-H ) :   0.9737 B( 16-S , 17-C ) :   1.1457 B( 16-S , 20-C ) :   1.1427
B( 17-C , 18-C ) :   1.6054 B( 17-C , 33-H ) :   0.9709 B( 18-C , 19-C ) :   1.2524
B( 18-C , 21-H ) :   0.9959 B( 19-C , 20-C ) :   1.5684 B( 19-C , 22-C ) :   1.0602
B( 22-C , 23-H ) :   0.9374 B( 22-C , 24-H ) :   0.9246 B( 22-C , 25-C ) :   1.0553
B( 25-C , 26-H ) :   0.9512 B( 25-C , 27-H ) :   0.9581 B( 25-C , 28-C ) :   1.0799
B( 28-C , 29-H ) :   0.9787 B( 28-C , 30-H ) :   0.9695 B( 28-C , 31-H ) :   0.9743

Dispersion correction           -0.014293824
FINAL SINGLE POINT ENERGY     -1339.870938339774

DIPOLE MOMENT
-------------
                                X             Y             Z
Electronic contribution:      7.45057      13.78134     -28.70229
Nuclear contribution   :     -7.68393     -14.28556      29.35604
                        -----------------------------------------
Total Dipole Moment    :     -0.23336      -0.50423       0.65375
                        -----------------------------------------
Magnitude (a.u.)       :      0.85796
Magnitude (Debye)      :      2.18076

Rotational constants in cm-1:     0.017316     0.009524     0.006939
Rotational constants in MHz :   519.129748   285.514328   208.024944

                             ****ORCA TERMINATED NORMALLY****
TOTAL RUN TIME: 0 days 0 hours 0 minutes 30 seconds 952 msec
