                         Program Version 4.2.1 -  RELEASE  -
|  1> ! wB97X-D3 SP def2-SVP
|  2> %pal
|  3> nprocs 16
|  4> end
|  5>
|  6> * xyz 0 1
|  7> S 	 -36.2067 	 58.7764 	 111.666
|  8> C 	 -34.5395 	 59.3674 	 111.639
|  9> C 	 -33.7367 	 58.626 	 112.489
| 10> C 	 -34.4412 	 57.4091 	 112.965
| 11> C 	 -35.7975 	 57.4109 	 112.663
| 12> H 	 -33.9807 	 56.6379 	 113.479
| 13> C 	 -32.3074 	 58.8669 	 112.613
| 14> H 	 -31.8901 	 58.5068 	 113.588
| 15> H 	 -32.1823 	 59.9462 	 112.606
| 16> C 	 -31.4448 	 58.3692 	 111.433
| 17> H 	 -31.8091 	 58.758 	 110.474
| 18> H 	 -30.4033 	 58.8174 	 111.538
| 19> C 	 -31.268 	 56.8203 	 111.346
| 20> H 	 -32.1739 	 56.3006 	 111.068
| 21> H 	 -30.5355 	 56.5383 	 110.604
| 22> H 	 -30.901 	 56.5163 	 112.348
| 23> S 	 -38.0075 	 56.762 	 114.161
| 24> C 	 -38.7276 	 55.2331 	 114.018
| 25> C 	 -38.049 	 54.4374 	 113.159
| 26> C 	 -36.9577 	 55.0866 	 112.511
| 27> C 	 -36.7919 	 56.3768 	 113.001
| 28> H 	 -38.325 	 53.3426 	 112.987
| 29> C 	 -36.1841 	 54.2996 	 111.438
| 30> H 	 -36.505 	 53.2188 	 111.394
| 31> H 	 -35.13 	 54.3197 	 111.89
| 32> C 	 -36.2983 	 54.918 	 110.035
| 33> H 	 -35.4757 	 54.4896 	 109.379
| 34> H 	 -36.1503 	 55.9984 	 110.031
| 35> C 	 -37.6531 	 54.6196 	 109.418
| 36> H 	 -37.7533 	 55.3734 	 108.572
| 37> H 	 -38.5031 	 54.7986 	 110.112
| 38> H 	 -37.6938 	 53.5934 	 109.024
| 39> H 	 -34.2139 	 60.2448 	 111.124
| 40> H 	 -39.6795 	 54.8909 	 114.469
| 41> *
| 42>
| 43>                          ****END OF INPUT****

CARTESIAN COORDINATES (ANGSTROEM)
---------------------------------
  S    -36.206700   58.776400  111.666000
  C    -34.539500   59.367400  111.639000
  C    -33.736700   58.626000  112.489000
  C    -34.441200   57.409100  112.965000
  C    -35.797500   57.410900  112.663000
  H    -33.980700   56.637900  113.479000
  C    -32.307400   58.866900  112.613000
  H    -31.890100   58.506800  113.588000
  H    -32.182300   59.946200  112.606000
  C    -31.444800   58.369200  111.433000
  H    -31.809100   58.758000  110.474000
  H    -30.403300   58.817400  111.538000
  C    -31.268000   56.820300  111.346000
  H    -32.173900   56.300600  111.068000
  H    -30.535500   56.538300  110.604000
  H    -30.901000   56.516300  112.348000
  S    -38.007500   56.762000  114.161000
  C    -38.727600   55.233100  114.018000
  C    -38.049000   54.437400  113.159000
  C    -36.957700   55.086600  112.511000
  C    -36.791900   56.376800  113.001000
  H    -38.325000   53.342600  112.987000
  C    -36.184100   54.299600  111.438000
  H    -36.505000   53.218800  111.394000
  H    -35.130000   54.319700  111.890000
  C    -36.298300   54.918000  110.035000
  H    -35.475700   54.489600  109.379000
  H    -36.150300   55.998400  110.031000
  C    -37.653100   54.619600  109.418000
  H    -37.753300   55.373400  108.572000
  H    -38.503100   54.798600  110.112000
  H    -37.693800   53.593400  109.024000
  H    -34.213900   60.244800  111.124000
  H    -39.679500   54.890900  114.469000

 Total Charge           Charge          ....    0
 Multiplicity           Mult            ....    1
 Number of Electrons    NEL             ....  134
 Basis Dimension        Dim             ....  322

ORBITAL ENERGIES
----------------

  NO   OCC          E(Eh)            E(eV)
   0   2.0000     -88.966245     -2420.8946
   1   2.0000     -88.965405     -2420.8717
   2   2.0000     -10.330816      -281.1158
   3   2.0000     -10.323970      -280.9295
   4   2.0000     -10.314818      -280.6805
   5   2.0000     -10.311182      -280.5815
   6   2.0000     -10.302694      -280.3505
   7   2.0000     -10.302342      -280.3410
   8   2.0000     -10.301013      -280.3048
   9   2.0000     -10.295634      -280.1584
  10   2.0000     -10.295262      -280.1483
  11   2.0000     -10.292849      -280.0827
  12   2.0000     -10.290790      -280.0266
  13   2.0000     -10.285771      -279.8901
  14   2.0000     -10.279045      -279.7070
  15   2.0000     -10.279035      -279.7068
  16   2.0000      -8.081599      -219.9115
  17   2.0000      -8.080528      -219.8824
  18   2.0000      -6.039945      -164.3553
  19   2.0000      -6.039095      -164.3321
  20   2.0000      -6.035872      -164.2444
  21   2.0000      -6.035007      -164.2209
  22   2.0000      -6.032461      -164.1516
  23   2.0000      -6.031336      -164.1210
  24   2.0000      -1.010759       -27.5042
  25   2.0000      -0.985825       -26.8257
  26   2.0000      -0.914259       -24.8783
  27   2.0000      -0.905696       -24.6452
  28   2.0000      -0.866024       -23.5657
  29   2.0000      -0.847684       -23.0667
  30   2.0000      -0.841995       -22.9119
  31   2.0000      -0.816014       -22.2049
  32   2.0000      -0.781123       -21.2554
  33   2.0000      -0.768543       -20.9131
  34   2.0000      -0.703136       -19.1333
  35   2.0000      -0.700690       -19.0667
  36   2.0000      -0.681808       -18.5529
  37   2.0000      -0.655102       -17.8262
  38   2.0000      -0.644036       -17.5251
  39   2.0000      -0.614510       -16.7217
  40   2.0000      -0.591346       -16.0913
  41   2.0000      -0.574988       -15.6462
  42   2.0000      -0.549618       -14.9559
  43   2.0000      -0.546688       -14.8761
  44   2.0000      -0.542937       -14.7741
  45   2.0000      -0.537024       -14.6132
  46   2.0000      -0.516625       -14.0581
  47   2.0000      -0.507232       -13.8025
  48   2.0000      -0.505125       -13.7452
  49   2.0000      -0.496391       -13.5075
  50   2.0000      -0.487967       -13.2782
  51   2.0000      -0.473533       -12.8855
  52   2.0000      -0.473139       -12.8748
  53   2.0000      -0.467564       -12.7231
  54   2.0000      -0.462169       -12.5763
  55   2.0000      -0.441291       -12.0081
  56   2.0000      -0.439119       -11.9490
  57   2.0000      -0.436930       -11.8895
  58   2.0000      -0.426700       -11.6111
  59   2.0000      -0.422882       -11.5072
  60   2.0000      -0.421467       -11.4687
  61   2.0000      -0.418757       -11.3949
  62   2.0000      -0.408058       -11.1038
  63   2.0000      -0.335599        -9.1321
  64   2.0000      -0.328364        -8.9352
  65   2.0000      -0.325605        -8.8602
  66   2.0000      -0.306508        -8.3405
  67   0.0000       0.043029         1.1709
  68   0.0000       0.060901         1.6572
  69   0.0000       0.112221         3.0537
  70   0.0000       0.122530         3.3342
  71   0.0000       0.126112         3.4317

MULLIKEN ATOMIC CHARGES
-----------------------
   0 S :    0.113988
   1 C :   -0.120898
   2 C :   -0.077904
   3 C :    0.076941
   4 C :   -0.162559
   5 H :   -0.014753
   6 C :    0.050656
   7 H :    0.032356
   8 H :    0.024863
   9 C :   -0.093389
  10 H :    0.024690
  11 H :    0.036262
  12 C :   -0.049278
  13 H :    0.041377
  14 H :    0.033647
  15 H :    0.026970
  16 S :    0.133471
  17 C :   -0.092435
  18 C :   -0.075072
  19 C :   -0.026312
  20 C :   -0.202273
  21 H :    0.039506
  22 C :    0.051770
  23 H :    0.030167
  24 H :    0.045484
  25 C :   -0.073041
  26 H :    0.036364
  27 H :    0.036772
  28 C :   -0.080666
  29 H :    0.041781
  30 H :    0.046918
  31 H :    0.036411
  32 H :    0.043584
  33 H :    0.064602
Sum of atomic charges:   -0.0000000

LOEWDIN ATOMIC CHARGES
----------------------
   0 S :    0.403260
   1 C :   -0.185340
   2 C :   -0.060131
   3 C :   -0.046254
   4 C :   -0.200550
   5 H :    0.018096
   6 C :   -0.043315
   7 H :    0.034687
   8 H :    0.035228
   9 C :   -0.038151
  10 H :    0.020196
  11 H :    0.029089
  12 C :   -0.067181
  13 H :    0.023561
  14 H :    0.025508
  15 H :    0.025612
  16 S :    0.445339
  17 C :   -0.211116
  18 C :   -0.089898
  19 C :   -0.055643
  20 C :   -0.222695
  21 H :    0.041310
  22 C :   -0.036965
  23 H :    0.033605
  24 H :    0.039881
  25 C :   -0.048183
  26 H :    0.030281
  27 H :    0.021623
  28 C :   -0.072938
  29 H :    0.034499
  30 H :    0.029045
  31 H :    0.023909
  32 H :    0.023992
  33 H :    0.039640

  Mayer bond orders larger than 0.100000
B(  0-S ,  1-C ) :   1.1307 B(  0-S ,  4-C ) :   1.1489 B(  1-C ,  2-C ) :   1.6133
B(  1-C , 32-H ) :   0.9721 B(  2-C ,  3-C ) :   1.1995 B(  2-C ,  6-C ) :   1.0570
B(  3-C ,  4-C ) :   1.6046 B(  3-C ,  5-H ) :   1.0051 B(  4-C , 20-C ) :   0.9991
B(  6-C ,  7-H ) :   0.9385 B(  6-C ,  8-H ) :   0.9274 B(  6-C ,  9-C ) :   1.0737
B(  9-C , 10-H ) :   0.9543 B(  9-C , 11-H ) :   0.9560 B(  9-C , 12-C ) :   1.0734
B( 12-C , 13-H ) :   0.9758 B( 12-C , 14-H ) :   0.9742 B( 12-C , 15-H ) :   0.9753
B( 16-S , 17-C ) :   1.1705 B( 16-S , 20-C ) :   1.1661 B( 17-C , 18-C ) :   1.6039
B( 17-C , 33-H ) :   0.9597 B( 18-C , 19-C ) :   1.2684 B( 18-C , 21-H ) :   0.9760
B( 19-C , 20-C ) :   1.5880 B( 19-C , 22-C ) :   1.0205 B( 22-C , 23-H ) :   0.9424
B( 22-C , 24-H ) :   0.9320 B( 22-C , 25-C ) :   1.0612 B( 25-C , 26-H ) :   0.9532
B( 25-C , 27-H ) :   0.9619 B( 25-C , 28-C ) :   1.0663 B( 28-C , 29-H ) :   0.9747
B( 28-C , 30-H ) :   0.9764 B( 28-C , 31-H ) :   0.9748

Dispersion correction           -0.015473309
FINAL SINGLE POINT ENERGY     -1339.891117920520

DIPOLE MOMENT
-------------
                                X             Y             Z
Electronic contribution:    -17.94998      10.04420      14.22399
Nuclear contribution   :     18.41661     -10.31972     -14.42417
                        -----------------------------------------
Total Dipole Moment    :      0.46662      -0.27552      -0.20018
                        -----------------------------------------
Magnitude (a.u.)       :      0.57769
Magnitude (Debye)      :      1.46836

Rotational constants in cm-1:     0.020248     0.008901     0.007640
Rotational constants in MHz :   607.025524   266.844824   229.042970

                             ****ORCA TERMINATED NORMALLY****
TOTAL RUN TIME: 0 days 0 hours 0 minutes 31 seconds 825 msec
