                         Program Version 4.2.1 -  RELEASE  -
|  1> ! wB97X-D3 SP def2-SVP
|  2> %pal
|  3> nprocs 16
|  4> end
|  5>
|  6> * xyz 0 1
|  7> S 	 -57.0355 	 37.4529 	 112.857
|  8> C 	 -55.4121 	 37.1559 	 112.309
|  9> C 	 -54.6874 	 38.347 	 112.361
| 10> C 	 -55.3827 	 39.3476 	 112.978
| 11> C 	 -56.6773 	 39.0686 	 113.324
| 12> H 	 -54.9811 	 40.3856 	 113.062
| 13> C 	 -53.3419 	 38.5695 	 111.8
| 14> H 	 -53.4013 	 39.3595 	 111.033
| 15> H 	 -53.0882 	 37.6425 	 111.284
| 16> C 	 -52.2494 	 38.9086 	 112.835
| 17> H 	 -51.2963 	 38.6996 	 112.352
| 18> H 	 -52.3396 	 39.9718 	 112.971
| 19> C 	 -52.3173 	 38.2008 	 114.194
| 20> H 	 -52.4852 	 37.2197 	 113.883
| 21> H 	 -51.4389 	 38.3725 	 114.738
| 22> H 	 -53.2223 	 38.5317 	 114.716
| 23> S 	 -58.9789 	 40.1568 	 112.525
| 24> C 	 -59.5683 	 41.6608 	 113.213
| 25> C 	 -58.7833 	 41.9688 	 114.33
| 26> C 	 -57.6315 	 41.1075 	 114.54
| 27> C 	 -57.6287 	 40.0543 	 113.646
| 28> H 	 -59.0275 	 42.8292 	 114.976
| 29> C 	 -56.5457 	 41.3532 	 115.645
| 30> H 	 -56.7403 	 42.2439 	 116.178
| 31> H 	 -55.5272 	 41.2814 	 115.257
| 32> C 	 -56.6821 	 40.2227 	 116.756
| 33> H 	 -56.6492 	 39.2226 	 116.327
| 34> H 	 -57.598 	 40.2527 	 117.277
| 35> C 	 -55.5794 	 40.3356 	 117.843
| 36> H 	 -54.6429 	 40.0563 	 117.394
| 37> H 	 -55.7801 	 39.6752 	 118.691
| 38> H 	 -55.5765 	 41.3919 	 118.212
| 39> H 	 -54.9724 	 36.2152 	 111.974
| 40> H 	 -60.5629 	 42.0939 	 113.016
| 41> *
| 42>
| 43>                          ****END OF INPUT****

CARTESIAN COORDINATES (ANGSTROEM)
---------------------------------
  S    -57.035500   37.452900  112.857000
  C    -55.412100   37.155900  112.309000
  C    -54.687400   38.347000  112.361000
  C    -55.382700   39.347600  112.978000
  C    -56.677300   39.068600  113.324000
  H    -54.981100   40.385600  113.062000
  C    -53.341900   38.569500  111.800000
  H    -53.401300   39.359500  111.033000
  H    -53.088200   37.642500  111.284000
  C    -52.249400   38.908600  112.835000
  H    -51.296300   38.699600  112.352000
  H    -52.339600   39.971800  112.971000
  C    -52.317300   38.200800  114.194000
  H    -52.485200   37.219700  113.883000
  H    -51.438900   38.372500  114.738000
  H    -53.222300   38.531700  114.716000
  S    -58.978900   40.156800  112.525000
  C    -59.568300   41.660800  113.213000
  C    -58.783300   41.968800  114.330000
  C    -57.631500   41.107500  114.540000
  C    -57.628700   40.054300  113.646000
  H    -59.027500   42.829200  114.976000
  C    -56.545700   41.353200  115.645000
  H    -56.740300   42.243900  116.178000
  H    -55.527200   41.281400  115.257000
  C    -56.682100   40.222700  116.756000
  H    -56.649200   39.222600  116.327000
  H    -57.598000   40.252700  117.277000
  C    -55.579400   40.335600  117.843000
  H    -54.642900   40.056300  117.394000
  H    -55.780100   39.675200  118.691000
  H    -55.576500   41.391900  118.212000
  H    -54.972400   36.215200  111.974000
  H    -60.562900   42.093900  113.016000

 Total Charge           Charge          ....    0
 Multiplicity           Mult            ....    1
 Number of Electrons    NEL             ....  134
 Basis Dimension        Dim             ....  322

ORBITAL ENERGIES
----------------

  NO   OCC          E(Eh)            E(eV)
   0   2.0000     -88.970825     -2421.0192
   1   2.0000     -88.962640     -2420.7965
   2   2.0000     -10.324401      -280.9412
   3   2.0000     -10.323099      -280.9058
   4   2.0000     -10.320571      -280.8370
   5   2.0000     -10.316521      -280.7268
   6   2.0000     -10.308370      -280.5050
   7   2.0000     -10.300922      -280.3023
   8   2.0000     -10.299083      -280.2523
   9   2.0000     -10.292532      -280.0740
  10   2.0000     -10.289991      -280.0049
  11   2.0000     -10.287713      -279.9429
  12   2.0000     -10.282908      -279.8121
  13   2.0000     -10.280068      -279.7349
  14   2.0000     -10.277377      -279.6617
  15   2.0000     -10.268347      -279.4159
  16   2.0000      -8.085908      -220.0287
  17   2.0000      -8.077344      -219.7957
  18   2.0000      -6.044288      -164.4734
  19   2.0000      -6.040245      -164.3634
  20   2.0000      -6.036894      -164.2722
  21   2.0000      -6.035955      -164.2467
  22   2.0000      -6.031755      -164.1324
  23   2.0000      -6.028079      -164.0324
  24   2.0000      -1.018420       -27.7126
  25   2.0000      -0.985265       -26.8104
  26   2.0000      -0.919844       -25.0302
  27   2.0000      -0.900017       -24.4907
  28   2.0000      -0.874565       -23.7981
  29   2.0000      -0.854767       -23.2594
  30   2.0000      -0.842748       -22.9323
  31   2.0000      -0.813934       -22.1483
  32   2.0000      -0.785272       -21.3683
  33   2.0000      -0.772782       -21.0285
  34   2.0000      -0.711122       -19.3506
  35   2.0000      -0.698714       -19.0130
  36   2.0000      -0.692733       -18.8502
  37   2.0000      -0.662111       -18.0169
  38   2.0000      -0.635454       -17.2916
  39   2.0000      -0.627142       -17.0654
  40   2.0000      -0.591301       -16.0901
  41   2.0000      -0.568660       -15.4740
  42   2.0000      -0.566935       -15.4271
  43   2.0000      -0.561091       -15.2681
  44   2.0000      -0.547646       -14.9022
  45   2.0000      -0.522745       -14.2246
  46   2.0000      -0.518266       -14.1027
  47   2.0000      -0.512077       -13.9343
  48   2.0000      -0.507146       -13.8001
  49   2.0000      -0.498309       -13.5597
  50   2.0000      -0.491082       -13.3630
  51   2.0000      -0.488244       -13.2858
  52   2.0000      -0.475228       -12.9316
  53   2.0000      -0.466507       -12.6943
  54   2.0000      -0.459887       -12.5142
  55   2.0000      -0.445400       -12.1200
  56   2.0000      -0.442269       -12.0348
  57   2.0000      -0.437479       -11.9044
  58   2.0000      -0.430380       -11.7112
  59   2.0000      -0.424821       -11.5600
  60   2.0000      -0.421969       -11.4824
  61   2.0000      -0.417791       -11.3687
  62   2.0000      -0.411688       -11.2026
  63   2.0000      -0.350898        -9.5484
  64   2.0000      -0.334215        -9.0944
  65   2.0000      -0.327510        -8.9120
  66   2.0000      -0.289517        -7.8782
  67   0.0000       0.026277         0.7150
  68   0.0000       0.067664         1.8412
  69   0.0000       0.114240         3.1086
  70   0.0000       0.118818         3.2332
  71   0.0000       0.129798         3.5320

MULLIKEN ATOMIC CHARGES
-----------------------
   0 S :    0.123452
   1 C :   -0.119777
   2 C :   -0.126350
   3 C :    0.005173
   4 C :   -0.139070
   5 H :    0.028273
   6 C :    0.085506
   7 H :    0.046230
   8 H :    0.005796
   9 C :   -0.115800
  10 H :    0.030771
  11 H :    0.019856
  12 C :    0.026722
  13 H :    0.006637
  14 H :    0.037089
  15 H :    0.035748
  16 S :    0.094503
  17 C :   -0.103156
  18 C :   -0.052287
  19 C :   -0.046891
  20 C :   -0.150407
  21 H :    0.028182
  22 C :    0.114336
  23 H :    0.008607
  24 H :    0.031358
  25 C :   -0.101708
  26 H :    0.036005
  27 H :    0.018317
  28 C :   -0.049855
  29 H :    0.030113
  30 H :    0.038259
  31 H :    0.030729
  32 H :    0.048501
  33 H :    0.075134
Sum of atomic charges:   -0.0000000

LOEWDIN ATOMIC CHARGES
----------------------
   0 S :    0.433817
   1 C :   -0.205006
   2 C :   -0.072449
   3 C :   -0.065310
   4 C :   -0.213886
   5 H :    0.037696
   6 C :   -0.032121
   7 H :    0.040045
   8 H :    0.025488
   9 C :   -0.037980
  10 H :    0.024352
  11 H :    0.014834
  12 C :   -0.051723
  13 H :    0.018548
  14 H :    0.022376
  15 H :    0.029802
  16 S :    0.399518
  17 C :   -0.198781
  18 C :   -0.071677
  19 C :   -0.057162
  20 C :   -0.190362
  21 H :    0.032963
  22 C :   -0.015589
  23 H :    0.023032
  24 H :    0.030100
  25 C :   -0.035787
  26 H :    0.022256
  27 H :    0.015732
  28 C :   -0.065640
  29 H :    0.019493
  30 H :    0.027281
  31 H :    0.026334
  32 H :    0.031766
  33 H :    0.038039

  Mayer bond orders larger than 0.100000
B(  0-S ,  1-C ) :   1.1528 B(  0-S ,  4-C ) :   1.1623 B(  1-C ,  2-C ) :   1.5503
B(  1-C ,  4-C ) :   0.1064 B(  1-C , 32-H ) :   0.9645 B(  2-C ,  3-C ) :   1.3155
B(  2-C ,  6-C ) :   1.0332 B(  3-C ,  4-C ) :   1.5133 B(  3-C ,  5-H ) :   0.9836
B(  4-C , 20-C ) :   1.0629 B(  6-C ,  7-H ) :   0.9415 B(  6-C ,  8-H ) :   0.9293
B(  6-C ,  9-C ) :   1.0590 B(  9-C , 10-H ) :   0.9593 B(  9-C , 11-H ) :   0.9540
B(  9-C , 12-C ) :   1.0878 B( 12-C , 13-H ) :   0.9730 B( 12-C , 14-H ) :   0.9730
B( 12-C , 15-H ) :   0.9624 B( 16-S , 17-C ) :   1.1451 B( 16-S , 20-C ) :   1.1435
B( 17-C , 18-C ) :   1.6086 B( 17-C , 20-C ) :   0.1031 B( 17-C , 33-H ) :   0.9629
B( 18-C , 19-C ) :   1.2489 B( 18-C , 21-H ) :   0.9803 B( 19-C , 20-C ) :   1.5921
B( 19-C , 22-C ) :   1.0449 B( 22-C , 23-H ) :   0.9320 B( 22-C , 24-H ) :   0.9410
B( 22-C , 25-C ) :   1.0545 B( 25-C , 26-H ) :   0.9611 B( 25-C , 27-H ) :   0.9578
B( 25-C , 28-C ) :   1.0828 B( 28-C , 29-H ) :   0.9779 B( 28-C , 30-H ) :   0.9752
B( 28-C , 31-H ) :   0.9737

Dispersion correction           -0.015125176
FINAL SINGLE POINT ENERGY     -1339.876635179294

DIPOLE MOMENT
-------------
                                X             Y             Z
Electronic contribution:    -23.31140      -4.00384     -15.59232
Nuclear contribution   :     23.79546       4.24055      15.77051
                        -----------------------------------------
Total Dipole Moment    :      0.48406       0.23671       0.17819
                        -----------------------------------------
Magnitude (a.u.)       :      0.56753
Magnitude (Debye)      :      1.44255

Rotational constants in cm-1:     0.017326     0.010330     0.007688
Rotational constants in MHz :   519.414122   309.698546   230.467109

                             ****ORCA TERMINATED NORMALLY****
TOTAL RUN TIME: 0 days 0 hours 0 minutes 31 seconds 780 msec
