                         Program Version 4.2.1 -  RELEASE  -
|  1> ! wB97X-D3 SP def2-SVP
|  2> %pal
|  3> nprocs 16
|  4> end
|  5>
|  6> * xyz 0 1
|  7> S 	 -49.5348 	 36.3775 	 109.998
|  8> C 	 -48.865 	 37.9972 	 109.948
|  9> C 	 -49.2614 	 38.6929 	 108.844
| 10> C 	 -50.0374 	 37.8963 	 107.942
| 11> C 	 -50.3062 	 36.6324 	 108.378
| 12> H 	 -50.4593 	 38.2379 	 107.026
| 13> C 	 -48.7908 	 40.1157 	 108.592
| 14> H 	 -48.7535 	 40.3179 	 107.511
| 15> H 	 -47.789 	 40.2272 	 109.019
| 16> C 	 -49.6918 	 41.33 	 109.034
| 17> H 	 -50.5088 	 41.4056 	 108.397
| 18> H 	 -50.1516 	 41.0963 	 110.035
| 19> C 	 -48.9535 	 42.6828 	 108.921
| 20> H 	 -48.3928 	 42.9018 	 108.024
| 21> H 	 -49.6024 	 43.4542 	 109.262
| 22> H 	 -48.1295 	 42.629 	 109.597
| 23> S 	 -50.3803 	 34.436 	 106.732
| 24> C 	 -51.8371 	 33.4882 	 106.706
| 25> C 	 -52.9149 	 34.1655 	 107.29
| 26> C 	 -52.4953 	 35.4242 	 107.852
| 27> C 	 -51.1315 	 35.6421 	 107.698
| 28> H 	 -53.8439 	 33.6345 	 107.237
| 29> C 	 -53.3231 	 36.2162 	 108.776
| 30> H 	 -53.7003 	 37.1004 	 108.155
| 31> H 	 -52.7148 	 36.4098 	 109.638
| 32> C 	 -54.5978 	 35.5365 	 109.368
| 33> H 	 -54.9271 	 36.0965 	 110.303
| 34> H 	 -54.3513 	 34.4464 	 109.566
| 35> C 	 -55.8108 	 35.633 	 108.404
| 36> H 	 -56.0922 	 36.6241 	 108.162
| 37> H 	 -56.701 	 35.2784 	 108.973
| 38> H 	 -55.6566 	 34.9903 	 107.578
| 39> H 	 -48.2872 	 38.4602 	 110.749
| 40> H 	 -52.0467 	 32.5267 	 106.326
| 41> *
| 42>
| 43>                          ****END OF INPUT****

CARTESIAN COORDINATES (ANGSTROEM)
---------------------------------
  S    -49.534800   36.377500  109.998000
  C    -48.865000   37.997200  109.948000
  C    -49.261400   38.692900  108.844000
  C    -50.037400   37.896300  107.942000
  C    -50.306200   36.632400  108.378000
  H    -50.459300   38.237900  107.026000
  C    -48.790800   40.115700  108.592000
  H    -48.753500   40.317900  107.511000
  H    -47.789000   40.227200  109.019000
  C    -49.691800   41.330000  109.034000
  H    -50.508800   41.405600  108.397000
  H    -50.151600   41.096300  110.035000
  C    -48.953500   42.682800  108.921000
  H    -48.392800   42.901800  108.024000
  H    -49.602400   43.454200  109.262000
  H    -48.129500   42.629000  109.597000
  S    -50.380300   34.436000  106.732000
  C    -51.837100   33.488200  106.706000
  C    -52.914900   34.165500  107.290000
  C    -52.495300   35.424200  107.852000
  C    -51.131500   35.642100  107.698000
  H    -53.843900   33.634500  107.237000
  C    -53.323100   36.216200  108.776000
  H    -53.700300   37.100400  108.155000
  H    -52.714800   36.409800  109.638000
  C    -54.597800   35.536500  109.368000
  H    -54.927100   36.096500  110.303000
  H    -54.351300   34.446400  109.566000
  C    -55.810800   35.633000  108.404000
  H    -56.092200   36.624100  108.162000
  H    -56.701000   35.278400  108.973000
  H    -55.656600   34.990300  107.578000
  H    -48.287200   38.460200  110.749000
  H    -52.046700   32.526700  106.326000

 Total Charge           Charge          ....    0
 Multiplicity           Mult            ....    1
 Number of Electrons    NEL             ....  134
 Basis Dimension        Dim             ....  322

ORBITAL ENERGIES
----------------

  NO   OCC          E(Eh)            E(eV)
   0   2.0000     -88.967301     -2420.9233
   1   2.0000     -88.965347     -2420.8702
   2   2.0000     -10.329408      -281.0775
   3   2.0000     -10.318668      -280.7852
   4   2.0000     -10.314156      -280.6625
   5   2.0000     -10.313950      -280.6568
   6   2.0000     -10.302221      -280.3377
   7   2.0000     -10.298747      -280.2432
   8   2.0000     -10.295302      -280.1494
   9   2.0000     -10.294608      -280.1305
  10   2.0000     -10.294239      -280.1205
  11   2.0000     -10.292308      -280.0679
  12   2.0000     -10.287377      -279.9338
  13   2.0000     -10.287307      -279.9318
  14   2.0000     -10.275176      -279.6017
  15   2.0000     -10.273305      -279.5508
  16   2.0000      -8.082453      -219.9347
  17   2.0000      -8.078997      -219.8407
  18   2.0000      -6.040921      -164.3818
  19   2.0000      -6.037576      -164.2908
  20   2.0000      -6.036786      -164.2693
  21   2.0000      -6.033750      -164.1867
  22   2.0000      -6.033346      -164.1757
  23   2.0000      -6.029651      -164.0751
  24   2.0000      -1.006212       -27.3804
  25   2.0000      -0.983051       -26.7502
  26   2.0000      -0.907994       -24.7078
  27   2.0000      -0.905118       -24.6295
  28   2.0000      -0.871677       -23.7195
  29   2.0000      -0.847729       -23.0679
  30   2.0000      -0.847231       -23.0543
  31   2.0000      -0.820847       -22.3364
  32   2.0000      -0.781335       -21.2612
  33   2.0000      -0.769042       -20.9267
  34   2.0000      -0.708835       -19.2884
  35   2.0000      -0.700221       -19.0540
  36   2.0000      -0.692328       -18.8392
  37   2.0000      -0.654412       -17.8075
  38   2.0000      -0.643086       -17.4993
  39   2.0000      -0.619437       -16.8557
  40   2.0000      -0.592339       -16.1184
  41   2.0000      -0.574183       -15.6243
  42   2.0000      -0.557028       -15.1575
  43   2.0000      -0.556113       -15.1326
  44   2.0000      -0.540443       -14.7062
  45   2.0000      -0.529557       -14.4100
  46   2.0000      -0.523113       -14.2346
  47   2.0000      -0.507021       -13.7968
  48   2.0000      -0.503326       -13.6962
  49   2.0000      -0.499171       -13.5831
  50   2.0000      -0.496998       -13.5240
  51   2.0000      -0.475324       -12.9342
  52   2.0000      -0.472497       -12.8573
  53   2.0000      -0.465739       -12.6734
  54   2.0000      -0.460024       -12.5179
  55   2.0000      -0.447906       -12.1881
  56   2.0000      -0.445585       -12.1250
  57   2.0000      -0.434744       -11.8300
  58   2.0000      -0.430520       -11.7150
  59   2.0000      -0.424180       -11.5425
  60   2.0000      -0.421727       -11.4758
  61   2.0000      -0.412228       -11.2173
  62   2.0000      -0.405203       -11.0261
  63   2.0000      -0.335718        -9.1354
  64   2.0000      -0.331941        -9.0326
  65   2.0000      -0.315790        -8.5931
  66   2.0000      -0.311381        -8.4731
  67   0.0000       0.042468         1.1556
  68   0.0000       0.053152         1.4463
  69   0.0000       0.114285         3.1099
  70   0.0000       0.122064         3.3215
  71   0.0000       0.130953         3.5634

MULLIKEN ATOMIC CHARGES
-----------------------
   0 S :    0.104621
   1 C :   -0.126509
   2 C :   -0.058350
   3 C :    0.071333
   4 C :   -0.172934
   5 H :    0.000448
   6 C :    0.023400
   7 H :    0.024672
   8 H :    0.028092
   9 C :   -0.060610
  10 H :    0.012012
  11 H :    0.032994
  12 C :   -0.021647
  13 H :    0.029939
  14 H :    0.038472
  15 H :    0.008133
  16 S :    0.139138
  17 C :   -0.071565
  18 C :   -0.070695
  19 C :   -0.013203
  20 C :   -0.198588
  21 H :    0.017652
  22 C :    0.093253
  23 H :    0.045595
  24 H :    0.038065
  25 C :   -0.132184
  26 H :    0.043805
  27 H :    0.044478
  28 C :   -0.033936
  29 H :    0.023666
  30 H :    0.029730
  31 H :    0.025459
  32 H :    0.052671
  33 H :    0.032598
Sum of atomic charges:   -0.0000000

LOEWDIN ATOMIC CHARGES
----------------------
   0 S :    0.373307
   1 C :   -0.187695
   2 C :   -0.070693
   3 C :   -0.046127
   4 C :   -0.177289
   5 H :    0.029160
   6 C :   -0.033970
   7 H :    0.032532
   8 H :    0.029193
   9 C :   -0.035326
  10 H :    0.010609
  11 H :    0.027120
  12 C :   -0.063301
  13 H :    0.028119
  14 H :    0.027151
  15 H :    0.020593
  16 S :    0.433549
  17 C :   -0.183427
  18 C :   -0.075202
  19 C :   -0.050179
  20 C :   -0.226021
  21 H :    0.029797
  22 C :   -0.040410
  23 H :    0.045861
  24 H :    0.031838
  25 C :   -0.045697
  26 H :    0.033043
  27 H :    0.029328
  28 C :   -0.064962
  29 H :    0.018611
  30 H :    0.031067
  31 H :    0.014668
  32 H :    0.032193
  33 H :    0.022560

  Mayer bond orders larger than 0.100000
B(  0-S ,  1-C ) :   1.1318 B(  0-S ,  4-C ) :   1.1089 B(  1-C ,  2-C ) :   1.6384
B(  1-C , 32-H ) :   0.9632 B(  2-C ,  3-C ) :   1.2166 B(  2-C ,  6-C ) :   1.0258
B(  3-C ,  4-C ) :   1.6253 B(  3-C ,  5-H ) :   0.9966 B(  4-C , 20-C ) :   1.0287
B(  6-C ,  7-H ) :   0.9429 B(  6-C ,  8-H ) :   0.9520 B(  6-C ,  9-C ) :   1.0491
B(  9-C , 10-H ) :   0.9577 B(  9-C , 11-H ) :   0.9583 B(  9-C , 12-C ) :   1.0732
B( 12-C , 13-H ) :   0.9733 B( 12-C , 14-H ) :   0.9735 B( 12-C , 15-H ) :   0.9730
B( 16-S , 17-C ) :   1.1666 B( 16-S , 20-C ) :   1.1524 B( 17-C , 18-C ) :   1.6242
B( 17-C , 33-H ) :   0.9649 B( 18-C , 19-C ) :   1.2230 B( 18-C , 21-H ) :   0.9885
B( 19-C , 20-C ) :   1.5862 B( 19-C , 22-C ) :   1.0491 B( 22-C , 23-H ) :   0.9172
B( 22-C , 24-H ) :   0.9273 B( 22-C , 25-C ) :   1.0792 B( 25-C , 26-H ) :   0.9581
B( 25-C , 27-H ) :   0.9511 B( 25-C , 28-C ) :   1.0770 B( 28-C , 29-H ) :   0.9719
B( 28-C , 30-H ) :   0.9720 B( 28-C , 31-H ) :   0.9801

Dispersion correction           -0.013881659
FINAL SINGLE POINT ENERGY     -1339.863977111455

DIPOLE MOMENT
-------------
                                X             Y             Z
Electronic contribution:     13.22914     -21.02372      -3.79090
Nuclear contribution   :    -13.59035      21.43755       3.82270
                        -----------------------------------------
Total Dipole Moment    :     -0.36121       0.41383       0.03180
                        -----------------------------------------
Magnitude (a.u.)       :      0.55022
Magnitude (Debye)      :      1.39854

Rotational constants in cm-1:     0.020388     0.007194     0.006174
Rotational constants in MHz :   611.216401   215.670119   185.101943

                             ****ORCA TERMINATED NORMALLY****
TOTAL RUN TIME: 0 days 0 hours 0 minutes 28 seconds 972 msec
