                         Program Version 4.2.1 -  RELEASE  -
|  1> ! wB97X-D3 SP def2-SVP
|  2> %pal
|  3> nprocs 16
|  4> end
|  5>
|  6> * xyz 0 1
|  7> S 	 -28.2031 	 55.1161 	 111.496
|  8> C 	 -29.0138 	 55.9398 	 110.189
|  9> C 	 -29.6368 	 55.0534 	 109.3
| 10> C 	 -29.3778 	 53.706 	 109.696
| 11> C 	 -28.7655 	 53.5315 	 110.884
| 12> H 	 -29.7507 	 52.7237 	 109.295
| 13> C 	 -30.5579 	 55.3924 	 108.176
| 14> H 	 -30.4349 	 54.7953 	 107.309
| 15> H 	 -30.1911 	 56.379 	 107.873
| 16> C 	 -32.0132 	 55.471 	 108.586
| 17> H 	 -32.3896 	 54.4742 	 108.926
| 18> H 	 -32.0262 	 56.0186 	 109.477
| 19> C 	 -33.0126 	 56.2527 	 107.617
| 20> H 	 -32.9524 	 55.7894 	 106.626
| 21> H 	 -34.0926 	 56.3023 	 107.857
| 22> H 	 -32.6211 	 57.2773 	 107.492
| 23> S 	 -29.1712 	 52.4138 	 113.371
| 24> C 	 -28.6217 	 50.9146 	 113.717
| 25> C 	 -28.0832 	 50.2499 	 112.623
| 26> C 	 -28.1186 	 51.0471 	 111.44
| 27> C 	 -28.6714 	 52.2949 	 111.676
| 28> H 	 -27.6193 	 49.2832 	 112.765
| 29> C 	 -27.5652 	 50.5835 	 110.069
| 30> H 	 -27.0233 	 51.4443 	 109.739
| 31> H 	 -28.2989 	 50.5256 	 109.287
| 32> C 	 -26.6231 	 49.2849 	 110.112
| 33> H 	 -27.205 	 48.3718 	 110.276
| 34> H 	 -25.8255 	 49.4678 	 110.839
| 35> C 	 -25.7769 	 49.0441 	 108.863
| 36> H 	 -26.4214 	 48.7228 	 108.033
| 37> H 	 -25.0107 	 48.3244 	 109.022
| 38> H 	 -25.2623 	 49.9658 	 108.573
| 39> H 	 -28.9687 	 57.0422 	 109.952
| 40> H 	 -28.7089 	 50.5482 	 114.649
| 41> *
| 42>
| 43>                          ****END OF INPUT****

CARTESIAN COORDINATES (ANGSTROEM)
---------------------------------
  S    -28.203100   55.116100  111.496000
  C    -29.013800   55.939800  110.189000
  C    -29.636800   55.053400  109.300000
  C    -29.377800   53.706000  109.696000
  C    -28.765500   53.531500  110.884000
  H    -29.750700   52.723700  109.295000
  C    -30.557900   55.392400  108.176000
  H    -30.434900   54.795300  107.309000
  H    -30.191100   56.379000  107.873000
  C    -32.013200   55.471000  108.586000
  H    -32.389600   54.474200  108.926000
  H    -32.026200   56.018600  109.477000
  C    -33.012600   56.252700  107.617000
  H    -32.952400   55.789400  106.626000
  H    -34.092600   56.302300  107.857000
  H    -32.621100   57.277300  107.492000
  S    -29.171200   52.413800  113.371000
  C    -28.621700   50.914600  113.717000
  C    -28.083200   50.249900  112.623000
  C    -28.118600   51.047100  111.440000
  C    -28.671400   52.294900  111.676000
  H    -27.619300   49.283200  112.765000
  C    -27.565200   50.583500  110.069000
  H    -27.023300   51.444300  109.739000
  H    -28.298900   50.525600  109.287000
  C    -26.623100   49.284900  110.112000
  H    -27.205000   48.371800  110.276000
  H    -25.825500   49.467800  110.839000
  C    -25.776900   49.044100  108.863000
  H    -26.421400   48.722800  108.033000
  H    -25.010700   48.324400  109.022000
  H    -25.262300   49.965800  108.573000
  H    -28.968700   57.042200  109.952000
  H    -28.708900   50.548200  114.649000

 Total Charge           Charge          ....    0
 Multiplicity           Mult            ....    1
 Number of Electrons    NEL             ....  134
 Basis Dimension        Dim             ....  322

ORBITAL ENERGIES
----------------

  NO   OCC          E(Eh)            E(eV)
   0   2.0000     -88.966858     -2420.9113
   1   2.0000     -88.963246     -2420.8130
   2   2.0000     -10.328096      -281.0418
   3   2.0000     -10.324454      -280.9427
   4   2.0000     -10.320997      -280.8486
   5   2.0000     -10.307924      -280.4929
   6   2.0000     -10.303963      -280.3851
   7   2.0000     -10.301598      -280.3207
   8   2.0000     -10.295803      -280.1630
   9   2.0000     -10.293230      -280.0930
  10   2.0000     -10.292754      -280.0801
  11   2.0000     -10.290124      -280.0085
  12   2.0000     -10.289103      -279.9807
  13   2.0000     -10.286398      -279.9071
  14   2.0000     -10.285918      -279.8941
  15   2.0000     -10.275964      -279.6232
  16   2.0000      -8.080930      -219.8933
  17   2.0000      -8.080248      -219.8747
  18   2.0000      -6.039552      -164.3446
  19   2.0000      -6.038341      -164.3116
  20   2.0000      -6.035514      -164.2347
  21   2.0000      -6.034313      -164.2020
  22   2.0000      -6.031604      -164.1283
  23   2.0000      -6.031426      -164.1234
  24   2.0000      -1.011280       -27.5183
  25   2.0000      -0.988722       -26.9045
  26   2.0000      -0.912399       -24.8276
  27   2.0000      -0.904480       -24.6121
  28   2.0000      -0.869602       -23.6631
  29   2.0000      -0.854233       -23.2449
  30   2.0000      -0.843328       -22.9481
  31   2.0000      -0.814076       -22.1521
  32   2.0000      -0.786691       -21.4069
  33   2.0000      -0.772185       -21.0122
  34   2.0000      -0.706469       -19.2240
  35   2.0000      -0.703390       -19.1402
  36   2.0000      -0.696725       -18.9589
  37   2.0000      -0.654975       -17.8228
  38   2.0000      -0.642932       -17.4951
  39   2.0000      -0.615896       -16.7594
  40   2.0000      -0.602321       -16.3900
  41   2.0000      -0.574400       -15.6302
  42   2.0000      -0.570729       -15.5303
  43   2.0000      -0.552170       -15.0253
  44   2.0000      -0.528377       -14.3779
  45   2.0000      -0.520721       -14.1695
  46   2.0000      -0.517544       -14.0831
  47   2.0000      -0.509689       -13.8693
  48   2.0000      -0.501743       -13.6531
  49   2.0000      -0.499776       -13.5996
  50   2.0000      -0.492824       -13.4104
  51   2.0000      -0.477625       -12.9968
  52   2.0000      -0.473845       -12.8940
  53   2.0000      -0.463297       -12.6070
  54   2.0000      -0.459388       -12.5006
  55   2.0000      -0.450889       -12.2693
  56   2.0000      -0.450014       -12.2455
  57   2.0000      -0.435107       -11.8399
  58   2.0000      -0.433743       -11.8027
  59   2.0000      -0.423212       -11.5162
  60   2.0000      -0.421084       -11.4583
  61   2.0000      -0.417865       -11.3707
  62   2.0000      -0.415489       -11.3060
  63   2.0000      -0.350386        -9.5345
  64   2.0000      -0.335276        -9.1233
  65   2.0000      -0.326073        -8.8729
  66   2.0000      -0.290786        -7.9127
  67   0.0000       0.033738         0.9181
  68   0.0000       0.068172         1.8551
  69   0.0000       0.116333         3.1656
  70   0.0000       0.126956         3.4547
  71   0.0000       0.139036         3.7834

MULLIKEN ATOMIC CHARGES
-----------------------
   0 S :    0.113680
   1 C :   -0.135789
   2 C :   -0.110488
   3 C :    0.020265
   4 C :   -0.160427
   5 H :    0.026743
   6 C :    0.100355
   7 H :    0.018408
   8 H :    0.004339
   9 C :   -0.048546
  10 H :    0.030208
  11 H :    0.011352
  12 C :   -0.068500
  13 H :    0.028540
  14 H :    0.051348
  15 H :    0.032981
  16 S :    0.125685
  17 C :   -0.036487
  18 C :   -0.056019
  19 C :   -0.017410
  20 C :   -0.193320
  21 H :    0.018875
  22 C :    0.085794
  23 H :    0.018714
  24 H :    0.030146
  25 C :   -0.108787
  26 H :    0.046758
  27 H :    0.040902
  28 C :   -0.039949
  29 H :    0.030055
  30 H :    0.031496
  31 H :    0.027807
  32 H :    0.069830
  33 H :    0.011437
Sum of atomic charges:   -0.0000000

LOEWDIN ATOMIC CHARGES
----------------------
   0 S :    0.388341
   1 C :   -0.207542
   2 C :   -0.063455
   3 C :   -0.069904
   4 C :   -0.185929
   5 H :    0.041024
   6 C :   -0.029771
   7 H :    0.024924
   8 H :    0.030093
   9 C :   -0.038636
  10 H :    0.027688
  11 H :    0.016557
  12 C :   -0.071399
  13 H :    0.022536
  14 H :    0.032511
  15 H :    0.026738
  16 S :    0.456042
  17 C :   -0.199152
  18 C :   -0.079315
  19 C :   -0.046881
  20 C :   -0.205783
  21 H :    0.031283
  22 C :   -0.029073
  23 H :    0.031815
  24 H :    0.026973
  25 C :   -0.040528
  26 H :    0.026496
  27 H :    0.029319
  28 C :   -0.063213
  29 H :    0.023305
  30 H :    0.022621
  31 H :    0.025256
  32 H :    0.042128
  33 H :    0.004931

  Mayer bond orders larger than 0.100000
B(  0-S ,  1-C ) :   1.1391 B(  0-S ,  4-C ) :   1.1236 B(  1-C ,  2-C ) :   1.6165
B(  1-C , 32-H ) :   0.9559 B(  2-C ,  3-C ) :   1.2190 B(  2-C ,  6-C ) :   1.0401
B(  3-C ,  4-C ) :   1.6228 B(  3-C ,  5-H ) :   0.9806 B(  4-C , 20-C ) :   1.0392
B(  6-C ,  7-H ) :   0.9370 B(  6-C ,  8-H ) :   0.9287 B(  6-C ,  9-C ) :   1.0597
B(  9-C , 10-H ) :   0.9553 B(  9-C , 11-H ) :   0.9537 B(  9-C , 12-C ) :   1.0639
B( 12-C , 13-H ) :   0.9791 B( 12-C , 14-H ) :   0.9783 B( 12-C , 15-H ) :   0.9758
B( 16-S , 17-C ) :   1.2119 B( 16-S , 20-C ) :   1.1570 B( 17-C , 18-C ) :   1.5418
B( 17-C , 33-H ) :   0.9783 B( 18-C , 19-C ) :   1.2790 B( 18-C , 21-H ) :   0.9953
B( 19-C , 20-C ) :   1.5783 B( 19-C , 22-C ) :   1.0168 B( 22-C , 23-H ) :   0.9262
B( 22-C , 24-H ) :   0.9371 B( 22-C , 25-C ) :   1.0674 B( 25-C , 26-H ) :   0.9540
B( 25-C , 27-H ) :   0.9591 B( 25-C , 28-C ) :   1.0877 B( 28-C , 29-H ) :   0.9746
B( 28-C , 30-H ) :   0.9754 B( 28-C , 31-H ) :   0.9743

Dispersion correction           -0.013401610
FINAL SINGLE POINT ENERGY     -1339.866506117268

DIPOLE MOMENT
-------------
                                X             Y             Z
Electronic contribution:      3.91203       6.15653      23.06060
Nuclear contribution   :     -3.93672      -6.42616     -23.46078
                        -----------------------------------------
Total Dipole Moment    :     -0.02469      -0.26963      -0.40019
                        -----------------------------------------
Magnitude (a.u.)       :      0.48318
Magnitude (Debye)      :      1.22814

Rotational constants in cm-1:     0.018522     0.007263     0.006144
Rotational constants in MHz :   555.269727   217.726342   184.201715

                             ****ORCA TERMINATED NORMALLY****
TOTAL RUN TIME: 0 days 0 hours 0 minutes 26 seconds 930 msec
