                         Program Version 4.2.1 -  RELEASE  -
|  1> ! wB97X-D3 SP def2-SVP
|  2> %pal
|  3> nprocs 16
|  4> end
|  5>
|  6> * xyz 0 1
|  7> S 	 -50.2202 	 63.0783 	 129.238
|  8> C 	 -48.7338 	 62.3505 	 128.701
|  9> C 	 -48.9812 	 61.2731 	 127.85
| 10> C 	 -50.3434 	 60.9312 	 127.778
| 11> C 	 -51.2008 	 61.7742 	 128.483
| 12> H 	 -50.8089 	 60.1695 	 127.154
| 13> C 	 -47.9741 	 60.547 	 127.023
| 14> H 	 -48.4361 	 59.9016 	 126.256
| 15> H 	 -47.3193 	 59.9604 	 127.687
| 16> C 	 -47.0209 	 61.3753 	 126.141
| 17> H 	 -47.5491 	 61.9128 	 125.321
| 18> H 	 -46.4911 	 62.0309 	 126.884
| 19> C 	 -45.9467 	 60.5649 	 125.493
| 20> H 	 -45.6202 	 59.768 	 126.205
| 21> H 	 -46.3552 	 60.0898 	 124.571
| 22> H 	 -44.9616 	 61.0827 	 125.3
| 23> S 	 -53.5488 	 63.2336 	 128.218
| 24> C 	 -55.0304 	 62.5115 	 128.847
| 25> C 	 -54.7423 	 61.2579 	 129.39
| 26> C 	 -53.4247 	 60.8001 	 129.203
| 27> C 	 -52.5964 	 61.7553 	 128.629
| 28> H 	 -55.5297 	 60.6262 	 129.782
| 29> C 	 -52.8545 	 59.4587 	 129.605
| 30> H 	 -52.2741 	 59.5049 	 130.478
| 31> H 	 -52.1677 	 59.1356 	 128.821
| 32> C 	 -53.875 	 58.267 	 129.712
| 33> H 	 -54.5507 	 58.4592 	 130.564
| 34> H 	 -53.3038 	 57.5162 	 130.182
| 35> C 	 -54.6189 	 57.761 	 128.44
| 36> H 	 -55.2144 	 58.4822 	 127.83
| 37> H 	 -55.3526 	 56.9468 	 128.54
| 38> H 	 -53.8402 	 57.3338 	 127.848
| 39> H 	 -47.8421 	 62.8712 	 128.719
| 40> H 	 -56.0503 	 62.8831 	 128.898
| 41> *
| 42>
| 43>                          ****END OF INPUT****

CARTESIAN COORDINATES (ANGSTROEM)
---------------------------------
  S    -50.220200   63.078300  129.238000
  C    -48.733800   62.350500  128.701000
  C    -48.981200   61.273100  127.850000
  C    -50.343400   60.931200  127.778000
  C    -51.200800   61.774200  128.483000
  H    -50.808900   60.169500  127.154000
  C    -47.974100   60.547000  127.023000
  H    -48.436100   59.901600  126.256000
  H    -47.319300   59.960400  127.687000
  C    -47.020900   61.375300  126.141000
  H    -47.549100   61.912800  125.321000
  H    -46.491100   62.030900  126.884000
  C    -45.946700   60.564900  125.493000
  H    -45.620200   59.768000  126.205000
  H    -46.355200   60.089800  124.571000
  H    -44.961600   61.082700  125.300000
  S    -53.548800   63.233600  128.218000
  C    -55.030400   62.511500  128.847000
  C    -54.742300   61.257900  129.390000
  C    -53.424700   60.800100  129.203000
  C    -52.596400   61.755300  128.629000
  H    -55.529700   60.626200  129.782000
  C    -52.854500   59.458700  129.605000
  H    -52.274100   59.504900  130.478000
  H    -52.167700   59.135600  128.821000
  C    -53.875000   58.267000  129.712000
  H    -54.550700   58.459200  130.564000
  H    -53.303800   57.516200  130.182000
  C    -54.618900   57.761000  128.440000
  H    -55.214400   58.482200  127.830000
  H    -55.352600   56.946800  128.540000
  H    -53.840200   57.333800  127.848000
  H    -47.842100   62.871200  128.719000
  H    -56.050300   62.883100  128.898000

 Total Charge           Charge          ....    0
 Multiplicity           Mult            ....    1
 Number of Electrons    NEL             ....  134
 Basis Dimension        Dim             ....  322

ORBITAL ENERGIES
----------------

  NO   OCC          E(Eh)            E(eV)
   0   2.0000     -88.967788     -2420.9366
   1   2.0000     -88.965413     -2420.8720
   2   2.0000     -10.329215      -281.0722
   3   2.0000     -10.323953      -280.9290
   4   2.0000     -10.322364      -280.8858
   5   2.0000     -10.309165      -280.5266
   6   2.0000     -10.301871      -280.3282
   7   2.0000     -10.300952      -280.3032
   8   2.0000     -10.294705      -280.1332
   9   2.0000     -10.293255      -280.0937
  10   2.0000     -10.292661      -280.0775
  11   2.0000     -10.290550      -280.0201
  12   2.0000     -10.290073      -280.0071
  13   2.0000     -10.289668      -279.9961
  14   2.0000     -10.284770      -279.8628
  15   2.0000     -10.283781      -279.8359
  16   2.0000      -8.081192      -219.9004
  17   2.0000      -8.079561      -219.8560
  18   2.0000      -6.039822      -164.3519
  19   2.0000      -6.038061      -164.3040
  20   2.0000      -6.035822      -164.2431
  21   2.0000      -6.034082      -164.1957
  22   2.0000      -6.031952      -164.1378
  23   2.0000      -6.030424      -164.0962
  24   2.0000      -1.003833       -27.3157
  25   2.0000      -0.980023       -26.6678
  26   2.0000      -0.915949       -24.9242
  27   2.0000      -0.903949       -24.5977
  28   2.0000      -0.874669       -23.8010
  29   2.0000      -0.853497       -23.2248
  30   2.0000      -0.844169       -22.9710
  31   2.0000      -0.813514       -22.1368
  32   2.0000      -0.787053       -21.4168
  33   2.0000      -0.769286       -20.9333
  34   2.0000      -0.713167       -19.4062
  35   2.0000      -0.705932       -19.2094
  36   2.0000      -0.690598       -18.7921
  37   2.0000      -0.654998       -17.8234
  38   2.0000      -0.646286       -17.5863
  39   2.0000      -0.615824       -16.7574
  40   2.0000      -0.595667       -16.2089
  41   2.0000      -0.581865       -15.8333
  42   2.0000      -0.563985       -15.3468
  43   2.0000      -0.558583       -15.1998
  44   2.0000      -0.530976       -14.4486
  45   2.0000      -0.524018       -14.2593
  46   2.0000      -0.517702       -14.0874
  47   2.0000      -0.510785       -13.8992
  48   2.0000      -0.506089       -13.7714
  49   2.0000      -0.501608       -13.6495
  50   2.0000      -0.486326       -13.2336
  51   2.0000      -0.483054       -13.1446
  52   2.0000      -0.478630       -13.0242
  53   2.0000      -0.461805       -12.5663
  54   2.0000      -0.456338       -12.4176
  55   2.0000      -0.453526       -12.3411
  56   2.0000      -0.444795       -12.1035
  57   2.0000      -0.438062       -11.9203
  58   2.0000      -0.430899       -11.7254
  59   2.0000      -0.428140       -11.6503
  60   2.0000      -0.413735       -11.2583
  61   2.0000      -0.412371       -11.2212
  62   2.0000      -0.403473       -10.9791
  63   2.0000      -0.344030        -9.3615
  64   2.0000      -0.334142        -9.0925
  65   2.0000      -0.329443        -8.9646
  66   2.0000      -0.287608        -7.8262
  67   0.0000       0.021775         0.5925
  68   0.0000       0.057528         1.5654
  69   0.0000       0.114131         3.1057
  70   0.0000       0.124677         3.3926
  71   0.0000       0.128787         3.5045

MULLIKEN ATOMIC CHARGES
-----------------------
   0 S :    0.108970
   1 C :   -0.091822
   2 C :   -0.052251
   3 C :    0.021534
   4 C :   -0.171731
   5 H :    0.023216
   6 C :    0.046185
   7 H :    0.023231
   8 H :    0.037549
   9 C :   -0.103078
  10 H :    0.047446
  11 H :    0.026771
  12 C :   -0.076658
  13 H :    0.021063
  14 H :    0.041004
  15 H :    0.048760
  16 S :    0.108057
  17 C :   -0.080880
  18 C :   -0.054155
  19 C :   -0.015695
  20 C :   -0.179783
  21 H :    0.018173
  22 C :    0.100742
  23 H :    0.033446
  24 H :    0.013163
  25 C :   -0.067516
  26 H :    0.017932
  27 H :    0.010706
  28 C :   -0.048862
  29 H :    0.045912
  30 H :    0.033792
  31 H :    0.024594
  32 H :    0.029722
  33 H :    0.060464
Sum of atomic charges:    0.0000000

LOEWDIN ATOMIC CHARGES
----------------------
   0 S :    0.399814
   1 C :   -0.190968
   2 C :   -0.063924
   3 C :   -0.060209
   4 C :   -0.179909
   5 H :    0.034083
   6 C :   -0.035648
   7 H :    0.030494
   8 H :    0.035057
   9 C :   -0.050109
  10 H :    0.030354
  11 H :    0.023458
  12 C :   -0.078076
  13 H :    0.024992
  14 H :    0.027686
  15 H :    0.035145
  16 S :    0.384323
  17 C :   -0.182050
  18 C :   -0.073875
  19 C :   -0.049471
  20 C :   -0.192759
  21 H :    0.030106
  22 C :   -0.021116
  23 H :    0.031975
  24 H :    0.031563
  25 C :   -0.043504
  26 H :    0.019864
  27 H :    0.022273
  28 C :   -0.073792
  29 H :    0.032128
  30 H :    0.031149
  31 H :    0.023034
  32 H :    0.011209
  33 H :    0.036703

  Mayer bond orders larger than 0.100000
B(  0-S ,  1-C ) :   1.1518 B(  0-S ,  4-C ) :   1.1414 B(  1-C ,  2-C ) :   1.5748
B(  1-C ,  4-C ) :   0.1119 B(  1-C , 32-H ) :   0.9735 B(  2-C ,  3-C ) :   1.2712
B(  2-C ,  6-C ) :   1.0213 B(  3-C ,  4-C ) :   1.5525 B(  3-C ,  5-H ) :   0.9870
B(  4-C , 20-C ) :   1.1022 B(  6-C ,  7-H ) :   0.9525 B(  6-C ,  8-H ) :   0.9292
B(  6-C ,  9-C ) :   1.0656 B(  9-C , 10-H ) :   0.9603 B(  9-C , 11-H ) :   0.9513
B(  9-C , 12-C ) :   1.0842 B( 12-C , 13-H ) :   0.9684 B( 12-C , 14-H ) :   0.9746
B( 12-C , 15-H ) :   0.9731 B( 16-S , 17-C ) :   1.1508 B( 16-S , 20-C ) :   1.1226
B( 17-C , 18-C ) :   1.5942 B( 17-C , 20-C ) :   0.1094 B( 17-C , 33-H ) :   0.9647
B( 18-C , 19-C ) :   1.2761 B( 18-C , 21-H ) :   0.9798 B( 19-C , 20-C ) :   1.5658
B( 19-C , 22-C ) :   1.0325 B( 22-C , 23-H ) :   0.9191 B( 22-C , 24-H ) :   0.9328
B( 22-C , 25-C ) :   1.0887 B( 25-C , 26-H ) :   0.9495 B( 25-C , 27-H ) :   0.9507
B( 25-C , 28-C ) :   1.0556 B( 28-C , 29-H ) :   0.9778 B( 28-C , 30-H ) :   0.9753
B( 28-C , 31-H ) :   0.9753

Dispersion correction           -0.013738823
FINAL SINGLE POINT ENERGY     -1339.865827260024

DIPOLE MOMENT
-------------
                                X             Y             Z
Electronic contribution:    -10.25789      22.86410       8.27045
Nuclear contribution   :     10.33271     -23.51429      -8.41542
                        -----------------------------------------
Total Dipole Moment    :      0.07482      -0.65020      -0.14497
                        -----------------------------------------
Magnitude (a.u.)       :      0.67035
Magnitude (Debye)      :      1.70389

Rotational constants in cm-1:     0.020835     0.007357     0.006023
Rotational constants in MHz :   624.606048   220.561567   180.578139

                             ****ORCA TERMINATED NORMALLY****
TOTAL RUN TIME: 0 days 0 hours 0 minutes 32 seconds 133 msec
