                         Program Version 4.2.1 -  RELEASE  -
|  1> ! wB97X-D3 SP def2-SVP
|  2> %pal
|  3> nprocs 16
|  4> end
|  5>
|  6> * xyz 0 1
|  7> S 	 -8.19137 	 51.1022 	 44.8293
|  8> C 	 -9.63613 	 51.5048 	 44.0041
|  9> C 	 -10.3901 	 50.4759 	 43.6513
| 10> C 	 -9.82347 	 49.2464 	 44.1091
| 11> C 	 -8.59419 	 49.4018 	 44.7447
| 12> H 	 -10.229 	 48.2976 	 44.0842
| 13> C 	 -11.6938 	 50.6271 	 42.9362
| 14> H 	 -11.5555 	 50.1201 	 41.9635
| 15> H 	 -11.7661 	 51.6688 	 42.624
| 16> C 	 -12.9179 	 50.1734 	 43.5743
| 17> H 	 -13.7617 	 50.2357 	 42.9542
| 18> H 	 -12.7761 	 49.1379 	 43.7126
| 19> C 	 -13.1004 	 50.7909 	 45.0065
| 20> H 	 -12.1683 	 50.8453 	 45.6109
| 21> H 	 -13.522 	 51.8451 	 44.8512
| 22> H 	 -13.8669 	 50.2514 	 45.5351
| 23> S 	 -6.1051 	 48.1222 	 44.864
| 24> C 	 -5.81783 	 46.8959 	 46.0666
| 25> C 	 -7.0315 	 46.62 	 46.7205
| 26> C 	 -8.1034 	 47.4808 	 46.3664
| 27> C 	 -7.75678 	 48.3795 	 45.3902
| 28> H 	 -6.94739 	 45.7137 	 47.2906
| 29> C 	 -9.48125 	 47.2789 	 46.9596
| 30> H 	 -9.39891 	 46.406 	 47.5145
| 31> H 	 -10.0973 	 47.0894 	 46.086
| 32> C 	 -9.99551 	 48.3777 	 47.8025
| 33> H 	 -10.0289 	 49.2373 	 47.1841
| 34> H 	 -9.22868 	 48.6624 	 48.4697
| 35> C 	 -11.3261 	 48.12 	 48.4807
| 36> H 	 -11.331 	 47.1286 	 48.8965
| 37> H 	 -12.1597 	 47.9995 	 47.7912
| 38> H 	 -11.5747 	 48.8107 	 49.3314
| 39> H 	 -9.97551 	 52.5153 	 43.9014
| 40> H 	 -4.97972 	 46.342 	 46.1117
| 41> *
| 42>
| 43>                          ****END OF INPUT****

CARTESIAN COORDINATES (ANGSTROEM)
---------------------------------
  S     -8.191370   51.102200   44.829300
  C     -9.636130   51.504800   44.004100
  C    -10.390100   50.475900   43.651300
  C     -9.823470   49.246400   44.109100
  C     -8.594190   49.401800   44.744700
  H    -10.229000   48.297600   44.084200
  C    -11.693800   50.627100   42.936200
  H    -11.555500   50.120100   41.963500
  H    -11.766100   51.668800   42.624000
  C    -12.917900   50.173400   43.574300
  H    -13.761700   50.235700   42.954200
  H    -12.776100   49.137900   43.712600
  C    -13.100400   50.790900   45.006500
  H    -12.168300   50.845300   45.610900
  H    -13.522000   51.845100   44.851200
  H    -13.866900   50.251400   45.535100
  S     -6.105100   48.122200   44.864000
  C     -5.817830   46.895900   46.066600
  C     -7.031500   46.620000   46.720500
  C     -8.103400   47.480800   46.366400
  C     -7.756780   48.379500   45.390200
  H     -6.947390   45.713700   47.290600
  C     -9.481250   47.278900   46.959600
  H     -9.398910   46.406000   47.514500
  H    -10.097300   47.089400   46.086000
  C     -9.995510   48.377700   47.802500
  H    -10.028900   49.237300   47.184100
  H     -9.228680   48.662400   48.469700
  C    -11.326100   48.120000   48.480700
  H    -11.331000   47.128600   48.896500
  H    -12.159700   47.999500   47.791200
  H    -11.574700   48.810700   49.331400
  H     -9.975510   52.515300   43.901400
  H     -4.979720   46.342000   46.111700

 Total Charge           Charge          ....    0
 Multiplicity           Mult            ....    1
 Number of Electrons    NEL             ....  134
 Basis Dimension        Dim             ....  322

ORBITAL ENERGIES
----------------

  NO   OCC          E(Eh)            E(eV)
   0   2.0000     -88.964286     -2420.8413
   1   2.0000     -88.964243     -2420.8401
   2   2.0000     -10.330432      -281.1054
   3   2.0000     -10.325159      -280.9619
   4   2.0000     -10.311370      -280.5866
   5   2.0000     -10.302964      -280.3579
   6   2.0000     -10.300994      -280.3043
   7   2.0000     -10.293674      -280.1051
   8   2.0000     -10.293374      -280.0970
   9   2.0000     -10.291658      -280.0503
  10   2.0000     -10.285694      -279.8880
  11   2.0000     -10.283631      -279.8318
  12   2.0000     -10.280400      -279.7439
  13   2.0000     -10.277541      -279.6661
  14   2.0000     -10.276922      -279.6493
  15   2.0000     -10.269947      -279.4595
  16   2.0000      -8.079916      -219.8657
  17   2.0000      -8.079126      -219.8442
  18   2.0000      -6.038285      -164.3101
  19   2.0000      -6.037495      -164.2886
  20   2.0000      -6.034336      -164.2026
  21   2.0000      -6.033529      -164.1807
  22   2.0000      -6.030730      -164.1045
  23   2.0000      -6.030110      -164.0876
  24   2.0000      -1.011864       -27.5342
  25   2.0000      -0.991135       -26.9701
  26   2.0000      -0.923733       -25.1360
  27   2.0000      -0.919169       -25.0119
  28   2.0000      -0.871867       -23.7247
  29   2.0000      -0.853016       -23.2117
  30   2.0000      -0.846216       -23.0267
  31   2.0000      -0.818220       -22.2649
  32   2.0000      -0.785830       -21.3835
  33   2.0000      -0.778735       -21.1905
  34   2.0000      -0.718865       -19.5613
  35   2.0000      -0.705687       -19.2027
  36   2.0000      -0.695001       -18.9119
  37   2.0000      -0.667207       -18.1556
  38   2.0000      -0.649552       -17.6752
  39   2.0000      -0.625233       -17.0135
  40   2.0000      -0.595172       -16.1954
  41   2.0000      -0.574463       -15.6319
  42   2.0000      -0.571410       -15.5489
  43   2.0000      -0.557880       -15.1807
  44   2.0000      -0.549535       -14.9536
  45   2.0000      -0.526219       -14.3191
  46   2.0000      -0.524016       -14.2592
  47   2.0000      -0.514368       -13.9967
  48   2.0000      -0.501102       -13.6357
  49   2.0000      -0.499098       -13.5811
  50   2.0000      -0.496735       -13.5168
  51   2.0000      -0.482695       -13.1348
  52   2.0000      -0.471874       -12.8404
  53   2.0000      -0.467544       -12.7225
  54   2.0000      -0.461924       -12.5696
  55   2.0000      -0.453694       -12.3456
  56   2.0000      -0.444173       -12.0866
  57   2.0000      -0.442130       -12.0310
  58   2.0000      -0.436600       -11.8805
  59   2.0000      -0.425321       -11.5736
  60   2.0000      -0.420176       -11.4336
  61   2.0000      -0.410092       -11.1592
  62   2.0000      -0.408606       -11.1187
  63   2.0000      -0.342498        -9.3198
  64   2.0000      -0.334613        -9.1053
  65   2.0000      -0.329824        -8.9750
  66   2.0000      -0.299654        -8.1540
  67   0.0000       0.035443         0.9645
  68   0.0000       0.066485         1.8092
  69   0.0000       0.116138         3.1603
  70   0.0000       0.126973         3.4551
  71   0.0000       0.129292         3.5182

MULLIKEN ATOMIC CHARGES
-----------------------
   0 S :    0.121299
   1 C :   -0.116827
   2 C :   -0.091413
   3 C :    0.059286
   4 C :   -0.177689
   5 H :   -0.023804
   6 C :    0.090050
   7 H :    0.032784
   8 H :    0.001574
   9 C :   -0.011271
  10 H :    0.020351
  11 H :    0.006430
  12 C :   -0.094760
  13 H :    0.065882
  14 H :    0.034072
  15 H :    0.033063
  16 S :    0.110085
  17 C :   -0.065368
  18 C :   -0.055003
  19 C :   -0.042968
  20 C :   -0.168606
  21 H :    0.018239
  22 C :    0.142685
  23 H :   -0.014260
  24 H :    0.018306
  25 C :   -0.029566
  26 H :    0.019264
  27 H :    0.010848
  28 C :   -0.021707
  29 H :    0.006390
  30 H :    0.020136
  31 H :    0.048685
  32 H :    0.036463
  33 H :    0.017348
Sum of atomic charges:   -0.0000000

LOEWDIN ATOMIC CHARGES
----------------------
   0 S :    0.418599
   1 C :   -0.197595
   2 C :   -0.068326
   3 C :   -0.049082
   4 C :   -0.190224
   5 H :    0.015764
   6 C :   -0.032422
   7 H :    0.038107
   8 H :    0.025384
   9 C :   -0.038126
  10 H :    0.022684
  11 H :    0.017455
  12 C :   -0.067879
  13 H :    0.033257
  14 H :    0.030667
  15 H :    0.021113
  16 S :    0.413109
  17 C :   -0.169743
  18 C :   -0.070745
  19 C :   -0.053585
  20 C :   -0.206569
  21 H :    0.031450
  22 C :   -0.018730
  23 H :    0.018463
  24 H :    0.029306
  25 C :   -0.040672
  26 H :    0.020929
  27 H :    0.023329
  28 C :   -0.066792
  29 H :    0.020455
  30 H :    0.024858
  31 H :    0.035911
  32 H :    0.024803
  33 H :    0.004848

  Mayer bond orders larger than 0.100000
B(  0-S ,  1-C ) :   1.1393 B(  0-S ,  4-C ) :   1.1572 B(  1-C ,  2-C ) :   1.6450
B(  1-C , 32-H ) :   0.9603 B(  2-C ,  3-C ) :   1.2065 B(  2-C ,  6-C ) :   1.0227
B(  3-C ,  4-C ) :   1.5860 B(  3-C ,  5-H ) :   1.0152 B(  4-C , 20-C ) :   1.0199
B(  6-C ,  7-H ) :   0.9252 B(  6-C ,  8-H ) :   0.9336 B(  6-C ,  9-C ) :   1.0861
B(  9-C , 10-H ) :   0.9495 B(  9-C , 11-H ) :   0.9477 B(  9-C , 12-C ) :   1.0673
B( 12-C , 13-H ) :   0.9728 B( 12-C , 14-H ) :   0.9752 B( 12-C , 15-H ) :   0.9765
B( 16-S , 17-C ) :   1.1700 B( 16-S , 20-C ) :   1.1561 B( 17-C , 18-C ) :   1.5882
B( 17-C , 20-C ) :   0.1055 B( 17-C , 33-H ) :   0.9815 B( 18-C , 19-C ) :   1.2445
B( 18-C , 21-H ) :   0.9946 B( 19-C , 20-C ) :   1.5827 B( 19-C , 22-C ) :   1.0306
B( 22-C , 23-H ) :   0.9160 B( 22-C , 24-H ) :   0.9242 B( 22-C , 25-C ) :   1.0752
B( 25-C , 26-H ) :   0.9485 B( 25-C , 27-H ) :   0.9445 B( 25-C , 28-C ) :   1.0864
B( 28-C , 29-H ) :   0.9686 B( 28-C , 30-H ) :   0.9699 B( 28-C , 31-H ) :   0.9742

Dispersion correction           -0.015792435
FINAL SINGLE POINT ENERGY     -1339.869791844186

DIPOLE MOMENT
-------------
                                X             Y             Z
Electronic contribution:     28.70298       1.56131      -8.02753
Nuclear contribution   :    -29.32665      -1.90044       8.08788
                        -----------------------------------------
Total Dipole Moment    :     -0.62367      -0.33913       0.06034
                        -----------------------------------------
Magnitude (a.u.)       :      0.71247
Magnitude (Debye)      :      1.81096

Rotational constants in cm-1:     0.019532     0.009884     0.007497
Rotational constants in MHz :   585.550464   296.312424   224.750338

                             ****ORCA TERMINATED NORMALLY****
TOTAL RUN TIME: 0 days 0 hours 0 minutes 36 seconds 318 msec
