                         Program Version 4.2.1 -  RELEASE  -
|  1> ! wB97X-D3 SP def2-SVP
|  2> %pal
|  3> nprocs 16
|  4> end
|  5>
|  6> * xyz 0 1
|  7> S 	 -33.5471 	 40.8538 	 98.2609
|  8> C 	 -32.9847 	 39.3662 	 99.0145
|  9> C 	 -33.4313 	 38.2567 	 98.3003
| 10> C 	 -34.2463 	 38.6417 	 97.1863
| 11> C 	 -34.4831 	 39.9694 	 97.0401
| 12> H 	 -34.7796 	 38.0346 	 96.5826
| 13> C 	 -33.1219 	 36.7869 	 98.5897
| 14> H 	 -34.0046 	 36.356 	 99.0589
| 15> H 	 -32.2444 	 36.7074 	 99.3736
| 16> C 	 -32.6077 	 35.9674 	 97.4261
| 17> H 	 -33.0358 	 36.325 	 96.4357
| 18> H 	 -31.5586 	 35.9944 	 97.2733
| 19> C 	 -33.0475 	 34.4993 	 97.472
| 20> H 	 -34.0716 	 34.3435 	 97.3781
| 21> H 	 -32.5388 	 33.9201 	 96.7017
| 22> H 	 -32.6883 	 34.0312 	 98.4429
| 23> S 	 -35.0043 	 42.4212 	 95.8329
| 24> C 	 -36.1511 	 42.5741 	 94.5847
| 25> C 	 -36.8066 	 41.3466 	 94.3455
| 26> C 	 -36.4019 	 40.3242 	 95.2603
| 27> C 	 -35.3455 	 40.6712 	 96.0145
| 28> H 	 -37.6059 	 41.3775 	 93.6764
| 29> C 	 -37.1189 	 38.9732 	 95.2043
| 30> H 	 -36.2693 	 38.3229 	 95.1406
| 31> H 	 -37.7252 	 38.756 	 94.3048
| 32> C 	 -38.0323 	 38.7456 	 96.4101
| 33> H 	 -38.697 	 39.6152 	 96.5048
| 34> H 	 -37.4101 	 38.7491 	 97.3323
| 35> C 	 -38.8314 	 37.5146 	 96.0488
| 36> H 	 -39.5974 	 37.2522 	 96.7352
| 37> H 	 -38.166 	 36.7395 	 95.9719
| 38> H 	 -39.3377 	 37.6938 	 95.1349
| 39> H 	 -32.2744 	 39.2349 	 99.8471
| 40> H 	 -36.3341 	 43.4604 	 94.0381
| 41> *
| 42>
| 43>                          ****END OF INPUT****

CARTESIAN COORDINATES (ANGSTROEM)
---------------------------------
  S    -33.547100   40.853800   98.260900
  C    -32.984700   39.366200   99.014500
  C    -33.431300   38.256700   98.300300
  C    -34.246300   38.641700   97.186300
  C    -34.483100   39.969400   97.040100
  H    -34.779600   38.034600   96.582600
  C    -33.121900   36.786900   98.589700
  H    -34.004600   36.356000   99.058900
  H    -32.244400   36.707400   99.373600
  C    -32.607700   35.967400   97.426100
  H    -33.035800   36.325000   96.435700
  H    -31.558600   35.994400   97.273300
  C    -33.047500   34.499300   97.472000
  H    -34.071600   34.343500   97.378100
  H    -32.538800   33.920100   96.701700
  H    -32.688300   34.031200   98.442900
  S    -35.004300   42.421200   95.832900
  C    -36.151100   42.574100   94.584700
  C    -36.806600   41.346600   94.345500
  C    -36.401900   40.324200   95.260300
  C    -35.345500   40.671200   96.014500
  H    -37.605900   41.377500   93.676400
  C    -37.118900   38.973200   95.204300
  H    -36.269300   38.322900   95.140600
  H    -37.725200   38.756000   94.304800
  C    -38.032300   38.745600   96.410100
  H    -38.697000   39.615200   96.504800
  H    -37.410100   38.749100   97.332300
  C    -38.831400   37.514600   96.048800
  H    -39.597400   37.252200   96.735200
  H    -38.166000   36.739500   95.971900
  H    -39.337700   37.693800   95.134900
  H    -32.274400   39.234900   99.847100
  H    -36.334100   43.460400   94.038100

 Total Charge           Charge          ....    0
 Multiplicity           Mult            ....    1
 Number of Electrons    NEL             ....  134
 Basis Dimension        Dim             ....  322

ORBITAL ENERGIES
----------------

  NO   OCC          E(Eh)            E(eV)
   0   2.0000     -88.966325     -2420.8968
   1   2.0000     -88.965092     -2420.8632
   2   2.0000     -10.335388      -281.2402
   3   2.0000     -10.332151      -281.1521
   4   2.0000     -10.318007      -280.7673
   5   2.0000     -10.315995      -280.7125
   6   2.0000     -10.304191      -280.3913
   7   2.0000     -10.303871      -280.3826
   8   2.0000     -10.303226      -280.3650
   9   2.0000     -10.292378      -280.0699
  10   2.0000     -10.291022      -280.0329
  11   2.0000     -10.287676      -279.9419
  12   2.0000     -10.286565      -279.9117
  13   2.0000     -10.283788      -279.8361
  14   2.0000     -10.277898      -279.6758
  15   2.0000     -10.266223      -279.3581
  16   2.0000      -8.080309      -219.8764
  17   2.0000      -8.080230      -219.8742
  18   2.0000      -6.039082      -164.3318
  19   2.0000      -6.038695      -164.3212
  20   2.0000      -6.034903      -164.2181
  21   2.0000      -6.034688      -164.2122
  22   2.0000      -6.031034      -164.1128
  23   2.0000      -6.030847      -164.1077
  24   2.0000      -1.006685       -27.3933
  25   2.0000      -0.985215       -26.8091
  26   2.0000      -0.919633       -25.0245
  27   2.0000      -0.911240       -24.7961
  28   2.0000      -0.868320       -23.6282
  29   2.0000      -0.858554       -23.3624
  30   2.0000      -0.845241       -23.0002
  31   2.0000      -0.817522       -22.2459
  32   2.0000      -0.784287       -21.3415
  33   2.0000      -0.773764       -21.0552
  34   2.0000      -0.708566       -19.2811
  35   2.0000      -0.700378       -19.0582
  36   2.0000      -0.692666       -18.8484
  37   2.0000      -0.670467       -18.2443
  38   2.0000      -0.643940       -17.5225
  39   2.0000      -0.626594       -17.0505
  40   2.0000      -0.598735       -16.2924
  41   2.0000      -0.577044       -15.7022
  42   2.0000      -0.567592       -15.4450
  43   2.0000      -0.560188       -15.2435
  44   2.0000      -0.533643       -14.5212
  45   2.0000      -0.527135       -14.3441
  46   2.0000      -0.522872       -14.2281
  47   2.0000      -0.516938       -14.0666
  48   2.0000      -0.503645       -13.7049
  49   2.0000      -0.500827       -13.6282
  50   2.0000      -0.494467       -13.4551
  51   2.0000      -0.487620       -13.2688
  52   2.0000      -0.469686       -12.7808
  53   2.0000      -0.462947       -12.5974
  54   2.0000      -0.459600       -12.5063
  55   2.0000      -0.453680       -12.3452
  56   2.0000      -0.448234       -12.1971
  57   2.0000      -0.444503       -12.0955
  58   2.0000      -0.440076       -11.9751
  59   2.0000      -0.428388       -11.6570
  60   2.0000      -0.413173       -11.2430
  61   2.0000      -0.409403       -11.1404
  62   2.0000      -0.405409       -11.0317
  63   2.0000      -0.360562        -9.8114
  64   2.0000      -0.334232        -9.0949
  65   2.0000      -0.328507        -8.9391
  66   2.0000      -0.287621        -7.8266
  67   0.0000       0.025691         0.6991
  68   0.0000       0.080900         2.2014
  69   0.0000       0.097248         2.6463
  70   0.0000       0.121179         3.2975
  71   0.0000       0.131452         3.5770

MULLIKEN ATOMIC CHARGES
-----------------------
   0 S :    0.094277
   1 C :   -0.115380
   2 C :   -0.083007
   3 C :    0.044760
   4 C :   -0.090887
   5 H :   -0.059934
   6 C :    0.048331
   7 H :    0.046806
   8 H :    0.038370
   9 C :   -0.081099
  10 H :    0.033037
  11 H :    0.029683
  12 C :   -0.062446
  13 H :    0.027108
  14 H :    0.030582
  15 H :    0.029330
  16 S :    0.094143
  17 C :   -0.075963
  18 C :   -0.016273
  19 C :   -0.057735
  20 C :   -0.116999
  21 H :   -0.003459
  22 C :    0.017720
  23 H :    0.030562
  24 H :    0.018468
  25 C :   -0.082589
  26 H :    0.029763
  27 H :    0.045033
  28 C :    0.037949
  29 H :    0.022917
  30 H :    0.007627
  31 H :    0.017357
  32 H :    0.053869
  33 H :    0.048082
Sum of atomic charges:   -0.0000000

LOEWDIN ATOMIC CHARGES
----------------------
   0 S :    0.382866
   1 C :   -0.199201
   2 C :   -0.061457
   3 C :   -0.065062
   4 C :   -0.169282
   5 H :    0.006217
   6 C :   -0.036799
   7 H :    0.033749
   8 H :    0.042791
   9 C :   -0.044992
  10 H :    0.028020
  11 H :    0.021891
  12 C :   -0.062034
  13 H :    0.013238
  14 H :    0.026828
  15 H :    0.027228
  16 S :    0.405282
  17 C :   -0.184263
  18 C :   -0.067421
  19 C :   -0.055206
  20 C :   -0.179946
  21 H :    0.020097
  22 C :   -0.028573
  23 H :    0.024285
  24 H :    0.031528
  25 C :   -0.036603
  26 H :    0.025750
  27 H :    0.029640
  28 C :   -0.049307
  29 H :    0.021921
  30 H :    0.015248
  31 H :    0.023133
  32 H :    0.037220
  33 H :    0.023214

  Mayer bond orders larger than 0.100000
B(  0-S ,  1-C ) :   1.1248 B(  0-S ,  4-C ) :   1.1301 B(  1-C ,  2-C ) :   1.6400
B(  1-C , 32-H ) :   0.9609 B(  2-C ,  3-C ) :   1.2180 B(  2-C ,  6-C ) :   1.0187
B(  3-C ,  4-C ) :   1.6137 B(  3-C ,  5-H ) :   1.0034 B(  4-C , 20-C ) :   1.0286
B(  6-C ,  7-H ) :   0.9477 B(  6-C ,  8-H ) :   0.9423 B(  6-C ,  9-C ) :   1.0379
B(  9-C , 10-H ) :   0.9615 B(  9-C , 11-H ) :   0.9599 B(  9-C , 12-C ) :   1.0802
B( 12-C , 13-H ) :   0.9801 B( 12-C , 14-H ) :   0.9733 B( 12-C , 15-H ) :   0.9735
B( 16-S , 17-C ) :   1.1815 B( 16-S , 20-C ) :   1.1176 B( 17-C , 18-C ) :   1.5933
B( 17-C , 33-H ) :   0.9725 B( 18-C , 19-C ) :   1.2321 B( 18-C , 21-H ) :   1.0020
B( 19-C , 20-C ) :   1.6406 B( 19-C , 22-C ) :   1.0080 B( 22-C , 23-H ) :   0.9356
B( 22-C , 24-H ) :   0.9460 B( 22-C , 25-C ) :   1.0535 B( 25-C , 26-H ) :   0.9550
B( 25-C , 27-H ) :   0.9542 B( 25-C , 28-C ) :   1.0809 B( 28-C , 29-H ) :   0.9705
B( 28-C , 30-H ) :   0.9702 B( 28-C , 31-H ) :   0.9697

Dispersion correction           -0.013854726
FINAL SINGLE POINT ENERGY     -1339.859676041749

DIPOLE MOMENT
-------------
                                X             Y             Z
Electronic contribution:      7.96193      30.81594       1.14442
Nuclear contribution   :     -8.31450     -31.44678      -1.36687
                        -----------------------------------------
Total Dipole Moment    :     -0.35256      -0.63084      -0.22244
                        -----------------------------------------
Magnitude (a.u.)       :      0.75614
Magnitude (Debye)      :      1.92195

Rotational constants in cm-1:     0.016949     0.009286     0.006672
Rotational constants in MHz :   508.122824   278.381396   200.035530

                             ****ORCA TERMINATED NORMALLY****
TOTAL RUN TIME: 0 days 0 hours 0 minutes 28 seconds 823 msec
