                         Program Version 4.2.1 -  RELEASE  -
|  1> ! wB97X-D3 SP def2-SVP
|  2> %pal
|  3> nprocs 16
|  4> end
|  5>
|  6> * xyz 0 1
|  7> S 	 -84.4231 	 52.4422 	 139.5
|  8> C 	 -84.1469 	 51.2786 	 140.748
|  9> C 	 -83.0209 	 50.5046 	 140.428
| 10> C 	 -82.5513 	 50.7993 	 139.133
| 11> C 	 -83.1994 	 51.7874 	 138.468
| 12> H 	 -81.6735 	 50.3948 	 138.672
| 13> C 	 -82.4291 	 49.46 	 141.32
| 14> H 	 -83.2486 	 48.8349 	 141.754
| 15> H 	 -82.2255 	 50.0047 	 142.27
| 16> C 	 -81.225 	 48.6231 	 140.811
| 17> H 	 -80.4414 	 49.2521 	 140.281
| 18> H 	 -80.5895 	 48.2796 	 141.612
| 19> C 	 -81.5467 	 47.3761 	 139.957
| 20> H 	 -81.9519 	 46.6151 	 140.573
| 21> H 	 -82.384 	 47.5263 	 139.228
| 22> H 	 -80.6508 	 46.9732 	 139.381
| 23> S 	 -82.9218 	 54.3518 	 137.527
| 24> C 	 -81.8056 	 54.5619 	 136.156
| 25> C 	 -81.3764 	 53.385 	 135.692
| 26> C 	 -82.0006 	 52.2401 	 136.251
| 27> C 	 -82.8018 	 52.5923 	 137.314
| 28> H 	 -80.674 	 53.3658 	 134.867
| 29> C 	 -81.6396 	 50.8465 	 135.809
| 30> H 	 -82.301 	 50.6927 	 134.964
| 31> H 	 -82.1369 	 50.2157 	 136.56
| 32> C 	 -80.1702 	 50.4474 	 135.616
| 33> H 	 -79.7401 	 51.187 	 134.918
| 34> H 	 -80.039 	 49.5183 	 135.064
| 35> C 	 -79.2529 	 50.4979 	 136.814
| 36> H 	 -79.5765 	 49.6487 	 137.417
| 37> H 	 -79.183 	 51.4265 	 137.402
| 38> H 	 -78.2206 	 50.2703 	 136.608
| 39> H 	 -84.5929 	 51.2886 	 141.722
| 40> H 	 -81.4621 	 55.5244 	 135.715
| 41> *
| 42>
| 43>                          ****END OF INPUT****

CARTESIAN COORDINATES (ANGSTROEM)
---------------------------------
  S    -84.423100   52.442200  139.500000
  C    -84.146900   51.278600  140.748000
  C    -83.020900   50.504600  140.428000
  C    -82.551300   50.799300  139.133000
  C    -83.199400   51.787400  138.468000
  H    -81.673500   50.394800  138.672000
  C    -82.429100   49.460000  141.320000
  H    -83.248600   48.834900  141.754000
  H    -82.225500   50.004700  142.270000
  C    -81.225000   48.623100  140.811000
  H    -80.441400   49.252100  140.281000
  H    -80.589500   48.279600  141.612000
  C    -81.546700   47.376100  139.957000
  H    -81.951900   46.615100  140.573000
  H    -82.384000   47.526300  139.228000
  H    -80.650800   46.973200  139.381000
  S    -82.921800   54.351800  137.527000
  C    -81.805600   54.561900  136.156000
  C    -81.376400   53.385000  135.692000
  C    -82.000600   52.240100  136.251000
  C    -82.801800   52.592300  137.314000
  H    -80.674000   53.365800  134.867000
  C    -81.639600   50.846500  135.809000
  H    -82.301000   50.692700  134.964000
  H    -82.136900   50.215700  136.560000
  C    -80.170200   50.447400  135.616000
  H    -79.740100   51.187000  134.918000
  H    -80.039000   49.518300  135.064000
  C    -79.252900   50.497900  136.814000
  H    -79.576500   49.648700  137.417000
  H    -79.183000   51.426500  137.402000
  H    -78.220600   50.270300  136.608000
  H    -84.592900   51.288600  141.722000
  H    -81.462100   55.524400  135.715000

 Total Charge           Charge          ....    0
 Multiplicity           Mult            ....    1
 Number of Electrons    NEL             ....  134
 Basis Dimension        Dim             ....  322

ORBITAL ENERGIES
----------------

  NO   OCC          E(Eh)            E(eV)
   0   2.0000     -88.964017     -2420.8340
   1   2.0000     -88.961092     -2420.7544
   2   2.0000     -10.326523      -280.9990
   3   2.0000     -10.322403      -280.8869
   4   2.0000     -10.316136      -280.7163
   5   2.0000     -10.308807      -280.5169
   6   2.0000     -10.300390      -280.2879
   7   2.0000     -10.300231      -280.2835
   8   2.0000     -10.299719      -280.2696
   9   2.0000     -10.296995      -280.1955
  10   2.0000     -10.293275      -280.0943
  11   2.0000     -10.292941      -280.0852
  12   2.0000     -10.286295      -279.9043
  13   2.0000     -10.284462      -279.8544
  14   2.0000     -10.284311      -279.8503
  15   2.0000     -10.279529      -279.7202
  16   2.0000      -8.078006      -219.8137
  17   2.0000      -8.076686      -219.7778
  18   2.0000      -6.036736      -164.2679
  19   2.0000      -6.035133      -164.2243
  20   2.0000      -6.032798      -164.1608
  21   2.0000      -6.030952      -164.1105
  22   2.0000      -6.028368      -164.0402
  23   2.0000      -6.027602      -164.0194
  24   2.0000      -1.011554       -27.5258
  25   2.0000      -0.986146       -26.8344
  26   2.0000      -0.912526       -24.8311
  27   2.0000      -0.908071       -24.7099
  28   2.0000      -0.870834       -23.6966
  29   2.0000      -0.855598       -23.2820
  30   2.0000      -0.843113       -22.9423
  31   2.0000      -0.821967       -22.3669
  32   2.0000      -0.786360       -21.3979
  33   2.0000      -0.773195       -21.0397
  34   2.0000      -0.714966       -19.4552
  35   2.0000      -0.703377       -19.1399
  36   2.0000      -0.693909       -18.8822
  37   2.0000      -0.654930       -17.8216
  38   2.0000      -0.643351       -17.5065
  39   2.0000      -0.625050       -17.0085
  40   2.0000      -0.593843       -16.1593
  41   2.0000      -0.563395       -15.3308
  42   2.0000      -0.558897       -15.2084
  43   2.0000      -0.549249       -14.9458
  44   2.0000      -0.544945       -14.8287
  45   2.0000      -0.526228       -14.3194
  46   2.0000      -0.522205       -14.2099
  47   2.0000      -0.509786       -13.8720
  48   2.0000      -0.505467       -13.7545
  49   2.0000      -0.493414       -13.4265
  50   2.0000      -0.491861       -13.3842
  51   2.0000      -0.485348       -13.2070
  52   2.0000      -0.474510       -12.9121
  53   2.0000      -0.461562       -12.5597
  54   2.0000      -0.459116       -12.4932
  55   2.0000      -0.451562       -12.2876
  56   2.0000      -0.448262       -12.1978
  57   2.0000      -0.440843       -11.9960
  58   2.0000      -0.434886       -11.8339
  59   2.0000      -0.431748       -11.7485
  60   2.0000      -0.420078       -11.4309
  61   2.0000      -0.408850       -11.1254
  62   2.0000      -0.403734       -10.9862
  63   2.0000      -0.355839        -9.6829
  64   2.0000      -0.335198        -9.1212
  65   2.0000      -0.322067        -8.7639
  66   2.0000      -0.282655        -7.6914
  67   0.0000       0.024618         0.6699
  68   0.0000       0.078051         2.1239
  69   0.0000       0.102983         2.8023
  70   0.0000       0.123729         3.3668
  71   0.0000       0.127556         3.4710

MULLIKEN ATOMIC CHARGES
-----------------------
   0 S :    0.089892
   1 C :   -0.111069
   2 C :   -0.086078
   3 C :    0.031293
   4 C :   -0.130032
   5 H :   -0.028839
   6 C :    0.046708
   7 H :    0.034573
   8 H :    0.033696
   9 C :   -0.069717
  10 H :    0.035420
  11 H :    0.025004
  12 C :   -0.067635
  13 H :    0.024210
  14 H :    0.038254
  15 H :    0.049261
  16 S :    0.087150
  17 C :   -0.092159
  18 C :   -0.037538
  19 C :   -0.091824
  20 C :   -0.101845
  21 H :    0.015503
  22 C :    0.100011
  23 H :    0.038220
  24 H :    0.010594
  25 C :   -0.060359
  26 H :    0.019546
  27 H :    0.033842
  28 C :   -0.051656
  29 H :    0.030983
  30 H :    0.052982
  31 H :    0.026259
  32 H :    0.041223
  33 H :    0.064124
Sum of atomic charges:    0.0000000

LOEWDIN ATOMIC CHARGES
----------------------
   0 S :    0.420892
   1 C :   -0.208612
   2 C :   -0.059749
   3 C :   -0.070390
   4 C :   -0.194101
   5 H :    0.023774
   6 C :   -0.045065
   7 H :    0.040529
   8 H :    0.042345
   9 C :   -0.050499
  10 H :    0.030915
  11 H :    0.026982
  12 C :   -0.073918
  13 H :    0.018683
  14 H :    0.029102
  15 H :    0.035620
  16 S :    0.372497
  17 C :   -0.175555
  18 C :   -0.074621
  19 C :   -0.059067
  20 C :   -0.185728
  21 H :    0.030148
  22 C :   -0.035670
  23 H :    0.041561
  24 H :    0.030533
  25 C :   -0.042661
  26 H :    0.022293
  27 H :    0.031213
  28 C :   -0.070817
  29 H :    0.024000
  30 H :    0.033283
  31 H :    0.027529
  32 H :    0.024949
  33 H :    0.039606

  Mayer bond orders larger than 0.100000
B(  0-S ,  1-C ) :   1.1537 B(  0-S ,  4-C ) :   1.1626 B(  1-C ,  2-C ) :   1.5661
B(  1-C ,  4-C ) :   0.1005 B(  1-C , 32-H ) :   0.9762 B(  2-C ,  3-C ) :   1.2933
B(  2-C ,  6-C ) :   1.0127 B(  3-C ,  4-C ) :   1.5423 B(  3-C ,  5-H ) :   0.9852
B(  4-C , 20-C ) :   1.0287 B(  6-C ,  7-H ) :   0.9408 B(  6-C ,  8-H ) :   0.9269
B(  6-C ,  9-C ) :   1.0651 B(  9-C , 10-H ) :   0.9547 B(  9-C , 11-H ) :   0.9521
B(  9-C , 12-C ) :   1.0662 B( 12-C , 13-H ) :   0.9744 B( 12-C , 14-H ) :   0.9786
B( 12-C , 15-H ) :   0.9744 B( 16-S , 17-C ) :   1.1198 B( 16-S , 20-C ) :   1.1212
B( 17-C , 18-C ) :   1.6649 B( 17-C , 33-H ) :   0.9591 B( 18-C , 19-C ) :   1.2168
B( 18-C , 21-H ) :   0.9873 B( 19-C , 20-C ) :   1.6253 B( 19-C , 22-C ) :   1.0274
B( 22-C , 23-H ) :   0.9199 B( 22-C , 24-H ) :   0.9312 B( 22-C , 25-C ) :   1.0627
B( 25-C , 26-H ) :   0.9507 B( 25-C , 27-H ) :   0.9517 B( 25-C , 28-C ) :   1.0871
B( 28-C , 29-H ) :   0.9654 B( 28-C , 30-H ) :   0.9718 B( 28-C , 31-H ) :   0.9674

Dispersion correction           -0.015414751
FINAL SINGLE POINT ENERGY     -1339.871376947158

DIPOLE MOMENT
-------------
                                X             Y             Z
Electronic contribution:    -18.86124      25.04972      -0.07204
Nuclear contribution   :     19.60786     -25.57200       0.08493
                        -----------------------------------------
Total Dipole Moment    :      0.74662      -0.52228       0.01289
                        -----------------------------------------
Magnitude (a.u.)       :      0.91125
Magnitude (Debye)      :      2.31622

Rotational constants in cm-1:     0.017264     0.011122     0.007295
Rotational constants in MHz :   517.549652   333.424352   218.711418

                             ****ORCA TERMINATED NORMALLY****
TOTAL RUN TIME: 0 days 0 hours 0 minutes 35 seconds 890 msec
