                         Program Version 4.2.1 -  RELEASE  -
|  1> ! wB97X-D3 SP def2-SVP
|  2> %pal
|  3> nprocs 16
|  4> end
|  5>
|  6> * xyz 0 1
|  7> S 	 -46.4946 	 27.6949 	 89.8005
|  8> C 	 -47.3175 	 27.3658 	 91.2923
|  9> C 	 -47.9337 	 28.511 	 91.7811
| 10> C 	 -47.8747 	 29.623 	 90.8097
| 11> C 	 -47.0787 	 29.3454 	 89.6851
| 12> H 	 -48.377 	 30.5314 	 90.8388
| 13> C 	 -48.8452 	 28.5495 	 92.9578
| 14> H 	 -48.3813 	 29.1473 	 93.7712
| 15> H 	 -48.8576 	 27.6132 	 93.4722
| 16> C 	 -50.2446 	 29.0749 	 92.7393
| 17> H 	 -50.1695 	 30.1264 	 92.4806
| 18> H 	 -50.8062 	 28.6636 	 91.9502
| 19> C 	 -51.0602 	 29.039 	 93.9891
| 20> H 	 -51.3702 	 28.0301 	 94.3283
| 21> H 	 -50.5889 	 29.5689 	 94.8836
| 22> H 	 -52.0169 	 29.4568 	 93.8625
| 23> S 	 -47.517 	 29.2223 	 86.9564
| 24> C 	 -47.1989 	 30.6505 	 86.0578
| 25> C 	 -47.2308 	 31.7313 	 86.8609
| 26> C 	 -47.0987 	 31.4752 	 88.2561
| 27> C 	 -47.0495 	 30.1361 	 88.4249
| 28> H 	 -47.2146 	 32.6797 	 86.4139
| 29> C 	 -46.9462 	 32.5929 	 89.2721
| 30> H 	 -47.751 	 32.7955 	 90.0194
| 31> H 	 -46.9911 	 33.4877 	 88.7707
| 32> C 	 -45.5722 	 32.471 	 89.9591
| 33> H 	 -44.7604 	 32.444 	 89.237
| 34> H 	 -45.4335 	 31.5618 	 90.6186
| 35> C 	 -45.4071 	 33.6751 	 90.8668
| 36> H 	 -45.2875 	 34.5447 	 90.2838
| 37> H 	 -44.576 	 33.4867 	 91.5002
| 38> H 	 -46.2752 	 33.7525 	 91.5387
| 39> H 	 -47.5559 	 26.3829 	 91.7911
| 40> H 	 -47.5531 	 30.6631 	 85.0013
| 41> *
| 42>
| 43>                          ****END OF INPUT****

CARTESIAN COORDINATES (ANGSTROEM)
---------------------------------
  S    -46.494600   27.694900   89.800500
  C    -47.317500   27.365800   91.292300
  C    -47.933700   28.511000   91.781100
  C    -47.874700   29.623000   90.809700
  C    -47.078700   29.345400   89.685100
  H    -48.377000   30.531400   90.838800
  C    -48.845200   28.549500   92.957800
  H    -48.381300   29.147300   93.771200
  H    -48.857600   27.613200   93.472200
  C    -50.244600   29.074900   92.739300
  H    -50.169500   30.126400   92.480600
  H    -50.806200   28.663600   91.950200
  C    -51.060200   29.039000   93.989100
  H    -51.370200   28.030100   94.328300
  H    -50.588900   29.568900   94.883600
  H    -52.016900   29.456800   93.862500
  S    -47.517000   29.222300   86.956400
  C    -47.198900   30.650500   86.057800
  C    -47.230800   31.731300   86.860900
  C    -47.098700   31.475200   88.256100
  C    -47.049500   30.136100   88.424900
  H    -47.214600   32.679700   86.413900
  C    -46.946200   32.592900   89.272100
  H    -47.751000   32.795500   90.019400
  H    -46.991100   33.487700   88.770700
  C    -45.572200   32.471000   89.959100
  H    -44.760400   32.444000   89.237000
  H    -45.433500   31.561800   90.618600
  C    -45.407100   33.675100   90.866800
  H    -45.287500   34.544700   90.283800
  H    -44.576000   33.486700   91.500200
  H    -46.275200   33.752500   91.538700
  H    -47.555900   26.382900   91.791100
  H    -47.553100   30.663100   85.001300

 Total Charge           Charge          ....    0
 Multiplicity           Mult            ....    1
 Number of Electrons    NEL             ....  134
 Basis Dimension        Dim             ....  322

ORBITAL ENERGIES
----------------

  NO   OCC          E(Eh)            E(eV)
   0   2.0000     -88.965078     -2420.8628
   1   2.0000     -88.961248     -2420.7586
   2   2.0000     -10.330340      -281.1028
   3   2.0000     -10.327929      -281.0372
   4   2.0000     -10.316505      -280.7264
   5   2.0000     -10.309479      -280.5352
   6   2.0000     -10.303168      -280.3634
   7   2.0000     -10.301369      -280.3145
   8   2.0000     -10.293931      -280.1121
   9   2.0000     -10.293524      -280.1010
  10   2.0000     -10.288029      -279.9515
  11   2.0000     -10.286196      -279.9016
  12   2.0000     -10.284652      -279.8596
  13   2.0000     -10.280346      -279.7424
  14   2.0000     -10.278335      -279.6877
  15   2.0000     -10.268105      -279.4093
  16   2.0000      -8.079558      -219.8560
  17   2.0000      -8.076548      -219.7740
  18   2.0000      -6.038173      -164.3070
  19   2.0000      -6.034976      -164.2201
  20   2.0000      -6.033966      -164.1926
  21   2.0000      -6.031400      -164.1227
  22   2.0000      -6.030343      -164.0940
  23   2.0000      -6.026907      -164.0005
  24   2.0000      -1.008909       -27.4538
  25   2.0000      -0.983911       -26.7736
  26   2.0000      -0.919046       -25.0085
  27   2.0000      -0.915864       -24.9219
  28   2.0000      -0.869500       -23.6603
  29   2.0000      -0.856877       -23.3168
  30   2.0000      -0.845064       -22.9953
  31   2.0000      -0.812938       -22.1212
  32   2.0000      -0.786102       -21.3909
  33   2.0000      -0.773362       -21.0442
  34   2.0000      -0.711121       -19.3506
  35   2.0000      -0.701274       -19.0826
  36   2.0000      -0.686316       -18.6756
  37   2.0000      -0.662887       -18.0381
  38   2.0000      -0.638531       -17.3753
  39   2.0000      -0.619731       -16.8637
  40   2.0000      -0.605268       -16.4702
  41   2.0000      -0.574560       -15.6346
  42   2.0000      -0.568607       -15.4726
  43   2.0000      -0.557825       -15.1792
  44   2.0000      -0.530830       -14.4446
  45   2.0000      -0.525652       -14.3037
  46   2.0000      -0.519539       -14.1374
  47   2.0000      -0.511670       -13.9233
  48   2.0000      -0.505210       -13.7475
  49   2.0000      -0.493961       -13.4413
  50   2.0000      -0.491480       -13.3739
  51   2.0000      -0.485798       -13.2192
  52   2.0000      -0.469527       -12.7765
  53   2.0000      -0.463066       -12.6007
  54   2.0000      -0.453908       -12.3515
  55   2.0000      -0.447177       -12.1683
  56   2.0000      -0.445542       -12.1238
  57   2.0000      -0.440896       -11.9974
  58   2.0000      -0.437336       -11.9005
  59   2.0000      -0.424892       -11.5619
  60   2.0000      -0.422048       -11.4845
  61   2.0000      -0.418872       -11.3981
  62   2.0000      -0.410497       -11.1702
  63   2.0000      -0.348495        -9.4830
  64   2.0000      -0.330832        -9.0024
  65   2.0000      -0.322150        -8.7661
  66   2.0000      -0.292872        -7.9694
  67   0.0000       0.023924         0.6510
  68   0.0000       0.074603         2.0300
  69   0.0000       0.099908         2.7186
  70   0.0000       0.119500         3.2518
  71   0.0000       0.133727         3.6389

MULLIKEN ATOMIC CHARGES
-----------------------
   0 S :    0.106805
   1 C :   -0.132099
   2 C :   -0.072672
   3 C :    0.043160
   4 C :   -0.159604
   5 H :   -0.018608
   6 C :    0.068557
   7 H :    0.026862
   8 H :   -0.003931
   9 C :   -0.035211
  10 H :    0.023355
  11 H :    0.024599
  12 C :   -0.061224
  13 H :    0.024424
  14 H :    0.035707
  15 H :    0.015949
  16 S :    0.094722
  17 C :   -0.084768
  18 C :   -0.034612
  19 C :   -0.005020
  20 C :   -0.148827
  21 H :   -0.001729
  22 C :    0.104087
  23 H :    0.034874
  24 H :   -0.020555
  25 C :   -0.122253
  26 H :    0.033161
  27 H :    0.055115
  28 C :   -0.001552
  29 H :    0.022951
  30 H :    0.023449
  31 H :    0.020467
  32 H :    0.072144
  33 H :    0.072277
Sum of atomic charges:    0.0000000

LOEWDIN ATOMIC CHARGES
----------------------
   0 S :    0.406962
   1 C :   -0.216798
   2 C :   -0.061970
   3 C :   -0.051690
   4 C :   -0.196017
   5 H :    0.015552
   6 C :   -0.038601
   7 H :    0.038524
   8 H :    0.023289
   9 C :   -0.038731
  10 H :    0.025859
  11 H :    0.022558
  12 C :   -0.068233
  13 H :    0.024768
  14 H :    0.031623
  15 H :    0.019591
  16 S :    0.395102
  17 C :   -0.201901
  18 C :   -0.062786
  19 C :   -0.054392
  20 C :   -0.170733
  21 H :    0.021191
  22 C :   -0.027217
  23 H :    0.035051
  24 H :    0.018420
  25 C :   -0.036590
  26 H :    0.024250
  27 H :    0.033035
  28 C :   -0.057576
  29 H :    0.016904
  30 H :    0.022436
  31 H :    0.024578
  32 H :    0.046996
  33 H :    0.036545

  Mayer bond orders larger than 0.100000
B(  0-S ,  1-C ) :   1.1350 B(  0-S ,  4-C ) :   1.1498 B(  1-C ,  2-C ) :   1.6190
B(  1-C , 32-H ) :   0.9559 B(  2-C ,  3-C ) :   1.2150 B(  2-C ,  6-C ) :   1.0481
B(  3-C ,  4-C ) :   1.5725 B(  3-C ,  5-H ) :   0.9981 B(  4-C , 20-C ) :   1.0383
B(  6-C ,  7-H ) :   0.9202 B(  6-C ,  8-H ) :   0.9421 B(  6-C ,  9-C ) :   1.0656
B(  9-C , 10-H ) :   0.9402 B(  9-C , 11-H ) :   0.9550 B(  9-C , 12-C ) :   1.1021
B( 12-C , 13-H ) :   0.9708 B( 12-C , 14-H ) :   0.9712 B( 12-C , 15-H ) :   0.9686
B( 16-S , 17-C ) :   1.1360 B( 16-S , 20-C ) :   1.1507 B( 17-C , 18-C ) :   1.6432
B( 17-C , 33-H ) :   0.9552 B( 18-C , 19-C ) :   1.2255 B( 18-C , 21-H ) :   0.9923
B( 19-C , 20-C ) :   1.6198 B( 19-C , 22-C ) :   1.0308 B( 22-C , 23-H ) :   0.9317
B( 22-C , 24-H ) :   0.9214 B( 22-C , 25-C ) :   1.0608 B( 25-C , 26-H ) :   0.9546
B( 25-C , 27-H ) :   0.9551 B( 25-C , 28-C ) :   1.0928 B( 28-C , 29-H ) :   0.9756
B( 28-C , 30-H ) :   0.9715 B( 28-C , 31-H ) :   0.9702

Dispersion correction           -0.014004739
FINAL SINGLE POINT ENERGY     -1339.853303162159

DIPOLE MOMENT
-------------
                                X             Y             Z
Electronic contribution:      7.91068     -15.75052     -22.43073
Nuclear contribution   :     -8.46266      16.30938      22.77053
                        -----------------------------------------
Total Dipole Moment    :     -0.55198       0.55886       0.33981
                        -----------------------------------------
Magnitude (a.u.)       :      0.85585
Magnitude (Debye)      :      2.17539

Rotational constants in cm-1:     0.016841     0.008853     0.007216
Rotational constants in MHz :   504.889887   265.401763   216.342501

                             ****ORCA TERMINATED NORMALLY****
TOTAL RUN TIME: 0 days 0 hours 0 minutes 29 seconds 327 msec
