                         Program Version 4.2.1 -  RELEASE  -
|  1> ! wB97X-D3 SP def2-SVP
|  2> %pal
|  3> nprocs 16
|  4> end
|  5>
|  6> * xyz 0 1
|  7> S 	 3.21566 	 -25.3785 	 62.7967
|  8> C 	 1.7788 	 -25.6383 	 63.7396
|  9> C 	 0.772428 	 -26.1801 	 62.9744
| 10> C 	 1.16164 	 -26.3569 	 61.5717
| 11> C 	 2.44278 	 -25.8317 	 61.327
| 12> H 	 0.533012 	 -26.7712 	 60.8414
| 13> C 	 -0.597731 	 -26.5747 	 63.5081
| 14> H 	 -0.735202 	 -25.9363 	 64.3918
| 15> H 	 -0.535257 	 -27.593 	 63.9301
| 16> C 	 -1.80925 	 -26.6202 	 62.641
| 17> H 	 -1.53838 	 -27.129 	 61.7938
| 18> H 	 -2.62952 	 -27.1171 	 63.2743
| 19> C 	 -2.36532 	 -25.2721 	 62.2553
| 20> H 	 -2.58423 	 -24.5984 	 63.1171
| 21> H 	 -1.72158 	 -24.7634 	 61.5559
| 22> H 	 -3.246 	 -25.4535 	 61.6316
| 23> S 	 3.62402 	 -27.6008 	 59.6666
| 24> C 	 4.3418 	 -27.1011 	 58.1988
| 25> C 	 3.95933 	 -25.7878 	 57.8577
| 26> C 	 3.24977 	 -25.1391 	 58.8873
| 27> C 	 3.14075 	 -25.9508 	 60.0243
| 28> H 	 4.27672 	 -25.3157 	 56.9338
| 29> C 	 2.69013 	 -23.7201 	 58.7934
| 30> H 	 2.15707 	 -23.4496 	 59.6931
| 31> H 	 1.82237 	 -23.8033 	 58.1531
| 32> C 	 3.55276 	 -22.5099 	 58.3726
| 33> H 	 2.86248 	 -21.595 	 58.4897
| 34> H 	 3.9824 	 -22.5484 	 57.3702
| 35> C 	 4.62704 	 -22.1456 	 59.4117
| 36> H 	 4.20154 	 -22.4201 	 60.3908
| 37> H 	 4.88786 	 -21.1111 	 59.1679
| 38> H 	 5.52249 	 -22.7672 	 59.399
| 39> H 	 1.75735 	 -25.4773 	 64.7716
| 40> H 	 4.76928 	 -27.7972 	 57.4694
| 41> *
| 42>
| 43>                          ****END OF INPUT****

CARTESIAN COORDINATES (ANGSTROEM)
---------------------------------
  S      3.215660  -25.378500   62.796700
  C      1.778800  -25.638300   63.739600
  C      0.772428  -26.180100   62.974400
  C      1.161640  -26.356900   61.571700
  C      2.442780  -25.831700   61.327000
  H      0.533012  -26.771200   60.841400
  C     -0.597731  -26.574700   63.508100
  H     -0.735202  -25.936300   64.391800
  H     -0.535257  -27.593000   63.930100
  C     -1.809250  -26.620200   62.641000
  H     -1.538380  -27.129000   61.793800
  H     -2.629520  -27.117100   63.274300
  C     -2.365320  -25.272100   62.255300
  H     -2.584230  -24.598400   63.117100
  H     -1.721580  -24.763400   61.555900
  H     -3.246000  -25.453500   61.631600
  S      3.624020  -27.600800   59.666600
  C      4.341800  -27.101100   58.198800
  C      3.959330  -25.787800   57.857700
  C      3.249770  -25.139100   58.887300
  C      3.140750  -25.950800   60.024300
  H      4.276720  -25.315700   56.933800
  C      2.690130  -23.720100   58.793400
  H      2.157070  -23.449600   59.693100
  H      1.822370  -23.803300   58.153100
  C      3.552760  -22.509900   58.372600
  H      2.862480  -21.595000   58.489700
  H      3.982400  -22.548400   57.370200
  C      4.627040  -22.145600   59.411700
  H      4.201540  -22.420100   60.390800
  H      4.887860  -21.111100   59.167900
  H      5.522490  -22.767200   59.399000
  H      1.757350  -25.477300   64.771600
  H      4.769280  -27.797200   57.469400

 Total Charge           Charge          ....    0
 Multiplicity           Mult            ....    1
 Number of Electrons    NEL             ....  134
 Basis Dimension        Dim             ....  322

ORBITAL ENERGIES
----------------

  NO   OCC          E(Eh)            E(eV)
   0   2.0000     -88.966293     -2420.8959
   1   2.0000     -88.965307     -2420.8691
   2   2.0000     -10.330686      -281.1123
   3   2.0000     -10.325663      -280.9756
   4   2.0000     -10.317255      -280.7468
   5   2.0000     -10.308362      -280.5048
   6   2.0000     -10.306446      -280.4526
   7   2.0000     -10.303584      -280.3748
   8   2.0000     -10.295803      -280.1630
   9   2.0000     -10.294084      -280.1163
  10   2.0000     -10.293013      -280.0871
  11   2.0000     -10.290016      -280.0056
  12   2.0000     -10.288827      -279.9732
  13   2.0000     -10.284039      -279.8429
  14   2.0000     -10.274752      -279.5902
  15   2.0000     -10.273107      -279.5455
  16   2.0000      -8.081525      -219.9095
  17   2.0000      -8.080656      -219.8858
  18   2.0000      -6.039952      -164.3554
  19   2.0000      -6.038904      -164.3269
  20   2.0000      -6.035886      -164.2448
  21   2.0000      -6.035077      -164.2228
  22   2.0000      -6.032428      -164.1507
  23   2.0000      -6.031645      -164.1294
  24   2.0000      -1.006563       -27.3900
  25   2.0000      -0.985506       -26.8170
  26   2.0000      -0.918624       -24.9970
  27   2.0000      -0.905649       -24.6440
  28   2.0000      -0.868137       -23.6232
  29   2.0000      -0.851138       -23.1606
  30   2.0000      -0.845787       -23.0150
  31   2.0000      -0.810453       -22.0535
  32   2.0000      -0.785781       -21.3822
  33   2.0000      -0.774837       -21.0844
  34   2.0000      -0.706057       -19.2128
  35   2.0000      -0.692633       -18.8475
  36   2.0000      -0.686519       -18.6811
  37   2.0000      -0.656939       -17.8762
  38   2.0000      -0.644204       -17.5297
  39   2.0000      -0.621575       -16.9139
  40   2.0000      -0.600298       -16.3349
  41   2.0000      -0.569812       -15.5054
  42   2.0000      -0.555088       -15.1047
  43   2.0000      -0.551364       -15.0034
  44   2.0000      -0.544712       -14.8224
  45   2.0000      -0.541538       -14.7360
  46   2.0000      -0.520300       -14.1581
  47   2.0000      -0.513871       -13.9831
  48   2.0000      -0.500661       -13.6237
  49   2.0000      -0.494337       -13.4516
  50   2.0000      -0.490943       -13.3592
  51   2.0000      -0.481277       -13.0962
  52   2.0000      -0.468767       -12.7558
  53   2.0000      -0.463683       -12.6175
  54   2.0000      -0.455562       -12.3965
  55   2.0000      -0.444673       -12.1002
  56   2.0000      -0.442170       -12.0321
  57   2.0000      -0.439152       -11.9499
  58   2.0000      -0.430194       -11.7062
  59   2.0000      -0.427725       -11.6390
  60   2.0000      -0.416828       -11.3425
  61   2.0000      -0.412350       -11.2206
  62   2.0000      -0.410272       -11.1641
  63   2.0000      -0.334944        -9.1143
  64   2.0000      -0.325477        -8.8567
  65   2.0000      -0.320799        -8.7294
  66   2.0000      -0.308862        -8.4046
  67   0.0000       0.045313         1.2330
  68   0.0000       0.050185         1.3656
  69   0.0000       0.109151         2.9702
  70   0.0000       0.125216         3.4073
  71   0.0000       0.135202         3.6790

MULLIKEN ATOMIC CHARGES
-----------------------
   0 S :    0.122798
   1 C :   -0.114283
   2 C :   -0.081769
   3 C :    0.038724
   4 C :   -0.156283
   5 H :   -0.002982
   6 C :    0.060288
   7 H :    0.013352
   8 H :    0.041377
   9 C :   -0.059065
  10 H :    0.012392
  11 H :    0.043431
  12 C :   -0.049732
  13 H :    0.040245
  14 H :    0.022489
  15 H :    0.029168
  16 S :    0.124185
  17 C :   -0.092743
  18 C :   -0.055139
  19 C :    0.011838
  20 C :   -0.205727
  21 H :    0.019351
  22 C :    0.068188
  23 H :    0.016557
  24 H :    0.028638
  25 C :   -0.100141
  26 H :    0.040439
  27 H :    0.037013
  28 C :   -0.047697
  29 H :    0.027506
  30 H :    0.042456
  31 H :    0.032198
  32 H :    0.027214
  33 H :    0.065714
Sum of atomic charges:    0.0000000

LOEWDIN ATOMIC CHARGES
----------------------
   0 S :    0.428902
   1 C :   -0.196413
   2 C :   -0.057555
   3 C :   -0.060404
   4 C :   -0.213626
   5 H :    0.019955
   6 C :   -0.040920
   7 H :    0.028757
   8 H :    0.038949
   9 C :   -0.041017
  10 H :    0.012594
  11 H :    0.040312
  12 C :   -0.068064
  13 H :    0.029653
  14 H :    0.021093
  15 H :    0.027374
  16 S :    0.433616
  17 C :   -0.201418
  18 C :   -0.074642
  19 C :   -0.051285
  20 C :   -0.206556
  21 H :    0.030925
  22 C :   -0.040290
  23 H :    0.031888
  24 H :    0.036119
  25 C :   -0.043882
  26 H :    0.038141
  27 H :    0.019869
  28 C :   -0.069572
  29 H :    0.028211
  30 H :    0.028691
  31 H :    0.022171
  32 H :    0.016906
  33 H :    0.031520

  Mayer bond orders larger than 0.100000
B(  0-S ,  1-C ) :   1.1424 B(  0-S ,  4-C ) :   1.1805 B(  1-C ,  2-C ) :   1.6087
B(  1-C , 32-H ) :   0.9795 B(  2-C ,  3-C ) :   1.2387 B(  2-C ,  6-C ) :   1.0125
B(  3-C ,  4-C ) :   1.5586 B(  3-C ,  5-H ) :   1.0007 B(  4-C , 20-C ) :   0.9930
B(  6-C ,  7-H ) :   0.9407 B(  6-C ,  8-H ) :   0.9294 B(  6-C ,  9-C ) :   1.0884
B(  9-C , 10-H ) :   0.9450 B(  9-C , 11-H ) :   0.9496 B(  9-C , 12-C ) :   1.0962
B( 12-C , 13-H ) :   0.9731 B( 12-C , 14-H ) :   0.9719 B( 12-C , 15-H ) :   0.9717
B( 16-S , 17-C ) :   1.1848 B( 16-S , 20-C ) :   1.1681 B( 17-C , 18-C ) :   1.5647
B( 17-C , 20-C ) :   0.1089 B( 17-C , 33-H ) :   0.9652 B( 18-C , 19-C ) :   1.2732
B( 18-C , 21-H ) :   0.9928 B( 19-C , 20-C ) :   1.5666 B( 19-C , 22-C ) :   1.0325
B( 22-C , 23-H ) :   0.9289 B( 22-C , 24-H ) :   0.9256 B( 22-C , 25-C ) :   1.0809
B( 25-C , 26-H ) :   0.9559 B( 25-C , 27-H ) :   0.9571 B( 25-C , 28-C ) :   1.0602
B( 28-C , 29-H ) :   0.9729 B( 28-C , 30-H ) :   0.9785 B( 28-C , 31-H ) :   0.9751

Dispersion correction           -0.014273069
FINAL SINGLE POINT ENERGY     -1339.869274005331

DIPOLE MOMENT
-------------
                                X             Y             Z
Electronic contribution:     15.48446     -14.13162       2.12733
Nuclear contribution   :    -15.98350      14.19204      -2.32656
                        -----------------------------------------
Total Dipole Moment    :     -0.49903       0.06042      -0.19923
                        -----------------------------------------
Magnitude (a.u.)       :      0.54072
Magnitude (Debye)      :      1.37441

Rotational constants in cm-1:     0.018686     0.008102     0.007476
Rotational constants in MHz :   560.204965   242.906177   224.130088

                             ****ORCA TERMINATED NORMALLY****
TOTAL RUN TIME: 0 days 0 hours 0 minutes 34 seconds 699 msec
