                         Program Version 4.2.1 -  RELEASE  -
|  1> ! wB97X-D3 SP def2-SVP
|  2> %pal
|  3> nprocs 16
|  4> end
|  5>
|  6> * xyz 0 1
|  7> S 	 37.7653 	 17.9541 	 74.7015
|  8> C 	 36.2608 	 17.1129 	 75.0023
|  9> C 	 36.2749 	 16.5099 	 76.2466
| 10> C 	 37.4116 	 16.8637 	 76.9965
| 11> C 	 38.2888 	 17.6747 	 76.3268
| 12> H 	 37.5942 	 16.5235 	 77.9889
| 13> C 	 35.2041 	 15.5051 	 76.8267
| 14> H 	 34.6102 	 15.9212 	 77.6199
| 15> H 	 35.7983 	 14.705 	 77.2794
| 16> C 	 34.2137 	 14.7804 	 75.8408
| 17> H 	 33.6924 	 15.4729 	 75.2151
| 18> H 	 34.8344 	 14.1248 	 75.2378
| 19> C 	 33.1828 	 13.8747 	 76.6093
| 20> H 	 33.7915 	 13.0252 	 77.0759
| 21> H 	 32.6676 	 14.4264 	 77.3775
| 22> H 	 32.5251 	 13.4411 	 75.8873
| 23> S 	 40.965 	 17.7845 	 75.5942
| 24> C 	 42.0969 	 18.5249 	 76.5936
| 25> C 	 41.5242 	 18.9139 	 77.8291
| 26> C 	 40.1205 	 18.6331 	 77.9248
| 27> C 	 39.6428 	 18.1199 	 76.6973
| 28> H 	 42.0896 	 19.2286 	 78.7014
| 29> C 	 39.2559 	 19.0375 	 79.1303
| 30> H 	 39.7951 	 18.8778 	 80.0626
| 31> H 	 38.5538 	 18.2532 	 79.2186
| 32> C 	 38.675 	 20.4499 	 79.0766
| 33> H 	 38.3024 	 20.7136 	 78.1158
| 34> H 	 39.4889 	 21.1738 	 79.212
| 35> C 	 37.6093 	 20.6254 	 80.1764
| 36> H 	 36.794 	 19.864 	 80.1214
| 37> H 	 37.023 	 21.5253 	 80.0273
| 38> H 	 38.041 	 20.5802 	 81.1906
| 39> H 	 35.5015 	 16.7954 	 74.2653
| 40> H 	 43.1339 	 18.4146 	 76.4349
| 41> *
| 42>
| 43>                          ****END OF INPUT****

CARTESIAN COORDINATES (ANGSTROEM)
---------------------------------
  S     37.765300   17.954100   74.701500
  C     36.260800   17.112900   75.002300
  C     36.274900   16.509900   76.246600
  C     37.411600   16.863700   76.996500
  C     38.288800   17.674700   76.326800
  H     37.594200   16.523500   77.988900
  C     35.204100   15.505100   76.826700
  H     34.610200   15.921200   77.619900
  H     35.798300   14.705000   77.279400
  C     34.213700   14.780400   75.840800
  H     33.692400   15.472900   75.215100
  H     34.834400   14.124800   75.237800
  C     33.182800   13.874700   76.609300
  H     33.791500   13.025200   77.075900
  H     32.667600   14.426400   77.377500
  H     32.525100   13.441100   75.887300
  S     40.965000   17.784500   75.594200
  C     42.096900   18.524900   76.593600
  C     41.524200   18.913900   77.829100
  C     40.120500   18.633100   77.924800
  C     39.642800   18.119900   76.697300
  H     42.089600   19.228600   78.701400
  C     39.255900   19.037500   79.130300
  H     39.795100   18.877800   80.062600
  H     38.553800   18.253200   79.218600
  C     38.675000   20.449900   79.076600
  H     38.302400   20.713600   78.115800
  H     39.488900   21.173800   79.212000
  C     37.609300   20.625400   80.176400
  H     36.794000   19.864000   80.121400
  H     37.023000   21.525300   80.027300
  H     38.041000   20.580200   81.190600
  H     35.501500   16.795400   74.265300
  H     43.133900   18.414600   76.434900

 Total Charge           Charge          ....    0
 Multiplicity           Mult            ....    1
 Number of Electrons    NEL             ....  134
 Basis Dimension        Dim             ....  322

ORBITAL ENERGIES
----------------

  NO   OCC          E(Eh)            E(eV)
   0   2.0000     -88.969066     -2420.9714
   1   2.0000     -88.966066     -2420.8897
   2   2.0000     -10.328463      -281.0518
   3   2.0000     -10.327768      -281.0329
   4   2.0000     -10.312907      -280.6285
   5   2.0000     -10.311993      -280.6036
   6   2.0000     -10.305252      -280.4202
   7   2.0000     -10.301968      -280.3308
   8   2.0000     -10.297653      -280.2134
   9   2.0000     -10.295808      -280.1632
  10   2.0000     -10.290350      -280.0146
  11   2.0000     -10.289164      -279.9824
  12   2.0000     -10.288237      -279.9572
  13   2.0000     -10.285899      -279.8935
  14   2.0000     -10.284279      -279.8495
  15   2.0000     -10.280249      -279.7398
  16   2.0000      -8.084708      -219.9961
  17   2.0000      -8.081057      -219.8968
  18   2.0000      -6.043067      -164.4402
  19   2.0000      -6.039595      -164.3457
  20   2.0000      -6.038887      -164.3265
  21   2.0000      -6.035772      -164.2417
  22   2.0000      -6.035521      -164.2349
  23   2.0000      -6.031786      -164.1332
  24   2.0000      -1.009643       -27.4738
  25   2.0000      -0.986810       -26.8525
  26   2.0000      -0.909316       -24.7438
  27   2.0000      -0.902657       -24.5625
  28   2.0000      -0.864652       -23.5284
  29   2.0000      -0.853895       -23.2357
  30   2.0000      -0.845506       -23.0074
  31   2.0000      -0.807808       -21.9816
  32   2.0000      -0.782947       -21.3051
  33   2.0000      -0.770869       -20.9764
  34   2.0000      -0.708042       -19.2668
  35   2.0000      -0.706513       -19.2252
  36   2.0000      -0.690536       -18.7905
  37   2.0000      -0.662476       -18.0269
  38   2.0000      -0.635682       -17.2978
  39   2.0000      -0.619149       -16.8479
  40   2.0000      -0.598677       -16.2908
  41   2.0000      -0.571068       -15.5395
  42   2.0000      -0.563393       -15.3307
  43   2.0000      -0.558158       -15.1883
  44   2.0000      -0.523934       -14.2570
  45   2.0000      -0.522670       -14.2226
  46   2.0000      -0.514633       -14.0039
  47   2.0000      -0.511886       -13.9291
  48   2.0000      -0.502809       -13.6821
  49   2.0000      -0.493704       -13.4344
  50   2.0000      -0.490968       -13.3599
  51   2.0000      -0.481774       -13.1097
  52   2.0000      -0.476616       -12.9694
  53   2.0000      -0.463593       -12.6150
  54   2.0000      -0.456886       -12.4325
  55   2.0000      -0.450745       -12.2654
  56   2.0000      -0.444684       -12.1005
  57   2.0000      -0.435689       -11.8557
  58   2.0000      -0.434501       -11.8234
  59   2.0000      -0.428762       -11.6672
  60   2.0000      -0.423108       -11.5134
  61   2.0000      -0.420724       -11.4485
  62   2.0000      -0.415261       -11.2998
  63   2.0000      -0.348528        -9.4839
  64   2.0000      -0.334151        -9.0927
  65   2.0000      -0.331143        -9.0109
  66   2.0000      -0.287847        -7.8327
  67   0.0000       0.029766         0.8100
  68   0.0000       0.071455         1.9444
  69   0.0000       0.111327         3.0294
  70   0.0000       0.123024         3.3477
  71   0.0000       0.134705         3.6655

MULLIKEN ATOMIC CHARGES
-----------------------
   0 S :    0.106174
   1 C :   -0.127214
   2 C :   -0.078073
   3 C :    0.030561
   4 C :   -0.143006
   5 H :    0.001443
   6 C :    0.037348
   7 H :    0.034162
   8 H :    0.028917
   9 C :   -0.101855
  10 H :    0.033778
  11 H :    0.032562
  12 C :   -0.052855
  13 H :    0.038452
  14 H :    0.037515
  15 H :    0.037424
  16 S :    0.129175
  17 C :   -0.076570
  18 C :   -0.041539
  19 C :   -0.066219
  20 C :   -0.157417
  21 H :    0.018700
  22 C :    0.104804
  23 H :    0.010467
  24 H :   -0.012898
  25 C :   -0.023185
  26 H :    0.025923
  27 H :    0.025642
  28 C :   -0.061238
  29 H :    0.030266
  30 H :    0.031709
  31 H :    0.037917
  32 H :    0.057299
  33 H :    0.051833
Sum of atomic charges:    0.0000000

LOEWDIN ATOMIC CHARGES
----------------------
   0 S :    0.415158
   1 C :   -0.213394
   2 C :   -0.060553
   3 C :   -0.065861
   4 C :   -0.193470
   5 H :    0.025623
   6 C :   -0.029169
   7 H :    0.025517
   8 H :    0.032002
   9 C :   -0.038174
  10 H :    0.014833
  11 H :    0.023594
  12 C :   -0.059739
  13 H :    0.033670
  14 H :    0.021326
  15 H :    0.024190
  16 S :    0.445290
  17 C :   -0.208911
  18 C :   -0.071780
  19 C :   -0.051793
  20 C :   -0.206415
  21 H :    0.029601
  22 C :   -0.029214
  23 H :    0.030963
  24 H :    0.020008
  25 C :   -0.031973
  26 H :    0.023078
  27 H :    0.027694
  28 C :   -0.069279
  29 H :    0.027929
  30 H :    0.026012
  31 H :    0.026868
  32 H :    0.034456
  33 H :    0.021913

  Mayer bond orders larger than 0.100000
B(  0-S ,  1-C ) :   1.1298 B(  0-S ,  4-C ) :   1.1620 B(  1-C ,  2-C ) :   1.6322
B(  1-C , 32-H ) :   0.9556 B(  2-C ,  3-C ) :   1.2694 B(  2-C ,  6-C ) :   0.9860
B(  3-C ,  4-C ) :   1.5627 B(  3-C ,  5-H ) :   0.9977 B(  4-C , 20-C ) :   1.0278
B(  6-C ,  7-H ) :   0.9487 B(  6-C ,  8-H ) :   0.9500 B(  6-C ,  9-C ) :   1.0620
B(  9-C , 10-H ) :   0.9560 B(  9-C , 11-H ) :   0.9618 B(  9-C , 12-C ) :   1.0811
B( 12-C , 13-H ) :   0.9772 B( 12-C , 14-H ) :   0.9782 B( 12-C , 15-H ) :   0.9748
B( 16-S , 17-C ) :   1.1899 B( 16-S , 20-C ) :   1.1726 B( 17-C , 18-C ) :   1.5377
B( 17-C , 20-C ) :   0.1059 B( 17-C , 33-H ) :   0.9733 B( 18-C , 19-C ) :   1.3020
B( 18-C , 21-H ) :   0.9864 B( 19-C , 20-C ) :   1.5455 B( 19-C , 22-C ) :   1.0451
B( 22-C , 23-H ) :   0.9257 B( 22-C , 24-H ) :   0.9287 B( 22-C , 25-C ) :   1.0565
B( 25-C , 26-H ) :   0.9590 B( 25-C , 27-H ) :   0.9512 B( 25-C , 28-C ) :   1.0782
B( 28-C , 29-H ) :   0.9760 B( 28-C , 30-H ) :   0.9736 B( 28-C , 31-H ) :   0.9760

Dispersion correction           -0.013531099
FINAL SINGLE POINT ENERGY     -1339.885204432649

DIPOLE MOMENT
-------------
                                X             Y             Z
Electronic contribution:     21.13172       4.27918     -17.98585
Nuclear contribution   :    -21.35711      -4.60816      18.52730
                        -----------------------------------------
Total Dipole Moment    :     -0.22538      -0.32897       0.54145
                        -----------------------------------------
Magnitude (a.u.)       :      0.67245
Magnitude (Debye)      :      1.70924

Rotational constants in cm-1:     0.019319     0.007597     0.006124
Rotational constants in MHz :   579.173010   227.744600   183.594588

                             ****ORCA TERMINATED NORMALLY****
TOTAL RUN TIME: 0 days 0 hours 0 minutes 29 seconds 303 msec
