                         Program Version 4.2.1 -  RELEASE  -
|  1> ! wB97X-D3 SP def2-SVP
|  2> %pal
|  3> nprocs 16
|  4> end
|  5>
|  6> * xyz 0 1
|  7> S 	 -41.3246 	 32.8309 	 85.5719
|  8> C 	 -42.9248 	 33.5248 	 85.7973
|  9> C 	 -43.5776 	 33.6737 	 84.5903
| 10> C 	 -42.7789 	 33.2942 	 83.4826
| 11> C 	 -41.5319 	 32.8991 	 83.8043
| 12> H 	 -43.0731 	 33.2844 	 82.4532
| 13> C 	 -45.066 	 34.0472 	 84.5102
| 14> H 	 -45.5038 	 33.7956 	 83.4638
| 15> H 	 -45.1047 	 35.1673 	 84.4704
| 16> C 	 -46.0152 	 33.5947 	 85.5853
| 17> H 	 -45.9677 	 32.5123 	 85.7708
| 18> H 	 -45.6077 	 34.0861 	 86.4937
| 19> C 	 -47.5095 	 33.954 	 85.3906
| 20> H 	 -47.6249 	 34.9456 	 85.4265
| 21> H 	 -47.9091 	 33.6245 	 84.4131
| 22> H 	 -48.1226 	 33.4293 	 86.1666
| 23> S 	 -39.8957 	 33.0413 	 81.581
| 24> C 	 -38.9339 	 31.6333 	 81.1015
| 25> C 	 -39.1398 	 30.5544 	 81.9502
| 26> C 	 -40.0845 	 30.8679 	 82.9579
| 27> C 	 -40.6392 	 32.1603 	 82.9366
| 28> H 	 -38.5182 	 29.6761 	 81.6859
| 29> C 	 -40.4321 	 29.8364 	 84.0174
| 30> H 	 -40.5489 	 30.437 	 84.9439
| 31> H 	 -39.5765 	 29.2169 	 84.1871
| 32> C 	 -41.6846 	 28.9824 	 83.8165
| 33> H 	 -41.6936 	 28.1764 	 84.5802
| 34> H 	 -41.6508 	 28.4793 	 82.8752
| 35> C 	 -43.0177 	 29.805 	 83.6937
| 36> H 	 -42.9356 	 30.566 	 82.914
| 37> H 	 -43.4357 	 30.3411 	 84.5233
| 38> H 	 -43.8453 	 29.1592 	 83.4382
| 39> H 	 -43.4435 	 33.6374 	 86.768
| 40> H 	 -38.3069 	 31.5799 	 80.3073
| 41> *
| 42>
| 43>                          ****END OF INPUT****

CARTESIAN COORDINATES (ANGSTROEM)
---------------------------------
  S    -41.324600   32.830900   85.571900
  C    -42.924800   33.524800   85.797300
  C    -43.577600   33.673700   84.590300
  C    -42.778900   33.294200   83.482600
  C    -41.531900   32.899100   83.804300
  H    -43.073100   33.284400   82.453200
  C    -45.066000   34.047200   84.510200
  H    -45.503800   33.795600   83.463800
  H    -45.104700   35.167300   84.470400
  C    -46.015200   33.594700   85.585300
  H    -45.967700   32.512300   85.770800
  H    -45.607700   34.086100   86.493700
  C    -47.509500   33.954000   85.390600
  H    -47.624900   34.945600   85.426500
  H    -47.909100   33.624500   84.413100
  H    -48.122600   33.429300   86.166600
  S    -39.895700   33.041300   81.581000
  C    -38.933900   31.633300   81.101500
  C    -39.139800   30.554400   81.950200
  C    -40.084500   30.867900   82.957900
  C    -40.639200   32.160300   82.936600
  H    -38.518200   29.676100   81.685900
  C    -40.432100   29.836400   84.017400
  H    -40.548900   30.437000   84.943900
  H    -39.576500   29.216900   84.187100
  C    -41.684600   28.982400   83.816500
  H    -41.693600   28.176400   84.580200
  H    -41.650800   28.479300   82.875200
  C    -43.017700   29.805000   83.693700
  H    -42.935600   30.566000   82.914000
  H    -43.435700   30.341100   84.523300
  H    -43.845300   29.159200   83.438200
  H    -43.443500   33.637400   86.768000
  H    -38.306900   31.579900   80.307300

 Total Charge           Charge          ....    0
 Multiplicity           Mult            ....    1
 Number of Electrons    NEL             ....  134
 Basis Dimension        Dim             ....  322

ORBITAL ENERGIES
----------------

  NO   OCC          E(Eh)            E(eV)
   0   2.0000     -88.969225     -2420.9757
   1   2.0000     -88.964575     -2420.8492
   2   2.0000     -10.329535      -281.0809
   3   2.0000     -10.329091      -281.0689
   4   2.0000     -10.319665      -280.8124
   5   2.0000     -10.312109      -280.6068
   6   2.0000     -10.305812      -280.4354
   7   2.0000     -10.305560      -280.4286
   8   2.0000     -10.303670      -280.3771
   9   2.0000     -10.296740      -280.1885
  10   2.0000     -10.294510      -280.1278
  11   2.0000     -10.292893      -280.0839
  12   2.0000     -10.285412      -279.8803
  13   2.0000     -10.282266      -279.7947
  14   2.0000     -10.279807      -279.7278
  15   2.0000     -10.266939      -279.3776
  16   2.0000      -8.082892      -219.9467
  17   2.0000      -8.078410      -219.8247
  18   2.0000      -6.041467      -164.3967
  19   2.0000      -6.037600      -164.2914
  20   2.0000      -6.036889      -164.2721
  21   2.0000      -6.033563      -164.1816
  22   2.0000      -6.032943      -164.1647
  23   2.0000      -6.029361      -164.0672
  24   2.0000      -1.006839       -27.3975
  25   2.0000      -0.981657       -26.7122
  26   2.0000      -0.912846       -24.8398
  27   2.0000      -0.899870       -24.4867
  28   2.0000      -0.873411       -23.7667
  29   2.0000      -0.853171       -23.2160
  30   2.0000      -0.838512       -22.8171
  31   2.0000      -0.819638       -22.3035
  32   2.0000      -0.783526       -21.3208
  33   2.0000      -0.771306       -20.9883
  34   2.0000      -0.712111       -19.3775
  35   2.0000      -0.703800       -19.1514
  36   2.0000      -0.694491       -18.8981
  37   2.0000      -0.661782       -18.0080
  38   2.0000      -0.641731       -17.4624
  39   2.0000      -0.617764       -16.8102
  40   2.0000      -0.588097       -16.0029
  41   2.0000      -0.574438       -15.6312
  42   2.0000      -0.567780       -15.4501
  43   2.0000      -0.549490       -14.9524
  44   2.0000      -0.532948       -14.5022
  45   2.0000      -0.525951       -14.3118
  46   2.0000      -0.518536       -14.1101
  47   2.0000      -0.511359       -13.9148
  48   2.0000      -0.507916       -13.8211
  49   2.0000      -0.499859       -13.6019
  50   2.0000      -0.490895       -13.3579
  51   2.0000      -0.474647       -12.9158
  52   2.0000      -0.472297       -12.8519
  53   2.0000      -0.467453       -12.7200
  54   2.0000      -0.457621       -12.4525
  55   2.0000      -0.450923       -12.2702
  56   2.0000      -0.441137       -12.0039
  57   2.0000      -0.436718       -11.8837
  58   2.0000      -0.429217       -11.6796
  59   2.0000      -0.426164       -11.5965
  60   2.0000      -0.415493       -11.3061
  61   2.0000      -0.412856       -11.2344
  62   2.0000      -0.406247       -11.0545
  63   2.0000      -0.347276        -9.4499
  64   2.0000      -0.333176        -9.0662
  65   2.0000      -0.328818        -8.9476
  66   2.0000      -0.295257        -8.0343
  67   0.0000       0.026771         0.7285
  68   0.0000       0.064962         1.7677
  69   0.0000       0.107120         2.9149
  70   0.0000       0.115076         3.1314
  71   0.0000       0.130490         3.5508

MULLIKEN ATOMIC CHARGES
-----------------------
   0 S :    0.105483
   1 C :   -0.142593
   2 C :   -0.048157
   3 C :    0.034457
   4 C :   -0.120890
   5 H :    0.013038
   6 C :    0.021541
   7 H :    0.026798
   8 H :    0.042831
   9 C :   -0.105842
  10 H :    0.037585
  11 H :    0.030003
  12 C :   -0.010964
  13 H :    0.007748
  14 H :    0.029683
  15 H :    0.044497
  16 S :    0.094900
  17 C :   -0.057875
  18 C :   -0.056168
  19 C :   -0.045981
  20 C :   -0.167421
  21 H :    0.037648
  22 C :    0.078586
  23 H :    0.020996
  24 H :    0.010621
  25 C :   -0.024691
  26 H :    0.033882
  27 H :    0.016092
  28 C :   -0.055418
  29 H :    0.030913
  30 H :    0.020903
  31 H :    0.019841
  32 H :    0.064214
  33 H :    0.013743
Sum of atomic charges:    0.0000000

LOEWDIN ATOMIC CHARGES
----------------------
   0 S :    0.406662
   1 C :   -0.195141
   2 C :   -0.065288
   3 C :   -0.047653
   4 C :   -0.186041
   5 H :    0.032432
   6 C :   -0.044698
   7 H :    0.032540
   8 H :    0.037778
   9 C :   -0.047457
  10 H :    0.025005
  11 H :    0.024301
  12 C :   -0.051479
  13 H :    0.005542
  14 H :    0.028655
  15 H :    0.036885
  16 S :    0.389183
  17 C :   -0.160125
  18 C :   -0.075116
  19 C :   -0.056632
  20 C :   -0.195535
  21 H :    0.044895
  22 C :   -0.039143
  23 H :    0.018705
  24 H :    0.025254
  25 C :   -0.031574
  26 H :    0.027343
  27 H :    0.020985
  28 C :   -0.070455
  29 H :    0.026295
  30 H :    0.018929
  31 H :    0.023372
  32 H :    0.035234
  33 H :    0.006345

  Mayer bond orders larger than 0.100000
B(  0-S ,  1-C ) :   1.1375 B(  0-S ,  4-C ) :   1.1321 B(  1-C ,  2-C ) :   1.6168
B(  1-C , 32-H ) :   0.9610 B(  2-C ,  3-C ) :   1.2471 B(  2-C ,  6-C ) :   1.0054
B(  3-C ,  4-C ) :   1.5927 B(  3-C ,  5-H ) :   0.9940 B(  4-C , 20-C ) :   1.0317
B(  6-C ,  7-H ) :   0.9496 B(  6-C ,  8-H ) :   0.9300 B(  6-C ,  9-C ) :   1.0641
B(  9-C , 10-H ) :   0.9631 B(  9-C , 11-H ) :   0.9432 B(  9-C , 12-C ) :   1.0839
B( 12-C , 13-H ) :   0.9760 B( 12-C , 14-H ) :   0.9741 B( 12-C , 15-H ) :   0.9744
B( 16-S , 17-C ) :   1.1624 B( 16-S , 20-C ) :   1.1292 B( 17-C , 18-C ) :   1.6129
B( 17-C , 20-C ) :   0.1059 B( 17-C , 33-H ) :   0.9757 B( 18-C , 19-C ) :   1.2359
B( 18-C , 21-H ) :   0.9919 B( 19-C , 20-C ) :   1.5788 B( 19-C , 22-C ) :   1.0298
B( 22-C , 23-H ) :   0.9297 B( 22-C , 24-H ) :   0.9305 B( 22-C , 25-C ) :   1.0796
B( 25-C , 26-H ) :   0.9567 B( 25-C , 27-H ) :   0.9523 B( 25-C , 28-C ) :   1.0687
B( 28-C , 29-H ) :   0.9691 B( 28-C , 30-H ) :   0.9772 B( 28-C , 31-H ) :   0.9728

Dispersion correction           -0.015985109
FINAL SINGLE POINT ENERGY     -1339.870144964549

DIPOLE MOMENT
-------------
                                X             Y             Z
Electronic contribution:     24.65534       7.83675      -6.24786
Nuclear contribution   :    -25.14995      -8.13804       6.26707
                        -----------------------------------------
Total Dipole Moment    :     -0.49461      -0.30129       0.01920
                        -----------------------------------------
Magnitude (a.u.)       :      0.57947
Magnitude (Debye)      :      1.47290

Rotational constants in cm-1:     0.024261     0.007834     0.007147
Rotational constants in MHz :   727.315225   234.860055   214.259208

                             ****ORCA TERMINATED NORMALLY****
TOTAL RUN TIME: 0 days 0 hours 0 minutes 33 seconds 3 msec
