                         Program Version 4.2.1 -  RELEASE  -
|  1> ! wB97X-D3 SP def2-SVP
|  2> %pal
|  3> nprocs 16
|  4> end
|  5>
|  6> * xyz 0 1
|  7> S 	 0.455542 	 -17.9391 	 84.1815
|  8> C 	 -0.571329 	 -19.2709 	 84.2571
|  9> C 	 0.0923625 	 -20.3694 	 84.8009
| 10> C 	 1.39963 	 -20.1105 	 85.3539
| 11> C 	 1.62582 	 -18.7543 	 85.2633
| 12> H 	 2.14218 	 -20.7391 	 85.6284
| 13> C 	 -0.413095 	 -21.8203 	 84.7888
| 14> H 	 0.358531 	 -22.5285 	 84.5856
| 15> H 	 -1.0345 	 -21.8475 	 83.9052
| 16> C 	 -1.19292 	 -22.193 	 86.0715
| 17> H 	 -0.688173 	 -21.8969 	 86.9348
| 18> H 	 -2.17057 	 -21.7086 	 86.2159
| 19> C 	 -1.4315 	 -23.7285 	 86.1458
| 20> H 	 -2.14365 	 -24.2001 	 85.5225
| 21> H 	 -0.389466 	 -24.2251 	 86.0621
| 22> H 	 -1.70149 	 -23.9336 	 87.2398
| 23> S 	 2.8615 	 -17.8117 	 87.5895
| 24> C 	 4.2124 	 -16.6528 	 87.4224
| 25> C 	 4.56033 	 -16.5614 	 86.0813
| 26> C 	 3.72188 	 -17.2841 	 85.2107
| 27> C 	 2.76288 	 -17.9655 	 85.8334
| 28> H 	 5.36973 	 -15.8154 	 85.7861
| 29> C 	 3.8675 	 -17.084 	 83.6878
| 30> H 	 3.01564 	 -16.4508 	 83.4437
| 31> H 	 3.61892 	 -18.0025 	 83.1859
| 32> C 	 5.10247 	 -16.3571 	 83.1694
| 33> H 	 5.13272 	 -15.3629 	 83.5879
| 34> H 	 4.98849 	 -16.2309 	 82.0817
| 35> C 	 6.49195 	 -16.9747 	 83.3536
| 36> H 	 7.14844 	 -16.3417 	 82.8437
| 37> H 	 6.49788 	 -17.9506 	 82.9104
| 38> H 	 6.91805 	 -16.9918 	 84.3108
| 39> H 	 -1.58869 	 -19.3547 	 83.7985
| 40> H 	 4.59804 	 -16.0955 	 88.3027
| 41> *
| 42>
| 43>                          ****END OF INPUT****

CARTESIAN COORDINATES (ANGSTROEM)
---------------------------------
  S      0.455542  -17.939100   84.181500
  C     -0.571329  -19.270900   84.257100
  C      0.092362  -20.369400   84.800900
  C      1.399630  -20.110500   85.353900
  C      1.625820  -18.754300   85.263300
  H      2.142180  -20.739100   85.628400
  C     -0.413095  -21.820300   84.788800
  H      0.358531  -22.528500   84.585600
  H     -1.034500  -21.847500   83.905200
  C     -1.192920  -22.193000   86.071500
  H     -0.688173  -21.896900   86.934800
  H     -2.170570  -21.708600   86.215900
  C     -1.431500  -23.728500   86.145800
  H     -2.143650  -24.200100   85.522500
  H     -0.389466  -24.225100   86.062100
  H     -1.701490  -23.933600   87.239800
  S      2.861500  -17.811700   87.589500
  C      4.212400  -16.652800   87.422400
  C      4.560330  -16.561400   86.081300
  C      3.721880  -17.284100   85.210700
  C      2.762880  -17.965500   85.833400
  H      5.369730  -15.815400   85.786100
  C      3.867500  -17.084000   83.687800
  H      3.015640  -16.450800   83.443700
  H      3.618920  -18.002500   83.185900
  C      5.102470  -16.357100   83.169400
  H      5.132720  -15.362900   83.587900
  H      4.988490  -16.230900   82.081700
  C      6.491950  -16.974700   83.353600
  H      7.148440  -16.341700   82.843700
  H      6.497880  -17.950600   82.910400
  H      6.918050  -16.991800   84.310800
  H     -1.588690  -19.354700   83.798500
  H      4.598040  -16.095500   88.302700

 Total Charge           Charge          ....    0
 Multiplicity           Mult            ....    1
 Number of Electrons    NEL             ....  134
 Basis Dimension        Dim             ....  322

ORBITAL ENERGIES
----------------

  NO   OCC          E(Eh)            E(eV)
   0   2.0000     -88.966261     -2420.8950
   1   2.0000     -88.961599     -2420.7682
   2   2.0000     -10.331587      -281.1368
   3   2.0000     -10.322676      -280.8943
   4   2.0000     -10.319716      -280.8137
   5   2.0000     -10.313317      -280.6396
   6   2.0000     -10.300525      -280.2915
   7   2.0000     -10.296984      -280.1952
   8   2.0000     -10.295001      -280.1412
   9   2.0000     -10.289470      -279.9907
  10   2.0000     -10.289308      -279.9863
  11   2.0000     -10.287459      -279.9360
  12   2.0000     -10.286497      -279.9098
  13   2.0000     -10.284762      -279.8626
  14   2.0000     -10.282701      -279.8065
  15   2.0000     -10.265122      -279.3282
  16   2.0000      -8.081356      -219.9049
  17   2.0000      -8.075730      -219.7518
  18   2.0000      -6.039797      -164.3512
  19   2.0000      -6.035964      -164.2469
  20   2.0000      -6.034289      -164.2014
  21   2.0000      -6.032037      -164.1401
  22   2.0000      -6.030365      -164.0946
  23   2.0000      -6.026430      -163.9875
  24   2.0000      -1.005711       -27.3668
  25   2.0000      -0.985509       -26.8171
  26   2.0000      -0.907780       -24.7020
  27   2.0000      -0.903680       -24.5904
  28   2.0000      -0.866286       -23.5728
  29   2.0000      -0.852600       -23.2004
  30   2.0000      -0.845514       -23.0076
  31   2.0000      -0.812975       -22.1222
  32   2.0000      -0.789031       -21.4706
  33   2.0000      -0.764126       -20.7929
  34   2.0000      -0.702250       -19.1092
  35   2.0000      -0.701800       -19.0969
  36   2.0000      -0.691478       -18.8161
  37   2.0000      -0.657796       -17.8995
  38   2.0000      -0.651226       -17.7208
  39   2.0000      -0.610561       -16.6142
  40   2.0000      -0.598807       -16.2944
  41   2.0000      -0.568828       -15.4786
  42   2.0000      -0.557265       -15.1639
  43   2.0000      -0.551306       -15.0018
  44   2.0000      -0.534185       -14.5359
  45   2.0000      -0.527399       -14.3513
  46   2.0000      -0.518623       -14.1125
  47   2.0000      -0.513831       -13.9820
  48   2.0000      -0.506554       -13.7840
  49   2.0000      -0.498504       -13.5650
  50   2.0000      -0.486541       -13.2395
  51   2.0000      -0.484176       -13.1751
  52   2.0000      -0.473856       -12.8943
  53   2.0000      -0.466868       -12.7041
  54   2.0000      -0.459357       -12.4997
  55   2.0000      -0.443388       -12.0652
  56   2.0000      -0.436530       -11.8786
  57   2.0000      -0.434647       -11.8273
  58   2.0000      -0.432731       -11.7752
  59   2.0000      -0.425987       -11.5917
  60   2.0000      -0.418091       -11.3768
  61   2.0000      -0.413720       -11.2579
  62   2.0000      -0.410568       -11.1721
  63   2.0000      -0.342227        -9.3125
  64   2.0000      -0.331887        -9.0311
  65   2.0000      -0.324027        -8.8172
  66   2.0000      -0.293979        -7.9996
  67   0.0000       0.038320         1.0427
  68   0.0000       0.058944         1.6040
  69   0.0000       0.099520         2.7081
  70   0.0000       0.120279         3.2730
  71   0.0000       0.137172         3.7327

MULLIKEN ATOMIC CHARGES
-----------------------
   0 S :    0.114526
   1 C :   -0.118085
   2 C :   -0.117552
   3 C :    0.084246
   4 C :   -0.182882
   5 H :   -0.013946
   6 C :    0.087930
   7 H :    0.014625
   8 H :    0.012012
   9 C :   -0.037292
  10 H :    0.013862
  11 H :    0.027601
  12 C :   -0.090448
  13 H :    0.042884
  14 H :    0.033990
  15 H :    0.035281
  16 S :    0.097597
  17 C :   -0.124976
  18 C :   -0.062287
  19 C :   -0.022193
  20 C :   -0.168714
  21 H :    0.047007
  22 C :    0.105141
  23 H :    0.033181
  24 H :    0.024247
  25 C :   -0.094041
  26 H :    0.021386
  27 H :    0.033027
  28 C :    0.002208
  29 H :    0.012420
  30 H :    0.028905
  31 H :    0.019306
  32 H :    0.064947
  33 H :    0.076087
Sum of atomic charges:   -0.0000000

LOEWDIN ATOMIC CHARGES
----------------------
   0 S :    0.417613
   1 C :   -0.230696
   2 C :   -0.059694
   3 C :   -0.045507
   4 C :   -0.167803
   5 H :    0.019779
   6 C :   -0.029535
   7 H :    0.025316
   8 H :    0.026546
   9 C :   -0.036817
  10 H :    0.017128
  11 H :    0.027442
  12 C :   -0.073039
  13 H :    0.016388
  14 H :    0.030266
  15 H :    0.033100
  16 S :    0.380579
  17 C :   -0.177421
  18 C :   -0.080942
  19 C :   -0.065486
  20 C :   -0.200554
  21 H :    0.043868
  22 C :   -0.031702
  23 H :    0.035746
  24 H :    0.026986
  25 C :   -0.041556
  26 H :    0.020702
  27 H :    0.033414
  28 C :   -0.057442
  29 H :    0.022305
  30 H :    0.025597
  31 H :    0.016459
  32 H :    0.041326
  33 H :    0.037633

  Mayer bond orders larger than 0.100000
B(  0-S ,  1-C ) :   1.1447 B(  0-S ,  4-C ) :   1.1562 B(  1-C ,  2-C ) :   1.6174
B(  1-C , 32-H ) :   0.9601 B(  2-C ,  3-C ) :   1.2110 B(  2-C ,  6-C ) :   1.0266
B(  3-C ,  4-C ) :   1.5838 B(  3-C ,  5-H ) :   1.0168 B(  4-C , 20-C ) :   0.9943
B(  6-C ,  7-H ) :   0.9486 B(  6-C ,  8-H ) :   0.9375 B(  6-C ,  9-C ) :   1.0552
B(  9-C , 10-H ) :   0.9588 B(  9-C , 11-H ) :   0.9528 B(  9-C , 12-C ) :   1.0773
B( 12-C , 13-H ) :   0.9808 B( 12-C , 14-H ) :   0.9747 B( 12-C , 15-H ) :   0.9751
B( 16-S , 17-C ) :   1.1496 B( 16-S , 20-C ) :   1.1302 B( 17-C , 18-C ) :   1.6087
B( 17-C , 33-H ) :   0.9640 B( 18-C , 19-C ) :   1.2376 B( 18-C , 21-H ) :   0.9694
B( 19-C , 20-C ) :   1.6496 B( 19-C , 22-C ) :   1.0139 B( 22-C , 23-H ) :   0.9255
B( 22-C , 24-H ) :   0.9253 B( 22-C , 25-C ) :   1.0951 B( 25-C , 26-H ) :   0.9432
B( 25-C , 27-H ) :   0.9494 B( 25-C , 28-C ) :   1.0879 B( 28-C , 29-H ) :   0.9686
B( 28-C , 30-H ) :   0.9730 B( 28-C , 31-H ) :   0.9730

Dispersion correction           -0.013933970
FINAL SINGLE POINT ENERGY     -1339.854350589111

DIPOLE MOMENT
-------------
                                X             Y             Z
Electronic contribution:     -3.06690      12.23574       7.87101
Nuclear contribution   :      3.23700     -12.29791      -8.21015
                        -----------------------------------------
Total Dipole Moment    :      0.17011      -0.06218      -0.33914
                        -----------------------------------------
Magnitude (a.u.)       :      0.38447
Magnitude (Debye)      :      0.97725

Rotational constants in cm-1:     0.024058     0.006815     0.006123
Rotational constants in MHz :   721.241008   204.310121   183.563248

                             ****ORCA TERMINATED NORMALLY****
TOTAL RUN TIME: 0 days 0 hours 0 minutes 31 seconds 645 msec
