                         Program Version 4.2.1 -  RELEASE  -
|  1> ! wB97X-D3 SP def2-SVP
|  2> %pal
|  3> nprocs 16
|  4> end
|  5>
|  6> * xyz 0 1
|  7> S 	 1.74632 	 -24.1477 	 83.6009
|  8> C 	 3.23124 	 -24.6765 	 82.7839
|  9> C 	 4.30456 	 -23.7614 	 82.9369
| 10> C 	 3.98706 	 -22.6542 	 83.7845
| 11> C 	 2.61556 	 -22.6179 	 84.0991
| 12> H 	 4.66691 	 -21.8795 	 84.0505
| 13> C 	 5.71911 	 -23.9688 	 82.3625
| 14> H 	 5.9712 	 -23.1361 	 81.6831
| 15> H 	 5.71204 	 -24.8307 	 81.6739
| 16> C 	 6.90834 	 -24.1121 	 83.3123
| 17> H 	 6.84808 	 -23.364 	 84.0817
| 18> H 	 6.81563 	 -25.0005 	 83.8837
| 19> C 	 8.33761 	 -24.0649 	 82.7935
| 20> H 	 9.00597 	 -23.7507 	 83.5346
| 21> H 	 8.67969 	 -25.0424 	 82.4937
| 22> H 	 8.45984 	 -23.3822 	 81.9676
| 23> S 	 1.61608 	 -21.7021 	 86.5366
| 24> C 	 1.38107 	 -19.9636 	 86.6745
| 25> C 	 1.65834 	 -19.2898 	 85.4888
| 26> C 	 2.11077 	 -20.1453 	 84.4637
| 27> C 	 2.00797 	 -21.5093 	 84.8617
| 28> H 	 1.63016 	 -18.1746 	 85.4317
| 29> C 	 2.51959 	 -19.6169 	 83.1006
| 30> H 	 2.88681 	 -20.402 	 82.3765
| 31> H 	 3.41671 	 -19.1424 	 83.371
| 32> C 	 1.65416 	 -18.6039 	 82.4465
| 33> H 	 2.2104 	 -18.011 	 81.6525
| 34> H 	 1.35127 	 -17.8419 	 83.1457
| 35> C 	 0.357313 	 -19.2688 	 81.9386
| 36> H 	 -0.278435 	 -19.4827 	 82.7359
| 37> H 	 0.49303 	 -20.1906 	 81.3179
| 38> H 	 -0.202447 	 -18.5595 	 81.351
| 39> H 	 3.16402 	 -25.5914 	 82.1588
| 40> H 	 1.23899 	 -19.5938 	 87.6937
| 41> *
| 42>
| 43>                          ****END OF INPUT****

CARTESIAN COORDINATES (ANGSTROEM)
---------------------------------
  S      1.746320  -24.147700   83.600900
  C      3.231240  -24.676500   82.783900
  C      4.304560  -23.761400   82.936900
  C      3.987060  -22.654200   83.784500
  C      2.615560  -22.617900   84.099100
  H      4.666910  -21.879500   84.050500
  C      5.719110  -23.968800   82.362500
  H      5.971200  -23.136100   81.683100
  H      5.712040  -24.830700   81.673900
  C      6.908340  -24.112100   83.312300
  H      6.848080  -23.364000   84.081700
  H      6.815630  -25.000500   83.883700
  C      8.337610  -24.064900   82.793500
  H      9.005970  -23.750700   83.534600
  H      8.679690  -25.042400   82.493700
  H      8.459840  -23.382200   81.967600
  S      1.616080  -21.702100   86.536600
  C      1.381070  -19.963600   86.674500
  C      1.658340  -19.289800   85.488800
  C      2.110770  -20.145300   84.463700
  C      2.007970  -21.509300   84.861700
  H      1.630160  -18.174600   85.431700
  C      2.519590  -19.616900   83.100600
  H      2.886810  -20.402000   82.376500
  H      3.416710  -19.142400   83.371000
  C      1.654160  -18.603900   82.446500
  H      2.210400  -18.011000   81.652500
  H      1.351270  -17.841900   83.145700
  C      0.357313  -19.268800   81.938600
  H     -0.278435  -19.482700   82.735900
  H      0.493030  -20.190600   81.317900
  H     -0.202447  -18.559500   81.351000
  H      3.164020  -25.591400   82.158800
  H      1.238990  -19.593800   87.693700

 Total Charge           Charge          ....    0
 Multiplicity           Mult            ....    1
 Number of Electrons    NEL             ....  134
 Basis Dimension        Dim             ....  322

ORBITAL ENERGIES
----------------

  NO   OCC          E(Eh)            E(eV)
   0   2.0000     -88.967928     -2420.9404
   1   2.0000     -88.967218     -2420.9211
   2   2.0000     -10.335768      -281.2506
   3   2.0000     -10.324521      -280.9445
   4   2.0000     -10.323221      -280.9091
   5   2.0000     -10.321977      -280.8753
   6   2.0000     -10.309327      -280.5310
   7   2.0000     -10.306832      -280.4632
   8   2.0000     -10.300617      -280.2940
   9   2.0000     -10.297067      -280.1974
  10   2.0000     -10.295920      -280.1662
  11   2.0000     -10.287603      -279.9399
  12   2.0000     -10.286593      -279.9124
  13   2.0000     -10.278828      -279.7011
  14   2.0000     -10.271722      -279.5078
  15   2.0000     -10.267751      -279.3997
  16   2.0000      -8.082259      -219.9295
  17   2.0000      -8.081030      -219.8960
  18   2.0000      -6.040538      -164.3714
  19   2.0000      -6.039484      -164.3427
  20   2.0000      -6.036769      -164.2688
  21   2.0000      -6.035914      -164.2456
  22   2.0000      -6.033209      -164.1720
  23   2.0000      -6.031818      -164.1341
  24   2.0000      -0.999504       -27.1979
  25   2.0000      -0.972465       -26.4621
  26   2.0000      -0.915435       -24.9103
  27   2.0000      -0.906430       -24.6652
  28   2.0000      -0.862857       -23.4795
  29   2.0000      -0.850790       -23.1512
  30   2.0000      -0.847495       -23.0615
  31   2.0000      -0.808801       -22.0086
  32   2.0000      -0.786142       -21.3920
  33   2.0000      -0.768652       -20.9161
  34   2.0000      -0.705851       -19.2072
  35   2.0000      -0.699035       -19.0217
  36   2.0000      -0.690721       -18.7955
  37   2.0000      -0.652827       -17.7643
  38   2.0000      -0.640393       -17.4260
  39   2.0000      -0.619323       -16.8526
  40   2.0000      -0.602589       -16.3973
  41   2.0000      -0.564800       -15.3690
  42   2.0000      -0.557179       -15.1616
  43   2.0000      -0.552720       -15.0403
  44   2.0000      -0.537559       -14.6277
  45   2.0000      -0.522742       -14.2245
  46   2.0000      -0.513745       -13.9797
  47   2.0000      -0.509894       -13.8749
  48   2.0000      -0.506277       -13.7765
  49   2.0000      -0.487573       -13.2675
  50   2.0000      -0.486537       -13.2393
  51   2.0000      -0.477498       -12.9934
  52   2.0000      -0.470692       -12.8082
  53   2.0000      -0.460533       -12.5317
  54   2.0000      -0.456080       -12.4106
  55   2.0000      -0.454421       -12.3654
  56   2.0000      -0.448788       -12.2122
  57   2.0000      -0.435931       -11.8623
  58   2.0000      -0.432024       -11.7560
  59   2.0000      -0.424652       -11.5554
  60   2.0000      -0.422174       -11.4879
  61   2.0000      -0.417015       -11.3475
  62   2.0000      -0.411769       -11.2048
  63   2.0000      -0.343665        -9.3516
  64   2.0000      -0.331633        -9.0242
  65   2.0000      -0.322536        -8.7767
  66   2.0000      -0.291433        -7.9303
  67   0.0000       0.031607         0.8601
  68   0.0000       0.056871         1.5475
  69   0.0000       0.109542         2.9808
  70   0.0000       0.119380         3.2485
  71   0.0000       0.124787         3.3956

MULLIKEN ATOMIC CHARGES
-----------------------
   0 S :    0.095742
   1 C :   -0.144154
   2 C :   -0.070196
   3 C :    0.042538
   4 C :   -0.171389
   5 H :    0.018207
   6 C :    0.071726
   7 H :    0.024761
   8 H :    0.015216
   9 C :   -0.069042
  10 H :    0.010931
  11 H :    0.016515
  12 C :   -0.012372
  13 H :    0.020751
  14 H :    0.026259
  15 H :    0.019859
  16 S :    0.112743
  17 C :   -0.116998
  18 C :   -0.041708
  19 C :   -0.062693
  20 C :   -0.143976
  21 H :    0.040755
  22 C :    0.088278
  23 H :    0.045130
  24 H :    0.011738
  25 C :   -0.071439
  26 H :    0.035890
  27 H :    0.014795
  28 C :   -0.033136
  29 H :    0.026379
  30 H :    0.040636
  31 H :    0.020202
  32 H :    0.069582
  33 H :    0.068471
Sum of atomic charges:    0.0000000

LOEWDIN ATOMIC CHARGES
----------------------
   0 S :    0.363487
   1 C :   -0.194089
   2 C :   -0.060641
   3 C :   -0.050124
   4 C :   -0.169026
   5 H :    0.030396
   6 C :   -0.034562
   7 H :    0.030558
   8 H :    0.028571
   9 C :   -0.044039
  10 H :    0.019105
  11 H :    0.021903
  12 C :   -0.054988
  13 H :    0.023494
  14 H :    0.023705
  15 H :    0.022325
  16 S :    0.417629
  17 C :   -0.181661
  18 C :   -0.077307
  19 C :   -0.046502
  20 C :   -0.220815
  21 H :    0.040111
  22 C :   -0.039549
  23 H :    0.040695
  24 H :    0.028097
  25 C :   -0.041743
  26 H :    0.031943
  27 H :    0.019744
  28 C :   -0.061403
  29 H :    0.019649
  30 H :    0.031403
  31 H :    0.022004
  32 H :    0.033107
  33 H :    0.028527

  Mayer bond orders larger than 0.100000
B(  0-S ,  1-C ) :   1.1364 B(  0-S ,  4-C ) :   1.1363 B(  1-C ,  2-C ) :   1.6054
B(  1-C , 32-H ) :   0.9631 B(  2-C ,  3-C ) :   1.2301 B(  2-C ,  6-C ) :   1.0319
B(  3-C ,  4-C ) :   1.5742 B(  3-C ,  5-H ) :   0.9941 B(  4-C , 20-C ) :   1.0276
B(  6-C ,  7-H ) :   0.9347 B(  6-C ,  8-H ) :   0.9435 B(  6-C ,  9-C ) :   1.0602
B(  9-C , 10-H ) :   0.9575 B(  9-C , 11-H ) :   0.9515 B(  9-C , 12-C ) :   1.0866
B( 12-C , 13-H ) :   0.9722 B( 12-C , 14-H ) :   0.9771 B( 12-C , 15-H ) :   0.9737
B( 16-S , 17-C ) :   1.1775 B( 16-S , 20-C ) :   1.1629 B( 17-C , 18-C ) :   1.5640
B( 17-C , 33-H ) :   0.9685 B( 18-C , 19-C ) :   1.2759 B( 18-C , 21-H ) :   0.9821
B( 19-C , 20-C ) :   1.5505 B( 19-C , 22-C ) :   1.0216 B( 22-C , 23-H ) :   0.9352
B( 22-C , 24-H ) :   0.9127 B( 22-C , 25-C ) :   1.0964 B( 25-C , 26-H ) :   0.9516
B( 25-C , 27-H ) :   0.9462 B( 25-C , 28-C ) :   1.0718 B( 28-C , 29-H ) :   0.9741
B( 28-C , 30-H ) :   0.9772 B( 28-C , 31-H ) :   0.9730

Dispersion correction           -0.014259162
FINAL SINGLE POINT ENERGY     -1339.870716081758

DIPOLE MOMENT
-------------
                                X             Y             Z
Electronic contribution:    -17.03379      -8.06845      15.64743
Nuclear contribution   :     17.61927       8.52148     -15.81185
                        -----------------------------------------
Total Dipole Moment    :      0.58548       0.45303      -0.16441
                        -----------------------------------------
Magnitude (a.u.)       :      0.75832
Magnitude (Debye)      :      1.92750

Rotational constants in cm-1:     0.018063     0.007638     0.007149
Rotational constants in MHz :   541.529178   228.982805   214.324452

                             ****ORCA TERMINATED NORMALLY****
TOTAL RUN TIME: 0 days 0 hours 0 minutes 33 seconds 841 msec
