                         Program Version 4.2.1 -  RELEASE  -
|  1> ! wB97X-D3 SP def2-SVP
|  2> %pal
|  3> nprocs 16
|  4> end
|  5>
|  6> * xyz 0 1
|  7> S 	 -36.8363 	 68.2847 	 172.168
|  8> C 	 -35.7441 	 69.0769 	 171.072
|  9> C 	 -35.1436 	 70.1896 	 171.71
| 10> C 	 -35.5592 	 70.2429 	 173.097
| 11> C 	 -36.3241 	 69.1776 	 173.548
| 12> H 	 -35.2154 	 70.9503 	 173.84
| 13> C 	 -34.2736 	 71.2477 	 171.038
| 14> H 	 -34.5172 	 71.3785 	 169.997
| 15> H 	 -33.2178 	 70.858 	 170.972
| 16> C 	 -34.2277 	 72.7265 	 171.623
| 17> H 	 -35.1745 	 73.1581 	 171.769
| 18> H 	 -33.8101 	 72.6068 	 172.598
| 19> C 	 -33.3542 	 73.6752 	 170.788
| 20> H 	 -33.8906 	 73.8176 	 169.798
| 21> H 	 -33.0722 	 74.5743 	 171.331
| 22> H 	 -32.4034 	 73.2468 	 170.559
| 23> S 	 -38.2984 	 69.2372 	 175.608
| 24> C 	 -37.7575 	 69.0066 	 177.268
| 25> C 	 -36.4844 	 68.5804 	 177.295
| 26> C 	 -35.792 	 68.7086 	 176.054
| 27> C 	 -36.6258 	 68.9481 	 174.967
| 28> H 	 -35.9174 	 68.3841 	 178.156
| 29> C 	 -34.2961 	 68.5509 	 175.983
| 30> H 	 -33.9954 	 68.9885 	 175.108
| 31> H 	 -33.9923 	 67.5212 	 176.046
| 32> C 	 -33.4604 	 69.3762 	 177.075
| 33> H 	 -32.3985 	 69.2866 	 177.111
| 34> H 	 -33.9048 	 69.1341 	 178.009
| 35> C 	 -33.717 	 70.8822 	 176.925
| 36> H 	 -34.7812 	 71.2425 	 176.882
| 37> H 	 -33.2244 	 71.4882 	 176.172
| 38> H 	 -33.3973 	 71.3384 	 177.91
| 39> H 	 -35.5837 	 68.8779 	 170.046
| 40> H 	 -38.4215 	 69.1022 	 178.117
| 41> *
| 42>
| 43>                          ****END OF INPUT****

CARTESIAN COORDINATES (ANGSTROEM)
---------------------------------
  S    -36.836300   68.284700  172.168000
  C    -35.744100   69.076900  171.072000
  C    -35.143600   70.189600  171.710000
  C    -35.559200   70.242900  173.097000
  C    -36.324100   69.177600  173.548000
  H    -35.215400   70.950300  173.840000
  C    -34.273600   71.247700  171.038000
  H    -34.517200   71.378500  169.997000
  H    -33.217800   70.858000  170.972000
  C    -34.227700   72.726500  171.623000
  H    -35.174500   73.158100  171.769000
  H    -33.810100   72.606800  172.598000
  C    -33.354200   73.675200  170.788000
  H    -33.890600   73.817600  169.798000
  H    -33.072200   74.574300  171.331000
  H    -32.403400   73.246800  170.559000
  S    -38.298400   69.237200  175.608000
  C    -37.757500   69.006600  177.268000
  C    -36.484400   68.580400  177.295000
  C    -35.792000   68.708600  176.054000
  C    -36.625800   68.948100  174.967000
  H    -35.917400   68.384100  178.156000
  C    -34.296100   68.550900  175.983000
  H    -33.995400   68.988500  175.108000
  H    -33.992300   67.521200  176.046000
  C    -33.460400   69.376200  177.075000
  H    -32.398500   69.286600  177.111000
  H    -33.904800   69.134100  178.009000
  C    -33.717000   70.882200  176.925000
  H    -34.781200   71.242500  176.882000
  H    -33.224400   71.488200  176.172000
  H    -33.397300   71.338400  177.910000
  H    -35.583700   68.877900  170.046000
  H    -38.421500   69.102200  178.117000

 Total Charge           Charge          ....    0
 Multiplicity           Mult            ....    1
 Number of Electrons    NEL             ....  134
 Basis Dimension        Dim             ....  322

ORBITAL ENERGIES
----------------

  NO   OCC          E(Eh)            E(eV)
   0   2.0000     -88.968001     -2420.9424
   1   2.0000     -88.961867     -2420.7755
   2   2.0000     -10.333233      -281.1816
   3   2.0000     -10.328056      -281.0407
   4   2.0000     -10.320026      -280.8222
   5   2.0000     -10.315675      -280.7038
   6   2.0000     -10.308976      -280.5215
   7   2.0000     -10.304915      -280.4110
   8   2.0000     -10.299851      -280.2732
   9   2.0000     -10.293759      -280.1074
  10   2.0000     -10.289954      -280.0039
  11   2.0000     -10.287479      -279.9365
  12   2.0000     -10.285852      -279.8923
  13   2.0000     -10.284284      -279.8496
  14   2.0000     -10.283254      -279.8216
  15   2.0000     -10.280825      -279.7555
  16   2.0000      -8.082939      -219.9480
  17   2.0000      -8.075936      -219.7574
  18   2.0000      -6.041495      -164.3974
  19   2.0000      -6.037249      -164.2819
  20   2.0000      -6.034643      -164.2110
  21   2.0000      -6.033793      -164.1879
  22   2.0000      -6.030569      -164.1001
  23   2.0000      -6.026491      -163.9892
  24   2.0000      -1.004092       -27.3227
  25   2.0000      -0.984340       -26.7853
  26   2.0000      -0.906394       -24.6642
  27   2.0000      -0.905598       -24.6426
  28   2.0000      -0.871862       -23.7246
  29   2.0000      -0.848158       -23.0795
  30   2.0000      -0.843947       -22.9650
  31   2.0000      -0.815765       -22.1981
  32   2.0000      -0.780782       -21.2462
  33   2.0000      -0.771448       -20.9922
  34   2.0000      -0.713423       -19.4132
  35   2.0000      -0.704239       -19.1633
  36   2.0000      -0.697223       -18.9724
  37   2.0000      -0.659493       -17.9457
  38   2.0000      -0.643373       -17.5071
  39   2.0000      -0.615953       -16.7609
  40   2.0000      -0.603443       -16.4205
  41   2.0000      -0.570906       -15.5351
  42   2.0000      -0.566627       -15.4187
  43   2.0000      -0.553546       -15.0628
  44   2.0000      -0.548740       -14.9320
  45   2.0000      -0.523575       -14.2472
  46   2.0000      -0.519128       -14.1262
  47   2.0000      -0.509554       -13.8657
  48   2.0000      -0.503596       -13.7036
  49   2.0000      -0.496396       -13.5076
  50   2.0000      -0.488144       -13.2831
  51   2.0000      -0.484097       -13.1729
  52   2.0000      -0.470228       -12.7955
  53   2.0000      -0.467896       -12.7321
  54   2.0000      -0.460653       -12.5350
  55   2.0000      -0.449823       -12.2403
  56   2.0000      -0.443539       -12.0693
  57   2.0000      -0.438147       -11.9226
  58   2.0000      -0.435882       -11.8609
  59   2.0000      -0.423859       -11.5338
  60   2.0000      -0.419107       -11.4045
  61   2.0000      -0.415368       -11.3027
  62   2.0000      -0.406318       -11.0565
  63   2.0000      -0.340149        -9.2559
  64   2.0000      -0.327452        -8.9104
  65   2.0000      -0.326956        -8.8969
  66   2.0000      -0.301123        -8.1940
  67   0.0000       0.037094         1.0094
  68   0.0000       0.055293         1.5046
  69   0.0000       0.116922         3.1816
  70   0.0000       0.121948         3.3184
  71   0.0000       0.124761         3.3949

MULLIKEN ATOMIC CHARGES
-----------------------
   0 S :    0.130833
   1 C :   -0.101451
   2 C :   -0.072922
   3 C :    0.029986
   4 C :   -0.172178
   5 H :    0.010501
   6 C :    0.020722
   7 H :    0.015227
   8 H :    0.044276
   9 C :   -0.063846
  10 H :    0.031108
  11 H :    0.023792
  12 C :   -0.043563
  13 H :    0.043941
  14 H :    0.039225
  15 H :    0.014887
  16 S :    0.081206
  17 C :   -0.083314
  18 C :    0.021415
  19 C :   -0.094496
  20 C :   -0.146633
  21 H :   -0.001233
  22 C :    0.147352
  23 H :   -0.004148
  24 H :    0.042175
  25 C :   -0.044895
  26 H :    0.037834
  27 H :    0.015787
  28 C :   -0.126739
  29 H :    0.046091
  30 H :    0.035072
  31 H :    0.027635
  32 H :    0.034130
  33 H :    0.062225
Sum of atomic charges:   -0.0000000

LOEWDIN ATOMIC CHARGES
----------------------
   0 S :    0.432144
   1 C :   -0.197395
   2 C :   -0.061511
   3 C :   -0.061725
   4 C :   -0.214915
   5 H :    0.027676
   6 C :   -0.037630
   7 H :    0.023600
   8 H :    0.039597
   9 C :   -0.033938
  10 H :    0.019163
  11 H :    0.017293
  12 C :   -0.063961
  13 H :    0.034420
  14 H :    0.030237
  15 H :    0.018721
  16 S :    0.366567
  17 C :   -0.163299
  18 C :   -0.070242
  19 C :   -0.045303
  20 C :   -0.179108
  21 H :    0.022733
  22 C :   -0.017717
  23 H :    0.016085
  24 H :    0.032978
  25 C :   -0.027680
  26 H :    0.026949
  27 H :    0.015591
  28 C :   -0.084698
  29 H :    0.030240
  30 H :    0.018820
  31 H :    0.031349
  32 H :    0.023265
  33 H :    0.031695

  Mayer bond orders larger than 0.100000
B(  0-S ,  1-C ) :   1.1575 B(  0-S ,  4-C ) :   1.1597 B(  1-C ,  2-C ) :   1.5765
B(  1-C , 32-H ) :   0.9778 B(  2-C ,  3-C ) :   1.2609 B(  2-C ,  6-C ) :   1.0150
B(  3-C ,  4-C ) :   1.5503 B(  3-C ,  5-H ) :   0.9921 B(  4-C , 20-C ) :   1.0303
B(  6-C ,  7-H ) :   0.9493 B(  6-C ,  8-H ) :   0.9343 B(  6-C ,  9-C ) :   1.0616
B(  9-C , 10-H ) :   0.9621 B(  9-C , 11-H ) :   0.9476 B(  9-C , 12-C ) :   1.0903
B( 12-C , 13-H ) :   0.9747 B( 12-C , 14-H ) :   0.9722 B( 12-C , 15-H ) :   0.9736
B( 16-S , 17-C ) :   1.1512 B( 16-S , 20-C ) :   1.1125 B( 17-C , 18-C ) :   1.6176
B( 17-C , 33-H ) :   0.9674 B( 18-C , 19-C ) :   1.2279 B( 18-C , 21-H ) :   0.9918
B( 19-C , 20-C ) :   1.6311 B( 19-C , 22-C ) :   1.0432 B( 22-C , 23-H ) :   0.9273
B( 22-C , 24-H ) :   0.9371 B( 22-C , 25-C ) :   1.0584 B( 25-C , 26-H ) :   0.9604
B( 25-C , 27-H ) :   0.9608 B( 25-C , 28-C ) :   1.0652 B( 28-C , 29-H ) :   0.9727
B( 28-C , 30-H ) :   0.9784 B( 28-C , 31-H ) :   0.9729

Dispersion correction           -0.014665937
FINAL SINGLE POINT ENERGY     -1339.858541656733

DIPOLE MOMENT
-------------
                                X             Y             Z
Electronic contribution:    -24.11537     -18.59731      -0.42680
Nuclear contribution   :     24.82669      18.98368       0.62445
                        -----------------------------------------
Total Dipole Moment    :      0.71131       0.38637       0.19765
                        -----------------------------------------
Magnitude (a.u.)       :      0.83325
Magnitude (Debye)      :      2.11796

Rotational constants in cm-1:     0.017491     0.008784     0.006884
Rotational constants in MHz :   524.367115   263.346623   206.373753

                             ****ORCA TERMINATED NORMALLY****
TOTAL RUN TIME: 0 days 0 hours 0 minutes 34 seconds 557 msec
