                         Program Version 4.2.1 -  RELEASE  -
|  1> ! wB97X-D3 SP def2-SVP
|  2> %pal
|  3> nprocs 16
|  4> end
|  5>
|  6> * xyz 0 1
|  7> S 	 -19.1923 	 -0.649063 	 79.0303
|  8> C 	 -17.7659 	 -1.39065 	 78.201
|  9> C 	 -18.1347 	 -2.11226 	 77.0434
| 10> C 	 -19.5525 	 -2.10475 	 76.8696
| 11> C 	 -20.285 	 -1.40665 	 77.8077
| 12> H 	 -20.0779 	 -2.66862 	 76.1232
| 13> C 	 -17.246 	 -2.83418 	 76.089
| 14> H 	 -16.2641 	 -2.50118 	 76.5353
| 15> H 	 -17.3406 	 -2.26776 	 75.1946
| 16> C 	 -17.4612 	 -4.34196 	 75.9057
| 17> H 	 -18.4402 	 -4.68235 	 75.6038
| 18> H 	 -16.9679 	 -4.63379 	 74.9773
| 19> C 	 -16.8405 	 -5.12498 	 76.9738
| 20> H 	 -15.8029 	 -4.74005 	 77.1284
| 21> H 	 -17.3489 	 -5.03709 	 77.9804
| 22> H 	 -16.7217 	 -6.18263 	 76.6349
| 23> S 	 -22.2889 	 0.298742 	 78.4056
| 24> C 	 -23.9589 	 -0.153577 	 78.5063
| 25> C 	 -24.1328 	 -1.44765 	 77.9836
| 26> C 	 -22.8441 	 -2.09769 	 77.6863
| 27> C 	 -21.7387 	 -1.29106 	 77.8855
| 28> H 	 -25.0819 	 -1.88163 	 77.9322
| 29> C 	 -22.6965 	 -3.48587 	 77.184
| 30> H 	 -22.2135 	 -3.34766 	 76.2169
| 31> H 	 -23.7177 	 -3.78879 	 76.9644
| 32> C 	 -22.0059 	 -4.52286 	 78.1923
| 33> H 	 -22.7643 	 -4.46144 	 79.0753
| 34> H 	 -21.0959 	 -4.20257 	 78.6126
| 35> C 	 -21.7966 	 -5.97971 	 77.7475
| 36> H 	 -20.9745 	 -6.30178 	 77.1712
| 37> H 	 -22.6409 	 -6.1583 	 77.0914
| 38> H 	 -21.7777 	 -6.66594 	 78.5694
| 39> H 	 -16.7567 	 -1.24178 	 78.4563
| 40> H 	 -24.8624 	 0.504028 	 78.7403
| 41> *
| 42>
| 43>                          ****END OF INPUT****

CARTESIAN COORDINATES (ANGSTROEM)
---------------------------------
  S    -19.192300   -0.649063   79.030300
  C    -17.765900   -1.390650   78.201000
  C    -18.134700   -2.112260   77.043400
  C    -19.552500   -2.104750   76.869600
  C    -20.285000   -1.406650   77.807700
  H    -20.077900   -2.668620   76.123200
  C    -17.246000   -2.834180   76.089000
  H    -16.264100   -2.501180   76.535300
  H    -17.340600   -2.267760   75.194600
  C    -17.461200   -4.341960   75.905700
  H    -18.440200   -4.682350   75.603800
  H    -16.967900   -4.633790   74.977300
  C    -16.840500   -5.124980   76.973800
  H    -15.802900   -4.740050   77.128400
  H    -17.348900   -5.037090   77.980400
  H    -16.721700   -6.182630   76.634900
  S    -22.288900    0.298742   78.405600
  C    -23.958900   -0.153577   78.506300
  C    -24.132800   -1.447650   77.983600
  C    -22.844100   -2.097690   77.686300
  C    -21.738700   -1.291060   77.885500
  H    -25.081900   -1.881630   77.932200
  C    -22.696500   -3.485870   77.184000
  H    -22.213500   -3.347660   76.216900
  H    -23.717700   -3.788790   76.964400
  C    -22.005900   -4.522860   78.192300
  H    -22.764300   -4.461440   79.075300
  H    -21.095900   -4.202570   78.612600
  C    -21.796600   -5.979710   77.747500
  H    -20.974500   -6.301780   77.171200
  H    -22.640900   -6.158300   77.091400
  H    -21.777700   -6.665940   78.569400
  H    -16.756700   -1.241780   78.456300
  H    -24.862400    0.504028   78.740300

 Total Charge           Charge          ....    0
 Multiplicity           Mult            ....    1
 Number of Electrons    NEL             ....  134
 Basis Dimension        Dim             ....  322

ORBITAL ENERGIES
----------------

  NO   OCC          E(Eh)            E(eV)
   0   2.0000     -88.969846     -2420.9926
   1   2.0000     -88.963019     -2420.8068
   2   2.0000     -10.336289      -281.2647
   3   2.0000     -10.327085      -281.0143
   4   2.0000     -10.325026      -280.9582
   5   2.0000     -10.318752      -280.7875
   6   2.0000     -10.306546      -280.4554
   7   2.0000     -10.303548      -280.3738
   8   2.0000     -10.298134      -280.2265
   9   2.0000     -10.295354      -280.1508
  10   2.0000     -10.294626      -280.1310
  11   2.0000     -10.294394      -280.1247
  12   2.0000     -10.291365      -280.0423
  13   2.0000     -10.287911      -279.9483
  14   2.0000     -10.283446      -279.8268
  15   2.0000     -10.271972      -279.5146
  16   2.0000      -8.082397      -219.9332
  17   2.0000      -8.077865      -219.8099
  18   2.0000      -6.041200      -164.3894
  19   2.0000      -6.037304      -164.2834
  20   2.0000      -6.036453      -164.2602
  21   2.0000      -6.032866      -164.1626
  22   2.0000      -6.032163      -164.1435
  23   2.0000      -6.028717      -164.0497
  24   2.0000      -1.001076       -27.2407
  25   2.0000      -0.975557       -26.5463
  26   2.0000      -0.920141       -25.0383
  27   2.0000      -0.902991       -24.5716
  28   2.0000      -0.870518       -23.6880
  29   2.0000      -0.853202       -23.2168
  30   2.0000      -0.846147       -23.0248
  31   2.0000      -0.817095       -22.2343
  32   2.0000      -0.781035       -21.2531
  33   2.0000      -0.770089       -20.9552
  34   2.0000      -0.714124       -19.4323
  35   2.0000      -0.704893       -19.1811
  36   2.0000      -0.693561       -18.8727
  37   2.0000      -0.665952       -18.1215
  38   2.0000      -0.637361       -17.3435
  39   2.0000      -0.620600       -16.8874
  40   2.0000      -0.584486       -15.9047
  41   2.0000      -0.568821       -15.4784
  42   2.0000      -0.566044       -15.4028
  43   2.0000      -0.555359       -15.1121
  44   2.0000      -0.537977       -14.6391
  45   2.0000      -0.531320       -14.4580
  46   2.0000      -0.522893       -14.2286
  47   2.0000      -0.510274       -13.8853
  48   2.0000      -0.504622       -13.7315
  49   2.0000      -0.500336       -13.6148
  50   2.0000      -0.489166       -13.3109
  51   2.0000      -0.485960       -13.2236
  52   2.0000      -0.472929       -12.8691
  53   2.0000      -0.464202       -12.6316
  54   2.0000      -0.452352       -12.3091
  55   2.0000      -0.448579       -12.2065
  56   2.0000      -0.440051       -11.9744
  57   2.0000      -0.436345       -11.8735
  58   2.0000      -0.434206       -11.8154
  59   2.0000      -0.429724       -11.6934
  60   2.0000      -0.415921       -11.3178
  61   2.0000      -0.408889       -11.1264
  62   2.0000      -0.407265       -11.0822
  63   2.0000      -0.350119        -9.5272
  64   2.0000      -0.330760        -9.0004
  65   2.0000      -0.326222        -8.8770
  66   2.0000      -0.287717        -7.8292
  67   0.0000       0.022417         0.6100
  68   0.0000       0.070684         1.9234
  69   0.0000       0.102675         2.7939
  70   0.0000       0.116210         3.1622
  71   0.0000       0.124591         3.3903

MULLIKEN ATOMIC CHARGES
-----------------------
   0 S :    0.104833
   1 C :   -0.104259
   2 C :   -0.112594
   3 C :    0.019800
   4 C :   -0.105605
   5 H :   -0.004134
   6 C :    0.074794
   7 H :    0.017652
   8 H :    0.033660
   9 C :   -0.025299
  10 H :    0.021366
  11 H :    0.014791
  12 C :   -0.069019
  13 H :    0.025801
  14 H :    0.054654
  15 H :    0.040747
  16 S :    0.091413
  17 C :   -0.111015
  18 C :   -0.017573
  19 C :   -0.084857
  20 C :   -0.141969
  21 H :    0.001795
  22 C :    0.062596
  23 H :    0.037486
  24 H :    0.007732
  25 C :   -0.078220
  26 H :    0.040079
  27 H :    0.036685
  28 C :   -0.016125
  29 H :    0.021259
  30 H :    0.015747
  31 H :    0.031018
  32 H :    0.028561
  33 H :    0.088202
Sum of atomic charges:    0.0000000

LOEWDIN ATOMIC CHARGES
----------------------
   0 S :    0.362527
   1 C :   -0.180155
   2 C :   -0.059024
   3 C :   -0.060824
   4 C :   -0.173581
   5 H :    0.025263
   6 C :   -0.031525
   7 H :    0.038386
   8 H :    0.033001
   9 C :   -0.049170
  10 H :    0.024571
  11 H :    0.029875
  12 C :   -0.070813
  13 H :    0.028137
  14 H :    0.032915
  15 H :    0.031550
  16 S :    0.407952
  17 C :   -0.203825
  18 C :   -0.069958
  19 C :   -0.058987
  20 C :   -0.190507
  21 H :    0.021104
  22 C :   -0.037338
  23 H :    0.028397
  24 H :    0.028158
  25 C :   -0.033947
  26 H :    0.039226
  27 H :    0.016536
  28 C :   -0.067687
  29 H :    0.019233
  30 H :    0.025165
  31 H :    0.028140
  32 H :    0.016549
  33 H :    0.050655

  Mayer bond orders larger than 0.100000
B(  0-S ,  1-C ) :   1.1148 B(  0-S ,  4-C ) :   1.1189 B(  1-C ,  2-C ) :   1.6205
B(  1-C , 32-H ) :   0.9663 B(  2-C ,  3-C ) :   1.2200 B(  2-C ,  6-C ) :   1.0110
B(  3-C ,  4-C ) :   1.5955 B(  3-C ,  5-H ) :   0.9940 B(  4-C , 20-C ) :   1.0600
B(  6-C ,  7-H ) :   0.9423 B(  6-C ,  8-H ) :   0.9304 B(  6-C ,  9-C ) :   1.0664
B(  9-C , 10-H ) :   0.9491 B(  9-C , 11-H ) :   0.9421 B(  9-C , 12-C ) :   1.0846
B( 12-C , 13-H ) :   0.9699 B( 12-C , 14-H ) :   0.9747 B( 12-C , 15-H ) :   0.9707
B( 16-S , 17-C ) :   1.1667 B( 16-S , 20-C ) :   1.1297 B( 17-C , 18-C ) :   1.5957
B( 17-C , 33-H ) :   0.9558 B( 18-C , 19-C ) :   1.2389 B( 18-C , 21-H ) :   0.9972
B( 19-C , 20-C ) :   1.5899 B( 19-C , 22-C ) :   1.0454 B( 22-C , 23-H ) :   0.9360
B( 22-C , 24-H ) :   0.9233 B( 22-C , 25-C ) :   1.0403 B( 25-C , 26-H ) :   0.9532
B( 25-C , 27-H ) :   0.9658 B( 25-C , 28-C ) :   1.0723 B( 28-C , 29-H ) :   0.9757
B( 28-C , 30-H ) :   0.9738 B( 28-C , 31-H ) :   0.9731

Dispersion correction           -0.014965832
FINAL SINGLE POINT ENERGY     -1339.853627879309

DIPOLE MOMENT
-------------
                                X             Y             Z
Electronic contribution:     -7.69320      28.82770       9.30138
Nuclear contribution   :      7.70856     -29.48053      -9.78851
                        -----------------------------------------
Total Dipole Moment    :      0.01536      -0.65283      -0.48713
                        -----------------------------------------
Magnitude (a.u.)       :      0.81468
Magnitude (Debye)      :      2.07076

Rotational constants in cm-1:     0.019022     0.009752     0.007084
Rotational constants in MHz :   570.251199   292.362668   212.386927

                             ****ORCA TERMINATED NORMALLY****
TOTAL RUN TIME: 0 days 0 hours 0 minutes 33 seconds 430 msec
