                         Program Version 4.2.1 -  RELEASE  -
|  1> ! wB97X-D3 SP def2-SVP
|  2> %pal
|  3> nprocs 16
|  4> end
|  5>
|  6> * xyz 0 1
|  7> S 	 26.3016 	 -13.0963 	 81.9923
|  8> C 	 26.6154 	 -13.4181 	 80.3044
|  9> C 	 25.8545 	 -12.5774 	 79.4673
| 10> C 	 24.9224 	 -11.8094 	 80.2184
| 11> C 	 25.1023 	 -11.9056 	 81.6112
| 12> H 	 24.1056 	 -11.1906 	 79.8174
| 13> C 	 25.7472 	 -12.5594 	 77.9858
| 14> H 	 24.9035 	 -13.0169 	 77.6083
| 15> H 	 26.5256 	 -13.2569 	 77.7002
| 16> C 	 25.8124 	 -11.2209 	 77.1744
| 17> H 	 25.8438 	 -11.6109 	 76.1237
| 18> H 	 24.8409 	 -10.6917 	 77.2252
| 19> C 	 26.9383 	 -10.2109 	 77.6384
| 20> H 	 26.9639 	 -9.38742 	 77.0002
| 21> H 	 26.7363 	 -9.73615 	 78.6482
| 22> H 	 27.9719 	 -10.6289 	 77.5119
| 23> S 	 23.8999 	 -12.1912 	 84.0692
| 24> C 	 23.0207 	 -10.9184 	 84.8696
| 25> C 	 23.1774 	 -9.72554 	 84.1337
| 26> C 	 23.7928 	 -9.90658 	 82.8729
| 27> C 	 24.3627 	 -11.2162 	 82.6795
| 28> H 	 22.5865 	 -8.89638 	 84.6437
| 29> C 	 24.1207 	 -8.71193 	 82.0199
| 30> H 	 23.1083 	 -8.1578 	 81.9555
| 31> H 	 24.3732 	 -8.97316 	 80.9961
| 32> C 	 25.3214 	 -7.88954 	 82.5927
| 33> H 	 26.1744 	 -8.5242 	 82.6027
| 34> H 	 25.1753 	 -7.57822 	 83.5829
| 35> C 	 25.5531 	 -6.68829 	 81.7755
| 36> H 	 26.3294 	 -6.11462 	 82.1177
| 37> H 	 24.6561 	 -6.05736 	 81.6278
| 38> H 	 25.8669 	 -7.12479 	 80.8646
| 39> H 	 27.3329 	 -14.1709 	 79.95
| 40> H 	 22.5006 	 -11.0244 	 85.8412
| 41> *
| 42>
| 43>                          ****END OF INPUT****

CARTESIAN COORDINATES (ANGSTROEM)
---------------------------------
  S     26.301600  -13.096300   81.992300
  C     26.615400  -13.418100   80.304400
  C     25.854500  -12.577400   79.467300
  C     24.922400  -11.809400   80.218400
  C     25.102300  -11.905600   81.611200
  H     24.105600  -11.190600   79.817400
  C     25.747200  -12.559400   77.985800
  H     24.903500  -13.016900   77.608300
  H     26.525600  -13.256900   77.700200
  C     25.812400  -11.220900   77.174400
  H     25.843800  -11.610900   76.123700
  H     24.840900  -10.691700   77.225200
  C     26.938300  -10.210900   77.638400
  H     26.963900   -9.387420   77.000200
  H     26.736300   -9.736150   78.648200
  H     27.971900  -10.628900   77.511900
  S     23.899900  -12.191200   84.069200
  C     23.020700  -10.918400   84.869600
  C     23.177400   -9.725540   84.133700
  C     23.792800   -9.906580   82.872900
  C     24.362700  -11.216200   82.679500
  H     22.586500   -8.896380   84.643700
  C     24.120700   -8.711930   82.019900
  H     23.108300   -8.157800   81.955500
  H     24.373200   -8.973160   80.996100
  C     25.321400   -7.889540   82.592700
  H     26.174400   -8.524200   82.602700
  H     25.175300   -7.578220   83.582900
  C     25.553100   -6.688290   81.775500
  H     26.329400   -6.114620   82.117700
  H     24.656100   -6.057360   81.627800
  H     25.866900   -7.124790   80.864600
  H     27.332900  -14.170900   79.950000
  H     22.500600  -11.024400   85.841200

 Total Charge           Charge          ....    0
 Multiplicity           Mult            ....    1
 Number of Electrons    NEL             ....  134
 Basis Dimension        Dim             ....  322

ORBITAL ENERGIES
----------------

  NO   OCC          E(Eh)            E(eV)
   0   2.0000     -88.969771     -2420.9906
   1   2.0000     -88.963799     -2420.8280
   2   2.0000     -10.334298      -281.2105
   3   2.0000     -10.333824      -281.1976
   4   2.0000     -10.321834      -280.8714
   5   2.0000     -10.319546      -280.8091
   6   2.0000     -10.310024      -280.5500
   7   2.0000     -10.302299      -280.3398
   8   2.0000     -10.301315      -280.3130
   9   2.0000     -10.300939      -280.3028
  10   2.0000     -10.295339      -280.1504
  11   2.0000     -10.294658      -280.1319
  12   2.0000     -10.284139      -279.8457
  13   2.0000     -10.283930      -279.8400
  14   2.0000     -10.273105      -279.5454
  15   2.0000     -10.261740      -279.2361
  16   2.0000      -8.084618      -219.9936
  17   2.0000      -8.078468      -219.8263
  18   2.0000      -6.043038      -164.4394
  19   2.0000      -6.039089      -164.3320
  20   2.0000      -6.036843      -164.2709
  21   2.0000      -6.035475      -164.2336
  22   2.0000      -6.032715      -164.1585
  23   2.0000      -6.029633      -164.0747
  24   2.0000      -1.003894       -27.3174
  25   2.0000      -0.981580       -26.7102
  26   2.0000      -0.914418       -24.8826
  27   2.0000      -0.908584       -24.7238
  28   2.0000      -0.863484       -23.4966
  29   2.0000      -0.856062       -23.2946
  30   2.0000      -0.843139       -22.9430
  31   2.0000      -0.811728       -22.0883
  32   2.0000      -0.785096       -21.3635
  33   2.0000      -0.767394       -20.8819
  34   2.0000      -0.709589       -19.3089
  35   2.0000      -0.700049       -19.0493
  36   2.0000      -0.693817       -18.8797
  37   2.0000      -0.652713       -17.7612
  38   2.0000      -0.635730       -17.2991
  39   2.0000      -0.623064       -16.9544
  40   2.0000      -0.596623       -16.2349
  41   2.0000      -0.566578       -15.4174
  42   2.0000      -0.565036       -15.3754
  43   2.0000      -0.549490       -14.9524
  44   2.0000      -0.532767       -14.4973
  45   2.0000      -0.530771       -14.4430
  46   2.0000      -0.517467       -14.0810
  47   2.0000      -0.516474       -14.0540
  48   2.0000      -0.502872       -13.6838
  49   2.0000      -0.495583       -13.4855
  50   2.0000      -0.489476       -13.3193
  51   2.0000      -0.481298       -13.0968
  52   2.0000      -0.465080       -12.6555
  53   2.0000      -0.462623       -12.5886
  54   2.0000      -0.457713       -12.4550
  55   2.0000      -0.448363       -12.2006
  56   2.0000      -0.440678       -11.9915
  57   2.0000      -0.439074       -11.9478
  58   2.0000      -0.435356       -11.8467
  59   2.0000      -0.427315       -11.6278
  60   2.0000      -0.420557       -11.4439
  61   2.0000      -0.412747       -11.2314
  62   2.0000      -0.407455       -11.0874
  63   2.0000      -0.349971        -9.5232
  64   2.0000      -0.331062        -9.0087
  65   2.0000      -0.328014        -8.9257
  66   2.0000      -0.282519        -7.6877
  67   0.0000       0.022095         0.6012
  68   0.0000       0.073530         2.0009
  69   0.0000       0.111250         3.0273
  70   0.0000       0.113621         3.0918
  71   0.0000       0.124444         3.3863

MULLIKEN ATOMIC CHARGES
-----------------------
   0 S :    0.119900
   1 C :   -0.131230
   2 C :   -0.083755
   3 C :    0.001790
   4 C :   -0.138807
   5 H :    0.028171
   6 C :    0.097197
   7 H :    0.019816
   8 H :    0.002143
   9 C :   -0.107130
  10 H :    0.041191
  11 H :    0.032362
  12 C :   -0.048437
  13 H :    0.015400
  14 H :    0.054287
  15 H :    0.041802
  16 S :    0.093397
  17 C :   -0.126758
  18 C :   -0.073420
  19 C :   -0.013808
  20 C :   -0.136858
  21 H :    0.051672
  22 C :    0.007593
  23 H :    0.039590
  24 H :    0.006799
  25 C :   -0.029634
  26 H :    0.024368
  27 H :    0.008525
  28 C :    0.018947
  29 H :    0.011482
  30 H :    0.032380
  31 H :    0.005835
  32 H :    0.058134
  33 H :    0.077055
Sum of atomic charges:    0.0000000

LOEWDIN ATOMIC CHARGES
----------------------
   0 S :    0.422422
   1 C :   -0.206150
   2 C :   -0.062286
   3 C :   -0.066874
   4 C :   -0.201265
   5 H :    0.034750
   6 C :   -0.036705
   7 H :    0.026288
   8 H :    0.028262
   9 C :   -0.039540
  10 H :    0.033802
  11 H :    0.023399
  12 C :   -0.073765
  13 H :    0.015531
  14 H :    0.037761
  15 H :    0.032817
  16 S :    0.409447
  17 C :   -0.199014
  18 C :   -0.086839
  19 C :   -0.061572
  20 C :   -0.201026
  21 H :    0.048715
  22 C :   -0.034114
  23 H :    0.039248
  24 H :    0.021476
  25 C :   -0.026049
  26 H :    0.025871
  27 H :    0.013535
  28 C :   -0.053997
  29 H :    0.014295
  30 H :    0.029372
  31 H :    0.020723
  32 H :    0.032721
  33 H :    0.038760

  Mayer bond orders larger than 0.100000
B(  0-S ,  1-C ) :   1.1443 B(  0-S ,  4-C ) :   1.1697 B(  1-C ,  2-C ) :   1.5776
B(  1-C ,  4-C ) :   0.1021 B(  1-C , 32-H ) :   0.9643 B(  2-C ,  3-C ) :   1.2533
B(  2-C ,  6-C ) :   1.0373 B(  3-C ,  4-C ) :   1.5481 B(  3-C ,  5-H ) :   0.9883
B(  4-C , 20-C ) :   1.0507 B(  6-C ,  7-H ) :   0.9362 B(  6-C ,  8-H ) :   0.9309
B(  6-C ,  9-C ) :   1.0621 B(  9-C , 10-H ) :   0.9572 B(  9-C , 11-H ) :   0.9546
B(  9-C , 12-C ) :   1.0717 B( 12-C , 13-H ) :   0.9734 B( 12-C , 14-H ) :   0.9689
B( 12-C , 15-H ) :   0.9772 B( 16-S , 17-C ) :   1.1796 B( 16-S , 20-C ) :   1.1576
B( 17-C , 18-C ) :   1.5698 B( 17-C , 20-C ) :   0.1164 B( 17-C , 33-H ) :   0.9641
B( 18-C , 19-C ) :   1.2654 B( 18-C , 21-H ) :   0.9807 B( 19-C , 20-C ) :   1.5178
B( 19-C , 22-C ) :   1.0618 B( 22-C , 23-H ) :   0.9344 B( 22-C , 24-H ) :   0.9390
B( 22-C , 25-C ) :   1.0548 B( 25-C , 26-H ) :   0.9526 B( 25-C , 27-H ) :   0.9541
B( 25-C , 28-C ) :   1.0908 B( 28-C , 29-H ) :   0.9671 B( 28-C , 30-H ) :   0.9725
B( 28-C , 31-H ) :   0.9716

Dispersion correction           -0.014329496
FINAL SINGLE POINT ENERGY     -1339.856751496123

DIPOLE MOMENT
-------------
                                X             Y             Z
Electronic contribution:     -4.59819     -21.55552      20.14955
Nuclear contribution   :      4.50286      21.97375     -20.55729
                        -----------------------------------------
Total Dipole Moment    :     -0.09532       0.41822      -0.40773
                        -----------------------------------------
Magnitude (a.u.)       :      0.59181
Magnitude (Debye)      :      1.50427

Rotational constants in cm-1:     0.017042     0.009857     0.006969
Rotational constants in MHz :   510.896722   295.515048   208.920032

                             ****ORCA TERMINATED NORMALLY****
TOTAL RUN TIME: 0 days 0 hours 0 minutes 30 seconds 380 msec
