                         Program Version 4.2.1 -  RELEASE  -
|  1> ! wB97X-D3 SP def2-SVP
|  2> %pal
|  3> nprocs 16
|  4> end
|  5>
|  6> * xyz 0 1
|  7> S 	 -35.0109 	 6.19763 	 99.4195
|  8> C 	 -35.7723 	 4.65384 	 99.2629
|  9> C 	 -35.0496 	 3.64114 	 99.813
| 10> C 	 -33.855 	 4.16852 	 100.403
| 11> C 	 -33.6564 	 5.50179 	 100.212
| 12> H 	 -33.0969 	 3.54705 	 100.81
| 13> C 	 -35.4654 	 2.20083 	 99.7227
| 14> H 	 -34.9906 	 1.79145 	 98.8387
| 15> H 	 -36.5787 	 2.01656 	 99.6877
| 16> C 	 -35.0387 	 1.41695 	 100.914
| 17> H 	 -34.016 	 1.6142 	 101.184
| 18> H 	 -35.5899 	 1.78186 	 101.748
| 19> C 	 -35.3366 	 -0.119564 	 100.796
| 20> H 	 -36.4516 	 -0.382736 	 100.678
| 21> H 	 -34.7315 	 -0.375215 	 99.8572
| 22> H 	 -34.8599 	 -0.534986 	 101.682
| 23> S 	 -31.9517 	 7.64121 	 99.5397
| 24> C 	 -30.4342 	 7.71205 	 100.348
| 25> C 	 -30.552 	 7.10051 	 101.547
| 26> C 	 -31.6458 	 6.2136 	 101.703
| 27> C 	 -32.4927 	 6.28715 	 100.586
| 28> H 	 -29.7484 	 7.32224 	 102.201
| 29> C 	 -31.8553 	 5.31056 	 102.931
| 30> H 	 -30.9319 	 5.4392 	 103.497
| 31> H 	 -31.7412 	 4.2503 	 102.686
| 32> C 	 -33.1181 	 5.49045 	 103.712
| 33> H 	 -33.9157 	 5.60742 	 102.972
| 34> H 	 -32.9278 	 6.3397 	 104.269
| 35> C 	 -33.3799 	 4.43791 	 104.749
| 36> H 	 -32.6584 	 4.62195 	 105.559
| 37> H 	 -33.2512 	 3.41459 	 104.358
| 38> H 	 -34.3382 	 4.52262 	 105.141
| 39> H 	 -36.6767 	 4.55221 	 98.6011
| 40> H 	 -29.6049 	 8.39451 	 100.09
| 41> *
| 42>
| 43>                          ****END OF INPUT****

CARTESIAN COORDINATES (ANGSTROEM)
---------------------------------
  S    -35.010900    6.197630   99.419500
  C    -35.772300    4.653840   99.262900
  C    -35.049600    3.641140   99.813000
  C    -33.855000    4.168520  100.403000
  C    -33.656400    5.501790  100.212000
  H    -33.096900    3.547050  100.810000
  C    -35.465400    2.200830   99.722700
  H    -34.990600    1.791450   98.838700
  H    -36.578700    2.016560   99.687700
  C    -35.038700    1.416950  100.914000
  H    -34.016000    1.614200  101.184000
  H    -35.589900    1.781860  101.748000
  C    -35.336600   -0.119564  100.796000
  H    -36.451600   -0.382736  100.678000
  H    -34.731500   -0.375215   99.857200
  H    -34.859900   -0.534986  101.682000
  S    -31.951700    7.641210   99.539700
  C    -30.434200    7.712050  100.348000
  C    -30.552000    7.100510  101.547000
  C    -31.645800    6.213600  101.703000
  C    -32.492700    6.287150  100.586000
  H    -29.748400    7.322240  102.201000
  C    -31.855300    5.310560  102.931000
  H    -30.931900    5.439200  103.497000
  H    -31.741200    4.250300  102.686000
  C    -33.118100    5.490450  103.712000
  H    -33.915700    5.607420  102.972000
  H    -32.927800    6.339700  104.269000
  C    -33.379900    4.437910  104.749000
  H    -32.658400    4.621950  105.559000
  H    -33.251200    3.414590  104.358000
  H    -34.338200    4.522620  105.141000
  H    -36.676700    4.552210   98.601100
  H    -29.604900    8.394510  100.090000

 Total Charge           Charge          ....    0
 Multiplicity           Mult            ....    1
 Number of Electrons    NEL             ....  134
 Basis Dimension        Dim             ....  322

ORBITAL ENERGIES
----------------

  NO   OCC          E(Eh)            E(eV)
   0   2.0000     -88.962618     -2420.7959
   1   2.0000     -88.962225     -2420.7852
   2   2.0000     -10.330693      -281.1124
   3   2.0000     -10.326204      -280.9903
   4   2.0000     -10.314299      -280.6664
   5   2.0000     -10.310438      -280.5613
   6   2.0000     -10.307415      -280.4790
   7   2.0000     -10.298200      -280.2283
   8   2.0000     -10.293550      -280.1017
   9   2.0000     -10.292115      -280.0627
  10   2.0000     -10.289717      -279.9974
  11   2.0000     -10.289470      -279.9907
  12   2.0000     -10.287319      -279.9322
  13   2.0000     -10.279459      -279.7183
  14   2.0000     -10.272062      -279.5170
  15   2.0000     -10.271384      -279.4986
  16   2.0000      -8.078772      -219.8346
  17   2.0000      -8.077240      -219.7929
  18   2.0000      -6.037185      -164.2801
  19   2.0000      -6.035795      -164.2423
  20   2.0000      -6.033129      -164.1698
  21   2.0000      -6.031912      -164.1367
  22   2.0000      -6.029508      -164.0713
  23   2.0000      -6.027719      -164.0226
  24   2.0000      -1.013067       -27.5670
  25   2.0000      -0.991132       -26.9701
  26   2.0000      -0.920776       -25.0556
  27   2.0000      -0.917357       -24.9625
  28   2.0000      -0.872868       -23.7520
  29   2.0000      -0.855013       -23.2661
  30   2.0000      -0.844960       -22.9925
  31   2.0000      -0.817505       -22.2455
  32   2.0000      -0.785119       -21.3642
  33   2.0000      -0.773039       -21.0355
  34   2.0000      -0.713447       -19.4139
  35   2.0000      -0.696776       -18.9603
  36   2.0000      -0.684523       -18.6268
  37   2.0000      -0.660033       -17.9604
  38   2.0000      -0.638553       -17.3759
  39   2.0000      -0.629372       -17.1261
  40   2.0000      -0.598171       -16.2771
  41   2.0000      -0.578343       -15.7375
  42   2.0000      -0.573115       -15.5952
  43   2.0000      -0.569013       -15.4836
  44   2.0000      -0.528956       -14.3936
  45   2.0000      -0.521988       -14.2040
  46   2.0000      -0.519664       -14.1408
  47   2.0000      -0.508393       -13.8341
  48   2.0000      -0.506914       -13.7938
  49   2.0000      -0.500431       -13.6174
  50   2.0000      -0.493405       -13.4262
  51   2.0000      -0.485851       -13.2207
  52   2.0000      -0.476623       -12.9696
  53   2.0000      -0.466625       -12.6975
  54   2.0000      -0.458953       -12.4887
  55   2.0000      -0.450314       -12.2537
  56   2.0000      -0.446118       -12.1395
  57   2.0000      -0.434805       -11.8317
  58   2.0000      -0.431026       -11.7288
  59   2.0000      -0.425604       -11.5813
  60   2.0000      -0.423523       -11.5246
  61   2.0000      -0.412081       -11.2133
  62   2.0000      -0.409029       -11.1303
  63   2.0000      -0.355703        -9.6792
  64   2.0000      -0.333640        -9.0788
  65   2.0000      -0.327607        -8.9146
  66   2.0000      -0.285946        -7.7810
  67   0.0000       0.022607         0.6152
  68   0.0000       0.074418         2.0250
  69   0.0000       0.110450         3.0055
  70   0.0000       0.127611         3.4725
  71   0.0000       0.128964         3.5093

MULLIKEN ATOMIC CHARGES
-----------------------
   0 S :    0.106210
   1 C :   -0.158518
   2 C :   -0.056971
   3 C :   -0.006788
   4 C :   -0.120280
   5 H :   -0.007305
   6 C :    0.091726
   7 H :    0.033572
   8 H :    0.036617
   9 C :   -0.127343
  10 H :    0.022394
  11 H :    0.019911
  12 C :   -0.065428
  13 H :    0.057955
  14 H :    0.039355
  15 H :    0.043665
  16 S :    0.096048
  17 C :   -0.100970
  18 C :   -0.037275
  19 C :   -0.010765
  20 C :   -0.151857
  21 H :    0.002437
  22 C :    0.057219
  23 H :    0.001639
  24 H :    0.016324
  25 C :   -0.034494
  26 H :    0.050430
  27 H :    0.010574
  28 C :   -0.015936
  29 H :    0.026167
  30 H :    0.023463
  31 H :    0.023836
  32 H :    0.065571
  33 H :    0.068818
Sum of atomic charges:   -0.0000000

LOEWDIN ATOMIC CHARGES
----------------------
   0 S :    0.418659
   1 C :   -0.206736
   2 C :   -0.063799
   3 C :   -0.067646
   4 C :   -0.197971
   5 H :    0.022592
   6 C :   -0.032526
   7 H :    0.030702
   8 H :    0.040007
   9 C :   -0.047382
  10 H :    0.016636
  11 H :    0.018655
  12 C :   -0.070608
  13 H :    0.036100
  14 H :    0.032137
  15 H :    0.027635
  16 S :    0.389956
  17 C :   -0.191482
  18 C :   -0.075825
  19 C :   -0.050302
  20 C :   -0.178751
  21 H :    0.026171
  22 C :   -0.033591
  23 H :    0.027305
  24 H :    0.025850
  25 C :   -0.038402
  26 H :    0.029782
  27 H :    0.019516
  28 C :   -0.053529
  29 H :    0.028709
  30 H :    0.022514
  31 H :    0.019715
  32 H :    0.037131
  33 H :    0.038778

  Mayer bond orders larger than 0.100000
B(  0-S ,  1-C ) :   1.1391 B(  0-S ,  4-C ) :   1.1536 B(  1-C ,  2-C ) :   1.6249
B(  1-C , 32-H ) :   0.9632 B(  2-C ,  3-C ) :   1.2385 B(  2-C ,  6-C ) :   1.0178
B(  3-C ,  4-C ) :   1.5688 B(  3-C ,  5-H ) :   1.0021 B(  4-C , 20-C ) :   1.0728
B(  6-C ,  7-H ) :   0.9268 B(  6-C ,  8-H ) :   0.9473 B(  6-C ,  9-C ) :   1.0668
B(  9-C , 10-H ) :   0.9506 B(  9-C , 11-H ) :   0.9556 B(  9-C , 12-C ) :   1.0749
B( 12-C , 13-H ) :   0.9728 B( 12-C , 14-H ) :   0.9763 B( 12-C , 15-H ) :   0.9733
B( 16-S , 17-C ) :   1.1507 B( 16-S , 20-C ) :   1.1339 B( 17-C , 18-C ) :   1.6197
B( 17-C , 20-C ) :   0.1046 B( 17-C , 33-H ) :   0.9627 B( 18-C , 19-C ) :   1.2373
B( 18-C , 21-H ) :   0.9945 B( 19-C , 20-C ) :   1.5617 B( 19-C , 22-C ) :   1.0343
B( 22-C , 23-H ) :   0.9240 B( 22-C , 24-H ) :   0.9315 B( 22-C , 25-C ) :   1.0550
B( 25-C , 26-H ) :   0.9563 B( 25-C , 27-H ) :   0.9493 B( 25-C , 28-C ) :   1.0912
B( 28-C , 29-H ) :   0.9747 B( 28-C , 30-H ) :   0.9740 B( 28-C , 31-H ) :   0.9707

Dispersion correction           -0.014316359
FINAL SINGLE POINT ENERGY     -1339.866035110088

DIPOLE MOMENT
-------------
                                X             Y             Z
Electronic contribution:      4.03739      25.80302     -17.85602
Nuclear contribution   :     -3.87638     -26.25014      18.26540
                        -----------------------------------------
Total Dipole Moment    :      0.16101      -0.44712       0.40938
                        -----------------------------------------
Magnitude (a.u.)       :      0.62724
Magnitude (Debye)      :      1.59433

Rotational constants in cm-1:     0.018494     0.009127     0.007000
Rotational constants in MHz :   554.441195   273.619262   209.840067

                             ****ORCA TERMINATED NORMALLY****
TOTAL RUN TIME: 0 days 0 hours 0 minutes 30 seconds 662 msec
