                         Program Version 4.2.1 -  RELEASE  -
|  1> ! wB97X-D3 SP def2-SVP
|  2> %pal
|  3> nprocs 16
|  4> end
|  5>
|  6> * xyz 0 1
|  7> S 	 -63.4623 	 49.895 	 127.63
|  8> C 	 -63.5948 	 48.4592 	 126.77
|  9> C 	 -62.7948 	 48.5414 	 125.628
| 10> C 	 -62.01 	 49.7286 	 125.524
| 11> C 	 -62.3023 	 50.6475 	 126.52
| 12> H 	 -61.4642 	 50.0084 	 124.638
| 13> C 	 -62.8898 	 47.5477 	 124.469
| 14> H 	 -63.2793 	 48.0084 	 123.523
| 15> H 	 -63.6997 	 46.8546 	 124.708
| 16> C 	 -61.5378 	 46.7747 	 124.321
| 17> H 	 -60.7199 	 47.3147 	 124.851
| 18> H 	 -61.7072 	 45.818 	 124.809
| 19> C 	 -61.0261 	 46.4258 	 122.931
| 20> H 	 -60.5164 	 47.2083 	 122.43
| 21> H 	 -60.3366 	 45.5307 	 123.055
| 22> H 	 -61.9056 	 46.0993 	 122.302
| 23> S 	 -62.9462 	 53.2014 	 127.325
| 24> C 	 -61.7624 	 54.4569 	 127.186
| 25> C 	 -60.6095 	 53.9976 	 126.618
| 26> C 	 -60.5311 	 52.6107 	 126.384
| 27> C 	 -61.7497 	 51.9795 	 126.778
| 28> H 	 -59.8474 	 54.7602 	 126.524
| 29> C 	 -59.28 	 51.8307 	 125.819
| 30> H 	 -58.5354 	 52.5116 	 125.278
| 31> H 	 -59.7204 	 51.1848 	 125.102
| 32> C 	 -58.4623 	 51.0011 	 126.765
| 33> H 	 -59.035 	 50.0993 	 127.13
| 34> H 	 -57.9657 	 51.6016 	 127.512
| 35> C 	 -57.2772 	 50.277 	 126.07
| 36> H 	 -56.6185 	 50.9905 	 125.548
| 37> H 	 -57.5384 	 49.4268 	 125.469
| 38> H 	 -56.6576 	 49.8516 	 126.857
| 39> H 	 -64.4295 	 47.729 	 126.819
| 40> H 	 -61.9868 	 55.4948 	 127.387
| 41> *
| 42>
| 43>                          ****END OF INPUT****

CARTESIAN COORDINATES (ANGSTROEM)
---------------------------------
  S    -63.462300   49.895000  127.630000
  C    -63.594800   48.459200  126.770000
  C    -62.794800   48.541400  125.628000
  C    -62.010000   49.728600  125.524000
  C    -62.302300   50.647500  126.520000
  H    -61.464200   50.008400  124.638000
  C    -62.889800   47.547700  124.469000
  H    -63.279300   48.008400  123.523000
  H    -63.699700   46.854600  124.708000
  C    -61.537800   46.774700  124.321000
  H    -60.719900   47.314700  124.851000
  H    -61.707200   45.818000  124.809000
  C    -61.026100   46.425800  122.931000
  H    -60.516400   47.208300  122.430000
  H    -60.336600   45.530700  123.055000
  H    -61.905600   46.099300  122.302000
  S    -62.946200   53.201400  127.325000
  C    -61.762400   54.456900  127.186000
  C    -60.609500   53.997600  126.618000
  C    -60.531100   52.610700  126.384000
  C    -61.749700   51.979500  126.778000
  H    -59.847400   54.760200  126.524000
  C    -59.280000   51.830700  125.819000
  H    -58.535400   52.511600  125.278000
  H    -59.720400   51.184800  125.102000
  C    -58.462300   51.001100  126.765000
  H    -59.035000   50.099300  127.130000
  H    -57.965700   51.601600  127.512000
  C    -57.277200   50.277000  126.070000
  H    -56.618500   50.990500  125.548000
  H    -57.538400   49.426800  125.469000
  H    -56.657600   49.851600  126.857000
  H    -64.429500   47.729000  126.819000
  H    -61.986800   55.494800  127.387000

 Total Charge           Charge          ....    0
 Multiplicity           Mult            ....    1
 Number of Electrons    NEL             ....  134
 Basis Dimension        Dim             ....  322

ORBITAL ENERGIES
----------------

  NO   OCC          E(Eh)            E(eV)
   0   2.0000     -88.967049     -2420.9165
   1   2.0000     -88.963908     -2420.8310
   2   2.0000     -10.335966      -281.2559
   3   2.0000     -10.334994      -281.2295
   4   2.0000     -10.315969      -280.7118
   5   2.0000     -10.315675      -280.7038
   6   2.0000     -10.311863      -280.6001
   7   2.0000     -10.301098      -280.3071
   8   2.0000     -10.300168      -280.2818
   9   2.0000     -10.295818      -280.1635
  10   2.0000     -10.294349      -280.1235
  11   2.0000     -10.292905      -280.0842
  12   2.0000     -10.287609      -279.9401
  13   2.0000     -10.286978      -279.9229
  14   2.0000     -10.282610      -279.8040
  15   2.0000     -10.276810      -279.6462
  16   2.0000      -8.081554      -219.9103
  17   2.0000      -8.079551      -219.8558
  18   2.0000      -6.039977      -164.3561
  19   2.0000      -6.038047      -164.3036
  20   2.0000      -6.036042      -164.2491
  21   2.0000      -6.033745      -164.1865
  22   2.0000      -6.032465      -164.1517
  23   2.0000      -6.030429      -164.0963
  24   2.0000      -1.007404       -27.4129
  25   2.0000      -0.986547       -26.8453
  26   2.0000      -0.909344       -24.7445
  27   2.0000      -0.905260       -24.6334
  28   2.0000      -0.871332       -23.7101
  29   2.0000      -0.853683       -23.2299
  30   2.0000      -0.846311       -23.0293
  31   2.0000      -0.816836       -22.2272
  32   2.0000      -0.784501       -21.3474
  33   2.0000      -0.767217       -20.8770
  34   2.0000      -0.706704       -19.2304
  35   2.0000      -0.689367       -18.7586
  36   2.0000      -0.687882       -18.7182
  37   2.0000      -0.659103       -17.9351
  38   2.0000      -0.638672       -17.3791
  39   2.0000      -0.626447       -17.0465
  40   2.0000      -0.595414       -16.2020
  41   2.0000      -0.577572       -15.7165
  42   2.0000      -0.564944       -15.3729
  43   2.0000      -0.552841       -15.0436
  44   2.0000      -0.525373       -14.2961
  45   2.0000      -0.520901       -14.1744
  46   2.0000      -0.519885       -14.1468
  47   2.0000      -0.514254       -13.9936
  48   2.0000      -0.504798       -13.7363
  49   2.0000      -0.497479       -13.5371
  50   2.0000      -0.496341       -13.5061
  51   2.0000      -0.488328       -13.2881
  52   2.0000      -0.472312       -12.8523
  53   2.0000      -0.463250       -12.6057
  54   2.0000      -0.460595       -12.5334
  55   2.0000      -0.444308       -12.0902
  56   2.0000      -0.441302       -12.0084
  57   2.0000      -0.432497       -11.7689
  58   2.0000      -0.428228       -11.6527
  59   2.0000      -0.426425       -11.6036
  60   2.0000      -0.418993       -11.4014
  61   2.0000      -0.411163       -11.1883
  62   2.0000      -0.409636       -11.1468
  63   2.0000      -0.358324        -9.7505
  64   2.0000      -0.336840        -9.1659
  65   2.0000      -0.326812        -8.8930
  66   2.0000      -0.284940        -7.7536
  67   0.0000       0.017824         0.4850
  68   0.0000       0.078478         2.1355
  69   0.0000       0.106654         2.9022
  70   0.0000       0.115982         3.1560
  71   0.0000       0.126141         3.4325

MULLIKEN ATOMIC CHARGES
-----------------------
   0 S :    0.106126
   1 C :   -0.101387
   2 C :   -0.150888
   3 C :    0.014566
   4 C :   -0.131398
   5 H :    0.027872
   6 C :    0.055721
   7 H :    0.045278
   8 H :    0.009443
   9 C :   -0.095165
  10 H :    0.044722
  11 H :    0.032525
  12 C :   -0.066831
  13 H :    0.033692
  14 H :    0.042599
  15 H :    0.034576
  16 S :    0.095457
  17 C :   -0.087278
  18 C :   -0.050119
  19 C :   -0.010580
  20 C :   -0.138400
  21 H :    0.015310
  22 C :    0.086243
  23 H :    0.029213
  24 H :   -0.000388
  25 C :   -0.070593
  26 H :    0.049886
  27 H :    0.033509
  28 C :   -0.068700
  29 H :    0.026994
  30 H :    0.032233
  31 H :    0.029058
  32 H :    0.068772
  33 H :    0.057932
Sum of atomic charges:    0.0000000

LOEWDIN ATOMIC CHARGES
----------------------
   0 S :    0.425137
   1 C :   -0.235820
   2 C :   -0.063973
   3 C :   -0.073782
   4 C :   -0.183713
   5 H :    0.030957
   6 C :   -0.037125
   7 H :    0.033844
   8 H :    0.026389
   9 C :   -0.048759
  10 H :    0.027584
  11 H :    0.027678
  12 C :   -0.070237
  13 H :    0.015771
  14 H :    0.035611
  15 H :    0.028852
  16 S :    0.400555
  17 C :   -0.185563
  18 C :   -0.078004
  19 C :   -0.045796
  20 C :   -0.185613
  21 H :    0.032736
  22 C :   -0.031210
  23 H :    0.037514
  24 H :    0.022173
  25 C :   -0.041313
  26 H :    0.037685
  27 H :    0.024972
  28 C :   -0.066575
  29 H :    0.021140
  30 H :    0.019642
  31 H :    0.028074
  32 H :    0.041041
  33 H :    0.030131

  Mayer bond orders larger than 0.100000
B(  0-S ,  1-C ) :   1.1556 B(  0-S ,  4-C ) :   1.1635 B(  1-C ,  2-C ) :   1.5955
B(  1-C , 32-H ) :   0.9554 B(  2-C ,  3-C ) :   1.2692 B(  2-C ,  6-C ) :   1.0315
B(  3-C ,  4-C ) :   1.5553 B(  3-C ,  5-H ) :   0.9839 B(  4-C , 20-C ) :   1.0465
B(  6-C ,  7-H ) :   0.9548 B(  6-C ,  8-H ) :   0.9423 B(  6-C ,  9-C ) :   1.0224
B(  9-C , 10-H ) :   0.9697 B(  9-C , 11-H ) :   0.9590 B(  9-C , 12-C ) :   1.0771
B( 12-C , 13-H ) :   0.9801 B( 12-C , 14-H ) :   0.9747 B( 12-C , 15-H ) :   0.9733
B( 16-S , 17-C ) :   1.1595 B( 16-S , 20-C ) :   1.1515 B( 17-C , 18-C ) :   1.6013
B( 17-C , 20-C ) :   0.1061 B( 17-C , 33-H ) :   0.9671 B( 18-C , 19-C ) :   1.2618
B( 18-C , 21-H ) :   0.9942 B( 19-C , 20-C ) :   1.5512 B( 19-C , 22-C ) :   1.0157
B( 22-C , 23-H ) :   0.9394 B( 22-C , 24-H ) :   0.9278 B( 22-C , 25-C ) :   1.0907
B( 25-C , 26-H ) :   0.9491 B( 25-C , 27-H ) :   0.9566 B( 25-C , 28-C ) :   1.0813
B( 28-C , 29-H ) :   0.9726 B( 28-C , 30-H ) :   0.9774 B( 28-C , 31-H ) :   0.9746

Dispersion correction           -0.013748458
FINAL SINGLE POINT ENERGY     -1339.870407229325

DIPOLE MOMENT
-------------
                                X             Y             Z
Electronic contribution:    -21.22567      18.40610      16.39285
Nuclear contribution   :     21.57839     -18.49017     -16.89935
                        -----------------------------------------
Total Dipole Moment    :      0.35272      -0.08406      -0.50650
                        -----------------------------------------
Magnitude (a.u.)       :      0.62291
Magnitude (Debye)      :      1.58331

Rotational constants in cm-1:     0.016844     0.009356     0.006692
Rotational constants in MHz :   504.962788   280.480838   200.612541

                             ****ORCA TERMINATED NORMALLY****
TOTAL RUN TIME: 0 days 0 hours 0 minutes 33 seconds 814 msec
