                         Program Version 4.2.1 -  RELEASE  -
|  1> ! wB97X-D3 SP def2-SVP
|  2> %pal
|  3> nprocs 16
|  4> end
|  5>
|  6> * xyz 0 1
|  7> S 	 39.0472 	 16.0255 	 81.1652
|  8> C 	 37.3087 	 16.2946 	 81.1549
|  9> C 	 36.7164 	 15.5457 	 80.1567
| 10> C 	 37.6552 	 14.7734 	 79.432
| 11> C 	 38.9666 	 14.893 	 79.8295
| 12> H 	 37.4002 	 14.118 	 78.6774
| 13> C 	 35.1873 	 15.4397 	 79.8956
| 14> H 	 34.7706 	 14.5154 	 80.192
| 15> H 	 35.1317 	 15.4154 	 78.82
| 16> C 	 34.3426 	 16.6621 	 80.3254
| 17> H 	 34.3798 	 16.8872 	 81.3736
| 18> H 	 34.7943 	 17.4893 	 79.7418
| 19> C 	 32.9146 	 16.4858 	 79.823
| 20> H 	 32.2084 	 17.3063 	 80.1352
| 21> H 	 32.8051 	 16.1052 	 78.7275
| 22> H 	 32.5054 	 15.7553 	 80.5556
| 23> S 	 41.3228 	 13.4831 	 80.5342
| 24> C 	 42.1943 	 12.6709 	 79.3354
| 25> C 	 41.6949 	 12.8954 	 78.1038
| 26> C 	 40.5238 	 13.7194 	 78.0603
| 27> C 	 40.1306 	 14.1667 	 79.3485
| 28> H 	 42.2787 	 12.5462 	 77.2512
| 29> C 	 39.906 	 14.0083 	 76.7111
| 30> H 	 38.9257 	 14.2867 	 76.6887
| 31> H 	 39.8507 	 13.0487 	 76.1209
| 32> C 	 40.712 	 14.9812 	 75.829
| 33> H 	 40.2775 	 14.9878 	 74.8243
| 34> H 	 41.7003 	 14.6052 	 75.6458
| 35> C 	 40.696 	 16.4167 	 76.3427
| 36> H 	 41.3259 	 16.4998 	 77.2372
| 37> H 	 39.6136 	 16.6271 	 76.7164
| 38> H 	 40.9709 	 17.0726 	 75.3927
| 39> H 	 36.7199 	 16.885 	 81.8346
| 40> H 	 43.0324 	 12.0825 	 79.5034
| 41> *
| 42>
| 43>                          ****END OF INPUT****

CARTESIAN COORDINATES (ANGSTROEM)
---------------------------------
  S     39.047200   16.025500   81.165200
  C     37.308700   16.294600   81.154900
  C     36.716400   15.545700   80.156700
  C     37.655200   14.773400   79.432000
  C     38.966600   14.893000   79.829500
  H     37.400200   14.118000   78.677400
  C     35.187300   15.439700   79.895600
  H     34.770600   14.515400   80.192000
  H     35.131700   15.415400   78.820000
  C     34.342600   16.662100   80.325400
  H     34.379800   16.887200   81.373600
  H     34.794300   17.489300   79.741800
  C     32.914600   16.485800   79.823000
  H     32.208400   17.306300   80.135200
  H     32.805100   16.105200   78.727500
  H     32.505400   15.755300   80.555600
  S     41.322800   13.483100   80.534200
  C     42.194300   12.670900   79.335400
  C     41.694900   12.895400   78.103800
  C     40.523800   13.719400   78.060300
  C     40.130600   14.166700   79.348500
  H     42.278700   12.546200   77.251200
  C     39.906000   14.008300   76.711100
  H     38.925700   14.286700   76.688700
  H     39.850700   13.048700   76.120900
  C     40.712000   14.981200   75.829000
  H     40.277500   14.987800   74.824300
  H     41.700300   14.605200   75.645800
  C     40.696000   16.416700   76.342700
  H     41.325900   16.499800   77.237200
  H     39.613600   16.627100   76.716400
  H     40.970900   17.072600   75.392700
  H     36.719900   16.885000   81.834600
  H     43.032400   12.082500   79.503400

 Total Charge           Charge          ....    0
 Multiplicity           Mult            ....    1
 Number of Electrons    NEL             ....  134
 Basis Dimension        Dim             ....  322

ORBITAL ENERGIES
----------------

  NO   OCC          E(Eh)            E(eV)
   0   2.0000     -88.966232     -2420.8942
   1   2.0000     -88.964456     -2420.8459
   2   2.0000     -10.337290      -281.2920
   3   2.0000     -10.331887      -281.1449
   4   2.0000     -10.313459      -280.6435
   5   2.0000     -10.311323      -280.5854
   6   2.0000     -10.308731      -280.5148
   7   2.0000     -10.300869      -280.3009
   8   2.0000     -10.292880      -280.0835
   9   2.0000     -10.292120      -280.0628
  10   2.0000     -10.290775      -280.0262
  11   2.0000     -10.289613      -279.9946
  12   2.0000     -10.288741      -279.9709
  13   2.0000     -10.288550      -279.9657
  14   2.0000     -10.286741      -279.9164
  15   2.0000     -10.282106      -279.7903
  16   2.0000      -8.080610      -219.8846
  17   2.0000      -8.079572      -219.8563
  18   2.0000      -6.039216      -164.3354
  19   2.0000      -6.038041      -164.3034
  20   2.0000      -6.035102      -164.2235
  21   2.0000      -6.033980      -164.1929
  22   2.0000      -6.031351      -164.1214
  23   2.0000      -6.030373      -164.0948
  24   2.0000      -1.006161       -27.3790
  25   2.0000      -0.986973       -26.8569
  26   2.0000      -0.913122       -24.8473
  27   2.0000      -0.911573       -24.8052
  28   2.0000      -0.871637       -23.7185
  29   2.0000      -0.851291       -23.1648
  30   2.0000      -0.843656       -22.9570
  31   2.0000      -0.814571       -22.1656
  32   2.0000      -0.782084       -21.2816
  33   2.0000      -0.772274       -21.0146
  34   2.0000      -0.713107       -19.4046
  35   2.0000      -0.698740       -19.0137
  36   2.0000      -0.691590       -18.8191
  37   2.0000      -0.656238       -17.8571
  38   2.0000      -0.640268       -17.4226
  39   2.0000      -0.623318       -16.9613
  40   2.0000      -0.608319       -16.5532
  41   2.0000      -0.578663       -15.7462
  42   2.0000      -0.570156       -15.5147
  43   2.0000      -0.548989       -14.9388
  44   2.0000      -0.536970       -14.6117
  45   2.0000      -0.518336       -14.1046
  46   2.0000      -0.516349       -14.0506
  47   2.0000      -0.510721       -13.8974
  48   2.0000      -0.505808       -13.7637
  49   2.0000      -0.501690       -13.6517
  50   2.0000      -0.490133       -13.3372
  51   2.0000      -0.480491       -13.0748
  52   2.0000      -0.475498       -12.9390
  53   2.0000      -0.464849       -12.6492
  54   2.0000      -0.463646       -12.6165
  55   2.0000      -0.447807       -12.1854
  56   2.0000      -0.442009       -12.0277
  57   2.0000      -0.436439       -11.8761
  58   2.0000      -0.424490       -11.5510
  59   2.0000      -0.422207       -11.4888
  60   2.0000      -0.420325       -11.4376
  61   2.0000      -0.412235       -11.2175
  62   2.0000      -0.409896       -11.1538
  63   2.0000      -0.356588        -9.7033
  64   2.0000      -0.331846        -9.0300
  65   2.0000      -0.329597        -8.9688
  66   2.0000      -0.288828        -7.8594
  67   0.0000       0.024865         0.6766
  68   0.0000       0.076509         2.0819
  69   0.0000       0.116203         3.1620
  70   0.0000       0.119242         3.2447
  71   0.0000       0.133296         3.6272

MULLIKEN ATOMIC CHARGES
-----------------------
   0 S :    0.106823
   1 C :   -0.116210
   2 C :   -0.081945
   3 C :    0.040801
   4 C :   -0.132431
   5 H :   -0.023428
   6 C :    0.075887
   7 H :    0.028853
   8 H :    0.014331
   9 C :   -0.088490
  10 H :    0.036547
  11 H :    0.036840
  12 C :   -0.084822
  13 H :    0.040203
  14 H :    0.062359
  15 H :    0.023335
  16 S :    0.100286
  17 C :   -0.050595
  18 C :   -0.050062
  19 C :   -0.017276
  20 C :   -0.145585
  21 H :    0.023483
  22 C :    0.076962
  23 H :   -0.012234
  24 H :    0.029528
  25 C :   -0.065276
  26 H :    0.020558
  27 H :    0.017635
  28 C :   -0.097868
  29 H :    0.055930
  30 H :    0.042913
  31 H :    0.059094
  32 H :    0.040215
  33 H :    0.033639
Sum of atomic charges:   -0.0000000

LOEWDIN ATOMIC CHARGES
----------------------
   0 S :    0.401186
   1 C :   -0.195503
   2 C :   -0.060338
   3 C :   -0.058397
   4 C :   -0.188226
   5 H :    0.017028
   6 C :   -0.023552
   7 H :    0.023314
   8 H :    0.029611
   9 C :   -0.043864
  10 H :    0.019993
  11 H :    0.028175
  12 C :   -0.085405
  13 H :    0.033258
  14 H :    0.040593
  15 H :    0.027964
  16 S :    0.403458
  17 C :   -0.185543
  18 C :   -0.077605
  19 C :   -0.047389
  20 C :   -0.184101
  21 H :    0.033965
  22 C :   -0.030787
  23 H :    0.011016
  24 H :    0.041166
  25 C :   -0.043770
  26 H :    0.023494
  27 H :    0.015954
  28 C :   -0.078902
  29 H :    0.027966
  30 H :    0.034566
  31 H :    0.042886
  32 H :    0.026999
  33 H :    0.020790

  Mayer bond orders larger than 0.100000
B(  0-S ,  1-C ) :   1.1290 B(  0-S ,  4-C ) :   1.1446 B(  1-C ,  2-C ) :   1.6179
B(  1-C , 32-H ) :   0.9687 B(  2-C ,  3-C ) :   1.2597 B(  2-C ,  6-C ) :   0.9917
B(  3-C ,  4-C ) :   1.5618 B(  3-C ,  5-H ) :   1.0100 B(  4-C , 20-C ) :   1.0685
B(  6-C ,  7-H ) :   0.9447 B(  6-C ,  8-H ) :   0.9418 B(  6-C ,  9-C ) :   1.0621
B(  9-C , 10-H ) :   0.9522 B(  9-C , 11-H ) :   0.9592 B(  9-C , 12-C ) :   1.0856
B( 12-C , 13-H ) :   0.9688 B( 12-C , 14-H ) :   0.9705 B( 12-C , 15-H ) :   0.9699
B( 16-S , 17-C ) :   1.1625 B( 16-S , 20-C ) :   1.1266 B( 17-C , 18-C ) :   1.6171
B( 17-C , 33-H ) :   0.9715 B( 18-C , 19-C ) :   1.2373 B( 18-C , 21-H ) :   0.9882
B( 19-C , 20-C ) :   1.5682 B( 19-C , 22-C ) :   1.0469 B( 22-C , 23-H ) :   0.9360
B( 22-C , 24-H ) :   0.9303 B( 22-C , 25-C ) :   1.0855 B( 25-C , 26-H ) :   0.9531
B( 25-C , 27-H ) :   0.9536 B( 25-C , 28-C ) :   1.0601 B( 28-C , 29-H ) :   0.9749
B( 28-C , 30-H ) :   0.9730 B( 28-C , 31-H ) :   0.9723

Dispersion correction           -0.013974142
FINAL SINGLE POINT ENERGY     -1339.865300563730

DIPOLE MOMENT
-------------
                                X             Y             Z
Electronic contribution:     19.37593      -7.57022      17.15062
Nuclear contribution   :    -19.77229       7.34423     -17.67833
                        -----------------------------------------
Total Dipole Moment    :     -0.39637      -0.22599      -0.52771
                        -----------------------------------------
Magnitude (a.u.)       :      0.69760
Magnitude (Debye)      :      1.77316

Rotational constants in cm-1:     0.021781     0.007378     0.006261
Rotational constants in MHz :   652.966406   221.193281   187.703220

                             ****ORCA TERMINATED NORMALLY****
TOTAL RUN TIME: 0 days 0 hours 0 minutes 29 seconds 674 msec
