                         Program Version 4.2.1 -  RELEASE  -
|  1> ! wB97X-D3 SP def2-SVP
|  2> %pal
|  3> nprocs 16
|  4> end
|  5>
|  6> * xyz 0 1
|  7> S 	 -111.025 	 42.7896 	 131.069
|  8> C 	 -110.61 	 41.8594 	 132.462
|  9> C 	 -110.092 	 42.6892 	 133.393
| 10> C 	 -110.147 	 44.0802 	 133.106
| 11> C 	 -110.688 	 44.319 	 131.873
| 12> H 	 -109.781 	 44.9771 	 133.739
| 13> C 	 -109.424 	 42.2279 	 134.663
| 14> H 	 -108.362 	 42.5516 	 134.578
| 15> H 	 -109.529 	 41.1331 	 134.809
| 16> C 	 -110.02 	 42.8734 	 135.868
| 17> H 	 -109.456 	 42.5848 	 136.727
| 18> H 	 -110.064 	 43.9145 	 135.797
| 19> C 	 -111.47 	 42.3633 	 136.147
| 20> H 	 -111.769 	 42.7816 	 137.155
| 21> H 	 -112.133 	 42.718 	 135.329
| 22> H 	 -111.376 	 41.312 	 136.141
| 23> S 	 -109.581 	 46.3991 	 130.315
| 24> C 	 -110.489 	 47.8464 	 130.1
| 25> C 	 -111.737 	 47.6684 	 130.535
| 26> C 	 -111.977 	 46.4373 	 131.263
| 27> C 	 -110.876 	 45.6398 	 131.312
| 28> H 	 -112.442 	 48.3808 	 130.309
| 29> C 	 -113.343 	 46.2709 	 131.917
| 30> H 	 -113.45 	 47.2554 	 132.442
| 31> H 	 -113.21 	 45.4692 	 132.687
| 32> C 	 -114.476 	 46.0026 	 130.899
| 33> H 	 -114.044 	 45.2145 	 130.28
| 34> H 	 -114.391 	 46.7994 	 130.148
| 35> C 	 -115.962 	 45.6379 	 131.289
| 36> H 	 -116.4 	 45.0999 	 130.45
| 37> H 	 -116.603 	 46.462 	 131.501
| 38> H 	 -116.121 	 44.8363 	 132.051
| 39> H 	 -110.761 	 40.7473 	 132.678
| 40> H 	 -110.303 	 48.5489 	 129.354
| 41> *
| 42>
| 43>                          ****END OF INPUT****

CARTESIAN COORDINATES (ANGSTROEM)
---------------------------------
  S    -111.025000   42.789600  131.069000
  C    -110.610000   41.859400  132.462000
  C    -110.092000   42.689200  133.393000
  C    -110.147000   44.080200  133.106000
  C    -110.688000   44.319000  131.873000
  H    -109.781000   44.977100  133.739000
  C    -109.424000   42.227900  134.663000
  H    -108.362000   42.551600  134.578000
  H    -109.529000   41.133100  134.809000
  C    -110.020000   42.873400  135.868000
  H    -109.456000   42.584800  136.727000
  H    -110.064000   43.914500  135.797000
  C    -111.470000   42.363300  136.147000
  H    -111.769000   42.781600  137.155000
  H    -112.133000   42.718000  135.329000
  H    -111.376000   41.312000  136.141000
  S    -109.581000   46.399100  130.315000
  C    -110.489000   47.846400  130.100000
  C    -111.737000   47.668400  130.535000
  C    -111.977000   46.437300  131.263000
  C    -110.876000   45.639800  131.312000
  H    -112.442000   48.380800  130.309000
  C    -113.343000   46.270900  131.917000
  H    -113.450000   47.255400  132.442000
  H    -113.210000   45.469200  132.687000
  C    -114.476000   46.002600  130.899000
  H    -114.044000   45.214500  130.280000
  H    -114.391000   46.799400  130.148000
  C    -115.962000   45.637900  131.289000
  H    -116.400000   45.099900  130.450000
  H    -116.603000   46.462000  131.501000
  H    -116.121000   44.836300  132.051000
  H    -110.761000   40.747300  132.678000
  H    -110.303000   48.548900  129.354000

 Total Charge           Charge          ....    0
 Multiplicity           Mult            ....    1
 Number of Electrons    NEL             ....  134
 Basis Dimension        Dim             ....  322

ORBITAL ENERGIES
----------------

  NO   OCC          E(Eh)            E(eV)
   0   2.0000     -88.966240     -2420.8945
   1   2.0000     -88.958516     -2420.6843
   2   2.0000     -10.328259      -281.0462
   3   2.0000     -10.327310      -281.0204
   4   2.0000     -10.316216      -280.7185
   5   2.0000     -10.306569      -280.4560
   6   2.0000     -10.303425      -280.3704
   7   2.0000     -10.299518      -280.2641
   8   2.0000     -10.297569      -280.2111
   9   2.0000     -10.294561      -280.1292
  10   2.0000     -10.293396      -280.0976
  11   2.0000     -10.289796      -279.9996
  12   2.0000     -10.284567      -279.8573
  13   2.0000     -10.282416      -279.7988
  14   2.0000     -10.277796      -279.6731
  15   2.0000     -10.273107      -279.5455
  16   2.0000      -8.081076      -219.8973
  17   2.0000      -8.073583      -219.6934
  18   2.0000      -6.039691      -164.3484
  19   2.0000      -6.035557      -164.2359
  20   2.0000      -6.032246      -164.1458
  21   2.0000      -6.031700      -164.1309
  22   2.0000      -6.028128      -164.0337
  23   2.0000      -6.024055      -163.9229
  24   2.0000      -1.011336       -27.5198
  25   2.0000      -0.991821       -26.9888
  26   2.0000      -0.919171       -25.0119
  27   2.0000      -0.902449       -24.5569
  28   2.0000      -0.877626       -23.8814
  29   2.0000      -0.843726       -22.9590
  30   2.0000      -0.843680       -22.9577
  31   2.0000      -0.819725       -22.3058
  32   2.0000      -0.783754       -21.3270
  33   2.0000      -0.773291       -21.0423
  34   2.0000      -0.714869       -19.4526
  35   2.0000      -0.701034       -19.0761
  36   2.0000      -0.689107       -18.7516
  37   2.0000      -0.663716       -18.0606
  38   2.0000      -0.634909       -17.2767
  39   2.0000      -0.622957       -16.9515
  40   2.0000      -0.593628       -16.1534
  41   2.0000      -0.575683       -15.6651
  42   2.0000      -0.555910       -15.1271
  43   2.0000      -0.552096       -15.0233
  44   2.0000      -0.540035       -14.6951
  45   2.0000      -0.520766       -14.1708
  46   2.0000      -0.518515       -14.1095
  47   2.0000      -0.515339       -14.0231
  48   2.0000      -0.507572       -13.8117
  49   2.0000      -0.500781       -13.6269
  50   2.0000      -0.485999       -13.2247
  51   2.0000      -0.484751       -13.1907
  52   2.0000      -0.473659       -12.8889
  53   2.0000      -0.466663       -12.6985
  54   2.0000      -0.462023       -12.5723
  55   2.0000      -0.447079       -12.1656
  56   2.0000      -0.443032       -12.0555
  57   2.0000      -0.437989       -11.9183
  58   2.0000      -0.429068       -11.6755
  59   2.0000      -0.423864       -11.5339
  60   2.0000      -0.415477       -11.3057
  61   2.0000      -0.411756       -11.2044
  62   2.0000      -0.407145       -11.0790
  63   2.0000      -0.335649        -9.1335
  64   2.0000      -0.327856        -8.9214
  65   2.0000      -0.325077        -8.8458
  66   2.0000      -0.318509        -8.6671
  67   0.0000       0.046834         1.2744
  68   0.0000       0.051664         1.4059
  69   0.0000       0.116473         3.1694
  70   0.0000       0.120789         3.2868
  71   0.0000       0.129572         3.5258

MULLIKEN ATOMIC CHARGES
-----------------------
   0 S :    0.119982
   1 C :   -0.144029
   2 C :   -0.096317
   3 C :   -0.003630
   4 C :   -0.166636
   5 H :    0.060793
   6 C :    0.071401
   7 H :    0.048635
   8 H :    0.015805
   9 C :   -0.067785
  10 H :    0.021050
  11 H :    0.016015
  12 C :   -0.070278
  13 H :    0.045905
  14 H :    0.052056
  15 H :    0.017061
  16 S :    0.085955
  17 C :   -0.038487
  18 C :   -0.033938
  19 C :   -0.030708
  20 C :   -0.202942
  21 H :   -0.009301
  22 C :    0.078342
  23 H :    0.039137
  24 H :    0.033678
  25 C :   -0.080102
  26 H :    0.023845
  27 H :    0.016445
  28 C :   -0.023317
  29 H :    0.027176
  30 H :    0.038196
  31 H :    0.036027
  32 H :    0.076157
  33 H :    0.043811
Sum of atomic charges:   -0.0000000

LOEWDIN ATOMIC CHARGES
----------------------
   0 S :    0.409371
   1 C :   -0.218252
   2 C :   -0.076761
   3 C :   -0.066046
   4 C :   -0.196437
   5 H :    0.053946
   6 C :   -0.031540
   7 H :    0.040292
   8 H :    0.027633
   9 C :   -0.039120
  10 H :    0.019916
  11 H :    0.010829
  12 C :   -0.060593
  13 H :    0.032814
  14 H :    0.029234
  15 H :    0.013229
  16 S :    0.382380
  17 C :   -0.178209
  18 C :   -0.065453
  19 C :   -0.048432
  20 C :   -0.188320
  21 H :    0.016199
  22 C :   -0.033295
  23 H :    0.034700
  24 H :    0.032466
  25 C :   -0.049413
  26 H :    0.028949
  27 H :    0.025453
  28 C :   -0.070073
  29 H :    0.032582
  30 H :    0.021535
  31 H :    0.034034
  32 H :    0.052724
  33 H :    0.023657

  Mayer bond orders larger than 0.100000
B(  0-S ,  1-C ) :   1.1260 B(  0-S ,  4-C ) :   1.1447 B(  1-C ,  2-C ) :   1.6379
B(  1-C , 32-H ) :   0.9551 B(  2-C ,  3-C ) :   1.2169 B(  2-C ,  6-C ) :   1.0245
B(  3-C ,  4-C ) :   1.6016 B(  3-C ,  5-H ) :   0.9763 B(  4-C , 20-C ) :   1.0391
B(  6-C ,  7-H ) :   0.9340 B(  6-C ,  8-H ) :   0.9439 B(  6-C ,  9-C ) :   1.0817
B(  9-C , 10-H ) :   0.9544 B(  9-C , 11-H ) :   0.9543 B(  9-C , 12-C ) :   1.0665
B( 12-C , 13-H ) :   0.9756 B( 12-C , 14-H ) :   0.9758 B( 12-C , 15-H ) :   0.9783
B( 16-S , 17-C ) :   1.1427 B( 16-S , 20-C ) :   1.1167 B( 17-C , 18-C ) :   1.6624
B( 17-C , 33-H ) :   0.9615 B( 18-C , 19-C ) :   1.2023 B( 18-C , 21-H ) :   0.9960
B( 19-C , 20-C ) :   1.6467 B( 19-C , 22-C ) :   1.0249 B( 22-C , 23-H ) :   0.9412
B( 22-C , 24-H ) :   0.9330 B( 22-C , 25-C ) :   1.0528 B( 25-C , 26-H ) :   0.9524
B( 25-C , 27-H ) :   0.9556 B( 25-C , 28-C ) :   1.0669 B( 28-C , 29-H ) :   0.9720
B( 28-C , 30-H ) :   0.9793 B( 28-C , 31-H ) :   0.9747

Dispersion correction           -0.014352525
FINAL SINGLE POINT ENERGY     -1339.859648687558

DIPOLE MOMENT
-------------
                                X             Y             Z
Electronic contribution:     16.12006       3.00040     -17.45420
Nuclear contribution   :    -16.46172      -2.95150      17.76240
                        -----------------------------------------
Total Dipole Moment    :     -0.34166       0.04890       0.30820
                        -----------------------------------------
Magnitude (a.u.)       :      0.46272
Magnitude (Debye)      :      1.17613

Rotational constants in cm-1:     0.017418     0.008736     0.007228
Rotational constants in MHz :   522.183116   261.912000   216.677109

                             ****ORCA TERMINATED NORMALLY****
TOTAL RUN TIME: 0 days 0 hours 0 minutes 33 seconds 578 msec
