                         Program Version 4.2.1 -  RELEASE  -
|  1> ! wB97X-D3 SP def2-SVP
|  2> %pal
|  3> nprocs 16
|  4> end
|  5>
|  6> * xyz 0 1
|  7> S 	 -58.2781 	 46.4554 	 136.214
|  8> C 	 -57.1596 	 47.4627 	 137.012
|  9> C 	 -56.7003 	 48.4176 	 136.139
| 10> C 	 -57.2905 	 48.3265 	 134.828
| 11> C 	 -58.1003 	 47.2214 	 134.627
| 12> H 	 -57.0219 	 48.9101 	 133.917
| 13> C 	 -55.5659 	 49.3986 	 136.452
| 14> H 	 -55.3435 	 49.3166 	 137.445
| 15> H 	 -55.9734 	 50.4097 	 136.37
| 16> C 	 -54.1555 	 49.0815 	 135.709
| 17> H 	 -53.7753 	 48.0909 	 136.046
| 18> H 	 -54.2238 	 48.9931 	 134.682
| 19> C 	 -53.0529 	 49.9652 	 136.133
| 20> H 	 -52.0836 	 49.7659 	 135.615
| 21> H 	 -53.2832 	 50.9424 	 135.763
| 22> H 	 -52.9186 	 50.0387 	 137.24
| 23> S 	 -60.4955 	 46.2577 	 133.87
| 24> C 	 -60.8929 	 45.9357 	 132.239
| 25> C 	 -59.7707 	 46.2268 	 131.432
| 26> C 	 -58.5194 	 46.6054 	 132.116
| 27> C 	 -58.867 	 46.8305 	 133.458
| 28> H 	 -59.952 	 46.0511 	 130.389
| 29> C 	 -57.141 	 46.8865 	 131.44
| 30> H 	 -56.3603 	 47.0714 	 132.167
| 31> H 	 -57.343 	 47.8487 	 130.981
| 32> C 	 -56.6477 	 45.8162 	 130.484
| 33> H 	 -57.393 	 45.63 	 129.803
| 34> H 	 -56.6866 	 44.9524 	 131.138
| 35> C 	 -55.2542 	 46.0467 	 129.734
| 36> H 	 -54.9873 	 47.0459 	 129.519
| 37> H 	 -55.3122 	 45.4226 	 128.822
| 38> H 	 -54.4166 	 45.6736 	 130.323
| 39> H 	 -56.6777 	 47.3527 	 137.877
| 40> H 	 -61.8576 	 45.6967 	 131.74
| 41> *
| 42>
| 43>                          ****END OF INPUT****

CARTESIAN COORDINATES (ANGSTROEM)
---------------------------------
  S    -58.278100   46.455400  136.214000
  C    -57.159600   47.462700  137.012000
  C    -56.700300   48.417600  136.139000
  C    -57.290500   48.326500  134.828000
  C    -58.100300   47.221400  134.627000
  H    -57.021900   48.910100  133.917000
  C    -55.565900   49.398600  136.452000
  H    -55.343500   49.316600  137.445000
  H    -55.973400   50.409700  136.370000
  C    -54.155500   49.081500  135.709000
  H    -53.775300   48.090900  136.046000
  H    -54.223800   48.993100  134.682000
  C    -53.052900   49.965200  136.133000
  H    -52.083600   49.765900  135.615000
  H    -53.283200   50.942400  135.763000
  H    -52.918600   50.038700  137.240000
  S    -60.495500   46.257700  133.870000
  C    -60.892900   45.935700  132.239000
  C    -59.770700   46.226800  131.432000
  C    -58.519400   46.605400  132.116000
  C    -58.867000   46.830500  133.458000
  H    -59.952000   46.051100  130.389000
  C    -57.141000   46.886500  131.440000
  H    -56.360300   47.071400  132.167000
  H    -57.343000   47.848700  130.981000
  C    -56.647700   45.816200  130.484000
  H    -57.393000   45.630000  129.803000
  H    -56.686600   44.952400  131.138000
  C    -55.254200   46.046700  129.734000
  H    -54.987300   47.045900  129.519000
  H    -55.312200   45.422600  128.822000
  H    -54.416600   45.673600  130.323000
  H    -56.677700   47.352700  137.877000
  H    -61.857600   45.696700  131.740000

 Total Charge           Charge          ....    0
 Multiplicity           Mult            ....    1
 Number of Electrons    NEL             ....  134
 Basis Dimension        Dim             ....  322

ORBITAL ENERGIES
----------------

  NO   OCC          E(Eh)            E(eV)
   0   2.0000     -88.966882     -2420.9119
   1   2.0000     -88.962792     -2420.8006
   2   2.0000     -10.333170      -281.1799
   3   2.0000     -10.330425      -281.1052
   4   2.0000     -10.320369      -280.8315
   5   2.0000     -10.319556      -280.8094
   6   2.0000     -10.301369      -280.3145
   7   2.0000     -10.299580      -280.2658
   8   2.0000     -10.299490      -280.2634
   9   2.0000     -10.297784      -280.2170
  10   2.0000     -10.295156      -280.1454
  11   2.0000     -10.291642      -280.0498
  12   2.0000     -10.286255      -279.9032
  13   2.0000     -10.285573      -279.8847
  14   2.0000     -10.284766      -279.8627
  15   2.0000     -10.277982      -279.6781
  16   2.0000      -8.081719      -219.9147
  17   2.0000      -8.077825      -219.8088
  18   2.0000      -6.040311      -164.3652
  19   2.0000      -6.036421      -164.2594
  20   2.0000      -6.036107      -164.2508
  21   2.0000      -6.032464      -164.1517
  22   2.0000      -6.032157      -164.1433
  23   2.0000      -6.028573      -164.0458
  24   2.0000      -1.006938       -27.4002
  25   2.0000      -0.983561       -26.7640
  26   2.0000      -0.908999       -24.7351
  27   2.0000      -0.907360       -24.6905
  28   2.0000      -0.874790       -23.8043
  29   2.0000      -0.851516       -23.1709
  30   2.0000      -0.842698       -22.9310
  31   2.0000      -0.816469       -22.2173
  32   2.0000      -0.788213       -21.4484
  33   2.0000      -0.771825       -21.0024
  34   2.0000      -0.715696       -19.4751
  35   2.0000      -0.705012       -19.1844
  36   2.0000      -0.700575       -19.0636
  37   2.0000      -0.655379       -17.8338
  38   2.0000      -0.642074       -17.4717
  39   2.0000      -0.617554       -16.8045
  40   2.0000      -0.593360       -16.1461
  41   2.0000      -0.567854       -15.4521
  42   2.0000      -0.565606       -15.3909
  43   2.0000      -0.561910       -15.2903
  44   2.0000      -0.528969       -14.3940
  45   2.0000      -0.525881       -14.3099
  46   2.0000      -0.516777       -14.0622
  47   2.0000      -0.515298       -14.0220
  48   2.0000      -0.507290       -13.8041
  49   2.0000      -0.502072       -13.6621
  50   2.0000      -0.495393       -13.4803
  51   2.0000      -0.482746       -13.1362
  52   2.0000      -0.479245       -13.0409
  53   2.0000      -0.468486       -12.7482
  54   2.0000      -0.460016       -12.5177
  55   2.0000      -0.449717       -12.2374
  56   2.0000      -0.443548       -12.0696
  57   2.0000      -0.438591       -11.9347
  58   2.0000      -0.429977       -11.7003
  59   2.0000      -0.425553       -11.5799
  60   2.0000      -0.421629       -11.4731
  61   2.0000      -0.413898       -11.2627
  62   2.0000      -0.407121       -11.0783
  63   2.0000      -0.356410        -9.6984
  64   2.0000      -0.328635        -8.9426
  65   2.0000      -0.325532        -8.8582
  66   2.0000      -0.288875        -7.8607
  67   0.0000       0.028529         0.7763
  68   0.0000       0.071365         1.9419
  69   0.0000       0.114078         3.1042
  70   0.0000       0.117670         3.2020
  71   0.0000       0.135645         3.6911

MULLIKEN ATOMIC CHARGES
-----------------------
   0 S :    0.101333
   1 C :   -0.024606
   2 C :   -0.139039
   3 C :    0.015647
   4 C :   -0.147393
   5 H :    0.026710
   6 C :    0.108087
   7 H :   -0.021070
   8 H :    0.038636
   9 C :   -0.047468
  10 H :    0.024360
  11 H :    0.013969
  12 C :   -0.054763
  13 H :    0.038328
  14 H :    0.012019
  15 H :    0.040001
  16 S :    0.110118
  17 C :   -0.100219
  18 C :   -0.063867
  19 C :   -0.041646
  20 C :   -0.162074
  21 H :    0.014947
  22 C :    0.085664
  23 H :    0.023887
  24 H :    0.036922
  25 C :   -0.069643
  26 H :    0.008986
  27 H :    0.032173
  28 C :   -0.032325
  29 H :    0.028234
  30 H :    0.043104
  31 H :    0.035456
  32 H :   -0.009304
  33 H :    0.074835
Sum of atomic charges:    0.0000000

LOEWDIN ATOMIC CHARGES
----------------------
   0 S :    0.410089
   1 C :   -0.192843
   2 C :   -0.061516
   3 C :   -0.073118
   4 C :   -0.190821
   5 H :    0.035575
   6 C :   -0.021686
   7 H :    0.013468
   8 H :    0.034838
   9 C :   -0.032581
  10 H :    0.029476
  11 H :    0.010964
  12 C :   -0.071581
  13 H :    0.033111
  14 H :    0.017154
  15 H :    0.029471
  16 S :    0.416036
  17 C :   -0.213604
  18 C :   -0.075858
  19 C :   -0.045584
  20 C :   -0.187828
  21 H :    0.023108
  22 C :   -0.027054
  23 H :    0.028147
  24 H :    0.031116
  25 C :   -0.035773
  26 H :    0.009971
  27 H :    0.031443
  28 C :   -0.059818
  29 H :    0.019911
  30 H :    0.035278
  31 H :    0.028544
  32 H :    0.006844
  33 H :    0.045120

  Mayer bond orders larger than 0.100000
B(  0-S ,  1-C ) :   1.1371 B(  0-S ,  4-C ) :   1.1418 B(  1-C ,  2-C ) :   1.6159
B(  1-C , 32-H ) :   0.9744 B(  2-C ,  3-C ) :   1.2362 B(  2-C ,  6-C ) :   1.0361
B(  3-C ,  4-C ) :   1.5781 B(  3-C ,  5-H ) :   0.9868 B(  4-C , 20-C ) :   1.0597
B(  6-C ,  7-H ) :   0.9314 B(  6-C ,  8-H ) :   0.9419 B(  6-C ,  9-C ) :   1.0359
B(  9-C , 10-H ) :   0.9568 B(  9-C , 11-H ) :   0.9604 B(  9-C , 12-C ) :   1.0956
B( 12-C , 13-H ) :   0.9696 B( 12-C , 14-H ) :   0.9707 B( 12-C , 15-H ) :   0.9731
B( 16-S , 17-C ) :   1.1482 B( 16-S , 20-C ) :   1.1452 B( 17-C , 18-C ) :   1.6340
B( 17-C , 33-H ) :   0.9610 B( 18-C , 19-C ) :   1.2051 B( 18-C , 21-H ) :   0.9846
B( 19-C , 20-C ) :   1.5827 B( 19-C , 22-C ) :   1.0301 B( 22-C , 23-H ) :   0.9375
B( 22-C , 24-H ) :   0.9331 B( 22-C , 25-C ) :   1.0548 B( 25-C , 26-H ) :   0.9642
B( 25-C , 27-H ) :   0.9591 B( 25-C , 28-C ) :   1.0614 B( 28-C , 29-H ) :   0.9802
B( 28-C , 30-H ) :   0.9784 B( 28-C , 31-H ) :   0.9776

Dispersion correction           -0.013263717
FINAL SINGLE POINT ENERGY     -1339.841014945232

DIPOLE MOMENT
-------------
                                X             Y             Z
Electronic contribution:    -28.46367      -9.07167      11.23794
Nuclear contribution   :     29.07418       9.28879     -11.74977
                        -----------------------------------------
Total Dipole Moment    :      0.61051       0.21712      -0.51183
                        -----------------------------------------
Magnitude (a.u.)       :      0.82573
Magnitude (Debye)      :      2.09883

Rotational constants in cm-1:     0.015996     0.008769     0.006034
Rotational constants in MHz :   479.561361   262.887451   180.895641

                             ****ORCA TERMINATED NORMALLY****
TOTAL RUN TIME: 0 days 0 hours 0 minutes 31 seconds 142 msec
