                         Program Version 4.2.1 -  RELEASE  -
|  1> ! wB97X-D3 SP def2-SVP
|  2> %pal
|  3> nprocs 16
|  4> end
|  5>
|  6> * xyz 0 1
|  7> S 	 -58.4765 	 51.6311 	 127.274
|  8> C 	 -59.3413 	 50.072 	 127.381
|  9> C 	 -59.1652 	 49.3166 	 126.246
| 10> C 	 -58.3131 	 49.9952 	 125.333
| 11> C 	 -57.8334 	 51.183 	 125.733
| 12> H 	 -58.0901 	 49.6711 	 124.319
| 13> C 	 -59.7449 	 47.9516 	 125.971
| 14> H 	 -59.0669 	 47.1833 	 126.376
| 15> H 	 -59.8816 	 47.7061 	 124.943
| 16> C 	 -61.1382 	 47.7601 	 126.566
| 17> H 	 -61.1806 	 48.0033 	 127.642
| 18> H 	 -61.7804 	 48.4604 	 125.972
| 19> C 	 -61.6601 	 46.3013 	 126.506
| 20> H 	 -60.9223 	 45.5938 	 126.885
| 21> H 	 -62.5889 	 46.3469 	 127.093
| 22> H 	 -61.9586 	 45.9544 	 125.503
| 23> S 	 -57.851 	 53.4925 	 124.274
| 24> C 	 -56.4745 	 53.9706 	 123.258
| 25> C 	 -55.5268 	 52.9829 	 123.364
| 26> C 	 -55.8482 	 51.8893 	 124.221
| 27> C 	 -57.021 	 52.0884 	 124.898
| 28> H 	 -54.6845 	 53.0657 	 122.734
| 29> C 	 -54.9378 	 50.7257 	 124.565
| 30> H 	 -55.4194 	 49.952 	 125.15
| 31> H 	 -54.2418 	 51.1937 	 125.205
| 32> C 	 -54.1003 	 50.0824 	 123.409
| 33> H 	 -53.1286 	 49.718 	 123.777
| 34> H 	 -53.9883 	 50.8045 	 122.59
| 35> C 	 -54.7376 	 48.747 	 122.796
| 36> H 	 -55.8025 	 48.8354 	 122.642
| 37> H 	 -54.6513 	 47.8592 	 123.329
| 38> H 	 -54.3361 	 48.5159 	 121.773
| 39> H 	 -59.913 	 49.6145 	 128.206
| 40> H 	 -56.3743 	 54.7497 	 122.528
| 41> *
| 42>
| 43>                          ****END OF INPUT****

CARTESIAN COORDINATES (ANGSTROEM)
---------------------------------
  S    -58.476500   51.631100  127.274000
  C    -59.341300   50.072000  127.381000
  C    -59.165200   49.316600  126.246000
  C    -58.313100   49.995200  125.333000
  C    -57.833400   51.183000  125.733000
  H    -58.090100   49.671100  124.319000
  C    -59.744900   47.951600  125.971000
  H    -59.066900   47.183300  126.376000
  H    -59.881600   47.706100  124.943000
  C    -61.138200   47.760100  126.566000
  H    -61.180600   48.003300  127.642000
  H    -61.780400   48.460400  125.972000
  C    -61.660100   46.301300  126.506000
  H    -60.922300   45.593800  126.885000
  H    -62.588900   46.346900  127.093000
  H    -61.958600   45.954400  125.503000
  S    -57.851000   53.492500  124.274000
  C    -56.474500   53.970600  123.258000
  C    -55.526800   52.982900  123.364000
  C    -55.848200   51.889300  124.221000
  C    -57.021000   52.088400  124.898000
  H    -54.684500   53.065700  122.734000
  C    -54.937800   50.725700  124.565000
  H    -55.419400   49.952000  125.150000
  H    -54.241800   51.193700  125.205000
  C    -54.100300   50.082400  123.409000
  H    -53.128600   49.718000  123.777000
  H    -53.988300   50.804500  122.590000
  C    -54.737600   48.747000  122.796000
  H    -55.802500   48.835400  122.642000
  H    -54.651300   47.859200  123.329000
  H    -54.336100   48.515900  121.773000
  H    -59.913000   49.614500  128.206000
  H    -56.374300   54.749700  122.528000

 Total Charge           Charge          ....    0
 Multiplicity           Mult            ....    1
 Number of Electrons    NEL             ....  134
 Basis Dimension        Dim             ....  322

ORBITAL ENERGIES
----------------

  NO   OCC          E(Eh)            E(eV)
   0   2.0000     -88.968024     -2420.9430
   1   2.0000     -88.961900     -2420.7764
   2   2.0000     -10.324207      -280.9360
   3   2.0000     -10.323329      -280.9121
   4   2.0000     -10.318310      -280.7755
   5   2.0000     -10.316248      -280.7194
   6   2.0000     -10.303089      -280.3613
   7   2.0000     -10.298893      -280.2471
   8   2.0000     -10.297053      -280.1971
   9   2.0000     -10.292736      -280.0796
  10   2.0000     -10.291308      -280.0407
  11   2.0000     -10.290746      -280.0254
  12   2.0000     -10.288022      -279.9513
  13   2.0000     -10.286897      -279.9207
  14   2.0000     -10.283617      -279.8314
  15   2.0000     -10.275958      -279.6230
  16   2.0000      -8.082382      -219.9328
  17   2.0000      -8.076395      -219.7699
  18   2.0000      -6.041033      -164.3849
  19   2.0000      -6.036950      -164.2738
  20   2.0000      -6.035001      -164.2207
  21   2.0000      -6.032985      -164.1659
  22   2.0000      -6.030898      -164.1091
  23   2.0000      -6.027067      -164.0048
  24   2.0000      -1.010058       -27.4851
  25   2.0000      -0.986425       -26.8420
  26   2.0000      -0.915662       -24.9164
  27   2.0000      -0.900578       -24.5060
  28   2.0000      -0.870037       -23.6749
  29   2.0000      -0.849388       -23.1130
  30   2.0000      -0.841937       -22.9103
  31   2.0000      -0.818176       -22.2637
  32   2.0000      -0.784465       -21.3464
  33   2.0000      -0.776107       -21.1189
  34   2.0000      -0.709498       -19.3064
  35   2.0000      -0.704827       -19.1793
  36   2.0000      -0.692692       -18.8491
  37   2.0000      -0.656971       -17.8771
  38   2.0000      -0.638145       -17.3648
  39   2.0000      -0.616042       -16.7634
  40   2.0000      -0.597694       -16.2641
  41   2.0000      -0.582384       -15.8475
  42   2.0000      -0.566908       -15.4264
  43   2.0000      -0.550425       -14.9778
  44   2.0000      -0.534657       -14.5488
  45   2.0000      -0.526571       -14.3287
  46   2.0000      -0.522257       -14.2113
  47   2.0000      -0.513185       -13.9645
  48   2.0000      -0.502301       -13.6683
  49   2.0000      -0.498890       -13.5755
  50   2.0000      -0.486843       -13.2477
  51   2.0000      -0.478609       -13.0236
  52   2.0000      -0.473971       -12.8974
  53   2.0000      -0.468831       -12.7575
  54   2.0000      -0.457855       -12.4589
  55   2.0000      -0.447705       -12.1827
  56   2.0000      -0.443505       -12.0684
  57   2.0000      -0.431540       -11.7428
  58   2.0000      -0.429694       -11.6926
  59   2.0000      -0.427993       -11.6463
  60   2.0000      -0.425022       -11.5654
  61   2.0000      -0.420150       -11.4329
  62   2.0000      -0.412363       -11.2210
  63   2.0000      -0.343913        -9.3583
  64   2.0000      -0.332135        -9.0378
  65   2.0000      -0.325375        -8.8539
  66   2.0000      -0.302504        -8.2315
  67   0.0000       0.039590         1.0773
  68   0.0000       0.064760         1.7622
  69   0.0000       0.115450         3.1416
  70   0.0000       0.120418         3.2768
  71   0.0000       0.129729         3.5301

MULLIKEN ATOMIC CHARGES
-----------------------
   0 S :    0.118662
   1 C :   -0.128507
   2 C :   -0.082259
   3 C :    0.040136
   4 C :   -0.174736
   5 H :    0.006925
   6 C :    0.102427
   7 H :    0.036211
   8 H :    0.018606
   9 C :   -0.154105
  10 H :    0.034874
  11 H :    0.047055
  12 C :   -0.044110
  13 H :    0.036552
  14 H :    0.040184
  15 H :    0.030589
  16 S :    0.097173
  17 C :   -0.076033
  18 C :   -0.036681
  19 C :   -0.024050
  20 C :   -0.144115
  21 H :    0.003627
  22 C :    0.084673
  23 H :    0.030914
  24 H :    0.032634
  25 C :   -0.079417
  26 H :    0.038609
  27 H :    0.036307
  28 C :   -0.066309
  29 H :    0.021016
  30 H :    0.021542
  31 H :    0.032153
  32 H :    0.048538
  33 H :    0.050913
Sum of atomic charges:   -0.0000000

LOEWDIN ATOMIC CHARGES
----------------------
   0 S :    0.403190
   1 C :   -0.192483
   2 C :   -0.063961
   3 C :   -0.061619
   4 C :   -0.204778
   5 H :    0.031528
   6 C :   -0.033070
   7 H :    0.034342
   8 H :    0.027639
   9 C :   -0.043985
  10 H :    0.020987
  11 H :    0.032283
  12 C :   -0.067430
  13 H :    0.025189
  14 H :    0.031907
  15 H :    0.023442
  16 S :    0.396626
  17 C :   -0.173985
  18 C :   -0.070910
  19 C :   -0.056324
  20 C :   -0.197687
  21 H :    0.022398
  22 C :   -0.028066
  23 H :    0.031396
  24 H :    0.034764
  25 C :   -0.033015
  26 H :    0.028521
  27 H :    0.024657
  28 C :   -0.071866
  29 H :    0.019522
  30 H :    0.013434
  31 H :    0.031127
  32 H :    0.034176
  33 H :    0.032053

  Mayer bond orders larger than 0.100000
B(  0-S ,  1-C ) :   1.1218 B(  0-S ,  4-C ) :   1.1418 B(  1-C ,  2-C ) :   1.6433
B(  1-C , 32-H ) :   0.9603 B(  2-C ,  3-C ) :   1.2283 B(  2-C ,  6-C ) :   1.0145
B(  3-C ,  4-C ) :   1.6102 B(  3-C ,  5-H ) :   0.9976 B(  4-C , 20-C ) :   0.9881
B(  6-C ,  7-H ) :   0.9275 B(  6-C ,  8-H ) :   0.9479 B(  6-C ,  9-C ) :   1.0646
B(  9-C , 10-H ) :   0.9550 B(  9-C , 11-H ) :   0.9595 B(  9-C , 12-C ) :   1.0787
B( 12-C , 13-H ) :   0.9741 B( 12-C , 14-H ) :   0.9756 B( 12-C , 15-H ) :   0.9749
B( 16-S , 17-C ) :   1.1436 B( 16-S , 20-C ) :   1.1464 B( 17-C , 18-C ) :   1.6301
B( 17-C , 33-H ) :   0.9689 B( 18-C , 19-C ) :   1.2239 B( 18-C , 21-H ) :   0.9913
B( 19-C , 20-C ) :   1.6150 B( 19-C , 22-C ) :   1.0329 B( 22-C , 23-H ) :   0.9430
B( 22-C , 24-H ) :   0.9338 B( 22-C , 25-C ) :   1.0533 B( 25-C , 26-H ) :   0.9599
B( 25-C , 27-H ) :   0.9644 B( 25-C , 28-C ) :   1.0635 B( 28-C , 29-H ) :   0.9791
B( 28-C , 30-H ) :   0.9796 B( 28-C , 31-H ) :   0.9763

Dispersion correction           -0.013779240
FINAL SINGLE POINT ENERGY     -1339.874103079125

DIPOLE MOMENT
-------------
                                X             Y             Z
Electronic contribution:     -0.79682      27.58434       6.14799
Nuclear contribution   :      0.95931     -28.26150      -6.48064
                        -----------------------------------------
Total Dipole Moment    :      0.16249      -0.67716      -0.33265
                        -----------------------------------------
Magnitude (a.u.)       :      0.77176
Magnitude (Debye)      :      1.96165

Rotational constants in cm-1:     0.019272     0.007854     0.006269
Rotational constants in MHz :   577.749805   235.443631   187.938331

                             ****ORCA TERMINATED NORMALLY****
TOTAL RUN TIME: 0 days 0 hours 0 minutes 33 seconds 650 msec
