                         Program Version 4.2.1 -  RELEASE  -
|  1> ! wB97X-D3 SP def2-SVP
|  2> %pal
|  3> nprocs 16
|  4> end
|  5>
|  6> * xyz 0 1
|  7> S 	 -62.7931 	 37.0971 	 116.718
|  8> C 	 -63.2982 	 35.973 	 117.976
|  9> C 	 -64.4021 	 36.5028 	 118.672
| 10> C 	 -64.8355 	 37.7622 	 118.123
| 11> C 	 -64.1243 	 38.2413 	 117.047
| 12> H 	 -65.6695 	 38.28 	 118.524
| 13> C 	 -65.0792 	 35.6434 	 119.757
| 14> H 	 -65.4564 	 36.4173 	 120.487
| 15> H 	 -64.4454 	 35.0643 	 120.381
| 16> C 	 -66.2327 	 34.722 	 119.252
| 17> H 	 -66.6758 	 34.2658 	 120.158
| 18> H 	 -67.0246 	 35.2749 	 118.685
| 19> C 	 -65.8606 	 33.4933 	 118.291
| 20> H 	 -65.526 	 33.7566 	 117.293
| 21> H 	 -65.0031 	 32.9984 	 118.701
| 22> H 	 -66.7437 	 32.8775 	 118.275
| 23> S 	 -63.8043 	 41.005 	 116.801
| 24> C 	 -63.8794 	 41.6512 	 115.176
| 25> C 	 -64.4427 	 40.7412 	 114.268
| 26> C 	 -64.584 	 39.4542 	 114.874
| 27> C 	 -64.308 	 39.4287 	 116.207
| 28> H 	 -64.6241 	 40.9033 	 113.191
| 29> C 	 -65.3072 	 38.3928 	 114.024
| 30> H 	 -66.4245 	 38.5137 	 114.194
| 31> H 	 -65.0987 	 37.4785 	 114.557
| 32> C 	 -64.8893 	 38.2628 	 112.564
| 33> H 	 -64.8861 	 39.2315 	 112.103
| 34> H 	 -65.5703 	 37.6098 	 112.07
| 35> C 	 -63.4049 	 37.767 	 112.425
| 36> H 	 -63.3707 	 36.6883 	 112.539
| 37> H 	 -62.7407 	 38.0653 	 113.255
| 38> H 	 -62.9035 	 37.95 	 111.377
| 39> H 	 -62.9286 	 34.911 	 118.015
| 40> H 	 -63.4656 	 42.6098 	 114.933
| 41> *
| 42>
| 43>                          ****END OF INPUT****

CARTESIAN COORDINATES (ANGSTROEM)
---------------------------------
  S    -62.793100   37.097100  116.718000
  C    -63.298200   35.973000  117.976000
  C    -64.402100   36.502800  118.672000
  C    -64.835500   37.762200  118.123000
  C    -64.124300   38.241300  117.047000
  H    -65.669500   38.280000  118.524000
  C    -65.079200   35.643400  119.757000
  H    -65.456400   36.417300  120.487000
  H    -64.445400   35.064300  120.381000
  C    -66.232700   34.722000  119.252000
  H    -66.675800   34.265800  120.158000
  H    -67.024600   35.274900  118.685000
  C    -65.860600   33.493300  118.291000
  H    -65.526000   33.756600  117.293000
  H    -65.003100   32.998400  118.701000
  H    -66.743700   32.877500  118.275000
  S    -63.804300   41.005000  116.801000
  C    -63.879400   41.651200  115.176000
  C    -64.442700   40.741200  114.268000
  C    -64.584000   39.454200  114.874000
  C    -64.308000   39.428700  116.207000
  H    -64.624100   40.903300  113.191000
  C    -65.307200   38.392800  114.024000
  H    -66.424500   38.513700  114.194000
  H    -65.098700   37.478500  114.557000
  C    -64.889300   38.262800  112.564000
  H    -64.886100   39.231500  112.103000
  H    -65.570300   37.609800  112.070000
  C    -63.404900   37.767000  112.425000
  H    -63.370700   36.688300  112.539000
  H    -62.740700   38.065300  113.255000
  H    -62.903500   37.950000  111.377000
  H    -62.928600   34.911000  118.015000
  H    -63.465600   42.609800  114.933000

 Total Charge           Charge          ....    0
 Multiplicity           Mult            ....    1
 Number of Electrons    NEL             ....  134
 Basis Dimension        Dim             ....  322

ORBITAL ENERGIES
----------------

  NO   OCC          E(Eh)            E(eV)
   0   2.0000     -88.968043     -2420.9435
   1   2.0000     -88.963263     -2420.8135
   2   2.0000     -10.332845      -281.1710
   3   2.0000     -10.324715      -280.9498
   4   2.0000     -10.322689      -280.8947
   5   2.0000     -10.319942      -280.8199
   6   2.0000     -10.306610      -280.4571
   7   2.0000     -10.301726      -280.3242
   8   2.0000     -10.298609      -280.2394
   9   2.0000     -10.297379      -280.2059
  10   2.0000     -10.297314      -280.2042
  11   2.0000     -10.295629      -280.1583
  12   2.0000     -10.293849      -280.1099
  13   2.0000     -10.287780      -279.9447
  14   2.0000     -10.284222      -279.8479
  15   2.0000     -10.278391      -279.6893
  16   2.0000      -8.082789      -219.9439
  17   2.0000      -8.077038      -219.7874
  18   2.0000      -6.041270      -164.3913
  19   2.0000      -6.037336      -164.2843
  20   2.0000      -6.035545      -164.2355
  21   2.0000      -6.033535      -164.1808
  22   2.0000      -6.031561      -164.1271
  23   2.0000      -6.027958      -164.0291
  24   2.0000      -1.003525       -27.3073
  25   2.0000      -0.978986       -26.6396
  26   2.0000      -0.907313       -24.6892
  27   2.0000      -0.899483       -24.4762
  28   2.0000      -0.862878       -23.4801
  29   2.0000      -0.844786       -22.9878
  30   2.0000      -0.839947       -22.8561
  31   2.0000      -0.812654       -22.1135
  32   2.0000      -0.781540       -21.2668
  33   2.0000      -0.769800       -20.9473
  34   2.0000      -0.707449       -19.2507
  35   2.0000      -0.700230       -19.0542
  36   2.0000      -0.687832       -18.7169
  37   2.0000      -0.662790       -18.0354
  38   2.0000      -0.638752       -17.3813
  39   2.0000      -0.617277       -16.7970
  40   2.0000      -0.602170       -16.3859
  41   2.0000      -0.565972       -15.4009
  42   2.0000      -0.548173       -14.9165
  43   2.0000      -0.540924       -14.7193
  44   2.0000      -0.535886       -14.5822
  45   2.0000      -0.533029       -14.5044
  46   2.0000      -0.520753       -14.1704
  47   2.0000      -0.512841       -13.9551
  48   2.0000      -0.499103       -13.5813
  49   2.0000      -0.493342       -13.4245
  50   2.0000      -0.490324       -13.3424
  51   2.0000      -0.472612       -12.8604
  52   2.0000      -0.470845       -12.8123
  53   2.0000      -0.463915       -12.6238
  54   2.0000      -0.452790       -12.3210
  55   2.0000      -0.446117       -12.1395
  56   2.0000      -0.441911       -12.0250
  57   2.0000      -0.439449       -11.9580
  58   2.0000      -0.436591       -11.8802
  59   2.0000      -0.427284       -11.6270
  60   2.0000      -0.419847       -11.4246
  61   2.0000      -0.410389       -11.1672
  62   2.0000      -0.401647       -10.9294
  63   2.0000      -0.336920        -9.1681
  64   2.0000      -0.333987        -9.0883
  65   2.0000      -0.323570        -8.8048
  66   2.0000      -0.303478        -8.2580
  67   0.0000       0.034957         0.9512
  68   0.0000       0.053264         1.4494
  69   0.0000       0.105885         2.8813
  70   0.0000       0.113912         3.0997
  71   0.0000       0.130096         3.5401

MULLIKEN ATOMIC CHARGES
-----------------------
   0 S :    0.100804
   1 C :   -0.149911
   2 C :   -0.096308
   3 C :    0.057801
   4 C :   -0.158574
   5 H :   -0.003424
   6 C :    0.056814
   7 H :    0.032315
   8 H :    0.021006
   9 C :   -0.098912
  10 H :    0.037630
  11 H :    0.039651
  12 C :   -0.050513
  13 H :    0.039080
  14 H :    0.015762
  15 H :    0.042580
  16 S :    0.119293
  17 C :   -0.097449
  18 C :   -0.022019
  19 C :   -0.062215
  20 C :   -0.163110
  21 H :    0.035127
  22 C :    0.043950
  23 H :    0.059319
  24 H :    0.015592
  25 C :   -0.020763
  26 H :    0.024525
  27 H :    0.032068
  28 C :   -0.111431
  29 H :    0.024240
  30 H :    0.046881
  31 H :    0.052462
  32 H :    0.079978
  33 H :    0.057752
Sum of atomic charges:   -0.0000000

LOEWDIN ATOMIC CHARGES
----------------------
   0 S :    0.387189
   1 C :   -0.203305
   2 C :   -0.065852
   3 C :   -0.060328
   4 C :   -0.181276
   5 H :    0.026478
   6 C :   -0.036929
   7 H :    0.038610
   8 H :    0.025072
   9 C :   -0.039044
  10 H :    0.026493
  11 H :    0.026882
  12 C :   -0.064466
  13 H :    0.023566
  14 H :    0.016729
  15 H :    0.028082
  16 S :    0.409260
  17 C :   -0.171111
  18 C :   -0.072141
  19 C :   -0.053474
  20 C :   -0.214093
  21 H :    0.036531
  22 C :   -0.033406
  23 H :    0.045488
  24 H :    0.023606
  25 C :   -0.035645
  26 H :    0.017429
  27 H :    0.025585
  28 C :   -0.080475
  29 H :    0.022114
  30 H :    0.028812
  31 H :    0.037873
  32 H :    0.041202
  33 H :    0.024545

  Mayer bond orders larger than 0.100000
B(  0-S ,  1-C ) :   1.1483 B(  0-S ,  4-C ) :   1.1349 B(  1-C ,  2-C ) :   1.5918
B(  1-C , 32-H ) :   0.9605 B(  2-C ,  3-C ) :   1.2538 B(  2-C ,  6-C ) :   1.0212
B(  3-C ,  4-C ) :   1.5810 B(  3-C ,  5-H ) :   1.0020 B(  4-C , 20-C ) :   1.0206
B(  6-C ,  7-H ) :   0.9385 B(  6-C ,  8-H ) :   0.9481 B(  6-C ,  9-C ) :   1.0673
B(  9-C , 10-H ) :   0.9578 B(  9-C , 11-H ) :   0.9611 B(  9-C , 12-C ) :   1.0637
B( 12-C , 13-H ) :   0.9766 B( 12-C , 14-H ) :   0.9768 B( 12-C , 15-H ) :   0.9765
B( 16-S , 17-C ) :   1.1759 B( 16-S , 20-C ) :   1.1273 B( 17-C , 18-C ) :   1.5826
B( 17-C , 33-H ) :   0.9707 B( 18-C , 19-C ) :   1.2414 B( 18-C , 21-H ) :   0.9831
B( 19-C , 20-C ) :   1.6164 B( 19-C , 22-C ) :   1.0245 B( 22-C , 23-H ) :   0.9402
B( 22-C , 24-H ) :   0.9300 B( 22-C , 25-C ) :   1.0655 B( 25-C , 26-H ) :   0.9605
B( 25-C , 27-H ) :   0.9538 B( 25-C , 28-C ) :   1.0535 B( 28-C , 29-H ) :   0.9745
B( 28-C , 30-H ) :   0.9763 B( 28-C , 31-H ) :   0.9764

Dispersion correction           -0.015046255
FINAL SINGLE POINT ENERGY     -1339.871047934367

DIPOLE MOMENT
-------------
                                X             Y             Z
Electronic contribution:     10.08824      19.44112       6.28483
Nuclear contribution   :    -10.49395     -19.75984      -6.43271
                        -----------------------------------------
Total Dipole Moment    :     -0.40571      -0.31872      -0.14788
                        -----------------------------------------
Magnitude (a.u.)       :      0.53671
Magnitude (Debye)      :      1.36420

Rotational constants in cm-1:     0.020965     0.008164     0.006878
Rotational constants in MHz :   628.516575   244.757652   206.196991

                             ****ORCA TERMINATED NORMALLY****
TOTAL RUN TIME: 0 days 0 hours 0 minutes 28 seconds 747 msec
