                         Program Version 4.2.1 -  RELEASE  -
|  1> ! wB97X-D3 SP def2-SVP
|  2> %pal
|  3> nprocs 16
|  4> end
|  5>
|  6> * xyz 0 1
|  7> S 	 41.2894 	 13.2599 	 90.3915
|  8> C 	 41.9112 	 11.6037 	 90.1912
|  9> C 	 41.0773 	 10.8004 	 89.4052
| 10> C 	 39.9544 	 11.5204 	 88.9124
| 11> C 	 39.9855 	 12.8396 	 89.3094
| 12> H 	 39.1247 	 11.1141 	 88.3091
| 13> C 	 41.2812 	 9.30345 	 89.1859
| 14> H 	 41.76 	 8.92459 	 90.0821
| 15> H 	 41.9902 	 8.96981 	 88.3986
| 16> C 	 40.1087 	 8.36882 	 88.9102
| 17> H 	 39.6558 	 8.7365 	 88.0493
| 18> H 	 40.6558 	 7.41306 	 88.7222
| 19> C 	 39.1348 	 8.25801 	 90.0741
| 20> H 	 39.7556 	 7.84052 	 90.8709
| 21> H 	 38.7759 	 9.24281 	 90.369
| 22> H 	 38.349 	 7.50612 	 89.7585
| 23> S 	 39.1683 	 15.2773 	 88.2457
| 24> C 	 37.5336 	 15.7982 	 88.3668
| 25> C 	 36.8063 	 14.9252 	 89.1066
| 26> C 	 37.5745 	 13.7678 	 89.5173
| 27> C 	 38.9147 	 13.8413 	 89.1444
| 28> H 	 35.7805 	 15.1617 	 89.3426
| 29> C 	 36.8081 	 12.6981 	 90.2741
| 30> H 	 37.4021 	 11.7408 	 90.3321
| 31> H 	 35.9349 	 12.425 	 89.617
| 32> C 	 36.403 	 13.0106 	 91.6988
| 33> H 	 35.8456 	 13.9269 	 91.7183
| 34> H 	 37.2239 	 13.3163 	 92.3646
| 35> C 	 35.4615 	 12.0151 	 92.3305
| 36> H 	 34.7934 	 12.4882 	 93.0942
| 37> H 	 36.0983 	 11.354 	 92.8726
| 38> H 	 34.8148 	 11.578 	 91.555
| 39> H 	 42.8746 	 11.1436 	 90.4673
| 40> H 	 37.2509 	 16.8093 	 88.0805
| 41> *
| 42>
| 43>                          ****END OF INPUT****

CARTESIAN COORDINATES (ANGSTROEM)
---------------------------------
  S     41.289400   13.259900   90.391500
  C     41.911200   11.603700   90.191200
  C     41.077300   10.800400   89.405200
  C     39.954400   11.520400   88.912400
  C     39.985500   12.839600   89.309400
  H     39.124700   11.114100   88.309100
  C     41.281200    9.303450   89.185900
  H     41.760000    8.924590   90.082100
  H     41.990200    8.969810   88.398600
  C     40.108700    8.368820   88.910200
  H     39.655800    8.736500   88.049300
  H     40.655800    7.413060   88.722200
  C     39.134800    8.258010   90.074100
  H     39.755600    7.840520   90.870900
  H     38.775900    9.242810   90.369000
  H     38.349000    7.506120   89.758500
  S     39.168300   15.277300   88.245700
  C     37.533600   15.798200   88.366800
  C     36.806300   14.925200   89.106600
  C     37.574500   13.767800   89.517300
  C     38.914700   13.841300   89.144400
  H     35.780500   15.161700   89.342600
  C     36.808100   12.698100   90.274100
  H     37.402100   11.740800   90.332100
  H     35.934900   12.425000   89.617000
  C     36.403000   13.010600   91.698800
  H     35.845600   13.926900   91.718300
  H     37.223900   13.316300   92.364600
  C     35.461500   12.015100   92.330500
  H     34.793400   12.488200   93.094200
  H     36.098300   11.354000   92.872600
  H     34.814800   11.578000   91.555000
  H     42.874600   11.143600   90.467300
  H     37.250900   16.809300   88.080500

 Total Charge           Charge          ....    0
 Multiplicity           Mult            ....    1
 Number of Electrons    NEL             ....  134
 Basis Dimension        Dim             ....  322

ORBITAL ENERGIES
----------------

  NO   OCC          E(Eh)            E(eV)
   0   2.0000     -88.973448     -2421.0906
   1   2.0000     -88.960882     -2420.7487
   2   2.0000     -10.330487      -281.1068
   3   2.0000     -10.324261      -280.9374
   4   2.0000     -10.317655      -280.7577
   5   2.0000     -10.312921      -280.6288
   6   2.0000     -10.304177      -280.3909
   7   2.0000     -10.304036      -280.3871
   8   2.0000     -10.298170      -280.2275
   9   2.0000     -10.296423      -280.1799
  10   2.0000     -10.290856      -280.0284
  11   2.0000     -10.290468      -280.0179
  12   2.0000     -10.283191      -279.8199
  13   2.0000     -10.281141      -279.7641
  14   2.0000     -10.277995      -279.6785
  15   2.0000     -10.276712      -279.6436
  16   2.0000      -8.087334      -220.0675
  17   2.0000      -8.077162      -219.7908
  18   2.0000      -6.045845      -164.5158
  19   2.0000      -6.042070      -164.4131
  20   2.0000      -6.038023      -164.3030
  21   2.0000      -6.035600      -164.2370
  22   2.0000      -6.031305      -164.1201
  23   2.0000      -6.028055      -164.0317
  24   2.0000      -1.009696       -27.4752
  25   2.0000      -0.986088       -26.8328
  26   2.0000      -0.917057       -24.9544
  27   2.0000      -0.911075       -24.7916
  28   2.0000      -0.869691       -23.6655
  29   2.0000      -0.852307       -23.1925
  30   2.0000      -0.846950       -23.0467
  31   2.0000      -0.816375       -22.2147
  32   2.0000      -0.783956       -21.3325
  33   2.0000      -0.770232       -20.9591
  34   2.0000      -0.706601       -19.2276
  35   2.0000      -0.693929       -18.8828
  36   2.0000      -0.687223       -18.7003
  37   2.0000      -0.658584       -17.9210
  38   2.0000      -0.637463       -17.3463
  39   2.0000      -0.625091       -17.0096
  40   2.0000      -0.601794       -16.3757
  41   2.0000      -0.572184       -15.5699
  42   2.0000      -0.562923       -15.3179
  43   2.0000      -0.546836       -14.8802
  44   2.0000      -0.544871       -14.8267
  45   2.0000      -0.526530       -14.3276
  46   2.0000      -0.519158       -14.1270
  47   2.0000      -0.512861       -13.9557
  48   2.0000      -0.501656       -13.6507
  49   2.0000      -0.495244       -13.4763
  50   2.0000      -0.493729       -13.4351
  51   2.0000      -0.481335       -13.0978
  52   2.0000      -0.467128       -12.7112
  53   2.0000      -0.460417       -12.5286
  54   2.0000      -0.457478       -12.4486
  55   2.0000      -0.452565       -12.3149
  56   2.0000      -0.450226       -12.2513
  57   2.0000      -0.441884       -12.0243
  58   2.0000      -0.428070       -11.6484
  59   2.0000      -0.425686       -11.5835
  60   2.0000      -0.419630       -11.4187
  61   2.0000      -0.417300       -11.3553
  62   2.0000      -0.397375       -10.8131
  63   2.0000      -0.340719        -9.2714
  64   2.0000      -0.335091        -9.1183
  65   2.0000      -0.324692        -8.8353
  66   2.0000      -0.302406        -8.2289
  67   0.0000       0.036083         0.9819
  68   0.0000       0.068038         1.8514
  69   0.0000       0.107420         2.9230
  70   0.0000       0.121859         3.3160
  71   0.0000       0.126079         3.4308

MULLIKEN ATOMIC CHARGES
-----------------------
   0 S :    0.130744
   1 C :   -0.111763
   2 C :   -0.085595
   3 C :    0.021573
   4 C :   -0.152274
   5 H :    0.031350
   6 C :    0.027986
   7 H :    0.006707
   8 H :    0.042323
   9 C :   -0.084726
  10 H :    0.018463
  11 H :    0.035121
  12 C :   -0.046161
  13 H :    0.025032
  14 H :    0.045958
  15 H :    0.051013
  16 S :    0.105560
  17 C :   -0.093603
  18 C :   -0.034580
  19 C :   -0.025216
  20 C :   -0.169414
  21 H :    0.021325
  22 C :    0.035651
  23 H :    0.026077
  24 H :    0.037111
  25 C :   -0.071483
  26 H :    0.002422
  27 H :    0.031583
  28 C :   -0.035017
  29 H :    0.034367
  30 H :    0.032723
  31 H :    0.035162
  32 H :    0.048536
  33 H :    0.063046
Sum of atomic charges:    0.0000000

LOEWDIN ATOMIC CHARGES
----------------------
   0 S :    0.410699
   1 C :   -0.199403
   2 C :   -0.062620
   3 C :   -0.064020
   4 C :   -0.189499
   5 H :    0.040092
   6 C :   -0.042393
   7 H :    0.024691
   8 H :    0.037761
   9 C :   -0.040290
  10 H :    0.009254
  11 H :    0.034007
  12 C :   -0.065834
  13 H :    0.026088
  14 H :    0.024808
  15 H :    0.035539
  16 S :    0.428698
  17 C :   -0.192884
  18 C :   -0.071557
  19 C :   -0.056019
  20 C :   -0.225812
  21 H :    0.031638
  22 C :   -0.040500
  23 H :    0.030289
  24 H :    0.037176
  25 C :   -0.051893
  26 H :    0.015601
  27 H :    0.030136
  28 C :   -0.062078
  29 H :    0.031733
  30 H :    0.022678
  31 H :    0.028159
  32 H :    0.034355
  33 H :    0.031400

  Mayer bond orders larger than 0.100000
B(  0-S ,  1-C ) :   1.1260 B(  0-S ,  4-C ) :   1.1687 B(  1-C ,  2-C ) :   1.6396
B(  1-C ,  4-C ) :   0.1024 B(  1-C , 32-H ) :   0.9598 B(  2-C ,  3-C ) :   1.2332
B(  2-C ,  6-C ) :   1.0024 B(  3-C ,  4-C ) :   1.5931 B(  3-C ,  5-H ) :   0.9905
B(  4-C , 20-C ) :   0.9858 B(  6-C ,  7-H ) :   0.9408 B(  6-C ,  8-H ) :   0.9382
B(  6-C ,  9-C ) :   1.0850 B(  9-C , 10-H ) :   0.9482 B(  9-C , 11-H ) :   0.9539
B(  9-C , 12-C ) :   1.0778 B( 12-C , 13-H ) :   0.9720 B( 12-C , 14-H ) :   0.9749
B( 12-C , 15-H ) :   0.9736 B( 16-S , 17-C ) :   1.1676 B( 16-S , 20-C ) :   1.1557
B( 17-C , 18-C ) :   1.6016 B( 17-C , 33-H ) :   0.9658 B( 18-C , 19-C ) :   1.2360
B( 18-C , 21-H ) :   0.9953 B( 19-C , 20-C ) :   1.5929 B( 19-C , 22-C ) :   1.0437
B( 22-C , 23-H ) :   0.9330 B( 22-C , 24-H ) :   0.9315 B( 22-C , 25-C ) :   1.0711
B( 25-C , 26-H ) :   0.9539 B( 25-C , 27-H ) :   0.9504 B( 25-C , 28-C ) :   1.0746
B( 28-C , 29-H ) :   0.9761 B( 28-C , 30-H ) :   0.9790 B( 28-C , 31-H ) :   0.9721

Dispersion correction           -0.014472211
FINAL SINGLE POINT ENERGY     -1339.873945059827

DIPOLE MOMENT
-------------
                                X             Y             Z
Electronic contribution:     14.64621      24.26452      -9.22147
Nuclear contribution   :    -15.01962     -24.70871       9.34504
                        -----------------------------------------
Total Dipole Moment    :     -0.37341      -0.44419       0.12357
                        -----------------------------------------
Magnitude (a.u.)       :      0.59330
Magnitude (Debye)      :      1.50806

Rotational constants in cm-1:     0.016341     0.009805     0.007288
Rotational constants in MHz :   489.893762   293.958800   218.483723

                             ****ORCA TERMINATED NORMALLY****
TOTAL RUN TIME: 0 days 0 hours 0 minutes 30 seconds 691 msec
