                         Program Version 4.2.1 -  RELEASE  -
|  1> ! wB97X-D3 SP def2-SVP
|  2> %pal
|  3> nprocs 16
|  4> end
|  5>
|  6> * xyz 0 1
|  7> S 	 41.7113 	 15.7674 	 49.5584
|  8> C 	 42.2503 	 15.2891 	 51.1191
|  9> C 	 41.2525 	 15.4756 	 52.0396
| 10> C 	 40.0139 	 15.825 	 51.3997
| 11> C 	 40.0144 	 15.8408 	 50.03
| 12> H 	 39.0649 	 16.0207 	 51.9839
| 13> C 	 41.2954 	 15.1556 	 53.52
| 14> H 	 40.4857 	 15.698 	 53.9903
| 15> H 	 42.1839 	 15.5885 	 54.0146
| 16> C 	 40.9813 	 13.6647 	 53.8206
| 17> H 	 40.0203 	 13.525 	 53.2521
| 18> H 	 41.753 	 12.9057 	 53.4876
| 19> C 	 40.5744 	 13.3977 	 55.2871
| 20> H 	 41.4693 	 13.4473 	 55.954
| 21> H 	 39.8231 	 14.1854 	 55.6784
| 22> H 	 40.136 	 12.3661 	 55.4463
| 23> S 	 39.1341 	 16.9244 	 47.6571
| 24> C 	 37.4416 	 16.4941 	 47.1091
| 25> C 	 36.7191 	 15.9434 	 48.1274
| 26> C 	 37.5262 	 15.7451 	 49.3543
| 27> C 	 38.87 	 16.0405 	 49.1587
| 28> H 	 35.6848 	 15.6994 	 47.983
| 29> C 	 36.9563 	 14.9976 	 50.6158
| 30> H 	 36.5594 	 15.8262 	 51.3589
| 31> H 	 37.689 	 14.4815 	 51.1691
| 32> C 	 35.7411 	 14.1002 	 50.3774
| 33> H 	 34.9996 	 14.7235 	 49.7698
| 34> H 	 35.2223 	 13.8744 	 51.2823
| 35> C 	 36.1683 	 12.7689 	 49.642
| 36> H 	 35.2276 	 12.278 	 49.2557
| 37> H 	 36.8283 	 12.1896 	 50.2813
| 38> H 	 36.6865 	 12.9772 	 48.7536
| 39> H 	 43.2718 	 14.8995 	 51.3272
| 40> H 	 36.9944 	 16.72 	 46.1861
| 41> *
| 42>
| 43>                          ****END OF INPUT****

CARTESIAN COORDINATES (ANGSTROEM)
---------------------------------
  S     41.711300   15.767400   49.558400
  C     42.250300   15.289100   51.119100
  C     41.252500   15.475600   52.039600
  C     40.013900   15.825000   51.399700
  C     40.014400   15.840800   50.030000
  H     39.064900   16.020700   51.983900
  C     41.295400   15.155600   53.520000
  H     40.485700   15.698000   53.990300
  H     42.183900   15.588500   54.014600
  C     40.981300   13.664700   53.820600
  H     40.020300   13.525000   53.252100
  H     41.753000   12.905700   53.487600
  C     40.574400   13.397700   55.287100
  H     41.469300   13.447300   55.954000
  H     39.823100   14.185400   55.678400
  H     40.136000   12.366100   55.446300
  S     39.134100   16.924400   47.657100
  C     37.441600   16.494100   47.109100
  C     36.719100   15.943400   48.127400
  C     37.526200   15.745100   49.354300
  C     38.870000   16.040500   49.158700
  H     35.684800   15.699400   47.983000
  C     36.956300   14.997600   50.615800
  H     36.559400   15.826200   51.358900
  H     37.689000   14.481500   51.169100
  C     35.741100   14.100200   50.377400
  H     34.999600   14.723500   49.769800
  H     35.222300   13.874400   51.282300
  C     36.168300   12.768900   49.642000
  H     35.227600   12.278000   49.255700
  H     36.828300   12.189600   50.281300
  H     36.686500   12.977200   48.753600
  H     43.271800   14.899500   51.327200
  H     36.994400   16.720000   46.186100

 Total Charge           Charge          ....    0
 Multiplicity           Mult            ....    1
 Number of Electrons    NEL             ....  134
 Basis Dimension        Dim             ....  322

ORBITAL ENERGIES
----------------

  NO   OCC          E(Eh)            E(eV)
   0   2.0000     -88.965646     -2420.8783
   1   2.0000     -88.964633     -2420.8507
   2   2.0000     -10.333787      -281.1966
   3   2.0000     -10.331184      -281.1258
   4   2.0000     -10.321080      -280.8509
   5   2.0000     -10.317402      -280.7508
   6   2.0000     -10.315330      -280.6944
   7   2.0000     -10.302207      -280.3373
   8   2.0000     -10.301889      -280.3286
   9   2.0000     -10.301076      -280.3065
  10   2.0000     -10.299670      -280.2683
  11   2.0000     -10.297288      -280.2035
  12   2.0000     -10.296123      -280.1717
  13   2.0000     -10.294180      -280.1189
  14   2.0000     -10.293542      -280.1015
  15   2.0000     -10.278422      -279.6901
  16   2.0000      -8.079832      -219.8634
  17   2.0000      -8.079236      -219.8472
  18   2.0000      -6.038496      -164.3158
  19   2.0000      -6.038085      -164.3046
  20   2.0000      -6.034288      -164.2013
  21   2.0000      -6.034124      -164.1969
  22   2.0000      -6.030363      -164.0945
  23   2.0000      -6.029480      -164.0705
  24   2.0000      -1.008343       -27.4384
  25   2.0000      -0.980476       -26.6801
  26   2.0000      -0.909708       -24.7544
  27   2.0000      -0.902302       -24.5529
  28   2.0000      -0.874574       -23.7984
  29   2.0000      -0.846553       -23.0359
  30   2.0000      -0.835309       -22.7299
  31   2.0000      -0.817418       -22.2431
  32   2.0000      -0.779100       -21.2004
  33   2.0000      -0.771676       -20.9984
  34   2.0000      -0.707703       -19.2576
  35   2.0000      -0.698631       -19.0107
  36   2.0000      -0.692457       -18.8427
  37   2.0000      -0.658849       -17.9282
  38   2.0000      -0.638744       -17.3811
  39   2.0000      -0.620963       -16.8973
  40   2.0000      -0.598422       -16.2839
  41   2.0000      -0.570268       -15.5178
  42   2.0000      -0.560764       -15.2592
  43   2.0000      -0.541213       -14.7271
  44   2.0000      -0.538517       -14.6538
  45   2.0000      -0.523629       -14.2487
  46   2.0000      -0.517673       -14.0866
  47   2.0000      -0.510296       -13.8858
  48   2.0000      -0.504987       -13.7414
  49   2.0000      -0.504178       -13.7194
  50   2.0000      -0.487805       -13.2739
  51   2.0000      -0.480357       -13.0712
  52   2.0000      -0.472332       -12.8528
  53   2.0000      -0.461667       -12.5626
  54   2.0000      -0.457438       -12.4475
  55   2.0000      -0.449796       -12.2396
  56   2.0000      -0.445220       -12.1151
  57   2.0000      -0.434080       -11.8119
  58   2.0000      -0.430860       -11.7243
  59   2.0000      -0.423549       -11.5254
  60   2.0000      -0.417195       -11.3524
  61   2.0000      -0.414460       -11.2780
  62   2.0000      -0.411103       -11.1867
  63   2.0000      -0.362686        -9.8692
  64   2.0000      -0.331558        -9.0221
  65   2.0000      -0.326381        -8.8813
  66   2.0000      -0.288029        -7.8377
  67   0.0000       0.018793         0.5114
  68   0.0000       0.077589         2.1113
  69   0.0000       0.093757         2.5513
  70   0.0000       0.121566         3.3080
  71   0.0000       0.127742         3.4760

MULLIKEN ATOMIC CHARGES
-----------------------
   0 S :    0.107972
   1 C :   -0.136452
   2 C :   -0.074414
   3 C :   -0.032869
   4 C :   -0.117356
   5 H :    0.035924
   6 C :    0.073653
   7 H :    0.007780
   8 H :    0.033691
   9 C :   -0.090653
  10 H :    0.036083
  11 H :    0.050905
  12 C :   -0.100164
  13 H :    0.037409
  14 H :    0.042019
  15 H :    0.050636
  16 S :    0.082508
  17 C :   -0.058622
  18 C :   -0.028882
  19 C :   -0.044071
  20 C :   -0.126704
  21 H :    0.021544
  22 C :    0.006265
  23 H :    0.052705
  24 H :    0.025109
  25 C :   -0.081059
  26 H :    0.029674
  27 H :    0.027161
  28 C :   -0.038493
  29 H :    0.040629
  30 H :    0.039614
  31 H :    0.024825
  32 H :    0.067190
  33 H :    0.036442
Sum of atomic charges:   -0.0000000

LOEWDIN ATOMIC CHARGES
----------------------
   0 S :    0.406919
   1 C :   -0.200881
   2 C :   -0.071978
   3 C :   -0.070343
   4 C :   -0.192284
   5 H :    0.039095
   6 C :   -0.035445
   7 H :    0.028502
   8 H :    0.030103
   9 C :   -0.047520
  10 H :    0.030580
  11 H :    0.031563
  12 C :   -0.083109
  13 H :    0.024383
  14 H :    0.031408
  15 H :    0.032711
  16 S :    0.356851
  17 C :   -0.148994
  18 C :   -0.062543
  19 C :   -0.052606
  20 C :   -0.180900
  21 H :    0.031204
  22 C :   -0.037661
  23 H :    0.043242
  24 H :    0.017482
  25 C :   -0.043292
  26 H :    0.025726
  27 H :    0.020242
  28 C :   -0.063805
  29 H :    0.034261
  30 H :    0.026948
  31 H :    0.017976
  32 H :    0.040845
  33 H :    0.021320

  Mayer bond orders larger than 0.100000
B(  0-S ,  1-C ) :   1.1479 B(  0-S ,  4-C ) :   1.1342 B(  1-C ,  2-C ) :   1.5947
B(  1-C , 32-H ) :   0.9686 B(  2-C ,  3-C ) :   1.2492 B(  2-C ,  6-C ) :   1.0396
B(  3-C ,  4-C ) :   1.5529 B(  3-C ,  5-H ) :   0.9794 B(  4-C , 20-C ) :   1.0946
B(  6-C ,  7-H ) :   0.9350 B(  6-C ,  8-H ) :   0.9393 B(  6-C ,  9-C ) :   1.0481
B(  9-C , 10-H ) :   0.9547 B(  9-C , 11-H ) :   0.9566 B(  9-C , 12-C ) :   1.0768
B( 12-C , 13-H ) :   0.9750 B( 12-C , 14-H ) :   0.9718 B( 12-C , 15-H ) :   0.9745
B( 16-S , 17-C ) :   1.1027 B( 16-S , 20-C ) :   1.1113 B( 17-C , 18-C ) :   1.6873
B( 17-C , 33-H ) :   0.9699 B( 18-C , 19-C ) :   1.1800 B( 18-C , 21-H ) :   0.9839
B( 19-C , 20-C ) :   1.6355 B( 19-C , 22-C ) :   1.0263 B( 22-C , 23-H ) :   0.9271
B( 22-C , 24-H ) :   0.9451 B( 22-C , 25-C ) :   1.0781 B( 25-C , 26-H ) :   0.9500
B( 25-C , 27-H ) :   0.9540 B( 25-C , 28-C ) :   1.0655 B( 28-C , 29-H ) :   0.9747
B( 28-C , 30-H ) :   0.9749 B( 28-C , 31-H ) :   0.9775

Dispersion correction           -0.014130680
FINAL SINGLE POINT ENERGY     -1339.866131607138

DIPOLE MOMENT
-------------
                                X             Y             Z
Electronic contribution:     12.49560      17.09492     -23.28317
Nuclear contribution   :    -12.93198     -17.43583      23.85101
                        -----------------------------------------
Total Dipole Moment    :     -0.43638      -0.34092       0.56784
                        -----------------------------------------
Magnitude (a.u.)       :      0.79316
Magnitude (Debye)      :      2.01605

Rotational constants in cm-1:     0.017749     0.009195     0.006505
Rotational constants in MHz :   532.086807   275.645133   195.013306

                             ****ORCA TERMINATED NORMALLY****
TOTAL RUN TIME: 0 days 0 hours 0 minutes 35 seconds 332 msec
