                         Program Version 4.2.1 -  RELEASE  -
|  1> ! wB97X-D3 SP def2-SVP
|  2> %pal
|  3> nprocs 16
|  4> end
|  5>
|  6> * xyz 0 1
|  7> S 	 -54.5139 	 15.1648 	 90.2463
|  8> C 	 -53.0754 	 16.0379 	 90.1859
|  9> C 	 -52.3258 	 15.8071 	 89.0312
| 10> C 	 -52.9742 	 14.9623 	 88.1941
| 11> C 	 -54.2249 	 14.5356 	 88.6074
| 12> H 	 -52.5737 	 14.6668 	 87.191
| 13> C 	 -51.0456 	 16.4746 	 88.7594
| 14> H 	 -50.8722 	 17.3334 	 89.4702
| 15> H 	 -51.1007 	 17.027 	 87.7828
| 16> C 	 -49.7842 	 15.5639 	 88.9849
| 17> H 	 -48.949 	 16.2265 	 89.289
| 18> H 	 -50.0011 	 15.0167 	 89.9046
| 19> C 	 -49.3984 	 14.6487 	 87.7836
| 20> H 	 -50.2809 	 13.9602 	 87.6727
| 21> H 	 -49.139 	 15.161 	 86.8768
| 22> H 	 -48.5947 	 13.9673 	 88.0968
| 23> S 	 -54.6582 	 11.8566 	 88.8692
| 24> C 	 -55.4836 	 10.8996 	 87.6692
| 25> C 	 -55.9901 	 11.7114 	 86.6611
| 26> C 	 -55.611 	 13.0983 	 86.8486
| 27> C 	 -54.9447 	 13.3641 	 88.0167
| 28> H 	 -56.5359 	 11.3033 	 85.8204
| 29> C 	 -55.8861 	 14.1117 	 85.7793
| 30> H 	 -55.7514 	 15.1173 	 86.174
| 31> H 	 -56.9438 	 14.0601 	 85.547
| 32> C 	 -55.2359 	 13.8938 	 84.3833
| 33> H 	 -55.6567 	 14.7382 	 83.7959
| 34> H 	 -55.6659 	 12.9405 	 84.0018
| 35> C 	 -53.6765 	 13.9013 	 84.5966
| 36> H 	 -53.3243 	 13.1301 	 85.2394
| 37> H 	 -53.3987 	 14.804 	 85.1244
| 38> H 	 -53.1084 	 13.9309 	 83.685
| 39> H 	 -52.8292 	 16.7227 	 90.967
| 40> H 	 -55.5533 	 9.80211 	 87.6938
| 41> *
| 42>
| 43>                          ****END OF INPUT****

CARTESIAN COORDINATES (ANGSTROEM)
---------------------------------
  S    -54.513900   15.164800   90.246300
  C    -53.075400   16.037900   90.185900
  C    -52.325800   15.807100   89.031200
  C    -52.974200   14.962300   88.194100
  C    -54.224900   14.535600   88.607400
  H    -52.573700   14.666800   87.191000
  C    -51.045600   16.474600   88.759400
  H    -50.872200   17.333400   89.470200
  H    -51.100700   17.027000   87.782800
  C    -49.784200   15.563900   88.984900
  H    -48.949000   16.226500   89.289000
  H    -50.001100   15.016700   89.904600
  C    -49.398400   14.648700   87.783600
  H    -50.280900   13.960200   87.672700
  H    -49.139000   15.161000   86.876800
  H    -48.594700   13.967300   88.096800
  S    -54.658200   11.856600   88.869200
  C    -55.483600   10.899600   87.669200
  C    -55.990100   11.711400   86.661100
  C    -55.611000   13.098300   86.848600
  C    -54.944700   13.364100   88.016700
  H    -56.535900   11.303300   85.820400
  C    -55.886100   14.111700   85.779300
  H    -55.751400   15.117300   86.174000
  H    -56.943800   14.060100   85.547000
  C    -55.235900   13.893800   84.383300
  H    -55.656700   14.738200   83.795900
  H    -55.665900   12.940500   84.001800
  C    -53.676500   13.901300   84.596600
  H    -53.324300   13.130100   85.239400
  H    -53.398700   14.804000   85.124400
  H    -53.108400   13.930900   83.685000
  H    -52.829200   16.722700   90.967000
  H    -55.553300    9.802110   87.693800

 Total Charge           Charge          ....    0
 Multiplicity           Mult            ....    1
 Number of Electrons    NEL             ....  134
 Basis Dimension        Dim             ....  322

ORBITAL ENERGIES
----------------

  NO   OCC          E(Eh)            E(eV)
   0   2.0000     -88.970124     -2421.0002
   1   2.0000     -88.958955     -2420.6962
   2   2.0000     -10.330645      -281.1111
   3   2.0000     -10.325237      -280.9640
   4   2.0000     -10.320048      -280.8228
   5   2.0000     -10.310685      -280.5680
   6   2.0000     -10.300957      -280.3033
   7   2.0000     -10.296570      -280.1839
   8   2.0000     -10.295768      -280.1621
   9   2.0000     -10.295285      -280.1490
  10   2.0000     -10.292043      -280.0607
  11   2.0000     -10.291869      -280.0560
  12   2.0000     -10.291086      -280.0347
  13   2.0000     -10.283194      -279.8199
  14   2.0000     -10.282812      -279.8096
  15   2.0000     -10.273872      -279.5663
  16   2.0000      -8.085438      -220.0159
  17   2.0000      -8.074062      -219.7064
  18   2.0000      -6.043570      -164.4539
  19   2.0000      -6.039779      -164.3508
  20   2.0000      -6.036652      -164.2657
  21   2.0000      -6.032646      -164.1567
  22   2.0000      -6.028394      -164.0409
  23   2.0000      -6.024827      -163.9439
  24   2.0000      -1.011051       -27.5121
  25   2.0000      -0.987977       -26.8842
  26   2.0000      -0.908403       -24.7189
  27   2.0000      -0.905139       -24.6301
  28   2.0000      -0.865891       -23.5621
  29   2.0000      -0.853230       -23.2176
  30   2.0000      -0.839865       -22.8539
  31   2.0000      -0.815114       -22.1804
  32   2.0000      -0.781585       -21.2680
  33   2.0000      -0.771203       -20.9855
  34   2.0000      -0.705419       -19.1954
  35   2.0000      -0.698897       -19.0179
  36   2.0000      -0.692113       -18.8334
  37   2.0000      -0.658432       -17.9168
  38   2.0000      -0.644607       -17.5406
  39   2.0000      -0.622175       -16.9302
  40   2.0000      -0.593601       -16.1527
  41   2.0000      -0.572083       -15.5672
  42   2.0000      -0.546991       -14.8844
  43   2.0000      -0.541775       -14.7424
  44   2.0000      -0.538264       -14.6469
  45   2.0000      -0.531279       -14.4568
  46   2.0000      -0.520452       -14.1622
  47   2.0000      -0.511328       -13.9139
  48   2.0000      -0.501019       -13.6334
  49   2.0000      -0.498377       -13.5615
  50   2.0000      -0.490233       -13.3399
  51   2.0000      -0.480205       -13.0671
  52   2.0000      -0.470111       -12.7924
  53   2.0000      -0.468670       -12.7532
  54   2.0000      -0.460222       -12.5233
  55   2.0000      -0.449232       -12.2242
  56   2.0000      -0.442995       -12.0545
  57   2.0000      -0.436763       -11.8849
  58   2.0000      -0.426957       -11.6181
  59   2.0000      -0.421257       -11.4630
  60   2.0000      -0.419295       -11.4096
  61   2.0000      -0.416928       -11.3452
  62   2.0000      -0.412049       -11.2124
  63   2.0000      -0.348210        -9.4753
  64   2.0000      -0.327158        -8.9024
  65   2.0000      -0.321976        -8.7614
  66   2.0000      -0.300512        -8.1773
  67   0.0000       0.039644         1.0788
  68   0.0000       0.057568         1.5665
  69   0.0000       0.120630         3.2825
  70   0.0000       0.125113         3.4045
  71   0.0000       0.128406         3.4941

MULLIKEN ATOMIC CHARGES
-----------------------
   0 S :    0.129830
   1 C :   -0.119647
   2 C :   -0.048620
   3 C :    0.029807
   4 C :   -0.174089
   5 H :    0.016245
   6 C :    0.014192
   7 H :    0.020499
   8 H :    0.041372
   9 C :   -0.076891
  10 H :    0.028962
  11 H :    0.029528
  12 C :   -0.046892
  13 H :    0.037406
  14 H :    0.042034
  15 H :    0.037962
  16 S :    0.094597
  17 C :   -0.101923
  18 C :   -0.032703
  19 C :   -0.050573
  20 C :   -0.149824
  21 H :    0.022271
  22 C :    0.031639
  23 H :    0.027435
  24 H :    0.019396
  25 C :   -0.077271
  26 H :    0.044217
  27 H :    0.035278
  28 C :   -0.035380
  29 H :    0.046896
  30 H :    0.023155
  31 H :    0.030620
  32 H :    0.042073
  33 H :    0.068401
Sum of atomic charges:    0.0000000

LOEWDIN ATOMIC CHARGES
----------------------
   0 S :    0.437068
   1 C :   -0.202246
   2 C :   -0.081418
   3 C :   -0.056330
   4 C :   -0.205092
   5 H :    0.037931
   6 C :   -0.041388
   7 H :    0.035492
   8 H :    0.034928
   9 C :   -0.039978
  10 H :    0.022667
  11 H :    0.027095
  12 C :   -0.069883
  13 H :    0.032153
  14 H :    0.022994
  15 H :    0.029902
  16 S :    0.401518
  17 C :   -0.184980
  18 C :   -0.075628
  19 C :   -0.060117
  20 C :   -0.199899
  21 H :    0.031061
  22 C :   -0.038404
  23 H :    0.027541
  24 H :    0.030022
  25 C :   -0.033045
  26 H :    0.031489
  27 H :    0.023395
  28 C :   -0.064195
  29 H :    0.025159
  30 H :    0.023114
  31 H :    0.022417
  32 H :    0.021863
  33 H :    0.034794

  Mayer bond orders larger than 0.100000
B(  0-S ,  1-C ) :   1.1963 B(  0-S ,  4-C ) :   1.1685 B(  1-C ,  2-C ) :   1.5226
B(  1-C ,  4-C ) :   0.1102 B(  1-C , 32-H ) :   0.9678 B(  2-C ,  3-C ) :   1.3300
B(  2-C ,  6-C ) :   1.0358 B(  3-C ,  4-C ) :   1.5217 B(  3-C ,  5-H ) :   0.9753
B(  4-C , 20-C ) :   0.9918 B(  6-C ,  7-H ) :   0.9392 B(  6-C ,  8-H ) :   0.9435
B(  6-C ,  9-C ) :   1.0515 B(  9-C , 10-H ) :   0.9605 B(  9-C , 11-H ) :   0.9538
B(  9-C , 12-C ) :   1.0741 B( 12-C , 13-H ) :   0.9713 B( 12-C , 14-H ) :   0.9781
B( 12-C , 15-H ) :   0.9719 B( 16-S , 17-C ) :   1.1658 B( 16-S , 20-C ) :   1.1314
B( 17-C , 18-C ) :   1.6051 B( 17-C , 33-H ) :   0.9652 B( 18-C , 19-C ) :   1.2180
B( 18-C , 21-H ) :   0.9940 B( 19-C , 20-C ) :   1.6405 B( 19-C , 22-C ) :   1.0560
B( 22-C , 23-H ) :   0.9408 B( 22-C , 24-H ) :   0.9292 B( 22-C , 25-C ) :   1.0663
B( 25-C , 26-H ) :   0.9579 B( 25-C , 27-H ) :   0.9566 B( 25-C , 28-C ) :   1.0593
B( 28-C , 29-H ) :   0.9746 B( 28-C , 30-H ) :   0.9679 B( 28-C , 31-H ) :   0.9725

Dispersion correction           -0.015602080
FINAL SINGLE POINT ENERGY     -1339.883007664080

DIPOLE MOMENT
-------------
                                X             Y             Z
Electronic contribution:    -16.00362      -6.42792      18.26864
Nuclear contribution   :     16.34557       6.59039     -18.67625
                        -----------------------------------------
Total Dipole Moment    :      0.34195       0.16248      -0.40761
                        -----------------------------------------
Magnitude (a.u.)       :      0.55630
Magnitude (Debye)      :      1.41401

Rotational constants in cm-1:     0.018204     0.009434     0.007994
Rotational constants in MHz :   545.745524   282.826455   239.659791

                             ****ORCA TERMINATED NORMALLY****
TOTAL RUN TIME: 0 days 0 hours 0 minutes 31 seconds 405 msec
