                         Program Version 4.2.1 -  RELEASE  -
|  1> ! wB97X-D3 SP def2-SVP
|  2> %pal
|  3> nprocs 16
|  4> end
|  5>
|  6> * xyz 0 1
|  7> S 	 -1.0284 	 2.87022 	 83.6692
|  8> C 	 -1.52978 	 1.24703 	 83.8904
|  9> C 	 -0.567728 	 0.253774 	 83.573
| 10> C 	 0.650284 	 0.883174 	 83.3435
| 11> C 	 0.649816 	 2.29433 	 83.4085
| 12> H 	 1.64919 	 0.445991 	 83.168
| 13> C 	 -0.674013 	 -1.31278 	 83.594
| 14> H 	 0.045883 	 -1.83802 	 82.9906
| 15> H 	 -1.63045 	 -1.70236 	 83.1946
| 16> C 	 -0.506422 	 -1.91739 	 84.9101
| 17> H 	 0.486168 	 -1.7435 	 85.3977
| 18> H 	 -1.25497 	 -1.54667 	 85.6693
| 19> C 	 -0.577154 	 -3.41817 	 84.7668
| 20> H 	 -1.52488 	 -3.71027 	 84.2419
| 21> H 	 0.149426 	 -3.83889 	 84.1016
| 22> H 	 -0.638979 	 -4.04637 	 85.6416
| 23> S 	 1.4759 	 4.61836 	 82.1495
| 24> C 	 3.08379 	 5.22599 	 82.5399
| 25> C 	 3.77994 	 4.40211 	 83.4343
| 26> C 	 2.98429 	 3.33759 	 83.9159
| 27> C 	 1.72875 	 3.26755 	 83.2705
| 28> H 	 4.71772 	 4.7237 	 83.7654
| 29> C 	 3.57283 	 2.28347 	 84.7734
| 30> H 	 4.43591 	 1.82517 	 84.3538
| 31> H 	 2.88935 	 1.44267 	 84.7054
| 32> C 	 3.86965 	 2.59573 	 86.2326
| 33> H 	 4.82826 	 3.10814 	 86.3693
| 34> H 	 4.10716 	 1.65027 	 86.7286
| 35> C 	 2.7142 	 3.1254 	 87.0673
| 36> H 	 2.61016 	 4.17184 	 86.8917
| 37> H 	 2.758 	 2.90063 	 88.158
| 38> H 	 1.77796 	 2.64414 	 86.8142
| 39> H 	 -2.54905 	 1.03682 	 84.2408
| 40> H 	 3.64235 	 6.12781 	 82.1633
| 41> *
| 42>
| 43>                          ****END OF INPUT****

CARTESIAN COORDINATES (ANGSTROEM)
---------------------------------
  S     -1.028400    2.870220   83.669200
  C     -1.529780    1.247030   83.890400
  C     -0.567728    0.253774   83.573000
  C      0.650284    0.883174   83.343500
  C      0.649816    2.294330   83.408500
  H      1.649190    0.445991   83.168000
  C     -0.674013   -1.312780   83.594000
  H      0.045883   -1.838020   82.990600
  H     -1.630450   -1.702360   83.194600
  C     -0.506422   -1.917390   84.910100
  H      0.486168   -1.743500   85.397700
  H     -1.254970   -1.546670   85.669300
  C     -0.577154   -3.418170   84.766800
  H     -1.524880   -3.710270   84.241900
  H      0.149426   -3.838890   84.101600
  H     -0.638979   -4.046370   85.641600
  S      1.475900    4.618360   82.149500
  C      3.083790    5.225990   82.539900
  C      3.779940    4.402110   83.434300
  C      2.984290    3.337590   83.915900
  C      1.728750    3.267550   83.270500
  H      4.717720    4.723700   83.765400
  C      3.572830    2.283470   84.773400
  H      4.435910    1.825170   84.353800
  H      2.889350    1.442670   84.705400
  C      3.869650    2.595730   86.232600
  H      4.828260    3.108140   86.369300
  H      4.107160    1.650270   86.728600
  C      2.714200    3.125400   87.067300
  H      2.610160    4.171840   86.891700
  H      2.758000    2.900630   88.158000
  H      1.777960    2.644140   86.814200
  H     -2.549050    1.036820   84.240800
  H      3.642350    6.127810   82.163300

 Total Charge           Charge          ....    0
 Multiplicity           Mult            ....    1
 Number of Electrons    NEL             ....  134
 Basis Dimension        Dim             ....  322

ORBITAL ENERGIES
----------------

  NO   OCC          E(Eh)            E(eV)
   0   2.0000     -88.971320     -2421.0327
   1   2.0000     -88.971195     -2421.0293
   2   2.0000     -10.332428      -281.1597
   3   2.0000     -10.330825      -281.1160
   4   2.0000     -10.321585      -280.8646
   5   2.0000     -10.320809      -280.8435
   6   2.0000     -10.309994      -280.5492
   7   2.0000     -10.301443      -280.3165
   8   2.0000     -10.298941      -280.2484
   9   2.0000     -10.297218      -280.2015
  10   2.0000     -10.288744      -279.9709
  11   2.0000     -10.288421      -279.9622
  12   2.0000     -10.282365      -279.7974
  13   2.0000     -10.282004      -279.7876
  14   2.0000     -10.277064      -279.6531
  15   2.0000     -10.269101      -279.4365
  16   2.0000      -8.085902      -220.0286
  17   2.0000      -8.084942      -220.0025
  18   2.0000      -6.044142      -164.4695
  19   2.0000      -6.043509      -164.4522
  20   2.0000      -6.040466      -164.3694
  21   2.0000      -6.039586      -164.3455
  22   2.0000      -6.036924      -164.2730
  23   2.0000      -6.035705      -164.2399
  24   2.0000      -1.002603       -27.2822
  25   2.0000      -0.981088       -26.6968
  26   2.0000      -0.924923       -25.1684
  27   2.0000      -0.910246       -24.7691
  28   2.0000      -0.866611       -23.5817
  29   2.0000      -0.855568       -23.2812
  30   2.0000      -0.848634       -23.0925
  31   2.0000      -0.808699       -22.0058
  32   2.0000      -0.786328       -21.3971
  33   2.0000      -0.770935       -20.9782
  34   2.0000      -0.705411       -19.1952
  35   2.0000      -0.699286       -19.0286
  36   2.0000      -0.690315       -18.7844
  37   2.0000      -0.660246       -17.9662
  38   2.0000      -0.645965       -17.5776
  39   2.0000      -0.622152       -16.9296
  40   2.0000      -0.592650       -16.1268
  41   2.0000      -0.578537       -15.7428
  42   2.0000      -0.562191       -15.2980
  43   2.0000      -0.549240       -14.9456
  44   2.0000      -0.544148       -14.8070
  45   2.0000      -0.521483       -14.1903
  46   2.0000      -0.519664       -14.1408
  47   2.0000      -0.506483       -13.7821
  48   2.0000      -0.501547       -13.6478
  49   2.0000      -0.494702       -13.4615
  50   2.0000      -0.490690       -13.3524
  51   2.0000      -0.475673       -12.9437
  52   2.0000      -0.469689       -12.7809
  53   2.0000      -0.462303       -12.5799
  54   2.0000      -0.461811       -12.5665
  55   2.0000      -0.448332       -12.1997
  56   2.0000      -0.444571       -12.0974
  57   2.0000      -0.436676       -11.8826
  58   2.0000      -0.435179       -11.8418
  59   2.0000      -0.432170       -11.7599
  60   2.0000      -0.421011       -11.4563
  61   2.0000      -0.411144       -11.1878
  62   2.0000      -0.404010       -10.9937
  63   2.0000      -0.346529        -9.4295
  64   2.0000      -0.338282        -9.2051
  65   2.0000      -0.333612        -9.0780
  66   2.0000      -0.281614        -7.6631
  67   0.0000       0.025011         0.6806
  68   0.0000       0.059731         1.6254
  69   0.0000       0.104175         2.8348
  70   0.0000       0.119829         3.2607
  71   0.0000       0.128517         3.4971

MULLIKEN ATOMIC CHARGES
-----------------------
   0 S :    0.125902
   1 C :   -0.139081
   2 C :   -0.028491
   3 C :    0.026042
   4 C :   -0.185449
   5 H :    0.026594
   6 C :    0.062659
   7 H :    0.014870
   8 H :    0.025398
   9 C :   -0.073096
  10 H :    0.033810
  11 H :    0.035349
  12 C :   -0.049715
  13 H :    0.010579
  14 H :    0.021588
  15 H :    0.032819
  16 S :    0.115957
  17 C :   -0.109521
  18 C :   -0.021259
  19 C :   -0.007310
  20 C :   -0.163004
  21 H :   -0.000682
  22 C :    0.085925
  23 H :    0.021414
  24 H :   -0.010475
  25 C :   -0.070123
  26 H :    0.024100
  27 H :    0.014601
  28 C :   -0.043944
  29 H :    0.037173
  30 H :    0.035275
  31 H :    0.025635
  32 H :    0.056182
  33 H :    0.070278
Sum of atomic charges:   -0.0000000

LOEWDIN ATOMIC CHARGES
----------------------
   0 S :    0.415294
   1 C :   -0.203159
   2 C :   -0.062690
   3 C :   -0.061040
   4 C :   -0.190383
   5 H :    0.035779
   6 C :   -0.029503
   7 H :    0.031069
   8 H :    0.033803
   9 C :   -0.049679
  10 H :    0.028057
  11 H :    0.028571
  12 C :   -0.071328
  13 H :    0.025326
  14 H :    0.020981
  15 H :    0.025218
  16 S :    0.397138
  17 C :   -0.193730
  18 C :   -0.062151
  19 C :   -0.055130
  20 C :   -0.195796
  21 H :    0.022698
  22 C :   -0.035954
  23 H :    0.032021
  24 H :    0.027609
  25 C :   -0.045591
  26 H :    0.021379
  27 H :    0.026956
  28 C :   -0.067226
  29 H :    0.022106
  30 H :    0.031478
  31 H :    0.027741
  32 H :    0.027610
  33 H :    0.042526

  Mayer bond orders larger than 0.100000
B(  0-S ,  1-C ) :   1.1850 B(  0-S ,  4-C ) :   1.1470 B(  1-C ,  2-C ) :   1.5571
B(  1-C ,  4-C ) :   0.1180 B(  1-C , 32-H ) :   0.9660 B(  2-C ,  3-C ) :   1.2813
B(  2-C ,  6-C ) :   1.0023 B(  3-C ,  4-C ) :   1.5491 B(  3-C ,  5-H ) :   0.9812
B(  4-C , 20-C ) :   1.0540 B(  6-C ,  7-H ) :   0.9464 B(  6-C ,  8-H ) :   0.9418
B(  6-C ,  9-C ) :   1.0692 B(  9-C , 10-H ) :   0.9511 B(  9-C , 11-H ) :   0.9511
B(  9-C , 12-C ) :   1.0786 B( 12-C , 13-H ) :   0.9677 B( 12-C , 14-H ) :   0.9714
B( 12-C , 15-H ) :   0.9725 B( 16-S , 17-C ) :   1.1442 B( 16-S , 20-C ) :   1.1373
B( 17-C , 18-C ) :   1.6223 B( 17-C , 20-C ) :   0.1024 B( 17-C , 33-H ) :   0.9575
B( 18-C , 19-C ) :   1.2344 B( 18-C , 21-H ) :   0.9950 B( 19-C , 20-C ) :   1.5633
B( 19-C , 22-C ) :   1.0534 B( 22-C , 23-H ) :   0.9321 B( 22-C , 24-H ) :   0.9190
B( 22-C , 25-C ) :   1.0861 B( 25-C , 26-H ) :   0.9562 B( 25-C , 27-H ) :   0.9495
B( 25-C , 28-C ) :   1.0714 B( 28-C , 29-H ) :   0.9744 B( 28-C , 30-H ) :   0.9761
B( 28-C , 31-H ) :   0.9718

Dispersion correction           -0.014175093
FINAL SINGLE POINT ENERGY     -1339.864345428995

DIPOLE MOMENT
-------------
                                X             Y             Z
Electronic contribution:     -6.31279      23.61965     -16.73713
Nuclear contribution   :      6.60791     -24.18454      17.01276
                        -----------------------------------------
Total Dipole Moment    :      0.29512      -0.56489       0.27562
                        -----------------------------------------
Magnitude (a.u.)       :      0.69438
Magnitude (Debye)      :      1.76497

Rotational constants in cm-1:     0.019698     0.008292     0.006742
Rotational constants in MHz :   590.529489   248.576464   202.133454

                             ****ORCA TERMINATED NORMALLY****
TOTAL RUN TIME: 0 days 0 hours 0 minutes 34 seconds 953 msec
