                         Program Version 4.2.1 -  RELEASE  -
|  1> ! wB97X-D3 SP def2-SVP
|  2> %pal
|  3> nprocs 16
|  4> end
|  5>
|  6> * xyz 0 1
|  7> S 	 -39.2784 	 30.1716 	 91.5228
|  8> C 	 -39.3985 	 28.7369 	 92.4652
|  9> C 	 -40.4224 	 27.9439 	 92.0396
| 10> C 	 -41.1931 	 28.4762 	 91.0119
| 11> C 	 -40.6671 	 29.7064 	 90.5372
| 12> H 	 -42.0167 	 28.2216 	 90.41
| 13> C 	 -40.8269 	 26.5682 	 92.646
| 14> H 	 -40.0662 	 25.8908 	 92.4049
| 15> H 	 -41.6865 	 26.1672 	 92.1429
| 16> C 	 -40.9732 	 26.4724 	 94.107
| 17> H 	 -41.0377 	 25.3938 	 94.4552
| 18> H 	 -40.1577 	 26.8643 	 94.6871
| 19> C 	 -42.168 	 27.1461 	 94.659
| 20> H 	 -42.1456 	 28.1941 	 94.3686
| 21> H 	 -43.0836 	 26.7232 	 94.2929
| 22> H 	 -42.2321 	 27.0356 	 95.7538
| 23> S 	 -42.7963 	 31.1242 	 89.3826
| 24> C 	 -42.4463 	 32.1017 	 87.925
| 25> C 	 -41.1217 	 32.0484 	 87.6051
| 26> C 	 -40.3879 	 31.1501 	 88.4222
| 27> C 	 -41.0974 	 30.5285 	 89.4178
| 28> H 	 -40.7638 	 32.6851 	 86.8223
| 29> C 	 -38.9073 	 30.8585 	 88.1398
| 30> H 	 -38.827 	 30.5408 	 87.0687
| 31> H 	 -38.7346 	 29.9235 	 88.7561
| 32> C 	 -37.7563 	 31.8164 	 88.4999
| 33> H 	 -36.9058 	 31.1442 	 88.5154
| 34> H 	 -37.7891 	 32.2882 	 89.5265
| 35> C 	 -37.6273 	 33.0027 	 87.5721
| 36> H 	 -36.6087 	 33.3588 	 87.753
| 37> H 	 -38.2939 	 33.8085 	 87.8727
| 38> H 	 -37.8427 	 32.6801 	 86.505
| 39> H 	 -38.6401 	 28.4704 	 93.18
| 40> H 	 -43.2227 	 32.7302 	 87.4544
| 41> *
| 42>
| 43>                          ****END OF INPUT****

CARTESIAN COORDINATES (ANGSTROEM)
---------------------------------
  S    -39.278400   30.171600   91.522800
  C    -39.398500   28.736900   92.465200
  C    -40.422400   27.943900   92.039600
  C    -41.193100   28.476200   91.011900
  C    -40.667100   29.706400   90.537200
  H    -42.016700   28.221600   90.410000
  C    -40.826900   26.568200   92.646000
  H    -40.066200   25.890800   92.404900
  H    -41.686500   26.167200   92.142900
  C    -40.973200   26.472400   94.107000
  H    -41.037700   25.393800   94.455200
  H    -40.157700   26.864300   94.687100
  C    -42.168000   27.146100   94.659000
  H    -42.145600   28.194100   94.368600
  H    -43.083600   26.723200   94.292900
  H    -42.232100   27.035600   95.753800
  S    -42.796300   31.124200   89.382600
  C    -42.446300   32.101700   87.925000
  C    -41.121700   32.048400   87.605100
  C    -40.387900   31.150100   88.422200
  C    -41.097400   30.528500   89.417800
  H    -40.763800   32.685100   86.822300
  C    -38.907300   30.858500   88.139800
  H    -38.827000   30.540800   87.068700
  H    -38.734600   29.923500   88.756100
  C    -37.756300   31.816400   88.499900
  H    -36.905800   31.144200   88.515400
  H    -37.789100   32.288200   89.526500
  C    -37.627300   33.002700   87.572100
  H    -36.608700   33.358800   87.753000
  H    -38.293900   33.808500   87.872700
  H    -37.842700   32.680100   86.505000
  H    -38.640100   28.470400   93.180000
  H    -43.222700   32.730200   87.454400

 Total Charge           Charge          ....    0
 Multiplicity           Mult            ....    1
 Number of Electrons    NEL             ....  134
 Basis Dimension        Dim             ....  322

ORBITAL ENERGIES
----------------

  NO   OCC          E(Eh)            E(eV)
   0   2.0000     -88.968965     -2420.9686
   1   2.0000     -88.962868     -2420.8027
   2   2.0000     -10.331508      -281.1346
   3   2.0000     -10.328548      -281.0541
   4   2.0000     -10.322926      -280.9011
   5   2.0000     -10.312247      -280.6105
   6   2.0000     -10.302722      -280.3513
   7   2.0000     -10.302360      -280.3415
   8   2.0000     -10.293856      -280.1101
   9   2.0000     -10.293132      -280.0904
  10   2.0000     -10.292246      -280.0663
  11   2.0000     -10.286664      -279.9144
  12   2.0000     -10.283006      -279.8148
  13   2.0000     -10.279701      -279.7249
  14   2.0000     -10.278545      -279.6934
  15   2.0000     -10.265122      -279.3282
  16   2.0000      -8.083495      -219.9631
  17   2.0000      -8.076546      -219.7740
  18   2.0000      -6.041761      -164.4047
  19   2.0000      -6.037899      -164.2996
  20   2.0000      -6.035135      -164.2244
  21   2.0000      -6.034649      -164.2111
  22   2.0000      -6.031327      -164.1207
  23   2.0000      -6.027161      -164.0074
  24   2.0000      -1.006702       -27.3937
  25   2.0000      -0.984163       -26.7804
  26   2.0000      -0.920299       -25.0426
  27   2.0000      -0.903419       -24.5833
  28   2.0000      -0.873008       -23.7558
  29   2.0000      -0.855268       -23.2730
  30   2.0000      -0.846114       -23.0239
  31   2.0000      -0.816100       -22.2072
  32   2.0000      -0.786702       -21.4073
  33   2.0000      -0.772084       -21.0095
  34   2.0000      -0.706367       -19.2212
  35   2.0000      -0.696442       -18.9512
  36   2.0000      -0.684392       -18.6232
  37   2.0000      -0.666252       -18.1296
  38   2.0000      -0.649400       -17.6711
  39   2.0000      -0.606543       -16.5049
  40   2.0000      -0.591756       -16.1025
  41   2.0000      -0.578865       -15.7517
  42   2.0000      -0.560325       -15.2472
  43   2.0000      -0.549515       -14.9531
  44   2.0000      -0.544033       -14.8039
  45   2.0000      -0.539743       -14.6872
  46   2.0000      -0.523050       -14.2329
  47   2.0000      -0.521672       -14.1954
  48   2.0000      -0.500605       -13.6222
  49   2.0000      -0.495085       -13.4719
  50   2.0000      -0.488387       -13.2897
  51   2.0000      -0.485618       -13.2143
  52   2.0000      -0.472802       -12.8656
  53   2.0000      -0.469367       -12.7721
  54   2.0000      -0.459518       -12.5041
  55   2.0000      -0.439030       -11.9466
  56   2.0000      -0.438179       -11.9235
  57   2.0000      -0.436243       -11.8708
  58   2.0000      -0.428112       -11.6495
  59   2.0000      -0.423543       -11.5252
  60   2.0000      -0.415145       -11.2967
  61   2.0000      -0.407275       -11.0825
  62   2.0000      -0.403818       -10.9884
  63   2.0000      -0.347175        -9.4471
  64   2.0000      -0.337163        -9.1747
  65   2.0000      -0.329455        -8.9649
  66   2.0000      -0.294218        -8.0061
  67   0.0000       0.024471         0.6659
  68   0.0000       0.068998         1.8775
  69   0.0000       0.109024         2.9667
  70   0.0000       0.113311         3.0834
  71   0.0000       0.136462         3.7133

MULLIKEN ATOMIC CHARGES
-----------------------
   0 S :    0.123701
   1 C :   -0.132067
   2 C :   -0.060340
   3 C :    0.052464
   4 C :   -0.209235
   5 H :   -0.007590
   6 C :    0.154923
   7 H :    0.015762
   8 H :    0.009607
   9 C :   -0.095966
  10 H :    0.025714
  11 H :    0.017614
  12 C :   -0.038822
  13 H :    0.035604
  14 H :    0.010722
  15 H :    0.030659
  16 S :    0.079145
  17 C :   -0.105954
  18 C :   -0.012755
  19 C :   -0.024579
  20 C :   -0.131366
  21 H :    0.015547
  22 C :   -0.014053
  23 H :    0.041174
  24 H :    0.035789
  25 C :   -0.058800
  26 H :    0.031913
  27 H :    0.032964
  28 C :   -0.056554
  29 H :    0.037004
  30 H :    0.041031
  31 H :    0.035758
  32 H :    0.050085
  33 H :    0.070900
Sum of atomic charges:    0.0000000

LOEWDIN ATOMIC CHARGES
----------------------
   0 S :    0.432858
   1 C :   -0.204950
   2 C :   -0.063195
   3 C :   -0.055994
   4 C :   -0.187068
   5 H :    0.028295
   6 C :   -0.022372
   7 H :    0.029394
   8 H :    0.029209
   9 C :   -0.050782
  10 H :    0.030230
  11 H :    0.020304
  12 C :   -0.064022
  13 H :    0.025758
  14 H :    0.016635
  15 H :    0.027264
  16 S :    0.360091
  17 C :   -0.164525
  18 C :   -0.072313
  19 C :   -0.060851
  20 C :   -0.188716
  21 H :    0.032507
  22 C :   -0.045614
  23 H :    0.035676
  24 H :    0.030871
  25 C :   -0.047945
  26 H :    0.025380
  27 H :    0.029770
  28 C :   -0.071718
  29 H :    0.030306
  30 H :    0.025634
  31 H :    0.026492
  32 H :    0.027862
  33 H :    0.035531

  Mayer bond orders larger than 0.100000
B(  0-S ,  1-C ) :   1.1589 B(  0-S ,  4-C ) :   1.1681 B(  1-C ,  2-C ) :   1.5842
B(  1-C ,  4-C ) :   0.1052 B(  1-C , 32-H ) :   0.9716 B(  2-C ,  3-C ) :   1.2392
B(  2-C ,  6-C ) :   1.0016 B(  3-C ,  4-C ) :   1.5365 B(  3-C ,  5-H ) :   1.0094
B(  4-C , 20-C ) :   1.0467 B(  6-C ,  7-H ) :   0.9219 B(  6-C ,  8-H ) :   0.9433
B(  6-C ,  9-C ) :   1.0888 B(  9-C , 10-H ) :   0.9478 B(  9-C , 11-H ) :   0.9507
B(  9-C , 12-C ) :   1.0908 B( 12-C , 13-H ) :   0.9740 B( 12-C , 14-H ) :   0.9712
B( 12-C , 15-H ) :   0.9721 B( 16-S , 17-C ) :   1.1414 B( 16-S , 20-C ) :   1.1080
B( 17-C , 18-C ) :   1.6254 B( 17-C , 33-H ) :   0.9626 B( 18-C , 19-C ) :   1.2122
B( 18-C , 21-H ) :   0.9982 B( 19-C , 20-C ) :   1.6250 B( 19-C , 22-C ) :   1.0295
B( 22-C , 23-H ) :   0.9390 B( 22-C , 24-H ) :   0.9329 B( 22-C , 25-C ) :   1.0693
B( 25-C , 26-H ) :   0.9576 B( 25-C , 27-H ) :   0.9500 B( 25-C , 28-C ) :   1.0725
B( 28-C , 29-H ) :   0.9710 B( 28-C , 30-H ) :   0.9746 B( 28-C , 31-H ) :   0.9748

Dispersion correction           -0.014539180
FINAL SINGLE POINT ENERGY     -1339.874991228515

DIPOLE MOMENT
-------------
                                X             Y             Z
Electronic contribution:     -8.20841       6.75353      -4.46954
Nuclear contribution   :      8.51339      -6.90843       4.36712
                        -----------------------------------------
Total Dipole Moment    :      0.30498      -0.15490      -0.10241
                        -----------------------------------------
Magnitude (a.u.)       :      0.35707
Magnitude (Debye)      :      0.90759

Rotational constants in cm-1:     0.024489     0.007665     0.006230
Rotational constants in MHz :   734.166915   229.796334   186.758959

                             ****ORCA TERMINATED NORMALLY****
TOTAL RUN TIME: 0 days 0 hours 0 minutes 29 seconds 193 msec
