                         Program Version 4.2.1 -  RELEASE  -
|  1> ! wB97X-D3 SP def2-SVP
|  2> %pal
|  3> nprocs 16
|  4> end
|  5>
|  6> * xyz 0 1
|  7> S 	 3.10763 	 -21.79 	 58.1977
|  8> C 	 2.57655 	 -23.4029 	 58.7585
|  9> C 	 3.57787 	 -24.2977 	 58.8671
| 10> C 	 4.84539 	 -23.7597 	 58.4679
| 11> C 	 4.77604 	 -22.3929 	 58.029
| 12> H 	 5.77682 	 -24.2611 	 58.31
| 13> C 	 3.42265 	 -25.7268 	 59.3675
| 14> H 	 2.7902 	 -26.4222 	 58.76
| 15> H 	 2.88632 	 -25.5806 	 60.3203
| 16> C 	 4.71519 	 -26.431 	 59.7533
| 17> H 	 5.39112 	 -26.5588 	 58.8661
| 18> H 	 5.10691 	 -25.7176 	 60.4921
| 19> C 	 4.54131 	 -27.7911 	 60.4247
| 20> H 	 5.33462 	 -27.9282 	 61.1464
| 21> H 	 3.54415 	 -27.768 	 60.93
| 22> H 	 4.49934 	 -28.5856 	 59.7391
| 23> S 	 5.4658 	 -20.2669 	 56.3513
| 24> C 	 7.04942 	 -19.6024 	 56.5225
| 25> C 	 7.83664 	 -20.2645 	 57.4
| 26> C 	 7.19316 	 -21.4087 	 58.0071
| 27> C 	 5.89952 	 -21.5449 	 57.5528
| 28> H 	 8.88113 	 -20.0062 	 57.5749
| 29> C 	 7.97781 	 -22.307 	 59.0092
| 30> H 	 7.41852 	 -23.2179 	 59.2449
| 31> H 	 8.14997 	 -21.6988 	 59.91
| 32> C 	 9.25987 	 -22.9298 	 58.6045
| 33> H 	 9.57225 	 -23.606 	 59.438
| 34> H 	 10.1773 	 -22.3032 	 58.6918
| 35> C 	 9.30996 	 -23.583 	 57.1933
| 36> H 	 10.1095 	 -24.3249 	 57.1865
| 37> H 	 9.66782 	 -22.8908 	 56.3698
| 38> H 	 8.37728 	 -24.1902 	 57.1007
| 39> H 	 1.55545 	 -23.5888 	 59.0165
| 40> H 	 7.51134 	 -18.9126 	 55.9026
| 41> *
| 42>
| 43>                          ****END OF INPUT****

CARTESIAN COORDINATES (ANGSTROEM)
---------------------------------
  S      3.107630  -21.790000   58.197700
  C      2.576550  -23.402900   58.758500
  C      3.577870  -24.297700   58.867100
  C      4.845390  -23.759700   58.467900
  C      4.776040  -22.392900   58.029000
  H      5.776820  -24.261100   58.310000
  C      3.422650  -25.726800   59.367500
  H      2.790200  -26.422200   58.760000
  H      2.886320  -25.580600   60.320300
  C      4.715190  -26.431000   59.753300
  H      5.391120  -26.558800   58.866100
  H      5.106910  -25.717600   60.492100
  C      4.541310  -27.791100   60.424700
  H      5.334620  -27.928200   61.146400
  H      3.544150  -27.768000   60.930000
  H      4.499340  -28.585600   59.739100
  S      5.465800  -20.266900   56.351300
  C      7.049420  -19.602400   56.522500
  C      7.836640  -20.264500   57.400000
  C      7.193160  -21.408700   58.007100
  C      5.899520  -21.544900   57.552800
  H      8.881130  -20.006200   57.574900
  C      7.977810  -22.307000   59.009200
  H      7.418520  -23.217900   59.244900
  H      8.149970  -21.698800   59.910000
  C      9.259870  -22.929800   58.604500
  H      9.572250  -23.606000   59.438000
  H     10.177300  -22.303200   58.691800
  C      9.309960  -23.583000   57.193300
  H     10.109500  -24.324900   57.186500
  H      9.667820  -22.890800   56.369800
  H      8.377280  -24.190200   57.100700
  H      1.555450  -23.588800   59.016500
  H      7.511340  -18.912600   55.902600

 Total Charge           Charge          ....    0
 Multiplicity           Mult            ....    1
 Number of Electrons    NEL             ....  134
 Basis Dimension        Dim             ....  322

ORBITAL ENERGIES
----------------

  NO   OCC          E(Eh)            E(eV)
   0   2.0000     -88.967602     -2420.9315
   1   2.0000     -88.966290     -2420.8958
   2   2.0000     -10.338095      -281.3139
   3   2.0000     -10.333688      -281.1940
   4   2.0000     -10.309990      -280.5491
   5   2.0000     -10.309147      -280.5262
   6   2.0000     -10.308368      -280.5050
   7   2.0000     -10.301334      -280.3136
   8   2.0000     -10.296387      -280.1789
   9   2.0000     -10.295954      -280.1671
  10   2.0000     -10.295754      -280.1617
  11   2.0000     -10.291626      -280.0494
  12   2.0000     -10.291210      -280.0381
  13   2.0000     -10.289311      -279.9864
  14   2.0000     -10.287601      -279.9398
  15   2.0000     -10.277944      -279.6771
  16   2.0000      -8.080976      -219.8945
  17   2.0000      -8.080762      -219.8887
  18   2.0000      -6.039598      -164.3458
  19   2.0000      -6.039356      -164.3392
  20   2.0000      -6.035732      -164.2406
  21   2.0000      -6.035496      -164.2342
  22   2.0000      -6.031645      -164.1294
  23   2.0000      -6.031252      -164.1187
  24   2.0000      -0.999536       -27.1987
  25   2.0000      -0.979167       -26.6445
  26   2.0000      -0.913973       -24.8705
  27   2.0000      -0.912390       -24.8274
  28   2.0000      -0.869239       -23.6532
  29   2.0000      -0.848693       -23.0941
  30   2.0000      -0.840438       -22.8695
  31   2.0000      -0.812035       -22.0966
  32   2.0000      -0.787924       -21.4405
  33   2.0000      -0.778095       -21.1730
  34   2.0000      -0.711881       -19.3713
  35   2.0000      -0.691554       -18.8181
  36   2.0000      -0.686456       -18.6794
  37   2.0000      -0.656239       -17.8572
  38   2.0000      -0.639523       -17.4023
  39   2.0000      -0.617271       -16.7968
  40   2.0000      -0.597061       -16.2468
  41   2.0000      -0.578514       -15.7422
  42   2.0000      -0.566932       -15.4270
  43   2.0000      -0.562135       -15.2965
  44   2.0000      -0.536915       -14.6102
  45   2.0000      -0.523061       -14.2332
  46   2.0000      -0.513745       -13.9797
  47   2.0000      -0.509182       -13.8555
  48   2.0000      -0.502072       -13.6621
  49   2.0000      -0.495654       -13.4874
  50   2.0000      -0.490153       -13.3377
  51   2.0000      -0.485049       -13.1988
  52   2.0000      -0.472803       -12.8656
  53   2.0000      -0.467162       -12.7121
  54   2.0000      -0.456574       -12.4240
  55   2.0000      -0.449685       -12.2366
  56   2.0000      -0.443181       -12.0596
  57   2.0000      -0.436143       -11.8681
  58   2.0000      -0.430142       -11.7048
  59   2.0000      -0.420989       -11.4557
  60   2.0000      -0.418821       -11.3967
  61   2.0000      -0.418594       -11.3905
  62   2.0000      -0.398636       -10.8474
  63   2.0000      -0.354285        -9.6406
  64   2.0000      -0.333293        -9.0694
  65   2.0000      -0.331994        -9.0340
  66   2.0000      -0.285065        -7.7570
  67   0.0000       0.024408         0.6642
  68   0.0000       0.073674         2.0048
  69   0.0000       0.103183         2.8078
  70   0.0000       0.120646         3.2830
  71   0.0000       0.126990         3.4556

MULLIKEN ATOMIC CHARGES
-----------------------
   0 S :    0.100624
   1 C :   -0.137124
   2 C :   -0.031928
   3 C :   -0.006190
   4 C :   -0.119120
   5 H :    0.010074
   6 C :    0.037771
   7 H :    0.046647
   8 H :    0.031658
   9 C :   -0.146424
  10 H :    0.047712
  11 H :    0.034563
  12 C :    0.003978
  13 H :    0.038244
  14 H :    0.023277
  15 H :    0.025060
  16 S :    0.098156
  17 C :   -0.034638
  18 C :   -0.045330
  19 C :   -0.038070
  20 C :   -0.173873
  21 H :    0.020047
  22 C :    0.088213
  23 H :    0.020573
  24 H :    0.044462
  25 C :   -0.119862
  26 H :    0.030165
  27 H :    0.012323
  28 C :   -0.048303
  29 H :    0.021706
  30 H :    0.058646
  31 H :    0.040423
  32 H :    0.036257
  33 H :    0.030283
Sum of atomic charges:   -0.0000000

LOEWDIN ATOMIC CHARGES
----------------------
   0 S :    0.377638
   1 C :   -0.181040
   2 C :   -0.064125
   3 C :   -0.069881
   4 C :   -0.174065
   5 H :    0.022392
   6 C :   -0.039105
   7 H :    0.032371
   8 H :    0.035838
   9 C :   -0.051491
  10 H :    0.026146
  11 H :    0.027870
  12 C :   -0.057740
  13 H :    0.029176
  14 H :    0.029831
  15 H :    0.018000
  16 S :    0.385588
  17 C :   -0.177079
  18 C :   -0.068363
  19 C :   -0.049626
  20 C :   -0.178918
  21 H :    0.032772
  22 C :   -0.033003
  23 H :    0.031827
  24 H :    0.042036
  25 C :   -0.060781
  26 H :    0.031722
  27 H :    0.018013
  28 C :   -0.074477
  29 H :    0.025291
  30 H :    0.040516
  31 H :    0.030316
  32 H :    0.023404
  33 H :    0.018947

  Mayer bond orders larger than 0.100000
B(  0-S ,  1-C ) :   1.1186 B(  0-S ,  4-C ) :   1.1506 B(  1-C ,  2-C ) :   1.6425
B(  1-C , 32-H ) :   0.9748 B(  2-C ,  3-C ) :   1.2383 B(  2-C ,  6-C ) :   0.9955
B(  3-C ,  4-C ) :   1.5583 B(  3-C ,  5-H ) :   0.9861 B(  4-C , 20-C ) :   1.0546
B(  6-C ,  7-H ) :   0.9403 B(  6-C ,  8-H ) :   0.9355 B(  6-C ,  9-C ) :   1.0982
B(  9-C , 10-H ) :   0.9455 B(  9-C , 11-H ) :   0.9553 B(  9-C , 12-C ) :   1.0778
B( 12-C , 13-H ) :   0.9743 B( 12-C , 14-H ) :   0.9727 B( 12-C , 15-H ) :   0.9738
B( 16-S , 17-C ) :   1.1361 B( 16-S , 20-C ) :   1.1160 B( 17-C , 18-C ) :   1.6503
B( 17-C , 33-H ) :   0.9666 B( 18-C , 19-C ) :   1.2141 B( 18-C , 21-H ) :   0.9864
B( 19-C , 20-C ) :   1.6346 B( 19-C , 22-C ) :   1.0290 B( 22-C , 23-H ) :   0.9401
B( 22-C , 24-H ) :   0.9281 B( 22-C , 25-C ) :   1.0798 B( 25-C , 26-H ) :   0.9546
B( 25-C , 27-H ) :   0.9439 B( 25-C , 28-C ) :   1.0693 B( 28-C , 29-H ) :   0.9707
B( 28-C , 30-H ) :   0.9705 B( 28-C , 31-H ) :   0.9757

Dispersion correction           -0.014127272
FINAL SINGLE POINT ENERGY     -1339.865094101907

DIPOLE MOMENT
-------------
                                X             Y             Z
Electronic contribution:    -15.33688      25.81380     -11.09391
Nuclear contribution   :     15.92059     -26.33993      11.41577
                        -----------------------------------------
Total Dipole Moment    :      0.58371      -0.52613       0.32186
                        -----------------------------------------
Magnitude (a.u.)       :      0.84918
Magnitude (Debye)      :      2.15846

Rotational constants in cm-1:     0.017616     0.009264     0.006401
Rotational constants in MHz :   528.115948   277.723112   191.901750

                             ****ORCA TERMINATED NORMALLY****
TOTAL RUN TIME: 0 days 0 hours 0 minutes 35 seconds 476 msec
