                         Program Version 4.2.1 -  RELEASE  -
|  1> ! wB97X-D3 SP def2-SVP
|  2> %pal
|  3> nprocs 16
|  4> end
|  5>
|  6> * xyz 0 1
|  7> S 	 -117.75 	 47.7606 	 132.702
|  8> C 	 -117.574 	 47.57 	 134.448
|  9> C 	 -117.818 	 46.2999 	 134.836
| 10> C 	 -118.082 	 45.3758 	 133.741
| 11> C 	 -118.076 	 46.0418 	 132.511
| 12> H 	 -118.171 	 44.2901 	 133.844
| 13> C 	 -117.725 	 45.8339 	 136.313
| 14> H 	 -118.4 	 45.0268 	 136.422
| 15> H 	 -117.93 	 46.6534 	 137.033
| 16> C 	 -116.372 	 45.2763 	 136.721
| 17> H 	 -116.52 	 44.7495 	 137.667
| 18> H 	 -115.982 	 44.6555 	 135.939
| 19> C 	 -115.263 	 46.3314 	 136.822
| 20> H 	 -114.347 	 46.0217 	 137.366
| 21> H 	 -114.986 	 46.8278 	 135.917
| 22> H 	 -115.772 	 47.0737 	 137.49
| 23> S 	 -119.759 	 45.733 	 130.286
| 24> C 	 -119.29 	 44.7887 	 128.973
| 25> C 	 -118.06 	 44.1513 	 129.197
| 26> C 	 -117.442 	 44.4862 	 130.457
| 27> C 	 -118.203 	 45.4149 	 131.172
| 28> H 	 -117.657 	 43.4887 	 128.504
| 29> C 	 -116.209 	 43.8565 	 130.861
| 30> H 	 -116.184 	 42.899 	 130.326
| 31> H 	 -116.226 	 43.6353 	 131.885
| 32> C 	 -114.979 	 44.6883 	 130.557
| 33> H 	 -114.816 	 45.0335 	 129.539
| 34> H 	 -114.159 	 43.9717 	 130.666
| 35> C 	 -114.722 	 45.8164 	 131.568
| 36> H 	 -114.351 	 46.734 	 131.095
| 37> H 	 -113.979 	 45.4815 	 132.343
| 38> H 	 -115.656 	 46.0774 	 132.023
| 39> H 	 -117.346 	 48.2749 	 135.24
| 40> H 	 -119.914 	 44.6582 	 128.07
| 41> *
| 42>
| 43>                          ****END OF INPUT****

CARTESIAN COORDINATES (ANGSTROEM)
---------------------------------
  S    -117.750000   47.760600  132.702000
  C    -117.574000   47.570000  134.448000
  C    -117.818000   46.299900  134.836000
  C    -118.082000   45.375800  133.741000
  C    -118.076000   46.041800  132.511000
  H    -118.171000   44.290100  133.844000
  C    -117.725000   45.833900  136.313000
  H    -118.400000   45.026800  136.422000
  H    -117.930000   46.653400  137.033000
  C    -116.372000   45.276300  136.721000
  H    -116.520000   44.749500  137.667000
  H    -115.982000   44.655500  135.939000
  C    -115.263000   46.331400  136.822000
  H    -114.347000   46.021700  137.366000
  H    -114.986000   46.827800  135.917000
  H    -115.772000   47.073700  137.490000
  S    -119.759000   45.733000  130.286000
  C    -119.290000   44.788700  128.973000
  C    -118.060000   44.151300  129.197000
  C    -117.442000   44.486200  130.457000
  C    -118.203000   45.414900  131.172000
  H    -117.657000   43.488700  128.504000
  C    -116.209000   43.856500  130.861000
  H    -116.184000   42.899000  130.326000
  H    -116.226000   43.635300  131.885000
  C    -114.979000   44.688300  130.557000
  H    -114.816000   45.033500  129.539000
  H    -114.159000   43.971700  130.666000
  C    -114.722000   45.816400  131.568000
  H    -114.351000   46.734000  131.095000
  H    -113.979000   45.481500  132.343000
  H    -115.656000   46.077400  132.023000
  H    -117.346000   48.274900  135.240000
  H    -119.914000   44.658200  128.070000

 Total Charge           Charge          ....    0
 Multiplicity           Mult            ....    1
 Number of Electrons    NEL             ....  134
 Basis Dimension        Dim             ....  322

ORBITAL ENERGIES
----------------

  NO   OCC          E(Eh)            E(eV)
   0   2.0000     -88.970334     -2421.0059
   1   2.0000     -88.962632     -2420.7963
   2   2.0000     -10.336968      -281.2832
   3   2.0000     -10.329556      -281.0815
   4   2.0000     -10.318390      -280.7777
   5   2.0000     -10.313062      -280.6327
   6   2.0000     -10.303368      -280.3689
   7   2.0000     -10.303067      -280.3607
   8   2.0000     -10.301501      -280.3181
   9   2.0000     -10.293445      -280.0989
  10   2.0000     -10.289246      -279.9846
  11   2.0000     -10.284219      -279.8478
  12   2.0000     -10.282677      -279.8059
  13   2.0000     -10.280099      -279.7357
  14   2.0000     -10.278462      -279.6912
  15   2.0000     -10.269214      -279.4395
  16   2.0000      -8.083853      -219.9728
  17   2.0000      -8.077740      -219.8065
  18   2.0000      -6.042543      -164.4260
  19   2.0000      -6.038526      -164.3166
  20   2.0000      -6.036102      -164.2507
  21   2.0000      -6.034445      -164.2056
  22   2.0000      -6.032111      -164.1421
  23   2.0000      -6.028721      -164.0498
  24   2.0000      -1.001811       -27.2607
  25   2.0000      -0.983169       -26.7534
  26   2.0000      -0.919403       -25.0182
  27   2.0000      -0.915164       -24.9029
  28   2.0000      -0.864880       -23.5346
  29   2.0000      -0.850114       -23.1328
  30   2.0000      -0.842973       -22.9385
  31   2.0000      -0.808301       -21.9950
  32   2.0000      -0.786325       -21.3970
  33   2.0000      -0.776834       -21.1387
  34   2.0000      -0.706870       -19.2349
  35   2.0000      -0.694504       -18.8984
  36   2.0000      -0.689465       -18.7613
  37   2.0000      -0.662078       -18.0161
  38   2.0000      -0.637322       -17.3424
  39   2.0000      -0.620343       -16.8804
  40   2.0000      -0.602325       -16.3901
  41   2.0000      -0.574402       -15.6303
  42   2.0000      -0.556972       -15.1560
  43   2.0000      -0.553724       -15.0676
  44   2.0000      -0.548260       -14.9189
  45   2.0000      -0.532605       -14.4929
  46   2.0000      -0.518394       -14.1062
  47   2.0000      -0.507518       -13.8103
  48   2.0000      -0.502248       -13.6669
  49   2.0000      -0.498222       -13.5573
  50   2.0000      -0.490696       -13.3525
  51   2.0000      -0.480557       -13.0766
  52   2.0000      -0.468985       -12.7617
  53   2.0000      -0.464859       -12.6495
  54   2.0000      -0.463033       -12.5998
  55   2.0000      -0.453181       -12.3317
  56   2.0000      -0.442790       -12.0489
  57   2.0000      -0.437361       -11.9012
  58   2.0000      -0.429939       -11.6992
  59   2.0000      -0.422130       -11.4867
  60   2.0000      -0.419451       -11.4139
  61   2.0000      -0.409909       -11.1542
  62   2.0000      -0.406970       -11.0742
  63   2.0000      -0.334602        -9.1050
  64   2.0000      -0.333363        -9.0713
  65   2.0000      -0.324832        -8.8391
  66   2.0000      -0.303517        -8.2591
  67   0.0000       0.037818         1.0291
  68   0.0000       0.058417         1.5896
  69   0.0000       0.111144         3.0244
  70   0.0000       0.117571         3.1993
  71   0.0000       0.124661         3.3922

MULLIKEN ATOMIC CHARGES
-----------------------
   0 S :    0.121590
   1 C :   -0.100707
   2 C :   -0.117463
   3 C :    0.059287
   4 C :   -0.197621
   5 H :    0.025995
   6 C :    0.073752
   7 H :    0.016198
   8 H :    0.029609
   9 C :   -0.055373
  10 H :    0.039251
  11 H :    0.020488
  12 C :   -0.078442
  13 H :    0.043667
  14 H :    0.044314
  15 H :    0.008290
  16 S :    0.108828
  17 C :   -0.094087
  18 C :   -0.030092
  19 C :   -0.006430
  20 C :   -0.185953
  21 H :   -0.008405
  22 C :    0.097948
  23 H :    0.018001
  24 H :    0.007376
  25 C :   -0.065035
  26 H :    0.025281
  27 H :    0.017660
  28 C :   -0.020552
  29 H :    0.031515
  30 H :    0.038752
  31 H :    0.018989
  32 H :    0.040853
  33 H :    0.072515
Sum of atomic charges:    0.0000000

LOEWDIN ATOMIC CHARGES
----------------------
   0 S :    0.405614
   1 C :   -0.196015
   2 C :   -0.063677
   3 C :   -0.056653
   4 C :   -0.197636
   5 H :    0.035651
   6 C :   -0.025404
   7 H :    0.025869
   8 H :    0.030619
   9 C :   -0.040520
  10 H :    0.027843
  11 H :    0.019775
  12 C :   -0.070615
  13 H :    0.030477
  14 H :    0.021746
  15 H :    0.020852
  16 S :    0.410170
  17 C :   -0.202707
  18 C :   -0.072714
  19 C :   -0.043032
  20 C :   -0.196695
  21 H :    0.017770
  22 C :   -0.031085
  23 H :    0.036822
  24 H :    0.026388
  25 C :   -0.038896
  26 H :    0.023901
  27 H :    0.023313
  28 C :   -0.066908
  29 H :    0.028380
  30 H :    0.031351
  31 H :    0.014579
  32 H :    0.033895
  33 H :    0.037541

  Mayer bond orders larger than 0.100000
B(  0-S ,  1-C ) :   1.1101 B(  0-S ,  4-C ) :   1.1544 B(  1-C ,  2-C ) :   1.6717
B(  1-C , 32-H ) :   0.9589 B(  2-C ,  3-C ) :   1.2079 B(  2-C ,  6-C ) :   1.0240
B(  3-C ,  4-C ) :   1.5968 B(  3-C ,  5-H ) :   0.9904 B(  4-C , 20-C ) :   1.0012
B(  6-C ,  7-H ) :   0.9333 B(  6-C ,  8-H ) :   0.9450 B(  6-C ,  9-C ) :   1.0766
B(  9-C , 10-H ) :   0.9565 B(  9-C , 11-H ) :   0.9527 B(  9-C , 12-C ) :   1.0681
B( 12-C , 13-H ) :   0.9743 B( 12-C , 14-H ) :   0.9752 B( 12-C , 15-H ) :   0.9757
B( 16-S , 17-C ) :   1.1915 B( 16-S , 20-C ) :   1.1352 B( 17-C , 18-C ) :   1.5713
B( 17-C , 33-H ) :   0.9628 B( 18-C , 19-C ) :   1.2503 B( 18-C , 21-H ) :   0.9996
B( 19-C , 20-C ) :   1.5791 B( 19-C , 22-C ) :   1.0650 B( 22-C , 23-H ) :   0.9200
B( 22-C , 24-H ) :   0.9239 B( 22-C , 25-C ) :   1.0802 B( 25-C , 26-H ) :   0.9601
B( 25-C , 27-H ) :   0.9577 B( 25-C , 28-C ) :   1.0607 B( 28-C , 29-H ) :   0.9721
B( 28-C , 30-H ) :   0.9743 B( 28-C , 31-H ) :   0.9859

Dispersion correction           -0.015876831
FINAL SINGLE POINT ENERGY     -1339.875587053808

DIPOLE MOMENT
-------------
                                X             Y             Z
Electronic contribution:    -20.60675       7.04859     -15.80804
Nuclear contribution   :     20.96846      -7.58294      16.07694
                        -----------------------------------------
Total Dipole Moment    :      0.36172      -0.53435       0.26890
                        -----------------------------------------
Magnitude (a.u.)       :      0.69905
Magnitude (Debye)      :      1.77685

Rotational constants in cm-1:     0.022504     0.008794     0.007561
Rotational constants in MHz :   674.659746   263.641777   226.669212

                             ****ORCA TERMINATED NORMALLY****
TOTAL RUN TIME: 0 days 0 hours 0 minutes 36 seconds 573 msec
