                         Program Version 4.2.1 -  RELEASE  -
|  1> ! wB97X-D3 SP def2-SVP
|  2> %pal
|  3> nprocs 16
|  4> end
|  5>
|  6> * xyz 0 1
|  7> S 	 -69.0127 	 42.0032 	 125.391
|  8> C 	 -68.3296 	 43.3027 	 126.365
|  9> C 	 -66.9272 	 43.2035 	 126.341
| 10> C 	 -66.4268 	 42.1517 	 125.497
| 11> C 	 -67.4084 	 41.2263 	 125.109
| 12> H 	 -65.3616 	 41.9233 	 125.252
| 13> C 	 -65.9644 	 44.1251 	 126.97
| 14> H 	 -65.1396 	 43.4957 	 127.224
| 15> H 	 -66.4266 	 44.4233 	 128.026
| 16> C 	 -65.6182 	 45.3155 	 126.142
| 17> H 	 -66.538 	 45.9308 	 125.939
| 18> H 	 -64.9972 	 45.7939 	 126.9
| 19> C 	 -64.7278 	 44.959 	 124.958
| 20> H 	 -64.4938 	 45.8279 	 124.371
| 21> H 	 -63.7813 	 44.3655 	 125.171
| 22> H 	 -65.2697 	 44.2614 	 124.312
| 23> S 	 -68.4263 	 39.9022 	 122.888
| 24> C 	 -67.7823 	 38.4533 	 122.307
| 25> C 	 -66.9252 	 37.9591 	 123.242
| 26> C 	 -66.5247 	 38.9577 	 124.219
| 27> C 	 -67.3192 	 40.0815 	 124.213
| 28> H 	 -66.6208 	 36.9013 	 123.218
| 29> C 	 -65.414 	 38.658 	 125.216
| 30> H 	 -65.9085 	 37.8701 	 125.788
| 31> H 	 -65.2774 	 39.309 	 126.108
| 32> C 	 -64.0384 	 38.3122 	 124.627
| 33> H 	 -64.3115 	 37.633 	 123.834
| 34> H 	 -63.4737 	 37.7309 	 125.337
| 35> C 	 -63.3135 	 39.5752 	 124.076
| 36> H 	 -62.4126 	 39.2422 	 123.469
| 37> H 	 -62.9647 	 40.1511 	 124.981
| 38> H 	 -64.0407 	 40.1244 	 123.548
| 39> H 	 -68.8837 	 44.0571 	 126.829
| 40> H 	 -68.2963 	 37.81 	 121.556
| 41> *
| 42>
| 43>                          ****END OF INPUT****

CARTESIAN COORDINATES (ANGSTROEM)
---------------------------------
  S    -69.012700   42.003200  125.391000
  C    -68.329600   43.302700  126.365000
  C    -66.927200   43.203500  126.341000
  C    -66.426800   42.151700  125.497000
  C    -67.408400   41.226300  125.109000
  H    -65.361600   41.923300  125.252000
  C    -65.964400   44.125100  126.970000
  H    -65.139600   43.495700  127.224000
  H    -66.426600   44.423300  128.026000
  C    -65.618200   45.315500  126.142000
  H    -66.538000   45.930800  125.939000
  H    -64.997200   45.793900  126.900000
  C    -64.727800   44.959000  124.958000
  H    -64.493800   45.827900  124.371000
  H    -63.781300   44.365500  125.171000
  H    -65.269700   44.261400  124.312000
  S    -68.426300   39.902200  122.888000
  C    -67.782300   38.453300  122.307000
  C    -66.925200   37.959100  123.242000
  C    -66.524700   38.957700  124.219000
  C    -67.319200   40.081500  124.213000
  H    -66.620800   36.901300  123.218000
  C    -65.414000   38.658000  125.216000
  H    -65.908500   37.870100  125.788000
  H    -65.277400   39.309000  126.108000
  C    -64.038400   38.312200  124.627000
  H    -64.311500   37.633000  123.834000
  H    -63.473700   37.730900  125.337000
  C    -63.313500   39.575200  124.076000
  H    -62.412600   39.242200  123.469000
  H    -62.964700   40.151100  124.981000
  H    -64.040700   40.124400  123.548000
  H    -68.883700   44.057100  126.829000
  H    -68.296300   37.810000  121.556000

 Total Charge           Charge          ....    0
 Multiplicity           Mult            ....    1
 Number of Electrons    NEL             ....  134
 Basis Dimension        Dim             ....  322

ORBITAL ENERGIES
----------------

  NO   OCC          E(Eh)            E(eV)
   0   2.0000     -88.965124     -2420.8641
   1   2.0000     -88.959767     -2420.7183
   2   2.0000     -10.337773      -281.3051
   3   2.0000     -10.326876      -281.0086
   4   2.0000     -10.316369      -280.7227
   5   2.0000     -10.315815      -280.7076
   6   2.0000     -10.307199      -280.4731
   7   2.0000     -10.301884      -280.3285
   8   2.0000     -10.300367      -280.2872
   9   2.0000     -10.297451      -280.2079
  10   2.0000     -10.291526      -280.0467
  11   2.0000     -10.290258      -280.0122
  12   2.0000     -10.289652      -279.9957
  13   2.0000     -10.285566      -279.8845
  14   2.0000     -10.284731      -279.8618
  15   2.0000     -10.281339      -279.7695
  16   2.0000      -8.078730      -219.8334
  17   2.0000      -8.076292      -219.7671
  18   2.0000      -6.037388      -164.2857
  19   2.0000      -6.034790      -164.2150
  20   2.0000      -6.033376      -164.1765
  21   2.0000      -6.030462      -164.0972
  22   2.0000      -6.029418      -164.0688
  23   2.0000      -6.026992      -164.0028
  24   2.0000      -1.012571       -27.5535
  25   2.0000      -0.983621       -26.7657
  26   2.0000      -0.921055       -25.0632
  27   2.0000      -0.909794       -24.7568
  28   2.0000      -0.872642       -23.7458
  29   2.0000      -0.847041       -23.0492
  30   2.0000      -0.840009       -22.8578
  31   2.0000      -0.817294       -22.2397
  32   2.0000      -0.781377       -21.2623
  33   2.0000      -0.773580       -21.0502
  34   2.0000      -0.707436       -19.2503
  35   2.0000      -0.705501       -19.1977
  36   2.0000      -0.695831       -18.9345
  37   2.0000      -0.655562       -17.8387
  38   2.0000      -0.639857       -17.4114
  39   2.0000      -0.614971       -16.7342
  40   2.0000      -0.600092       -16.3293
  41   2.0000      -0.578055       -15.7297
  42   2.0000      -0.560756       -15.2589
  43   2.0000      -0.549240       -14.9456
  44   2.0000      -0.540978       -14.7208
  45   2.0000      -0.529950       -14.4207
  46   2.0000      -0.519675       -14.1411
  47   2.0000      -0.514763       -14.0074
  48   2.0000      -0.507049       -13.7975
  49   2.0000      -0.496852       -13.5200
  50   2.0000      -0.488868       -13.3028
  51   2.0000      -0.481451       -13.1009
  52   2.0000      -0.470217       -12.7952
  53   2.0000      -0.467868       -12.7313
  54   2.0000      -0.461755       -12.5650
  55   2.0000      -0.450067       -12.2469
  56   2.0000      -0.443716       -12.0741
  57   2.0000      -0.438014       -11.9190
  58   2.0000      -0.436570       -11.8797
  59   2.0000      -0.422000       -11.4832
  60   2.0000      -0.414310       -11.2740
  61   2.0000      -0.403680       -10.9847
  62   2.0000      -0.400953       -10.9105
  63   2.0000      -0.355726        -9.6798
  64   2.0000      -0.326781        -8.8922
  65   2.0000      -0.321784        -8.7562
  66   2.0000      -0.290601        -7.9077
  67   0.0000       0.023043         0.6270
  68   0.0000       0.069848         1.9007
  69   0.0000       0.109350         2.9756
  70   0.0000       0.112923         3.0728
  71   0.0000       0.125710         3.4207

MULLIKEN ATOMIC CHARGES
-----------------------
   0 S :    0.083198
   1 C :   -0.086626
   2 C :   -0.101185
   3 C :    0.004676
   4 C :   -0.133792
   5 H :    0.034287
   6 C :   -0.000026
   7 H :    0.018163
   8 H :    0.040108
   9 C :   -0.018442
  10 H :    0.046105
  11 H :    0.030144
  12 C :   -0.066868
  13 H :    0.038659
  14 H :    0.037234
  15 H :    0.036168
  16 S :    0.094774
  17 C :   -0.088113
  18 C :   -0.058960
  19 C :   -0.067429
  20 C :   -0.122320
  21 H :    0.039537
  22 C :    0.002798
  23 H :    0.031716
  24 H :    0.020798
  25 C :   -0.045418
  26 H :    0.014957
  27 H :    0.025975
  28 C :   -0.056298
  29 H :    0.055307
  30 H :    0.036788
  31 H :    0.043896
  32 H :    0.030170
  33 H :    0.080019
Sum of atomic charges:    0.0000000

LOEWDIN ATOMIC CHARGES
----------------------
   0 S :    0.379078
   1 C :   -0.184517
   2 C :   -0.066269
   3 C :   -0.066198
   4 C :   -0.170649
   5 H :    0.037773
   6 C :   -0.044631
   7 H :    0.025509
   8 H :    0.041330
   9 C :   -0.041428
  10 H :    0.035580
  11 H :    0.028535
  12 C :   -0.070936
  13 H :    0.025353
  14 H :    0.034240
  15 H :    0.026039
  16 S :    0.426981
  17 C :   -0.209736
  18 C :   -0.077864
  19 C :   -0.059033
  20 C :   -0.210139
  21 H :    0.036174
  22 C :   -0.050505
  23 H :    0.038794
  24 H :    0.030079
  25 C :   -0.038421
  26 H :    0.018071
  27 H :    0.021214
  28 C :   -0.062678
  29 H :    0.037064
  30 H :    0.029321
  31 H :    0.019719
  32 H :    0.018556
  33 H :    0.043594

  Mayer bond orders larger than 0.100000
B(  0-S ,  1-C ) :   1.1350 B(  0-S ,  4-C ) :   1.1375 B(  1-C ,  2-C ) :   1.5824
B(  1-C ,  4-C ) :   0.1066 B(  1-C , 32-H ) :   0.9810 B(  2-C ,  3-C ) :   1.2480
B(  2-C ,  6-C ) :   1.0291 B(  3-C ,  4-C ) :   1.5640 B(  3-C ,  5-H ) :   0.9737
B(  4-C , 20-C ) :   1.0641 B(  6-C ,  7-H ) :   0.9358 B(  6-C ,  8-H ) :   0.9403
B(  6-C ,  9-C ) :   1.0651 B(  9-C , 10-H ) :   0.9519 B(  9-C , 11-H ) :   0.9506
B(  9-C , 12-C ) :   1.0756 B( 12-C , 13-H ) :   0.9715 B( 12-C , 14-H ) :   0.9710
B( 12-C , 15-H ) :   0.9695 B( 16-S , 17-C ) :   1.1712 B( 16-S , 20-C ) :   1.1353
B( 17-C , 18-C ) :   1.6035 B( 17-C , 33-H ) :   0.9581 B( 18-C , 19-C ) :   1.2441
B( 18-C , 21-H ) :   0.9800 B( 19-C , 20-C ) :   1.5890 B( 19-C , 22-C ) :   1.0307
B( 22-C , 23-H ) :   0.9299 B( 22-C , 24-H ) :   0.9421 B( 22-C , 25-C ) :   1.0633
B( 25-C , 26-H ) :   0.9570 B( 25-C , 27-H ) :   0.9547 B( 25-C , 28-C ) :   1.0637
B( 28-C , 29-H ) :   0.9734 B( 28-C , 30-H ) :   0.9742 B( 28-C , 31-H ) :   0.9754

Dispersion correction           -0.014964753
FINAL SINGLE POINT ENERGY     -1339.852869697010

DIPOLE MOMENT
-------------
                                X             Y             Z
Electronic contribution:    -25.54510      -6.16969      -5.71917
Nuclear contribution   :     26.08556       6.06963       5.95905
                        -----------------------------------------
Total Dipole Moment    :      0.54046      -0.10006       0.23988
                        -----------------------------------------
Magnitude (a.u.)       :      0.59971
Magnitude (Debye)      :      1.52433

Rotational constants in cm-1:     0.018727     0.009485     0.007183
Rotational constants in MHz :   561.427179   284.339190   215.351897

                             ****ORCA TERMINATED NORMALLY****
TOTAL RUN TIME: 0 days 0 hours 0 minutes 35 seconds 102 msec
