                         Program Version 4.2.1 -  RELEASE  -
|  1> ! wB97X-D3 SP def2-SVP
|  2> %pal
|  3> nprocs 16
|  4> end
|  5>
|  6> * xyz 0 1
|  7> S 	 -75.5527 	 52.2553 	 140.214
|  8> C 	 -73.9213 	 52.9626 	 140.357
|  9> C 	 -73.6977 	 53.6381 	 139.161
| 10> C 	 -74.7877 	 53.6965 	 138.268
| 11> C 	 -75.9297 	 53.0803 	 138.708
| 12> H 	 -74.869 	 54.1662 	 137.326
| 13> C 	 -72.3288 	 54.312 	 138.855
| 14> H 	 -72.0981 	 53.8204 	 137.931
| 15> H 	 -71.5741 	 54.07 	 139.644
| 16> C 	 -72.3591 	 55.8983 	 138.753
| 17> H 	 -73.3047 	 56.2344 	 138.34
| 18> H 	 -72.3612 	 56.3267 	 139.76
| 19> C 	 -71.2085 	 56.4649 	 137.851
| 20> H 	 -70.2024 	 55.956 	 137.777
| 21> H 	 -71.4861 	 56.3899 	 136.784
| 22> H 	 -71.0379 	 57.5061 	 137.95
| 23> S 	 -78.299 	 54.3342 	 138.247
| 24> C 	 -79.4374 	 53.5147 	 137.227
| 25> C 	 -79.0412 	 52.2688 	 136.877
| 26> C 	 -77.7958 	 51.8846 	 137.5
| 27> C 	 -77.2321 	 52.9403 	 138.154
| 28> H 	 -79.6921 	 51.6679 	 136.253
| 29> C 	 -77.302 	 50.4881 	 137.411
| 30> H 	 -77.7456 	 49.8773 	 138.195
| 31> H 	 -76.3366 	 50.5802 	 137.778
| 32> C 	 -77.2534 	 49.784 	 136.028
| 33> H 	 -76.7883 	 50.4474 	 135.361
| 34> H 	 -78.3186 	 49.7213 	 135.632
| 35> C 	 -76.658 	 48.3645 	 135.949
| 36> H 	 -75.8272 	 48.3044 	 136.655
| 37> H 	 -76.3446 	 48.0152 	 134.996
| 38> H 	 -77.4416 	 47.6306 	 136.297
| 39> H 	 -73.0843 	 52.7474 	 141.069
| 40> H 	 -80.3369 	 53.9496 	 136.811
| 41> *
| 42>
| 43>                          ****END OF INPUT****

CARTESIAN COORDINATES (ANGSTROEM)
---------------------------------
  S    -75.552700   52.255300  140.214000
  C    -73.921300   52.962600  140.357000
  C    -73.697700   53.638100  139.161000
  C    -74.787700   53.696500  138.268000
  C    -75.929700   53.080300  138.708000
  H    -74.869000   54.166200  137.326000
  C    -72.328800   54.312000  138.855000
  H    -72.098100   53.820400  137.931000
  H    -71.574100   54.070000  139.644000
  C    -72.359100   55.898300  138.753000
  H    -73.304700   56.234400  138.340000
  H    -72.361200   56.326700  139.760000
  C    -71.208500   56.464900  137.851000
  H    -70.202400   55.956000  137.777000
  H    -71.486100   56.389900  136.784000
  H    -71.037900   57.506100  137.950000
  S    -78.299000   54.334200  138.247000
  C    -79.437400   53.514700  137.227000
  C    -79.041200   52.268800  136.877000
  C    -77.795800   51.884600  137.500000
  C    -77.232100   52.940300  138.154000
  H    -79.692100   51.667900  136.253000
  C    -77.302000   50.488100  137.411000
  H    -77.745600   49.877300  138.195000
  H    -76.336600   50.580200  137.778000
  C    -77.253400   49.784000  136.028000
  H    -76.788300   50.447400  135.361000
  H    -78.318600   49.721300  135.632000
  C    -76.658000   48.364500  135.949000
  H    -75.827200   48.304400  136.655000
  H    -76.344600   48.015200  134.996000
  H    -77.441600   47.630600  136.297000
  H    -73.084300   52.747400  141.069000
  H    -80.336900   53.949600  136.811000

 Total Charge           Charge          ....    0
 Multiplicity           Mult            ....    1
 Number of Electrons    NEL             ....  134
 Basis Dimension        Dim             ....  322

ORBITAL ENERGIES
----------------

  NO   OCC          E(Eh)            E(eV)
   0   2.0000     -88.966029     -2420.8887
   1   2.0000     -88.960952     -2420.7506
   2   2.0000     -10.326733      -281.0047
   3   2.0000     -10.322533      -280.8904
   4   2.0000     -10.319400      -280.8051
   5   2.0000     -10.313382      -280.6414
   6   2.0000     -10.303938      -280.3844
   7   2.0000     -10.302399      -280.3425
   8   2.0000     -10.298059      -280.2244
   9   2.0000     -10.294366      -280.1239
  10   2.0000     -10.290689      -280.0239
  11   2.0000     -10.289682      -279.9965
  12   2.0000     -10.289653      -279.9957
  13   2.0000     -10.283847      -279.8377
  14   2.0000     -10.281780      -279.7815
  15   2.0000     -10.281565      -279.7756
  16   2.0000      -8.081156      -219.8994
  17   2.0000      -8.074943      -219.7304
  18   2.0000      -6.039712      -164.3489
  19   2.0000      -6.035678      -164.2391
  20   2.0000      -6.033523      -164.1805
  21   2.0000      -6.031769      -164.1328
  22   2.0000      -6.029405      -164.0684
  23   2.0000      -6.025789      -163.9700
  24   2.0000      -1.011498       -27.5243
  25   2.0000      -0.984794       -26.7976
  26   2.0000      -0.909804       -24.7570
  27   2.0000      -0.900009       -24.4905
  28   2.0000      -0.871209       -23.7068
  29   2.0000      -0.852753       -23.2046
  30   2.0000      -0.840393       -22.8683
  31   2.0000      -0.819407       -22.2972
  32   2.0000      -0.786156       -21.3924
  33   2.0000      -0.769346       -20.9350
  34   2.0000      -0.712721       -19.3941
  35   2.0000      -0.706751       -19.2317
  36   2.0000      -0.697692       -18.9852
  37   2.0000      -0.659572       -17.9479
  38   2.0000      -0.641855       -17.4658
  39   2.0000      -0.618284       -16.8244
  40   2.0000      -0.600293       -16.3348
  41   2.0000      -0.564744       -15.3675
  42   2.0000      -0.558738       -15.2040
  43   2.0000      -0.550460       -14.9788
  44   2.0000      -0.529824       -14.4172
  45   2.0000      -0.526388       -14.3237
  46   2.0000      -0.518269       -14.1028
  47   2.0000      -0.510685       -13.8964
  48   2.0000      -0.509157       -13.8549
  49   2.0000      -0.500741       -13.6259
  50   2.0000      -0.486399       -13.2356
  51   2.0000      -0.479794       -13.0559
  52   2.0000      -0.470534       -12.8039
  53   2.0000      -0.467644       -12.7252
  54   2.0000      -0.461520       -12.5586
  55   2.0000      -0.453707       -12.3460
  56   2.0000      -0.444390       -12.0925
  57   2.0000      -0.440115       -11.9761
  58   2.0000      -0.433785       -11.8039
  59   2.0000      -0.428430       -11.6582
  60   2.0000      -0.416717       -11.3394
  61   2.0000      -0.410369       -11.1667
  62   2.0000      -0.403786       -10.9876
  63   2.0000      -0.335626        -9.1329
  64   2.0000      -0.332454        -9.0465
  65   2.0000      -0.323986        -8.8161
  66   2.0000      -0.308714        -8.4005
  67   0.0000       0.039756         1.0818
  68   0.0000       0.058900         1.6027
  69   0.0000       0.115422         3.1408
  70   0.0000       0.117706         3.2029
  71   0.0000       0.130485         3.5507

MULLIKEN ATOMIC CHARGES
-----------------------
   0 S :    0.092266
   1 C :   -0.124183
   2 C :   -0.112142
   3 C :    0.076636
   4 C :   -0.201810
   5 H :   -0.006965
   6 C :    0.055637
   7 H :    0.033690
   8 H :    0.031162
   9 C :   -0.052890
  10 H :    0.030419
  11 H :    0.035958
  12 C :   -0.077585
  13 H :    0.039715
  14 H :    0.023832
  15 H :    0.028958
  16 S :    0.125528
  17 C :   -0.078261
  18 C :   -0.040832
  19 C :   -0.014712
  20 C :   -0.187536
  21 H :    0.017871
  22 C :    0.137057
  23 H :    0.037685
  24 H :   -0.012447
  25 C :   -0.098434
  26 H :    0.020421
  27 H :    0.031590
  28 C :   -0.031981
  29 H :    0.030294
  30 H :    0.033852
  31 H :    0.035656
  32 H :    0.070308
  33 H :    0.051243
Sum of atomic charges:    0.0000000

LOEWDIN ATOMIC CHARGES
----------------------
   0 S :    0.387805
   1 C :   -0.203894
   2 C :   -0.067513
   3 C :   -0.062207
   4 C :   -0.187532
   5 H :    0.027891
   6 C :   -0.025989
   7 H :    0.028371
   8 H :    0.032696
   9 C :   -0.035874
  10 H :    0.023663
  11 H :    0.026560
  12 C :   -0.081396
  13 H :    0.032152
  14 H :    0.027935
  15 H :    0.020356
  16 S :    0.409860
  17 C :   -0.182272
  18 C :   -0.071985
  19 C :   -0.040733
  20 C :   -0.209719
  21 H :    0.031477
  22 C :   -0.033330
  23 H :    0.038632
  24 H :    0.017790
  25 C :   -0.038505
  26 H :    0.016842
  27 H :    0.025785
  28 C :   -0.063215
  29 H :    0.025570
  30 H :    0.023025
  31 H :    0.033003
  32 H :    0.044921
  33 H :    0.029829

  Mayer bond orders larger than 0.100000
B(  0-S ,  1-C ) :   1.1274 B(  0-S ,  4-C ) :   1.1455 B(  1-C ,  2-C ) :   1.6149
B(  1-C ,  4-C ) :   0.1076 B(  1-C , 32-H ) :   0.9618 B(  2-C ,  3-C ) :   1.2230
B(  2-C ,  6-C ) :   1.0104 B(  3-C ,  4-C ) :   1.6031 B(  3-C ,  5-H ) :   1.0052
B(  4-C , 20-C ) :   1.0128 B(  6-C ,  7-H ) :   0.9482 B(  6-C ,  8-H ) :   0.9482
B(  6-C ,  9-C ) :   1.0448 B(  9-C , 10-H ) :   0.9651 B(  9-C , 11-H ) :   0.9618
B(  9-C , 12-C ) :   1.0565 B( 12-C , 13-H ) :   0.9795 B( 12-C , 14-H ) :   0.9757
B( 12-C , 15-H ) :   0.9773 B( 16-S , 17-C ) :   1.1415 B( 16-S , 20-C ) :   1.1315
B( 17-C , 18-C ) :   1.6595 B( 17-C , 33-H ) :   0.9618 B( 18-C , 19-C ) :   1.1933
B( 18-C , 21-H ) :   0.9903 B( 19-C , 20-C ) :   1.6248 B( 19-C , 22-C ) :   1.0561
B( 22-C , 23-H ) :   0.9226 B( 22-C , 24-H ) :   0.9006 B( 22-C , 25-C ) :   1.0534
B( 25-C , 26-H ) :   0.9598 B( 25-C , 27-H ) :   0.9561 B( 25-C , 28-C ) :   1.0781
B( 28-C , 29-H ) :   0.9771 B( 28-C , 30-H ) :   0.9762 B( 28-C , 31-H ) :   0.9749

Dispersion correction           -0.013704126
FINAL SINGLE POINT ENERGY     -1339.866573082958

DIPOLE MOMENT
-------------
                                X             Y             Z
Electronic contribution:    -16.41904       4.70705      12.34322
Nuclear contribution   :     16.63851      -4.84120     -12.86416
                        -----------------------------------------
Total Dipole Moment    :      0.21947      -0.13415      -0.52094
                        -----------------------------------------
Magnitude (a.u.)       :      0.58099
Magnitude (Debye)      :      1.47675

Rotational constants in cm-1:     0.018277     0.007453     0.006520
Rotational constants in MHz :   547.915807   223.444856   195.456942

                             ****ORCA TERMINATED NORMALLY****
TOTAL RUN TIME: 0 days 0 hours 0 minutes 30 seconds 991 msec
