                         Program Version 4.2.1 -  RELEASE  -
|  1> ! wB97X-D3 SP def2-SVP
|  2> %pal
|  3> nprocs 16
|  4> end
|  5>
|  6> * xyz 0 1
|  7> S 	 -33.044 	 63.0512 	 110.304
|  8> C 	 -33.9479 	 62.9886 	 111.833
|  9> C 	 -33.9486 	 64.1765 	 112.531
| 10> C 	 -33.2812 	 65.1328 	 111.813
| 11> C 	 -32.7179 	 64.746 	 110.631
| 12> H 	 -33.1601 	 66.1644 	 112.162
| 13> C 	 -34.5878 	 64.3855 	 113.964
| 14> H 	 -34.2013 	 65.2303 	 114.491
| 15> H 	 -34.4207 	 63.5412 	 114.56
| 16> C 	 -36.1197 	 64.6507 	 113.962
| 17> H 	 -36.3714 	 64.7768 	 115.015
| 18> H 	 -36.2295 	 65.6577 	 113.654
| 19> C 	 -37.1411 	 63.7026 	 113.196
| 20> H 	 -36.6207 	 63.8792 	 112.264
| 21> H 	 -37.0459 	 62.6538 	 113.487
| 22> H 	 -38.1529 	 64.0414 	 113.117
| 23> S 	 -30.4938 	 64.9803 	 109.152
| 24> C 	 -30.0908 	 66.3648 	 108.205
| 25> C 	 -30.9793 	 67.3728 	 108.451
| 26> C 	 -32.0862 	 66.9753 	 109.346
| 27> C 	 -31.9118 	 65.6389 	 109.794
| 28> H 	 -30.9026 	 68.3216 	 107.994
| 29> C 	 -33.0836 	 68.0083 	 109.973
| 30> H 	 -32.6474 	 68.3868 	 110.907
| 31> H 	 -33.9914 	 67.5235 	 110.224
| 32> C 	 -33.5362 	 69.0729 	 108.96
| 33> H 	 -33.767 	 68.7386 	 107.953
| 34> H 	 -32.5837 	 69.6538 	 108.859
| 35> C 	 -34.6579 	 69.9327 	 109.509
| 36> H 	 -34.2895 	 70.4945 	 110.306
| 37> H 	 -35.5131 	 69.2569 	 109.772
| 38> H 	 -34.9051 	 70.693 	 108.709
| 39> H 	 -34.0355 	 62.0906 	 112.372
| 40> H 	 -29.2396 	 66.4129 	 107.485
| 41> *
| 42>
| 43>                          ****END OF INPUT****

CARTESIAN COORDINATES (ANGSTROEM)
---------------------------------
  S    -33.044000   63.051200  110.304000
  C    -33.947900   62.988600  111.833000
  C    -33.948600   64.176500  112.531000
  C    -33.281200   65.132800  111.813000
  C    -32.717900   64.746000  110.631000
  H    -33.160100   66.164400  112.162000
  C    -34.587800   64.385500  113.964000
  H    -34.201300   65.230300  114.491000
  H    -34.420700   63.541200  114.560000
  C    -36.119700   64.650700  113.962000
  H    -36.371400   64.776800  115.015000
  H    -36.229500   65.657700  113.654000
  C    -37.141100   63.702600  113.196000
  H    -36.620700   63.879200  112.264000
  H    -37.045900   62.653800  113.487000
  H    -38.152900   64.041400  113.117000
  S    -30.493800   64.980300  109.152000
  C    -30.090800   66.364800  108.205000
  C    -30.979300   67.372800  108.451000
  C    -32.086200   66.975300  109.346000
  C    -31.911800   65.638900  109.794000
  H    -30.902600   68.321600  107.994000
  C    -33.083600   68.008300  109.973000
  H    -32.647400   68.386800  110.907000
  H    -33.991400   67.523500  110.224000
  C    -33.536200   69.072900  108.960000
  H    -33.767000   68.738600  107.953000
  H    -32.583700   69.653800  108.859000
  C    -34.657900   69.932700  109.509000
  H    -34.289500   70.494500  110.306000
  H    -35.513100   69.256900  109.772000
  H    -34.905100   70.693000  108.709000
  H    -34.035500   62.090600  112.372000
  H    -29.239600   66.412900  107.485000

 Total Charge           Charge          ....    0
 Multiplicity           Mult            ....    1
 Number of Electrons    NEL             ....  134
 Basis Dimension        Dim             ....  322

ORBITAL ENERGIES
----------------

  NO   OCC          E(Eh)            E(eV)
   0   2.0000     -88.971574     -2421.0396
   1   2.0000     -88.962230     -2420.7853
   2   2.0000     -10.329628      -281.0835
   3   2.0000     -10.325939      -280.9831
   4   2.0000     -10.317334      -280.7489
   5   2.0000     -10.310702      -280.5685
   6   2.0000     -10.309950      -280.5480
   7   2.0000     -10.301378      -280.3148
   8   2.0000     -10.297365      -280.2055
   9   2.0000     -10.294109      -280.1169
  10   2.0000     -10.293625      -280.1038
  11   2.0000     -10.287797      -279.9452
  12   2.0000     -10.285978      -279.8957
  13   2.0000     -10.285969      -279.8955
  14   2.0000     -10.281049      -279.7616
  15   2.0000     -10.276224      -279.6303
  16   2.0000      -8.085605      -220.0205
  17   2.0000      -8.078737      -219.8336
  18   2.0000      -6.044083      -164.4679
  19   2.0000      -6.040307      -164.3651
  20   2.0000      -6.037125      -164.2785
  21   2.0000      -6.036325      -164.2568
  22   2.0000      -6.032781      -164.1603
  23   2.0000      -6.029728      -164.0772
  24   2.0000      -1.011535       -27.5253
  25   2.0000      -0.988604       -26.9013
  26   2.0000      -0.910885       -24.7864
  27   2.0000      -0.906508       -24.6673
  28   2.0000      -0.869695       -23.6656
  29   2.0000      -0.852342       -23.1934
  30   2.0000      -0.843422       -22.9507
  31   2.0000      -0.814084       -22.1524
  32   2.0000      -0.791003       -21.5243
  33   2.0000      -0.772903       -21.0318
  34   2.0000      -0.705484       -19.1972
  35   2.0000      -0.697781       -18.9876
  36   2.0000      -0.696438       -18.9511
  37   2.0000      -0.654732       -17.8162
  38   2.0000      -0.637397       -17.3445
  39   2.0000      -0.625310       -17.0155
  40   2.0000      -0.597108       -16.2481
  41   2.0000      -0.573474       -15.6050
  42   2.0000      -0.569178       -15.4881
  43   2.0000      -0.549643       -14.9565
  44   2.0000      -0.542353       -14.7582
  45   2.0000      -0.528161       -14.3720
  46   2.0000      -0.515759       -14.0345
  47   2.0000      -0.514368       -13.9967
  48   2.0000      -0.504307       -13.7229
  49   2.0000      -0.498330       -13.5602
  50   2.0000      -0.490005       -13.3337
  51   2.0000      -0.480771       -13.0824
  52   2.0000      -0.473109       -12.8740
  53   2.0000      -0.466442       -12.6925
  54   2.0000      -0.461761       -12.5652
  55   2.0000      -0.451170       -12.2770
  56   2.0000      -0.444089       -12.0843
  57   2.0000      -0.442900       -12.0519
  58   2.0000      -0.438947       -11.9444
  59   2.0000      -0.428451       -11.6587
  60   2.0000      -0.417334       -11.3562
  61   2.0000      -0.403188       -10.9713
  62   2.0000      -0.403130       -10.9697
  63   2.0000      -0.349056        -9.4983
  64   2.0000      -0.341202        -9.2846
  65   2.0000      -0.326404        -8.8819
  66   2.0000      -0.291719        -7.9381
  67   0.0000       0.023563         0.6412
  68   0.0000       0.076107         2.0710
  69   0.0000       0.111105         3.0233
  70   0.0000       0.121122         3.2959
  71   0.0000       0.133112         3.6222

MULLIKEN ATOMIC CHARGES
-----------------------
   0 S :    0.118288
   1 C :   -0.104869
   2 C :   -0.095814
   3 C :   -0.006040
   4 C :   -0.115874
   5 H :    0.006842
   6 C :    0.119285
   7 H :    0.019226
   8 H :    0.016657
   9 C :   -0.098768
  10 H :    0.015606
  11 H :    0.008956
  12 C :   -0.039803
  13 H :    0.043149
  14 H :    0.038775
  15 H :    0.042746
  16 S :    0.102770
  17 C :   -0.103223
  18 C :   -0.026904
  19 C :   -0.048508
  20 C :   -0.161362
  21 H :    0.009457
  22 C :    0.053599
  23 H :    0.054356
  24 H :    0.011055
  25 C :   -0.132975
  26 H :    0.039366
  27 H :    0.028481
  28 C :   -0.019078
  29 H :    0.019493
  30 H :    0.047599
  31 H :    0.041204
  32 H :    0.041376
  33 H :    0.074933
Sum of atomic charges:    0.0000000

LOEWDIN ATOMIC CHARGES
----------------------
   0 S :    0.399389
   1 C :   -0.187545
   2 C :   -0.059615
   3 C :   -0.068076
   4 C :   -0.191113
   5 H :    0.032528
   6 C :   -0.011229
   7 H :    0.031844
   8 H :    0.021928
   9 C :   -0.038707
  10 H :    0.016699
  11 H :    0.015536
  12 C :   -0.067654
  13 H :    0.032263
  14 H :    0.025425
  15 H :    0.026138
  16 S :    0.438892
  17 C :   -0.203232
  18 C :   -0.070764
  19 C :   -0.053840
  20 C :   -0.216268
  21 H :    0.023200
  22 C :   -0.030157
  23 H :    0.034708
  24 H :    0.019892
  25 C :   -0.048989
  26 H :    0.024936
  27 H :    0.023343
  28 C :   -0.062562
  29 H :    0.016087
  30 H :    0.032318
  31 H :    0.035801
  32 H :    0.017547
  33 H :    0.041278

  Mayer bond orders larger than 0.100000
B(  0-S ,  1-C ) :   1.1416 B(  0-S ,  4-C ) :   1.1460 B(  1-C ,  2-C ) :   1.6000
B(  1-C ,  4-C ) :   0.1019 B(  1-C , 32-H ) :   0.9570 B(  2-C ,  3-C ) :   1.2856
B(  2-C ,  6-C ) :   1.0059 B(  3-C ,  4-C ) :   1.5547 B(  3-C ,  5-H ) :   0.9939
B(  4-C , 20-C ) :   1.0460 B(  6-C ,  7-H ) :   0.9426 B(  6-C ,  8-H ) :   0.9424
B(  6-C ,  9-C ) :   1.0752 B(  9-C , 10-H ) :   0.9532 B(  9-C , 11-H ) :   0.9607
B(  9-C , 12-C ) :   1.0465 B( 12-C , 13-H ) :   0.9744 B( 12-C , 14-H ) :   0.9790
B( 12-C , 15-H ) :   0.9757 B( 16-S , 17-C ) :   1.1618 B( 16-S , 20-C ) :   1.1694
B( 17-C , 18-C ) :   1.5928 B( 17-C , 33-H ) :   0.9641 B( 18-C , 19-C ) :   1.2479
B( 18-C , 21-H ) :   0.9946 B( 19-C , 20-C ) :   1.5599 B( 19-C , 22-C ) :   1.0388
B( 22-C , 23-H ) :   0.9414 B( 22-C , 24-H ) :   0.9334 B( 22-C , 25-C ) :   1.0458
B( 25-C , 26-H ) :   0.9658 B( 25-C , 27-H ) :   0.9485 B( 25-C , 28-C ) :   1.0886
B( 28-C , 29-H ) :   0.9714 B( 28-C , 30-H ) :   0.9732 B( 28-C , 31-H ) :   0.9715

Dispersion correction           -0.013766115
FINAL SINGLE POINT ENERGY     -1339.851622198780

DIPOLE MOMENT
-------------
                                X             Y             Z
Electronic contribution:     21.30006     -17.05492     -11.31704
Nuclear contribution   :    -21.41826      17.63668      11.67398
                        -----------------------------------------
Total Dipole Moment    :     -0.11820       0.58176       0.35694
                        -----------------------------------------
Magnitude (a.u.)       :      0.69269
Magnitude (Debye)      :      1.76068

Rotational constants in cm-1:     0.017273     0.008832     0.006299
Rotational constants in MHz :   517.816620   264.782157   188.845388

                             ****ORCA TERMINATED NORMALLY****
TOTAL RUN TIME: 0 days 0 hours 0 minutes 26 seconds 641 msec
