                         Program Version 4.2.1 -  RELEASE  -
|  1> ! wB97X-D3 SP def2-SVP
|  2> %pal
|  3> nprocs 16
|  4> end
|  5>
|  6> * xyz 0 1
|  7> S 	 -5.34615 	 -12.1266 	 84.1659
|  8> C 	 -4.80729 	 -10.7265 	 83.2871
|  9> C 	 -5.58287 	 -9.66008 	 83.7402
| 10> C 	 -6.64502 	 -10.004 	 84.5889
| 11> C 	 -6.72059 	 -11.3048 	 84.8721
| 12> H 	 -7.38168 	 -9.32059 	 85.0441
| 13> C 	 -5.18877 	 -8.21276 	 83.4896
| 14> H 	 -6.11755 	 -7.72278 	 83.0872
| 15> H 	 -4.50019 	 -8.34844 	 82.6242
| 16> C 	 -4.44749 	 -7.41951 	 84.5673
| 17> H 	 -5.02299 	 -7.28766 	 85.4573
| 18> H 	 -3.61836 	 -7.99963 	 84.9056
| 19> C 	 -3.97579 	 -6.04818 	 84.1436
| 20> H 	 -3.20318 	 -6.1889 	 83.5444
| 21> H 	 -4.8543 	 -5.44556 	 83.6886
| 22> H 	 -3.60613 	 -5.35327 	 84.9383
| 23> S 	 -7.13726 	 -12.7834 	 87.1726
| 24> C 	 -8.68237 	 -13.2535 	 87.6817
| 25> C 	 -9.61983 	 -12.7086 	 86.9136
| 26> C 	 -9.13106 	 -11.9194 	 85.8103
| 27> C 	 -7.76913 	 -11.9416 	 85.771
| 28> H 	 -10.6351 	 -12.8436 	 87.2413
| 29> C 	 -10.0301 	 -11.1822 	 84.8001
| 30> H 	 -10.3405 	 -11.9271 	 83.9851
| 31> H 	 -9.38538 	 -10.3316 	 84.3923
| 32> C 	 -11.3665 	 -10.6883 	 85.3416
| 33> H 	 -11.1239 	 -9.79315 	 86.0271
| 34> H 	 -11.8576 	 -11.5314 	 85.8807
| 35> C 	 -12.1578 	 -10.1859 	 84.1213
| 36> H 	 -11.6277 	 -9.47708 	 83.5198
| 37> H 	 -13.0888 	 -9.71443 	 84.4359
| 38> H 	 -12.3574 	 -10.9766 	 83.3807
| 39> H 	 -4.05361 	 -10.7499 	 82.553
| 40> H 	 -8.82283 	 -13.7492 	 88.6884
| 41> *
| 42>
| 43>                          ****END OF INPUT****

CARTESIAN COORDINATES (ANGSTROEM)
---------------------------------
  S     -5.346150  -12.126600   84.165900
  C     -4.807290  -10.726500   83.287100
  C     -5.582870   -9.660080   83.740200
  C     -6.645020  -10.004000   84.588900
  C     -6.720590  -11.304800   84.872100
  H     -7.381680   -9.320590   85.044100
  C     -5.188770   -8.212760   83.489600
  H     -6.117550   -7.722780   83.087200
  H     -4.500190   -8.348440   82.624200
  C     -4.447490   -7.419510   84.567300
  H     -5.022990   -7.287660   85.457300
  H     -3.618360   -7.999630   84.905600
  C     -3.975790   -6.048180   84.143600
  H     -3.203180   -6.188900   83.544400
  H     -4.854300   -5.445560   83.688600
  H     -3.606130   -5.353270   84.938300
  S     -7.137260  -12.783400   87.172600
  C     -8.682370  -13.253500   87.681700
  C     -9.619830  -12.708600   86.913600
  C     -9.131060  -11.919400   85.810300
  C     -7.769130  -11.941600   85.771000
  H    -10.635100  -12.843600   87.241300
  C    -10.030100  -11.182200   84.800100
  H    -10.340500  -11.927100   83.985100
  H     -9.385380  -10.331600   84.392300
  C    -11.366500  -10.688300   85.341600
  H    -11.123900   -9.793150   86.027100
  H    -11.857600  -11.531400   85.880700
  C    -12.157800  -10.185900   84.121300
  H    -11.627700   -9.477080   83.519800
  H    -13.088800   -9.714430   84.435900
  H    -12.357400  -10.976600   83.380700
  H     -4.053610  -10.749900   82.553000
  H     -8.822830  -13.749200   88.688400

 Total Charge           Charge          ....    0
 Multiplicity           Mult            ....    1
 Number of Electrons    NEL             ....  134
 Basis Dimension        Dim             ....  322

ORBITAL ENERGIES
----------------

  NO   OCC          E(Eh)            E(eV)
   0   2.0000     -88.964151     -2420.8376
   1   2.0000     -88.957283     -2420.6507
   2   2.0000     -10.329620      -281.0833
   3   2.0000     -10.328054      -281.0406
   4   2.0000     -10.315027      -280.6862
   5   2.0000     -10.311895      -280.6009
   6   2.0000     -10.304288      -280.3939
   7   2.0000     -10.301956      -280.3305
   8   2.0000     -10.299709      -280.2693
   9   2.0000     -10.298152      -280.2270
  10   2.0000     -10.295289      -280.1491
  11   2.0000     -10.287858      -279.9469
  12   2.0000     -10.287666      -279.9416
  13   2.0000     -10.280646      -279.7506
  14   2.0000     -10.279077      -279.7079
  15   2.0000     -10.275812      -279.6190
  16   2.0000      -8.079177      -219.8456
  17   2.0000      -8.073813      -219.6996
  18   2.0000      -6.037676      -164.2935
  19   2.0000      -6.033573      -164.1819
  20   2.0000      -6.032214      -164.1449
  21   2.0000      -6.029969      -164.0838
  22   2.0000      -6.028040      -164.0313
  23   2.0000      -6.024602      -163.9378
  24   2.0000      -1.013622       -27.5821
  25   2.0000      -0.995781       -27.0966
  26   2.0000      -0.911254       -24.7965
  27   2.0000      -0.910996       -24.7895
  28   2.0000      -0.872574       -23.7439
  29   2.0000      -0.853654       -23.2291
  30   2.0000      -0.846893       -23.0451
  31   2.0000      -0.823916       -22.4199
  32   2.0000      -0.777956       -21.1693
  33   2.0000      -0.769702       -20.9447
  34   2.0000      -0.705942       -19.2097
  35   2.0000      -0.698484       -19.0067
  36   2.0000      -0.695129       -18.9154
  37   2.0000      -0.651457       -17.7270
  38   2.0000      -0.644094       -17.5267
  39   2.0000      -0.622684       -16.9441
  40   2.0000      -0.598125       -16.2758
  41   2.0000      -0.572767       -15.5858
  42   2.0000      -0.571708       -15.5570
  43   2.0000      -0.564515       -15.3612
  44   2.0000      -0.529502       -14.4085
  45   2.0000      -0.526287       -14.3210
  46   2.0000      -0.518328       -14.1044
  47   2.0000      -0.512557       -13.9474
  48   2.0000      -0.505495       -13.7552
  49   2.0000      -0.497985       -13.5509
  50   2.0000      -0.494706       -13.4616
  51   2.0000      -0.483716       -13.1626
  52   2.0000      -0.469791       -12.7837
  53   2.0000      -0.466077       -12.6826
  54   2.0000      -0.461345       -12.5538
  55   2.0000      -0.447846       -12.1865
  56   2.0000      -0.446808       -12.1583
  57   2.0000      -0.430771       -11.7219
  58   2.0000      -0.426965       -11.6183
  59   2.0000      -0.425541       -11.5796
  60   2.0000      -0.417477       -11.3601
  61   2.0000      -0.415124       -11.2961
  62   2.0000      -0.411162       -11.1883
  63   2.0000      -0.352242        -9.5850
  64   2.0000      -0.329374        -8.9627
  65   2.0000      -0.328299        -8.9335
  66   2.0000      -0.300189        -8.1686
  67   0.0000       0.039770         1.0822
  68   0.0000       0.069505         1.8913
  69   0.0000       0.120021         3.2659
  70   0.0000       0.127418         3.4672
  71   0.0000       0.131017         3.5651

MULLIKEN ATOMIC CHARGES
-----------------------
   0 S :    0.106131
   1 C :   -0.109640
   2 C :   -0.097276
   3 C :    0.025977
   4 C :   -0.134941
   5 H :    0.027501
   6 C :    0.038638
   7 H :    0.031727
   8 H :    0.011287
   9 C :   -0.010485
  10 H :    0.015121
  11 H :    0.016167
  12 C :   -0.042208
  13 H :    0.005476
  14 H :    0.039701
  15 H :    0.037213
  16 S :    0.091718
  17 C :   -0.103889
  18 C :   -0.046480
  19 C :   -0.001425
  20 C :   -0.173247
  21 H :    0.010235
  22 C :    0.010198
  23 H :    0.051565
  24 H :    0.037332
  25 C :   -0.115592
  26 H :    0.047622
  27 H :    0.050672
  28 C :   -0.020656
  29 H :    0.017941
  30 H :    0.035697
  31 H :    0.027141
  32 H :    0.040005
  33 H :    0.080775
Sum of atomic charges:   -0.0000000

LOEWDIN ATOMIC CHARGES
----------------------
   0 S :    0.410503
   1 C :   -0.191270
   2 C :   -0.067530
   3 C :   -0.075368
   4 C :   -0.189989
   5 H :    0.038783
   6 C :   -0.035598
   7 H :    0.031763
   8 H :    0.030186
   9 C :   -0.038953
  10 H :    0.019481
  11 H :    0.023939
  12 C :   -0.059369
  13 H :    0.002166
  14 H :    0.036051
  15 H :    0.033787
  16 S :    0.413829
  17 C :   -0.203897
  18 C :   -0.083557
  19 C :   -0.063181
  20 C :   -0.189427
  21 H :    0.028802
  22 C :   -0.040714
  23 H :    0.041754
  24 H :    0.036420
  25 C :   -0.048126
  26 H :    0.034651
  27 H :    0.028380
  28 C :   -0.066113
  29 H :    0.022508
  30 H :    0.025442
  31 H :    0.027086
  32 H :    0.022499
  33 H :    0.045064

  Mayer bond orders larger than 0.100000
B(  0-S ,  1-C ) :   1.1433 B(  0-S ,  4-C ) :   1.1619 B(  1-C ,  2-C ) :   1.5739
B(  1-C , 32-H ) :   0.9839 B(  2-C ,  3-C ) :   1.2536 B(  2-C ,  6-C ) :   1.0295
B(  3-C ,  4-C ) :   1.5848 B(  3-C ,  5-H ) :   0.9883 B(  4-C , 20-C ) :   0.9793
B(  6-C ,  7-H ) :   0.9348 B(  6-C ,  8-H ) :   0.9406 B(  6-C ,  9-C ) :   1.0616
B(  9-C , 10-H ) :   0.9527 B(  9-C , 11-H ) :   0.9492 B(  9-C , 12-C ) :   1.0825
B( 12-C , 13-H ) :   0.9792 B( 12-C , 14-H ) :   0.9732 B( 12-C , 15-H ) :   0.9724
B( 16-S , 17-C ) :   1.1579 B( 16-S , 20-C ) :   1.1573 B( 17-C , 18-C ) :   1.6378
B( 17-C , 33-H ) :   0.9552 B( 18-C , 19-C ) :   1.2078 B( 18-C , 21-H ) :   0.9927
B( 19-C , 20-C ) :   1.6438 B( 19-C , 22-C ) :   1.0194 B( 22-C , 23-H ) :   0.9367
B( 22-C , 24-H ) :   0.9368 B( 22-C , 25-C ) :   1.0657 B( 25-C , 26-H ) :   0.9535
B( 25-C , 27-H ) :   0.9485 B( 25-C , 28-C ) :   1.0832 B( 28-C , 29-H ) :   0.9703
B( 28-C , 30-H ) :   0.9730 B( 28-C , 31-H ) :   0.9713

Dispersion correction           -0.013204776
FINAL SINGLE POINT ENERGY     -1339.861610103608

DIPOLE MOMENT
-------------
                                X             Y             Z
Electronic contribution:     10.01205     -24.21283       7.96468
Nuclear contribution   :    -10.32970      24.74613      -7.96919
                        -----------------------------------------
Total Dipole Moment    :     -0.31766       0.53331      -0.00451
                        -----------------------------------------
Magnitude (a.u.)       :      0.62076
Magnitude (Debye)      :      1.57785

Rotational constants in cm-1:     0.017258     0.007832     0.006301
Rotational constants in MHz :   517.385970   234.800308   188.900560

                             ****ORCA TERMINATED NORMALLY****
TOTAL RUN TIME: 0 days 0 hours 0 minutes 33 seconds 275 msec
