                         Program Version 4.2.1 -  RELEASE  -
|  1> ! wB97X-D3 SP def2-SVP
|  2> %pal
|  3> nprocs 16
|  4> end
|  5>
|  6> * xyz 0 1
|  7> S 	 39.7704 	 30.5077 	 56.3664
|  8> C 	 39.3936 	 31.4526 	 55.0175
|  9> C 	 38.5018 	 32.4892 	 55.2499
| 10> C 	 38.1686 	 32.5026 	 56.6123
| 11> C 	 38.7575 	 31.5439 	 57.3793
| 12> H 	 37.5254 	 33.1889 	 57.1601
| 13> C 	 37.9736 	 33.4513 	 54.2279
| 14> H 	 38.3068 	 33.062 	 53.1597
| 15> H 	 38.5361 	 34.3872 	 54.3437
| 16> C 	 36.4662 	 33.677 	 54.1996
| 17> H 	 36.0598 	 32.7213 	 53.9311
| 18> H 	 36.1689 	 34.0503 	 55.1444
| 19> C 	 35.8965 	 34.5906 	 53.1466
| 20> H 	 36.3741 	 35.5565 	 52.955
| 21> H 	 35.8713 	 34.1084 	 52.2374
| 22> H 	 34.8892 	 34.871 	 53.3793
| 23> S 	 40.1018 	 30.431 	 59.4603
| 24> C 	 39.6764 	 30.6412 	 61.0893
| 25> C 	 38.4974 	 31.361 	 61.2057
| 26> C 	 38.0519 	 31.8717 	 59.947
| 27> C 	 38.839 	 31.4758 	 58.85
| 28> H 	 38.0473 	 31.4379 	 62.1953
| 29> C 	 36.7367 	 32.6307 	 60.0069
| 30> H 	 36.4908 	 32.8432 	 58.9508
| 31> H 	 36.7626 	 33.5565 	 60.5455
| 32> C 	 35.5328 	 31.7874 	 60.5561
| 33> H 	 35.6837 	 31.4522 	 61.5986
| 34> H 	 35.3521 	 30.8841 	 59.9415
| 35> C 	 34.2318 	 32.655 	 60.7203
| 36> H 	 34.4412 	 33.6922 	 61.099
| 37> H 	 33.4987 	 32.1899 	 61.3383
| 38> H 	 33.8819 	 32.744 	 59.6665
| 39> H 	 39.7861 	 31.267 	 54.013
| 40> H 	 40.2343 	 30.2822 	 61.9381
| 41> *
| 42>
| 43>                          ****END OF INPUT****

CARTESIAN COORDINATES (ANGSTROEM)
---------------------------------
  S     39.770400   30.507700   56.366400
  C     39.393600   31.452600   55.017500
  C     38.501800   32.489200   55.249900
  C     38.168600   32.502600   56.612300
  C     38.757500   31.543900   57.379300
  H     37.525400   33.188900   57.160100
  C     37.973600   33.451300   54.227900
  H     38.306800   33.062000   53.159700
  H     38.536100   34.387200   54.343700
  C     36.466200   33.677000   54.199600
  H     36.059800   32.721300   53.931100
  H     36.168900   34.050300   55.144400
  C     35.896500   34.590600   53.146600
  H     36.374100   35.556500   52.955000
  H     35.871300   34.108400   52.237400
  H     34.889200   34.871000   53.379300
  S     40.101800   30.431000   59.460300
  C     39.676400   30.641200   61.089300
  C     38.497400   31.361000   61.205700
  C     38.051900   31.871700   59.947000
  C     38.839000   31.475800   58.850000
  H     38.047300   31.437900   62.195300
  C     36.736700   32.630700   60.006900
  H     36.490800   32.843200   58.950800
  H     36.762600   33.556500   60.545500
  C     35.532800   31.787400   60.556100
  H     35.683700   31.452200   61.598600
  H     35.352100   30.884100   59.941500
  C     34.231800   32.655000   60.720300
  H     34.441200   33.692200   61.099000
  H     33.498700   32.189900   61.338300
  H     33.881900   32.744000   59.666500
  H     39.786100   31.267000   54.013000
  H     40.234300   30.282200   61.938100

 Total Charge           Charge          ....    0
 Multiplicity           Mult            ....    1
 Number of Electrons    NEL             ....  134
 Basis Dimension        Dim             ....  322

ORBITAL ENERGIES
----------------

  NO   OCC          E(Eh)            E(eV)
   0   2.0000     -88.968027     -2420.9431
   1   2.0000     -88.963178     -2420.8112
   2   2.0000     -10.333321      -281.1840
   3   2.0000     -10.329745      -281.0867
   4   2.0000     -10.311915      -280.6015
   5   2.0000     -10.310655      -280.5672
   6   2.0000     -10.306667      -280.4587
   7   2.0000     -10.300517      -280.2913
   8   2.0000     -10.298637      -280.2402
   9   2.0000     -10.295073      -280.1432
  10   2.0000     -10.292830      -280.0821
  11   2.0000     -10.291463      -280.0450
  12   2.0000     -10.289841      -280.0008
  13   2.0000     -10.283627      -279.8317
  14   2.0000     -10.282156      -279.7917
  15   2.0000     -10.269022      -279.4343
  16   2.0000      -8.083580      -219.9654
  17   2.0000      -8.079111      -219.8438
  18   2.0000      -6.042026      -164.4119
  19   2.0000      -6.038022      -164.3029
  20   2.0000      -6.037600      -164.2914
  21   2.0000      -6.034305      -164.2018
  22   2.0000      -6.033344      -164.1756
  23   2.0000      -6.029938      -164.0829
  24   2.0000      -1.013587       -27.5811
  25   2.0000      -0.991663       -26.9845
  26   2.0000      -0.916313       -24.9341
  27   2.0000      -0.904521       -24.6133
  28   2.0000      -0.872964       -23.7546
  29   2.0000      -0.859351       -23.3841
  30   2.0000      -0.846218       -23.0268
  31   2.0000      -0.818659       -22.2768
  32   2.0000      -0.781934       -21.2775
  33   2.0000      -0.771661       -20.9980
  34   2.0000      -0.709439       -19.3048
  35   2.0000      -0.695066       -18.9137
  36   2.0000      -0.692438       -18.8422
  37   2.0000      -0.662362       -18.0238
  38   2.0000      -0.639931       -17.4134
  39   2.0000      -0.624976       -17.0065
  40   2.0000      -0.597233       -16.2515
  41   2.0000      -0.580290       -15.7905
  42   2.0000      -0.565960       -15.4006
  43   2.0000      -0.564539       -15.3619
  44   2.0000      -0.526082       -14.3154
  45   2.0000      -0.523571       -14.2471
  46   2.0000      -0.522066       -14.2061
  47   2.0000      -0.511489       -13.9183
  48   2.0000      -0.508234       -13.8298
  49   2.0000      -0.497972       -13.5505
  50   2.0000      -0.490119       -13.3368
  51   2.0000      -0.487845       -13.2749
  52   2.0000      -0.471057       -12.8181
  53   2.0000      -0.464858       -12.6494
  54   2.0000      -0.456278       -12.4160
  55   2.0000      -0.452499       -12.3131
  56   2.0000      -0.448319       -12.1994
  57   2.0000      -0.439051       -11.9472
  58   2.0000      -0.436123       -11.8675
  59   2.0000      -0.426840       -11.6149
  60   2.0000      -0.420196       -11.4341
  61   2.0000      -0.415174       -11.2975
  62   2.0000      -0.403460       -10.9787
  63   2.0000      -0.365566        -9.9476
  64   2.0000      -0.336617        -9.1598
  65   2.0000      -0.326569        -8.8864
  66   2.0000      -0.279690        -7.6108
  67   0.0000       0.023990         0.6528
  68   0.0000       0.083862         2.2820
  69   0.0000       0.105677         2.8756
  70   0.0000       0.119723         3.2578
  71   0.0000       0.136274         3.7082

MULLIKEN ATOMIC CHARGES
-----------------------
   0 S :    0.115039
   1 C :   -0.119560
   2 C :   -0.055235
   3 C :   -0.015761
   4 C :   -0.114499
   5 H :    0.008685
   6 C :    0.030487
   7 H :    0.022565
   8 H :    0.040762
   9 C :   -0.050451
  10 H :    0.030152
  11 H :    0.024355
  12 C :   -0.010271
  13 H :    0.020509
  14 H :    0.009930
  15 H :    0.022393
  16 S :    0.083796
  17 C :   -0.081024
  18 C :   -0.049558
  19 C :   -0.052282
  20 C :   -0.111221
  21 H :    0.026718
  22 C :    0.074312
  23 H :    0.012965
  24 H :    0.031368
  25 C :   -0.122553
  26 H :    0.030143
  27 H :    0.048338
  28 C :   -0.063270
  29 H :    0.037499
  30 H :    0.039577
  31 H :    0.034327
  32 H :    0.045913
  33 H :    0.055854
Sum of atomic charges:   -0.0000000

LOEWDIN ATOMIC CHARGES
----------------------
   0 S :    0.419147
   1 C :   -0.210439
   2 C :   -0.070430
   3 C :   -0.065910
   4 C :   -0.185549
   5 H :    0.028953
   6 C :   -0.036186
   7 H :    0.035570
   8 H :    0.032268
   9 C :   -0.035463
  10 H :    0.030440
  11 H :    0.017770
  12 C :   -0.057974
  13 H :    0.024787
  14 H :    0.014626
  15 H :    0.027565
  16 S :    0.424119
  17 C :   -0.200594
  18 C :   -0.072661
  19 C :   -0.063886
  20 C :   -0.192417
  21 H :    0.034176
  22 C :   -0.029990
  23 H :    0.026643
  24 H :    0.028157
  25 C :   -0.039737
  26 H :    0.019085
  27 H :    0.029884
  28 C :   -0.068799
  29 H :    0.028458
  30 H :    0.021223
  31 H :    0.027669
  32 H :    0.029371
  33 H :    0.030123

  Mayer bond orders larger than 0.100000
B(  0-S ,  1-C ) :   1.1609 B(  0-S ,  4-C ) :   1.1334 B(  1-C ,  2-C ) :   1.6009
B(  1-C , 32-H ) :   0.9592 B(  2-C ,  3-C ) :   1.2466 B(  2-C ,  6-C ) :   1.0241
B(  3-C ,  4-C ) :   1.5973 B(  3-C ,  5-H ) :   0.9861 B(  4-C , 20-C ) :   1.0656
B(  6-C ,  7-H ) :   0.9434 B(  6-C ,  8-H ) :   0.9301 B(  6-C ,  9-C ) :   1.0670
B(  9-C , 10-H ) :   0.9562 B(  9-C , 11-H ) :   0.9542 B(  9-C , 12-C ) :   1.0956
B( 12-C , 13-H ) :   0.9715 B( 12-C , 14-H ) :   0.9746 B( 12-C , 15-H ) :   0.9708
B( 16-S , 17-C ) :   1.1787 B( 16-S , 20-C ) :   1.1397 B( 17-C , 18-C ) :   1.5862
B( 17-C , 33-H ) :   0.9684 B( 18-C , 19-C ) :   1.2583 B( 18-C , 21-H ) :   0.9933
B( 19-C , 20-C ) :   1.5571 B( 19-C , 22-C ) :   1.0440 B( 22-C , 23-H ) :   0.9351
B( 22-C , 24-H ) :   0.9368 B( 22-C , 25-C ) :   1.0595 B( 25-C , 26-H ) :   0.9590
B( 25-C , 27-H ) :   0.9595 B( 25-C , 28-C ) :   1.0665 B( 28-C , 29-H ) :   0.9741
B( 28-C , 30-H ) :   0.9776 B( 28-C , 31-H ) :   0.9791

Dispersion correction           -0.013077250
FINAL SINGLE POINT ENERGY     -1339.872580887208

DIPOLE MOMENT
-------------
                                X             Y             Z
Electronic contribution:     26.39105     -17.16087       5.65181
Nuclear contribution   :    -26.90551      17.53428      -5.61589
                        -----------------------------------------
Total Dipole Moment    :     -0.51446       0.37341       0.03592
                        -----------------------------------------
Magnitude (a.u.)       :      0.63671
Magnitude (Debye)      :      1.61839

Rotational constants in cm-1:     0.016508     0.008755     0.005950
Rotational constants in MHz :   494.888991   262.473677   178.380030

                             ****ORCA TERMINATED NORMALLY****
TOTAL RUN TIME: 0 days 0 hours 0 minutes 33 seconds 123 msec
