                         Program Version 4.2.1 -  RELEASE  -
|  1> ! wB97X-D3 SP def2-SVP
|  2> %pal
|  3> nprocs 16
|  4> end
|  5>
|  6> * xyz 0 1
|  7> S 	 -76.4864 	 49.8663 	 122.51
|  8> C 	 -78.2184 	 50.2426 	 122.754
|  9> C 	 -78.9854 	 49.0816 	 122.756
| 10> C 	 -78.1987 	 47.9569 	 122.343
| 11> C 	 -76.8279 	 48.1774 	 122.181
| 12> H 	 -78.5774 	 47.0015 	 121.982
| 13> C 	 -80.493 	 49.0631 	 122.776
| 14> H 	 -80.8227 	 49.3109 	 121.731
| 15> H 	 -80.8161 	 49.9033 	 123.382
| 16> C 	 -81.1586 	 47.7072 	 122.969
| 17> H 	 -82.1979 	 47.8624 	 122.936
| 18> H 	 -80.9863 	 47.1257 	 122.105
| 19> C 	 -80.7157 	 47.0908 	 124.248
| 20> H 	 -80.8135 	 46.014 	 124.425
| 21> H 	 -79.6587 	 47.2244 	 124.366
| 22> H 	 -81.2848 	 47.6281 	 124.95
| 23> S 	 -74.4916 	 47.9725 	 120.722
| 24> C 	 -73.7117 	 46.4438 	 120.514
| 25> C 	 -74.4178 	 45.4287 	 121.123
| 26> C 	 -75.5494 	 45.9157 	 121.887
| 27> C 	 -75.7645 	 47.258 	 121.722
| 28> H 	 -73.9383 	 44.4328 	 121.145
| 29> C 	 -76.2827 	 44.9643 	 122.794
| 30> H 	 -76.8833 	 44.2631 	 122.229
| 31> H 	 -76.984 	 45.6662 	 123.378
| 32> C 	 -75.5069 	 44.1848 	 123.813
| 33> H 	 -74.8961 	 44.917 	 124.392
| 34> H 	 -74.7805 	 43.4885 	 123.39
| 35> C 	 -76.3619 	 43.3562 	 124.761
| 36> H 	 -75.6073 	 42.669 	 125.252
| 37> H 	 -77.1065 	 42.6692 	 124.275
| 38> H 	 -76.7447 	 44.052 	 125.488
| 39> H 	 -78.7246 	 51.2141 	 122.998
| 40> H 	 -72.7533 	 46.2877 	 120.087
| 41> *
| 42>
| 43>                          ****END OF INPUT****

CARTESIAN COORDINATES (ANGSTROEM)
---------------------------------
  S    -76.486400   49.866300  122.510000
  C    -78.218400   50.242600  122.754000
  C    -78.985400   49.081600  122.756000
  C    -78.198700   47.956900  122.343000
  C    -76.827900   48.177400  122.181000
  H    -78.577400   47.001500  121.982000
  C    -80.493000   49.063100  122.776000
  H    -80.822700   49.310900  121.731000
  H    -80.816100   49.903300  123.382000
  C    -81.158600   47.707200  122.969000
  H    -82.197900   47.862400  122.936000
  H    -80.986300   47.125700  122.105000
  C    -80.715700   47.090800  124.248000
  H    -80.813500   46.014000  124.425000
  H    -79.658700   47.224400  124.366000
  H    -81.284800   47.628100  124.950000
  S    -74.491600   47.972500  120.722000
  C    -73.711700   46.443800  120.514000
  C    -74.417800   45.428700  121.123000
  C    -75.549400   45.915700  121.887000
  C    -75.764500   47.258000  121.722000
  H    -73.938300   44.432800  121.145000
  C    -76.282700   44.964300  122.794000
  H    -76.883300   44.263100  122.229000
  H    -76.984000   45.666200  123.378000
  C    -75.506900   44.184800  123.813000
  H    -74.896100   44.917000  124.392000
  H    -74.780500   43.488500  123.390000
  C    -76.361900   43.356200  124.761000
  H    -75.607300   42.669000  125.252000
  H    -77.106500   42.669200  124.275000
  H    -76.744700   44.052000  125.488000
  H    -78.724600   51.214100  122.998000
  H    -72.753300   46.287700  120.087000

 Total Charge           Charge          ....    0
 Multiplicity           Mult            ....    1
 Number of Electrons    NEL             ....  134
 Basis Dimension        Dim             ....  322

ORBITAL ENERGIES
----------------

  NO   OCC          E(Eh)            E(eV)
   0   2.0000     -88.968540     -2420.9571
   1   2.0000     -88.964729     -2420.8534
   2   2.0000     -10.335613      -281.2463
   3   2.0000     -10.331711      -281.1401
   4   2.0000     -10.320883      -280.8455
   5   2.0000     -10.315164      -280.6899
   6   2.0000     -10.305633      -280.4305
   7   2.0000     -10.303503      -280.3726
   8   2.0000     -10.296496      -280.1819
   9   2.0000     -10.295898      -280.1656
  10   2.0000     -10.295047      -280.1425
  11   2.0000     -10.292447      -280.0717
  12   2.0000     -10.285236      -279.8755
  13   2.0000     -10.284627      -279.8589
  14   2.0000     -10.277681      -279.6699
  15   2.0000     -10.265361      -279.3347
  16   2.0000      -8.082250      -219.9292
  17   2.0000      -8.079728      -219.8606
  18   2.0000      -6.040946      -164.3825
  19   2.0000      -6.038314      -164.3109
  20   2.0000      -6.036875      -164.2717
  21   2.0000      -6.034185      -164.1985
  22   2.0000      -6.032880      -164.1630
  23   2.0000      -6.030398      -164.0955
  24   2.0000      -1.005445       -27.3596
  25   2.0000      -0.982675       -26.7400
  26   2.0000      -0.923043       -25.1173
  27   2.0000      -0.914184       -24.8762
  28   2.0000      -0.871339       -23.7103
  29   2.0000      -0.854634       -23.2558
  30   2.0000      -0.840053       -22.8590
  31   2.0000      -0.816452       -22.2168
  32   2.0000      -0.784379       -21.3440
  33   2.0000      -0.774816       -21.0838
  34   2.0000      -0.713360       -19.4115
  35   2.0000      -0.695829       -18.9345
  36   2.0000      -0.692532       -18.8447
  37   2.0000      -0.656782       -17.8719
  38   2.0000      -0.636212       -17.3122
  39   2.0000      -0.621205       -16.9039
  40   2.0000      -0.597699       -16.2642
  41   2.0000      -0.575246       -15.6533
  42   2.0000      -0.569766       -15.5041
  43   2.0000      -0.558181       -15.1889
  44   2.0000      -0.543461       -14.7883
  45   2.0000      -0.524795       -14.2804
  46   2.0000      -0.520449       -14.1621
  47   2.0000      -0.515582       -14.0297
  48   2.0000      -0.503400       -13.6982
  49   2.0000      -0.500679       -13.6242
  50   2.0000      -0.494386       -13.4529
  51   2.0000      -0.477474       -12.9927
  52   2.0000      -0.474107       -12.9011
  53   2.0000      -0.462617       -12.5884
  54   2.0000      -0.457345       -12.4450
  55   2.0000      -0.446896       -12.1607
  56   2.0000      -0.443074       -12.0567
  57   2.0000      -0.433211       -11.7883
  58   2.0000      -0.429998       -11.7008
  59   2.0000      -0.427334       -11.6283
  60   2.0000      -0.421573       -11.4716
  61   2.0000      -0.415196       -11.2981
  62   2.0000      -0.409613       -11.1461
  63   2.0000      -0.353179        -9.6105
  64   2.0000      -0.330839        -9.0026
  65   2.0000      -0.328461        -8.9379
  66   2.0000      -0.289434        -7.8759
  67   0.0000       0.022760         0.6193
  68   0.0000       0.079316         2.1583
  69   0.0000       0.103245         2.8094
  70   0.0000       0.114035         3.1030
  71   0.0000       0.130891         3.5617

MULLIKEN ATOMIC CHARGES
-----------------------
   0 S :    0.104437
   1 C :   -0.133060
   2 C :   -0.100492
   3 C :   -0.000078
   4 C :   -0.137849
   5 H :    0.021922
   6 C :    0.028089
   7 H :    0.049000
   8 H :    0.023657
   9 C :   -0.023076
  10 H :    0.014866
  11 H :    0.014566
  12 C :   -0.024468
  13 H :    0.029612
  14 H :    0.033888
  15 H :    0.018752
  16 S :    0.097113
  17 C :   -0.079059
  18 C :   -0.045176
  19 C :   -0.047684
  20 C :   -0.127441
  21 H :    0.034007
  22 C :    0.061600
  23 H :    0.027170
  24 H :    0.030529
  25 C :   -0.105674
  26 H :    0.034050
  27 H :    0.021966
  28 C :   -0.056621
  29 H :    0.037640
  30 H :    0.044352
  31 H :    0.041286
  32 H :    0.063189
  33 H :    0.048988
Sum of atomic charges:   -0.0000000

LOEWDIN ATOMIC CHARGES
----------------------
   0 S :    0.389302
   1 C :   -0.196643
   2 C :   -0.067226
   3 C :   -0.071659
   4 C :   -0.187984
   5 H :    0.031298
   6 C :   -0.030430
   7 H :    0.046025
   8 H :    0.027482
   9 C :   -0.037832
  10 H :    0.022590
  11 H :    0.017181
  12 C :   -0.063251
  13 H :    0.026798
  14 H :    0.023902
  15 H :    0.023608
  16 S :    0.400200
  17 C :   -0.180921
  18 C :   -0.075119
  19 C :   -0.058004
  20 C :   -0.191167
  21 H :    0.037304
  22 C :   -0.040607
  23 H :    0.027882
  24 H :    0.038479
  25 C :   -0.049732
  26 H :    0.030425
  27 H :    0.017155
  28 C :   -0.066264
  29 H :    0.035090
  30 H :    0.030374
  31 H :    0.024911
  32 H :    0.041354
  33 H :    0.025476

  Mayer bond orders larger than 0.100000
B(  0-S ,  1-C ) :   1.1257 B(  0-S ,  4-C ) :   1.1436 B(  1-C ,  2-C ) :   1.6243
B(  1-C , 32-H ) :   0.9605 B(  2-C ,  3-C ) :   1.2231 B(  2-C ,  6-C ) :   1.0248
B(  3-C ,  4-C ) :   1.5858 B(  3-C ,  5-H ) :   0.9836 B(  4-C , 20-C ) :   1.0410
B(  6-C ,  7-H ) :   0.9359 B(  6-C ,  8-H ) :   0.9408 B(  6-C ,  9-C ) :   1.0827
B(  9-C , 10-H ) :   0.9516 B(  9-C , 11-H ) :   0.9410 B(  9-C , 12-C ) :   1.0693
B( 12-C , 13-H ) :   0.9734 B( 12-C , 14-H ) :   0.9755 B( 12-C , 15-H ) :   0.9743
B( 16-S , 17-C ) :   1.1539 B( 16-S , 20-C ) :   1.1197 B( 17-C , 18-C ) :   1.6331
B( 17-C , 33-H ) :   0.9692 B( 18-C , 19-C ) :   1.2104 B( 18-C , 21-H ) :   0.9836
B( 19-C , 20-C ) :   1.6288 B( 19-C , 22-C ) :   1.0430 B( 22-C , 23-H ) :   0.9248
B( 22-C , 24-H ) :   0.9354 B( 22-C , 25-C ) :   1.0743 B( 25-C , 26-H ) :   0.9517
B( 25-C , 27-H ) :   0.9524 B( 25-C , 28-C ) :   1.0854 B( 28-C , 29-H ) :   0.9749
B( 28-C , 30-H ) :   0.9725 B( 28-C , 31-H ) :   0.9769

Dispersion correction           -0.014075282
FINAL SINGLE POINT ENERGY     -1339.870763943482

DIPOLE MOMENT
-------------
                                X             Y             Z
Electronic contribution:     18.12454      19.38292     -14.18389
Nuclear contribution   :    -18.51314     -19.89208      14.29631
                        -----------------------------------------
Total Dipole Moment    :     -0.38860      -0.50916       0.11243
                        -----------------------------------------
Magnitude (a.u.)       :      0.65030
Magnitude (Debye)      :      1.65293

Rotational constants in cm-1:     0.016201     0.010035     0.006787
Rotational constants in MHz :   485.707022   300.843254   203.482088

                             ****ORCA TERMINATED NORMALLY****
TOTAL RUN TIME: 0 days 0 hours 0 minutes 34 seconds 619 msec
