                         Program Version 4.2.1 -  RELEASE  -
|  1> ! wB97X-D3 SP def2-SVP
|  2> %pal
|  3> nprocs 16
|  4> end
|  5>
|  6> * xyz 0 1
|  7> S 	 -31.6525 	 60.7133 	 107.59
|  8> C 	 -31.3308 	 61.8459 	 108.816
|  9> C 	 -30.6286 	 62.8839 	 108.279
| 10> C 	 -30.3681 	 62.8137 	 106.868
| 11> C 	 -30.9511 	 61.6863 	 106.371
| 12> H 	 -29.8583 	 63.5187 	 106.257
| 13> C 	 -30.1926 	 64.0249 	 109.156
| 14> H 	 -30.5189 	 63.8379 	 110.199
| 15> H 	 -30.7634 	 64.9542 	 108.793
| 16> C 	 -28.8152 	 64.4437 	 109.266
| 17> H 	 -28.5083 	 65.1009 	 108.51
| 18> H 	 -28.6955 	 65.1285 	 110.047
| 19> C 	 -27.8975 	 63.2778 	 109.475
| 20> H 	 -27.9251 	 62.6761 	 108.549
| 21> H 	 -26.8623 	 63.5893 	 109.707
| 22> H 	 -28.2539 	 62.5233 	 110.206
| 23> S 	 -32.9107 	 61.0597 	 104.585
| 24> C 	 -32.5217 	 60.883 	 102.861
| 25> C 	 -31.1747 	 61.1372 	 102.618
| 26> C 	 -30.3909 	 61.4374 	 103.82
| 27> C 	 -31.2161 	 61.3756 	 104.972
| 28> H 	 -30.853 	 61.1238 	 101.598
| 29> C 	 -28.845 	 61.6923 	 103.64
| 30> H 	 -28.6036 	 60.9901 	 102.854
| 31> H 	 -28.2957 	 61.362 	 104.525
| 32> C 	 -28.4992 	 63.168 	 103.229
| 33> H 	 -29.3309 	 63.8384 	 103.512
| 34> H 	 -28.3379 	 63.207 	 102.155
| 35> C 	 -27.2137 	 63.749 	 103.826
| 36> H 	 -26.3291 	 63.2595 	 103.567
| 37> H 	 -27.2683 	 63.6266 	 104.855
| 38> H 	 -27.1961 	 64.8253 	 103.581
| 39> H 	 -31.5203 	 61.6434 	 109.816
| 40> H 	 -33.2303 	 60.5505 	 102.146
| 41> *
| 42>
| 43>                          ****END OF INPUT****

CARTESIAN COORDINATES (ANGSTROEM)
---------------------------------
  S    -31.652500   60.713300  107.590000
  C    -31.330800   61.845900  108.816000
  C    -30.628600   62.883900  108.279000
  C    -30.368100   62.813700  106.868000
  C    -30.951100   61.686300  106.371000
  H    -29.858300   63.518700  106.257000
  C    -30.192600   64.024900  109.156000
  H    -30.518900   63.837900  110.199000
  H    -30.763400   64.954200  108.793000
  C    -28.815200   64.443700  109.266000
  H    -28.508300   65.100900  108.510000
  H    -28.695500   65.128500  110.047000
  C    -27.897500   63.277800  109.475000
  H    -27.925100   62.676100  108.549000
  H    -26.862300   63.589300  109.707000
  H    -28.253900   62.523300  110.206000
  S    -32.910700   61.059700  104.585000
  C    -32.521700   60.883000  102.861000
  C    -31.174700   61.137200  102.618000
  C    -30.390900   61.437400  103.820000
  C    -31.216100   61.375600  104.972000
  H    -30.853000   61.123800  101.598000
  C    -28.845000   61.692300  103.640000
  H    -28.603600   60.990100  102.854000
  H    -28.295700   61.362000  104.525000
  C    -28.499200   63.168000  103.229000
  H    -29.330900   63.838400  103.512000
  H    -28.337900   63.207000  102.155000
  C    -27.213700   63.749000  103.826000
  H    -26.329100   63.259500  103.567000
  H    -27.268300   63.626600  104.855000
  H    -27.196100   64.825300  103.581000
  H    -31.520300   61.643400  109.816000
  H    -33.230300   60.550500  102.146000

 Total Charge           Charge          ....    0
 Multiplicity           Mult            ....    1
 Number of Electrons    NEL             ....  134
 Basis Dimension        Dim             ....  322

ORBITAL ENERGIES
----------------

  NO   OCC          E(Eh)            E(eV)
   0   2.0000     -88.964990     -2420.8605
   1   2.0000     -88.961496     -2420.7654
   2   2.0000     -10.331257      -281.1278
   3   2.0000     -10.324870      -280.9540
   4   2.0000     -10.316775      -280.7337
   5   2.0000     -10.313762      -280.6517
   6   2.0000     -10.303906      -280.3835
   7   2.0000     -10.299840      -280.2729
   8   2.0000     -10.298775      -280.2439
   9   2.0000     -10.296869      -280.1921
  10   2.0000     -10.292575      -280.0752
  11   2.0000     -10.290769      -280.0261
  12   2.0000     -10.287168      -279.9281
  13   2.0000     -10.274737      -279.5898
  14   2.0000     -10.270862      -279.4844
  15   2.0000     -10.267007      -279.3795
  16   2.0000      -8.079034      -219.8417
  17   2.0000      -8.078387      -219.8241
  18   2.0000      -6.037624      -164.2921
  19   2.0000      -6.036758      -164.2685
  20   2.0000      -6.033647      -164.1839
  21   2.0000      -6.032468      -164.1518
  22   2.0000      -6.029715      -164.0769
  23   2.0000      -6.029269      -164.0648
  24   2.0000      -1.015500       -27.6332
  25   2.0000      -0.978502       -26.6264
  26   2.0000      -0.926319       -25.2064
  27   2.0000      -0.902858       -24.5680
  28   2.0000      -0.873126       -23.7590
  29   2.0000      -0.853475       -23.2242
  30   2.0000      -0.845931       -23.0189
  31   2.0000      -0.816536       -22.2191
  32   2.0000      -0.782798       -21.3010
  33   2.0000      -0.773674       -21.0528
  34   2.0000      -0.712212       -19.3803
  35   2.0000      -0.701178       -19.0800
  36   2.0000      -0.693397       -18.8683
  37   2.0000      -0.661403       -17.9977
  38   2.0000      -0.648716       -17.6525
  39   2.0000      -0.622539       -16.9402
  40   2.0000      -0.590518       -16.0688
  41   2.0000      -0.568035       -15.4570
  42   2.0000      -0.562128       -15.2963
  43   2.0000      -0.560868       -15.2620
  44   2.0000      -0.551525       -15.0078
  45   2.0000      -0.531312       -14.4577
  46   2.0000      -0.522642       -14.2218
  47   2.0000      -0.519737       -14.1428
  48   2.0000      -0.503431       -13.6991
  49   2.0000      -0.498845       -13.5743
  50   2.0000      -0.488870       -13.3028
  51   2.0000      -0.487037       -13.2529
  52   2.0000      -0.471524       -12.8308
  53   2.0000      -0.463826       -12.6213
  54   2.0000      -0.456356       -12.4181
  55   2.0000      -0.453252       -12.3336
  56   2.0000      -0.443860       -12.0780
  57   2.0000      -0.437666       -11.9095
  58   2.0000      -0.431562       -11.7434
  59   2.0000      -0.424796       -11.5593
  60   2.0000      -0.421118       -11.4592
  61   2.0000      -0.415829       -11.3153
  62   2.0000      -0.400290       -10.8924
  63   2.0000      -0.352388        -9.5890
  64   2.0000      -0.329429        -8.9642
  65   2.0000      -0.325739        -8.8638
  66   2.0000      -0.292789        -7.9672
  67   0.0000       0.030982         0.8431
  68   0.0000       0.075410         2.0520
  69   0.0000       0.115044         3.1305
  70   0.0000       0.120659         3.2833
  71   0.0000       0.121491         3.3059

MULLIKEN ATOMIC CHARGES
-----------------------
   0 S :    0.111180
   1 C :   -0.098131
   2 C :   -0.094431
   3 C :    0.061735
   4 C :   -0.147199
   5 H :   -0.002591
   6 C :    0.021545
   7 H :    0.017628
   8 H :    0.041283
   9 C :    0.011843
  10 H :   -0.002951
  11 H :    0.000605
  12 C :   -0.063895
  13 H :    0.032179
  14 H :    0.038426
  15 H :    0.026178
  16 S :    0.103384
  17 C :   -0.095242
  18 C :   -0.027015
  19 C :   -0.054328
  20 C :   -0.152869
  21 H :    0.016205
  22 C :    0.076288
  23 H :    0.030170
  24 H :    0.031764
  25 C :   -0.090639
  26 H :    0.048132
  27 H :    0.031858
  28 C :   -0.018873
  29 H :    0.020777
  30 H :    0.008388
  31 H :    0.040403
  32 H :    0.027086
  33 H :    0.051105
Sum of atomic charges:   -0.0000000

LOEWDIN ATOMIC CHARGES
----------------------
   0 S :    0.438697
   1 C :   -0.201523
   2 C :   -0.061599
   3 C :   -0.058073
   4 C :   -0.201048
   5 H :    0.029228
   6 C :   -0.038232
   7 H :    0.030810
   8 H :    0.041689
   9 C :   -0.053011
  10 H :    0.016798
  11 H :    0.021939
  12 C :   -0.067059
  13 H :    0.027592
  14 H :    0.026557
  15 H :    0.027463
  16 S :    0.390109
  17 C :   -0.176403
  18 C :   -0.066807
  19 C :   -0.053628
  20 C :   -0.195158
  21 H :    0.028229
  22 C :   -0.027525
  23 H :    0.032534
  24 H :    0.029529
  25 C :   -0.040956
  26 H :    0.028711
  27 H :    0.024487
  28 C :   -0.056678
  29 H :    0.017275
  30 H :    0.012888
  31 H :    0.034049
  32 H :    0.016654
  33 H :    0.022461

  Mayer bond orders larger than 0.100000
B(  0-S ,  1-C ) :   1.1310 B(  0-S ,  4-C ) :   1.1859 B(  1-C ,  2-C ) :   1.5958
B(  1-C , 32-H ) :   0.9841 B(  2-C ,  3-C ) :   1.2240 B(  2-C ,  6-C ) :   1.0319
B(  3-C ,  4-C ) :   1.5528 B(  3-C ,  5-H ) :   1.0090 B(  4-C , 20-C ) :   1.0211
B(  6-C ,  7-H ) :   0.9447 B(  6-C ,  8-H ) :   0.9299 B(  6-C ,  9-C ) :   1.0963
B(  9-C , 10-H ) :   0.9346 B(  9-C , 11-H ) :   0.9383 B(  9-C , 12-C ) :   1.0810
B( 12-C , 13-H ) :   0.9657 B( 12-C , 14-H ) :   0.9734 B( 12-C , 15-H ) :   0.9738
B( 16-S , 17-C ) :   1.1368 B( 16-S , 20-C ) :   1.1464 B( 17-C , 18-C ) :   1.6302
B( 17-C , 33-H ) :   0.9729 B( 18-C , 19-C ) :   1.2160 B( 18-C , 21-H ) :   0.9901
B( 19-C , 20-C ) :   1.6034 B( 19-C , 22-C ) :   1.0335 B( 22-C , 23-H ) :   0.9394
B( 22-C , 24-H ) :   0.9512 B( 22-C , 25-C ) :   1.0320 B( 25-C , 26-H ) :   0.9659
B( 25-C , 27-H ) :   0.9553 B( 25-C , 28-C ) :   1.0883 B( 28-C , 29-H ) :   0.9739
B( 28-C , 30-H ) :   0.9758 B( 28-C , 31-H ) :   0.9734

Dispersion correction           -0.014649152
FINAL SINGLE POINT ENERGY     -1339.866159868262

DIPOLE MOMENT
-------------
                                X             Y             Z
Electronic contribution:    -24.87125     -16.47252      -2.90920
Nuclear contribution   :     25.36276      16.87744       2.77030
                        -----------------------------------------
Total Dipole Moment    :      0.49151       0.40492      -0.13890
                        -----------------------------------------
Magnitude (a.u.)       :      0.65179
Magnitude (Debye)      :      1.65673

Rotational constants in cm-1:     0.017414     0.010116     0.006907
Rotational constants in MHz :   522.057078   303.277439   207.079761

                             ****ORCA TERMINATED NORMALLY****
TOTAL RUN TIME: 0 days 0 hours 0 minutes 28 seconds 797 msec
