                         Program Version 4.2.1 -  RELEASE  -
|  1> ! wB97X-D3 SP def2-SVP
|  2> %pal
|  3> nprocs 16
|  4> end
|  5>
|  6> * xyz 0 1
|  7> S 	 39.0043 	 11.0283 	 78.7857
|  8> C 	 40.0534 	 11.187 	 77.4422
|  9> C 	 41.279 	 11.7091 	 77.7546
| 10> C 	 41.4161 	 11.9955 	 79.1501
| 11> C 	 40.2294 	 11.7208 	 79.8323
| 12> H 	 42.2306 	 12.5505 	 79.6479
| 13> C 	 42.3903 	 11.9566 	 76.7228
| 14> H 	 41.9308 	 12.6631 	 76.028
| 15> H 	 42.4193 	 10.9591 	 76.1908
| 16> C 	 43.7667 	 12.4347 	 77.2031
| 17> H 	 43.9102 	 12.0413 	 78.2155
| 18> H 	 44.5274 	 12.0583 	 76.4184
| 19> C 	 43.8514 	 13.996 	 77.3506
| 20> H 	 44.9654 	 14.0041 	 77.5075
| 21> H 	 43.6191 	 14.5385 	 76.4171
| 22> H 	 43.284 	 14.489 	 78.2296
| 23> S 	 40.0815 	 13.7676 	 81.668
| 24> C 	 39.8823 	 13.3633 	 83.3706
| 25> C 	 39.6174 	 12.0444 	 83.4813
| 26> C 	 39.4976 	 11.2715 	 82.2693
| 27> C 	 39.9908 	 12.0514 	 81.203
| 28> H 	 39.4036 	 11.5702 	 84.3538
| 29> C 	 39.0543 	 9.8107 	 82.1741
| 30> H 	 38.3536 	 9.75369 	 81.4238
| 31> H 	 38.6084 	 9.43032 	 83.1225
| 32> C 	 40.2033 	 8.82795 	 81.7578
| 33> H 	 40.6837 	 9.01734 	 80.8096
| 34> H 	 39.7804 	 7.85931 	 81.6488
| 35> C 	 41.2877 	 8.68829 	 82.828
| 36> H 	 41.9996 	 9.51468 	 82.6803
| 37> H 	 41.9378 	 7.88503 	 82.5946
| 38> H 	 40.9865 	 8.67778 	 83.8609
| 39> H 	 39.7615 	 11.2178 	 76.4321
| 40> H 	 39.9316 	 14.0392 	 84.2012
| 41> *
| 42>
| 43>                          ****END OF INPUT****

CARTESIAN COORDINATES (ANGSTROEM)
---------------------------------
  S     39.004300   11.028300   78.785700
  C     40.053400   11.187000   77.442200
  C     41.279000   11.709100   77.754600
  C     41.416100   11.995500   79.150100
  C     40.229400   11.720800   79.832300
  H     42.230600   12.550500   79.647900
  C     42.390300   11.956600   76.722800
  H     41.930800   12.663100   76.028000
  H     42.419300   10.959100   76.190800
  C     43.766700   12.434700   77.203100
  H     43.910200   12.041300   78.215500
  H     44.527400   12.058300   76.418400
  C     43.851400   13.996000   77.350600
  H     44.965400   14.004100   77.507500
  H     43.619100   14.538500   76.417100
  H     43.284000   14.489000   78.229600
  S     40.081500   13.767600   81.668000
  C     39.882300   13.363300   83.370600
  C     39.617400   12.044400   83.481300
  C     39.497600   11.271500   82.269300
  C     39.990800   12.051400   81.203000
  H     39.403600   11.570200   84.353800
  C     39.054300    9.810700   82.174100
  H     38.353600    9.753690   81.423800
  H     38.608400    9.430320   83.122500
  C     40.203300    8.827950   81.757800
  H     40.683700    9.017340   80.809600
  H     39.780400    7.859310   81.648800
  C     41.287700    8.688290   82.828000
  H     41.999600    9.514680   82.680300
  H     41.937800    7.885030   82.594600
  H     40.986500    8.677780   83.860900
  H     39.761500   11.217800   76.432100
  H     39.931600   14.039200   84.201200

 Total Charge           Charge          ....    0
 Multiplicity           Mult            ....    1
 Number of Electrons    NEL             ....  134
 Basis Dimension        Dim             ....  322

ORBITAL ENERGIES
----------------

  NO   OCC          E(Eh)            E(eV)
   0   2.0000     -88.969667     -2420.9877
   1   2.0000     -88.962831     -2420.8017
   2   2.0000     -10.326653      -281.0025
   3   2.0000     -10.324352      -280.9399
   4   2.0000     -10.311932      -280.6019
   5   2.0000     -10.303203      -280.3644
   6   2.0000     -10.302069      -280.3335
   7   2.0000     -10.301839      -280.3273
   8   2.0000     -10.299174      -280.2548
   9   2.0000     -10.296812      -280.1905
  10   2.0000     -10.294095      -280.1166
  11   2.0000     -10.292985      -280.0864
  12   2.0000     -10.292535      -280.0741
  13   2.0000     -10.282419      -279.7988
  14   2.0000     -10.278566      -279.6940
  15   2.0000     -10.265288      -279.3327
  16   2.0000      -8.084468      -219.9896
  17   2.0000      -8.076837      -219.7819
  18   2.0000      -6.042935      -164.4366
  19   2.0000      -6.038965      -164.3286
  20   2.0000      -6.035528      -164.2351
  21   2.0000      -6.035298      -164.2288
  22   2.0000      -6.031536      -164.1264
  23   2.0000      -6.027360      -164.0128
  24   2.0000      -1.006505       -27.3884
  25   2.0000      -0.982007       -26.7218
  26   2.0000      -0.908363       -24.7178
  27   2.0000      -0.903286       -24.5797
  28   2.0000      -0.872550       -23.7433
  29   2.0000      -0.848058       -23.0768
  30   2.0000      -0.842101       -22.9147
  31   2.0000      -0.814406       -22.1611
  32   2.0000      -0.784094       -21.3363
  33   2.0000      -0.770222       -20.9588
  34   2.0000      -0.713335       -19.4108
  35   2.0000      -0.693886       -18.8816
  36   2.0000      -0.684733       -18.6325
  37   2.0000      -0.665611       -18.1122
  38   2.0000      -0.635755       -17.2998
  39   2.0000      -0.616904       -16.7868
  40   2.0000      -0.596136       -16.2217
  41   2.0000      -0.566126       -15.4051
  42   2.0000      -0.559242       -15.2178
  43   2.0000      -0.544865       -14.8265
  44   2.0000      -0.540390       -14.7048
  45   2.0000      -0.533853       -14.5269
  46   2.0000      -0.518951       -14.1214
  47   2.0000      -0.514627       -14.0037
  48   2.0000      -0.502975       -13.6866
  49   2.0000      -0.494059       -13.4440
  50   2.0000      -0.488469       -13.2919
  51   2.0000      -0.478223       -13.0131
  52   2.0000      -0.470789       -12.8108
  53   2.0000      -0.469145       -12.7661
  54   2.0000      -0.454704       -12.3731
  55   2.0000      -0.448107       -12.1936
  56   2.0000      -0.438885       -11.9427
  57   2.0000      -0.434674       -11.8281
  58   2.0000      -0.430043       -11.7021
  59   2.0000      -0.426984       -11.6188
  60   2.0000      -0.420831       -11.4514
  61   2.0000      -0.413413       -11.2495
  62   2.0000      -0.408790       -11.1237
  63   2.0000      -0.341681        -9.2976
  64   2.0000      -0.333508        -9.0752
  65   2.0000      -0.324546        -8.8313
  66   2.0000      -0.287856        -7.8330
  67   0.0000       0.028593         0.7781
  68   0.0000       0.064781         1.7628
  69   0.0000       0.110106         2.9961
  70   0.0000       0.118059         3.2125
  71   0.0000       0.129306         3.5186

MULLIKEN ATOMIC CHARGES
-----------------------
   0 S :    0.127962
   1 C :   -0.102289
   2 C :   -0.110737
   3 C :   -0.001692
   4 C :   -0.170766
   5 H :    0.030494
   6 C :    0.050527
   7 H :    0.032553
   8 H :    0.048073
   9 C :   -0.093613
  10 H :    0.042405
  11 H :    0.056719
  12 C :   -0.110769
  13 H :    0.046828
  14 H :    0.044067
  15 H :    0.067094
  16 S :    0.101429
  17 C :   -0.068831
  18 C :    0.016149
  19 C :   -0.047477
  20 C :   -0.172482
  21 H :   -0.033000
  22 C :    0.111585
  23 H :    0.008680
  24 H :    0.027942
  25 C :   -0.065818
  26 H :    0.036836
  27 H :    0.015840
  28 C :   -0.041082
  29 H :    0.026466
  30 H :    0.017326
  31 H :    0.028487
  32 H :    0.030875
  33 H :    0.050219
Sum of atomic charges:    0.0000000

LOEWDIN ATOMIC CHARGES
----------------------
   0 S :    0.427276
   1 C :   -0.216279
   2 C :   -0.058407
   3 C :   -0.070111
   4 C :   -0.196182
   5 H :    0.036622
   6 C :   -0.046745
   7 H :    0.031450
   8 H :    0.040421
   9 C :   -0.048033
  10 H :    0.027318
  11 H :    0.042277
  12 C :   -0.081509
  13 H :    0.035997
  14 H :    0.024480
  15 H :    0.037713
  16 S :    0.388071
  17 C :   -0.181929
  18 C :   -0.059916
  19 C :   -0.048805
  20 C :   -0.189471
  21 H :    0.010763
  22 C :   -0.021707
  23 H :    0.015843
  24 H :    0.036439
  25 C :   -0.031606
  26 H :    0.025590
  27 H :    0.017206
  28 C :   -0.068316
  29 H :    0.029007
  30 H :    0.021674
  31 H :    0.019893
  32 H :    0.021221
  33 H :    0.029757

  Mayer bond orders larger than 0.100000
B(  0-S ,  1-C ) :   1.1350 B(  0-S ,  4-C ) :   1.1597 B(  1-C ,  2-C ) :   1.6374
B(  1-C , 32-H ) :   0.9675 B(  2-C ,  3-C ) :   1.2481 B(  2-C ,  6-C ) :   0.9861
B(  3-C ,  4-C ) :   1.5529 B(  3-C ,  5-H ) :   0.9826 B(  4-C , 20-C ) :   1.0715
B(  6-C ,  7-H ) :   0.9375 B(  6-C ,  8-H ) :   0.9464 B(  6-C ,  9-C ) :   1.0676
B(  9-C , 10-H ) :   0.9534 B(  9-C , 11-H ) :   0.9560 B(  9-C , 12-C ) :   1.0596
B( 12-C , 13-H ) :   0.9773 B( 12-C , 14-H ) :   0.9746 B( 12-C , 15-H ) :   0.9736
B( 16-S , 17-C ) :   1.1218 B( 16-S , 20-C ) :   1.1421 B( 17-C , 18-C ) :   1.6160
B( 17-C , 33-H ) :   0.9719 B( 18-C , 19-C ) :   1.2406 B( 18-C , 21-H ) :   0.9967
B( 19-C , 20-C ) :   1.5555 B( 19-C , 22-C ) :   1.0441 B( 22-C , 23-H ) :   0.9240
B( 22-C , 24-H ) :   0.9396 B( 22-C , 25-C ) :   1.0768 B( 25-C , 26-H ) :   0.9543
B( 25-C , 27-H ) :   0.9580 B( 25-C , 28-C ) :   1.0766 B( 28-C , 29-H ) :   0.9724
B( 28-C , 30-H ) :   0.9710 B( 28-C , 31-H ) :   0.9786

Dispersion correction           -0.015213977
FINAL SINGLE POINT ENERGY     -1339.859009886407

DIPOLE MOMENT
-------------
                                X             Y             Z
Electronic contribution:    -16.27168       7.92816       3.08895
Nuclear contribution   :     16.55278      -8.08542      -3.23019
                        -----------------------------------------
Total Dipole Moment    :      0.28110      -0.15725      -0.14124
                        -----------------------------------------
Magnitude (a.u.)       :      0.35170
Magnitude (Debye)      :      0.89395

Rotational constants in cm-1:     0.018838     0.009007     0.007846
Rotational constants in MHz :   564.753286   270.024858   235.206902

                             ****ORCA TERMINATED NORMALLY****
TOTAL RUN TIME: 0 days 0 hours 0 minutes 29 seconds 861 msec
