                         Program Version 4.2.1 -  RELEASE  -
|  1> ! wB97X-D3 SP def2-SVP
|  2> %pal
|  3> nprocs 16
|  4> end
|  5>
|  6> * xyz 0 1
|  7> S 	 -15.4503 	 75.1642 	 56.4137
|  8> C 	 -17.0607 	 74.6695 	 55.947
|  9> C 	 -17.0871 	 73.3519 	 55.5177
| 10> C 	 -15.8218 	 72.7118 	 55.6852
| 11> C 	 -14.8 	 73.5494 	 56.1155
| 12> H 	 -15.5889 	 71.683 	 55.5181
| 13> C 	 -18.2523 	 72.481 	 55.1016
| 14> H 	 -19.1955 	 73.0066 	 55.3332
| 15> H 	 -18.2975 	 71.5373 	 55.7055
| 16> C 	 -18.3365 	 72.1868 	 53.6359
| 17> H 	 -18.8875 	 73.0811 	 53.2049
| 18> H 	 -17.3817 	 72.0729 	 53.1582
| 19> C 	 -19.1343 	 70.9625 	 53.2127
| 20> H 	 -19.9256 	 70.8406 	 54.0251
| 21> H 	 -19.4859 	 70.9366 	 52.1889
| 22> H 	 -18.6097 	 70.0162 	 53.4193
| 23> S 	 -13.031 	 73.8876 	 58.039
| 24> C 	 -11.6118 	 72.9008 	 58.1091
| 25> C 	 -11.3885 	 72.331 	 56.8596
| 26> C 	 -12.4257 	 72.5313 	 55.919
| 27> C 	 -13.4493 	 73.2774 	 56.4894
| 28> H 	 -10.4888 	 71.7858 	 56.6844
| 29> C 	 -12.3881 	 72.1125 	 54.4568
| 30> H 	 -13.3502 	 71.8515 	 54.1208
| 31> H 	 -11.8912 	 71.179 	 54.3581
| 32> C 	 -11.7634 	 73.1833 	 53.5623
| 33> H 	 -11.8107 	 72.9446 	 52.472
| 34> H 	 -10.7438 	 73.0665 	 53.7437
| 35> C 	 -12.2167 	 74.583 	 53.9281
| 36> H 	 -11.8675 	 75.2342 	 53.152
| 37> H 	 -11.905 	 74.9898 	 54.8822
| 38> H 	 -13.2376 	 74.793 	 53.9194
| 39> H 	 -17.9101 	 75.302 	 55.793
| 40> H 	 -10.977 	 72.8522 	 58.9808
| 41> *
| 42>
| 43>                          ****END OF INPUT****

CARTESIAN COORDINATES (ANGSTROEM)
---------------------------------
  S    -15.450300   75.164200   56.413700
  C    -17.060700   74.669500   55.947000
  C    -17.087100   73.351900   55.517700
  C    -15.821800   72.711800   55.685200
  C    -14.800000   73.549400   56.115500
  H    -15.588900   71.683000   55.518100
  C    -18.252300   72.481000   55.101600
  H    -19.195500   73.006600   55.333200
  H    -18.297500   71.537300   55.705500
  C    -18.336500   72.186800   53.635900
  H    -18.887500   73.081100   53.204900
  H    -17.381700   72.072900   53.158200
  C    -19.134300   70.962500   53.212700
  H    -19.925600   70.840600   54.025100
  H    -19.485900   70.936600   52.188900
  H    -18.609700   70.016200   53.419300
  S    -13.031000   73.887600   58.039000
  C    -11.611800   72.900800   58.109100
  C    -11.388500   72.331000   56.859600
  C    -12.425700   72.531300   55.919000
  C    -13.449300   73.277400   56.489400
  H    -10.488800   71.785800   56.684400
  C    -12.388100   72.112500   54.456800
  H    -13.350200   71.851500   54.120800
  H    -11.891200   71.179000   54.358100
  C    -11.763400   73.183300   53.562300
  H    -11.810700   72.944600   52.472000
  H    -10.743800   73.066500   53.743700
  C    -12.216700   74.583000   53.928100
  H    -11.867500   75.234200   53.152000
  H    -11.905000   74.989800   54.882200
  H    -13.237600   74.793000   53.919400
  H    -17.910100   75.302000   55.793000
  H    -10.977000   72.852200   58.980800

 Total Charge           Charge          ....    0
 Multiplicity           Mult            ....    1
 Number of Electrons    NEL             ....  134
 Basis Dimension        Dim             ....  322

ORBITAL ENERGIES
----------------

  NO   OCC          E(Eh)            E(eV)
   0   2.0000     -88.966580     -2420.9037
   1   2.0000     -88.965112     -2420.8638
   2   2.0000     -10.329305      -281.0747
   3   2.0000     -10.321403      -280.8596
   4   2.0000     -10.316790      -280.7341
   5   2.0000     -10.313606      -280.6475
   6   2.0000     -10.302824      -280.3541
   7   2.0000     -10.301952      -280.3304
   8   2.0000     -10.295291      -280.1491
   9   2.0000     -10.293696      -280.1057
  10   2.0000     -10.290811      -280.0272
  11   2.0000     -10.284584      -279.8578
  12   2.0000     -10.282719      -279.8070
  13   2.0000     -10.282610      -279.8041
  14   2.0000     -10.281164      -279.7647
  15   2.0000     -10.259735      -279.1816
  16   2.0000      -8.080969      -219.8944
  17   2.0000      -8.080924      -219.8931
  18   2.0000      -6.039602      -164.3459
  19   2.0000      -6.039223      -164.3356
  20   2.0000      -6.035477      -164.2337
  21   2.0000      -6.035212      -164.2265
  22   2.0000      -6.031890      -164.1361
  23   2.0000      -6.031679      -164.1303
  24   2.0000      -1.014233       -27.5987
  25   2.0000      -0.985539       -26.8179
  26   2.0000      -0.916771       -24.9466
  27   2.0000      -0.913368       -24.8540
  28   2.0000      -0.874189       -23.7879
  29   2.0000      -0.851117       -23.1601
  30   2.0000      -0.844806       -22.9883
  31   2.0000      -0.813023       -22.1235
  32   2.0000      -0.789573       -21.4854
  33   2.0000      -0.775173       -21.0935
  34   2.0000      -0.710237       -19.3265
  35   2.0000      -0.700435       -19.0598
  36   2.0000      -0.693551       -18.8725
  37   2.0000      -0.666197       -18.1281
  38   2.0000      -0.643256       -17.5039
  39   2.0000      -0.623001       -16.9527
  40   2.0000      -0.600884       -16.3509
  41   2.0000      -0.568425       -15.4676
  42   2.0000      -0.560486       -15.2516
  43   2.0000      -0.554622       -15.0920
  44   2.0000      -0.548486       -14.9251
  45   2.0000      -0.527017       -14.3409
  46   2.0000      -0.518347       -14.1049
  47   2.0000      -0.511566       -13.9204
  48   2.0000      -0.503423       -13.6988
  49   2.0000      -0.501709       -13.6522
  50   2.0000      -0.500580       -13.6215
  51   2.0000      -0.480504       -13.0752
  52   2.0000      -0.470541       -12.8041
  53   2.0000      -0.463961       -12.6250
  54   2.0000      -0.455984       -12.4079
  55   2.0000      -0.451831       -12.2949
  56   2.0000      -0.445761       -12.1298
  57   2.0000      -0.433797       -11.8042
  58   2.0000      -0.429227       -11.6799
  59   2.0000      -0.425431       -11.5766
  60   2.0000      -0.418698       -11.3934
  61   2.0000      -0.411652       -11.2016
  62   2.0000      -0.405326       -11.0295
  63   2.0000      -0.352176        -9.5832
  64   2.0000      -0.334037        -9.0896
  65   2.0000      -0.329712        -8.9719
  66   2.0000      -0.285481        -7.7683
  67   0.0000       0.026688         0.7262
  68   0.0000       0.067279         1.8308
  69   0.0000       0.107232         2.9179
  70   0.0000       0.119320         3.2469
  71   0.0000       0.135546         3.6884

MULLIKEN ATOMIC CHARGES
-----------------------
   0 S :    0.096686
   1 C :   -0.097480
   2 C :   -0.080858
   3 C :    0.038780
   4 C :   -0.147624
   5 H :    0.004809
   6 C :    0.038577
   7 H :    0.019293
   8 H :    0.041158
   9 C :   -0.077573
  10 H :    0.035529
  11 H :    0.031564
  12 C :   -0.066908
  13 H :    0.022815
  14 H :    0.051280
  15 H :    0.025287
  16 S :    0.115108
  17 C :   -0.093647
  18 C :   -0.034059
  19 C :   -0.059024
  20 C :   -0.166211
  21 H :    0.007319
  22 C :    0.144335
  23 H :   -0.002215
  24 H :    0.001150
  25 C :   -0.046514
  26 H :    0.034188
  27 H :    0.006920
  28 C :   -0.008087
  29 H :    0.016304
  30 H :    0.039322
  31 H :    0.012233
  32 H :    0.039183
  33 H :    0.058360
Sum of atomic charges:   -0.0000000

LOEWDIN ATOMIC CHARGES
----------------------
   0 S :    0.393889
   1 C :   -0.197616
   2 C :   -0.059543
   3 C :   -0.060240
   4 C :   -0.181615
   5 H :    0.027165
   6 C :   -0.038274
   7 H :    0.031811
   8 H :    0.035152
   9 C :   -0.049798
  10 H :    0.032802
  11 H :    0.018795
  12 C :   -0.073695
  13 H :    0.029367
  14 H :    0.028456
  15 H :    0.023656
  16 S :    0.433733
  17 C :   -0.191143
  18 C :   -0.065972
  19 C :   -0.052685
  20 C :   -0.208628
  21 H :    0.026616
  22 C :   -0.023854
  23 H :    0.020344
  24 H :    0.024318
  25 C :   -0.033860
  26 H :    0.031800
  27 H :    0.016611
  28 C :   -0.063865
  29 H :    0.025799
  30 H :    0.028500
  31 H :    0.016973
  32 H :    0.026359
  33 H :    0.028643

  Mayer bond orders larger than 0.100000
B(  0-S ,  1-C ) :   1.1244 B(  0-S ,  4-C ) :   1.1379 B(  1-C ,  2-C ) :   1.6306
B(  1-C , 32-H ) :   0.9644 B(  2-C ,  3-C ) :   1.2210 B(  2-C ,  6-C ) :   1.0292
B(  3-C ,  4-C ) :   1.5957 B(  3-C ,  5-H ) :   0.9949 B(  4-C , 20-C ) :   1.0435
B(  6-C ,  7-H ) :   0.9349 B(  6-C ,  8-H ) :   0.9507 B(  6-C ,  9-C ) :   1.0522
B(  9-C , 10-H ) :   0.9544 B(  9-C , 11-H ) :   0.9647 B(  9-C , 12-C ) :   1.0779
B( 12-C , 13-H ) :   0.9710 B( 12-C , 14-H ) :   0.9744 B( 12-C , 15-H ) :   0.9726
B( 16-S , 17-C ) :   1.1663 B( 16-S , 20-C ) :   1.1656 B( 17-C , 18-C ) :   1.5618
B( 17-C , 20-C ) :   0.1081 B( 17-C , 33-H ) :   0.9760 B( 18-C , 19-C ) :   1.2635
B( 18-C , 21-H ) :   0.9979 B( 19-C , 20-C ) :   1.5498 B( 19-C , 22-C ) :   1.0481
B( 22-C , 23-H ) :   0.9251 B( 22-C , 24-H ) :   0.9271 B( 22-C , 25-C ) :   1.0640
B( 25-C , 26-H ) :   0.9569 B( 25-C , 27-H ) :   0.9503 B( 25-C , 28-C ) :   1.0869
B( 28-C , 29-H ) :   0.9671 B( 28-C , 30-H ) :   0.9627 B( 28-C , 31-H ) :   0.9726

Dispersion correction           -0.015243816
FINAL SINGLE POINT ENERGY     -1339.870465601239

DIPOLE MOMENT
-------------
                                X             Y             Z
Electronic contribution:      8.15849      11.21627      21.15058
Nuclear contribution   :     -8.11068     -11.66360     -21.51741
                        -----------------------------------------
Total Dipole Moment    :      0.04781      -0.44734      -0.36683
                        -----------------------------------------
Magnitude (a.u.)       :      0.58048
Magnitude (Debye)      :      1.47546

Rotational constants in cm-1:     0.021065     0.008458     0.007356
Rotational constants in MHz :   631.498526   253.577323   220.537883

                             ****ORCA TERMINATED NORMALLY****
TOTAL RUN TIME: 0 days 0 hours 0 minutes 33 seconds 214 msec
