                         Program Version 4.2.1 -  RELEASE  -
|  1> ! wB97X-D3 SP def2-SVP
|  2> %pal
|  3> nprocs 16
|  4> end
|  5>
|  6> * xyz 0 1
|  7> S 	 28.144 	 2.63895 	 79.1181
|  8> C 	 29.3891 	 3.67034 	 78.5877
|  9> C 	 29.7123 	 3.48065 	 77.2669
| 10> C 	 28.6809 	 2.65538 	 76.6398
| 11> C 	 27.8282 	 2.05664 	 77.5604
| 12> H 	 28.6539 	 2.45078 	 75.6299
| 13> C 	 30.8079 	 4.17374 	 76.3952
| 14> H 	 31.4219 	 3.41577 	 75.9471
| 15> H 	 31.5 	 4.70181 	 77.0308
| 16> C 	 30.3184 	 5.06288 	 75.3235
| 17> H 	 31.0853 	 5.25928 	 74.6501
| 18> H 	 29.5518 	 4.60385 	 74.7604
| 19> C 	 29.7608 	 6.41566 	 75.8488
| 20> H 	 29.0799 	 6.45134 	 76.7147
| 21> H 	 30.6079 	 7.02897 	 76.2503
| 22> H 	 29.1426 	 6.89099 	 75.0877
| 23> S 	 26.4792 	 -0.273122 	 78.0398
| 24> C 	 25.1273 	 -0.741119 	 76.9903
| 25> C 	 24.7674 	 0.363924 	 76.2002
| 26> C 	 25.6852 	 1.4316 	 76.2167
| 27> C 	 26.6708 	 1.28125 	 77.2092
| 28> H 	 23.8599 	 0.322564 	 75.6874
| 29> C 	 25.476 	 2.68249 	 75.3186
| 30> H 	 25.3553 	 2.2373 	 74.3563
| 31> H 	 26.4224 	 3.26589 	 75.3238
| 32> C 	 24.1701 	 3.55046 	 75.7087
| 33> H 	 24.3532 	 3.98823 	 76.7083
| 34> H 	 23.3013 	 2.97314 	 75.6344
| 35> C 	 23.8353 	 4.81536 	 74.8959
| 36> H 	 23.4148 	 4.64978 	 73.9268
| 37> H 	 24.6251 	 5.57336 	 74.869
| 38> H 	 23.0517 	 5.32697 	 75.3392
| 39> H 	 29.9154 	 4.33947 	 79.2699
| 40> H 	 24.525 	 -1.55248 	 77.2482
| 41> *
| 42>
| 43>                          ****END OF INPUT****

CARTESIAN COORDINATES (ANGSTROEM)
---------------------------------
  S     28.144000    2.638950   79.118100
  C     29.389100    3.670340   78.587700
  C     29.712300    3.480650   77.266900
  C     28.680900    2.655380   76.639800
  C     27.828200    2.056640   77.560400
  H     28.653900    2.450780   75.629900
  C     30.807900    4.173740   76.395200
  H     31.421900    3.415770   75.947100
  H     31.500000    4.701810   77.030800
  C     30.318400    5.062880   75.323500
  H     31.085300    5.259280   74.650100
  H     29.551800    4.603850   74.760400
  C     29.760800    6.415660   75.848800
  H     29.079900    6.451340   76.714700
  H     30.607900    7.028970   76.250300
  H     29.142600    6.890990   75.087700
  S     26.479200   -0.273122   78.039800
  C     25.127300   -0.741119   76.990300
  C     24.767400    0.363924   76.200200
  C     25.685200    1.431600   76.216700
  C     26.670800    1.281250   77.209200
  H     23.859900    0.322564   75.687400
  C     25.476000    2.682490   75.318600
  H     25.355300    2.237300   74.356300
  H     26.422400    3.265890   75.323800
  C     24.170100    3.550460   75.708700
  H     24.353200    3.988230   76.708300
  H     23.301300    2.973140   75.634400
  C     23.835300    4.815360   74.895900
  H     23.414800    4.649780   73.926800
  H     24.625100    5.573360   74.869000
  H     23.051700    5.326970   75.339200
  H     29.915400    4.339470   79.269900
  H     24.525000   -1.552480   77.248200

 Total Charge           Charge          ....    0
 Multiplicity           Mult            ....    1
 Number of Electrons    NEL             ....  134
 Basis Dimension        Dim             ....  322

ORBITAL ENERGIES
----------------

  NO   OCC          E(Eh)            E(eV)
   0   2.0000     -88.965795     -2420.8824
   1   2.0000     -88.961779     -2420.7731
   2   2.0000     -10.328425      -281.0507
   3   2.0000     -10.323214      -280.9089
   4   2.0000     -10.315739      -280.7055
   5   2.0000     -10.312169      -280.6084
   6   2.0000     -10.305582      -280.4291
   7   2.0000     -10.304864      -280.4096
   8   2.0000     -10.298223      -280.2289
   9   2.0000     -10.292231      -280.0658
  10   2.0000     -10.291077      -280.0344
  11   2.0000     -10.290991      -280.0321
  12   2.0000     -10.289844      -280.0009
  13   2.0000     -10.280205      -279.7386
  14   2.0000     -10.279036      -279.7068
  15   2.0000     -10.269906      -279.4583
  16   2.0000      -8.082596      -219.9386
  17   2.0000      -8.076072      -219.7611
  18   2.0000      -6.040961      -164.3829
  19   2.0000      -6.036765      -164.2687
  20   2.0000      -6.034571      -164.2090
  21   2.0000      -6.033427      -164.1779
  22   2.0000      -6.030580      -164.1004
  23   2.0000      -6.026946      -164.0015
  24   2.0000      -1.012411       -27.5491
  25   2.0000      -0.982169       -26.7262
  26   2.0000      -0.918770       -25.0010
  27   2.0000      -0.896213       -24.3872
  28   2.0000      -0.872461       -23.7409
  29   2.0000      -0.853208       -23.2170
  30   2.0000      -0.845143       -22.9975
  31   2.0000      -0.810665       -22.0593
  32   2.0000      -0.786743       -21.4084
  33   2.0000      -0.775730       -21.1087
  34   2.0000      -0.712785       -19.3959
  35   2.0000      -0.702224       -19.1085
  36   2.0000      -0.695862       -18.9354
  37   2.0000      -0.665520       -18.1097
  38   2.0000      -0.647050       -17.6071
  39   2.0000      -0.626213       -17.0401
  40   2.0000      -0.590461       -16.0673
  41   2.0000      -0.570538       -15.5251
  42   2.0000      -0.566980       -15.4283
  43   2.0000      -0.554400       -15.0860
  44   2.0000      -0.545098       -14.8329
  45   2.0000      -0.525191       -14.2912
  46   2.0000      -0.518569       -14.1110
  47   2.0000      -0.515342       -14.0232
  48   2.0000      -0.501600       -13.6492
  49   2.0000      -0.495239       -13.4761
  50   2.0000      -0.494051       -13.4438
  51   2.0000      -0.488795       -13.3008
  52   2.0000      -0.471994       -12.8436
  53   2.0000      -0.462803       -12.5935
  54   2.0000      -0.455389       -12.3918
  55   2.0000      -0.448885       -12.2148
  56   2.0000      -0.444464       -12.0945
  57   2.0000      -0.440752       -11.9935
  58   2.0000      -0.436419       -11.8756
  59   2.0000      -0.425768       -11.5857
  60   2.0000      -0.419150       -11.4056
  61   2.0000      -0.415382       -11.3031
  62   2.0000      -0.412590       -11.2271
  63   2.0000      -0.348844        -9.4925
  64   2.0000      -0.330464        -8.9924
  65   2.0000      -0.328445        -8.9374
  66   2.0000      -0.289970        -7.8905
  67   0.0000       0.030907         0.8410
  68   0.0000       0.070449         1.9170
  69   0.0000       0.114463         3.1147
  70   0.0000       0.118486         3.2242
  71   0.0000       0.130280         3.5451

MULLIKEN ATOMIC CHARGES
-----------------------
   0 S :    0.129747
   1 C :   -0.138010
   2 C :   -0.081267
   3 C :    0.008456
   4 C :   -0.112738
   5 H :   -0.010262
   6 C :    0.099342
   7 H :    0.026176
   8 H :    0.004663
   9 C :   -0.010817
  10 H :    0.017342
  11 H :    0.013029
  12 C :   -0.087568
  13 H :    0.031020
  14 H :    0.031006
  15 H :    0.034895
  16 S :    0.083311
  17 C :   -0.077095
  18 C :   -0.030920
  19 C :   -0.041731
  20 C :   -0.160447
  21 H :    0.001662
  22 C :    0.093328
  23 H :    0.021855
  24 H :    0.024742
  25 C :   -0.065430
  26 H :    0.044875
  27 H :    0.022103
  28 C :   -0.024824
  29 H :    0.018084
  30 H :    0.027883
  31 H :    0.008239
  32 H :    0.051407
  33 H :    0.047945
Sum of atomic charges:   -0.0000000

LOEWDIN ATOMIC CHARGES
----------------------
   0 S :    0.450600
   1 C :   -0.212327
   2 C :   -0.056087
   3 C :   -0.052040
   4 C :   -0.220061
   5 H :    0.014143
   6 C :   -0.024656
   7 H :    0.031950
   8 H :    0.025123
   9 C :   -0.032858
  10 H :    0.021515
  11 H :    0.018259
  12 C :   -0.073759
  13 H :    0.026200
  14 H :    0.027990
  15 H :    0.026283
  16 S :    0.385854
  17 C :   -0.171770
  18 C :   -0.058930
  19 C :   -0.057743
  20 C :   -0.188607
  21 H :    0.021802
  22 C :   -0.025127
  23 H :    0.025599
  24 H :    0.031672
  25 C :   -0.028316
  26 H :    0.034445
  27 H :    0.016719
  28 C :   -0.065605
  29 H :    0.019176
  30 H :    0.025454
  31 H :    0.019953
  32 H :    0.029355
  33 H :    0.015796

  Mayer bond orders larger than 0.100000
B(  0-S ,  1-C ) :   1.1595 B(  0-S ,  4-C ) :   1.1665 B(  1-C ,  2-C ) :   1.6062
B(  1-C , 32-H ) :   0.9658 B(  2-C ,  3-C ) :   1.2352 B(  2-C ,  6-C ) :   1.0229
B(  3-C ,  4-C ) :   1.5588 B(  3-C ,  5-H ) :   1.0063 B(  4-C , 20-C ) :   1.0252
B(  6-C ,  7-H ) :   0.9311 B(  6-C ,  8-H ) :   0.9413 B(  6-C ,  9-C ) :   1.0874
B(  9-C , 10-H ) :   0.9465 B(  9-C , 11-H ) :   0.9541 B(  9-C , 12-C ) :   1.0667
B( 12-C , 13-H ) :   0.9793 B( 12-C , 14-H ) :   0.9747 B( 12-C , 15-H ) :   0.9760
B( 16-S , 17-C ) :   1.1560 B( 16-S , 20-C ) :   1.1481 B( 17-C , 18-C ) :   1.5868
B( 17-C , 20-C ) :   0.1178 B( 17-C , 33-H ) :   0.9731 B( 18-C , 19-C ) :   1.2550
B( 18-C , 21-H ) :   0.9968 B( 19-C , 20-C ) :   1.5788 B( 19-C , 22-C ) :   1.0301
B( 22-C , 23-H ) :   0.9319 B( 22-C , 24-H ) :   0.9387 B( 22-C , 25-C ) :   1.0559
B( 25-C , 26-H ) :   0.9605 B( 25-C , 27-H ) :   0.9582 B( 25-C , 28-C ) :   1.0922
B( 28-C , 29-H ) :   0.9728 B( 28-C , 30-H ) :   0.9743 B( 28-C , 31-H ) :   0.9685

Dispersion correction           -0.014161433
FINAL SINGLE POINT ENERGY     -1339.860646905809

DIPOLE MOMENT
-------------
                                X             Y             Z
Electronic contribution:      1.30509     -23.91469      18.85617
Nuclear contribution   :     -1.40866      24.42814     -19.34001
                        -----------------------------------------
Total Dipole Moment    :     -0.10356       0.51345      -0.48384
                        -----------------------------------------
Magnitude (a.u.)       :      0.71306
Magnitude (Debye)      :      1.81247

Rotational constants in cm-1:     0.016650     0.009574     0.006958
Rotational constants in MHz :   499.164235   287.033720   208.593528

                             ****ORCA TERMINATED NORMALLY****
TOTAL RUN TIME: 0 days 0 hours 0 minutes 34 seconds 647 msec
