                         Program Version 4.2.1 -  RELEASE  -
|  1> ! wB97X-D3 SP def2-SVP
|  2> %pal
|  3> nprocs 16
|  4> end
|  5>
|  6> * xyz 0 1
|  7> S 	 -27.6666 	 69.1002 	 107.402
|  8> C 	 -28.7696 	 69.0335 	 106.08
|  9> C 	 -30.0615 	 68.943 	 106.472
| 10> C 	 -30.2068 	 69.1987 	 107.838
| 11> C 	 -28.9856 	 69.3362 	 108.494
| 12> H 	 -31.2074 	 69.2155 	 108.354
| 13> C 	 -31.1907 	 68.6455 	 105.539
| 14> H 	 -30.7926 	 67.8328 	 104.971
| 15> H 	 -31.3783 	 69.5412 	 104.929
| 16> C 	 -32.4586 	 68.1039 	 106.097
| 17> H 	 -32.2719 	 67.1368 	 106.638
| 18> H 	 -32.8398 	 68.7933 	 106.844
| 19> C 	 -33.6532 	 67.7413 	 105.041
| 20> H 	 -34.1393 	 68.5884 	 104.452
| 21> H 	 -33.2972 	 67.0925 	 104.342
| 22> H 	 -34.4535 	 67.1581 	 105.503
| 23> S 	 -27.7245 	 68.1804 	 110.816
| 24> C 	 -28.1568 	 68.7307 	 112.425
| 25> C 	 -28.8046 	 69.9307 	 112.253
| 26> C 	 -29.3517 	 70.1642 	 110.954
| 27> C 	 -28.7791 	 69.3736 	 109.951
| 28> H 	 -28.9808 	 70.4772 	 113.167
| 29> C 	 -30.3423 	 71.2395 	 110.626
| 30> H 	 -30.8265 	 71.4194 	 111.606
| 31> H 	 -31.139 	 70.7826 	 109.967
| 32> C 	 -29.7957 	 72.5855 	 110.128
| 33> H 	 -29.2972 	 72.4275 	 109.222
| 34> H 	 -29.0323 	 73.0017 	 110.737
| 35> C 	 -30.8712 	 73.66 	 109.975
| 36> H 	 -30.5339 	 74.604 	 109.551
| 37> H 	 -31.3735 	 73.9935 	 110.918
| 38> H 	 -31.6061 	 73.3661 	 109.207
| 39> H 	 -28.5399 	 68.7005 	 105.102
| 40> H 	 -27.7734 	 68.3782 	 113.388
| 41> *
| 42>
| 43>                          ****END OF INPUT****

CARTESIAN COORDINATES (ANGSTROEM)
---------------------------------
  S    -27.666600   69.100200  107.402000
  C    -28.769600   69.033500  106.080000
  C    -30.061500   68.943000  106.472000
  C    -30.206800   69.198700  107.838000
  C    -28.985600   69.336200  108.494000
  H    -31.207400   69.215500  108.354000
  C    -31.190700   68.645500  105.539000
  H    -30.792600   67.832800  104.971000
  H    -31.378300   69.541200  104.929000
  C    -32.458600   68.103900  106.097000
  H    -32.271900   67.136800  106.638000
  H    -32.839800   68.793300  106.844000
  C    -33.653200   67.741300  105.041000
  H    -34.139300   68.588400  104.452000
  H    -33.297200   67.092500  104.342000
  H    -34.453500   67.158100  105.503000
  S    -27.724500   68.180400  110.816000
  C    -28.156800   68.730700  112.425000
  C    -28.804600   69.930700  112.253000
  C    -29.351700   70.164200  110.954000
  C    -28.779100   69.373600  109.951000
  H    -28.980800   70.477200  113.167000
  C    -30.342300   71.239500  110.626000
  H    -30.826500   71.419400  111.606000
  H    -31.139000   70.782600  109.967000
  C    -29.795700   72.585500  110.128000
  H    -29.297200   72.427500  109.222000
  H    -29.032300   73.001700  110.737000
  C    -30.871200   73.660000  109.975000
  H    -30.533900   74.604000  109.551000
  H    -31.373500   73.993500  110.918000
  H    -31.606100   73.366100  109.207000
  H    -28.539900   68.700500  105.102000
  H    -27.773400   68.378200  113.388000

 Total Charge           Charge          ....    0
 Multiplicity           Mult            ....    1
 Number of Electrons    NEL             ....  134
 Basis Dimension        Dim             ....  322

ORBITAL ENERGIES
----------------

  NO   OCC          E(Eh)            E(eV)
   0   2.0000     -88.971596     -2421.0402
   1   2.0000     -88.960370     -2420.7347
   2   2.0000     -10.333564      -281.1906
   3   2.0000     -10.332291      -281.1559
   4   2.0000     -10.319622      -280.8112
   5   2.0000     -10.303694      -280.3778
   6   2.0000     -10.302980      -280.3583
   7   2.0000     -10.297746      -280.2159
   8   2.0000     -10.297270      -280.2029
   9   2.0000     -10.294078      -280.1161
  10   2.0000     -10.293242      -280.0934
  11   2.0000     -10.292928      -280.0848
  12   2.0000     -10.289411      -279.9891
  13   2.0000     -10.285403      -279.8801
  14   2.0000     -10.278364      -279.6885
  15   2.0000     -10.277435      -279.6632
  16   2.0000      -8.086896      -220.0556
  17   2.0000      -8.074186      -219.7098
  18   2.0000      -6.045292      -164.5008
  19   2.0000      -6.041381      -164.3943
  20   2.0000      -6.037692      -164.2940
  21   2.0000      -6.032881      -164.1630
  22   2.0000      -6.028770      -164.0512
  23   2.0000      -6.024817      -163.9436
  24   2.0000      -1.012662       -27.5559
  25   2.0000      -0.986004       -26.8305
  26   2.0000      -0.918325       -24.9889
  27   2.0000      -0.906517       -24.6676
  28   2.0000      -0.869492       -23.6601
  29   2.0000      -0.851035       -23.1578
  30   2.0000      -0.843140       -22.9430
  31   2.0000      -0.817258       -22.2387
  32   2.0000      -0.787617       -21.4321
  33   2.0000      -0.770375       -20.9630
  34   2.0000      -0.719610       -19.5816
  35   2.0000      -0.702703       -19.1215
  36   2.0000      -0.693050       -18.8588
  37   2.0000      -0.655076       -17.8255
  38   2.0000      -0.636848       -17.3295
  39   2.0000      -0.625369       -17.0172
  40   2.0000      -0.589760       -16.0482
  41   2.0000      -0.578325       -15.7370
  42   2.0000      -0.571322       -15.5465
  43   2.0000      -0.560605       -15.2548
  44   2.0000      -0.523281       -14.2392
  45   2.0000      -0.520893       -14.1742
  46   2.0000      -0.518830       -14.1181
  47   2.0000      -0.509000       -13.8506
  48   2.0000      -0.503380       -13.6977
  49   2.0000      -0.497109       -13.5270
  50   2.0000      -0.494548       -13.4573
  51   2.0000      -0.480879       -13.0854
  52   2.0000      -0.472369       -12.8538
  53   2.0000      -0.466994       -12.7076
  54   2.0000      -0.463532       -12.6134
  55   2.0000      -0.453420       -12.3382
  56   2.0000      -0.443191       -12.0598
  57   2.0000      -0.438872       -11.9423
  58   2.0000      -0.429645       -11.6912
  59   2.0000      -0.429001       -11.6737
  60   2.0000      -0.420392       -11.4395
  61   2.0000      -0.415509       -11.3066
  62   2.0000      -0.405529       -11.0350
  63   2.0000      -0.350386        -9.5345
  64   2.0000      -0.336614        -9.1597
  65   2.0000      -0.323499        -8.8029
  66   2.0000      -0.289454        -7.8764
  67   0.0000       0.025792         0.7018
  68   0.0000       0.063575         1.7300
  69   0.0000       0.116414         3.1678
  70   0.0000       0.121431         3.3043
  71   0.0000       0.130130         3.5410

MULLIKEN ATOMIC CHARGES
-----------------------
   0 S :    0.129874
   1 C :   -0.090977
   2 C :   -0.121611
   3 C :   -0.003025
   4 C :   -0.147016
   5 H :    0.038753
   6 C :    0.114292
   7 H :    0.018654
   8 H :    0.053163
   9 C :   -0.139982
  10 H :    0.041374
  11 H :    0.035544
  12 C :   -0.036001
  13 H :    0.044386
  14 H :    0.007115
  15 H :    0.033812
  16 S :    0.077158
  17 C :   -0.100437
  18 C :   -0.031007
  19 C :   -0.065459
  20 C :   -0.118932
  21 H :    0.018266
  22 C :    0.044191
  23 H :    0.014244
  24 H :    0.030585
  25 C :    0.004843
  26 H :    0.016115
  27 H :    0.015350
  28 C :   -0.067047
  29 H :    0.022679
  30 H :    0.037203
  31 H :    0.027667
  32 H :    0.026420
  33 H :    0.069806
Sum of atomic charges:   -0.0000000

LOEWDIN ATOMIC CHARGES
----------------------
   0 S :    0.439478
   1 C :   -0.205175
   2 C :   -0.065499
   3 C :   -0.067893
   4 C :   -0.198737
   5 H :    0.039641
   6 C :   -0.036637
   7 H :    0.032296
   8 H :    0.040665
   9 C :   -0.040792
  10 H :    0.032824
  11 H :    0.017385
  12 C :   -0.064936
  13 H :    0.033628
  14 H :    0.008856
  15 H :    0.030131
  16 S :    0.368551
  17 C :   -0.184118
  18 C :   -0.075078
  19 C :   -0.061992
  20 C :   -0.179467
  21 H :    0.029334
  22 C :   -0.036267
  23 H :    0.030901
  24 H :    0.036296
  25 C :   -0.033147
  26 H :    0.020723
  27 H :    0.023322
  28 C :   -0.072489
  29 H :    0.025062
  30 H :    0.028269
  31 H :    0.025970
  32 H :    0.020160
  33 H :    0.038734

  Mayer bond orders larger than 0.100000
B(  0-S ,  1-C ) :   1.1426 B(  0-S ,  4-C ) :   1.1741 B(  1-C ,  2-C ) :   1.6227
B(  1-C , 32-H ) :   0.9643 B(  2-C ,  3-C ) :   1.2947 B(  2-C ,  6-C ) :   0.9988
B(  3-C ,  4-C ) :   1.5233 B(  3-C ,  5-H ) :   0.9742 B(  4-C , 20-C ) :   1.0559
B(  6-C ,  7-H ) :   0.9315 B(  6-C ,  8-H ) :   0.9327 B(  6-C ,  9-C ) :   1.0873
B(  9-C , 10-H ) :   0.9575 B(  9-C , 11-H ) :   0.9487 B(  9-C , 12-C ) :   1.0695
B( 12-C , 13-H ) :   0.9774 B( 12-C , 14-H ) :   0.9756 B( 12-C , 15-H ) :   0.9764
B( 16-S , 17-C ) :   1.1508 B( 16-S , 20-C ) :   1.1176 B( 17-C , 18-C ) :   1.6185
B( 17-C , 20-C ) :   0.1039 B( 17-C , 33-H ) :   0.9641 B( 18-C , 19-C ) :   1.2418
B( 18-C , 21-H ) :   0.9849 B( 19-C , 20-C ) :   1.5815 B( 19-C , 22-C ) :   1.0574
B( 22-C , 23-H ) :   0.9266 B( 22-C , 24-H ) :   0.9305 B( 22-C , 25-C ) :   1.0633
B( 25-C , 26-H ) :   0.9499 B( 25-C , 27-H ) :   0.9508 B( 25-C , 28-C ) :   1.0882
B( 28-C , 29-H ) :   0.9719 B( 28-C , 30-H ) :   0.9754 B( 28-C , 31-H ) :   0.9739

Dispersion correction           -0.013783378
FINAL SINGLE POINT ENERGY     -1339.856194951464

DIPOLE MOMENT
-------------
                                X             Y             Z
Electronic contribution:     25.30818     -10.68076       8.45027
Nuclear contribution   :    -25.86981      10.79689      -8.54914
                        -----------------------------------------
Total Dipole Moment    :     -0.56164       0.11613      -0.09887
                        -----------------------------------------
Magnitude (a.u.)       :      0.58198
Magnitude (Debye)      :      1.47926

Rotational constants in cm-1:     0.016770     0.008338     0.006951
Rotational constants in MHz :   502.766223   249.978607   208.380663

                             ****ORCA TERMINATED NORMALLY****
TOTAL RUN TIME: 0 days 0 hours 0 minutes 29 seconds 559 msec
