                         Program Version 4.2.1 -  RELEASE  -
|  1> ! wB97X-D3 SP def2-SVP
|  2> %pal
|  3> nprocs 16
|  4> end
|  5>
|  6> * xyz 0 1
|  7> S 	 -73.6561 	 40.723 	 138.896
|  8> C 	 -74.1134 	 41.0472 	 137.169
|  9> C 	 -73.3687 	 42.0817 	 136.577
| 10> C 	 -72.4803 	 42.646 	 137.502
| 11> C 	 -72.5871 	 42.1463 	 138.81
| 12> H 	 -71.8035 	 43.4094 	 137.304
| 13> C 	 -73.3901 	 42.5255 	 135.128
| 14> H 	 -72.3941 	 42.8234 	 134.751
| 15> H 	 -73.8944 	 43.4512 	 134.971
| 16> C 	 -73.7985 	 41.4157 	 134.031
| 17> H 	 -73.2549 	 40.4157 	 134.08
| 18> H 	 -74.8237 	 41.1128 	 134.215
| 19> C 	 -73.845 	 41.9444 	 132.636
| 20> H 	 -74.2577 	 41.3725 	 131.914
| 21> H 	 -74.5112 	 42.8259 	 132.462
| 22> H 	 -72.7018 	 42.1835 	 132.384
| 23> S 	 -70.7602 	 41.2937 	 140.667
| 24> C 	 -69.9394 	 42.4605 	 141.675
| 25> C 	 -70.2837 	 43.7259 	 141.284
| 26> C 	 -71.2503 	 43.812 	 140.265
| 27> C 	 -71.6963 	 42.5202 	 139.899
| 28> H 	 -69.8527 	 44.5262 	 141.738
| 29> C 	 -71.6997 	 45.132 	 139.772
| 30> H 	 -71.8862 	 45.7471 	 140.687
| 31> H 	 -72.6257 	 45.0678 	 139.169
| 32> C 	 -70.895 	 45.7917 	 138.652
| 33> H 	 -70.972 	 45.2126 	 137.786
| 34> H 	 -69.8448 	 45.8069 	 138.918
| 35> C 	 -71.4118 	 47.2212 	 138.228
| 36> H 	 -72.307 	 47.2025 	 137.675
| 37> H 	 -70.7356 	 47.6584 	 137.573
| 38> H 	 -71.6805 	 47.8905 	 139.031
| 39> H 	 -74.9366 	 40.5378 	 136.633
| 40> H 	 -69.1483 	 42.2867 	 142.376
| 41> *
| 42>
| 43>                          ****END OF INPUT****

CARTESIAN COORDINATES (ANGSTROEM)
---------------------------------
  S    -73.656100   40.723000  138.896000
  C    -74.113400   41.047200  137.169000
  C    -73.368700   42.081700  136.577000
  C    -72.480300   42.646000  137.502000
  C    -72.587100   42.146300  138.810000
  H    -71.803500   43.409400  137.304000
  C    -73.390100   42.525500  135.128000
  H    -72.394100   42.823400  134.751000
  H    -73.894400   43.451200  134.971000
  C    -73.798500   41.415700  134.031000
  H    -73.254900   40.415700  134.080000
  H    -74.823700   41.112800  134.215000
  C    -73.845000   41.944400  132.636000
  H    -74.257700   41.372500  131.914000
  H    -74.511200   42.825900  132.462000
  H    -72.701800   42.183500  132.384000
  S    -70.760200   41.293700  140.667000
  C    -69.939400   42.460500  141.675000
  C    -70.283700   43.725900  141.284000
  C    -71.250300   43.812000  140.265000
  C    -71.696300   42.520200  139.899000
  H    -69.852700   44.526200  141.738000
  C    -71.699700   45.132000  139.772000
  H    -71.886200   45.747100  140.687000
  H    -72.625700   45.067800  139.169000
  C    -70.895000   45.791700  138.652000
  H    -70.972000   45.212600  137.786000
  H    -69.844800   45.806900  138.918000
  C    -71.411800   47.221200  138.228000
  H    -72.307000   47.202500  137.675000
  H    -70.735600   47.658400  137.573000
  H    -71.680500   47.890500  139.031000
  H    -74.936600   40.537800  136.633000
  H    -69.148300   42.286700  142.376000

 Total Charge           Charge          ....    0
 Multiplicity           Mult            ....    1
 Number of Electrons    NEL             ....  134
 Basis Dimension        Dim             ....  322

ORBITAL ENERGIES
----------------

  NO   OCC          E(Eh)            E(eV)
   0   2.0000     -88.972835     -2421.0739
   1   2.0000     -88.966063     -2420.8896
   2   2.0000     -10.333221      -281.1812
   3   2.0000     -10.325120      -280.9608
   4   2.0000     -10.323818      -280.9254
   5   2.0000     -10.311985      -280.6034
   6   2.0000     -10.306530      -280.4549
   7   2.0000     -10.302253      -280.3386
   8   2.0000     -10.298675      -280.2412
   9   2.0000     -10.296076      -280.1705
  10   2.0000     -10.291088      -280.0347
  11   2.0000     -10.290866      -280.0287
  12   2.0000     -10.286870      -279.9200
  13   2.0000     -10.283606      -279.8312
  14   2.0000     -10.281061      -279.7619
  15   2.0000     -10.272293      -279.5233
  16   2.0000      -8.085697      -220.0230
  17   2.0000      -8.081160      -219.8995
  18   2.0000      -6.044244      -164.4722
  19   2.0000      -6.040626      -164.3738
  20   2.0000      -6.039556      -164.3447
  21   2.0000      -6.036368      -164.2579
  22   2.0000      -6.035609      -164.2373
  23   2.0000      -6.032022      -164.1397
  24   2.0000      -1.006306       -27.3830
  25   2.0000      -0.979309       -26.6483
  26   2.0000      -0.912775       -24.8379
  27   2.0000      -0.907204       -24.6863
  28   2.0000      -0.870633       -23.6911
  29   2.0000      -0.854226       -23.2447
  30   2.0000      -0.852353       -23.1937
  31   2.0000      -0.813075       -22.1249
  32   2.0000      -0.786804       -21.4100
  33   2.0000      -0.773498       -21.0479
  34   2.0000      -0.714149       -19.4330
  35   2.0000      -0.706270       -19.2186
  36   2.0000      -0.693651       -18.8752
  37   2.0000      -0.667639       -18.1674
  38   2.0000      -0.638973       -17.3873
  39   2.0000      -0.621361       -16.9081
  40   2.0000      -0.601852       -16.3772
  41   2.0000      -0.574446       -15.6315
  42   2.0000      -0.565580       -15.3902
  43   2.0000      -0.557519       -15.1709
  44   2.0000      -0.531032       -14.4501
  45   2.0000      -0.522979       -14.2310
  46   2.0000      -0.518818       -14.1178
  47   2.0000      -0.513632       -13.9766
  48   2.0000      -0.512639       -13.9496
  49   2.0000      -0.496898       -13.5213
  50   2.0000      -0.490739       -13.3537
  51   2.0000      -0.485330       -13.2065
  52   2.0000      -0.474619       -12.9150
  53   2.0000      -0.462973       -12.5981
  54   2.0000      -0.456184       -12.4134
  55   2.0000      -0.452178       -12.3044
  56   2.0000      -0.445942       -12.1347
  57   2.0000      -0.444314       -12.0904
  58   2.0000      -0.436561       -11.8794
  59   2.0000      -0.427942       -11.6449
  60   2.0000      -0.424373       -11.5478
  61   2.0000      -0.409495       -11.1429
  62   2.0000      -0.404915       -11.0183
  63   2.0000      -0.348489        -9.4829
  64   2.0000      -0.336743        -9.1632
  65   2.0000      -0.328397        -8.9361
  66   2.0000      -0.284747        -7.7484
  67   0.0000       0.022695         0.6176
  68   0.0000       0.069884         1.9016
  69   0.0000       0.100219         2.7271
  70   0.0000       0.125457         3.4139
  71   0.0000       0.131800         3.5865

MULLIKEN ATOMIC CHARGES
-----------------------
   0 S :    0.108331
   1 C :   -0.139803
   2 C :   -0.028756
   3 C :    0.053778
   4 C :   -0.143341
   5 H :   -0.043316
   6 C :    0.057452
   7 H :    0.022926
   8 H :    0.031167
   9 C :   -0.097753
  10 H :    0.053719
  11 H :    0.017928
  12 C :   -0.052444
  13 H :    0.010722
  14 H :    0.029703
  15 H :    0.041197
  16 S :    0.111949
  17 C :   -0.078489
  18 C :   -0.000799
  19 C :   -0.020804
  20 C :   -0.139704
  21 H :   -0.026921
  22 C :    0.021497
  23 H :    0.043056
  24 H :    0.021325
  25 C :   -0.048354
  26 H :    0.016424
  27 H :    0.021403
  28 C :   -0.011477
  29 H :    0.012014
  30 H :    0.021588
  31 H :    0.026900
  32 H :    0.059529
  33 H :    0.049353
Sum of atomic charges:    0.0000000

LOEWDIN ATOMIC CHARGES
----------------------
   0 S :    0.374518
   1 C :   -0.181712
   2 C :   -0.059590
   3 C :   -0.049130
   4 C :   -0.178322
   5 H :    0.016482
   6 C :   -0.028420
   7 H :    0.033781
   8 H :    0.031061
   9 C :   -0.049880
  10 H :    0.037254
  11 H :    0.015788
  12 C :   -0.071468
  13 H :    0.010589
  14 H :    0.031976
  15 H :    0.036103
  16 S :    0.422193
  17 C :   -0.187207
  18 C :   -0.057231
  19 C :   -0.060512
  20 C :   -0.207098
  21 H :    0.014008
  22 C :   -0.043020
  23 H :    0.038136
  24 H :    0.035481
  25 C :   -0.026053
  26 H :    0.013811
  27 H :    0.017561
  28 C :   -0.056689
  29 H :    0.020334
  30 H :    0.020663
  31 H :    0.025643
  32 H :    0.031941
  33 H :    0.029009

  Mayer bond orders larger than 0.100000
B(  0-S ,  1-C ) :   1.1253 B(  0-S ,  4-C ) :   1.1408 B(  1-C ,  2-C ) :   1.6098
B(  1-C ,  4-C ) :   0.1023 B(  1-C , 32-H ) :   0.9598 B(  2-C ,  3-C ) :   1.2614
B(  2-C ,  6-C ) :   1.0107 B(  3-C ,  4-C ) :   1.5488 B(  3-C ,  5-H ) :   1.0006
B(  4-C , 20-C ) :   1.0538 B(  6-C ,  7-H ) :   0.9494 B(  6-C ,  8-H ) :   0.9341
B(  6-C ,  9-C ) :   1.0453 B(  9-C , 10-H ) :   0.9589 B(  9-C , 11-H ) :   0.9490
B(  9-C , 12-C ) :   1.0939 B( 12-C , 13-H ) :   0.9694 B( 12-C , 14-H ) :   0.9680
B( 12-C , 15-H ) :   0.9725 B( 16-S , 17-C ) :   1.1485 B( 16-S , 20-C ) :   1.1659
B( 17-C , 18-C ) :   1.5873 B( 17-C , 33-H ) :   0.9707 B( 18-C , 19-C ) :   1.2693
B( 18-C , 21-H ) :   1.0049 B( 19-C , 20-C ) :   1.5396 B( 19-C , 22-C ) :   1.0638
B( 22-C , 23-H ) :   0.9383 B( 22-C , 24-H ) :   0.9298 B( 22-C , 25-C ) :   1.0512
B( 25-C , 26-H ) :   0.9513 B( 25-C , 27-H ) :   0.9558 B( 25-C , 28-C ) :   1.0781
B( 28-C , 29-H ) :   0.9721 B( 28-C , 30-H ) :   0.9732 B( 28-C , 31-H ) :   0.9773

Dispersion correction           -0.013874971
FINAL SINGLE POINT ENERGY     -1339.841994764018

DIPOLE MOMENT
-------------
                                X             Y             Z
Electronic contribution:      1.84537     -19.67265      24.61687
Nuclear contribution   :     -1.76485      20.22228     -25.17819
                        -----------------------------------------
Total Dipole Moment    :      0.08052       0.54963      -0.56131
                        -----------------------------------------
Magnitude (a.u.)       :      0.78971
Magnitude (Debye)      :      2.00729

Rotational constants in cm-1:     0.017903     0.008315     0.006143
Rotational constants in MHz :   536.724189   249.270435   184.157964

                             ****ORCA TERMINATED NORMALLY****
TOTAL RUN TIME: 0 days 0 hours 0 minutes 34 seconds 654 msec
