                         Program Version 4.2.1 -  RELEASE  -
|  1> ! wB97X-D3 SP def2-SVP
|  2> %pal
|  3> nprocs 16
|  4> end
|  5>
|  6> * xyz 0 1
|  7> S 	 -24.5145 	 52.1637 	 65.1226
|  8> C 	 -24.3643 	 51.3654 	 63.6084
|  9> C 	 -24.2033 	 49.9973 	 63.8271
| 10> C 	 -24.7495 	 49.5677 	 65.0321
| 11> C 	 -24.9699 	 50.6414 	 65.8719
| 12> H 	 -24.9637 	 48.5194 	 65.3411
| 13> C 	 -23.8291 	 49.0572 	 62.7219
| 14> H 	 -23.0162 	 48.4752 	 63.1386
| 15> H 	 -23.4451 	 49.5618 	 61.8322
| 16> C 	 -24.8908 	 48.0582 	 62.2375
| 17> H 	 -24.4536 	 47.6857 	 61.3378
| 18> H 	 -25.0317 	 47.1851 	 62.8765
| 19> C 	 -26.2695 	 48.594 	 62.1267
| 20> H 	 -26.3834 	 49.656 	 61.7966
| 21> H 	 -26.9333 	 47.9681 	 61.4979
| 22> H 	 -26.7531 	 48.4901 	 63.0757
| 23> S 	 -24.8511 	 51.6363 	 68.4599
| 24> C 	 -25.8614 	 50.9476 	 69.6747
| 25> C 	 -26.6157 	 49.8655 	 69.2426
| 26> C 	 -26.318 	 49.6388 	 67.8742
| 27> C 	 -25.5063 	 50.5895 	 67.2434
| 28> H 	 -27.2869 	 49.2462 	 69.9264
| 29> C 	 -26.9888 	 48.515 	 67.1593
| 30> H 	 -26.4691 	 47.6206 	 67.3378
| 31> H 	 -26.9848 	 48.8575 	 66.1369
| 32> C 	 -28.4443 	 48.1949 	 67.581
| 33> H 	 -28.9399 	 49.223 	 67.7265
| 34> H 	 -28.434 	 47.8112 	 68.5828
| 35> C 	 -29.0206 	 47.2744 	 66.456
| 36> H 	 -28.2714 	 46.5023 	 66.0601
| 37> H 	 -29.2752 	 47.8889 	 65.6558
| 38> H 	 -29.9303 	 46.8878 	 66.8519
| 39> H 	 -24.1311 	 51.8303 	 62.6852
| 40> H 	 -25.8381 	 51.2491 	 70.7418
| 41> *
| 42>
| 43>                          ****END OF INPUT****

CARTESIAN COORDINATES (ANGSTROEM)
---------------------------------
  S    -24.514500   52.163700   65.122600
  C    -24.364300   51.365400   63.608400
  C    -24.203300   49.997300   63.827100
  C    -24.749500   49.567700   65.032100
  C    -24.969900   50.641400   65.871900
  H    -24.963700   48.519400   65.341100
  C    -23.829100   49.057200   62.721900
  H    -23.016200   48.475200   63.138600
  H    -23.445100   49.561800   61.832200
  C    -24.890800   48.058200   62.237500
  H    -24.453600   47.685700   61.337800
  H    -25.031700   47.185100   62.876500
  C    -26.269500   48.594000   62.126700
  H    -26.383400   49.656000   61.796600
  H    -26.933300   47.968100   61.497900
  H    -26.753100   48.490100   63.075700
  S    -24.851100   51.636300   68.459900
  C    -25.861400   50.947600   69.674700
  C    -26.615700   49.865500   69.242600
  C    -26.318000   49.638800   67.874200
  C    -25.506300   50.589500   67.243400
  H    -27.286900   49.246200   69.926400
  C    -26.988800   48.515000   67.159300
  H    -26.469100   47.620600   67.337800
  H    -26.984800   48.857500   66.136900
  C    -28.444300   48.194900   67.581000
  H    -28.939900   49.223000   67.726500
  H    -28.434000   47.811200   68.582800
  C    -29.020600   47.274400   66.456000
  H    -28.271400   46.502300   66.060100
  H    -29.275200   47.888900   65.655800
  H    -29.930300   46.887800   66.851900
  H    -24.131100   51.830300   62.685200
  H    -25.838100   51.249100   70.741800

 Total Charge           Charge          ....    0
 Multiplicity           Mult            ....    1
 Number of Electrons    NEL             ....  134
 Basis Dimension        Dim             ....  322

ORBITAL ENERGIES
----------------

  NO   OCC          E(Eh)            E(eV)
   0   2.0000     -88.966658     -2420.9058
   1   2.0000     -88.966202     -2420.8934
   2   2.0000     -10.331441      -281.1328
   3   2.0000     -10.324035      -280.9313
   4   2.0000     -10.317172      -280.7445
   5   2.0000     -10.308320      -280.5036
   6   2.0000     -10.297992      -280.2226
   7   2.0000     -10.296622      -280.1853
   8   2.0000     -10.296380      -280.1788
   9   2.0000     -10.294445      -280.1261
  10   2.0000     -10.290860      -280.0285
  11   2.0000     -10.287934      -279.9489
  12   2.0000     -10.281396      -279.7710
  13   2.0000     -10.280979      -279.7597
  14   2.0000     -10.278262      -279.6857
  15   2.0000     -10.273513      -279.5565
  16   2.0000      -8.081866      -219.9188
  17   2.0000      -8.081575      -219.9108
  18   2.0000      -6.040332      -164.3658
  19   2.0000      -6.040060      -164.3584
  20   2.0000      -6.036512      -164.2618
  21   2.0000      -6.035982      -164.2474
  22   2.0000      -6.032450      -164.1513
  23   2.0000      -6.032373      -164.1492
  24   2.0000      -1.012270       -27.5453
  25   2.0000      -0.991400       -26.9774
  26   2.0000      -0.917160       -24.9572
  27   2.0000      -0.911869       -24.8132
  28   2.0000      -0.868722       -23.6391
  29   2.0000      -0.855453       -23.2781
  30   2.0000      -0.847194       -23.0533
  31   2.0000      -0.816217       -22.2104
  32   2.0000      -0.784597       -21.3500
  33   2.0000      -0.769776       -20.9467
  34   2.0000      -0.709599       -19.3092
  35   2.0000      -0.699272       -19.0282
  36   2.0000      -0.694305       -18.8930
  37   2.0000      -0.650895       -17.7117
  38   2.0000      -0.636386       -17.3169
  39   2.0000      -0.625036       -17.0081
  40   2.0000      -0.596339       -16.2272
  41   2.0000      -0.573479       -15.6052
  42   2.0000      -0.566072       -15.4036
  43   2.0000      -0.560467       -15.2511
  44   2.0000      -0.538614       -14.6564
  45   2.0000      -0.526158       -14.3175
  46   2.0000      -0.517825       -14.0907
  47   2.0000      -0.513040       -13.9605
  48   2.0000      -0.501541       -13.6476
  49   2.0000      -0.499412       -13.5897
  50   2.0000      -0.487752       -13.2724
  51   2.0000      -0.483272       -13.1505
  52   2.0000      -0.476998       -12.9798
  53   2.0000      -0.470836       -12.8121
  54   2.0000      -0.461424       -12.5560
  55   2.0000      -0.455010       -12.3815
  56   2.0000      -0.446651       -12.1540
  57   2.0000      -0.433808       -11.8045
  58   2.0000      -0.425629       -11.5820
  59   2.0000      -0.421385       -11.4665
  60   2.0000      -0.418822       -11.3967
  61   2.0000      -0.415036       -11.2937
  62   2.0000      -0.410965       -11.1829
  63   2.0000      -0.355675        -9.6784
  64   2.0000      -0.333748        -9.0818
  65   2.0000      -0.327556        -8.9133
  66   2.0000      -0.278442        -7.5768
  67   0.0000       0.025225         0.6864
  68   0.0000       0.073675         2.0048
  69   0.0000       0.105904         2.8818
  70   0.0000       0.117975         3.2103
  71   0.0000       0.130669         3.5557

MULLIKEN ATOMIC CHARGES
-----------------------
   0 S :    0.117271
   1 C :   -0.103546
   2 C :   -0.087996
   3 C :   -0.026861
   4 C :   -0.128464
   5 H :    0.034922
   6 C :    0.070132
   7 H :    0.030899
   8 H :    0.020598
   9 C :   -0.063828
  10 H :    0.022112
  11 H :    0.018842
  12 C :   -0.036877
  13 H :    0.037009
  14 H :    0.027797
  15 H :    0.015397
  16 S :    0.107577
  17 C :   -0.096598
  18 C :   -0.055722
  19 C :   -0.088517
  20 C :   -0.108757
  21 H :    0.048971
  22 C :    0.034810
  23 H :    0.029236
  24 H :    0.036132
  25 C :   -0.125364
  26 H :    0.044955
  27 H :    0.025265
  28 C :   -0.002604
  29 H :    0.047323
  30 H :    0.025924
  31 H :    0.029034
  32 H :    0.036666
  33 H :    0.064264
Sum of atomic charges:    0.0000000

LOEWDIN ATOMIC CHARGES
----------------------
   0 S :    0.412181
   1 C :   -0.201339
   2 C :   -0.061551
   3 C :   -0.069372
   4 C :   -0.181161
   5 H :    0.042257
   6 C :   -0.031690
   7 H :    0.036294
   8 H :    0.029741
   9 C :   -0.044798
  10 H :    0.021303
  11 H :    0.024019
  12 C :   -0.071458
  13 H :    0.028179
  14 H :    0.029335
  15 H :    0.022168
  16 S :    0.422894
  17 C :   -0.196093
  18 C :   -0.083589
  19 C :   -0.061687
  20 C :   -0.211030
  21 H :    0.048042
  22 C :   -0.037994
  23 H :    0.024351
  24 H :    0.029401
  25 C :   -0.041804
  26 H :    0.033257
  27 H :    0.011980
  28 C :   -0.056481
  29 H :    0.037664
  30 H :    0.020379
  31 H :    0.023083
  32 H :    0.019318
  33 H :    0.034202

  Mayer bond orders larger than 0.100000
B(  0-S ,  1-C ) :   1.1423 B(  0-S ,  4-C ) :   1.1555 B(  1-C ,  2-C ) :   1.5737
B(  1-C ,  4-C ) :   0.1053 B(  1-C , 32-H ) :   0.9725 B(  2-C ,  3-C ) :   1.2382
B(  2-C ,  6-C ) :   1.0520 B(  3-C ,  4-C ) :   1.5548 B(  3-C ,  5-H ) :   0.9869
B(  4-C , 20-C ) :   1.0502 B(  6-C ,  7-H ) :   0.9264 B(  6-C ,  8-H ) :   0.9449
B(  6-C ,  9-C ) :   1.0725 B(  9-C , 10-H ) :   0.9579 B(  9-C , 11-H ) :   0.9489
B(  9-C , 12-C ) :   1.0900 B( 12-C , 13-H ) :   0.9749 B( 12-C , 14-H ) :   0.9683
B( 12-C , 15-H ) :   0.9658 B( 16-S , 17-C ) :   1.1808 B( 16-S , 20-C ) :   1.1317
B( 17-C , 18-C ) :   1.5781 B( 17-C , 33-H ) :   0.9587 B( 18-C , 19-C ) :   1.2690
B( 18-C , 21-H ) :   0.9793 B( 19-C , 20-C ) :   1.5832 B( 19-C , 22-C ) :   1.0382
B( 22-C , 23-H ) :   0.9110 B( 22-C , 24-H ) :   0.9464 B( 22-C , 25-C ) :   1.0772
B( 25-C , 26-H ) :   0.9607 B( 25-C , 27-H ) :   0.9486 B( 25-C , 28-C ) :   1.0604
B( 28-C , 29-H ) :   0.9727 B( 28-C , 30-H ) :   0.9742 B( 28-C , 31-H ) :   0.9725

Dispersion correction           -0.014793111
FINAL SINGLE POINT ENERGY     -1339.858113039720

DIPOLE MOMENT
-------------
                                X             Y             Z
Electronic contribution:     14.59501      23.45378      13.98503
Nuclear contribution   :    -14.77556     -24.14586     -14.16011
                        -----------------------------------------
Total Dipole Moment    :     -0.18055      -0.69208      -0.17509
                        -----------------------------------------
Magnitude (a.u.)       :      0.73636
Magnitude (Debye)      :      1.87168

Rotational constants in cm-1:     0.016996     0.010500     0.006960
Rotational constants in MHz :   509.520623   314.784120   208.660305

                             ****ORCA TERMINATED NORMALLY****
TOTAL RUN TIME: 0 days 0 hours 0 minutes 28 seconds 695 msec
