                         Program Version 4.2.1 -  RELEASE  -
|  1> ! wB97X-D3 SP def2-SVP
|  2> %pal
|  3> nprocs 16
|  4> end
|  5>
|  6> * xyz 0 1
|  7> S 	 -59.0461 	 27.9919 	 92.9733
|  8> C 	 -57.8987 	 28.4803 	 94.1672
|  9> C 	 -57.3973 	 27.3969 	 94.9275
| 10> C 	 -58.0952 	 26.1884 	 94.5408
| 11> C 	 -58.9463 	 26.3006 	 93.4798
| 12> H 	 -58.1125 	 25.2525 	 95.1225
| 13> C 	 -56.4278 	 27.5123 	 96.0607
| 14> H 	 -56.9299 	 28.1941 	 96.7683
| 15> H 	 -55.5848 	 27.9462 	 95.5552
| 16> C 	 -56.0456 	 26.2242 	 96.7842
| 17> H 	 -57.0075 	 25.7465 	 96.9751
| 18> H 	 -55.4843 	 25.5593 	 96.0899
| 19> C 	 -55.2489 	 26.5549 	 98.0212
| 20> H 	 -55.7437 	 27.1998 	 98.858
| 21> H 	 -55.1392 	 25.6822 	 98.6123
| 22> H 	 -54.2 	 26.8735 	 97.7922
| 23> S 	 -61.4062 	 25.1802 	 94.1643
| 24> C 	 -62.1824 	 23.9501 	 93.1721
| 25> C 	 -61.2707 	 23.7109 	 92.1362
| 26> C 	 -60.0481 	 24.4584 	 92.1526
| 27> C 	 -60.0014 	 25.3858 	 93.1286
| 28> H 	 -61.6207 	 22.9389 	 91.4046
| 29> C 	 -58.8645 	 24.3531 	 91.1389
| 30> H 	 -58.5197 	 23.3522 	 91.1864
| 31> H 	 -57.9448 	 24.9225 	 91.3146
| 32> C 	 -59.1665 	 24.6547 	 89.6927
| 33> H 	 -60.1027 	 24.1022 	 89.4533
| 34> H 	 -58.3756 	 24.3505 	 89.0068
| 35> C 	 -59.4172 	 26.1211 	 89.4018
| 36> H 	 -60.2321 	 26.5314 	 90.0415
| 37> H 	 -59.791 	 26.3265 	 88.4036
| 38> H 	 -58.5241 	 26.7473 	 89.5221
| 39> H 	 -57.5766 	 29.5339 	 94.3977
| 40> H 	 -63.2582 	 23.6863 	 93.163
| 41> *
| 42>
| 43>                          ****END OF INPUT****

CARTESIAN COORDINATES (ANGSTROEM)
---------------------------------
  S    -59.046100   27.991900   92.973300
  C    -57.898700   28.480300   94.167200
  C    -57.397300   27.396900   94.927500
  C    -58.095200   26.188400   94.540800
  C    -58.946300   26.300600   93.479800
  H    -58.112500   25.252500   95.122500
  C    -56.427800   27.512300   96.060700
  H    -56.929900   28.194100   96.768300
  H    -55.584800   27.946200   95.555200
  C    -56.045600   26.224200   96.784200
  H    -57.007500   25.746500   96.975100
  H    -55.484300   25.559300   96.089900
  C    -55.248900   26.554900   98.021200
  H    -55.743700   27.199800   98.858000
  H    -55.139200   25.682200   98.612300
  H    -54.200000   26.873500   97.792200
  S    -61.406200   25.180200   94.164300
  C    -62.182400   23.950100   93.172100
  C    -61.270700   23.710900   92.136200
  C    -60.048100   24.458400   92.152600
  C    -60.001400   25.385800   93.128600
  H    -61.620700   22.938900   91.404600
  C    -58.864500   24.353100   91.138900
  H    -58.519700   23.352200   91.186400
  H    -57.944800   24.922500   91.314600
  C    -59.166500   24.654700   89.692700
  H    -60.102700   24.102200   89.453300
  H    -58.375600   24.350500   89.006800
  C    -59.417200   26.121100   89.401800
  H    -60.232100   26.531400   90.041500
  H    -59.791000   26.326500   88.403600
  H    -58.524100   26.747300   89.522100
  H    -57.576600   29.533900   94.397700
  H    -63.258200   23.686300   93.163000

 Total Charge           Charge          ....    0
 Multiplicity           Mult            ....    1
 Number of Electrons    NEL             ....  134
 Basis Dimension        Dim             ....  322

ORBITAL ENERGIES
----------------

  NO   OCC          E(Eh)            E(eV)
   0   2.0000     -88.966930     -2420.9132
   1   2.0000     -88.959172     -2420.7021
   2   2.0000     -10.324311      -280.9388
   3   2.0000     -10.322990      -280.9028
   4   2.0000     -10.321141      -280.8525
   5   2.0000     -10.319226      -280.8004
   6   2.0000     -10.304134      -280.3897
   7   2.0000     -10.303287      -280.3667
   8   2.0000     -10.302016      -280.3321
   9   2.0000     -10.296649      -280.1861
  10   2.0000     -10.292908      -280.0843
  11   2.0000     -10.289393      -279.9886
  12   2.0000     -10.287297      -279.9316
  13   2.0000     -10.285784      -279.8904
  14   2.0000     -10.280471      -279.7459
  15   2.0000     -10.269027      -279.4344
  16   2.0000      -8.081379      -219.9055
  17   2.0000      -8.073833      -219.7002
  18   2.0000      -6.039935      -164.3550
  19   2.0000      -6.035824      -164.2431
  20   2.0000      -6.032395      -164.1498
  21   2.0000      -6.032194      -164.1443
  22   2.0000      -6.028156      -164.0345
  23   2.0000      -6.024687      -163.9401
  24   2.0000      -1.007380       -27.4122
  25   2.0000      -0.982974       -26.7481
  26   2.0000      -0.918426       -24.9916
  27   2.0000      -0.906947       -24.6793
  28   2.0000      -0.872486       -23.7416
  29   2.0000      -0.848733       -23.0952
  30   2.0000      -0.840055       -22.8591
  31   2.0000      -0.814737       -22.1701
  32   2.0000      -0.782034       -21.2802
  33   2.0000      -0.772016       -21.0076
  34   2.0000      -0.714507       -19.4427
  35   2.0000      -0.687724       -18.7139
  36   2.0000      -0.686695       -18.6859
  37   2.0000      -0.653021       -17.7696
  38   2.0000      -0.635559       -17.2944
  39   2.0000      -0.616994       -16.7893
  40   2.0000      -0.599094       -16.3022
  41   2.0000      -0.580968       -15.8089
  42   2.0000      -0.565918       -15.3994
  43   2.0000      -0.549521       -14.9532
  44   2.0000      -0.541006       -14.7215
  45   2.0000      -0.525654       -14.3038
  46   2.0000      -0.523569       -14.2470
  47   2.0000      -0.508638       -13.8408
  48   2.0000      -0.501690       -13.6517
  49   2.0000      -0.498102       -13.5540
  50   2.0000      -0.478834       -13.0297
  51   2.0000      -0.475561       -12.9407
  52   2.0000      -0.474354       -12.9078
  53   2.0000      -0.469852       -12.7853
  54   2.0000      -0.456380       -12.4187
  55   2.0000      -0.447185       -12.1685
  56   2.0000      -0.435782       -11.8582
  57   2.0000      -0.434821       -11.8321
  58   2.0000      -0.426592       -11.6082
  59   2.0000      -0.422132       -11.4868
  60   2.0000      -0.416900       -11.3444
  61   2.0000      -0.410799       -11.1784
  62   2.0000      -0.401885       -10.9358
  63   2.0000      -0.336946        -9.1688
  64   2.0000      -0.325957        -8.8697
  65   2.0000      -0.325703        -8.8628
  66   2.0000      -0.306811        -8.3487
  67   0.0000       0.041475         1.1286
  68   0.0000       0.049113         1.3364
  69   0.0000       0.115330         3.1383
  70   0.0000       0.120813         3.2875
  71   0.0000       0.138707         3.7744

MULLIKEN ATOMIC CHARGES
-----------------------
   0 S :    0.123551
   1 C :   -0.139066
   2 C :   -0.119585
   3 C :    0.003820
   4 C :   -0.160622
   5 H :    0.030026
   6 C :    0.065183
   7 H :    0.045271
   8 H :    0.036754
   9 C :   -0.091063
  10 H :    0.034366
  11 H :    0.041136
  12 C :   -0.046450
  13 H :    0.044543
  14 H :    0.016664
  15 H :    0.045597
  16 S :    0.096432
  17 C :   -0.119377
  18 C :   -0.072621
  19 C :   -0.004318
  20 C :   -0.162130
  21 H :    0.038635
  22 C :    0.101196
  23 H :    0.015564
  24 H :    0.029868
  25 C :   -0.079567
  26 H :    0.023914
  27 H :    0.031696
  28 C :   -0.065103
  29 H :    0.030217
  30 H :    0.024986
  31 H :    0.029310
  32 H :    0.064009
  33 H :    0.087164
Sum of atomic charges:    0.0000000

LOEWDIN ATOMIC CHARGES
----------------------
   0 S :    0.419720
   1 C :   -0.213316
   2 C :   -0.066668
   3 C :   -0.060730
   4 C :   -0.201146
   5 H :    0.036503
   6 C :   -0.037677
   7 H :    0.040063
   8 H :    0.034059
   9 C :   -0.044483
  10 H :    0.024871
  11 H :    0.032632
  12 C :   -0.076516
  13 H :    0.039925
  14 H :    0.020526
  15 H :    0.033512
  16 S :    0.392706
  17 C :   -0.194912
  18 C :   -0.079807
  19 C :   -0.057398
  20 C :   -0.199135
  21 H :    0.036648
  22 C :   -0.027488
  23 H :    0.027431
  24 H :    0.034062
  25 C :   -0.045833
  26 H :    0.023056
  27 H :    0.025819
  28 C :   -0.073556
  29 H :    0.025457
  30 H :    0.023429
  31 H :    0.022670
  32 H :    0.039299
  33 H :    0.046277

  Mayer bond orders larger than 0.100000
B(  0-S ,  1-C ) :   1.1617 B(  0-S ,  4-C ) :   1.1448 B(  1-C ,  2-C ) :   1.6009
B(  1-C , 32-H ) :   0.9634 B(  2-C ,  3-C ) :   1.2465 B(  2-C ,  6-C ) :   0.9944
B(  3-C ,  4-C ) :   1.5941 B(  3-C ,  5-H ) :   0.9845 B(  4-C , 20-C ) :   1.0155
B(  6-C ,  7-H ) :   0.9402 B(  6-C ,  8-H ) :   0.9309 B(  6-C ,  9-C ) :   1.0985
B(  9-C , 10-H ) :   0.9455 B(  9-C , 11-H ) :   0.9484 B(  9-C , 12-C ) :   1.0945
B( 12-C , 13-H ) :   0.9695 B( 12-C , 14-H ) :   0.9677 B( 12-C , 15-H ) :   0.9706
B( 16-S , 17-C ) :   1.1547 B( 16-S , 20-C ) :   1.1365 B( 17-C , 18-C ) :   1.6106
B( 17-C , 20-C ) :   0.1006 B( 17-C , 33-H ) :   0.9622 B( 18-C , 19-C ) :   1.2345
B( 18-C , 21-H ) :   0.9812 B( 19-C , 20-C ) :   1.6130 B( 19-C , 22-C ) :   1.0248
B( 22-C , 23-H ) :   0.9262 B( 22-C , 24-H ) :   0.9388 B( 22-C , 25-C ) :   1.0798
B( 25-C , 26-H ) :   0.9547 B( 25-C , 27-H ) :   0.9525 B( 25-C , 28-C ) :   1.0816
B( 28-C , 29-H ) :   0.9745 B( 28-C , 30-H ) :   0.9722 B( 28-C , 31-H ) :   0.9728

Dispersion correction           -0.014626590
FINAL SINGLE POINT ENERGY     -1339.866139136664

DIPOLE MOMENT
-------------
                                X             Y             Z
Electronic contribution:    -16.50695       2.85904      -0.26697
Nuclear contribution   :     16.86676      -3.03167       0.43818
                        -----------------------------------------
Total Dipole Moment    :      0.35982      -0.17263       0.17121
                        -----------------------------------------
Magnitude (a.u.)       :      0.43426
Magnitude (Debye)      :      1.10380

Rotational constants in cm-1:     0.020667     0.007889     0.006989
Rotational constants in MHz :   619.567322   236.499919   209.513289

                             ****ORCA TERMINATED NORMALLY****
TOTAL RUN TIME: 0 days 0 hours 0 minutes 30 seconds 308 msec
