                         Program Version 4.2.1 -  RELEASE  -
|  1> ! wB97X-D3 SP def2-SVP
|  2> %pal
|  3> nprocs 16
|  4> end
|  5>
|  6> * xyz 0 1
|  7> S 	 -15.6805 	 56.8183 	 59.9702
|  8> C 	 -15.4461 	 55.1928 	 59.4267
|  9> C 	 -14.8605 	 54.4448 	 60.489
| 10> C 	 -14.7605 	 55.1934 	 61.6714
| 11> C 	 -15.2713 	 56.4653 	 61.6627
| 12> H 	 -14.4178 	 54.6932 	 62.5886
| 13> C 	 -14.3785 	 53.0709 	 60.2629
| 14> H 	 -13.492 	 52.8753 	 60.9035
| 15> H 	 -14.1044 	 53.1236 	 59.2057
| 16> C 	 -15.4584 	 51.9509 	 60.447
| 17> H 	 -16.2067 	 51.98 	 59.6835
| 18> H 	 -15.028 	 50.9715 	 60.5753
| 19> C 	 -16.2448 	 52.0798 	 61.7456
| 20> H 	 -16.735 	 51.1807 	 62.0138
| 21> H 	 -15.6302 	 52.2712 	 62.6222
| 22> H 	 -16.9983 	 52.7954 	 61.5285
| 23> S 	 -15.5222 	 59.1593 	 62.2776
| 24> C 	 -15.0853 	 59.7272 	 63.8817
| 25> C 	 -14.9926 	 58.6512 	 64.748
| 26> C 	 -15.1539 	 57.3899 	 64.0547
| 27> C 	 -15.209 	 57.4956 	 62.7055
| 28> H 	 -14.7269 	 58.7879 	 65.8098
| 29> C 	 -15.0161 	 56.1399 	 64.9153
| 30> H 	 -14.7716 	 56.3479 	 65.9561
| 31> H 	 -14.0436 	 55.7961 	 64.582
| 32> C 	 -16.1518 	 55.1193 	 64.8242
| 33> H 	 -16.5083 	 54.8367 	 63.8243
| 34> H 	 -17.0287 	 55.454 	 65.3358
| 35> C 	 -15.801 	 53.6756 	 65.3211
| 36> H 	 -15.4527 	 53.7174 	 66.3451
| 37> H 	 -14.9628 	 53.261 	 64.7999
| 38> H 	 -16.6698 	 53.0875 	 65.2825
| 39> H 	 -15.3802 	 54.8895 	 58.3583
| 40> H 	 -14.7718 	 60.7647 	 64.1407
| 41> *
| 42>
| 43>                          ****END OF INPUT****

CARTESIAN COORDINATES (ANGSTROEM)
---------------------------------
  S    -15.680500   56.818300   59.970200
  C    -15.446100   55.192800   59.426700
  C    -14.860500   54.444800   60.489000
  C    -14.760500   55.193400   61.671400
  C    -15.271300   56.465300   61.662700
  H    -14.417800   54.693200   62.588600
  C    -14.378500   53.070900   60.262900
  H    -13.492000   52.875300   60.903500
  H    -14.104400   53.123600   59.205700
  C    -15.458400   51.950900   60.447000
  H    -16.206700   51.980000   59.683500
  H    -15.028000   50.971500   60.575300
  C    -16.244800   52.079800   61.745600
  H    -16.735000   51.180700   62.013800
  H    -15.630200   52.271200   62.622200
  H    -16.998300   52.795400   61.528500
  S    -15.522200   59.159300   62.277600
  C    -15.085300   59.727200   63.881700
  C    -14.992600   58.651200   64.748000
  C    -15.153900   57.389900   64.054700
  C    -15.209000   57.495600   62.705500
  H    -14.726900   58.787900   65.809800
  C    -15.016100   56.139900   64.915300
  H    -14.771600   56.347900   65.956100
  H    -14.043600   55.796100   64.582000
  C    -16.151800   55.119300   64.824200
  H    -16.508300   54.836700   63.824300
  H    -17.028700   55.454000   65.335800
  C    -15.801000   53.675600   65.321100
  H    -15.452700   53.717400   66.345100
  H    -14.962800   53.261000   64.799900
  H    -16.669800   53.087500   65.282500
  H    -15.380200   54.889500   58.358300
  H    -14.771800   60.764700   64.140700

 Total Charge           Charge          ....    0
 Multiplicity           Mult            ....    1
 Number of Electrons    NEL             ....  134
 Basis Dimension        Dim             ....  322

ORBITAL ENERGIES
----------------

  NO   OCC          E(Eh)            E(eV)
   0   2.0000     -88.966687     -2420.9066
   1   2.0000     -88.963674     -2420.8246
   2   2.0000     -10.335393      -281.2403
   3   2.0000     -10.329241      -281.0730
   4   2.0000     -10.322552      -280.8909
   5   2.0000     -10.317905      -280.7645
   6   2.0000     -10.303824      -280.3813
   7   2.0000     -10.298931      -280.2482
   8   2.0000     -10.298259      -280.2299
   9   2.0000     -10.294606      -280.1305
  10   2.0000     -10.293631      -280.1040
  11   2.0000     -10.292263      -280.0667
  12   2.0000     -10.284737      -279.8619
  13   2.0000     -10.282831      -279.8101
  14   2.0000     -10.272740      -279.5355
  15   2.0000     -10.265485      -279.3380
  16   2.0000      -8.081040      -219.8963
  17   2.0000      -8.078680      -219.8321
  18   2.0000      -6.039649      -164.3472
  19   2.0000      -6.037437      -164.2870
  20   2.0000      -6.035482      -164.2338
  21   2.0000      -6.033275      -164.1738
  22   2.0000      -6.031843      -164.1348
  23   2.0000      -6.029048      -164.0587
  24   2.0000      -1.010103       -27.4863
  25   2.0000      -0.987643       -26.8751
  26   2.0000      -0.914282       -24.8789
  27   2.0000      -0.907612       -24.6974
  28   2.0000      -0.869874       -23.6705
  29   2.0000      -0.854392       -23.2492
  30   2.0000      -0.847076       -23.0501
  31   2.0000      -0.821243       -22.3472
  32   2.0000      -0.783268       -21.3138
  33   2.0000      -0.771270       -20.9873
  34   2.0000      -0.709988       -19.3197
  35   2.0000      -0.700237       -19.0544
  36   2.0000      -0.694391       -18.8953
  37   2.0000      -0.664905       -18.0930
  38   2.0000      -0.633510       -17.2387
  39   2.0000      -0.622177       -16.9303
  40   2.0000      -0.592857       -16.1325
  41   2.0000      -0.581190       -15.8150
  42   2.0000      -0.561221       -15.2716
  43   2.0000      -0.548556       -14.9270
  44   2.0000      -0.545342       -14.8395
  45   2.0000      -0.537726       -14.6323
  46   2.0000      -0.516437       -14.0530
  47   2.0000      -0.515803       -14.0357
  48   2.0000      -0.509522       -13.8648
  49   2.0000      -0.503625       -13.7043
  50   2.0000      -0.493529       -13.4296
  51   2.0000      -0.482733       -13.1358
  52   2.0000      -0.472447       -12.8559
  53   2.0000      -0.466434       -12.6923
  54   2.0000      -0.457974       -12.4621
  55   2.0000      -0.452648       -12.3172
  56   2.0000      -0.443404       -12.0656
  57   2.0000      -0.437445       -11.9035
  58   2.0000      -0.433578       -11.7983
  59   2.0000      -0.419964       -11.4278
  60   2.0000      -0.414671       -11.2838
  61   2.0000      -0.409529       -11.1439
  62   2.0000      -0.406675       -11.0662
  63   2.0000      -0.362598        -9.8668
  64   2.0000      -0.333615        -9.0781
  65   2.0000      -0.324485        -8.8297
  66   2.0000      -0.282283        -7.6813
  67   0.0000       0.015884         0.4322
  68   0.0000       0.078774         2.1435
  69   0.0000       0.096852         2.6355
  70   0.0000       0.114845         3.1251
  71   0.0000       0.129546         3.5251

MULLIKEN ATOMIC CHARGES
-----------------------
   0 S :    0.093562
   1 C :   -0.123110
   2 C :   -0.147848
   3 C :    0.009019
   4 C :   -0.096829
   5 H :    0.002294
   6 C :    0.073862
   7 H :    0.033920
   8 H :    0.024820
   9 C :   -0.038925
  10 H :    0.022052
  11 H :    0.025835
  12 C :   -0.052042
  13 H :    0.016273
  14 H :    0.015876
  15 H :    0.040989
  16 S :    0.087012
  17 C :   -0.100685
  18 C :   -0.044127
  19 C :   -0.063243
  20 C :   -0.096600
  21 H :    0.034499
  22 C :    0.056918
  23 H :    0.015246
  24 H :    0.029825
  25 C :   -0.077263
  26 H :    0.041839
  27 H :    0.026889
  28 C :   -0.031961
  29 H :    0.013669
  30 H :    0.026150
  31 H :    0.033038
  32 H :    0.072285
  33 H :    0.076758
Sum of atomic charges:    0.0000000

LOEWDIN ATOMIC CHARGES
----------------------
   0 S :    0.406298
   1 C :   -0.219274
   2 C :   -0.067676
   3 C :   -0.073474
   4 C :   -0.176241
   5 H :    0.030811
   6 C :   -0.033403
   7 H :    0.035506
   8 H :    0.034635
   9 C :   -0.031178
  10 H :    0.021243
  11 H :    0.022529
  12 C :   -0.063410
  13 H :    0.020569
  14 H :    0.021044
  15 H :    0.023753
  16 S :    0.392226
  17 C :   -0.184928
  18 C :   -0.073700
  19 C :   -0.055626
  20 C :   -0.190647
  21 H :    0.037219
  22 C :   -0.035190
  23 H :    0.031418
  24 H :    0.032198
  25 C :   -0.039408
  26 H :    0.028898
  27 H :    0.023334
  28 C :   -0.055547
  29 H :    0.018972
  30 H :    0.016150
  31 H :    0.022292
  32 H :    0.039275
  33 H :    0.041330

  Mayer bond orders larger than 0.100000
B(  0-S ,  1-C ) :   1.1593 B(  0-S ,  4-C ) :   1.1504 B(  1-C ,  2-C ) :   1.5437
B(  1-C ,  4-C ) :   0.1083 B(  1-C , 32-H ) :   0.9598 B(  2-C ,  3-C ) :   1.3129
B(  2-C ,  6-C ) :   1.0287 B(  3-C ,  4-C ) :   1.5209 B(  3-C ,  5-H ) :   0.9833
B(  4-C , 20-C ) :   1.0816 B(  6-C ,  7-H ) :   0.9412 B(  6-C ,  8-H ) :   0.9380
B(  6-C ,  9-C ) :   1.0701 B(  9-C , 10-H ) :   0.9586 B(  9-C , 11-H ) :   0.9610
B(  9-C , 12-C ) :   1.0851 B( 12-C , 13-H ) :   0.9703 B( 12-C , 14-H ) :   0.9713
B( 12-C , 15-H ) :   0.9725 B( 16-S , 17-C ) :   1.1480 B( 16-S , 20-C ) :   1.1091
B( 17-C , 18-C ) :   1.6223 B( 17-C , 33-H ) :   0.9622 B( 18-C , 19-C ) :   1.2197
B( 18-C , 21-H ) :   0.9877 B( 19-C , 20-C ) :   1.6235 B( 19-C , 22-C ) :   1.0253
B( 22-C , 23-H ) :   0.9347 B( 22-C , 24-H ) :   0.9422 B( 22-C , 25-C ) :   1.0427
B( 25-C , 26-H ) :   0.9615 B( 25-C , 27-H ) :   0.9537 B( 25-C , 28-C ) :   1.0810
B( 28-C , 29-H ) :   0.9698 B( 28-C , 30-H ) :   0.9715 B( 28-C , 31-H ) :   0.9749

Dispersion correction           -0.016019269
FINAL SINGLE POINT ENERGY     -1339.861632021933

DIPOLE MOMENT
-------------
                                X             Y             Z
Electronic contribution:      0.62043      29.27829     -12.04861
Nuclear contribution   :     -0.31353     -29.83752      12.52365
                        -----------------------------------------
Total Dipole Moment    :      0.30690      -0.55923       0.47504
                        -----------------------------------------
Magnitude (a.u.)       :      0.79535
Magnitude (Debye)      :      2.02163

Rotational constants in cm-1:     0.019508     0.010379     0.007153
Rotational constants in MHz :   584.825277   311.167484   214.437445

                             ****ORCA TERMINATED NORMALLY****
TOTAL RUN TIME: 0 days 0 hours 0 minutes 34 seconds 783 msec
