                         Program Version 4.2.1 -  RELEASE  -
|  1> ! wB97X-D3 SP def2-SVP
|  2> %pal
|  3> nprocs 16
|  4> end
|  5>
|  6> * xyz 0 1
|  7> S 	 -40.7532 	 31.6457 	 82.3578
|  8> C 	 -40.221 	 31.18 	 80.8351
|  9> C 	 -39.5848 	 32.1739 	 80.1455
| 10> C 	 -39.5302 	 33.3529 	 80.913
| 11> C 	 -40.1192 	 33.2729 	 82.1505
| 12> H 	 -39.0368 	 34.2714 	 80.6855
| 13> C 	 -38.9436 	 32.1609 	 78.7716
| 14> H 	 -39.1347 	 33.0722 	 78.1779
| 15> H 	 -39.4503 	 31.2841 	 78.1391
| 16> C 	 -37.5095 	 31.8199 	 78.8909
| 17> H 	 -36.9897 	 32.4831 	 79.6032
| 18> H 	 -37.3664 	 30.8325 	 79.256
| 19> C 	 -36.768 	 31.8144 	 77.5342
| 20> H 	 -37.1075 	 32.637 	 76.8581
| 21> H 	 -35.7616 	 32.1029 	 77.726
| 22> H 	 -36.8686 	 30.9423 	 76.9139
| 23> S 	 -39.7057 	 33.8966 	 84.6962
| 24> C 	 -39.7738 	 35.5568 	 85.2895
| 25> C 	 -39.9581 	 36.4385 	 84.2336
| 26> C 	 -40.2011 	 35.7393 	 83.0064
| 27> C 	 -40.029 	 34.3609 	 83.0941
| 28> H 	 -40.0141 	 37.4787 	 84.4286
| 29> C 	 -40.84 	 36.5278 	 81.7999
| 30> H 	 -40.7292 	 35.8989 	 80.9179
| 31> H 	 -40.4353 	 37.4527 	 81.6351
| 32> C 	 -42.328 	 36.9158 	 81.8511
| 33> H 	 -42.4145 	 37.3767 	 82.8419
| 34> H 	 -42.8665 	 36.005 	 81.9794
| 35> C 	 -42.8281 	 37.7973 	 80.7201
| 36> H 	 -43.9641 	 37.9349 	 80.8682
| 37> H 	 -42.6256 	 37.2878 	 79.793
| 38> H 	 -42.2627 	 38.7277 	 80.7292
| 39> H 	 -40.5236 	 30.2971 	 80.3908
| 40> H 	 -39.4316 	 35.9384 	 86.2143
| 41> *
| 42>
| 43>                          ****END OF INPUT****

CARTESIAN COORDINATES (ANGSTROEM)
---------------------------------
  S    -40.753200   31.645700   82.357800
  C    -40.221000   31.180000   80.835100
  C    -39.584800   32.173900   80.145500
  C    -39.530200   33.352900   80.913000
  C    -40.119200   33.272900   82.150500
  H    -39.036800   34.271400   80.685500
  C    -38.943600   32.160900   78.771600
  H    -39.134700   33.072200   78.177900
  H    -39.450300   31.284100   78.139100
  C    -37.509500   31.819900   78.890900
  H    -36.989700   32.483100   79.603200
  H    -37.366400   30.832500   79.256000
  C    -36.768000   31.814400   77.534200
  H    -37.107500   32.637000   76.858100
  H    -35.761600   32.102900   77.726000
  H    -36.868600   30.942300   76.913900
  S    -39.705700   33.896600   84.696200
  C    -39.773800   35.556800   85.289500
  C    -39.958100   36.438500   84.233600
  C    -40.201100   35.739300   83.006400
  C    -40.029000   34.360900   83.094100
  H    -40.014100   37.478700   84.428600
  C    -40.840000   36.527800   81.799900
  H    -40.729200   35.898900   80.917900
  H    -40.435300   37.452700   81.635100
  C    -42.328000   36.915800   81.851100
  H    -42.414500   37.376700   82.841900
  H    -42.866500   36.005000   81.979400
  C    -42.828100   37.797300   80.720100
  H    -43.964100   37.934900   80.868200
  H    -42.625600   37.287800   79.793000
  H    -42.262700   38.727700   80.729200
  H    -40.523600   30.297100   80.390800
  H    -39.431600   35.938400   86.214300

 Total Charge           Charge          ....    0
 Multiplicity           Mult            ....    1
 Number of Electrons    NEL             ....  134
 Basis Dimension        Dim             ....  322

ORBITAL ENERGIES
----------------

  NO   OCC          E(Eh)            E(eV)
   0   2.0000     -88.970305     -2421.0051
   1   2.0000     -88.965836     -2420.8835
   2   2.0000     -10.327671      -281.0302
   3   2.0000     -10.326666      -281.0029
   4   2.0000     -10.313832      -280.6536
   5   2.0000     -10.307175      -280.4725
   6   2.0000     -10.305858      -280.4366
   7   2.0000     -10.301085      -280.3068
   8   2.0000     -10.297319      -280.2043
   9   2.0000     -10.293636      -280.1041
  10   2.0000     -10.286242      -279.9029
  11   2.0000     -10.284804      -279.8637
  12   2.0000     -10.282479      -279.8005
  13   2.0000     -10.282042      -279.7886
  14   2.0000     -10.275924      -279.6221
  15   2.0000     -10.274779      -279.5909
  16   2.0000      -8.085954      -220.0300
  17   2.0000      -8.081342      -219.9045
  18   2.0000      -6.044419      -164.4770
  19   2.0000      -6.040238      -164.3632
  20   2.0000      -6.039850      -164.3527
  21   2.0000      -6.036802      -164.2697
  22   2.0000      -6.035633      -164.2379
  23   2.0000      -6.032155      -164.1433
  24   2.0000      -1.017438       -27.6859
  25   2.0000      -0.992826       -27.0162
  26   2.0000      -0.918190       -24.9852
  27   2.0000      -0.907103       -24.6835
  28   2.0000      -0.879811       -23.9409
  29   2.0000      -0.856519       -23.3071
  30   2.0000      -0.845717       -23.0131
  31   2.0000      -0.817525       -22.2460
  32   2.0000      -0.780654       -21.2427
  33   2.0000      -0.773666       -21.0525
  34   2.0000      -0.708401       -19.2766
  35   2.0000      -0.699766       -19.0416
  36   2.0000      -0.691252       -18.8099
  37   2.0000      -0.670757       -18.2522
  38   2.0000      -0.649347       -17.6696
  39   2.0000      -0.623480       -16.9657
  40   2.0000      -0.592830       -16.1317
  41   2.0000      -0.576248       -15.6805
  42   2.0000      -0.570582       -15.5263
  43   2.0000      -0.563286       -15.3278
  44   2.0000      -0.529112       -14.3979
  45   2.0000      -0.523478       -14.2446
  46   2.0000      -0.516366       -14.0510
  47   2.0000      -0.514348       -13.9961
  48   2.0000      -0.507784       -13.8175
  49   2.0000      -0.504600       -13.7309
  50   2.0000      -0.498353       -13.5609
  51   2.0000      -0.485250       -13.2043
  52   2.0000      -0.470192       -12.7946
  53   2.0000      -0.468677       -12.7533
  54   2.0000      -0.467148       -12.7117
  55   2.0000      -0.447905       -12.1881
  56   2.0000      -0.441285       -12.0080
  57   2.0000      -0.436317       -11.8728
  58   2.0000      -0.424589       -11.5537
  59   2.0000      -0.423706       -11.5296
  60   2.0000      -0.421011       -11.4563
  61   2.0000      -0.413329       -11.2472
  62   2.0000      -0.409152       -11.1336
  63   2.0000      -0.361132        -9.8269
  64   2.0000      -0.334561        -9.1039
  65   2.0000      -0.330240        -8.9863
  66   2.0000      -0.287640        -7.8271
  67   0.0000       0.029027         0.7899
  68   0.0000       0.075784         2.0622
  69   0.0000       0.113408         3.0860
  70   0.0000       0.120553         3.2804
  71   0.0000       0.133668         3.6373

MULLIKEN ATOMIC CHARGES
-----------------------
   0 S :    0.132170
   1 C :   -0.092874
   2 C :   -0.048724
   3 C :    0.005973
   4 C :   -0.129352
   5 H :    0.010689
   6 C :    0.020873
   7 H :    0.038278
   8 H :    0.031513
   9 C :   -0.060064
  10 H :    0.031563
  11 H :    0.022672
  12 C :   -0.030038
  13 H :    0.014637
  14 H :    0.025984
  15 H :    0.037394
  16 S :    0.103788
  17 C :   -0.074977
  18 C :   -0.037831
  19 C :   -0.047164
  20 C :   -0.156240
  21 H :    0.015577
  22 C :    0.088462
  23 H :    0.007744
  24 H :   -0.012707
  25 C :   -0.074050
  26 H :    0.011673
  27 H :    0.018315
  28 C :   -0.042261
  29 H :    0.059709
  30 H :    0.031239
  31 H :    0.034588
  32 H :    0.019549
  33 H :    0.043893
Sum of atomic charges:   -0.0000000

LOEWDIN ATOMIC CHARGES
----------------------
   0 S :    0.434361
   1 C :   -0.203114
   2 C :   -0.064355
   3 C :   -0.054743
   4 C :   -0.201437
   5 H :    0.027940
   6 C :   -0.036775
   7 H :    0.031249
   8 H :    0.038330
   9 C :   -0.041948
  10 H :    0.026899
  11 H :    0.024541
  12 C :   -0.066785
  13 H :    0.025273
  14 H :    0.024433
  15 H :    0.023137
  16 S :    0.425448
  17 C :   -0.184136
  18 C :   -0.059886
  19 C :   -0.061850
  20 C :   -0.202981
  21 H :    0.028213
  22 C :   -0.025516
  23 H :    0.022245
  24 H :    0.011382
  25 C :   -0.044311
  26 H :    0.019062
  27 H :    0.017692
  28 C :   -0.063140
  29 H :    0.044329
  30 H :    0.023564
  31 H :    0.025428
  32 H :    0.014941
  33 H :    0.022508

  Mayer bond orders larger than 0.100000
B(  0-S ,  1-C ) :   1.1578 B(  0-S ,  4-C ) :   1.1442 B(  1-C ,  2-C ) :   1.5922
B(  1-C , 32-H ) :   0.9721 B(  2-C ,  3-C ) :   1.2608 B(  2-C ,  6-C ) :   1.0185
B(  3-C ,  4-C ) :   1.5596 B(  3-C ,  5-H ) :   0.9967 B(  4-C , 20-C ) :   1.0557
B(  6-C ,  7-H ) :   0.9443 B(  6-C ,  8-H ) :   0.9399 B(  6-C ,  9-C ) :   1.0736
B(  9-C , 10-H ) :   0.9592 B(  9-C , 11-H ) :   0.9495 B(  9-C , 12-C ) :   1.0743
B( 12-C , 13-H ) :   0.9723 B( 12-C , 14-H ) :   0.9738 B( 12-C , 15-H ) :   0.9776
B( 16-S , 17-C ) :   1.1482 B( 16-S , 20-C ) :   1.1565 B( 17-C , 18-C ) :   1.6154
B( 17-C , 33-H ) :   0.9674 B( 18-C , 19-C ) :   1.2448 B( 18-C , 21-H ) :   0.9928
B( 19-C , 20-C ) :   1.5814 B( 19-C , 22-C ) :   1.0461 B( 22-C , 23-H ) :   0.9343
B( 22-C , 24-H ) :   0.9345 B( 22-C , 25-C ) :   1.0614 B( 25-C , 26-H ) :   0.9530
B( 25-C , 27-H ) :   0.9522 B( 25-C , 28-C ) :   1.0768 B( 28-C , 29-H ) :   0.9710
B( 28-C , 30-H ) :   0.9756 B( 28-C , 31-H ) :   0.9721

Dispersion correction           -0.013479385
FINAL SINGLE POINT ENERGY     -1339.862081995046

DIPOLE MOMENT
-------------
                                X             Y             Z
Electronic contribution:     -2.39708     -11.26853      24.22184
Nuclear contribution   :      2.52599      11.57975     -24.69881
                        -----------------------------------------
Total Dipole Moment    :      0.12891       0.31122      -0.47697
                        -----------------------------------------
Magnitude (a.u.)       :      0.58393
Magnitude (Debye)      :      1.48423

Rotational constants in cm-1:     0.017213     0.008079     0.006680
Rotational constants in MHz :   516.017974   242.209435   200.248836

                             ****ORCA TERMINATED NORMALLY****
TOTAL RUN TIME: 0 days 0 hours 0 minutes 29 seconds 194 msec
