                         Program Version 4.2.1 -  RELEASE  -
|  1> ! wB97X-D3 SP def2-SVP
|  2> %pal
|  3> nprocs 16
|  4> end
|  5>
|  6> * xyz 0 1
|  7> S 	 50.2173 	 4.25592 	 82.1655
|  8> C 	 51.6802 	 4.99251 	 81.4849
|  9> C 	 52.0779 	 6.02773 	 82.3107
| 10> C 	 51.2355 	 6.33733 	 83.4455
| 11> C 	 50.2046 	 5.40507 	 83.5313
| 12> H 	 51.3131 	 7.15478 	 84.1959
| 13> C 	 53.357 	 6.83103 	 82.086
| 14> H 	 52.9869 	 7.84951 	 82.08
| 15> H 	 53.7537 	 6.53159 	 81.1483
| 16> C 	 54.3808 	 6.6036 	 83.1515
| 17> H 	 53.8212 	 6.73705 	 84.0829
| 18> H 	 54.8052 	 5.5972 	 83.0749
| 19> C 	 55.4774 	 7.64663 	 83.0493
| 20> H 	 56.0183 	 7.65578 	 82.0447
| 21> H 	 55.0878 	 8.61485 	 83.3169
| 22> H 	 56.2531 	 7.37186 	 83.7049
| 23> S 	 47.6208 	 5.39384 	 84.069
| 24> C 	 47.0651 	 5.67323 	 85.7088
| 25> C 	 48.0707 	 5.61879 	 86.6433
| 26> C 	 49.3508 	 5.52488 	 85.9636
| 27> C 	 49.2564 	 5.34579 	 84.5937
| 28> H 	 47.7948 	 5.71778 	 87.6796
| 29> C 	 50.6044 	 5.33007 	 86.7489
| 30> H 	 50.4174 	 5.90473 	 87.6349
| 31> H 	 51.3954 	 5.81526 	 86.1533
| 32> C 	 50.8293 	 3.85523 	 87.1691
| 33> H 	 49.8853 	 3.4109 	 87.6088
| 34> H 	 51.5767 	 3.71687 	 87.9782
| 35> C 	 51.3578 	 2.95779 	 86.1106
| 36> H 	 52.318 	 3.44809 	 85.8941
| 37> H 	 50.7558 	 3.00161 	 85.2084
| 38> H 	 51.4811 	 2.00119 	 86.5551
| 39> H 	 52.3466 	 4.50802 	 80.7554
| 40> H 	 46.1235 	 5.90058 	 86.047
| 41> *
| 42>
| 43>                          ****END OF INPUT****

CARTESIAN COORDINATES (ANGSTROEM)
---------------------------------
  S     50.217300    4.255920   82.165500
  C     51.680200    4.992510   81.484900
  C     52.077900    6.027730   82.310700
  C     51.235500    6.337330   83.445500
  C     50.204600    5.405070   83.531300
  H     51.313100    7.154780   84.195900
  C     53.357000    6.831030   82.086000
  H     52.986900    7.849510   82.080000
  H     53.753700    6.531590   81.148300
  C     54.380800    6.603600   83.151500
  H     53.821200    6.737050   84.082900
  H     54.805200    5.597200   83.074900
  C     55.477400    7.646630   83.049300
  H     56.018300    7.655780   82.044700
  H     55.087800    8.614850   83.316900
  H     56.253100    7.371860   83.704900
  S     47.620800    5.393840   84.069000
  C     47.065100    5.673230   85.708800
  C     48.070700    5.618790   86.643300
  C     49.350800    5.524880   85.963600
  C     49.256400    5.345790   84.593700
  H     47.794800    5.717780   87.679600
  C     50.604400    5.330070   86.748900
  H     50.417400    5.904730   87.634900
  H     51.395400    5.815260   86.153300
  C     50.829300    3.855230   87.169100
  H     49.885300    3.410900   87.608800
  H     51.576700    3.716870   87.978200
  C     51.357800    2.957790   86.110600
  H     52.318000    3.448090   85.894100
  H     50.755800    3.001610   85.208400
  H     51.481100    2.001190   86.555100
  H     52.346600    4.508020   80.755400
  H     46.123500    5.900580   86.047000

 Total Charge           Charge          ....    0
 Multiplicity           Mult            ....    1
 Number of Electrons    NEL             ....  134
 Basis Dimension        Dim             ....  322

ORBITAL ENERGIES
----------------

  NO   OCC          E(Eh)            E(eV)
   0   2.0000     -88.967256     -2420.9221
   1   2.0000     -88.965365     -2420.8707
   2   2.0000     -10.334882      -281.2264
   3   2.0000     -10.321300      -280.8568
   4   2.0000     -10.315704      -280.7046
   5   2.0000     -10.310890      -280.5736
   6   2.0000     -10.304279      -280.3937
   7   2.0000     -10.302700      -280.3507
   8   2.0000     -10.301114      -280.3076
   9   2.0000     -10.295261      -280.1483
  10   2.0000     -10.287727      -279.9433
  11   2.0000     -10.285257      -279.8761
  12   2.0000     -10.283352      -279.8242
  13   2.0000     -10.282166      -279.7919
  14   2.0000     -10.276809      -279.6462
  15   2.0000     -10.263076      -279.2725
  16   2.0000      -8.080833      -219.8907
  17   2.0000      -8.080791      -219.8895
  18   2.0000      -6.039515      -164.3436
  19   2.0000      -6.039352      -164.3391
  20   2.0000      -6.035493      -164.2341
  21   2.0000      -6.035169      -164.2253
  22   2.0000      -6.031476      -164.1248
  23   2.0000      -6.031466      -164.1245
  24   2.0000      -1.010600       -27.4998
  25   2.0000      -0.981238       -26.7008
  26   2.0000      -0.919626       -25.0243
  27   2.0000      -0.912226       -24.8229
  28   2.0000      -0.877783       -23.8857
  29   2.0000      -0.854861       -23.2620
  30   2.0000      -0.845335       -23.0027
  31   2.0000      -0.820022       -22.3139
  32   2.0000      -0.781003       -21.2522
  33   2.0000      -0.769248       -20.9323
  34   2.0000      -0.710319       -19.3288
  35   2.0000      -0.694746       -18.9050
  36   2.0000      -0.687401       -18.7051
  37   2.0000      -0.664565       -18.0837
  38   2.0000      -0.638988       -17.3877
  39   2.0000      -0.621865       -16.9218
  40   2.0000      -0.588696       -16.0192
  41   2.0000      -0.577492       -15.7144
  42   2.0000      -0.566972       -15.4281
  43   2.0000      -0.560501       -15.2520
  44   2.0000      -0.542970       -14.7750
  45   2.0000      -0.522952       -14.2303
  46   2.0000      -0.521589       -14.1931
  47   2.0000      -0.515797       -14.0355
  48   2.0000      -0.506628       -13.7860
  49   2.0000      -0.505282       -13.7494
  50   2.0000      -0.496436       -13.5087
  51   2.0000      -0.479231       -13.0405
  52   2.0000      -0.471770       -12.8375
  53   2.0000      -0.467529       -12.7221
  54   2.0000      -0.452207       -12.3052
  55   2.0000      -0.445714       -12.1285
  56   2.0000      -0.442756       -12.0480
  57   2.0000      -0.437262       -11.8985
  58   2.0000      -0.435309       -11.8454
  59   2.0000      -0.424349       -11.5471
  60   2.0000      -0.420648       -11.4464
  61   2.0000      -0.407999       -11.1022
  62   2.0000      -0.404064       -10.9951
  63   2.0000      -0.353779        -9.6268
  64   2.0000      -0.330492        -8.9932
  65   2.0000      -0.328017        -8.9258
  66   2.0000      -0.289587        -7.8801
  67   0.0000       0.028358         0.7717
  68   0.0000       0.067054         1.8246
  69   0.0000       0.107175         2.9164
  70   0.0000       0.115208         3.1350
  71   0.0000       0.128165         3.4875

MULLIKEN ATOMIC CHARGES
-----------------------
   0 S :    0.095489
   1 C :   -0.119838
   2 C :   -0.116712
   3 C :    0.005735
   4 C :   -0.138150
   5 H :    0.045623
   6 C :    0.096339
   7 H :    0.028256
   8 H :   -0.001432
   9 C :   -0.080349
  10 H :    0.022751
  11 H :    0.031230
  12 C :   -0.021930
  13 H :    0.034853
  14 H :    0.029440
  15 H :    0.019714
  16 S :    0.111886
  17 C :   -0.046610
  18 C :   -0.040991
  19 C :   -0.087599
  20 C :   -0.138960
  21 H :    0.022552
  22 C :    0.109339
  23 H :    0.011217
  24 H :    0.014064
  25 C :   -0.098463
  26 H :    0.025580
  27 H :    0.025672
  28 C :   -0.005906
  29 H :    0.019462
  30 H :    0.035671
  31 H :    0.030992
  32 H :    0.065599
  33 H :    0.015475
Sum of atomic charges:    0.0000000

LOEWDIN ATOMIC CHARGES
----------------------
   0 S :    0.375764
   1 C :   -0.209381
   2 C :   -0.053188
   3 C :   -0.072706
   4 C :   -0.175527
   5 H :    0.041702
   6 C :   -0.026307
   7 H :    0.032113
   8 H :    0.019519
   9 C :   -0.039781
  10 H :    0.023112
  11 H :    0.027073
  12 C :   -0.062354
  13 H :    0.032982
  14 H :    0.022871
  15 H :    0.018750
  16 S :    0.421396
  17 C :   -0.166934
  18 C :   -0.064846
  19 C :   -0.054498
  20 C :   -0.216603
  21 H :    0.035056
  22 C :   -0.033941
  23 H :    0.028520
  24 H :    0.028736
  25 C :   -0.043615
  26 H :    0.024609
  27 H :    0.024205
  28 C :   -0.058438
  29 H :    0.027233
  30 H :    0.020675
  31 H :    0.023529
  32 H :    0.038234
  33 H :    0.012037

  Mayer bond orders larger than 0.100000
B(  0-S ,  1-C ) :   1.0960 B(  0-S ,  4-C ) :   1.1457 B(  1-C ,  2-C ) :   1.6591
B(  1-C , 32-H ) :   0.9609 B(  2-C ,  3-C ) :   1.1962 B(  2-C ,  6-C ) :   1.0217
B(  3-C ,  4-C ) :   1.5952 B(  3-C ,  5-H ) :   0.9786 B(  4-C , 20-C ) :   1.0365
B(  6-C ,  7-H ) :   0.9388 B(  6-C ,  8-H ) :   0.9367 B(  6-C ,  9-C ) :   1.0736
B(  9-C , 10-H ) :   0.9542 B(  9-C , 11-H ) :   0.9519 B(  9-C , 12-C ) :   1.0915
B( 12-C , 13-H ) :   0.9709 B( 12-C , 14-H ) :   0.9746 B( 12-C , 15-H ) :   0.9719
B( 16-S , 17-C ) :   1.1534 B( 16-S , 20-C ) :   1.1311 B( 17-C , 18-C ) :   1.6383
B( 17-C , 33-H ) :   0.9724 B( 18-C , 19-C ) :   1.2065 B( 18-C , 21-H ) :   0.9930
B( 19-C , 20-C ) :   1.5997 B( 19-C , 22-C ) :   1.0587 B( 22-C , 23-H ) :   0.9172
B( 22-C , 24-H ) :   0.9326 B( 22-C , 25-C ) :   1.0642 B( 25-C , 26-H ) :   0.9503
B( 25-C , 27-H ) :   0.9577 B( 25-C , 28-C ) :   1.0814 B( 28-C , 29-H ) :   0.9742
B( 28-C , 30-H ) :   0.9718 B( 28-C , 31-H ) :   0.9697

Dispersion correction           -0.015265528
FINAL SINGLE POINT ENERGY     -1339.867882055241

DIPOLE MOMENT
-------------
                                X             Y             Z
Electronic contribution:    -25.37232      -3.44336      -9.95012
Nuclear contribution   :     25.84774       3.70687      10.47190
                        -----------------------------------------
Total Dipole Moment    :      0.47541       0.26351       0.52177
                        -----------------------------------------
Magnitude (a.u.)       :      0.75346
Magnitude (Debye)      :      1.91514

Rotational constants in cm-1:     0.020039     0.008931     0.007605
Rotational constants in MHz :   600.752784   267.748984   227.989702

                             ****ORCA TERMINATED NORMALLY****
TOTAL RUN TIME: 0 days 0 hours 0 minutes 30 seconds 544 msec
