                         Program Version 4.2.1 -  RELEASE  -
|  1> ! wB97X-D3 SP def2-SVP
|  2> %pal
|  3> nprocs 16
|  4> end
|  5>
|  6> * xyz 0 1
|  7> S 	 -19.3991 	 33.5666 	 37.2995
|  8> C 	 -20.6093 	 33.891 	 36.0175
|  9> C 	 -20.4294 	 35.1789 	 35.4802
| 10> C 	 -19.3482 	 35.9046 	 36.1361
| 11> C 	 -18.6107 	 35.153 	 37.0638
| 12> H 	 -19.0938 	 36.9583 	 35.8806
| 13> C 	 -21.1903 	 35.757 	 34.2984
| 14> H 	 -21.1491 	 35.1301 	 33.4294
| 15> H 	 -20.5932 	 36.598 	 34.0969
| 16> C 	 -22.5539 	 36.3291 	 34.6712
| 17> H 	 -22.3694 	 37.1956 	 35.3432
| 18> H 	 -23.0819 	 36.8024 	 33.8243
| 19> C 	 -23.671 	 35.4259 	 35.2198
| 20> H 	 -23.4368 	 34.7607 	 35.9947
| 21> H 	 -24.573 	 35.9682 	 35.482
| 22> H 	 -24.043 	 34.9307 	 34.3706
| 23> S 	 -16.1796 	 34.2824 	 37.8697
| 24> C 	 -15.0112 	 35.3994 	 38.6556
| 25> C 	 -15.6537 	 36.5608 	 39.0635
| 26> C 	 -16.9741 	 36.6828 	 38.4459
| 27> C 	 -17.428 	 35.5131 	 37.8824
| 28> H 	 -15.171 	 37.3798 	 39.6348
| 29> C 	 -17.7757 	 38.0628 	 38.5322
| 30> H 	 -17.5773 	 38.4689 	 39.5531
| 31> H 	 -18.8199 	 37.7854 	 38.5776
| 32> C 	 -17.5118 	 39.0799 	 37.4433
| 33> H 	 -18.2475 	 39.8876 	 37.4588
| 34> H 	 -17.7352 	 38.644 	 36.4227
| 35> C 	 -16.1168 	 39.5431 	 37.406
| 36> H 	 -16.0834 	 40.3674 	 36.7013
| 37> H 	 -15.5086 	 38.7921 	 36.9218
| 38> H 	 -15.8379 	 39.9936 	 38.3574
| 39> H 	 -21.3538 	 33.2215 	 35.5623
| 40> H 	 -13.9841 	 35.1702 	 38.832
| 41> *
| 42>
| 43>                          ****END OF INPUT****

CARTESIAN COORDINATES (ANGSTROEM)
---------------------------------
  S    -19.399100   33.566600   37.299500
  C    -20.609300   33.891000   36.017500
  C    -20.429400   35.178900   35.480200
  C    -19.348200   35.904600   36.136100
  C    -18.610700   35.153000   37.063800
  H    -19.093800   36.958300   35.880600
  C    -21.190300   35.757000   34.298400
  H    -21.149100   35.130100   33.429400
  H    -20.593200   36.598000   34.096900
  C    -22.553900   36.329100   34.671200
  H    -22.369400   37.195600   35.343200
  H    -23.081900   36.802400   33.824300
  C    -23.671000   35.425900   35.219800
  H    -23.436800   34.760700   35.994700
  H    -24.573000   35.968200   35.482000
  H    -24.043000   34.930700   34.370600
  S    -16.179600   34.282400   37.869700
  C    -15.011200   35.399400   38.655600
  C    -15.653700   36.560800   39.063500
  C    -16.974100   36.682800   38.445900
  C    -17.428000   35.513100   37.882400
  H    -15.171000   37.379800   39.634800
  C    -17.775700   38.062800   38.532200
  H    -17.577300   38.468900   39.553100
  H    -18.819900   37.785400   38.577600
  C    -17.511800   39.079900   37.443300
  H    -18.247500   39.887600   37.458800
  H    -17.735200   38.644000   36.422700
  C    -16.116800   39.543100   37.406000
  H    -16.083400   40.367400   36.701300
  H    -15.508600   38.792100   36.921800
  H    -15.837900   39.993600   38.357400
  H    -21.353800   33.221500   35.562300
  H    -13.984100   35.170200   38.832000

 Total Charge           Charge          ....    0
 Multiplicity           Mult            ....    1
 Number of Electrons    NEL             ....  134
 Basis Dimension        Dim             ....  322

ORBITAL ENERGIES
----------------

  NO   OCC          E(Eh)            E(eV)
   0   2.0000     -88.968820     -2420.9647
   1   2.0000     -88.965189     -2420.8659
   2   2.0000     -10.340005      -281.3658
   3   2.0000     -10.331538      -281.1354
   4   2.0000     -10.324140      -280.9341
   5   2.0000     -10.320455      -280.8339
   6   2.0000     -10.311608      -280.5931
   7   2.0000     -10.306026      -280.4412
   8   2.0000     -10.304582      -280.4019
   9   2.0000     -10.303431      -280.3706
  10   2.0000     -10.297668      -280.2138
  11   2.0000     -10.290092      -280.0076
  12   2.0000     -10.289364      -279.9878
  13   2.0000     -10.288090      -279.9532
  14   2.0000     -10.272980      -279.5420
  15   2.0000     -10.266707      -279.3713
  16   2.0000      -8.081919      -219.9202
  17   2.0000      -8.079379      -219.8511
  18   2.0000      -6.040680      -164.3753
  19   2.0000      -6.038119      -164.3056
  20   2.0000      -6.036629      -164.2650
  21   2.0000      -6.033947      -164.1920
  22   2.0000      -6.032523      -164.1533
  23   2.0000      -6.029924      -164.0826
  24   2.0000      -0.998017       -27.1574
  25   2.0000      -0.973012       -26.4770
  26   2.0000      -0.914420       -24.8826
  27   2.0000      -0.911126       -24.7930
  28   2.0000      -0.864486       -23.5239
  29   2.0000      -0.848222       -23.0813
  30   2.0000      -0.842287       -22.9198
  31   2.0000      -0.812871       -22.1194
  32   2.0000      -0.788150       -21.4467
  33   2.0000      -0.778637       -21.1878
  34   2.0000      -0.704156       -19.1611
  35   2.0000      -0.698636       -19.0108
  36   2.0000      -0.688071       -18.7234
  37   2.0000      -0.665437       -18.1075
  38   2.0000      -0.632175       -17.2024
  39   2.0000      -0.613725       -16.7003
  40   2.0000      -0.590121       -16.0580
  41   2.0000      -0.570132       -15.5141
  42   2.0000      -0.560443       -15.2504
  43   2.0000      -0.557085       -15.1591
  44   2.0000      -0.548804       -14.9337
  45   2.0000      -0.542112       -14.7516
  46   2.0000      -0.515637       -14.0312
  47   2.0000      -0.508510       -13.8373
  48   2.0000      -0.501539       -13.6476
  49   2.0000      -0.497643       -13.5415
  50   2.0000      -0.492250       -13.3948
  51   2.0000      -0.482589       -13.1319
  52   2.0000      -0.473825       -12.8934
  53   2.0000      -0.461231       -12.5507
  54   2.0000      -0.457329       -12.4446
  55   2.0000      -0.444252       -12.0887
  56   2.0000      -0.438653       -11.9364
  57   2.0000      -0.435024       -11.8376
  58   2.0000      -0.433403       -11.7935
  59   2.0000      -0.427607       -11.6358
  60   2.0000      -0.416746       -11.3402
  61   2.0000      -0.411021       -11.1845
  62   2.0000      -0.406383       -11.0583
  63   2.0000      -0.351607        -9.5677
  64   2.0000      -0.330009        -8.9800
  65   2.0000      -0.329088        -8.9549
  66   2.0000      -0.291068        -7.9204
  67   0.0000       0.025964         0.7065
  68   0.0000       0.064422         1.7530
  69   0.0000       0.104719         2.8495
  70   0.0000       0.117753         3.2042
  71   0.0000       0.122006         3.3199

MULLIKEN ATOMIC CHARGES
-----------------------
   0 S :    0.097327
   1 C :   -0.111699
   2 C :   -0.151193
   3 C :    0.014779
   4 C :   -0.119182
   5 H :    0.016819
   6 C :    0.134738
   7 H :    0.035243
   8 H :   -0.000848
   9 C :   -0.098549
  10 H :    0.025422
  11 H :    0.025493
  12 C :   -0.011485
  13 H :    0.032664
  14 H :    0.021847
  15 H :    0.006170
  16 S :    0.089949
  17 C :   -0.093528
  18 C :   -0.015266
  19 C :   -0.102370
  20 C :   -0.113089
  21 H :    0.039177
  22 C :    0.056638
  23 H :    0.029182
  24 H :    0.027771
  25 C :   -0.081076
  26 H :    0.027748
  27 H :    0.023925
  28 C :   -0.015610
  29 H :    0.016007
  30 H :    0.047885
  31 H :    0.028763
  32 H :    0.060118
  33 H :    0.056229
Sum of atomic charges:   -0.0000000

LOEWDIN ATOMIC CHARGES
----------------------
   0 S :    0.376938
   1 C :   -0.195237
   2 C :   -0.057811
   3 C :   -0.072993
   4 C :   -0.178702
   5 H :    0.032536
   6 C :   -0.026954
   7 H :    0.030118
   8 H :    0.029175
   9 C :   -0.041597
  10 H :    0.024428
  11 H :    0.027326
  12 C :   -0.064834
  13 H :    0.015007
  14 H :    0.031247
  15 H :    0.019743
  16 S :    0.384833
  17 C :   -0.163679
  18 C :   -0.068157
  19 C :   -0.053850
  20 C :   -0.198869
  21 H :    0.038682
  22 C :   -0.030085
  23 H :    0.032213
  24 H :    0.029085
  25 C :   -0.050439
  26 H :    0.024326
  27 H :    0.026458
  28 C :   -0.064890
  29 H :    0.027170
  30 H :    0.032688
  31 H :    0.024678
  32 H :    0.036113
  33 H :    0.025334

  Mayer bond orders larger than 0.100000
B(  0-S ,  1-C ) :   1.1202 B(  0-S ,  4-C ) :   1.1404 B(  1-C ,  2-C ) :   1.6245
B(  1-C ,  4-C ) :   0.1005 B(  1-C , 32-H ) :   0.9607 B(  2-C ,  3-C ) :   1.2492
B(  2-C ,  6-C ) :   1.0097 B(  3-C ,  4-C ) :   1.5874 B(  3-C ,  5-H ) :   0.9767
B(  4-C , 20-C ) :   1.0078 B(  6-C ,  7-H ) :   0.9462 B(  6-C ,  8-H ) :   0.9255
B(  6-C ,  9-C ) :   1.0731 B(  9-C , 10-H ) :   0.9562 B(  9-C , 11-H ) :   0.9569
B(  9-C , 12-C ) :   1.0805 B( 12-C , 13-H ) :   0.9752 B( 12-C , 14-H ) :   0.9673
B( 12-C , 15-H ) :   0.9731 B( 16-S , 17-C ) :   1.1420 B( 16-S , 20-C ) :   1.1205
B( 17-C , 18-C ) :   1.6230 B( 17-C , 33-H ) :   0.9727 B( 18-C , 19-C ) :   1.2146
B( 18-C , 21-H ) :   0.9781 B( 19-C , 20-C ) :   1.6622 B( 19-C , 22-C ) :   1.0087
B( 22-C , 23-H ) :   0.9462 B( 22-C , 24-H ) :   0.9388 B( 22-C , 25-C ) :   1.0735
B( 25-C , 26-H ) :   0.9524 B( 25-C , 27-H ) :   0.9437 B( 25-C , 28-C ) :   1.0967
B( 28-C , 29-H ) :   0.9640 B( 28-C , 30-H ) :   0.9677 B( 28-C , 31-H ) :   0.9729

Dispersion correction           -0.014641643
FINAL SINGLE POINT ENERGY     -1339.862699270303

DIPOLE MOMENT
-------------
                                X             Y             Z
Electronic contribution:     13.49701     -22.12124       9.19350
Nuclear contribution   :    -13.59826      22.90260      -9.51189
                        -----------------------------------------
Total Dipole Moment    :     -0.10125       0.78136      -0.31839
                        -----------------------------------------
Magnitude (a.u.)       :      0.84979
Magnitude (Debye)      :      2.16000

Rotational constants in cm-1:     0.020762     0.008322     0.006361
Rotational constants in MHz :   622.418963   249.487576   190.686980

                             ****ORCA TERMINATED NORMALLY****
TOTAL RUN TIME: 0 days 0 hours 0 minutes 34 seconds 98 msec
