                         Program Version 4.2.1 -  RELEASE  -
|  1> ! wB97X-D3 SP def2-SVP
|  2> %pal
|  3> nprocs 16
|  4> end
|  5>
|  6> * xyz 0 1
|  7> S 	 -3.22592 	 -21.6468 	 56.9771
|  8> C 	 -1.91193 	 -21.5956 	 55.8284
|  9> C 	 -1.88446 	 -20.3738 	 55.154
| 10> C 	 -2.82298 	 -19.4788 	 55.663
| 11> C 	 -3.58791 	 -20.0201 	 56.7082
| 12> H 	 -3.14809 	 -18.5613 	 55.3307
| 13> C 	 -1.00479 	 -19.975 	 53.9697
| 14> H 	 -0.096182 	 -20.4844 	 54.2242
| 15> H 	 -0.859566 	 -18.8912 	 54.1409
| 16> C 	 -1.50834 	 -20.3536 	 52.5352
| 17> H 	 -0.588582 	 -20.3412 	 51.911
| 18> H 	 -1.76171 	 -21.3734 	 52.4789
| 19> C 	 -2.72979 	 -19.5592 	 51.9704
| 20> H 	 -3.17421 	 -20.1229 	 51.1555
| 21> H 	 -3.35059 	 -19.305 	 52.8651
| 22> H 	 -2.29854 	 -18.5984 	 51.6302
| 23> S 	 -6.33765 	 -20.4178 	 57.0779
| 24> C 	 -7.34494 	 -19.0746 	 57.6314
| 25> C 	 -6.51145 	 -17.9761 	 57.8896
| 26> C 	 -5.08741 	 -18.2472 	 57.812
| 27> C 	 -4.86306 	 -19.4738 	 57.2086
| 28> H 	 -6.94964 	 -17.0928 	 58.292
| 29> C 	 -4.06395 	 -17.2745 	 58.3115
| 30> H 	 -3.16241 	 -17.7693 	 58.7129
| 31> H 	 -4.57209 	 -16.7091 	 59.0759
| 32> C 	 -3.69326 	 -16.1668 	 57.2953
| 33> H 	 -4.5471 	 -15.5615 	 57.0815
| 34> H 	 -3.58228 	 -16.5925 	 56.3422
| 35> C 	 -2.65865 	 -15.2076 	 57.7308
| 36> H 	 -2.79725 	 -14.7375 	 58.6871
| 37> H 	 -2.45676 	 -14.4348 	 56.9043
| 38> H 	 -1.63259 	 -15.6487 	 57.8511
| 39> H 	 -1.55047 	 -22.4997 	 55.3649
| 40> H 	 -8.44654 	 -19.161 	 57.7571
| 41> *
| 42>
| 43>                          ****END OF INPUT****

CARTESIAN COORDINATES (ANGSTROEM)
---------------------------------
  S     -3.225920  -21.646800   56.977100
  C     -1.911930  -21.595600   55.828400
  C     -1.884460  -20.373800   55.154000
  C     -2.822980  -19.478800   55.663000
  C     -3.587910  -20.020100   56.708200
  H     -3.148090  -18.561300   55.330700
  C     -1.004790  -19.975000   53.969700
  H     -0.096182  -20.484400   54.224200
  H     -0.859566  -18.891200   54.140900
  C     -1.508340  -20.353600   52.535200
  H     -0.588582  -20.341200   51.911000
  H     -1.761710  -21.373400   52.478900
  C     -2.729790  -19.559200   51.970400
  H     -3.174210  -20.122900   51.155500
  H     -3.350590  -19.305000   52.865100
  H     -2.298540  -18.598400   51.630200
  S     -6.337650  -20.417800   57.077900
  C     -7.344940  -19.074600   57.631400
  C     -6.511450  -17.976100   57.889600
  C     -5.087410  -18.247200   57.812000
  C     -4.863060  -19.473800   57.208600
  H     -6.949640  -17.092800   58.292000
  C     -4.063950  -17.274500   58.311500
  H     -3.162410  -17.769300   58.712900
  H     -4.572090  -16.709100   59.075900
  C     -3.693260  -16.166800   57.295300
  H     -4.547100  -15.561500   57.081500
  H     -3.582280  -16.592500   56.342200
  C     -2.658650  -15.207600   57.730800
  H     -2.797250  -14.737500   58.687100
  H     -2.456760  -14.434800   56.904300
  H     -1.632590  -15.648700   57.851100
  H     -1.550470  -22.499700   55.364900
  H     -8.446540  -19.161000   57.757100

 Total Charge           Charge          ....    0
 Multiplicity           Mult            ....    1
 Number of Electrons    NEL             ....  134
 Basis Dimension        Dim             ....  322

ORBITAL ENERGIES
----------------

  NO   OCC          E(Eh)            E(eV)
   0   2.0000     -88.967689     -2420.9339
   1   2.0000     -88.964567     -2420.8490
   2   2.0000     -10.326682      -281.0033
   3   2.0000     -10.325052      -280.9589
   4   2.0000     -10.325014      -280.9579
   5   2.0000     -10.309580      -280.5379
   6   2.0000     -10.303380      -280.3692
   7   2.0000     -10.300631      -280.2944
   8   2.0000     -10.297139      -280.1994
   9   2.0000     -10.294893      -280.1383
  10   2.0000     -10.291439      -280.0443
  11   2.0000     -10.288826      -279.9732
  12   2.0000     -10.286226      -279.9024
  13   2.0000     -10.285444      -279.8812
  14   2.0000     -10.282688      -279.8062
  15   2.0000     -10.277355      -279.6610
  16   2.0000      -8.083511      -219.9635
  17   2.0000      -8.078979      -219.8402
  18   2.0000      -6.041682      -164.4025
  19   2.0000      -6.037757      -164.2957
  20   2.0000      -6.037594      -164.2913
  21   2.0000      -6.034687      -164.2122
  22   2.0000      -6.033499      -164.1798
  23   2.0000      -6.029672      -164.0757
  24   2.0000      -1.011019       -27.5112
  25   2.0000      -0.983323       -26.7576
  26   2.0000      -0.914464       -24.8838
  27   2.0000      -0.908036       -24.7089
  28   2.0000      -0.864680       -23.5291
  29   2.0000      -0.855507       -23.2795
  30   2.0000      -0.848453       -23.0876
  31   2.0000      -0.813014       -22.1232
  32   2.0000      -0.783702       -21.3256
  33   2.0000      -0.772033       -21.0081
  34   2.0000      -0.707243       -19.2451
  35   2.0000      -0.705629       -19.2011
  36   2.0000      -0.692750       -18.8507
  37   2.0000      -0.664305       -18.0767
  38   2.0000      -0.646377       -17.5888
  39   2.0000      -0.613650       -16.6983
  40   2.0000      -0.595325       -16.1996
  41   2.0000      -0.568392       -15.4667
  42   2.0000      -0.565740       -15.3946
  43   2.0000      -0.551588       -15.0095
  44   2.0000      -0.533623       -14.5206
  45   2.0000      -0.524345       -14.2682
  46   2.0000      -0.520166       -14.1544
  47   2.0000      -0.515929       -14.0391
  48   2.0000      -0.511968       -13.9314
  49   2.0000      -0.495580       -13.4854
  50   2.0000      -0.491074       -13.3628
  51   2.0000      -0.477386       -12.9903
  52   2.0000      -0.474756       -12.9188
  53   2.0000      -0.465771       -12.6743
  54   2.0000      -0.459017       -12.4905
  55   2.0000      -0.454948       -12.3798
  56   2.0000      -0.445957       -12.1351
  57   2.0000      -0.441486       -12.0135
  58   2.0000      -0.428695       -11.6654
  59   2.0000      -0.427604       -11.6357
  60   2.0000      -0.421333       -11.4650
  61   2.0000      -0.410604       -11.1731
  62   2.0000      -0.408079       -11.1044
  63   2.0000      -0.341274        -9.2865
  64   2.0000      -0.334670        -9.1068
  65   2.0000      -0.326560        -8.8862
  66   2.0000      -0.292414        -7.9570
  67   0.0000       0.024254         0.6600
  68   0.0000       0.068830         1.8730
  69   0.0000       0.110148         2.9973
  70   0.0000       0.121950         3.3184
  71   0.0000       0.131265         3.5719

MULLIKEN ATOMIC CHARGES
-----------------------
   0 S :    0.112490
   1 C :   -0.108493
   2 C :   -0.117435
   3 C :    0.062847
   4 C :   -0.162889
   5 H :   -0.025478
   6 C :    0.058303
   7 H :    0.024053
   8 H :    0.034540
   9 C :   -0.058192
  10 H :    0.031093
  11 H :    0.009452
  12 C :   -0.053423
  13 H :    0.052176
  14 H :    0.049311
  15 H :    0.033664
  16 S :    0.101115
  17 C :   -0.120893
  18 C :   -0.016084
  19 C :   -0.064298
  20 C :   -0.149216
  21 H :    0.011254
  22 C :    0.092240
  23 H :    0.043298
  24 H :    0.012596
  25 C :   -0.028878
  26 H :    0.006793
  27 H :   -0.006437
  28 C :   -0.054923
  29 H :    0.029555
  30 H :    0.042742
  31 H :    0.025351
  32 H :    0.052598
  33 H :    0.081168
Sum of atomic charges:    0.0000000

LOEWDIN ATOMIC CHARGES
----------------------
   0 S :    0.445880
   1 C :   -0.214979
   2 C :   -0.058453
   3 C :   -0.058353
   4 C :   -0.209720
   5 H :    0.013144
   6 C :   -0.029843
   7 H :    0.032036
   8 H :    0.034848
   9 C :   -0.041431
  10 H :    0.026897
  11 H :    0.015218
  12 C :   -0.065497
  13 H :    0.030531
  14 H :    0.035161
  15 H :    0.027612
  16 S :    0.390472
  17 C :   -0.188543
  18 C :   -0.067030
  19 C :   -0.058213
  20 C :   -0.200384
  21 H :    0.023898
  22 C :   -0.025639
  23 H :    0.036947
  24 H :    0.031325
  25 C :   -0.043990
  26 H :    0.023792
  27 H :    0.013376
  28 C :   -0.072264
  29 H :    0.022915
  30 H :    0.038190
  31 H :    0.025851
  32 H :    0.025665
  33 H :    0.040583

  Mayer bond orders larger than 0.100000
B(  0-S ,  1-C ) :   1.1573 B(  0-S ,  4-C ) :   1.1970 B(  1-C ,  2-C ) :   1.5761
B(  1-C , 32-H ) :   0.9624 B(  2-C ,  3-C ) :   1.2906 B(  2-C ,  6-C ) :   0.9991
B(  3-C ,  4-C ) :   1.5143 B(  3-C ,  5-H ) :   0.9997 B(  4-C , 20-C ) :   1.0321
B(  6-C ,  7-H ) :   0.9363 B(  6-C ,  8-H ) :   0.9500 B(  6-C ,  9-C ) :   1.0646
B(  9-C , 10-H ) :   0.9576 B(  9-C , 11-H ) :   0.9581 B(  9-C , 12-C ) :   1.0550
B( 12-C , 13-H ) :   0.9756 B( 12-C , 14-H ) :   0.9765 B( 12-C , 15-H ) :   0.9780
B( 16-S , 17-C ) :   1.1453 B( 16-S , 20-C ) :   1.1357 B( 17-C , 18-C ) :   1.6070
B( 17-C , 33-H ) :   0.9660 B( 18-C , 19-C ) :   1.2377 B( 18-C , 21-H ) :   0.9869
B( 19-C , 20-C ) :   1.5938 B( 19-C , 22-C ) :   1.0646 B( 22-C , 23-H ) :   0.9365
B( 22-C , 24-H ) :   0.9218 B( 22-C , 25-C ) :   1.0589 B( 25-C , 26-H ) :   0.9403
B( 25-C , 27-H ) :   0.9508 B( 25-C , 28-C ) :   1.0927 B( 28-C , 29-H ) :   0.9702
B( 28-C , 30-H ) :   0.9694 B( 28-C , 31-H ) :   0.9713

Dispersion correction           -0.014516403
FINAL SINGLE POINT ENERGY     -1339.861576356230

DIPOLE MOMENT
-------------
                                X             Y             Z
Electronic contribution:    -13.05210     -19.73894      12.66658
Nuclear contribution   :     13.12640      20.17418     -12.99870
                        -----------------------------------------
Total Dipole Moment    :      0.07430       0.43524      -0.33213
                        -----------------------------------------
Magnitude (a.u.)       :      0.55250
Magnitude (Debye)      :      1.40436

Rotational constants in cm-1:     0.016234     0.009486     0.007547
Rotational constants in MHz :   486.674162   284.390085   226.251135

                             ****ORCA TERMINATED NORMALLY****
TOTAL RUN TIME: 0 days 0 hours 0 minutes 30 seconds 646 msec
