                         Program Version 4.2.1 -  RELEASE  -
|  1> ! wB97X-D3 SP def2-SVP
|  2> %pal
|  3> nprocs 16
|  4> end
|  5>
|  6> * xyz 0 1
|  7> S 	 1.68801 	 -30.1975 	 62.5219
|  8> C 	 0.202133 	 -31.2096 	 62.5695
|  9> C 	 -0.486213 	 -31.2847 	 61.3732
| 10> C 	 0.143344 	 -30.3586 	 60.494
| 11> C 	 1.28967 	 -29.6964 	 60.924
| 12> H 	 -0.294883 	 -30.1614 	 59.4704
| 13> C 	 -1.84378 	 -31.9435 	 61.0583
| 14> H 	 -2.12449 	 -32.8111 	 61.637
| 15> H 	 -1.62321 	 -32.2131 	 60.1436
| 16> C 	 -3.00774 	 -31.004 	 61.1918
| 17> H 	 -2.91347 	 -30.1093 	 60.5841
| 18> H 	 -3.87979 	 -31.4678 	 60.8137
| 19> C 	 -3.30728 	 -30.7321 	 62.6173
| 20> H 	 -3.07603 	 -31.6158 	 63.3334
| 21> H 	 -2.63445 	 -29.9126 	 62.9408
| 22> H 	 -4.30276 	 -30.4649 	 62.7966
| 23> S 	 3.83202 	 -28.9359 	 60.2911
| 24> C 	 4.06525 	 -27.7271 	 59.0871
| 25> C 	 2.81306 	 -27.0392 	 58.7132
| 26> C 	 1.66447 	 -27.7205 	 59.309
| 27> C 	 2.08364 	 -28.7189 	 60.2063
| 28> H 	 2.83118 	 -26.2977 	 57.9304
| 29> C 	 0.310334 	 -27.4755 	 58.752
| 30> H 	 -0.465795 	 -27.9804 	 59.3246
| 31> H 	 0.319967 	 -27.9709 	 57.726
| 32> C 	 -0.183486 	 -25.9995 	 58.6475
| 33> H 	 -1.15221 	 -25.9486 	 58.205
| 34> H 	 0.562883 	 -25.4401 	 58.0235
| 35> C 	 -0.304223 	 -25.2162 	 60.0133
| 36> H 	 -1.04012 	 -25.7762 	 60.6567
| 37> H 	 -0.704329 	 -24.2135 	 59.8347
| 38> H 	 0.639082 	 -25.1202 	 60.479
| 39> H 	 -0.0121899 	 -31.8911 	 63.3918
| 40> H 	 5.01477 	 -27.3012 	 58.7483
| 41> *
| 42>
| 43>                          ****END OF INPUT****

CARTESIAN COORDINATES (ANGSTROEM)
---------------------------------
  S      1.688010  -30.197500   62.521900
  C      0.202133  -31.209600   62.569500
  C     -0.486213  -31.284700   61.373200
  C      0.143344  -30.358600   60.494000
  C      1.289670  -29.696400   60.924000
  H     -0.294883  -30.161400   59.470400
  C     -1.843780  -31.943500   61.058300
  H     -2.124490  -32.811100   61.637000
  H     -1.623210  -32.213100   60.143600
  C     -3.007740  -31.004000   61.191800
  H     -2.913470  -30.109300   60.584100
  H     -3.879790  -31.467800   60.813700
  C     -3.307280  -30.732100   62.617300
  H     -3.076030  -31.615800   63.333400
  H     -2.634450  -29.912600   62.940800
  H     -4.302760  -30.464900   62.796600
  S      3.832020  -28.935900   60.291100
  C      4.065250  -27.727100   59.087100
  C      2.813060  -27.039200   58.713200
  C      1.664470  -27.720500   59.309000
  C      2.083640  -28.718900   60.206300
  H      2.831180  -26.297700   57.930400
  C      0.310334  -27.475500   58.752000
  H     -0.465795  -27.980400   59.324600
  H      0.319967  -27.970900   57.726000
  C     -0.183486  -25.999500   58.647500
  H     -1.152210  -25.948600   58.205000
  H      0.562883  -25.440100   58.023500
  C     -0.304223  -25.216200   60.013300
  H     -1.040120  -25.776200   60.656700
  H     -0.704329  -24.213500   59.834700
  H      0.639082  -25.120200   60.479000
  H     -0.012190  -31.891100   63.391800
  H      5.014770  -27.301200   58.748300

 Total Charge           Charge          ....    0
 Multiplicity           Mult            ....    1
 Number of Electrons    NEL             ....  134
 Basis Dimension        Dim             ....  322

ORBITAL ENERGIES
----------------

  NO   OCC          E(Eh)            E(eV)
   0   2.0000     -88.973888     -2421.1026
   1   2.0000     -88.966436     -2420.8998
   2   2.0000     -10.329451      -281.0786
   3   2.0000     -10.327164      -281.0164
   4   2.0000     -10.326797      -281.0064
   5   2.0000     -10.314572      -280.6738
   6   2.0000     -10.311270      -280.5839
   7   2.0000     -10.305583      -280.4292
   8   2.0000     -10.302086      -280.3340
   9   2.0000     -10.298523      -280.2371
  10   2.0000     -10.295257      -280.1482
  11   2.0000     -10.292601      -280.0759
  12   2.0000     -10.284830      -279.8645
  13   2.0000     -10.278736      -279.6986
  14   2.0000     -10.278580      -279.6944
  15   2.0000     -10.275439      -279.6089
  16   2.0000      -8.088371      -220.0958
  17   2.0000      -8.081012      -219.8955
  18   2.0000      -6.046807      -164.5420
  19   2.0000      -6.042883      -164.4352
  20   2.0000      -6.039519      -164.3437
  21   2.0000      -6.039264      -164.3367
  22   2.0000      -6.035619      -164.2376
  23   2.0000      -6.031715      -164.1313
  24   2.0000      -1.004620       -27.3371
  25   2.0000      -0.978603       -26.6291
  26   2.0000      -0.926150       -25.2018
  27   2.0000      -0.907335       -24.6899
  28   2.0000      -0.867586       -23.6082
  29   2.0000      -0.850969       -23.1561
  30   2.0000      -0.840930       -22.8829
  31   2.0000      -0.803305       -21.8590
  32   2.0000      -0.790004       -21.4971
  33   2.0000      -0.775909       -21.1136
  34   2.0000      -0.707587       -19.2544
  35   2.0000      -0.699659       -19.0387
  36   2.0000      -0.690453       -18.7882
  37   2.0000      -0.658946       -17.9308
  38   2.0000      -0.636923       -17.3315
  39   2.0000      -0.621113       -16.9013
  40   2.0000      -0.594930       -16.1889
  41   2.0000      -0.574418       -15.6307
  42   2.0000      -0.565918       -15.3994
  43   2.0000      -0.548454       -14.9242
  44   2.0000      -0.545636       -14.8475
  45   2.0000      -0.540336       -14.7033
  46   2.0000      -0.516196       -14.0464
  47   2.0000      -0.505013       -13.7421
  48   2.0000      -0.497013       -13.5244
  49   2.0000      -0.490382       -13.3440
  50   2.0000      -0.484845       -13.1933
  51   2.0000      -0.476094       -12.9552
  52   2.0000      -0.472148       -12.8478
  53   2.0000      -0.464612       -12.6427
  54   2.0000      -0.457620       -12.4525
  55   2.0000      -0.452068       -12.3014
  56   2.0000      -0.446218       -12.1422
  57   2.0000      -0.441422       -12.0117
  58   2.0000      -0.435211       -11.8427
  59   2.0000      -0.429704       -11.6928
  60   2.0000      -0.428213       -11.6523
  61   2.0000      -0.410563       -11.1720
  62   2.0000      -0.408986       -11.1291
  63   2.0000      -0.346451        -9.4274
  64   2.0000      -0.333410        -9.0725
  65   2.0000      -0.330372        -8.9899
  66   2.0000      -0.282828        -7.6961
  67   0.0000       0.025958         0.7063
  68   0.0000       0.066866         1.8195
  69   0.0000       0.101737         2.7684
  70   0.0000       0.107725         2.9313
  71   0.0000       0.129129         3.5138

MULLIKEN ATOMIC CHARGES
-----------------------
   0 S :    0.101907
   1 C :   -0.134479
   2 C :   -0.092150
   3 C :   -0.037982
   4 C :   -0.127513
   5 H :    0.023092
   6 C :    0.152842
   7 H :    0.019539
   8 H :   -0.016722
   9 C :   -0.035822
  10 H :    0.023581
  11 H :    0.013218
  12 C :   -0.064529
  13 H :    0.030032
  14 H :    0.046001
  15 H :    0.022687
  16 S :    0.130984
  17 C :   -0.107316
  18 C :   -0.062115
  19 C :   -0.025867
  20 C :   -0.141956
  21 H :    0.028195
  22 C :    0.022920
  23 H :    0.023223
  24 H :    0.062633
  25 C :   -0.082365
  26 H :    0.030039
  27 H :    0.029498
  28 C :   -0.060363
  29 H :    0.038059
  30 H :    0.037348
  31 H :    0.040343
  32 H :    0.046301
  33 H :    0.066737
Sum of atomic charges:   -0.0000000

LOEWDIN ATOMIC CHARGES
----------------------
   0 S :    0.393752
   1 C :   -0.183940
   2 C :   -0.056981
   3 C :   -0.076876
   4 C :   -0.205476
   5 H :    0.032324
   6 C :   -0.007283
   7 H :    0.032842
   8 H :    0.009140
   9 C :   -0.038106
  10 H :    0.024438
  11 H :    0.020034
  12 C :   -0.064421
  13 H :    0.032078
  14 H :    0.032204
  15 H :    0.015906
  16 S :    0.424738
  17 C :   -0.202214
  18 C :   -0.066123
  19 C :   -0.050401
  20 C :   -0.200279
  21 H :    0.027188
  22 C :   -0.041686
  23 H :    0.025940
  24 H :    0.047827
  25 C :   -0.036918
  26 H :    0.021125
  27 H :    0.021595
  28 C :   -0.061944
  29 H :    0.029714
  30 H :    0.027316
  31 H :    0.019815
  32 H :    0.023944
  33 H :    0.030728

  Mayer bond orders larger than 0.100000
B(  0-S ,  1-C ) :   1.1334 B(  0-S ,  4-C ) :   1.1435 B(  1-C ,  2-C ) :   1.6198
B(  1-C , 32-H ) :   0.9607 B(  2-C ,  3-C ) :   1.2485 B(  2-C ,  6-C ) :   1.0004
B(  3-C ,  4-C ) :   1.5729 B(  3-C ,  5-H ) :   0.9763 B(  4-C , 20-C ) :   1.0509
B(  6-C ,  7-H ) :   0.9425 B(  6-C ,  8-H ) :   0.9213 B(  6-C ,  9-C ) :   1.0946
B(  9-C , 10-H ) :   0.9504 B(  9-C , 11-H ) :   0.9508 B(  9-C , 12-C ) :   1.0727
B( 12-C , 13-H ) :   0.9725 B( 12-C , 14-H ) :   0.9736 B( 12-C , 15-H ) :   0.9734
B( 16-S , 17-C ) :   1.1789 B( 16-S , 20-C ) :   1.1394 B( 17-C , 18-C ) :   1.5877
B( 17-C , 20-C ) :   0.1059 B( 17-C , 33-H ) :   0.9634 B( 18-C , 19-C ) :   1.2316
B( 18-C , 21-H ) :   0.9855 B( 19-C , 20-C ) :   1.5770 B( 19-C , 22-C ) :   1.0540
B( 22-C , 23-H ) :   0.9275 B( 22-C , 24-H ) :   0.9315 B( 22-C , 25-C ) :   1.0663
B( 25-C , 26-H ) :   0.9579 B( 25-C , 27-H ) :   0.9564 B( 25-C , 28-C ) :   1.0718
B( 28-C , 29-H ) :   0.9762 B( 28-C , 30-H ) :   0.9751 B( 28-C , 31-H ) :   0.9773

Dispersion correction           -0.014572407
FINAL SINGLE POINT ENERGY     -1339.852836729784

DIPOLE MOMENT
-------------
                                X             Y             Z
Electronic contribution:     27.13671      -7.11575       4.42287
Nuclear contribution   :    -27.76029       7.19323      -4.88607
                        -----------------------------------------
Total Dipole Moment    :     -0.62358       0.07748      -0.46321
                        -----------------------------------------
Magnitude (a.u.)       :      0.78065
Magnitude (Debye)      :      1.98426

Rotational constants in cm-1:     0.018563     0.009286     0.006957
Rotational constants in MHz :   556.503174   278.385830   208.573339

                             ****ORCA TERMINATED NORMALLY****
TOTAL RUN TIME: 0 days 0 hours 0 minutes 35 seconds 711 msec
