                         Program Version 4.2.1 -  RELEASE  -
|  1> ! wB97X-D3 SP def2-SVP
|  2> %pal
|  3> nprocs 16
|  4> end
|  5>
|  6> * xyz 0 1
|  7> S 	 3.31714 	 -8.40914 	 70.5004
|  8> C 	 2.4952 	 -7.3587 	 69.4013
|  9> C 	 2.6982 	 -6.00876 	 69.6005
| 10> C 	 3.56993 	 -5.77908 	 70.6671
| 11> C 	 3.94849 	 -6.97116 	 71.2856
| 12> H 	 3.85708 	 -4.85015 	 71.0816
| 13> C 	 2.16446 	 -4.8667 	 68.737
| 14> H 	 1.4613 	 -5.2881 	 67.982
| 15> H 	 2.99074 	 -4.44454 	 68.1592
| 16> C 	 1.56772 	 -3.66934 	 69.5513
| 17> H 	 2.30452 	 -2.94066 	 69.917
| 18> H 	 0.97775 	 -3.11717 	 68.8817
| 19> C 	 0.635436 	 -4.1371 	 70.7091
| 20> H 	 0.223834 	 -3.29211 	 71.1899
| 21> H 	 -0.164963 	 -4.64397 	 70.2726
| 22> H 	 1.17782 	 -4.75964 	 71.4578
| 23> S 	 4.30265 	 -8.26317 	 73.5787
| 24> C 	 5.68044 	 -7.86396 	 74.5827
| 25> C 	 6.63111 	 -7.16524 	 73.8361
| 26> C 	 6.10638 	 -6.58805 	 72.5924
| 27> C 	 4.855 	 -7.12912 	 72.3643
| 28> H 	 7.60462 	 -6.96474 	 74.2793
| 29> C 	 6.96158 	 -5.60473 	 71.7903
| 30> H 	 6.27273 	 -5.09169 	 71.1131
| 31> H 	 7.57194 	 -6.17733 	 71.1154
| 32> C 	 7.77541 	 -4.51839 	 72.5634
| 33> H 	 8.32449 	 -3.91566 	 71.8079
| 34> H 	 8.52123 	 -5.02698 	 73.0982
| 35> C 	 6.8838 	 -3.59456 	 73.4961
| 36> H 	 5.86976 	 -3.98522 	 73.7078
| 37> H 	 6.53581 	 -2.66174 	 72.8889
| 38> H 	 7.29678 	 -3.27296 	 74.4518
| 39> H 	 1.90345 	 -7.56716 	 68.516
| 40> H 	 5.95707 	 -8.3643 	 75.4818
| 41> *
| 42>
| 43>                          ****END OF INPUT****

CARTESIAN COORDINATES (ANGSTROEM)
---------------------------------
  S      3.317140   -8.409140   70.500400
  C      2.495200   -7.358700   69.401300
  C      2.698200   -6.008760   69.600500
  C      3.569930   -5.779080   70.667100
  C      3.948490   -6.971160   71.285600
  H      3.857080   -4.850150   71.081600
  C      2.164460   -4.866700   68.737000
  H      1.461300   -5.288100   67.982000
  H      2.990740   -4.444540   68.159200
  C      1.567720   -3.669340   69.551300
  H      2.304520   -2.940660   69.917000
  H      0.977750   -3.117170   68.881700
  C      0.635436   -4.137100   70.709100
  H      0.223834   -3.292110   71.189900
  H     -0.164963   -4.643970   70.272600
  H      1.177820   -4.759640   71.457800
  S      4.302650   -8.263170   73.578700
  C      5.680440   -7.863960   74.582700
  C      6.631110   -7.165240   73.836100
  C      6.106380   -6.588050   72.592400
  C      4.855000   -7.129120   72.364300
  H      7.604620   -6.964740   74.279300
  C      6.961580   -5.604730   71.790300
  H      6.272730   -5.091690   71.113100
  H      7.571940   -6.177330   71.115400
  C      7.775410   -4.518390   72.563400
  H      8.324490   -3.915660   71.807900
  H      8.521230   -5.026980   73.098200
  C      6.883800   -3.594560   73.496100
  H      5.869760   -3.985220   73.707800
  H      6.535810   -2.661740   72.888900
  H      7.296780   -3.272960   74.451800
  H      1.903450   -7.567160   68.516000
  H      5.957070   -8.364300   75.481800

 Total Charge           Charge          ....    0
 Multiplicity           Mult            ....    1
 Number of Electrons    NEL             ....  134
 Basis Dimension        Dim             ....  322

ORBITAL ENERGIES
----------------

  NO   OCC          E(Eh)            E(eV)
   0   2.0000     -88.971432     -2421.0357
   1   2.0000     -88.963793     -2420.8279
   2   2.0000     -10.323668      -280.9213
   3   2.0000     -10.322029      -280.8767
   4   2.0000     -10.313732      -280.6509
   5   2.0000     -10.307952      -280.4936
   6   2.0000     -10.306207      -280.4461
   7   2.0000     -10.297534      -280.2101
   8   2.0000     -10.296885      -280.1925
   9   2.0000     -10.296624      -280.1854
  10   2.0000     -10.296204      -280.1740
  11   2.0000     -10.294028      -280.1147
  12   2.0000     -10.290224      -280.0112
  13   2.0000     -10.287068      -279.9254
  14   2.0000     -10.286209      -279.9020
  15   2.0000     -10.267076      -279.3813
  16   2.0000      -8.086101      -220.0340
  17   2.0000      -8.078762      -219.8343
  18   2.0000      -6.044497      -164.4791
  19   2.0000      -6.040782      -164.3780
  20   2.0000      -6.037340      -164.2844
  21   2.0000      -6.036822      -164.2703
  22   2.0000      -6.033412      -164.1775
  23   2.0000      -6.029253      -164.0643
  24   2.0000      -1.010054       -27.4850
  25   2.0000      -0.981707       -26.7136
  26   2.0000      -0.908270       -24.7153
  27   2.0000      -0.902495       -24.5581
  28   2.0000      -0.869006       -23.6469
  29   2.0000      -0.851447       -23.1690
  30   2.0000      -0.839238       -22.8368
  31   2.0000      -0.810643       -22.0587
  32   2.0000      -0.783958       -21.3326
  33   2.0000      -0.773222       -21.0405
  34   2.0000      -0.715022       -19.4567
  35   2.0000      -0.701543       -19.0900
  36   2.0000      -0.695599       -18.9282
  37   2.0000      -0.659166       -17.9368
  38   2.0000      -0.635075       -17.2813
  39   2.0000      -0.621798       -16.9200
  40   2.0000      -0.593197       -16.1417
  41   2.0000      -0.555562       -15.1176
  42   2.0000      -0.553790       -15.0694
  43   2.0000      -0.552663       -15.0387
  44   2.0000      -0.540897       -14.7186
  45   2.0000      -0.532927       -14.5017
  46   2.0000      -0.514147       -13.9907
  47   2.0000      -0.510184       -13.8828
  48   2.0000      -0.496780       -13.5181
  49   2.0000      -0.494776       -13.4635
  50   2.0000      -0.484781       -13.1916
  51   2.0000      -0.476596       -12.9688
  52   2.0000      -0.467934       -12.7331
  53   2.0000      -0.462893       -12.5959
  54   2.0000      -0.458931       -12.4882
  55   2.0000      -0.452868       -12.3232
  56   2.0000      -0.448095       -12.1933
  57   2.0000      -0.434436       -11.8216
  58   2.0000      -0.431548       -11.7430
  59   2.0000      -0.426258       -11.5991
  60   2.0000      -0.425161       -11.5692
  61   2.0000      -0.422841       -11.5061
  62   2.0000      -0.415345       -11.3021
  63   2.0000      -0.348009        -9.4698
  64   2.0000      -0.334968        -9.1150
  65   2.0000      -0.327612        -8.9148
  66   2.0000      -0.282954        -7.6996
  67   0.0000       0.030761         0.8370
  68   0.0000       0.066634         1.8132
  69   0.0000       0.108964         2.9651
  70   0.0000       0.119572         3.2537
  71   0.0000       0.125627         3.4185

MULLIKEN ATOMIC CHARGES
-----------------------
   0 S :    0.133713
   1 C :   -0.096310
   2 C :   -0.116673
   3 C :    0.031023
   4 C :   -0.155657
   5 H :   -0.000698
   6 C :    0.083507
   7 H :    0.020593
   8 H :    0.041184
   9 C :   -0.095651
  10 H :    0.032473
  11 H :    0.016111
  12 C :   -0.019822
  13 H :    0.019631
  14 H :    0.016779
  15 H :    0.053828
  16 S :    0.099896
  17 C :   -0.074139
  18 C :   -0.054924
  19 C :   -0.053041
  20 C :   -0.164444
  21 H :    0.023054
  22 C :    0.089813
  23 H :    0.007875
  24 H :    0.037564
  25 C :   -0.044528
  26 H :    0.041313
  27 H :    0.020963
  28 C :   -0.096745
  29 H :    0.044980
  30 H :    0.034817
  31 H :    0.046445
  32 H :    0.027143
  33 H :    0.049927
Sum of atomic charges:    0.0000000

LOEWDIN ATOMIC CHARGES
----------------------
   0 S :    0.417950
   1 C :   -0.214715
   2 C :   -0.065227
   3 C :   -0.057949
   4 C :   -0.187027
   5 H :    0.024229
   6 C :   -0.030177
   7 H :    0.030604
   8 H :    0.035686
   9 C :   -0.039263
  10 H :    0.022926
  11 H :    0.018981
  12 C :   -0.056985
  13 H :    0.019434
  14 H :    0.017730
  15 H :    0.033134
  16 S :    0.397934
  17 C :   -0.187964
  18 C :   -0.062131
  19 C :   -0.053440
  20 C :   -0.199629
  21 H :    0.028082
  22 C :   -0.029509
  23 H :    0.027847
  24 H :    0.035152
  25 C :   -0.033916
  26 H :    0.033555
  27 H :    0.012629
  28 C :   -0.081164
  29 H :    0.030135
  30 H :    0.035782
  31 H :    0.026828
  32 H :    0.027137
  33 H :    0.023342

  Mayer bond orders larger than 0.100000
B(  0-S ,  1-C ) :   1.1259 B(  0-S ,  4-C ) :   1.1526 B(  1-C ,  2-C ) :   1.6408
B(  1-C , 32-H ) :   0.9526 B(  2-C ,  3-C ) :   1.2379 B(  2-C ,  6-C ) :   1.0261
B(  3-C ,  4-C ) :   1.5699 B(  3-C ,  5-H ) :   0.9992 B(  4-C , 20-C ) :   1.0596
B(  6-C ,  7-H ) :   0.9384 B(  6-C ,  8-H ) :   0.9384 B(  6-C ,  9-C ) :   1.0616
B(  9-C , 10-H ) :   0.9546 B(  9-C , 11-H ) :   0.9551 B(  9-C , 12-C ) :   1.0869
B( 12-C , 13-H ) :   0.9725 B( 12-C , 14-H ) :   0.9762 B( 12-C , 15-H ) :   0.9688
B( 16-S , 17-C ) :   1.1305 B( 16-S , 20-C ) :   1.1349 B( 17-C , 18-C ) :   1.6511
B( 17-C , 33-H ) :   0.9671 B( 18-C , 19-C ) :   1.1965 B( 18-C , 21-H ) :   0.9811
B( 19-C , 20-C ) :   1.6140 B( 19-C , 22-C ) :   1.0298 B( 22-C , 23-H ) :   0.9335
B( 22-C , 24-H ) :   0.9280 B( 22-C , 25-C ) :   1.0710 B( 25-C , 26-H ) :   0.9588
B( 25-C , 27-H ) :   0.9601 B( 25-C , 28-C ) :   1.0445 B( 28-C , 29-H ) :   0.9808
B( 28-C , 30-H ) :   0.9758 B( 28-C , 31-H ) :   0.9800

Dispersion correction           -0.014920488
FINAL SINGLE POINT ENERGY     -1339.867616670876

DIPOLE MOMENT
-------------
                                X             Y             Z
Electronic contribution:     -1.52214     -26.22478       3.67658
Nuclear contribution   :      1.82838      26.81891      -3.89024
                        -----------------------------------------
Total Dipole Moment    :      0.30624       0.59413      -0.21366
                        -----------------------------------------
Magnitude (a.u.)       :      0.70173
Magnitude (Debye)      :      1.78366

Rotational constants in cm-1:     0.017984     0.009514     0.007379
Rotational constants in MHz :   539.142524   285.234830   221.221619

                             ****ORCA TERMINATED NORMALLY****
TOTAL RUN TIME: 0 days 0 hours 0 minutes 35 seconds 712 msec
