                         Program Version 4.2.1 -  RELEASE  -
|  1> ! wB97X-D3 SP def2-SVP
|  2> %pal
|  3> nprocs 16
|  4> end
|  5>
|  6> * xyz 0 1
|  7> S 	 -37.3394 	 -1.8086 	 101.335
|  8> C 	 -35.9708 	 -2.8673 	 100.974
|  9> C 	 -35.3064 	 -2.44499 	 99.8601
| 10> C 	 -35.8245 	 -1.16826 	 99.3926
| 11> C 	 -36.9064 	 -0.652567 	 100.12
| 12> H 	 -35.4298 	 -0.571834 	 98.5466
| 13> C 	 -33.9675 	 -2.99595 	 99.3053
| 14> H 	 -33.9269 	 -4.08532 	 99.5312
| 15> H 	 -33.219 	 -2.504 	 99.9949
| 16> C 	 -33.7716 	 -2.84102 	 97.7718
| 17> H 	 -33.9524 	 -1.80766 	 97.6117
| 18> H 	 -32.6938 	 -2.89186 	 97.6701
| 19> C 	 -34.5751 	 -3.70757 	 96.738
| 20> H 	 -34.3108 	 -3.35755 	 95.7245
| 21> H 	 -34.4203 	 -4.74423 	 96.8053
| 22> H 	 -35.668 	 -3.59598 	 96.8689
| 23> S 	 -38.8752 	 0.961997 	 101.054
| 24> C 	 -39.1498 	 2.50679 	 100.333
| 25> C 	 -38.4152 	 2.65427 	 99.2116
| 26> C 	 -37.5692 	 1.54999 	 98.9174
| 27> C 	 -37.563 	 0.61075 	 99.9377
| 28> H 	 -38.6237 	 3.47799 	 98.55
| 29> C 	 -36.6832 	 1.60227 	 97.7312
| 30> H 	 -36.5365 	 0.619486 	 97.2887
| 31> H 	 -35.7143 	 1.94798 	 98.1393
| 32> C 	 -37.1835 	 2.62875 	 96.6657
| 33> H 	 -36.9648 	 3.62658 	 97.0253
| 34> H 	 -38.1879 	 2.44922 	 96.3516
| 35> C 	 -36.4564 	 2.50359 	 95.3312
| 36> H 	 -35.4193 	 2.81099 	 95.3429
| 37> H 	 -37.0096 	 2.82556 	 94.3969
| 38> H 	 -36.5167 	 1.44913 	 95.1126
| 39> H 	 -35.6905 	 -3.69127 	 101.581
| 40> H 	 -39.8952 	 3.29426 	 100.666
| 41> *
| 42>
| 43>                          ****END OF INPUT****

CARTESIAN COORDINATES (ANGSTROEM)
---------------------------------
  S    -37.339400   -1.808600  101.335000
  C    -35.970800   -2.867300  100.974000
  C    -35.306400   -2.444990   99.860100
  C    -35.824500   -1.168260   99.392600
  C    -36.906400   -0.652567  100.120000
  H    -35.429800   -0.571834   98.546600
  C    -33.967500   -2.995950   99.305300
  H    -33.926900   -4.085320   99.531200
  H    -33.219000   -2.504000   99.994900
  C    -33.771600   -2.841020   97.771800
  H    -33.952400   -1.807660   97.611700
  H    -32.693800   -2.891860   97.670100
  C    -34.575100   -3.707570   96.738000
  H    -34.310800   -3.357550   95.724500
  H    -34.420300   -4.744230   96.805300
  H    -35.668000   -3.595980   96.868900
  S    -38.875200    0.961997  101.054000
  C    -39.149800    2.506790  100.333000
  C    -38.415200    2.654270   99.211600
  C    -37.569200    1.549990   98.917400
  C    -37.563000    0.610750   99.937700
  H    -38.623700    3.477990   98.550000
  C    -36.683200    1.602270   97.731200
  H    -36.536500    0.619486   97.288700
  H    -35.714300    1.947980   98.139300
  C    -37.183500    2.628750   96.665700
  H    -36.964800    3.626580   97.025300
  H    -38.187900    2.449220   96.351600
  C    -36.456400    2.503590   95.331200
  H    -35.419300    2.810990   95.342900
  H    -37.009600    2.825560   94.396900
  H    -36.516700    1.449130   95.112600
  H    -35.690500   -3.691270  101.581000
  H    -39.895200    3.294260  100.666000

 Total Charge           Charge          ....    0
 Multiplicity           Mult            ....    1
 Number of Electrons    NEL             ....  134
 Basis Dimension        Dim             ....  322

ORBITAL ENERGIES
----------------

  NO   OCC          E(Eh)            E(eV)
   0   2.0000     -88.962350     -2420.7886
   1   2.0000     -88.962219     -2420.7850
   2   2.0000     -10.329879      -281.0903
   3   2.0000     -10.325982      -280.9843
   4   2.0000     -10.316684      -280.7312
   5   2.0000     -10.309649      -280.5398
   6   2.0000     -10.302740      -280.3518
   7   2.0000     -10.302032      -280.3326
   8   2.0000     -10.301854      -280.3277
   9   2.0000     -10.297390      -280.2062
  10   2.0000     -10.294558      -280.1292
  11   2.0000     -10.289877      -280.0018
  12   2.0000     -10.289472      -279.9908
  13   2.0000     -10.285475      -279.8820
  14   2.0000     -10.284564      -279.8572
  15   2.0000     -10.279742      -279.7260
  16   2.0000      -8.077731      -219.8062
  17   2.0000      -8.077108      -219.7893
  18   2.0000      -6.036312      -164.2564
  19   2.0000      -6.035775      -164.2418
  20   2.0000      -6.032245      -164.1457
  21   2.0000      -6.031649      -164.1295
  22   2.0000      -6.028284      -164.0380
  23   2.0000      -6.027636      -164.0203
  24   2.0000      -1.011101       -27.5135
  25   2.0000      -0.984766       -26.7968
  26   2.0000      -0.917644       -24.9704
  27   2.0000      -0.905309       -24.6347
  28   2.0000      -0.873432       -23.7673
  29   2.0000      -0.857413       -23.3314
  30   2.0000      -0.837277       -22.7835
  31   2.0000      -0.814172       -22.1547
  32   2.0000      -0.784554       -21.3488
  33   2.0000      -0.775703       -21.1079
  34   2.0000      -0.716425       -19.4949
  35   2.0000      -0.704635       -19.1741
  36   2.0000      -0.696628       -18.9562
  37   2.0000      -0.652667       -17.7600
  38   2.0000      -0.633351       -17.2344
  39   2.0000      -0.620973       -16.8975
  40   2.0000      -0.597446       -16.2573
  41   2.0000      -0.587486       -15.9863
  42   2.0000      -0.563838       -15.3428
  43   2.0000      -0.548385       -14.9223
  44   2.0000      -0.529208       -14.4005
  45   2.0000      -0.526472       -14.3260
  46   2.0000      -0.523989       -14.2585
  47   2.0000      -0.509294       -13.8586
  48   2.0000      -0.508145       -13.8273
  49   2.0000      -0.496286       -13.5046
  50   2.0000      -0.489987       -13.3332
  51   2.0000      -0.488251       -13.2860
  52   2.0000      -0.469850       -12.7853
  53   2.0000      -0.465345       -12.6627
  54   2.0000      -0.462115       -12.5748
  55   2.0000      -0.454660       -12.3719
  56   2.0000      -0.447780       -12.1847
  57   2.0000      -0.445255       -12.1160
  58   2.0000      -0.439618       -11.9626
  59   2.0000      -0.421588       -11.4720
  60   2.0000      -0.416923       -11.3450
  61   2.0000      -0.410788       -11.1781
  62   2.0000      -0.404124       -10.9968
  63   2.0000      -0.365195        -9.9375
  64   2.0000      -0.332534        -9.0487
  65   2.0000      -0.323618        -8.8061
  66   2.0000      -0.279807        -7.6139
  67   0.0000       0.018914         0.5147
  68   0.0000       0.090894         2.4733
  69   0.0000       0.099581         2.7097
  70   0.0000       0.124837         3.3970
  71   0.0000       0.133068         3.6210

MULLIKEN ATOMIC CHARGES
-----------------------
   0 S :    0.092092
   1 C :   -0.123080
   2 C :   -0.055963
   3 C :   -0.059505
   4 C :   -0.105713
   5 H :    0.013316
   6 C :    0.013100
   7 H :    0.025168
   8 H :    0.065199
   9 C :   -0.053408
  10 H :    0.008114
  11 H :    0.022494
  12 C :   -0.026779
  13 H :    0.041151
  14 H :    0.027404
  15 H :    0.042564
  16 S :    0.086559
  17 C :   -0.081123
  18 C :   -0.042134
  19 C :   -0.069618
  20 C :   -0.109137
  21 H :    0.020951
  22 C :    0.018501
  23 H :    0.040616
  24 H :    0.055230
  25 C :   -0.073667
  26 H :    0.041516
  27 H :    0.037757
  28 C :   -0.044201
  29 H :    0.036543
  30 H :    0.038755
  31 H :    0.006537
  32 H :    0.036503
  33 H :    0.074257
Sum of atomic charges:    0.0000000

LOEWDIN ATOMIC CHARGES
----------------------
   0 S :    0.393246
   1 C :   -0.189220
   2 C :   -0.066216
   3 C :   -0.084783
   4 C :   -0.191594
   5 H :    0.027769
   6 C :   -0.035164
   7 H :    0.028535
   8 H :    0.047101
   9 C :   -0.042765
  10 H :    0.015852
  11 H :    0.026774
  12 C :   -0.058254
  13 H :    0.033704
  14 H :    0.018096
  15 H :    0.033245
  16 S :    0.403335
  17 C :   -0.193607
  18 C :   -0.081132
  19 C :   -0.055548
  20 C :   -0.190374
  21 H :    0.032648
  22 C :   -0.033242
  23 H :    0.027552
  24 H :    0.043739
  25 C :   -0.037726
  26 H :    0.025188
  27 H :    0.027485
  28 C :   -0.073172
  29 H :    0.021697
  30 H :    0.035758
  31 H :    0.020970
  32 H :    0.023287
  33 H :    0.046816

  Mayer bond orders larger than 0.100000
B(  0-S ,  1-C ) :   1.1207 B(  0-S ,  4-C ) :   1.1349 B(  1-C ,  2-C ) :   1.6307
B(  1-C , 32-H ) :   0.9761 B(  2-C ,  3-C ) :   1.2194 B(  2-C ,  6-C ) :   1.0054
B(  3-C ,  4-C ) :   1.5784 B(  3-C ,  5-H ) :   0.9761 B(  4-C , 20-C ) :   1.1280
B(  6-C ,  7-H ) :   0.9448 B(  6-C ,  8-H ) :   0.9458 B(  6-C ,  9-C ) :   1.0606
B(  9-C , 10-H ) :   0.9562 B(  9-C , 11-H ) :   0.9514 B(  9-C , 12-C ) :   1.0645
B( 12-C , 13-H ) :   0.9742 B( 12-C , 14-H ) :   0.9776 B( 12-C , 15-H ) :   0.9752
B( 16-S , 17-C ) :   1.1538 B( 16-S , 20-C ) :   1.1240 B( 17-C , 18-C ) :   1.6155
B( 17-C , 33-H ) :   0.9533 B( 18-C , 19-C ) :   1.2538 B( 18-C , 21-H ) :   0.9814
B( 19-C , 20-C ) :   1.5654 B( 19-C , 22-C ) :   1.0537 B( 22-C , 23-H ) :   0.9203
B( 22-C , 24-H ) :   0.9257 B( 22-C , 25-C ) :   1.0804 B( 25-C , 26-H ) :   0.9406
B( 25-C , 27-H ) :   0.9590 B( 25-C , 28-C ) :   1.0817 B( 28-C , 29-H ) :   0.9746
B( 28-C , 30-H ) :   0.9730 B( 28-C , 31-H ) :   0.9689

Dispersion correction           -0.013557383
FINAL SINGLE POINT ENERGY     -1339.868033182842

DIPOLE MOMENT
-------------
                                X             Y             Z
Electronic contribution:    -16.40968       0.35783      27.47882
Nuclear contribution   :     16.84074      -0.16882     -28.16874
                        -----------------------------------------
Total Dipole Moment    :      0.43106       0.18901      -0.68992
                        -----------------------------------------
Magnitude (a.u.)       :      0.83518
Magnitude (Debye)      :      2.12286

Rotational constants in cm-1:     0.015935     0.009943     0.006360
Rotational constants in MHz :   477.717634   298.086905   190.677106

                             ****ORCA TERMINATED NORMALLY****
TOTAL RUN TIME: 0 days 0 hours 0 minutes 30 seconds 312 msec
