                         Program Version 4.2.1 -  RELEASE  -
|  1> ! wB97X-D3 SP def2-SVP
|  2> %pal
|  3> nprocs 16
|  4> end
|  5>
|  6> * xyz 0 1
|  7> S 	 -41.0282 	 17.9608 	 82.6836
|  8> C 	 -41.1667 	 16.5744 	 81.5931
|  9> C 	 -41.8608 	 16.9627 	 80.4368
| 10> C 	 -42.2012 	 18.3857 	 80.3559
| 11> C 	 -41.9391 	 19.0283 	 81.5762
| 12> H 	 -42.6471 	 18.9353 	 79.562
| 13> C 	 -42.0342 	 16.0452 	 79.16
| 14> H 	 -41.2996 	 15.2784 	 79.2768
| 15> H 	 -41.7283 	 16.5158 	 78.2126
| 16> C 	 -43.4734 	 15.4879 	 79.0327
| 17> H 	 -43.5007 	 15.0372 	 78.0602
| 18> H 	 -43.6039 	 14.7735 	 79.7278
| 19> C 	 -44.5867 	 16.5183 	 79.1295
| 20> H 	 -44.4688 	 17.0291 	 80.0424
| 21> H 	 -44.6293 	 17.2419 	 78.2911
| 22> H 	 -45.5581 	 15.9548 	 79.0845
| 23> S 	 -40.9192 	 21.4989 	 81.1242
| 24> C 	 -41.6262 	 22.8879 	 81.9158
| 25> C 	 -42.815 	 22.6115 	 82.5315
| 26> C 	 -43.1254 	 21.2247 	 82.5221
| 27> C 	 -42.1374 	 20.4557 	 81.8745
| 28> H 	 -43.4547 	 23.3546 	 82.9781
| 29> C 	 -44.3348 	 20.6744 	 83.1408
| 30> H 	 -44.6548 	 19.757 	 82.6678
| 31> H 	 -44.919 	 21.4979 	 82.8083
| 32> C 	 -44.3745 	 20.3673 	 84.5754
| 33> H 	 -43.5758 	 19.6822 	 84.8039
| 34> H 	 -45.1933 	 19.7972 	 84.9079
| 35> C 	 -44.3115 	 21.6764 	 85.366
| 36> H 	 -45.0458 	 22.3701 	 85.0247
| 37> H 	 -43.3383 	 22.2454 	 85.2005
| 38> H 	 -44.4552 	 21.5725 	 86.4534
| 39> H 	 -40.7437 	 15.5619 	 81.7038
| 40> H 	 -41.2022 	 23.8704 	 81.6747
| 41> *
| 42>
| 43>                          ****END OF INPUT****

CARTESIAN COORDINATES (ANGSTROEM)
---------------------------------
  S    -41.028200   17.960800   82.683600
  C    -41.166700   16.574400   81.593100
  C    -41.860800   16.962700   80.436800
  C    -42.201200   18.385700   80.355900
  C    -41.939100   19.028300   81.576200
  H    -42.647100   18.935300   79.562000
  C    -42.034200   16.045200   79.160000
  H    -41.299600   15.278400   79.276800
  H    -41.728300   16.515800   78.212600
  C    -43.473400   15.487900   79.032700
  H    -43.500700   15.037200   78.060200
  H    -43.603900   14.773500   79.727800
  C    -44.586700   16.518300   79.129500
  H    -44.468800   17.029100   80.042400
  H    -44.629300   17.241900   78.291100
  H    -45.558100   15.954800   79.084500
  S    -40.919200   21.498900   81.124200
  C    -41.626200   22.887900   81.915800
  C    -42.815000   22.611500   82.531500
  C    -43.125400   21.224700   82.522100
  C    -42.137400   20.455700   81.874500
  H    -43.454700   23.354600   82.978100
  C    -44.334800   20.674400   83.140800
  H    -44.654800   19.757000   82.667800
  H    -44.919000   21.497900   82.808300
  C    -44.374500   20.367300   84.575400
  H    -43.575800   19.682200   84.803900
  H    -45.193300   19.797200   84.907900
  C    -44.311500   21.676400   85.366000
  H    -45.045800   22.370100   85.024700
  H    -43.338300   22.245400   85.200500
  H    -44.455200   21.572500   86.453400
  H    -40.743700   15.561900   81.703800
  H    -41.202200   23.870400   81.674700

 Total Charge           Charge          ....    0
 Multiplicity           Mult            ....    1
 Number of Electrons    NEL             ....  134
 Basis Dimension        Dim             ....  322

ORBITAL ENERGIES
----------------

  NO   OCC          E(Eh)            E(eV)
   0   2.0000     -88.967974     -2420.9416
   1   2.0000     -88.962877     -2420.8029
   2   2.0000     -10.335313      -281.2382
   3   2.0000     -10.326216      -280.9906
   4   2.0000     -10.323013      -280.9035
   5   2.0000     -10.319044      -280.7955
   6   2.0000     -10.309721      -280.5418
   7   2.0000     -10.303531      -280.3733
   8   2.0000     -10.300284      -280.2850
   9   2.0000     -10.294258      -280.1210
  10   2.0000     -10.292301      -280.0678
  11   2.0000     -10.277412      -279.6626
  12   2.0000     -10.275919      -279.6220
  13   2.0000     -10.275835      -279.6197
  14   2.0000     -10.274531      -279.5842
  15   2.0000     -10.273040      -279.5436
  16   2.0000      -8.081421      -219.9067
  17   2.0000      -8.077715      -219.8058
  18   2.0000      -6.040110      -164.3597
  19   2.0000      -6.036100      -164.2506
  20   2.0000      -6.036003      -164.2480
  21   2.0000      -6.032228      -164.1453
  22   2.0000      -6.032152      -164.1432
  23   2.0000      -6.028581      -164.0460
  24   2.0000      -1.001187       -27.2437
  25   2.0000      -0.976649       -26.5760
  26   2.0000      -0.924224       -25.1494
  27   2.0000      -0.906696       -24.6725
  28   2.0000      -0.867233       -23.5986
  29   2.0000      -0.850120       -23.1329
  30   2.0000      -0.838864       -22.8266
  31   2.0000      -0.813469       -22.1356
  32   2.0000      -0.783959       -21.3326
  33   2.0000      -0.769647       -20.9432
  34   2.0000      -0.718500       -19.5514
  35   2.0000      -0.697726       -18.9861
  36   2.0000      -0.690446       -18.7880
  37   2.0000      -0.665821       -18.1179
  38   2.0000      -0.641871       -17.4662
  39   2.0000      -0.607951       -16.5432
  40   2.0000      -0.594335       -16.1727
  41   2.0000      -0.575434       -15.6584
  42   2.0000      -0.559214       -15.2170
  43   2.0000      -0.556813       -15.1517
  44   2.0000      -0.543359       -14.7855
  45   2.0000      -0.541489       -14.7347
  46   2.0000      -0.521981       -14.2038
  47   2.0000      -0.509893       -13.8749
  48   2.0000      -0.492775       -13.4091
  49   2.0000      -0.491523       -13.3750
  50   2.0000      -0.489792       -13.3279
  51   2.0000      -0.478428       -13.0187
  52   2.0000      -0.474410       -12.9093
  53   2.0000      -0.464257       -12.6331
  54   2.0000      -0.455805       -12.4031
  55   2.0000      -0.453684       -12.3454
  56   2.0000      -0.443496       -12.0681
  57   2.0000      -0.440333       -11.9821
  58   2.0000      -0.431595       -11.7443
  59   2.0000      -0.425337       -11.5740
  60   2.0000      -0.416944       -11.3456
  61   2.0000      -0.407989       -11.1020
  62   2.0000      -0.406659       -11.0658
  63   2.0000      -0.335741        -9.1360
  64   2.0000      -0.330190        -8.9849
  65   2.0000      -0.317512        -8.6399
  66   2.0000      -0.309029        -8.4091
  67   0.0000       0.042274         1.1503
  68   0.0000       0.047136         1.2826
  69   0.0000       0.103210         2.8085
  70   0.0000       0.114373         3.1123
  71   0.0000       0.132145         3.5959

MULLIKEN ATOMIC CHARGES
-----------------------
   0 S :    0.111973
   1 C :   -0.120141
   2 C :   -0.121300
   3 C :    0.059203
   4 C :   -0.167587
   5 H :    0.015777
   6 C :    0.048858
   7 H :    0.006808
   8 H :    0.033727
   9 C :   -0.007951
  10 H :    0.018871
  11 H :    0.002916
  12 C :   -0.069403
  13 H :    0.044307
  14 H :    0.030619
  15 H :    0.038304
  16 S :    0.104834
  17 C :   -0.090182
  18 C :   -0.029812
  19 C :   -0.026993
  20 C :   -0.197856
  21 H :    0.016923
  22 C :    0.070965
  23 H :    0.021944
  24 H :    0.014782
  25 C :    0.023359
  26 H :    0.017193
  27 H :    0.014976
  28 C :   -0.089544
  29 H :    0.013412
  30 H :    0.046883
  31 H :    0.035802
  32 H :    0.063678
  33 H :    0.064654
Sum of atomic charges:    0.0000000

LOEWDIN ATOMIC CHARGES
----------------------
   0 S :    0.387432
   1 C :   -0.202820
   2 C :   -0.062240
   3 C :   -0.052542
   4 C :   -0.192430
   5 H :    0.030365
   6 C :   -0.027678
   7 H :    0.022013
   8 H :    0.031020
   9 C :   -0.028732
  10 H :    0.022294
  11 H :    0.008169
  12 C :   -0.062934
  13 H :    0.018510
  14 H :    0.024594
  15 H :    0.033750
  16 S :    0.402728
  17 C :   -0.178049
  18 C :   -0.076135
  19 C :   -0.044990
  20 C :   -0.202647
  21 H :    0.032067
  22 C :   -0.035093
  23 H :    0.034714
  24 H :    0.031665
  25 C :   -0.033497
  26 H :    0.027043
  27 H :    0.021522
  28 C :   -0.071507
  29 H :    0.016004
  30 H :    0.033527
  31 H :    0.025559
  32 H :    0.038982
  33 H :    0.029337

  Mayer bond orders larger than 0.100000
B(  0-S ,  1-C ) :   1.1278 B(  0-S ,  4-C ) :   1.1436 B(  1-C ,  2-C ) :   1.6379
B(  1-C , 32-H ) :   0.9622 B(  2-C ,  3-C ) :   1.2021 B(  2-C ,  6-C ) :   1.0062
B(  3-C ,  4-C ) :   1.5922 B(  3-C ,  5-H ) :   0.9966 B(  4-C , 20-C ) :   1.0139
B(  6-C ,  7-H ) :   0.9454 B(  6-C ,  8-H ) :   0.9549 B(  6-C ,  9-C ) :   1.0660
B(  9-C , 10-H ) :   0.9540 B(  9-C , 11-H ) :   0.9540 B(  9-C , 12-C ) :   1.0917
B( 12-C , 13-H ) :   0.9680 B( 12-C , 14-H ) :   0.9757 B( 12-C , 15-H ) :   0.9712
B( 16-S , 17-C ) :   1.1672 B( 16-S , 20-C ) :   1.1503 B( 17-C , 18-C ) :   1.5874
B( 17-C , 33-H ) :   0.9646 B( 18-C , 19-C ) :   1.2524 B( 18-C , 21-H ) :   0.9890
B( 19-C , 20-C ) :   1.5867 B( 19-C , 22-C ) :   1.0227 B( 22-C , 23-H ) :   0.9214
B( 22-C , 24-H ) :   0.9357 B( 22-C , 25-C ) :   1.0878 B( 25-C , 26-H ) :   0.9404
B( 25-C , 27-H ) :   0.9495 B( 25-C , 28-C ) :   1.0758 B( 28-C , 29-H ) :   0.9737
B( 28-C , 30-H ) :   0.9713 B( 28-C , 31-H ) :   0.9724

Dispersion correction           -0.014888284
FINAL SINGLE POINT ENERGY     -1339.858905231428

DIPOLE MOMENT
-------------
                                X             Y             Z
Electronic contribution:     18.79351       6.76169       0.28362
Nuclear contribution   :    -19.19448      -6.85573      -0.51846
                        -----------------------------------------
Total Dipole Moment    :     -0.40097      -0.09405      -0.23484
                        -----------------------------------------
Magnitude (a.u.)       :      0.47411
Magnitude (Debye)      :      1.20508

Rotational constants in cm-1:     0.020527     0.008094     0.007403
Rotational constants in MHz :   615.397989   242.645565   221.940268

                             ****ORCA TERMINATED NORMALLY****
TOTAL RUN TIME: 0 days 0 hours 0 minutes 30 seconds 408 msec
