                         Program Version 4.2.1 -  RELEASE  -
|  1> ! wB97X-D3 SP def2-SVP
|  2> %pal
|  3> nprocs 16
|  4> end
|  5>
|  6> * xyz 0 1
|  7> S 	 38.6231 	 22.3587 	 95.0803
|  8> C 	 40.1747 	 23.0874 	 95.6748
|  9> C 	 40.6572 	 22.3136 	 96.7167
| 10> C 	 39.8953 	 21.1145 	 96.8483
| 11> C 	 38.8489 	 20.8618 	 95.9589
| 12> H 	 40.2069 	 20.3507 	 97.4769
| 13> C 	 41.826 	 22.7415 	 97.61
| 14> H 	 41.75 	 22.3357 	 98.6821
| 15> H 	 41.6875 	 23.8565 	 97.7058
| 16> C 	 43.2142 	 22.5938 	 97.0572
| 17> H 	 43.4805 	 23.3079 	 96.3361
| 18> H 	 43.8822 	 23.0458 	 97.7954
| 19> C 	 43.573 	 21.2129 	 96.5611
| 20> H 	 43.0317 	 21.0539 	 95.6309
| 21> H 	 44.6908 	 21.1594 	 96.3873
| 22> H 	 43.1296 	 20.4163 	 97.1417
| 23> S 	 36.814 	 19.3575 	 96.7892
| 24> C 	 36.1752 	 18.1353 	 95.7236
| 25> C 	 37.0954 	 17.8435 	 94.7029
| 26> C 	 38.16 	 18.8069 	 94.6618
| 27> C 	 38.0317 	 19.7555 	 95.6215
| 28> H 	 36.963 	 16.95 	 94.0812
| 29> C 	 39.1334 	 18.8795 	 93.5442
| 30> H 	 39.7538 	 19.7087 	 93.8284
| 31> H 	 38.6291 	 19.1917 	 92.6571
| 32> C 	 40.0853 	 17.6299 	 93.2971
| 33> H 	 40.5576 	 17.6998 	 92.2925
| 34> H 	 39.5119 	 16.6706 	 93.1795
| 35> C 	 41.0123 	 17.2093 	 94.5179
| 36> H 	 40.9073 	 16.1608 	 94.6223
| 37> H 	 40.6373 	 17.6748 	 95.3999
| 38> H 	 41.998 	 17.4728 	 94.5052
| 39> H 	 40.718 	 24.012 	 95.2956
| 40> H 	 35.3782 	 17.4042 	 95.9449
| 41> *
| 42>
| 43>                          ****END OF INPUT****

CARTESIAN COORDINATES (ANGSTROEM)
---------------------------------
  S     38.623100   22.358700   95.080300
  C     40.174700   23.087400   95.674800
  C     40.657200   22.313600   96.716700
  C     39.895300   21.114500   96.848300
  C     38.848900   20.861800   95.958900
  H     40.206900   20.350700   97.476900
  C     41.826000   22.741500   97.610000
  H     41.750000   22.335700   98.682100
  H     41.687500   23.856500   97.705800
  C     43.214200   22.593800   97.057200
  H     43.480500   23.307900   96.336100
  H     43.882200   23.045800   97.795400
  C     43.573000   21.212900   96.561100
  H     43.031700   21.053900   95.630900
  H     44.690800   21.159400   96.387300
  H     43.129600   20.416300   97.141700
  S     36.814000   19.357500   96.789200
  C     36.175200   18.135300   95.723600
  C     37.095400   17.843500   94.702900
  C     38.160000   18.806900   94.661800
  C     38.031700   19.755500   95.621500
  H     36.963000   16.950000   94.081200
  C     39.133400   18.879500   93.544200
  H     39.753800   19.708700   93.828400
  H     38.629100   19.191700   92.657100
  C     40.085300   17.629900   93.297100
  H     40.557600   17.699800   92.292500
  H     39.511900   16.670600   93.179500
  C     41.012300   17.209300   94.517900
  H     40.907300   16.160800   94.622300
  H     40.637300   17.674800   95.399900
  H     41.998000   17.472800   94.505200
  H     40.718000   24.012000   95.295600
  H     35.378200   17.404200   95.944900

 Total Charge           Charge          ....    0
 Multiplicity           Mult            ....    1
 Number of Electrons    NEL             ....  134
 Basis Dimension        Dim             ....  322

ORBITAL ENERGIES
----------------

  NO   OCC          E(Eh)            E(eV)
   0   2.0000     -88.965947     -2420.8865
   1   2.0000     -88.962404     -2420.7901
   2   2.0000     -10.329172      -281.0711
   3   2.0000     -10.323956      -280.9291
   4   2.0000     -10.320876      -280.8453
   5   2.0000     -10.320590      -280.8375
   6   2.0000     -10.304199      -280.3915
   7   2.0000     -10.303340      -280.3681
   8   2.0000     -10.301909      -280.3292
   9   2.0000     -10.297991      -280.2226
  10   2.0000     -10.297601      -280.2120
  11   2.0000     -10.292702      -280.0787
  12   2.0000     -10.286294      -279.9043
  13   2.0000     -10.279983      -279.7326
  14   2.0000     -10.278546      -279.6934
  15   2.0000     -10.266340      -279.3613
  16   2.0000      -8.081270      -219.9025
  17   2.0000      -8.076172      -219.7638
  18   2.0000      -6.039754      -164.3501
  19   2.0000      -6.035828      -164.2432
  20   2.0000      -6.034854      -164.2167
  21   2.0000      -6.031859      -164.1352
  22   2.0000      -6.030670      -164.1029
  23   2.0000      -6.026903      -164.0004
  24   2.0000      -1.012217       -27.5438
  25   2.0000      -0.981998       -26.7215
  26   2.0000      -0.916778       -24.9468
  27   2.0000      -0.902514       -24.5587
  28   2.0000      -0.873556       -23.7707
  29   2.0000      -0.848691       -23.0941
  30   2.0000      -0.838775       -22.8242
  31   2.0000      -0.813357       -22.1326
  32   2.0000      -0.787916       -21.4403
  33   2.0000      -0.776161       -21.1204
  34   2.0000      -0.712226       -19.3806
  35   2.0000      -0.706021       -19.2118
  36   2.0000      -0.698574       -19.0092
  37   2.0000      -0.661423       -17.9982
  38   2.0000      -0.635150       -17.2833
  39   2.0000      -0.615123       -16.7384
  40   2.0000      -0.591802       -16.1038
  41   2.0000      -0.573128       -15.5956
  42   2.0000      -0.555295       -15.1103
  43   2.0000      -0.554791       -15.0966
  44   2.0000      -0.538979       -14.6664
  45   2.0000      -0.534217       -14.5368
  46   2.0000      -0.526408       -14.3243
  47   2.0000      -0.511118       -13.9082
  48   2.0000      -0.501348       -13.6424
  49   2.0000      -0.498304       -13.5595
  50   2.0000      -0.490241       -13.3401
  51   2.0000      -0.478663       -13.0251
  52   2.0000      -0.467933       -12.7331
  53   2.0000      -0.464577       -12.6418
  54   2.0000      -0.457097       -12.4382
  55   2.0000      -0.450598       -12.2614
  56   2.0000      -0.444575       -12.0975
  57   2.0000      -0.438293       -11.9266
  58   2.0000      -0.431707       -11.7473
  59   2.0000      -0.424549       -11.5526
  60   2.0000      -0.421220       -11.4620
  61   2.0000      -0.409553       -11.1445
  62   2.0000      -0.399604       -10.8738
  63   2.0000      -0.332885        -9.0583
  64   2.0000      -0.328613        -8.9420
  65   2.0000      -0.322973        -8.7886
  66   2.0000      -0.308564        -8.3964
  67   0.0000       0.032976         0.8973
  68   0.0000       0.051676         1.4062
  69   0.0000       0.100415         2.7324
  70   0.0000       0.110376         3.0035
  71   0.0000       0.129927         3.5355

MULLIKEN ATOMIC CHARGES
-----------------------
   0 S :    0.097790
   1 C :   -0.151994
   2 C :   -0.082123
   3 C :    0.077393
   4 C :   -0.202148
   5 H :   -0.023629
   6 C :    0.008540
   7 H :    0.053154
   8 H :    0.036428
   9 C :   -0.038622
  10 H :    0.000650
  11 H :    0.013778
  12 C :   -0.039601
  13 H :    0.035287
  14 H :    0.051373
  15 H :    0.023052
  16 S :    0.124461
  17 C :   -0.087962
  18 C :   -0.060243
  19 C :    0.002366
  20 C :   -0.176307
  21 H :    0.030949
  22 C :    0.096256
  23 H :    0.024323
  24 H :    0.037585
  25 C :   -0.120514
  26 H :    0.037767
  27 H :    0.026968
  28 C :    0.003706
  29 H :    0.022683
  30 H :    0.019166
  31 H :    0.019560
  32 H :    0.074078
  33 H :    0.065829
Sum of atomic charges:    0.0000000

LOEWDIN ATOMIC CHARGES
----------------------
   0 S :    0.385060
   1 C :   -0.187734
   2 C :   -0.071305
   3 C :   -0.059443
   4 C :   -0.198459
   5 H :    0.014655
   6 C :   -0.038258
   7 H :    0.042082
   8 H :    0.041244
   9 C :   -0.054834
  10 H :    0.017396
  11 H :    0.027008
  12 C :   -0.068845
  13 H :    0.029068
  14 H :    0.037488
  15 H :    0.022149
  16 S :    0.422691
  17 C :   -0.190707
  18 C :   -0.069058
  19 C :   -0.050047
  20 C :   -0.218450
  21 H :    0.034623
  22 C :   -0.029497
  23 H :    0.029360
  24 H :    0.034147
  25 C :   -0.042535
  26 H :    0.028056
  27 H :    0.024423
  28 C :   -0.053417
  29 H :    0.024150
  30 H :    0.025970
  31 H :    0.012849
  32 H :    0.045142
  33 H :    0.035028

  Mayer bond orders larger than 0.100000
B(  0-S ,  1-C ) :   1.1402 B(  0-S ,  4-C ) :   1.1360 B(  1-C ,  2-C ) :   1.6057
B(  1-C ,  4-C ) :   0.1127 B(  1-C , 32-H ) :   0.9594 B(  2-C ,  3-C ) :   1.2413
B(  2-C ,  6-C ) :   1.0032 B(  3-C ,  4-C ) :   1.5814 B(  3-C ,  5-H ) :   1.0102
B(  4-C , 20-C ) :   1.0209 B(  6-C ,  7-H ) :   0.9472 B(  6-C ,  8-H ) :   0.9385
B(  6-C ,  9-C ) :   1.0944 B(  9-C , 10-H ) :   0.9451 B(  9-C , 11-H ) :   0.9446
B(  9-C , 12-C ) :   1.0695 B( 12-C , 13-H ) :   0.9658 B( 12-C , 14-H ) :   0.9717
B( 12-C , 15-H ) :   0.9772 B( 16-S , 17-C ) :   1.1564 B( 16-S , 20-C ) :   1.1420
B( 17-C , 18-C ) :   1.6175 B( 17-C , 20-C ) :   0.1001 B( 17-C , 33-H ) :   0.9622
B( 18-C , 19-C ) :   1.2159 B( 18-C , 21-H ) :   0.9879 B( 19-C , 20-C ) :   1.5973
B( 19-C , 22-C ) :   1.0474 B( 22-C , 23-H ) :   0.9291 B( 22-C , 24-H ) :   0.9380
B( 22-C , 25-C ) :   1.0614 B( 25-C , 26-H ) :   0.9614 B( 25-C , 27-H ) :   0.9725
B( 25-C , 28-C ) :   1.0413 B( 28-C , 29-H ) :   0.9832 B( 28-C , 30-H ) :   0.9759
B( 28-C , 31-H ) :   0.9784

Dispersion correction           -0.015389755
FINAL SINGLE POINT ENERGY     -1339.839576169046

DIPOLE MOMENT
-------------
                                X             Y             Z
Electronic contribution:    -25.81257       6.57945       3.08295
Nuclear contribution   :     26.39440      -6.84180      -3.13853
                        -----------------------------------------
Total Dipole Moment    :      0.58183      -0.26235      -0.05558
                        -----------------------------------------
Magnitude (a.u.)       :      0.64066
Magnitude (Debye)      :      1.62843

Rotational constants in cm-1:     0.019265     0.009191     0.007492
Rotational constants in MHz :   577.551081   275.548501   224.594126

                             ****ORCA TERMINATED NORMALLY****
TOTAL RUN TIME: 0 days 0 hours 0 minutes 32 seconds 940 msec
