                         Program Version 4.2.1 -  RELEASE  -
|  1> ! wB97X-D3 SP def2-SVP
|  2> %pal
|  3> nprocs 16
|  4> end
|  5>
|  6> * xyz 0 1
|  7> S 	 41.9995 	 21.7763 	 46.7625
|  8> C 	 40.4587 	 21.0133 	 46.4319
|  9> C 	 39.582 	 21.1673 	 47.4697
| 10> C 	 40.2375 	 21.6534 	 48.6672
| 11> C 	 41.5394 	 22.091 	 48.4185
| 12> H 	 39.8731 	 21.8554 	 49.7202
| 13> C 	 38.1771 	 20.6377 	 47.4709
| 14> H 	 37.9339 	 20.3346 	 46.4168
| 15> H 	 37.4927 	 21.441 	 47.6904
| 16> C 	 37.934 	 19.4174 	 48.3541
| 17> H 	 38.028 	 19.8112 	 49.3403
| 18> H 	 36.9246 	 19.1848 	 48.2819
| 19> C 	 38.8186 	 18.2081 	 48.032
| 20> H 	 38.4959 	 17.281 	 48.5622
| 21> H 	 38.6082 	 17.7773 	 47.07
| 22> H 	 39.9482 	 18.2983 	 48.1023
| 23> S 	 43.1631 	 24.2927 	 48.4999
| 24> C 	 43.9976 	 24.7494 	 49.9702
| 25> C 	 43.6721 	 23.8445 	 50.9903
| 26> C 	 42.7834 	 22.773 	 50.5645
| 27> C 	 42.4986 	 22.8666 	 49.1935
| 28> H 	 44.1622 	 23.905 	 51.9248
| 29> C 	 42.2812 	 21.6477 	 51.4797
| 30> H 	 42.382 	 20.726 	 50.8665
| 31> H 	 41.2239 	 21.7908 	 51.795
| 32> C 	 43.1477 	 21.3613 	 52.6871
| 33> H 	 43.1157 	 22.324 	 53.2328
| 34> H 	 44.1766 	 21.1192 	 52.4067
| 35> C 	 42.5403 	 20.3469 	 53.5495
| 36> H 	 43.225 	 19.9795 	 54.3197
| 37> H 	 42.2777 	 19.4627 	 52.9513
| 38> H 	 41.5374 	 20.6525 	 53.9114
| 39> H 	 40.2099 	 20.8018 	 45.3571
| 40> H 	 44.6075 	 25.6333 	 50.061
| 41> *
| 42>
| 43>                          ****END OF INPUT****

CARTESIAN COORDINATES (ANGSTROEM)
---------------------------------
  S     41.999500   21.776300   46.762500
  C     40.458700   21.013300   46.431900
  C     39.582000   21.167300   47.469700
  C     40.237500   21.653400   48.667200
  C     41.539400   22.091000   48.418500
  H     39.873100   21.855400   49.720200
  C     38.177100   20.637700   47.470900
  H     37.933900   20.334600   46.416800
  H     37.492700   21.441000   47.690400
  C     37.934000   19.417400   48.354100
  H     38.028000   19.811200   49.340300
  H     36.924600   19.184800   48.281900
  C     38.818600   18.208100   48.032000
  H     38.495900   17.281000   48.562200
  H     38.608200   17.777300   47.070000
  H     39.948200   18.298300   48.102300
  S     43.163100   24.292700   48.499900
  C     43.997600   24.749400   49.970200
  C     43.672100   23.844500   50.990300
  C     42.783400   22.773000   50.564500
  C     42.498600   22.866600   49.193500
  H     44.162200   23.905000   51.924800
  C     42.281200   21.647700   51.479700
  H     42.382000   20.726000   50.866500
  H     41.223900   21.790800   51.795000
  C     43.147700   21.361300   52.687100
  H     43.115700   22.324000   53.232800
  H     44.176600   21.119200   52.406700
  C     42.540300   20.346900   53.549500
  H     43.225000   19.979500   54.319700
  H     42.277700   19.462700   52.951300
  H     41.537400   20.652500   53.911400
  H     40.209900   20.801800   45.357100
  H     44.607500   25.633300   50.061000

 Total Charge           Charge          ....    0
 Multiplicity           Mult            ....    1
 Number of Electrons    NEL             ....  134
 Basis Dimension        Dim             ....  322

ORBITAL ENERGIES
----------------

  NO   OCC          E(Eh)            E(eV)
   0   2.0000     -88.966618     -2420.9047
   1   2.0000     -88.960261     -2420.7318
   2   2.0000     -10.330152      -281.0977
   3   2.0000     -10.325187      -280.9626
   4   2.0000     -10.320001      -280.8215
   5   2.0000     -10.314665      -280.6763
   6   2.0000     -10.306767      -280.4614
   7   2.0000     -10.303797      -280.3806
   8   2.0000     -10.302996      -280.3588
   9   2.0000     -10.296717      -280.1879
  10   2.0000     -10.295893      -280.1655
  11   2.0000     -10.290281      -280.0128
  12   2.0000     -10.282419      -279.7988
  13   2.0000     -10.281601      -279.7766
  14   2.0000     -10.280990      -279.7599
  15   2.0000     -10.277542      -279.6661
  16   2.0000      -8.081730      -219.9150
  17   2.0000      -8.075617      -219.7487
  18   2.0000      -6.040188      -164.3619
  19   2.0000      -6.036019      -164.2484
  20   2.0000      -6.033982      -164.1930
  21   2.0000      -6.032664      -164.1571
  22   2.0000      -6.030065      -164.0864
  23   2.0000      -6.026464      -163.9884
  24   2.0000      -1.007339       -27.4111
  25   2.0000      -0.982402       -26.7325
  26   2.0000      -0.920632       -25.0517
  27   2.0000      -0.914197       -24.8766
  28   2.0000      -0.868715       -23.6389
  29   2.0000      -0.853486       -23.2245
  30   2.0000      -0.839777       -22.8515
  31   2.0000      -0.813523       -22.1371
  32   2.0000      -0.783288       -21.3144
  33   2.0000      -0.771592       -20.9961
  34   2.0000      -0.712585       -19.3904
  35   2.0000      -0.699323       -19.0295
  36   2.0000      -0.689953       -18.7746
  37   2.0000      -0.654070       -17.7981
  38   2.0000      -0.639604       -17.4045
  39   2.0000      -0.615192       -16.7402
  40   2.0000      -0.598606       -16.2889
  41   2.0000      -0.581470       -15.8226
  42   2.0000      -0.566546       -15.4165
  43   2.0000      -0.549460       -14.9516
  44   2.0000      -0.541349       -14.7309
  45   2.0000      -0.529609       -14.4114
  46   2.0000      -0.516008       -14.0413
  47   2.0000      -0.509982       -13.8773
  48   2.0000      -0.499352       -13.5881
  49   2.0000      -0.496651       -13.5145
  50   2.0000      -0.493851       -13.4384
  51   2.0000      -0.474287       -12.9060
  52   2.0000      -0.471141       -12.8204
  53   2.0000      -0.463291       -12.6068
  54   2.0000      -0.458775       -12.4839
  55   2.0000      -0.450435       -12.2570
  56   2.0000      -0.447013       -12.1638
  57   2.0000      -0.437663       -11.9094
  58   2.0000      -0.436311       -11.8726
  59   2.0000      -0.425608       -11.5814
  60   2.0000      -0.417008       -11.3474
  61   2.0000      -0.411757       -11.2045
  62   2.0000      -0.404425       -11.0050
  63   2.0000      -0.350730        -9.5439
  64   2.0000      -0.329596        -8.9688
  65   2.0000      -0.328860        -8.9487
  66   2.0000      -0.290753        -7.9118
  67   0.0000       0.027580         0.7505
  68   0.0000       0.073147         1.9904
  69   0.0000       0.114334         3.1112
  70   0.0000       0.121731         3.3125
  71   0.0000       0.128981         3.5098

MULLIKEN ATOMIC CHARGES
-----------------------
   0 S :    0.084946
   1 C :   -0.130043
   2 C :   -0.088065
   3 C :    0.011735
   4 C :   -0.180252
   5 H :    0.035143
   6 C :    0.046737
   7 H :    0.012637
   8 H :    0.030795
   9 C :   -0.002145
  10 H :    0.016672
  11 H :    0.012036
  12 C :   -0.068028
  13 H :    0.024889
  14 H :    0.010712
  15 H :    0.066025
  16 S :    0.114932
  17 C :   -0.096940
  18 C :   -0.028875
  19 C :   -0.046167
  20 C :   -0.116770
  21 H :    0.012219
  22 C :    0.013390
  23 H :    0.043244
  24 H :    0.045908
  25 C :   -0.095240
  26 H :    0.032334
  27 H :    0.038886
  28 C :   -0.013465
  29 H :    0.040913
  30 H :    0.012267
  31 H :    0.024968
  32 H :    0.073728
  33 H :    0.060872
Sum of atomic charges:   -0.0000000

LOEWDIN ATOMIC CHARGES
----------------------
   0 S :    0.396836
   1 C :   -0.203959
   2 C :   -0.063337
   3 C :   -0.073004
   4 C :   -0.185873
   5 H :    0.042878
   6 C :   -0.031150
   7 H :    0.028707
   8 H :    0.030133
   9 C :   -0.032149
  10 H :    0.019616
  11 H :    0.020305
  12 C :   -0.079035
  13 H :    0.032282
  14 H :    0.022556
  15 H :    0.038907
  16 S :    0.425272
  17 C :   -0.187663
  18 C :   -0.067053
  19 C :   -0.057754
  20 C :   -0.218817
  21 H :    0.023824
  22 C :   -0.037006
  23 H :    0.038143
  24 H :    0.032338
  25 C :   -0.050377
  26 H :    0.024620
  27 H :    0.027872
  28 C :   -0.066545
  29 H :    0.029988
  30 H :    0.023750
  31 H :    0.028221
  32 H :    0.037763
  33 H :    0.029707

  Mayer bond orders larger than 0.100000
B(  0-S ,  1-C ) :   1.1307 B(  0-S ,  4-C ) :   1.1581 B(  1-C ,  2-C ) :   1.6339
B(  1-C , 32-H ) :   0.9570 B(  2-C ,  3-C ) :   1.1951 B(  2-C ,  6-C ) :   1.0380
B(  3-C ,  4-C ) :   1.5963 B(  3-C ,  5-H ) :   0.9791 B(  4-C , 20-C ) :   1.0304
B(  6-C ,  7-H ) :   0.9421 B(  6-C ,  8-H ) :   0.9333 B(  6-C ,  9-C ) :   1.0773
B(  9-C , 10-H ) :   0.9528 B(  9-C , 11-H ) :   0.9490 B(  9-C , 12-C ) :   1.0719
B( 12-C , 13-H ) :   0.9691 B( 12-C , 14-H ) :   0.9684 B( 12-C , 15-H ) :   0.9748
B( 16-S , 17-C ) :   1.1616 B( 16-S , 20-C ) :   1.1591 B( 17-C , 18-C ) :   1.5749
B( 17-C , 33-H ) :   0.9708 B( 18-C , 19-C ) :   1.2597 B( 18-C , 21-H ) :   0.9927
B( 19-C , 20-C ) :   1.5771 B( 19-C , 22-C ) :   1.0237 B( 22-C , 23-H ) :   0.9349
B( 22-C , 24-H ) :   0.9320 B( 22-C , 25-C ) :   1.0815 B( 25-C , 26-H ) :   0.9413
B( 25-C , 27-H ) :   0.9539 B( 25-C , 28-C ) :   1.1040 B( 28-C , 29-H ) :   0.9685
B( 28-C , 30-H ) :   0.9652 B( 28-C , 31-H ) :   0.9663

Dispersion correction           -0.014011191
FINAL SINGLE POINT ENERGY     -1339.880388322029

DIPOLE MOMENT
-------------
                                X             Y             Z
Electronic contribution:     12.77193      19.85018     -17.07241
Nuclear contribution   :    -13.15466     -20.05608      17.51971
                        -----------------------------------------
Total Dipole Moment    :     -0.38273      -0.20589       0.44731
                        -----------------------------------------
Magnitude (a.u.)       :      0.62367
Magnitude (Debye)      :      1.58523

Rotational constants in cm-1:     0.017314     0.009315     0.006559
Rotational constants in MHz :   519.062049   279.253921   196.630764

                             ****ORCA TERMINATED NORMALLY****
TOTAL RUN TIME: 0 days 0 hours 0 minutes 34 seconds 578 msec
