                         Program Version 4.2.1 -  RELEASE  -
|  1> ! wB97X-D3 SP def2-SVP
|  2> %pal
|  3> nprocs 16
|  4> end
|  5>
|  6> * xyz 0 1
|  7> S 	 -14.9353 	 -6.87439 	 84.6019
|  8> C 	 -16.1932 	 -7.62699 	 83.6764
|  9> C 	 -15.6378 	 -8.64353 	 82.9035
| 10> C 	 -14.2099 	 -8.52269 	 82.9225
| 11> C 	 -13.7206 	 -7.44096 	 83.6156
| 12> H 	 -13.5679 	 -9.01846 	 82.285
| 13> C 	 -16.3708 	 -9.65158 	 81.9863
| 14> H 	 -17.4365 	 -9.44213 	 82.1289
| 15> H 	 -16.1585 	 -10.6618 	 82.1911
| 16> C 	 -16.0585 	 -9.48457 	 80.4764
| 17> H 	 -16.2997 	 -8.49913 	 80.1108
| 18> H 	 -14.942 	 -9.63681 	 80.2341
| 19> C 	 -16.8512 	 -10.4777 	 79.5864
| 20> H 	 -16.7017 	 -10.2981 	 78.5317
| 21> H 	 -16.536 	 -11.4881 	 79.6799
| 22> H 	 -17.917 	 -10.5348 	 79.7811
| 23> S 	 -11.7997 	 -6.29587 	 85.1996
| 24> C 	 -10.2616 	 -5.84743 	 84.469
| 25> C 	 -10.0876 	 -6.30946 	 83.2019
| 26> C 	 -11.2508 	 -6.99143 	 82.7158
| 27> C 	 -12.3065 	 -7.00902 	 83.6676
| 28> H 	 -9.14692 	 -6.02605 	 82.6341
| 29> C 	 -11.3884 	 -7.54829 	 81.3225
| 30> H 	 -11.7738 	 -6.79828 	 80.5658
| 31> H 	 -12.02 	 -8.42697 	 81.3535
| 32> C 	 -10.0661 	 -8.14726 	 80.6972
| 33> H 	 -9.72201 	 -8.82777 	 81.4481
| 34> H 	 -9.29742 	 -7.40488 	 80.3271
| 35> C 	 -10.3602 	 -8.86796 	 79.3704
| 36> H 	 -9.62475 	 -9.67694 	 79.3364
| 37> H 	 -10.3546 	 -8.17969 	 78.5029
| 38> H 	 -11.3523 	 -9.30245 	 79.4428
| 39> H 	 -17.2638 	 -7.41257 	 83.7877
| 40> H 	 -9.5842 	 -5.07509 	 84.8505
| 41> *
| 42>
| 43>                          ****END OF INPUT****

CARTESIAN COORDINATES (ANGSTROEM)
---------------------------------
  S    -14.935300   -6.874390   84.601900
  C    -16.193200   -7.626990   83.676400
  C    -15.637800   -8.643530   82.903500
  C    -14.209900   -8.522690   82.922500
  C    -13.720600   -7.440960   83.615600
  H    -13.567900   -9.018460   82.285000
  C    -16.370800   -9.651580   81.986300
  H    -17.436500   -9.442130   82.128900
  H    -16.158500  -10.661800   82.191100
  C    -16.058500   -9.484570   80.476400
  H    -16.299700   -8.499130   80.110800
  H    -14.942000   -9.636810   80.234100
  C    -16.851200  -10.477700   79.586400
  H    -16.701700  -10.298100   78.531700
  H    -16.536000  -11.488100   79.679900
  H    -17.917000  -10.534800   79.781100
  S    -11.799700   -6.295870   85.199600
  C    -10.261600   -5.847430   84.469000
  C    -10.087600   -6.309460   83.201900
  C    -11.250800   -6.991430   82.715800
  C    -12.306500   -7.009020   83.667600
  H     -9.146920   -6.026050   82.634100
  C    -11.388400   -7.548290   81.322500
  H    -11.773800   -6.798280   80.565800
  H    -12.020000   -8.426970   81.353500
  C    -10.066100   -8.147260   80.697200
  H     -9.722010   -8.827770   81.448100
  H     -9.297420   -7.404880   80.327100
  C    -10.360200   -8.867960   79.370400
  H     -9.624750   -9.676940   79.336400
  H    -10.354600   -8.179690   78.502900
  H    -11.352300   -9.302450   79.442800
  H    -17.263800   -7.412570   83.787700
  H     -9.584200   -5.075090   84.850500

 Total Charge           Charge          ....    0
 Multiplicity           Mult            ....    1
 Number of Electrons    NEL             ....  134
 Basis Dimension        Dim             ....  322

ORBITAL ENERGIES
----------------

  NO   OCC          E(Eh)            E(eV)
   0   2.0000     -88.966512     -2420.9019
   1   2.0000     -88.963577     -2420.8220
   2   2.0000     -10.334149      -281.2065
   3   2.0000     -10.324016      -280.9308
   4   2.0000     -10.315890      -280.7096
   5   2.0000     -10.315088      -280.6878
   6   2.0000     -10.309427      -280.5338
   7   2.0000     -10.305816      -280.4355
   8   2.0000     -10.298664      -280.2409
   9   2.0000     -10.297907      -280.2203
  10   2.0000     -10.296478      -280.1814
  11   2.0000     -10.295556      -280.1563
  12   2.0000     -10.290706      -280.0243
  13   2.0000     -10.282785      -279.8088
  14   2.0000     -10.281210      -279.7659
  15   2.0000     -10.275241      -279.6035
  16   2.0000      -8.081012      -219.8955
  17   2.0000      -8.080430      -219.8797
  18   2.0000      -6.039496      -164.3430
  19   2.0000      -6.038907      -164.3270
  20   2.0000      -6.035695      -164.2396
  21   2.0000      -6.034745      -164.2138
  22   2.0000      -6.031692      -164.1307
  23   2.0000      -6.030978      -164.1113
  24   2.0000      -1.015992       -27.6465
  25   2.0000      -0.986094       -26.8330
  26   2.0000      -0.910244       -24.7690
  27   2.0000      -0.907145       -24.6847
  28   2.0000      -0.869938       -23.6722
  29   2.0000      -0.853834       -23.2340
  30   2.0000      -0.844882       -22.9904
  31   2.0000      -0.816389       -22.2151
  32   2.0000      -0.785394       -21.3716
  33   2.0000      -0.769459       -20.9381
  34   2.0000      -0.706003       -19.2113
  35   2.0000      -0.694508       -18.8985
  36   2.0000      -0.693430       -18.8692
  37   2.0000      -0.654731       -17.8161
  38   2.0000      -0.638719       -17.3804
  39   2.0000      -0.625286       -17.0149
  40   2.0000      -0.595359       -16.2005
  41   2.0000      -0.579310       -15.7638
  42   2.0000      -0.574687       -15.6380
  43   2.0000      -0.558372       -15.1941
  44   2.0000      -0.526618       -14.3300
  45   2.0000      -0.521021       -14.1777
  46   2.0000      -0.513926       -13.9846
  47   2.0000      -0.512095       -13.9348
  48   2.0000      -0.504735       -13.7345
  49   2.0000      -0.502995       -13.6872
  50   2.0000      -0.494055       -13.4439
  51   2.0000      -0.487232       -13.2582
  52   2.0000      -0.470521       -12.8035
  53   2.0000      -0.464546       -12.6409
  54   2.0000      -0.458768       -12.4837
  55   2.0000      -0.455340       -12.3904
  56   2.0000      -0.444531       -12.0963
  57   2.0000      -0.438930       -11.9439
  58   2.0000      -0.432748       -11.7757
  59   2.0000      -0.423694       -11.5293
  60   2.0000      -0.421438       -11.4679
  61   2.0000      -0.416884       -11.3440
  62   2.0000      -0.410918       -11.1816
  63   2.0000      -0.354782        -9.6541
  64   2.0000      -0.334751        -9.1090
  65   2.0000      -0.325696        -8.8626
  66   2.0000      -0.283790        -7.7223
  67   0.0000       0.019724         0.5367
  68   0.0000       0.078768         2.1434
  69   0.0000       0.097612         2.6561
  70   0.0000       0.121445         3.3047
  71   0.0000       0.124112         3.3773

MULLIKEN ATOMIC CHARGES
-----------------------
   0 S :    0.110927
   1 C :   -0.137854
   2 C :   -0.065024
   3 C :    0.035285
   4 C :   -0.107271
   5 H :   -0.042229
   6 C :    0.107523
   7 H :    0.019649
   8 H :    0.026304
   9 C :   -0.111684
  10 H :    0.030511
  11 H :    0.039865
  12 C :   -0.038173
  13 H :    0.030419
  14 H :    0.013670
  15 H :    0.026540
  16 S :    0.091416
  17 C :   -0.087197
  18 C :   -0.056434
  19 C :   -0.038812
  20 C :   -0.139458
  21 H :    0.049363
  22 C :    0.040526
  23 H :    0.055762
  24 H :    0.018526
  25 C :   -0.134782
  26 H :    0.035431
  27 H :    0.045795
  28 C :   -0.036441
  29 H :    0.040693
  30 H :    0.044095
  31 H :    0.014924
  32 H :    0.056216
  33 H :    0.061920
Sum of atomic charges:   -0.0000000

LOEWDIN ATOMIC CHARGES
----------------------
   0 S :    0.440012
   1 C :   -0.204722
   2 C :   -0.055583
   3 C :   -0.063534
   4 C :   -0.215856
   5 H :    0.007529
   6 C :   -0.023322
   7 H :    0.031807
   8 H :    0.027097
   9 C :   -0.039756
  10 H :    0.020946
  11 H :    0.029484
  12 C :   -0.069365
  13 H :    0.027547
  14 H :    0.018398
  15 H :    0.023610
  16 S :    0.388024
  17 C :   -0.186725
  18 C :   -0.076888
  19 C :   -0.062255
  20 C :   -0.180530
  21 H :    0.048879
  22 C :   -0.036495
  23 H :    0.041509
  24 H :    0.024723
  25 C :   -0.044711
  26 H :    0.020547
  27 H :    0.030092
  28 C :   -0.064892
  29 H :    0.031124
  30 H :    0.028790
  31 H :    0.017385
  32 H :    0.032931
  33 H :    0.034202

  Mayer bond orders larger than 0.100000
B(  0-S ,  1-C ) :   1.1485 B(  0-S ,  4-C ) :   1.1720 B(  1-C ,  2-C ) :   1.5828
B(  1-C , 32-H ) :   0.9710 B(  2-C ,  3-C ) :   1.2536 B(  2-C ,  6-C ) :   1.0288
B(  3-C ,  4-C ) :   1.5367 B(  3-C ,  5-H ) :   1.0094 B(  4-C , 20-C ) :   1.0619
B(  6-C ,  7-H ) :   0.9414 B(  6-C ,  8-H ) :   0.9407 B(  6-C ,  9-C ) :   1.0590
B(  9-C , 10-H ) :   0.9599 B(  9-C , 11-H ) :   0.9542 B(  9-C , 12-C ) :   1.0796
B( 12-C , 13-H ) :   0.9743 B( 12-C , 14-H ) :   0.9732 B( 12-C , 15-H ) :   0.9751
B( 16-S , 17-C ) :   1.1403 B( 16-S , 20-C ) :   1.1361 B( 17-C , 18-C ) :   1.6458
B( 17-C , 33-H ) :   0.9564 B( 18-C , 19-C ) :   1.2349 B( 18-C , 21-H ) :   0.9776
B( 19-C , 20-C ) :   1.5916 B( 19-C , 22-C ) :   1.0472 B( 22-C , 23-H ) :   0.9277
B( 22-C , 24-H ) :   0.9380 B( 22-C , 25-C ) :   1.0712 B( 25-C , 26-H ) :   0.9640
B( 25-C , 27-H ) :   0.9523 B( 25-C , 28-C ) :   1.0751 B( 28-C , 29-H ) :   0.9742
B( 28-C , 30-H ) :   0.9772 B( 28-C , 31-H ) :   0.9741

Dispersion correction           -0.013497793
FINAL SINGLE POINT ENERGY     -1339.857359374532

DIPOLE MOMENT
-------------
                                X             Y             Z
Electronic contribution:      1.16267      16.55070      30.38913
Nuclear contribution   :     -1.12535     -16.78288     -31.14732
                        -----------------------------------------
Total Dipole Moment    :      0.03732      -0.23218      -0.75819
                        -----------------------------------------
Magnitude (a.u.)       :      0.79382
Magnitude (Debye)      :      2.01774

Rotational constants in cm-1:     0.015937     0.009642     0.006140
Rotational constants in MHz :   477.767925   289.046607   184.064927

                             ****ORCA TERMINATED NORMALLY****
TOTAL RUN TIME: 0 days 0 hours 0 minutes 32 seconds 841 msec
