                         Program Version 4.2.1 -  RELEASE  -
|  1> ! wB97X-D3 SP def2-SVP
|  2> %pal
|  3> nprocs 16
|  4> end
|  5>
|  6> * xyz 0 1
|  7> S 	 -20.5759 	 -3.35262 	 81.5649
|  8> C 	 -19.6595 	 -4.03418 	 80.2959
|  9> C 	 -18.6948 	 -4.91736 	 80.7774
| 10> C 	 -18.7692 	 -5.0253 	 82.1912
| 11> C 	 -19.6199 	 -4.14357 	 82.8814
| 12> H 	 -18.0875 	 -5.54767 	 82.9324
| 13> C 	 -17.7856 	 -5.81087 	 79.9938
| 14> H 	 -16.9935 	 -6.3141 	 80.6079
| 15> H 	 -17.3547 	 -5.09331 	 79.3318
| 16> C 	 -18.4441 	 -6.91336 	 79.1171
| 17> H 	 -19.116 	 -6.33462 	 78.4012
| 18> H 	 -17.735 	 -7.47318 	 78.5112
| 19> C 	 -19.2499 	 -7.85244 	 80.0037
| 20> H 	 -20.0381 	 -7.35166 	 80.5669
| 21> H 	 -19.7413 	 -8.75736 	 79.5656
| 22> H 	 -18.5457 	 -8.20915 	 80.7617
| 23> S 	 -21.4276 	 -3.82904 	 84.9713
| 24> C 	 -20.8268 	 -3.22729 	 86.4943
| 25> C 	 -19.4844 	 -3.52286 	 86.6392
| 26> C 	 -18.906 	 -3.91057 	 85.3415
| 27> C 	 -19.8166 	 -3.98891 	 84.314
| 28> H 	 -18.9306 	 -3.37715 	 87.5214
| 29> C 	 -17.3516 	 -3.99529 	 85.1151
| 30> H 	 -16.8336 	 -3.1441 	 85.5809
| 31> H 	 -17.1566 	 -3.87818 	 84.106
| 32> C 	 -16.6074 	 -5.34366 	 85.4819
| 33> H 	 -17.0958 	 -6.13956 	 84.9288
| 34> H 	 -16.5871 	 -5.49348 	 86.5939
| 35> C 	 -15.133 	 -5.31241 	 85.0876
| 36> H 	 -15.1489 	 -5.27096 	 83.9367
| 37> H 	 -14.5767 	 -6.18443 	 85.4384
| 38> H 	 -14.6464 	 -4.40697 	 85.4917
| 39> H 	 -19.9361 	 -4.00142 	 79.276
| 40> H 	 -21.4678 	 -2.89507 	 87.2197
| 41> *
| 42>
| 43>                          ****END OF INPUT****

CARTESIAN COORDINATES (ANGSTROEM)
---------------------------------
  S    -20.575900   -3.352620   81.564900
  C    -19.659500   -4.034180   80.295900
  C    -18.694800   -4.917360   80.777400
  C    -18.769200   -5.025300   82.191200
  C    -19.619900   -4.143570   82.881400
  H    -18.087500   -5.547670   82.932400
  C    -17.785600   -5.810870   79.993800
  H    -16.993500   -6.314100   80.607900
  H    -17.354700   -5.093310   79.331800
  C    -18.444100   -6.913360   79.117100
  H    -19.116000   -6.334620   78.401200
  H    -17.735000   -7.473180   78.511200
  C    -19.249900   -7.852440   80.003700
  H    -20.038100   -7.351660   80.566900
  H    -19.741300   -8.757360   79.565600
  H    -18.545700   -8.209150   80.761700
  S    -21.427600   -3.829040   84.971300
  C    -20.826800   -3.227290   86.494300
  C    -19.484400   -3.522860   86.639200
  C    -18.906000   -3.910570   85.341500
  C    -19.816600   -3.988910   84.314000
  H    -18.930600   -3.377150   87.521400
  C    -17.351600   -3.995290   85.115100
  H    -16.833600   -3.144100   85.580900
  H    -17.156600   -3.878180   84.106000
  C    -16.607400   -5.343660   85.481900
  H    -17.095800   -6.139560   84.928800
  H    -16.587100   -5.493480   86.593900
  C    -15.133000   -5.312410   85.087600
  H    -15.148900   -5.270960   83.936700
  H    -14.576700   -6.184430   85.438400
  H    -14.646400   -4.406970   85.491700
  H    -19.936100   -4.001420   79.276000
  H    -21.467800   -2.895070   87.219700

 Total Charge           Charge          ....    0
 Multiplicity           Mult            ....    1
 Number of Electrons    NEL             ....  134
 Basis Dimension        Dim             ....  322

ORBITAL ENERGIES
----------------

  NO   OCC          E(Eh)            E(eV)
   0   2.0000     -88.968553     -2420.9574
   1   2.0000     -88.963241     -2420.8129
   2   2.0000     -10.337059      -281.2857
   3   2.0000     -10.330258      -281.1006
   4   2.0000     -10.317237      -280.7463
   5   2.0000     -10.315675      -280.7038
   6   2.0000     -10.311989      -280.6035
   7   2.0000     -10.305019      -280.4138
   8   2.0000     -10.301056      -280.3060
   9   2.0000     -10.300044      -280.2785
  10   2.0000     -10.294919      -280.1390
  11   2.0000     -10.294209      -280.1197
  12   2.0000     -10.293357      -280.0965
  13   2.0000     -10.292410      -280.0707
  14   2.0000     -10.287626      -279.9405
  15   2.0000     -10.276378      -279.6345
  16   2.0000      -8.082785      -219.9438
  17   2.0000      -8.078653      -219.8313
  18   2.0000      -6.041354      -164.3936
  19   2.0000      -6.037226      -164.2813
  20   2.0000      -6.037139      -164.2789
  21   2.0000      -6.033708      -164.1855
  22   2.0000      -6.033197      -164.1716
  23   2.0000      -6.029160      -164.0618
  24   2.0000      -1.006600       -27.3910
  25   2.0000      -0.987136       -26.8613
  26   2.0000      -0.913214       -24.8498
  27   2.0000      -0.903925       -24.5970
  28   2.0000      -0.874149       -23.7868
  29   2.0000      -0.849931       -23.1278
  30   2.0000      -0.843791       -22.9607
  31   2.0000      -0.817892       -22.2560
  32   2.0000      -0.780356       -21.2346
  33   2.0000      -0.771493       -20.9934
  34   2.0000      -0.707965       -19.2647
  35   2.0000      -0.700201       -19.0534
  36   2.0000      -0.692046       -18.8315
  37   2.0000      -0.669631       -18.2216
  38   2.0000      -0.643168       -17.5015
  39   2.0000      -0.611603       -16.6426
  40   2.0000      -0.598448       -16.2846
  41   2.0000      -0.577733       -15.7209
  42   2.0000      -0.572394       -15.5756
  43   2.0000      -0.554724       -15.0948
  44   2.0000      -0.546957       -14.8835
  45   2.0000      -0.524270       -14.2661
  46   2.0000      -0.516326       -14.0499
  47   2.0000      -0.511101       -13.9078
  48   2.0000      -0.508775       -13.8445
  49   2.0000      -0.501837       -13.6557
  50   2.0000      -0.486330       -13.2337
  51   2.0000      -0.478703       -13.0262
  52   2.0000      -0.470438       -12.8013
  53   2.0000      -0.464042       -12.6272
  54   2.0000      -0.459666       -12.5081
  55   2.0000      -0.457126       -12.4390
  56   2.0000      -0.438653       -11.9364
  57   2.0000      -0.433789       -11.8040
  58   2.0000      -0.430056       -11.7024
  59   2.0000      -0.424273       -11.5450
  60   2.0000      -0.417529       -11.3616
  61   2.0000      -0.416403       -11.3309
  62   2.0000      -0.411963       -11.2101
  63   2.0000      -0.354655        -9.6507
  64   2.0000      -0.329956        -8.9786
  65   2.0000      -0.328828        -8.9479
  66   2.0000      -0.292495        -7.9592
  67   0.0000       0.017011         0.4629
  68   0.0000       0.073429         1.9981
  69   0.0000       0.100588         2.7371
  70   0.0000       0.117591         3.1998
  71   0.0000       0.128746         3.5034

MULLIKEN ATOMIC CHARGES
-----------------------
   0 S :    0.117235
   1 C :   -0.097191
   2 C :   -0.095915
   3 C :    0.012225
   4 C :   -0.169905
   5 H :    0.017050
   6 C :    0.058307
   7 H :    0.036614
   8 H :    0.028965
   9 C :   -0.066108
  10 H :    0.024788
  11 H :    0.037504
  12 C :   -0.067788
  13 H :    0.045001
  14 H :    0.043096
  15 H :    0.018222
  16 S :    0.097832
  17 C :   -0.065913
  18 C :    0.014746
  19 C :   -0.043634
  20 C :   -0.137574
  21 H :    0.008496
  22 C :    0.048230
  23 H :    0.026571
  24 H :   -0.000560
  25 C :   -0.086062
  26 H :    0.037889
  27 H :    0.036532
  28 C :   -0.075117
  29 H :    0.036458
  30 H :    0.047105
  31 H :    0.036625
  32 H :    0.042759
  33 H :    0.033517
Sum of atomic charges:    0.0000000

LOEWDIN ATOMIC CHARGES
----------------------
   0 S :    0.411433
   1 C :   -0.200202
   2 C :   -0.070770
   3 C :   -0.069166
   4 C :   -0.184372
   5 H :    0.037700
   6 C :   -0.033420
   7 H :    0.034088
   8 H :    0.032433
   9 C :   -0.038830
  10 H :    0.022806
  11 H :    0.024674
  12 C :   -0.075949
  13 H :    0.028326
  14 H :    0.029542
  15 H :    0.023610
  16 S :    0.398924
  17 C :   -0.158908
  18 C :   -0.055768
  19 C :   -0.047383
  20 C :   -0.201368
  21 H :    0.025287
  22 C :   -0.029184
  23 H :    0.030551
  24 H :    0.014717
  25 C :   -0.041601
  26 H :    0.019211
  27 H :    0.025748
  28 C :   -0.070811
  29 H :    0.030170
  30 H :    0.027610
  31 H :    0.025660
  32 H :    0.024369
  33 H :    0.010872

  Mayer bond orders larger than 0.100000
B(  0-S ,  1-C ) :   1.1725 B(  0-S ,  4-C ) :   1.1372 B(  1-C ,  2-C ) :   1.5538
B(  1-C ,  4-C ) :   0.1069 B(  1-C , 32-H ) :   0.9706 B(  2-C ,  3-C ) :   1.2737
B(  2-C ,  6-C ) :   1.0133 B(  3-C ,  4-C ) :   1.5416 B(  3-C ,  5-H ) :   0.9767
B(  4-C , 20-C ) :   1.0833 B(  6-C ,  7-H ) :   0.9497 B(  6-C ,  8-H ) :   0.9306
B(  6-C ,  9-C ) :   1.0723 B(  9-C , 10-H ) :   0.9553 B(  9-C , 11-H ) :   0.9584
B(  9-C , 12-C ) :   1.0634 B( 12-C , 13-H ) :   0.9739 B( 12-C , 14-H ) :   0.9759
B( 12-C , 15-H ) :   0.9729 B( 16-S , 17-C ) :   1.1534 B( 16-S , 20-C ) :   1.1196
B( 17-C , 18-C ) :   1.6015 B( 17-C , 33-H ) :   0.9827 B( 18-C , 19-C ) :   1.2204
B( 18-C , 21-H ) :   1.0018 B( 19-C , 20-C ) :   1.6121 B( 19-C , 22-C ) :   1.0377
B( 22-C , 23-H ) :   0.9407 B( 22-C , 24-H ) :   0.9362 B( 22-C , 25-C ) :   1.0541
B( 25-C , 26-H ) :   0.9530 B( 25-C , 27-H ) :   0.9555 B( 25-C , 28-C ) :   1.0802
B( 28-C , 29-H ) :   0.9742 B( 28-C , 30-H ) :   0.9741 B( 28-C , 31-H ) :   0.9737

Dispersion correction           -0.014516723
FINAL SINGLE POINT ENERGY     -1339.864260164991

DIPOLE MOMENT
-------------
                                X             Y             Z
Electronic contribution:    -22.77830      16.11748       5.47106
Nuclear contribution   :     23.33718     -16.36314      -5.38016
                        -----------------------------------------
Total Dipole Moment    :      0.55888      -0.24566       0.09090
                        -----------------------------------------
Magnitude (a.u.)       :      0.61722
Magnitude (Debye)      :      1.56884

Rotational constants in cm-1:     0.017170     0.009355     0.006853
Rotational constants in MHz :   514.752430   280.447430   205.438387

                             ****ORCA TERMINATED NORMALLY****
TOTAL RUN TIME: 0 days 0 hours 0 minutes 33 seconds 731 msec
