                         Program Version 4.2.1 -  RELEASE  -
|  1> ! wB97X-D3 SP def2-SVP
|  2> %pal
|  3> nprocs 16
|  4> end
|  5>
|  6> * xyz 0 1
|  7> S 	 -100.045 	 44.88 	 119.035
|  8> C 	 -100.649 	 45.5526 	 120.581
|  9> C 	 -101.157 	 46.8114 	 120.399
| 10> C 	 -100.861 	 47.3349 	 119.098
| 11> C 	 -100.135 	 46.4885 	 118.244
| 12> H 	 -101.139 	 48.2574 	 118.68
| 13> C 	 -101.914 	 47.4871 	 121.519
| 14> H 	 -102.368 	 46.8704 	 122.29
| 15> H 	 -102.732 	 47.7732 	 120.955
| 16> C 	 -101.078 	 48.6458 	 122.134
| 17> H 	 -100.251 	 48.187 	 122.719
| 18> H 	 -100.64 	 49.3359 	 121.427
| 19> C 	 -101.918 	 49.5535 	 123.013
| 20> H 	 -101.339 	 50.247 	 123.542
| 21> H 	 -102.644 	 50.1414 	 122.485
| 22> H 	 -102.549 	 49.0708 	 123.807
| 23> S 	 -100.641 	 45.7569 	 115.663
| 24> C 	 -99.6054 	 46.4363 	 114.406
| 25> C 	 -99.007 	 47.6312 	 114.818
| 26> C 	 -99.1662 	 47.8406 	 116.243
| 27> C 	 -99.8209 	 46.781 	 116.849
| 28> H 	 -98.3792 	 48.1901 	 114.115
| 29> C 	 -98.532 	 49.0015 	 117.03
| 30> H 	 -97.6279 	 49.1495 	 116.53
| 31> H 	 -98.1634 	 48.6188 	 118.043
| 32> C 	 -99.326 	 50.3304 	 117.115
| 33> H 	 -98.8258 	 51.1486 	 117.622
| 34> H 	 -100.232 	 50.2481 	 117.709
| 35> C 	 -99.9347 	 50.9591 	 115.794
| 36> H 	 -99.1437 	 51.1746 	 115.061
| 37> H 	 -100.461 	 51.9084 	 116.072
| 38> H 	 -100.61 	 50.3442 	 115.258
| 39> H 	 -100.95 	 45.0477 	 121.447
| 40> H 	 -99.6591 	 46.2076 	 113.377
| 41> *
| 42>
| 43>                          ****END OF INPUT****

CARTESIAN COORDINATES (ANGSTROEM)
---------------------------------
  S    -100.045000   44.880000  119.035000
  C    -100.649000   45.552600  120.581000
  C    -101.157000   46.811400  120.399000
  C    -100.861000   47.334900  119.098000
  C    -100.135000   46.488500  118.244000
  H    -101.139000   48.257400  118.680000
  C    -101.914000   47.487100  121.519000
  H    -102.368000   46.870400  122.290000
  H    -102.732000   47.773200  120.955000
  C    -101.078000   48.645800  122.134000
  H    -100.251000   48.187000  122.719000
  H    -100.640000   49.335900  121.427000
  C    -101.918000   49.553500  123.013000
  H    -101.339000   50.247000  123.542000
  H    -102.644000   50.141400  122.485000
  H    -102.549000   49.070800  123.807000
  S    -100.641000   45.756900  115.663000
  C    -99.605400   46.436300  114.406000
  C    -99.007000   47.631200  114.818000
  C    -99.166200   47.840600  116.243000
  C    -99.820900   46.781000  116.849000
  H    -98.379200   48.190100  114.115000
  C    -98.532000   49.001500  117.030000
  H    -97.627900   49.149500  116.530000
  H    -98.163400   48.618800  118.043000
  C    -99.326000   50.330400  117.115000
  H    -98.825800   51.148600  117.622000
  H    -100.232000   50.248100  117.709000
  C    -99.934700   50.959100  115.794000
  H    -99.143700   51.174600  115.061000
  H    -100.461000   51.908400  116.072000
  H    -100.610000   50.344200  115.258000
  H    -100.950000   45.047700  121.447000
  H    -99.659100   46.207600  113.377000

 Total Charge           Charge          ....    0
 Multiplicity           Mult            ....    1
 Number of Electrons    NEL             ....  134
 Basis Dimension        Dim             ....  322

ORBITAL ENERGIES
----------------

  NO   OCC          E(Eh)            E(eV)
   0   2.0000     -88.965487     -2420.8740
   1   2.0000     -88.965449     -2420.8729
   2   2.0000     -10.334755      -281.2230
   3   2.0000     -10.329019      -281.0669
   4   2.0000     -10.316941      -280.7382
   5   2.0000     -10.310104      -280.5522
   6   2.0000     -10.309449      -280.5344
   7   2.0000     -10.301806      -280.3264
   8   2.0000     -10.300836      -280.3000
   9   2.0000     -10.297689      -280.2144
  10   2.0000     -10.295855      -280.1645
  11   2.0000     -10.293032      -280.0876
  12   2.0000     -10.291685      -280.0510
  13   2.0000     -10.290156      -280.0094
  14   2.0000     -10.281280      -279.7679
  15   2.0000     -10.273379      -279.5528
  16   2.0000      -8.079881      -219.8647
  17   2.0000      -8.078613      -219.8302
  18   2.0000      -6.038477      -164.3153
  19   2.0000      -6.037322      -164.2839
  20   2.0000      -6.034671      -164.2117
  21   2.0000      -6.033481      -164.1794
  22   2.0000      -6.030330      -164.0936
  23   2.0000      -6.029083      -164.0597
  24   2.0000      -1.000690       -27.2302
  25   2.0000      -0.978378       -26.6230
  26   2.0000      -0.912669       -24.8350
  27   2.0000      -0.900419       -24.5017
  28   2.0000      -0.870329       -23.6829
  29   2.0000      -0.847172       -23.0527
  30   2.0000      -0.843384       -22.9496
  31   2.0000      -0.816178       -22.2093
  32   2.0000      -0.785206       -21.3665
  33   2.0000      -0.774838       -21.0844
  34   2.0000      -0.713218       -19.4077
  35   2.0000      -0.706713       -19.2306
  36   2.0000      -0.697062       -18.9680
  37   2.0000      -0.662608       -18.0305
  38   2.0000      -0.643786       -17.5183
  39   2.0000      -0.615853       -16.7582
  40   2.0000      -0.586205       -15.9515
  41   2.0000      -0.567445       -15.4410
  42   2.0000      -0.561992       -15.2926
  43   2.0000      -0.548232       -14.9181
  44   2.0000      -0.542824       -14.7710
  45   2.0000      -0.530919       -14.4470
  46   2.0000      -0.521010       -14.1774
  47   2.0000      -0.505101       -13.7445
  48   2.0000      -0.501687       -13.6516
  49   2.0000      -0.501304       -13.6412
  50   2.0000      -0.488936       -13.3046
  51   2.0000      -0.481299       -13.0968
  52   2.0000      -0.470532       -12.8038
  53   2.0000      -0.463530       -12.6133
  54   2.0000      -0.460052       -12.5186
  55   2.0000      -0.451613       -12.2890
  56   2.0000      -0.444872       -12.1056
  57   2.0000      -0.438518       -11.9327
  58   2.0000      -0.434100       -11.8125
  59   2.0000      -0.427409       -11.6304
  60   2.0000      -0.425139       -11.5686
  61   2.0000      -0.410264       -11.1639
  62   2.0000      -0.408910       -11.1270
  63   2.0000      -0.341799        -9.3008
  64   2.0000      -0.331621        -9.0239
  65   2.0000      -0.325342        -8.8530
  66   2.0000      -0.295432        -8.0391
  67   0.0000       0.021116         0.5746
  68   0.0000       0.064107         1.7445
  69   0.0000       0.100126         2.7246
  70   0.0000       0.117573         3.1993
  71   0.0000       0.128929         3.5083

MULLIKEN ATOMIC CHARGES
-----------------------
   0 S :    0.096334
   1 C :   -0.075439
   2 C :   -0.105277
   3 C :    0.062298
   4 C :   -0.153970
   5 H :   -0.020160
   6 C :    0.096698
   7 H :    0.023102
   8 H :    0.011025
   9 C :   -0.063924
  10 H :    0.038411
  11 H :    0.032726
  12 C :   -0.032067
  13 H :    0.016789
  14 H :    0.019626
  15 H :    0.021496
  16 S :    0.103008
  17 C :   -0.069251
  18 C :   -0.054848
  19 C :   -0.044443
  20 C :   -0.168655
  21 H :    0.032488
  22 C :    0.095139
  23 H :    0.006369
  24 H :    0.050320
  25 C :   -0.062234
  26 H :    0.031195
  27 H :    0.019326
  28 C :   -0.081670
  29 H :    0.026914
  30 H :    0.042027
  31 H :    0.036062
  32 H :    0.026786
  33 H :    0.043801
Sum of atomic charges:   -0.0000000

LOEWDIN ATOMIC CHARGES
----------------------
   0 S :    0.369466
   1 C :   -0.178985
   2 C :   -0.057533
   3 C :   -0.048955
   4 C :   -0.184696
   5 H :    0.018872
   6 C :   -0.025530
   7 H :    0.032667
   8 H :    0.024949
   9 C :   -0.033694
  10 H :    0.031218
  11 H :    0.027042
  12 C :   -0.068983
  13 H :    0.017826
  14 H :    0.021148
  15 H :    0.025936
  16 S :    0.390116
  17 C :   -0.174042
  18 C :   -0.068645
  19 C :   -0.053197
  20 C :   -0.186821
  21 H :    0.035635
  22 C :   -0.032680
  23 H :    0.021439
  24 H :    0.046766
  25 C :   -0.041487
  26 H :    0.026930
  27 H :    0.020074
  28 C :   -0.067236
  29 H :    0.020842
  30 H :    0.033637
  31 H :    0.017820
  32 H :    0.020145
  33 H :    0.019954

  Mayer bond orders larger than 0.100000
B(  0-S ,  1-C ) :   1.1195 B(  0-S ,  4-C ) :   1.1293 B(  1-C ,  2-C ) :   1.6331
B(  1-C , 32-H ) :   0.9675 B(  2-C ,  3-C ) :   1.2266 B(  2-C ,  6-C ) :   1.0099
B(  3-C ,  4-C ) :   1.5654 B(  3-C ,  5-H ) :   1.0024 B(  4-C , 20-C ) :   1.0612
B(  6-C ,  7-H ) :   0.9455 B(  6-C ,  8-H ) :   0.9334 B(  6-C ,  9-C ) :   1.0539
B(  9-C , 10-H ) :   0.9561 B(  9-C , 11-H ) :   0.9593 B(  9-C , 12-C ) :   1.0815
B( 12-C , 13-H ) :   0.9726 B( 12-C , 14-H ) :   0.9755 B( 12-C , 15-H ) :   0.9727
B( 16-S , 17-C ) :   1.1377 B( 16-S , 20-C ) :   1.1395 B( 17-C , 18-C ) :   1.6362
B( 17-C , 33-H ) :   0.9701 B( 18-C , 19-C ) :   1.2133 B( 18-C , 21-H ) :   0.9854
B( 19-C , 20-C ) :   1.6182 B( 19-C , 22-C ) :   1.0277 B( 22-C , 23-H ) :   0.9343
B( 22-C , 24-H ) :   0.9383 B( 22-C , 25-C ) :   1.0541 B( 25-C , 26-H ) :   0.9571
B( 25-C , 27-H ) :   0.9558 B( 25-C , 28-C ) :   1.0729 B( 28-C , 29-H ) :   0.9778
B( 28-C , 30-H ) :   0.9754 B( 28-C , 31-H ) :   0.9757

Dispersion correction           -0.014518695
FINAL SINGLE POINT ENERGY     -1339.849702414324

DIPOLE MOMENT
-------------
                                X             Y             Z
Electronic contribution:      2.52024     -27.47684     -13.34523
Nuclear contribution   :     -2.71101      28.23442      13.52920
                        -----------------------------------------
Total Dipole Moment    :     -0.19077       0.75758       0.18397
                        -----------------------------------------
Magnitude (a.u.)       :      0.80260
Magnitude (Debye)      :      2.04005

Rotational constants in cm-1:     0.018115     0.008984     0.006480
Rotational constants in MHz :   543.066375   269.332562   194.276526

                             ****ORCA TERMINATED NORMALLY****
TOTAL RUN TIME: 0 days 0 hours 0 minutes 33 seconds 50 msec
