                         Program Version 4.2.1 -  RELEASE  -
|  1> ! wB97X-D3 SP def2-SVP
|  2> %pal
|  3> nprocs 16
|  4> end
|  5>
|  6> * xyz 0 1
|  7> S 	 43.6398 	 12.7387 	 85.2136
|  8> C 	 43.8385 	 11.0193 	 85.4921
|  9> C 	 45.1293 	 10.6114 	 85.534
| 10> C 	 46.0238 	 11.6815 	 85.1424
| 11> C 	 45.3388 	 12.8962 	 85.0185
| 12> H 	 47.1242 	 11.6544 	 85.057
| 13> C 	 45.5832 	 9.22115 	 85.9634
| 14> H 	 45.5491 	 8.68091 	 85.0245
| 15> H 	 44.8159 	 8.72896 	 86.6435
| 16> C 	 46.9611 	 8.98817 	 86.5519
| 17> H 	 47.3287 	 7.92043 	 86.552
| 18> H 	 47.6923 	 9.62827 	 86.0459
| 19> C 	 47.017 	 9.51517 	 88.0245
| 20> H 	 46.5096 	 8.9691 	 88.7471
| 21> H 	 48.0914 	 9.58594 	 88.321
| 22> H 	 46.5932 	 10.526 	 88.046
| 23> S 	 45.3749 	 14.7123 	 82.994
| 24> C 	 46.5814 	 15.9719 	 82.947
| 25> C 	 47.3134 	 15.9768 	 84.0862
| 26> C 	 47.0474 	 14.8527 	 84.979
| 27> C 	 45.9599 	 14.1299 	 84.5181
| 28> H 	 48.049 	 16.7351 	 84.1909
| 29> C 	 47.7081 	 14.6351 	 86.3378
| 30> H 	 48.7382 	 14.953 	 86.1088
| 31> H 	 47.7896 	 13.5977 	 86.5111
| 32> C 	 47.1448 	 15.4279 	 87.476
| 33> H 	 47.1394 	 16.498 	 87.2142
| 34> H 	 47.8359 	 15.3919 	 88.2937
| 35> C 	 45.8634 	 14.875 	 87.9693
| 36> H 	 45.4389 	 15.6556 	 88.6382
| 37> H 	 45.9735 	 13.9566 	 88.5822
| 38> H 	 45.161 	 14.6745 	 87.2956
| 39> H 	 43.0543 	 10.3787 	 85.8926
| 40> H 	 46.7447 	 16.6682 	 82.1397
| 41> *
| 42>
| 43>                          ****END OF INPUT****

CARTESIAN COORDINATES (ANGSTROEM)
---------------------------------
  S     43.639800   12.738700   85.213600
  C     43.838500   11.019300   85.492100
  C     45.129300   10.611400   85.534000
  C     46.023800   11.681500   85.142400
  C     45.338800   12.896200   85.018500
  H     47.124200   11.654400   85.057000
  C     45.583200    9.221150   85.963400
  H     45.549100    8.680910   85.024500
  H     44.815900    8.728960   86.643500
  C     46.961100    8.988170   86.551900
  H     47.328700    7.920430   86.552000
  H     47.692300    9.628270   86.045900
  C     47.017000    9.515170   88.024500
  H     46.509600    8.969100   88.747100
  H     48.091400    9.585940   88.321000
  H     46.593200   10.526000   88.046000
  S     45.374900   14.712300   82.994000
  C     46.581400   15.971900   82.947000
  C     47.313400   15.976800   84.086200
  C     47.047400   14.852700   84.979000
  C     45.959900   14.129900   84.518100
  H     48.049000   16.735100   84.190900
  C     47.708100   14.635100   86.337800
  H     48.738200   14.953000   86.108800
  H     47.789600   13.597700   86.511100
  C     47.144800   15.427900   87.476000
  H     47.139400   16.498000   87.214200
  H     47.835900   15.391900   88.293700
  C     45.863400   14.875000   87.969300
  H     45.438900   15.655600   88.638200
  H     45.973500   13.956600   88.582200
  H     45.161000   14.674500   87.295600
  H     43.054300   10.378700   85.892600
  H     46.744700   16.668200   82.139700

 Total Charge           Charge          ....    0
 Multiplicity           Mult            ....    1
 Number of Electrons    NEL             ....  134
 Basis Dimension        Dim             ....  322

ORBITAL ENERGIES
----------------

  NO   OCC          E(Eh)            E(eV)
   0   2.0000     -88.970552     -2421.0118
   1   2.0000     -88.960649     -2420.7423
   2   2.0000     -10.329978      -281.0930
   3   2.0000     -10.322555      -280.8910
   4   2.0000     -10.311922      -280.6017
   5   2.0000     -10.309228      -280.5284
   6   2.0000     -10.304900      -280.4106
   7   2.0000     -10.302807      -280.3536
   8   2.0000     -10.299812      -280.2721
   9   2.0000     -10.298042      -280.2240
  10   2.0000     -10.295989      -280.1681
  11   2.0000     -10.290396      -280.0159
  12   2.0000     -10.284361      -279.8517
  13   2.0000     -10.278116      -279.6817
  14   2.0000     -10.274485      -279.5830
  15   2.0000     -10.261120      -279.2193
  16   2.0000      -8.085429      -220.0157
  17   2.0000      -8.076052      -219.7605
  18   2.0000      -6.043904      -164.4630
  19   2.0000      -6.040015      -164.3572
  20   2.0000      -6.036112      -164.2510
  21   2.0000      -6.034560      -164.2087
  22   2.0000      -6.030402      -164.0956
  23   2.0000      -6.026836      -163.9986
  24   2.0000      -1.009834       -27.4790
  25   2.0000      -0.986304       -26.8387
  26   2.0000      -0.916550       -24.9406
  27   2.0000      -0.913422       -24.8555
  28   2.0000      -0.871054       -23.7026
  29   2.0000      -0.850512       -23.1436
  30   2.0000      -0.844391       -22.9770
  31   2.0000      -0.815910       -22.2020
  32   2.0000      -0.786181       -21.3931
  33   2.0000      -0.776174       -21.1208
  34   2.0000      -0.710213       -19.3259
  35   2.0000      -0.699780       -19.0420
  36   2.0000      -0.689963       -18.7748
  37   2.0000      -0.657548       -17.8928
  38   2.0000      -0.637318       -17.3423
  39   2.0000      -0.621190       -16.9034
  40   2.0000      -0.595999       -16.2180
  41   2.0000      -0.568789       -15.4775
  42   2.0000      -0.557240       -15.1633
  43   2.0000      -0.554734       -15.0951
  44   2.0000      -0.544842       -14.8259
  45   2.0000      -0.538429       -14.6514
  46   2.0000      -0.519122       -14.1260
  47   2.0000      -0.510826       -13.9003
  48   2.0000      -0.503947       -13.7131
  49   2.0000      -0.495216       -13.4755
  50   2.0000      -0.489974       -13.3329
  51   2.0000      -0.482894       -13.1402
  52   2.0000      -0.470570       -12.8048
  53   2.0000      -0.463358       -12.6086
  54   2.0000      -0.460909       -12.5420
  55   2.0000      -0.451290       -12.2802
  56   2.0000      -0.444069       -12.0837
  57   2.0000      -0.434914       -11.8346
  58   2.0000      -0.427932       -11.6446
  59   2.0000      -0.427551       -11.6343
  60   2.0000      -0.427169       -11.6238
  61   2.0000      -0.418195       -11.3797
  62   2.0000      -0.406870       -11.0715
  63   2.0000      -0.346367        -9.4251
  64   2.0000      -0.330876        -9.0036
  65   2.0000      -0.326440        -8.8829
  66   2.0000      -0.297209        -8.0875
  67   0.0000       0.039063         1.0630
  68   0.0000       0.069883         1.9016
  69   0.0000       0.108546         2.9537
  70   0.0000       0.123613         3.3637
  71   0.0000       0.130993         3.5645

MULLIKEN ATOMIC CHARGES
-----------------------
   0 S :    0.125836
   1 C :   -0.129712
   2 C :   -0.087210
   3 C :    0.021750
   4 C :   -0.176880
   5 H :    0.032673
   6 C :    0.059772
   7 H :    0.045179
   8 H :    0.035378
   9 C :   -0.087130
  10 H :    0.049854
  11 H :    0.028668
  12 C :   -0.062282
  13 H :    0.020063
  14 H :    0.034920
  15 H :    0.034436
  16 S :    0.106145
  17 C :   -0.089467
  18 C :   -0.021677
  19 C :   -0.073074
  20 C :   -0.153190
  21 H :    0.002846
  22 C :    0.103458
  23 H :    0.011116
  24 H :   -0.000682
  25 C :   -0.019748
  26 H :    0.023384
  27 H :    0.016792
  28 C :   -0.002314
  29 H :    0.025775
  30 H :    0.031448
  31 H :   -0.005527
  32 H :    0.046654
  33 H :    0.052747
Sum of atomic charges:    0.0000000

LOEWDIN ATOMIC CHARGES
----------------------
   0 S :    0.421094
   1 C :   -0.204403
   2 C :   -0.058480
   3 C :   -0.066026
   4 C :   -0.202186
   5 H :    0.034649
   6 C :   -0.039979
   7 H :    0.038563
   8 H :    0.036980
   9 C :   -0.044260
  10 H :    0.035426
  11 H :    0.023820
  12 C :   -0.065072
  13 H :    0.010965
  14 H :    0.028854
  15 H :    0.026693
  16 S :    0.407196
  17 C :   -0.185227
  18 C :   -0.068187
  19 C :   -0.056149
  20 C :   -0.205911
  21 H :    0.024932
  22 C :   -0.028983
  23 H :    0.031842
  24 H :    0.020985
  25 C :   -0.038065
  26 H :    0.027863
  27 H :    0.024263
  28 C :   -0.054099
  29 H :    0.033278
  30 H :    0.031935
  31 H :   -0.001337
  32 H :    0.028428
  33 H :    0.030597

  Mayer bond orders larger than 0.100000
B(  0-S ,  1-C ) :   1.1219 B(  0-S ,  4-C ) :   1.1677 B(  1-C ,  2-C ) :   1.6582
B(  1-C , 32-H ) :   0.9593 B(  2-C ,  3-C ) :   1.2144 B(  2-C ,  6-C ) :   1.0014
B(  3-C ,  4-C ) :   1.5894 B(  3-C ,  5-H ) :   0.9798 B(  4-C , 20-C ) :   1.0020
B(  6-C ,  7-H ) :   0.9282 B(  6-C ,  8-H ) :   0.9479 B(  6-C ,  9-C ) :   1.0797
B(  9-C , 10-H ) :   0.9548 B(  9-C , 11-H ) :   0.9523 B(  9-C , 12-C ) :   1.0704
B( 12-C , 13-H ) :   0.9774 B( 12-C , 14-H ) :   0.9778 B( 12-C , 15-H ) :   0.9769
B( 16-S , 17-C ) :   1.1383 B( 16-S , 20-C ) :   1.1502 B( 17-C , 18-C ) :   1.6454
B( 17-C , 33-H ) :   0.9680 B( 18-C , 19-C ) :   1.2103 B( 18-C , 21-H ) :   0.9933
B( 19-C , 20-C ) :   1.6157 B( 19-C , 22-C ) :   1.0443 B( 22-C , 23-H ) :   0.9185
B( 22-C , 24-H ) :   0.9265 B( 22-C , 25-C ) :   1.0887 B( 25-C , 26-H ) :   0.9507
B( 25-C , 27-H ) :   0.9446 B( 25-C , 28-C ) :   1.0852 B( 28-C , 29-H ) :   0.9666
B( 28-C , 30-H ) :   0.9704 B( 28-C , 31-H ) :   0.9749

Dispersion correction           -0.015665595
FINAL SINGLE POINT ENERGY     -1339.878502345031

DIPOLE MOMENT
-------------
                                X             Y             Z
Electronic contribution:    -13.30792       9.70916     -20.95211
Nuclear contribution   :     13.80735      -9.92162      21.31655
                        -----------------------------------------
Total Dipole Moment    :      0.49943      -0.21246       0.36444
                        -----------------------------------------
Magnitude (a.u.)       :      0.65375
Magnitude (Debye)      :      1.66170

Rotational constants in cm-1:     0.019525     0.009557     0.008006
Rotational constants in MHz :   585.341308   286.523576   240.006416

                             ****ORCA TERMINATED NORMALLY****
TOTAL RUN TIME: 0 days 0 hours 0 minutes 32 seconds 42 msec
