                         Program Version 4.2.1 -  RELEASE  -
|  1> ! wB97X-D3 SP def2-SVP
|  2> %pal
|  3> nprocs 16
|  4> end
|  5>
|  6> * xyz 0 1
|  7> S 	 -70.2768 	 40.456 	 123.011
|  8> C 	 -71.314 	 40.6639 	 124.343
|  9> C 	 -71.725 	 39.4329 	 124.743
| 10> C 	 -71.3524 	 38.3816 	 123.855
| 11> C 	 -70.4639 	 38.7855 	 122.871
| 12> H 	 -71.5343 	 37.3724 	 123.837
| 13> C 	 -72.4658 	 39.1948 	 126.045
| 14> H 	 -73.1544 	 38.3368 	 125.902
| 15> H 	 -73.086 	 40.1115 	 126.097
| 16> C 	 -71.7018 	 39.0423 	 127.356
| 17> H 	 -71.0272 	 38.1955 	 127.295
| 18> H 	 -71.0835 	 39.9535 	 127.332
| 19> C 	 -72.5878 	 38.7579 	 128.603
| 20> H 	 -73.0454 	 37.8017 	 128.601
| 21> H 	 -71.9275 	 38.9015 	 129.472
| 22> H 	 -73.3816 	 39.4722 	 128.805
| 23> S 	 -67.8528 	 38.2701 	 122.104
| 24> C 	 -67.5217 	 37.0557 	 120.828
| 25> C 	 -68.7406 	 36.4987 	 120.411
| 26> C 	 -69.9382 	 36.956 	 121.103
| 27> C 	 -69.621 	 37.9808 	 121.972
| 28> H 	 -68.718 	 35.6909 	 119.722
| 29> C 	 -71.2588 	 36.3685 	 120.775
| 30> H 	 -71.6956 	 36.762 	 119.889
| 31> H 	 -72.0031 	 36.615 	 121.544
| 32> C 	 -71.3557 	 34.8431 	 120.497
| 33> H 	 -70.8161 	 34.5772 	 119.587
| 34> H 	 -72.4359 	 34.6607 	 120.3
| 35> C 	 -70.9189 	 33.9303 	 121.645
| 36> H 	 -71.0443 	 32.9028 	 121.465
| 37> H 	 -71.432 	 34.1652 	 122.677
| 38> H 	 -69.9291 	 34.1491 	 121.844
| 39> H 	 -71.6266 	 41.6124 	 124.71
| 40> H 	 -66.6035 	 36.958 	 120.366
| 41> *
| 42>
| 43>                          ****END OF INPUT****

CARTESIAN COORDINATES (ANGSTROEM)
---------------------------------
  S    -70.276800   40.456000  123.011000
  C    -71.314000   40.663900  124.343000
  C    -71.725000   39.432900  124.743000
  C    -71.352400   38.381600  123.855000
  C    -70.463900   38.785500  122.871000
  H    -71.534300   37.372400  123.837000
  C    -72.465800   39.194800  126.045000
  H    -73.154400   38.336800  125.902000
  H    -73.086000   40.111500  126.097000
  C    -71.701800   39.042300  127.356000
  H    -71.027200   38.195500  127.295000
  H    -71.083500   39.953500  127.332000
  C    -72.587800   38.757900  128.603000
  H    -73.045400   37.801700  128.601000
  H    -71.927500   38.901500  129.472000
  H    -73.381600   39.472200  128.805000
  S    -67.852800   38.270100  122.104000
  C    -67.521700   37.055700  120.828000
  C    -68.740600   36.498700  120.411000
  C    -69.938200   36.956000  121.103000
  C    -69.621000   37.980800  121.972000
  H    -68.718000   35.690900  119.722000
  C    -71.258800   36.368500  120.775000
  H    -71.695600   36.762000  119.889000
  H    -72.003100   36.615000  121.544000
  C    -71.355700   34.843100  120.497000
  H    -70.816100   34.577200  119.587000
  H    -72.435900   34.660700  120.300000
  C    -70.918900   33.930300  121.645000
  H    -71.044300   32.902800  121.465000
  H    -71.432000   34.165200  122.677000
  H    -69.929100   34.149100  121.844000
  H    -71.626600   41.612400  124.710000
  H    -66.603500   36.958000  120.366000

 Total Charge           Charge          ....    0
 Multiplicity           Mult            ....    1
 Number of Electrons    NEL             ....  134
 Basis Dimension        Dim             ....  322

ORBITAL ENERGIES
----------------

  NO   OCC          E(Eh)            E(eV)
   0   2.0000     -88.965994     -2420.8878
   1   2.0000     -88.960463     -2420.7373
   2   2.0000     -10.334984      -281.2292
   3   2.0000     -10.324320      -280.9390
   4   2.0000     -10.320784      -280.8428
   5   2.0000     -10.307819      -280.4900
   6   2.0000     -10.307325      -280.4766
   7   2.0000     -10.298957      -280.2489
   8   2.0000     -10.298857      -280.2461
   9   2.0000     -10.293415      -280.0981
  10   2.0000     -10.291979      -280.0590
  11   2.0000     -10.289249      -279.9847
  12   2.0000     -10.288222      -279.9568
  13   2.0000     -10.286148      -279.9003
  14   2.0000     -10.279612      -279.7225
  15   2.0000     -10.274448      -279.5819
  16   2.0000      -8.079445      -219.8529
  17   2.0000      -8.077462      -219.7989
  18   2.0000      -6.038185      -164.3074
  19   2.0000      -6.035699      -164.2397
  20   2.0000      -6.034139      -164.1973
  21   2.0000      -6.031355      -164.1215
  22   2.0000      -6.030012      -164.0850
  23   2.0000      -6.028634      -164.0475
  24   2.0000      -1.016361       -27.6566
  25   2.0000      -0.982271       -26.7289
  26   2.0000      -0.912018       -24.8173
  27   2.0000      -0.908647       -24.7255
  28   2.0000      -0.871792       -23.7227
  29   2.0000      -0.851523       -23.1711
  30   2.0000      -0.844369       -22.9765
  31   2.0000      -0.818739       -22.2790
  32   2.0000      -0.788345       -21.4520
  33   2.0000      -0.777438       -21.1552
  34   2.0000      -0.708995       -19.2927
  35   2.0000      -0.700554       -19.0630
  36   2.0000      -0.699049       -19.0221
  37   2.0000      -0.662988       -18.0408
  38   2.0000      -0.655031       -17.8243
  39   2.0000      -0.615417       -16.7464
  40   2.0000      -0.602671       -16.3995
  41   2.0000      -0.572698       -15.5839
  42   2.0000      -0.560909       -15.2631
  43   2.0000      -0.556038       -15.1306
  44   2.0000      -0.542168       -14.7531
  45   2.0000      -0.526138       -14.3170
  46   2.0000      -0.524744       -14.2790
  47   2.0000      -0.515348       -14.0233
  48   2.0000      -0.511125       -13.9084
  49   2.0000      -0.508077       -13.8255
  50   2.0000      -0.496897       -13.5212
  51   2.0000      -0.476446       -12.9648
  52   2.0000      -0.475116       -12.9286
  53   2.0000      -0.467899       -12.7322
  54   2.0000      -0.460306       -12.5256
  55   2.0000      -0.444081       -12.0841
  56   2.0000      -0.441097       -12.0029
  57   2.0000      -0.436262       -11.8713
  58   2.0000      -0.430851       -11.7241
  59   2.0000      -0.425731       -11.5847
  60   2.0000      -0.418319       -11.3830
  61   2.0000      -0.413426       -11.2499
  62   2.0000      -0.412099       -11.2138
  63   2.0000      -0.349208        -9.5024
  64   2.0000      -0.330162        -8.9842
  65   2.0000      -0.325848        -8.8668
  66   2.0000      -0.295495        -8.0408
  67   0.0000       0.030783         0.8376
  68   0.0000       0.068401         1.8613
  69   0.0000       0.109415         2.9773
  70   0.0000       0.123125         3.3504
  71   0.0000       0.125986         3.4283

MULLIKEN ATOMIC CHARGES
-----------------------
   0 S :    0.112934
   1 C :   -0.111221
   2 C :   -0.082995
   3 C :    0.081850
   4 C :   -0.183325
   5 H :   -0.034664
   6 C :    0.035377
   7 H :    0.017924
   8 H :    0.020109
   9 C :   -0.043530
  10 H :    0.027229
  11 H :    0.025675
  12 C :   -0.036547
  13 H :    0.034596
  14 H :    0.037549
  15 H :    0.023420
  16 S :    0.094104
  17 C :   -0.072226
  18 C :   -0.022422
  19 C :   -0.019287
  20 C :   -0.142274
  21 H :    0.009918
  22 C :    0.088397
  23 H :    0.034014
  24 H :    0.016154
  25 C :   -0.115519
  26 H :    0.033646
  27 H :    0.034540
  28 C :   -0.028885
  29 H :    0.032874
  30 H :    0.030167
  31 H :    0.018248
  32 H :    0.042838
  33 H :    0.041332
Sum of atomic charges:   -0.0000000

LOEWDIN ATOMIC CHARGES
----------------------
   0 S :    0.454545
   1 C :   -0.209781
   2 C :   -0.065835
   3 C :   -0.059020
   4 C :   -0.215133
   5 H :    0.014624
   6 C :   -0.039704
   7 H :    0.025578
   8 H :    0.030327
   9 C :   -0.039165
  10 H :    0.024578
  11 H :    0.026684
  12 C :   -0.062277
  13 H :    0.022968
  14 H :    0.033603
  15 H :    0.022910
  16 S :    0.370443
  17 C :   -0.160680
  18 C :   -0.057661
  19 C :   -0.059597
  20 C :   -0.175520
  21 H :    0.022422
  22 C :   -0.032944
  23 H :    0.036140
  24 H :    0.032510
  25 C :   -0.037865
  26 H :    0.021306
  27 H :    0.029886
  28 C :   -0.065335
  29 H :    0.019789
  30 H :    0.035094
  31 H :    0.014231
  32 H :    0.027109
  33 H :    0.015772

  Mayer bond orders larger than 0.100000
B(  0-S ,  1-C ) :   1.1565 B(  0-S ,  4-C ) :   1.1950 B(  1-C ,  2-C ) :   1.5608
B(  1-C , 32-H ) :   0.9832 B(  2-C ,  3-C ) :   1.2591 B(  2-C ,  6-C ) :   1.0219
B(  3-C ,  4-C ) :   1.5327 B(  3-C ,  5-H ) :   1.0137 B(  4-C , 20-C ) :   1.0141
B(  6-C ,  7-H ) :   0.9410 B(  6-C ,  8-H ) :   0.9397 B(  6-C ,  9-C ) :   1.0645
B(  9-C , 10-H ) :   0.9544 B(  9-C , 11-H ) :   0.9543 B(  9-C , 12-C ) :   1.0724
B( 12-C , 13-H ) :   0.9754 B( 12-C , 14-H ) :   0.9743 B( 12-C , 15-H ) :   0.9772
B( 16-S , 17-C ) :   1.1293 B( 16-S , 20-C ) :   1.1360 B( 17-C , 18-C ) :   1.6304
B( 17-C , 33-H ) :   0.9781 B( 18-C , 19-C ) :   1.2036 B( 18-C , 21-H ) :   0.9868
B( 19-C , 20-C ) :   1.6187 B( 19-C , 22-C ) :   1.0546 B( 22-C , 23-H ) :   0.9247
B( 22-C , 24-H ) :   0.9295 B( 22-C , 25-C ) :   1.0778 B( 25-C , 26-H ) :   0.9500
B( 25-C , 27-H ) :   0.9547 B( 25-C , 28-C ) :   1.0744 B( 28-C , 29-H ) :   0.9755
B( 28-C , 30-H ) :   0.9719 B( 28-C , 31-H ) :   0.9727

Dispersion correction           -0.013820289
FINAL SINGLE POINT ENERGY     -1339.865511037276

DIPOLE MOMENT
-------------
                                X             Y             Z
Electronic contribution:     16.22935      15.92144     -12.85916
Nuclear contribution   :    -16.59671     -16.35600      12.91675
                        -----------------------------------------
Total Dipole Moment    :     -0.36736      -0.43456       0.05759
                        -----------------------------------------
Magnitude (a.u.)       :      0.57194
Magnitude (Debye)      :      1.45375

Rotational constants in cm-1:     0.019408     0.007695     0.006375
Rotational constants in MHz :   581.847319   230.699059   191.112298

                             ****ORCA TERMINATED NORMALLY****
TOTAL RUN TIME: 0 days 0 hours 0 minutes 32 seconds 569 msec
