                         Program Version 4.2.1 -  RELEASE  -
|  1> ! wB97X-D3 SP def2-SVP
|  2> %pal
|  3> nprocs 16
|  4> end
|  5>
|  6> * xyz 0 1
|  7> S 	 -108.794 	 38.1409 	 128.967
|  8> C 	 -107.131 	 38.0596 	 129.558
|  9> C 	 -106.749 	 39.119 	 130.311
| 10> C 	 -107.857 	 39.982 	 130.468
| 11> C 	 -109.004 	 39.6619 	 129.77
| 12> H 	 -107.747 	 40.9146 	 130.933
| 13> C 	 -105.41 	 39.4294 	 130.875
| 14> H 	 -104.751 	 39.3883 	 129.979
| 15> H 	 -105.197 	 38.577 	 131.483
| 16> C 	 -105.218 	 40.648 	 131.674
| 17> H 	 -104.123 	 40.9507 	 131.651
| 18> H 	 -105.733 	 41.6249 	 131.286
| 19> C 	 -105.661 	 40.4048 	 133.147
| 20> H 	 -105.433 	 41.2923 	 133.797
| 21> H 	 -106.737 	 40.2751 	 133.194
| 22> H 	 -105.182 	 39.5631 	 133.662
| 23> S 	 -110.672 	 40.6723 	 127.75
| 24> C 	 -111.811 	 41.9355 	 128.13
| 25> C 	 -111.881 	 42.1355 	 129.491
| 26> C 	 -110.888 	 41.4315 	 130.247
| 27> C 	 -110.078 	 40.6474 	 129.481
| 28> H 	 -112.587 	 42.8549 	 129.952
| 29> C 	 -110.877 	 41.5374 	 131.77
| 30> H 	 -110.2 	 40.8815 	 132.182
| 31> H 	 -111.736 	 41.2296 	 132.196
| 32> C 	 -110.452 	 42.8723 	 132.295
| 33> H 	 -110.916 	 43.7576 	 131.77
| 34> H 	 -109.427 	 43.0658 	 132.102
| 35> C 	 -110.677 	 43.0367 	 133.828
| 36> H 	 -110.52 	 44.124 	 134.039
| 37> H 	 -109.943 	 42.5423 	 134.442
| 38> H 	 -111.714 	 42.7696 	 134.092
| 39> H 	 -106.393 	 37.2504 	 129.363
| 40> H 	 -112.331 	 42.5341 	 127.396
| 41> *
| 42>
| 43>                          ****END OF INPUT****

CARTESIAN COORDINATES (ANGSTROEM)
---------------------------------
  S    -108.794000   38.140900  128.967000
  C    -107.131000   38.059600  129.558000
  C    -106.749000   39.119000  130.311000
  C    -107.857000   39.982000  130.468000
  C    -109.004000   39.661900  129.770000
  H    -107.747000   40.914600  130.933000
  C    -105.410000   39.429400  130.875000
  H    -104.751000   39.388300  129.979000
  H    -105.197000   38.577000  131.483000
  C    -105.218000   40.648000  131.674000
  H    -104.123000   40.950700  131.651000
  H    -105.733000   41.624900  131.286000
  C    -105.661000   40.404800  133.147000
  H    -105.433000   41.292300  133.797000
  H    -106.737000   40.275100  133.194000
  H    -105.182000   39.563100  133.662000
  S    -110.672000   40.672300  127.750000
  C    -111.811000   41.935500  128.130000
  C    -111.881000   42.135500  129.491000
  C    -110.888000   41.431500  130.247000
  C    -110.078000   40.647400  129.481000
  H    -112.587000   42.854900  129.952000
  C    -110.877000   41.537400  131.770000
  H    -110.200000   40.881500  132.182000
  H    -111.736000   41.229600  132.196000
  C    -110.452000   42.872300  132.295000
  H    -110.916000   43.757600  131.770000
  H    -109.427000   43.065800  132.102000
  C    -110.677000   43.036700  133.828000
  H    -110.520000   44.124000  134.039000
  H    -109.943000   42.542300  134.442000
  H    -111.714000   42.769600  134.092000
  H    -106.393000   37.250400  129.363000
  H    -112.331000   42.534100  127.396000

 Total Charge           Charge          ....    0
 Multiplicity           Mult            ....    1
 Number of Electrons    NEL             ....  134
 Basis Dimension        Dim             ....  322

ORBITAL ENERGIES
----------------

  NO   OCC          E(Eh)            E(eV)
   0   2.0000     -88.969949     -2420.9954
   1   2.0000     -88.960878     -2420.7486
   2   2.0000     -10.333192      -281.1804
   3   2.0000     -10.329012      -281.0667
   4   2.0000     -10.317444      -280.7519
   5   2.0000     -10.311246      -280.5833
   6   2.0000     -10.303453      -280.3712
   7   2.0000     -10.302020      -280.3322
   8   2.0000     -10.294892      -280.1382
   9   2.0000     -10.293769      -280.1077
  10   2.0000     -10.291501      -280.0460
  11   2.0000     -10.285928      -279.8943
  12   2.0000     -10.284032      -279.8427
  13   2.0000     -10.283510      -279.8285
  14   2.0000     -10.282481      -279.8005
  15   2.0000     -10.274696      -279.5887
  16   2.0000      -8.084312      -219.9853
  17   2.0000      -8.075000      -219.7319
  18   2.0000      -6.042947      -164.4370
  19   2.0000      -6.038932      -164.3277
  20   2.0000      -6.034898      -164.2179
  21   2.0000      -6.033606      -164.1828
  22   2.0000      -6.029762      -164.0782
  23   2.0000      -6.025511      -163.9625
  24   2.0000      -1.006150       -27.3787
  25   2.0000      -0.983877       -26.7727
  26   2.0000      -0.924327       -25.1522
  27   2.0000      -0.914222       -24.8772
  28   2.0000      -0.867832       -23.6149
  29   2.0000      -0.850531       -23.1441
  30   2.0000      -0.840797       -22.8792
  31   2.0000      -0.813119       -22.1261
  32   2.0000      -0.787721       -21.4350
  33   2.0000      -0.779156       -21.2019
  34   2.0000      -0.710275       -19.3276
  35   2.0000      -0.701979       -19.1018
  36   2.0000      -0.693456       -18.8699
  37   2.0000      -0.660310       -17.9680
  38   2.0000      -0.633912       -17.2496
  39   2.0000      -0.628060       -17.0904
  40   2.0000      -0.603813       -16.4306
  41   2.0000      -0.571512       -15.5516
  42   2.0000      -0.566113       -15.4047
  43   2.0000      -0.558534       -15.1985
  44   2.0000      -0.533230       -14.5099
  45   2.0000      -0.526865       -14.3367
  46   2.0000      -0.521647       -14.1947
  47   2.0000      -0.510388       -13.8884
  48   2.0000      -0.504706       -13.7337
  49   2.0000      -0.493148       -13.4192
  50   2.0000      -0.490833       -13.3562
  51   2.0000      -0.483847       -13.1661
  52   2.0000      -0.470014       -12.7897
  53   2.0000      -0.469054       -12.7636
  54   2.0000      -0.454425       -12.3655
  55   2.0000      -0.448460       -12.2032
  56   2.0000      -0.444744       -12.1021
  57   2.0000      -0.442307       -12.0358
  58   2.0000      -0.441216       -12.0061
  59   2.0000      -0.432057       -11.7569
  60   2.0000      -0.416388       -11.3305
  61   2.0000      -0.412654       -11.2289
  62   2.0000      -0.411027       -11.1846
  63   2.0000      -0.351819        -9.5735
  64   2.0000      -0.332331        -9.0432
  65   2.0000      -0.329071        -8.9545
  66   2.0000      -0.287464        -7.8223
  67   0.0000       0.030204         0.8219
  68   0.0000       0.066403         1.8069
  69   0.0000       0.110553         3.0083
  70   0.0000       0.121010         3.2929
  71   0.0000       0.131066         3.5665

MULLIKEN ATOMIC CHARGES
-----------------------
   0 S :    0.121113
   1 C :   -0.157153
   2 C :   -0.102316
   3 C :    0.027563
   4 C :   -0.116490
   5 H :   -0.021996
   6 C :    0.127347
   7 H :    0.046952
   8 H :    0.028598
   9 C :   -0.127362
  10 H :    0.043026
  11 H :    0.052250
  12 C :   -0.076473
  13 H :    0.039335
  14 H :    0.035630
  15 H :    0.038651
  16 S :    0.075132
  17 C :   -0.086764
  18 C :   -0.033501
  19 C :   -0.055973
  20 C :   -0.147654
  21 H :    0.030266
  22 C :    0.198279
  23 H :   -0.015622
  24 H :   -0.008716
  25 C :   -0.112926
  26 H :    0.027235
  27 H :    0.011941
  28 C :   -0.053986
  29 H :    0.034072
  30 H :    0.035152
  31 H :    0.037392
  32 H :    0.045299
  33 H :    0.061701
Sum of atomic charges:    0.0000000

LOEWDIN ATOMIC CHARGES
----------------------
   0 S :    0.409443
   1 C :   -0.201691
   2 C :   -0.063942
   3 C :   -0.062655
   4 C :   -0.198995
   5 H :    0.015663
   6 C :   -0.038359
   7 H :    0.044195
   8 H :    0.036667
   9 C :   -0.054530
  10 H :    0.035556
  11 H :    0.036301
  12 C :   -0.071684
  13 H :    0.030950
  14 H :    0.022857
  15 H :    0.026321
  16 S :    0.363091
  17 C :   -0.180210
  18 C :   -0.073774
  19 C :   -0.054292
  20 C :   -0.159036
  21 H :    0.035321
  22 C :   -0.017689
  23 H :    0.022965
  24 H :    0.017485
  25 C :   -0.040471
  26 H :    0.024596
  27 H :    0.016738
  28 C :   -0.064951
  29 H :    0.032425
  30 H :    0.021363
  31 H :    0.025401
  32 H :    0.033426
  33 H :    0.031517

  Mayer bond orders larger than 0.100000
B(  0-S ,  1-C ) :   1.1247 B(  0-S ,  4-C ) :   1.1501 B(  1-C ,  2-C ) :   1.6385
B(  1-C , 32-H ) :   0.9613 B(  2-C ,  3-C ) :   1.2776 B(  2-C ,  6-C ) :   0.9873
B(  3-C ,  4-C ) :   1.5493 B(  3-C ,  5-H ) :   0.9872 B(  4-C , 20-C ) :   1.0361
B(  6-C ,  7-H ) :   0.9281 B(  6-C ,  8-H ) :   0.9264 B(  6-C ,  9-C ) :   1.0838
B(  9-C , 10-H ) :   0.9486 B(  9-C , 11-H ) :   0.9501 B(  9-C , 12-C ) :   1.0677
B( 12-C , 13-H ) :   0.9743 B( 12-C , 14-H ) :   0.9780 B( 12-C , 15-H ) :   0.9741
B( 16-S , 17-C ) :   1.1459 B( 16-S , 20-C ) :   1.1043 B( 17-C , 18-C ) :   1.6210
B( 17-C , 33-H ) :   0.9684 B( 18-C , 19-C ) :   1.2217 B( 18-C , 21-H ) :   0.9835
B( 19-C , 20-C ) :   1.6458 B( 19-C , 22-C ) :   1.0390 B( 22-C , 23-H ) :   0.9126
B( 22-C , 24-H ) :   0.9302 B( 22-C , 25-C ) :   1.0548 B( 25-C , 26-H ) :   0.9620
B( 25-C , 27-H ) :   0.9497 B( 25-C , 28-C ) :   1.0792 B( 28-C , 29-H ) :   0.9746
B( 28-C , 30-H ) :   0.9770 B( 28-C , 31-H ) :   0.9768

Dispersion correction           -0.014204425
FINAL SINGLE POINT ENERGY     -1339.865477498184

DIPOLE MOMENT
-------------
                                X             Y             Z
Electronic contribution:    -10.80046     -13.92700     -26.86186
Nuclear contribution   :     11.20168      14.33076      27.42914
                        -----------------------------------------
Total Dipole Moment    :      0.40122       0.40376       0.56727
                        -----------------------------------------
Magnitude (a.u.)       :      0.80362
Magnitude (Debye)      :      2.04263

Rotational constants in cm-1:     0.015348     0.010617     0.006856
Rotational constants in MHz :   460.135996   318.299472   205.529800

                             ****ORCA TERMINATED NORMALLY****
TOTAL RUN TIME: 0 days 0 hours 0 minutes 34 seconds 486 msec
