                         Program Version 4.2.1 -  RELEASE  -
|  1> ! wB97X-D3 SP def2-SVP
|  2> %pal
|  3> nprocs 16
|  4> end
|  5>
|  6> * xyz 0 1
|  7> S 	 9.42134 	 20.6168 	 38.8662
|  8> C 	 10.0941 	 19.0886 	 39.2293
|  9> C 	 10.1129 	 18.7472 	 40.5703
| 10> C 	 9.74003 	 19.8558 	 41.3795
| 11> C 	 9.35441 	 20.9727 	 40.634
| 12> H 	 9.64144 	 19.8692 	 42.4656
| 13> C 	 10.51 	 17.4121 	 41.2292
| 14> H 	 11.1647 	 16.9751 	 40.4527
| 15> H 	 9.62362 	 16.7704 	 41.2804
| 16> C 	 11.2853 	 17.3157 	 42.6105
| 17> H 	 10.9161 	 17.8184 	 43.4932
| 18> H 	 11.328 	 16.2783 	 42.8475
| 19> C 	 12.712 	 17.8395 	 42.4651
| 20> H 	 12.6422 	 18.8111 	 42.1084
| 21> H 	 13.3626 	 17.884 	 43.3607
| 22> H 	 13.328 	 17.445 	 41.6922
| 23> S 	 7.27704 	 22.6785 	 40.4601
| 24> C 	 7.27371 	 24.2116 	 41.2587
| 25> C 	 8.32599 	 24.2046 	 42.1348
| 26> C 	 9.20369 	 23.1206 	 42.0714
| 27> C 	 8.77952 	 22.1877 	 41.1286
| 28> H 	 8.39116 	 25.079 	 42.7658
| 29> C 	 10.5062 	 23.0368 	 42.8631
| 30> H 	 10.471 	 22.33 	 43.7071
| 31> H 	 10.7836 	 24.0701 	 43.2405
| 32> C 	 11.7868 	 22.9041 	 41.9874
| 33> H 	 11.7534 	 23.6429 	 41.1753
| 34> H 	 11.8558 	 21.9342 	 41.5392
| 35> C 	 13.0929 	 22.9965 	 42.8363
| 36> H 	 13.0405 	 23.8837 	 43.4001
| 37> H 	 13.989 	 23.0341 	 42.1716
| 38> H 	 13.1234 	 22.2296 	 43.6578
| 39> H 	 10.4968 	 18.4069 	 38.5083
| 40> H 	 6.6697 	 25.0884 	 41.0733
| 41> *
| 42>
| 43>                          ****END OF INPUT****

CARTESIAN COORDINATES (ANGSTROEM)
---------------------------------
  S      9.421340   20.616800   38.866200
  C     10.094100   19.088600   39.229300
  C     10.112900   18.747200   40.570300
  C      9.740030   19.855800   41.379500
  C      9.354410   20.972700   40.634000
  H      9.641440   19.869200   42.465600
  C     10.510000   17.412100   41.229200
  H     11.164700   16.975100   40.452700
  H      9.623620   16.770400   41.280400
  C     11.285300   17.315700   42.610500
  H     10.916100   17.818400   43.493200
  H     11.328000   16.278300   42.847500
  C     12.712000   17.839500   42.465100
  H     12.642200   18.811100   42.108400
  H     13.362600   17.884000   43.360700
  H     13.328000   17.445000   41.692200
  S      7.277040   22.678500   40.460100
  C      7.273710   24.211600   41.258700
  C      8.325990   24.204600   42.134800
  C      9.203690   23.120600   42.071400
  C      8.779520   22.187700   41.128600
  H      8.391160   25.079000   42.765800
  C     10.506200   23.036800   42.863100
  H     10.471000   22.330000   43.707100
  H     10.783600   24.070100   43.240500
  C     11.786800   22.904100   41.987400
  H     11.753400   23.642900   41.175300
  H     11.855800   21.934200   41.539200
  C     13.092900   22.996500   42.836300
  H     13.040500   23.883700   43.400100
  H     13.989000   23.034100   42.171600
  H     13.123400   22.229600   43.657800
  H     10.496800   18.406900   38.508300
  H      6.669700   25.088400   41.073300

 Total Charge           Charge          ....    0
 Multiplicity           Mult            ....    1
 Number of Electrons    NEL             ....  134
 Basis Dimension        Dim             ....  322

ORBITAL ENERGIES
----------------

  NO   OCC          E(Eh)            E(eV)
   0   2.0000     -88.971982     -2421.0507
   1   2.0000     -88.962057     -2420.7806
   2   2.0000     -10.331580      -281.1366
   3   2.0000     -10.321423      -280.8602
   4   2.0000     -10.312976      -280.6304
   5   2.0000     -10.309933      -280.5475
   6   2.0000     -10.303875      -280.3827
   7   2.0000     -10.303768      -280.3798
   8   2.0000     -10.299269      -280.2573
   9   2.0000     -10.297465      -280.2083
  10   2.0000     -10.296977      -280.1950
  11   2.0000     -10.293323      -280.0956
  12   2.0000     -10.285993      -279.8961
  13   2.0000     -10.281021      -279.7608
  14   2.0000     -10.278645      -279.6961
  15   2.0000     -10.267651      -279.3970
  16   2.0000      -8.086308      -220.0396
  17   2.0000      -8.077789      -219.8078
  18   2.0000      -6.044754      -164.4861
  19   2.0000      -6.040970      -164.3831
  20   2.0000      -6.037058      -164.2767
  21   2.0000      -6.036179      -164.2528
  22   2.0000      -6.032003      -164.1391
  23   2.0000      -6.028751      -164.0507
  24   2.0000      -1.012252       -27.5448
  25   2.0000      -0.987692       -26.8765
  26   2.0000      -0.907655       -24.6986
  27   2.0000      -0.902901       -24.5692
  28   2.0000      -0.874698       -23.8018
  29   2.0000      -0.853626       -23.2283
  30   2.0000      -0.846096       -23.0234
  31   2.0000      -0.815131       -22.1808
  32   2.0000      -0.780565       -21.2403
  33   2.0000      -0.769132       -20.9291
  34   2.0000      -0.716699       -19.5024
  35   2.0000      -0.704138       -19.1606
  36   2.0000      -0.688768       -18.7423
  37   2.0000      -0.660784       -17.9809
  38   2.0000      -0.639421       -17.3995
  39   2.0000      -0.622825       -16.9479
  40   2.0000      -0.593879       -16.1603
  41   2.0000      -0.567776       -15.4500
  42   2.0000      -0.564961       -15.3734
  43   2.0000      -0.552448       -15.0329
  44   2.0000      -0.537770       -14.6335
  45   2.0000      -0.520390       -14.1605
  46   2.0000      -0.518710       -14.1148
  47   2.0000      -0.517357       -14.0780
  48   2.0000      -0.503086       -13.6897
  49   2.0000      -0.495372       -13.4797
  50   2.0000      -0.488270       -13.2865
  51   2.0000      -0.486644       -13.2423
  52   2.0000      -0.469004       -12.7622
  53   2.0000      -0.465002       -12.6533
  54   2.0000      -0.453147       -12.3308
  55   2.0000      -0.446805       -12.1582
  56   2.0000      -0.441715       -12.0197
  57   2.0000      -0.436069       -11.8660
  58   2.0000      -0.434758       -11.8304
  59   2.0000      -0.429031       -11.6745
  60   2.0000      -0.421669       -11.4742
  61   2.0000      -0.420427       -11.4404
  62   2.0000      -0.403778       -10.9874
  63   2.0000      -0.349255        -9.5037
  64   2.0000      -0.332409        -9.0453
  65   2.0000      -0.331012        -9.0073
  66   2.0000      -0.287557        -7.8248
  67   0.0000       0.025114         0.6834
  68   0.0000       0.068379         1.8607
  69   0.0000       0.115256         3.1363
  70   0.0000       0.122259         3.3268
  71   0.0000       0.133632         3.6363

MULLIKEN ATOMIC CHARGES
-----------------------
   0 S :    0.132574
   1 C :   -0.107948
   2 C :   -0.092260
   3 C :    0.030776
   4 C :   -0.163586
   5 H :    0.020195
   6 C :    0.038437
   7 H :    0.022855
   8 H :    0.053325
   9 C :   -0.026480
  10 H :    0.033233
  11 H :    0.026862
  12 C :   -0.047007
  13 H :    0.007251
  14 H :    0.037477
  15 H :    0.009748
  16 S :    0.108115
  17 C :   -0.100669
  18 C :   -0.052639
  19 C :    0.017872
  20 C :   -0.168614
  21 H :    0.010521
  22 C :    0.020717
  23 H :    0.043880
  24 H :    0.023163
  25 C :   -0.093039
  26 H :    0.037131
  27 H :    0.040060
  28 C :   -0.041068
  29 H :    0.003703
  30 H :    0.050443
  31 H :    0.031268
  32 H :    0.035394
  33 H :    0.058311
Sum of atomic charges:   -0.0000000

LOEWDIN ATOMIC CHARGES
----------------------
   0 S :    0.410820
   1 C :   -0.206369
   2 C :   -0.069040
   3 C :   -0.051697
   4 C :   -0.180975
   5 H :    0.034775
   6 C :   -0.029712
   7 H :    0.034607
   8 H :    0.037064
   9 C :   -0.032598
  10 H :    0.025831
  11 H :    0.024347
  12 C :   -0.072038
  13 H :    0.017756
  14 H :    0.029675
  15 H :    0.019811
  16 S :    0.429421
  17 C :   -0.202751
  18 C :   -0.073068
  19 C :   -0.068889
  20 C :   -0.207271
  21 H :    0.029334
  22 C :   -0.035546
  23 H :    0.029512
  24 H :    0.036944
  25 C :   -0.038850
  26 H :    0.027057
  27 H :    0.016045
  28 C :   -0.067612
  29 H :    0.010614
  30 H :    0.034118
  31 H :    0.029799
  32 H :    0.023981
  33 H :    0.034908

  Mayer bond orders larger than 0.100000
B(  0-S ,  1-C ) :   1.1502 B(  0-S ,  4-C ) :   1.1344 B(  1-C ,  2-C ) :   1.6149
B(  1-C , 32-H ) :   0.9614 B(  2-C ,  3-C ) :   1.2490 B(  2-C ,  6-C ) :   1.0021
B(  3-C ,  4-C ) :   1.5615 B(  3-C ,  5-H ) :   0.9906 B(  4-C , 20-C ) :   1.0746
B(  6-C ,  7-H ) :   0.9427 B(  6-C ,  8-H ) :   0.9394 B(  6-C ,  9-C ) :   1.0671
B(  9-C , 10-H ) :   0.9569 B(  9-C , 11-H ) :   0.9534 B(  9-C , 12-C ) :   1.0684
B( 12-C , 13-H ) :   0.9734 B( 12-C , 14-H ) :   0.9756 B( 12-C , 15-H ) :   0.9702
B( 16-S , 17-C ) :   1.1530 B( 16-S , 20-C ) :   1.1747 B( 17-C , 18-C ) :   1.5849
B( 17-C , 20-C ) :   0.1047 B( 17-C , 33-H ) :   0.9698 B( 18-C , 19-C ) :   1.2851
B( 18-C , 21-H ) :   0.9914 B( 19-C , 20-C ) :   1.5299 B( 19-C , 22-C ) :   1.0356
B( 22-C , 23-H ) :   0.9367 B( 22-C , 24-H ) :   0.9467 B( 22-C , 25-C ) :   1.0491
B( 25-C , 26-H ) :   0.9585 B( 25-C , 27-H ) :   0.9516 B( 25-C , 28-C ) :   1.0821
B( 28-C , 29-H ) :   0.9731 B( 28-C , 30-H ) :   0.9738 B( 28-C , 31-H ) :   0.9720

Dispersion correction           -0.014963449
FINAL SINGLE POINT ENERGY     -1339.866983339773

DIPOLE MOMENT
-------------
                                X             Y             Z
Electronic contribution:    -24.24072       8.17967     -16.92581
Nuclear contribution   :     24.62246      -8.35632      17.28575
                        -----------------------------------------
Total Dipole Moment    :      0.38174      -0.17664       0.35994
                        -----------------------------------------
Magnitude (a.u.)       :      0.55361
Magnitude (Debye)      :      1.40717

Rotational constants in cm-1:     0.017889     0.009883     0.007421
Rotational constants in MHz :   536.303644   296.292194   222.479150

                             ****ORCA TERMINATED NORMALLY****
TOTAL RUN TIME: 0 days 0 hours 0 minutes 35 seconds 91 msec
