                         Program Version 4.2.1 -  RELEASE  -
|  1> ! wB97X-D3 SP def2-SVP
|  2> %pal
|  3> nprocs 16
|  4> end
|  5>
|  6> * xyz 0 1
|  7> S 	 -1.68572 	 -18.325 	 83.5366
|  8> C 	 -0.0481013 	 -18.1864 	 83.0649
|  9> C 	 0.562069 	 -17.2093 	 83.7711
| 10> C 	 -0.304718 	 -16.6025 	 84.7662
| 11> C 	 -1.56469 	 -17.1489 	 84.808
| 12> H 	 -0.098016 	 -15.8746 	 85.5511
| 13> C 	 1.96972 	 -16.7367 	 83.5292
| 14> H 	 2.1351 	 -15.7559 	 83.9068
| 15> H 	 2.1987 	 -16.7058 	 82.4601
| 16> C 	 3.0302 	 -17.7441 	 84.1272
| 17> H 	 2.67406 	 -17.941 	 85.1316
| 18> H 	 2.94724 	 -18.7217 	 83.7184
| 19> C 	 4.48854 	 -17.3331 	 84.0491
| 20> H 	 4.74118 	 -16.3982 	 84.5496
| 21> H 	 5.04783 	 -18.2049 	 84.4758
| 22> H 	 4.79026 	 -17.1258 	 83.003
| 23> S 	 -2.8849 	 -18.3313 	 86.7698
| 24> C 	 -4.08438 	 -17.5062 	 87.6978
| 25> C 	 -4.17277 	 -16.187 	 87.3935
| 26> C 	 -3.29424 	 -15.8789 	 86.3224
| 27> C 	 -2.55489 	 -16.9304 	 85.8576
| 28> H 	 -4.85708 	 -15.5762 	 87.8958
| 29> C 	 -3.12966 	 -14.431 	 85.8212
| 30> H 	 -2.10711 	 -14.1573 	 85.5925
| 31> H 	 -3.43297 	 -13.8003 	 86.6847
| 32> C 	 -3.92387 	 -14.1146 	 84.5372
| 33> H 	 -4.98163 	 -14.3088 	 84.7848
| 34> H 	 -3.51311 	 -14.7685 	 83.7499
| 35> C 	 -3.83067 	 -12.5923 	 84.2006
| 36> H 	 -4.40452 	 -12.0505 	 84.9592
| 37> H 	 -4.39543 	 -12.4595 	 83.2139
| 38> H 	 -2.84078 	 -12.1518 	 83.9886
| 39> H 	 0.392355 	 -18.7355 	 82.2705
| 40> H 	 -4.51861 	 -17.9742 	 88.5837
| 41> *
| 42>
| 43>                          ****END OF INPUT****

CARTESIAN COORDINATES (ANGSTROEM)
---------------------------------
  S     -1.685720  -18.325000   83.536600
  C     -0.048101  -18.186400   83.064900
  C      0.562069  -17.209300   83.771100
  C     -0.304718  -16.602500   84.766200
  C     -1.564690  -17.148900   84.808000
  H     -0.098016  -15.874600   85.551100
  C      1.969720  -16.736700   83.529200
  H      2.135100  -15.755900   83.906800
  H      2.198700  -16.705800   82.460100
  C      3.030200  -17.744100   84.127200
  H      2.674060  -17.941000   85.131600
  H      2.947240  -18.721700   83.718400
  C      4.488540  -17.333100   84.049100
  H      4.741180  -16.398200   84.549600
  H      5.047830  -18.204900   84.475800
  H      4.790260  -17.125800   83.003000
  S     -2.884900  -18.331300   86.769800
  C     -4.084380  -17.506200   87.697800
  C     -4.172770  -16.187000   87.393500
  C     -3.294240  -15.878900   86.322400
  C     -2.554890  -16.930400   85.857600
  H     -4.857080  -15.576200   87.895800
  C     -3.129660  -14.431000   85.821200
  H     -2.107110  -14.157300   85.592500
  H     -3.432970  -13.800300   86.684700
  C     -3.923870  -14.114600   84.537200
  H     -4.981630  -14.308800   84.784800
  H     -3.513110  -14.768500   83.749900
  C     -3.830670  -12.592300   84.200600
  H     -4.404520  -12.050500   84.959200
  H     -4.395430  -12.459500   83.213900
  H     -2.840780  -12.151800   83.988600
  H      0.392355  -18.735500   82.270500
  H     -4.518610  -17.974200   88.583700

 Total Charge           Charge          ....    0
 Multiplicity           Mult            ....    1
 Number of Electrons    NEL             ....  134
 Basis Dimension        Dim             ....  322

ORBITAL ENERGIES
----------------

  NO   OCC          E(Eh)            E(eV)
   0   2.0000     -88.963173     -2420.8110
   1   2.0000     -88.961097     -2420.7545
   2   2.0000     -10.326861      -281.0082
   3   2.0000     -10.319992      -280.8213
   4   2.0000     -10.312251      -280.6106
   5   2.0000     -10.307697      -280.4867
   6   2.0000     -10.300572      -280.2928
   7   2.0000     -10.299697      -280.2690
   8   2.0000     -10.293913      -280.1116
   9   2.0000     -10.289108      -279.9809
  10   2.0000     -10.288807      -279.9727
  11   2.0000     -10.288604      -279.9671
  12   2.0000     -10.288057      -279.9523
  13   2.0000     -10.284576      -279.8575
  14   2.0000     -10.282771      -279.8084
  15   2.0000     -10.281357      -279.7699
  16   2.0000      -8.078978      -219.8402
  17   2.0000      -8.077573      -219.8019
  18   2.0000      -6.037479      -164.2882
  19   2.0000      -6.035901      -164.2452
  20   2.0000      -6.033171      -164.1709
  21   2.0000      -6.031708      -164.1311
  22   2.0000      -6.029828      -164.0800
  23   2.0000      -6.028527      -164.0445
  24   2.0000      -1.017615       -27.6907
  25   2.0000      -0.995215       -27.0812
  26   2.0000      -0.909399       -24.7460
  27   2.0000      -0.902730       -24.5645
  28   2.0000      -0.877313       -23.8729
  29   2.0000      -0.848814       -23.0974
  30   2.0000      -0.846137       -23.0246
  31   2.0000      -0.820489       -22.3266
  32   2.0000      -0.778329       -21.1794
  33   2.0000      -0.768498       -20.9119
  34   2.0000      -0.704427       -19.1684
  35   2.0000      -0.702018       -19.1029
  36   2.0000      -0.686462       -18.6796
  37   2.0000      -0.670286       -18.2394
  38   2.0000      -0.650110       -17.6904
  39   2.0000      -0.616388       -16.7728
  40   2.0000      -0.596278       -16.2255
  41   2.0000      -0.576368       -15.6838
  42   2.0000      -0.566463       -15.4142
  43   2.0000      -0.555181       -15.1072
  44   2.0000      -0.529117       -14.3980
  45   2.0000      -0.521434       -14.1890
  46   2.0000      -0.519910       -14.1475
  47   2.0000      -0.510575       -13.8935
  48   2.0000      -0.501446       -13.6450
  49   2.0000      -0.498135       -13.5549
  50   2.0000      -0.493454       -13.4276
  51   2.0000      -0.483154       -13.1473
  52   2.0000      -0.476605       -12.9691
  53   2.0000      -0.467571       -12.7233
  54   2.0000      -0.460799       -12.5390
  55   2.0000      -0.449183       -12.2229
  56   2.0000      -0.446754       -12.1568
  57   2.0000      -0.432681       -11.7738
  58   2.0000      -0.427985       -11.6461
  59   2.0000      -0.423698       -11.5294
  60   2.0000      -0.419933       -11.4270
  61   2.0000      -0.413417       -11.2497
  62   2.0000      -0.409652       -11.1472
  63   2.0000      -0.349044        -9.4980
  64   2.0000      -0.331268        -9.0143
  65   2.0000      -0.324374        -8.8267
  66   2.0000      -0.302082        -8.2201
  67   0.0000       0.041480         1.1287
  68   0.0000       0.069403         1.8885
  69   0.0000       0.118156         3.2152
  70   0.0000       0.123805         3.3689
  71   0.0000       0.140359         3.8194

MULLIKEN ATOMIC CHARGES
-----------------------
   0 S :    0.119154
   1 C :   -0.107313
   2 C :   -0.082833
   3 C :    0.040639
   4 C :   -0.161631
   5 H :    0.018708
   6 C :    0.091321
   7 H :    0.012260
   8 H :    0.022721
   9 C :   -0.085363
  10 H :    0.020223
  11 H :    0.013890
  12 C :   -0.042753
  13 H :    0.031142
  14 H :    0.049440
  15 H :    0.028349
  16 S :    0.112865
  17 C :   -0.093854
  18 C :   -0.018424
  19 C :   -0.016731
  20 C :   -0.175863
  21 H :    0.000015
  22 C :    0.045707
  23 H :    0.014737
  24 H :    0.017997
  25 C :   -0.080628
  26 H :    0.031781
  27 H :    0.048936
  28 C :   -0.071190
  29 H :    0.036139
  30 H :    0.039378
  31 H :    0.042068
  32 H :    0.038770
  33 H :    0.060342
Sum of atomic charges:    0.0000000

LOEWDIN ATOMIC CHARGES
----------------------
   0 S :    0.423787
   1 C :   -0.198103
   2 C :   -0.066357
   3 C :   -0.063622
   4 C :   -0.208300
   5 H :    0.033756
   6 C :   -0.027027
   7 H :    0.023809
   8 H :    0.028817
   9 C :   -0.042672
  10 H :    0.021761
  11 H :    0.018539
  12 C :   -0.069687
  13 H :    0.022699
  14 H :    0.037354
  15 H :    0.026229
  16 S :    0.438707
  17 C :   -0.186999
  18 C :   -0.067241
  19 C :   -0.056998
  20 C :   -0.214068
  21 H :    0.026379
  22 C :   -0.034516
  23 H :    0.022722
  24 H :    0.028187
  25 C :   -0.038084
  26 H :    0.026615
  27 H :    0.029117
  28 C :   -0.075180
  29 H :    0.025391
  30 H :    0.033758
  31 H :    0.025176
  32 H :    0.026357
  33 H :    0.029695

  Mayer bond orders larger than 0.100000
B(  0-S ,  1-C ) :   1.1412 B(  0-S ,  4-C ) :   1.1559 B(  1-C ,  2-C ) :   1.6101
B(  1-C , 32-H ) :   0.9765 B(  2-C ,  3-C ) :   1.2223 B(  2-C ,  6-C ) :   1.0364
B(  3-C ,  4-C ) :   1.5911 B(  3-C ,  5-H ) :   0.9921 B(  4-C , 20-C ) :   1.0047
B(  6-C ,  7-H ) :   0.9439 B(  6-C ,  8-H ) :   0.9399 B(  6-C ,  9-C ) :   1.0495
B(  9-C , 10-H ) :   0.9553 B(  9-C , 11-H ) :   0.9563 B(  9-C , 12-C ) :   1.0833
B( 12-C , 13-H ) :   0.9754 B( 12-C , 14-H ) :   0.9725 B( 12-C , 15-H ) :   0.9718
B( 16-S , 17-C ) :   1.1759 B( 16-S , 20-C ) :   1.1631 B( 17-C , 18-C ) :   1.5973
B( 17-C , 33-H ) :   0.9635 B( 18-C , 19-C ) :   1.2412 B( 18-C , 21-H ) :   1.0071
B( 19-C , 20-C ) :   1.6142 B( 19-C , 22-C ) :   1.0304 B( 22-C , 23-H ) :   0.9419
B( 22-C , 24-H ) :   0.9392 B( 22-C , 25-C ) :   1.0624 B( 25-C , 26-H ) :   0.9553
B( 25-C , 27-H ) :   0.9578 B( 25-C , 28-C ) :   1.0779 B( 28-C , 29-H ) :   0.9750
B( 28-C , 30-H ) :   0.9748 B( 28-C , 31-H ) :   0.9754

Dispersion correction           -0.013713993
FINAL SINGLE POINT ENERGY     -1339.886833973730

DIPOLE MOMENT
-------------
                                X             Y             Z
Electronic contribution:    -14.40494     -18.09108       5.50999
Nuclear contribution   :     14.68934      18.48558      -5.39542
                        -----------------------------------------
Total Dipole Moment    :      0.28439       0.39450       0.11457
                        -----------------------------------------
Magnitude (a.u.)       :      0.49963
Magnitude (Debye)      :      1.26997

Rotational constants in cm-1:     0.018923     0.007669     0.006530
Rotational constants in MHz :   567.305144   229.908401   195.754393

                             ****ORCA TERMINATED NORMALLY****
TOTAL RUN TIME: 0 days 0 hours 0 minutes 29 seconds 497 msec
