                         Program Version 4.2.1 -  RELEASE  -
|  1> ! wB97X-D3 SP def2-SVP
|  2> %pal
|  3> nprocs 16
|  4> end
|  5>
|  6> * xyz 0 1
|  7> S 	 11.2425 	 -5.31643 	 92.1969
|  8> C 	 10.1147 	 -5.87363 	 93.4489
|  9> C 	 9.86469 	 -7.19784 	 93.3016
| 10> C 	 10.445 	 -7.74078 	 92.1144
| 11> C 	 11.18 	 -6.82725 	 91.3766
| 12> H 	 10.4343 	 -8.79963 	 91.9236
| 13> C 	 8.89658 	 -7.99956 	 94.1716
| 14> H 	 9.47266 	 -8.3938 	 95.065
| 15> H 	 8.59181 	 -8.98287 	 93.6648
| 16> C 	 7.66446 	 -7.20739 	 94.713
| 17> H 	 7.9408 	 -6.39955 	 95.3072
| 18> H 	 7.08482 	 -6.64213 	 93.9946
| 19> C 	 6.64089 	 -8.12289 	 95.5324
| 20> H 	 7.17119 	 -8.72903 	 96.2342
| 21> H 	 5.96019 	 -7.57712 	 96.1254
| 22> H 	 6.11067 	 -8.72383 	 94.8383
| 23> S 	 13.6192 	 -6.47992 	 90.1871
| 24> C 	 14.1946 	 -7.61614 	 88.9931
| 25> C 	 13.1665 	 -8.27643 	 88.5057
| 26> C 	 11.887 	 -8.08869 	 89.1365
| 27> C 	 12.0045 	 -7.11351 	 90.1754
| 28> H 	 13.2683 	 -8.95591 	 87.6221
| 29> C 	 10.7234 	 -8.90811 	 88.5903
| 30> H 	 10.4725 	 -9.56088 	 89.4693
| 31> H 	 10.9844 	 -9.59407 	 87.7688
| 32> C 	 9.51899 	 -8.08287 	 88.2248
| 33> H 	 9.70904 	 -7.60165 	 87.226
| 34> H 	 9.34495 	 -7.25498 	 88.9008
| 35> C 	 8.23587 	 -8.96947 	 88.151
| 36> H 	 7.34189 	 -8.38737 	 87.8605
| 37> H 	 7.9264 	 -9.19139 	 89.15
| 38> H 	 8.31778 	 -9.855 	 87.4942
| 39> H 	 9.6801 	 -5.28774 	 94.2495
| 40> H 	 15.2483 	 -7.89312 	 88.8352
| 41> *
| 42>
| 43>                          ****END OF INPUT****

CARTESIAN COORDINATES (ANGSTROEM)
---------------------------------
  S     11.242500   -5.316430   92.196900
  C     10.114700   -5.873630   93.448900
  C      9.864690   -7.197840   93.301600
  C     10.445000   -7.740780   92.114400
  C     11.180000   -6.827250   91.376600
  H     10.434300   -8.799630   91.923600
  C      8.896580   -7.999560   94.171600
  H      9.472660   -8.393800   95.065000
  H      8.591810   -8.982870   93.664800
  C      7.664460   -7.207390   94.713000
  H      7.940800   -6.399550   95.307200
  H      7.084820   -6.642130   93.994600
  C      6.640890   -8.122890   95.532400
  H      7.171190   -8.729030   96.234200
  H      5.960190   -7.577120   96.125400
  H      6.110670   -8.723830   94.838300
  S     13.619200   -6.479920   90.187100
  C     14.194600   -7.616140   88.993100
  C     13.166500   -8.276430   88.505700
  C     11.887000   -8.088690   89.136500
  C     12.004500   -7.113510   90.175400
  H     13.268300   -8.955910   87.622100
  C     10.723400   -8.908110   88.590300
  H     10.472500   -9.560880   89.469300
  H     10.984400   -9.594070   87.768800
  C      9.518990   -8.082870   88.224800
  H      9.709040   -7.601650   87.226000
  H      9.344950   -7.254980   88.900800
  C      8.235870   -8.969470   88.151000
  H      7.341890   -8.387370   87.860500
  H      7.926400   -9.191390   89.150000
  H      8.317780   -9.855000   87.494200
  H      9.680100   -5.287740   94.249500
  H     15.248300   -7.893120   88.835200

 Total Charge           Charge          ....    0
 Multiplicity           Mult            ....    1
 Number of Electrons    NEL             ....  134
 Basis Dimension        Dim             ....  322

ORBITAL ENERGIES
----------------

  NO   OCC          E(Eh)            E(eV)
   0   2.0000     -88.966229     -2420.8942
   1   2.0000     -88.962325     -2420.7879
   2   2.0000     -10.334691      -281.2212
   3   2.0000     -10.334348      -281.2119
   4   2.0000     -10.312400      -280.6147
   5   2.0000     -10.311769      -280.5975
   6   2.0000     -10.309572      -280.5377
   7   2.0000     -10.307961      -280.4939
   8   2.0000     -10.299008      -280.2502
   9   2.0000     -10.297291      -280.2035
  10   2.0000     -10.291832      -280.0550
  11   2.0000     -10.289220      -279.9839
  12   2.0000     -10.289057      -279.9795
  13   2.0000     -10.286190      -279.9015
  14   2.0000     -10.278187      -279.6837
  15   2.0000     -10.275127      -279.6004
  16   2.0000      -8.081184      -219.9002
  17   2.0000      -8.077925      -219.8115
  18   2.0000      -6.039778      -164.3507
  19   2.0000      -6.036576      -164.2636
  20   2.0000      -6.035733      -164.2406
  21   2.0000      -6.032250      -164.1459
  22   2.0000      -6.031759      -164.1325
  23   2.0000      -6.028517      -164.0443
  24   2.0000      -1.010069       -27.4854
  25   2.0000      -0.988952       -26.9107
  26   2.0000      -0.909570       -24.7507
  27   2.0000      -0.905839       -24.6491
  28   2.0000      -0.869622       -23.6636
  29   2.0000      -0.847813       -23.0702
  30   2.0000      -0.843756       -22.9598
  31   2.0000      -0.816632       -22.2217
  32   2.0000      -0.780674       -21.2432
  33   2.0000      -0.771714       -20.9994
  34   2.0000      -0.718698       -19.5568
  35   2.0000      -0.706752       -19.2317
  36   2.0000      -0.688533       -18.7359
  37   2.0000      -0.658508       -17.9189
  38   2.0000      -0.633802       -17.2466
  39   2.0000      -0.619504       -16.8576
  40   2.0000      -0.597950       -16.2711
  41   2.0000      -0.569583       -15.4991
  42   2.0000      -0.564765       -15.3680
  43   2.0000      -0.556493       -15.1429
  44   2.0000      -0.522992       -14.2313
  45   2.0000      -0.520648       -14.1675
  46   2.0000      -0.516511       -14.0550
  47   2.0000      -0.511281       -13.9127
  48   2.0000      -0.506212       -13.7747
  49   2.0000      -0.499146       -13.5824
  50   2.0000      -0.498058       -13.5529
  51   2.0000      -0.484602       -13.1867
  52   2.0000      -0.477803       -13.0017
  53   2.0000      -0.464673       -12.6444
  54   2.0000      -0.454486       -12.3672
  55   2.0000      -0.446741       -12.1564
  56   2.0000      -0.442946       -12.0532
  57   2.0000      -0.441610       -12.0168
  58   2.0000      -0.432252       -11.7622
  59   2.0000      -0.424334       -11.5467
  60   2.0000      -0.420028       -11.4295
  61   2.0000      -0.416732       -11.3399
  62   2.0000      -0.411709       -11.2032
  63   2.0000      -0.358586        -9.7576
  64   2.0000      -0.331801        -9.0288
  65   2.0000      -0.324727        -8.8363
  66   2.0000      -0.287155        -7.8139
  67   0.0000       0.024736         0.6731
  68   0.0000       0.073367         1.9964
  69   0.0000       0.101805         2.7702
  70   0.0000       0.126118         3.4318
  71   0.0000       0.133166         3.6236

MULLIKEN ATOMIC CHARGES
-----------------------
   0 S :    0.100426
   1 C :   -0.131812
   2 C :   -0.059685
   3 C :   -0.001681
   4 C :   -0.103794
   5 H :    0.009679
   6 C :    0.030791
   7 H :    0.047796
   8 H :    0.035694
   9 C :   -0.079769
  10 H :    0.009877
  11 H :    0.026521
  12 C :   -0.016502
  13 H :    0.018745
  14 H :    0.020861
  15 H :    0.030924
  16 S :    0.087062
  17 C :   -0.095040
  18 C :   -0.045906
  19 C :   -0.058349
  20 C :   -0.130270
  21 H :    0.029889
  22 C :    0.062634
  23 H :    0.032476
  24 H :    0.029680
  25 C :   -0.081677
  26 H :    0.035150
  27 H :    0.041372
  28 C :   -0.052934
  29 H :    0.027351
  30 H :    0.021102
  31 H :    0.042002
  32 H :    0.044042
  33 H :    0.073344
Sum of atomic charges:   -0.0000000

LOEWDIN ATOMIC CHARGES
----------------------
   0 S :    0.403772
   1 C :   -0.192709
   2 C :   -0.065636
   3 C :   -0.071502
   4 C :   -0.193869
   5 H :    0.027906
   6 C :   -0.036575
   7 H :    0.041214
   8 H :    0.035478
   9 C :   -0.038113
  10 H :    0.011964
  11 H :    0.024595
  12 C :   -0.051022
  13 H :    0.020474
  14 H :    0.021057
  15 H :    0.021186
  16 S :    0.408239
  17 C :   -0.191541
  18 C :   -0.082098
  19 C :   -0.052011
  20 C :   -0.203771
  21 H :    0.036912
  22 C :   -0.036128
  23 H :    0.036128
  24 H :    0.033402
  25 C :   -0.041443
  26 H :    0.028236
  27 H :    0.026996
  28 C :   -0.070614
  29 H :    0.029218
  30 H :    0.021134
  31 H :    0.026919
  32 H :    0.029314
  33 H :    0.042890

  Mayer bond orders larger than 0.100000
B(  0-S ,  1-C ) :   1.1152 B(  0-S ,  4-C ) :   1.1600 B(  1-C ,  2-C ) :   1.6376
B(  1-C , 32-H ) :   0.9683 B(  2-C ,  3-C ) :   1.2558 B(  2-C ,  6-C ) :   1.0115
B(  3-C ,  4-C ) :   1.5603 B(  3-C ,  5-H ) :   0.9950 B(  4-C , 20-C ) :   1.0260
B(  6-C ,  7-H ) :   0.9272 B(  6-C ,  8-H ) :   0.9562 B(  6-C ,  9-C ) :   1.0550
B(  9-C , 10-H ) :   0.9496 B(  9-C , 11-H ) :   0.9621 B(  9-C , 12-C ) :   1.0795
B( 12-C , 13-H ) :   0.9775 B( 12-C , 14-H ) :   0.9759 B( 12-C , 15-H ) :   0.9809
B( 16-S , 17-C ) :   1.1435 B( 16-S , 20-C ) :   1.1483 B( 17-C , 18-C ) :   1.6193
B( 17-C , 33-H ) :   0.9629 B( 18-C , 19-C ) :   1.2695 B( 18-C , 21-H ) :   0.9801
B( 19-C , 20-C ) :   1.5611 B( 19-C , 22-C ) :   1.0268 B( 22-C , 23-H ) :   0.9316
B( 22-C , 24-H ) :   0.9382 B( 22-C , 25-C ) :   1.0599 B( 25-C , 26-H ) :   0.9540
B( 25-C , 27-H ) :   0.9602 B( 25-C , 28-C ) :   1.0783 B( 28-C , 29-H ) :   0.9717
B( 28-C , 30-H ) :   0.9742 B( 28-C , 31-H ) :   0.9760

Dispersion correction           -0.013662659
FINAL SINGLE POINT ENERGY     -1339.864976511304

DIPOLE MOMENT
-------------
                                X             Y             Z
Electronic contribution:     26.90000      15.08270      -3.82959
Nuclear contribution   :    -27.28228     -15.72159       3.92378
                        -----------------------------------------
Total Dipole Moment    :     -0.38227      -0.63890       0.09419
                        -----------------------------------------
Magnitude (a.u.)       :      0.75046
Magnitude (Debye)      :      1.90752

Rotational constants in cm-1:     0.019146     0.008093     0.006219
Rotational constants in MHz :   573.977127   242.622574   186.431645

                             ****ORCA TERMINATED NORMALLY****
TOTAL RUN TIME: 0 days 0 hours 0 minutes 33 seconds 12 msec
