                         Program Version 4.2.1 -  RELEASE  -
|  1> ! wB97X-D3 SP def2-SVP
|  2> %pal
|  3> nprocs 16
|  4> end
|  5>
|  6> * xyz 0 1
|  7> S 	 -26.4573 	 57.4375 	 109.848
|  8> C 	 -24.9675 	 58.3431 	 109.426
|  9> C 	 -25.2561 	 59.5762 	 108.943
| 10> C 	 -26.6867 	 59.8246 	 108.902
| 11> C 	 -27.4601 	 58.7917 	 109.373
| 12> H 	 -27.2958 	 60.6703 	 108.596
| 13> C 	 -24.2848 	 60.5047 	 108.414
| 14> H 	 -23.4995 	 59.9406 	 108.029
| 15> H 	 -23.9668 	 60.9181 	 109.345
| 16> C 	 -24.6092 	 61.5622 	 107.361
| 17> H 	 -25.3692 	 62.2884 	 107.56
| 18> H 	 -23.6846 	 62.1684 	 107.17
| 19> C 	 -24.6984 	 60.9566 	 105.958
| 20> H 	 -24.7724 	 61.7225 	 105.26
| 21> H 	 -23.7585 	 60.3696 	 105.658
| 22> H 	 -25.5307 	 60.2232 	 105.956
| 23> S 	 -29.5994 	 58.3688 	 107.7
| 24> C 	 -31.1938 	 58.6797 	 108.27
| 25> C 	 -31.1999 	 58.9523 	 109.604
| 26> C 	 -29.9014 	 59.1721 	 110.194
| 27> C 	 -28.9219 	 58.8416 	 109.282
| 28> H 	 -32.1745 	 59.0981 	 110.093
| 29> C 	 -29.7995 	 59.5139 	 111.672
| 30> H 	 -28.8374 	 59.7078 	 112.155
| 31> H 	 -29.9678 	 58.4414 	 111.945
| 32> C 	 -30.9715 	 60.2492 	 112.355
| 33> H 	 -31.908 	 59.9566 	 112.082
| 34> H 	 -31.0417 	 61.3343 	 112.121
| 35> C 	 -30.9954 	 60.2059 	 113.958
| 36> H 	 -31.4137 	 59.2434 	 114.403
| 37> H 	 -31.3171 	 61.024 	 114.471
| 38> H 	 -29.927 	 60.256 	 114.136
| 39> H 	 -23.9874 	 58.0794 	 109.678
| 40> H 	 -32.0923 	 58.2667 	 107.748
| 41> *
| 42>
| 43>                          ****END OF INPUT****

CARTESIAN COORDINATES (ANGSTROEM)
---------------------------------
  S    -26.457300   57.437500  109.848000
  C    -24.967500   58.343100  109.426000
  C    -25.256100   59.576200  108.943000
  C    -26.686700   59.824600  108.902000
  C    -27.460100   58.791700  109.373000
  H    -27.295800   60.670300  108.596000
  C    -24.284800   60.504700  108.414000
  H    -23.499500   59.940600  108.029000
  H    -23.966800   60.918100  109.345000
  C    -24.609200   61.562200  107.361000
  H    -25.369200   62.288400  107.560000
  H    -23.684600   62.168400  107.170000
  C    -24.698400   60.956600  105.958000
  H    -24.772400   61.722500  105.260000
  H    -23.758500   60.369600  105.658000
  H    -25.530700   60.223200  105.956000
  S    -29.599400   58.368800  107.700000
  C    -31.193800   58.679700  108.270000
  C    -31.199900   58.952300  109.604000
  C    -29.901400   59.172100  110.194000
  C    -28.921900   58.841600  109.282000
  H    -32.174500   59.098100  110.093000
  C    -29.799500   59.513900  111.672000
  H    -28.837400   59.707800  112.155000
  H    -29.967800   58.441400  111.945000
  C    -30.971500   60.249200  112.355000
  H    -31.908000   59.956600  112.082000
  H    -31.041700   61.334300  112.121000
  C    -30.995400   60.205900  113.958000
  H    -31.413700   59.243400  114.403000
  H    -31.317100   61.024000  114.471000
  H    -29.927000   60.256000  114.136000
  H    -23.987400   58.079400  109.678000
  H    -32.092300   58.266700  107.748000

 Total Charge           Charge          ....    0
 Multiplicity           Mult            ....    1
 Number of Electrons    NEL             ....  134
 Basis Dimension        Dim             ....  322

ORBITAL ENERGIES
----------------

  NO   OCC          E(Eh)            E(eV)
   0   2.0000     -88.962502     -2420.7928
   1   2.0000     -88.960537     -2420.7393
   2   2.0000     -10.324592      -280.9464
   3   2.0000     -10.322908      -280.9006
   4   2.0000     -10.314680      -280.6767
   5   2.0000     -10.313867      -280.6546
   6   2.0000     -10.306261      -280.4476
   7   2.0000     -10.304147      -280.3901
   8   2.0000     -10.296890      -280.1926
   9   2.0000     -10.292888      -280.0837
  10   2.0000     -10.290622      -280.0221
  11   2.0000     -10.288611      -279.9674
  12   2.0000     -10.288448      -279.9629
  13   2.0000     -10.280212      -279.7388
  14   2.0000     -10.279613      -279.7225
  15   2.0000     -10.277206      -279.6570
  16   2.0000      -8.076418      -219.7705
  17   2.0000      -8.075580      -219.7477
  18   2.0000      -6.035133      -164.2243
  19   2.0000      -6.034125      -164.1969
  20   2.0000      -6.031094      -164.1144
  21   2.0000      -6.030105      -164.0875
  22   2.0000      -6.026964      -164.0020
  23   2.0000      -6.026222      -163.9818
  24   2.0000      -1.003944       -27.3187
  25   2.0000      -0.983642       -26.7663
  26   2.0000      -0.919942       -25.0329
  27   2.0000      -0.908731       -24.7278
  28   2.0000      -0.872101       -23.7311
  29   2.0000      -0.850962       -23.1559
  30   2.0000      -0.845520       -23.0078
  31   2.0000      -0.813391       -22.1335
  32   2.0000      -0.786203       -21.3937
  33   2.0000      -0.775447       -21.1010
  34   2.0000      -0.716970       -19.5097
  35   2.0000      -0.704967       -19.1831
  36   2.0000      -0.693963       -18.8837
  37   2.0000      -0.653492       -17.7824
  38   2.0000      -0.638242       -17.3674
  39   2.0000      -0.616322       -16.7710
  40   2.0000      -0.604135       -16.4394
  41   2.0000      -0.576087       -15.6761
  42   2.0000      -0.558623       -15.2009
  43   2.0000      -0.555894       -15.1267
  44   2.0000      -0.537555       -14.6276
  45   2.0000      -0.525811       -14.3080
  46   2.0000      -0.521167       -14.1817
  47   2.0000      -0.516874       -14.0649
  48   2.0000      -0.507582       -13.8120
  49   2.0000      -0.495917       -13.4946
  50   2.0000      -0.482832       -13.1385
  51   2.0000      -0.474084       -12.9005
  52   2.0000      -0.470666       -12.8075
  53   2.0000      -0.466708       -12.6998
  54   2.0000      -0.462201       -12.5771
  55   2.0000      -0.453187       -12.3318
  56   2.0000      -0.443267       -12.0619
  57   2.0000      -0.439626       -11.9628
  58   2.0000      -0.432774       -11.7764
  59   2.0000      -0.426120       -11.5953
  60   2.0000      -0.424696       -11.5566
  61   2.0000      -0.412275       -11.2186
  62   2.0000      -0.400641       -10.9020
  63   2.0000      -0.329664        -8.9706
  64   2.0000      -0.322263        -8.7692
  65   2.0000      -0.316352        -8.6084
  66   2.0000      -0.313255        -8.5241
  67   0.0000       0.050426         1.3722
  68   0.0000       0.053598         1.4585
  69   0.0000       0.117940         3.2093
  70   0.0000       0.122597         3.3360
  71   0.0000       0.127763         3.4766

MULLIKEN ATOMIC CHARGES
-----------------------
   0 S :    0.099840
   1 C :   -0.110657
   2 C :   -0.073457
   3 C :    0.019113
   4 C :   -0.159841
   5 H :    0.016577
   6 C :    0.114742
   7 H :    0.001964
   8 H :    0.033879
   9 C :   -0.068643
  10 H :    0.034034
  11 H :    0.027008
  12 C :   -0.062154
  13 H :    0.025259
  14 H :    0.034175
  15 H :    0.042938
  16 S :    0.108776
  17 C :   -0.094490
  18 C :   -0.073927
  19 C :    0.037231
  20 C :   -0.234609
  21 H :    0.032258
  22 C :    0.038718
  23 H :    0.041714
  24 H :    0.056839
  25 C :   -0.052151
  26 H :    0.002004
  27 H :    0.033252
  28 C :   -0.052922
  29 H :    0.051567
  30 H :    0.016794
  31 H :    0.015245
  32 H :    0.021426
  33 H :    0.077499
Sum of atomic charges:    0.0000000

LOEWDIN ATOMIC CHARGES
----------------------
   0 S :    0.378289
   1 C :   -0.182601
   2 C :   -0.055770
   3 C :   -0.064888
   4 C :   -0.202775
   5 H :    0.034242
   6 C :   -0.034371
   7 H :    0.027057
   8 H :    0.040598
   9 C :   -0.041154
  10 H :    0.020935
  11 H :    0.035801
  12 C :   -0.061567
  13 H :    0.014759
  14 H :    0.031878
  15 H :    0.025697
  16 S :    0.399479
  17 C :   -0.201246
  18 C :   -0.080129
  19 C :   -0.041734
  20 C :   -0.199529
  21 H :    0.033776
  22 C :   -0.039443
  23 H :    0.036073
  24 H :    0.057550
  25 C :   -0.035232
  26 H :    0.005748
  27 H :    0.029905
  28 C :   -0.062842
  29 H :    0.033818
  30 H :    0.012691
  31 H :    0.025705
  32 H :    0.017907
  33 H :    0.041369

  Mayer bond orders larger than 0.100000
B(  0-S ,  1-C ) :   1.1076 B(  0-S ,  4-C ) :   1.1345 B(  1-C ,  2-C ) :   1.6576
B(  1-C , 32-H ) :   0.9731 B(  2-C ,  3-C ) :   1.1768 B(  2-C ,  6-C ) :   1.0093
B(  3-C ,  4-C ) :   1.6254 B(  3-C ,  5-H ) :   0.9924 B(  4-C , 20-C ) :   1.0173
B(  6-C ,  7-H ) :   0.9364 B(  6-C ,  8-H ) :   0.9134 B(  6-C ,  9-C ) :   1.0922
B(  9-C , 10-H ) :   0.9527 B(  9-C , 11-H ) :   0.9510 B(  9-C , 12-C ) :   1.0711
B( 12-C , 13-H ) :   0.9758 B( 12-C , 14-H ) :   0.9731 B( 12-C , 15-H ) :   0.9782
B( 16-S , 17-C ) :   1.1519 B( 16-S , 20-C ) :   1.1341 B( 17-C , 18-C ) :   1.6583
B( 17-C , 33-H ) :   0.9518 B( 18-C , 19-C ) :   1.2082 B( 18-C , 21-H ) :   0.9762
B( 19-C , 20-C ) :   1.6327 B( 19-C , 22-C ) :   1.0076 B( 22-C , 23-H ) :   0.9459
B( 22-C , 24-H ) :   0.9335 B( 22-C , 25-C ) :   1.0527 B( 25-C , 26-H ) :   0.9521
B( 25-C , 27-H ) :   0.9553 B( 25-C , 28-C ) :   1.0680 B( 28-C , 29-H ) :   0.9786
B( 28-C , 30-H ) :   0.9756 B( 28-C , 31-H ) :   0.9772

Dispersion correction           -0.013635450
FINAL SINGLE POINT ENERGY     -1339.825288952523

DIPOLE MOMENT
-------------
                                X             Y             Z
Electronic contribution:     -2.29415     -15.81690      -7.00050
Nuclear contribution   :      2.28105      16.28104       7.30133
                        -----------------------------------------
Total Dipole Moment    :     -0.01310       0.46414       0.30083
                        -----------------------------------------
Magnitude (a.u.)       :      0.55326
Magnitude (Debye)      :      1.40627

Rotational constants in cm-1:     0.019113     0.007465     0.006728
Rotational constants in MHz :   572.980789   223.783140   201.702027

                             ****ORCA TERMINATED NORMALLY****
TOTAL RUN TIME: 0 days 0 hours 0 minutes 28 seconds 548 msec
