                         Program Version 4.2.1 -  RELEASE  -
|  1> ! wB97X-D3 SP def2-SVP
|  2> %pal
|  3> nprocs 16
|  4> end
|  5>
|  6> * xyz 0 1
|  7> S 	 -14.9986 	 36.6341 	 35.4213
|  8> C 	 -15.0934 	 36.9781 	 37.2227
|  9> C 	 -14.4392 	 38.1959 	 37.4619
| 10> C 	 -13.8555 	 38.7872 	 36.2993
| 11> C 	 -14.1115 	 38.1345 	 35.1006
| 12> H 	 -13.2547 	 39.7123 	 36.2384
| 13> C 	 -14.4136 	 38.8978 	 38.7891
| 14> H 	 -13.4062 	 39.1453 	 39.1079
| 15> H 	 -14.934 	 38.2566 	 39.4844
| 16> C 	 -15.1483 	 40.2263 	 38.8161
| 17> H 	 -14.5669 	 40.9312 	 38.1885
| 18> H 	 -16.1057 	 40.1782 	 38.3347
| 19> C 	 -15.2787 	 40.8244 	 40.2145
| 20> H 	 -14.3582 	 41.1969 	 40.6209
| 21> H 	 -15.823 	 41.8035 	 40.0949
| 22> H 	 -15.834 	 40.2032 	 40.9515
| 23> S 	 -13.5702 	 36.9534 	 32.7725
| 24> C 	 -13.1909 	 37.7636 	 31.342
| 25> C 	 -12.8928 	 39.0984 	 31.7118
| 26> C 	 -13.1285 	 39.4896 	 33.0834
| 27> C 	 -13.6595 	 38.4426 	 33.7494
| 28> H 	 -12.5691 	 39.7522 	 30.9476
| 29> C 	 -12.7948 	 40.9003 	 33.6052
| 30> H 	 -12.0563 	 41.3667 	 32.9216
| 31> H 	 -12.2396 	 40.7308 	 34.4972
| 32> C 	 -13.9185 	 41.8281 	 33.9073
| 33> H 	 -14.6344 	 41.2457 	 34.4854
| 34> H 	 -14.3989 	 42.111 	 33.0129
| 35> C 	 -13.6598 	 43.2323 	 34.5524
| 36> H 	 -14.3944 	 43.3406 	 35.3728
| 37> H 	 -13.829 	 44.0955 	 33.9034
| 38> H 	 -12.6355 	 43.3782 	 34.9576
| 39> H 	 -15.6384 	 36.5009 	 38.0501
| 40> H 	 -13.002 	 37.2535 	 30.3832
| 41> *
| 42>
| 43>                          ****END OF INPUT****

CARTESIAN COORDINATES (ANGSTROEM)
---------------------------------
  S    -14.998600   36.634100   35.421300
  C    -15.093400   36.978100   37.222700
  C    -14.439200   38.195900   37.461900
  C    -13.855500   38.787200   36.299300
  C    -14.111500   38.134500   35.100600
  H    -13.254700   39.712300   36.238400
  C    -14.413600   38.897800   38.789100
  H    -13.406200   39.145300   39.107900
  H    -14.934000   38.256600   39.484400
  C    -15.148300   40.226300   38.816100
  H    -14.566900   40.931200   38.188500
  H    -16.105700   40.178200   38.334700
  C    -15.278700   40.824400   40.214500
  H    -14.358200   41.196900   40.620900
  H    -15.823000   41.803500   40.094900
  H    -15.834000   40.203200   40.951500
  S    -13.570200   36.953400   32.772500
  C    -13.190900   37.763600   31.342000
  C    -12.892800   39.098400   31.711800
  C    -13.128500   39.489600   33.083400
  C    -13.659500   38.442600   33.749400
  H    -12.569100   39.752200   30.947600
  C    -12.794800   40.900300   33.605200
  H    -12.056300   41.366700   32.921600
  H    -12.239600   40.730800   34.497200
  C    -13.918500   41.828100   33.907300
  H    -14.634400   41.245700   34.485400
  H    -14.398900   42.111000   33.012900
  C    -13.659800   43.232300   34.552400
  H    -14.394400   43.340600   35.372800
  H    -13.829000   44.095500   33.903400
  H    -12.635500   43.378200   34.957600
  H    -15.638400   36.500900   38.050100
  H    -13.002000   37.253500   30.383200

 Total Charge           Charge          ....    0
 Multiplicity           Mult            ....    1
 Number of Electrons    NEL             ....  134
 Basis Dimension        Dim             ....  322

ORBITAL ENERGIES
----------------

  NO   OCC          E(Eh)            E(eV)
   0   2.0000     -88.968147     -2420.9464
   1   2.0000     -88.962173     -2420.7838
   2   2.0000     -10.336393      -281.2676
   3   2.0000     -10.330677      -281.1120
   4   2.0000     -10.323477      -280.9161
   5   2.0000     -10.320542      -280.8362
   6   2.0000     -10.310091      -280.5518
   7   2.0000     -10.304318      -280.3947
   8   2.0000     -10.297413      -280.2069
   9   2.0000     -10.296826      -280.1909
  10   2.0000     -10.296192      -280.1736
  11   2.0000     -10.288352      -279.9603
  12   2.0000     -10.287120      -279.9268
  13   2.0000     -10.285378      -279.8794
  14   2.0000     -10.283563      -279.8300
  15   2.0000     -10.283528      -279.8290
  16   2.0000      -8.080832      -219.8906
  17   2.0000      -8.078060      -219.8152
  18   2.0000      -6.039725      -164.3493
  19   2.0000      -6.036547      -164.2628
  20   2.0000      -6.035636      -164.2380
  21   2.0000      -6.032348      -164.1485
  22   2.0000      -6.031227      -164.1180
  23   2.0000      -6.028781      -164.0515
  24   2.0000      -1.010033       -27.4844
  25   2.0000      -0.978572       -26.6283
  26   2.0000      -0.916676       -24.9440
  27   2.0000      -0.915495       -24.9119
  28   2.0000      -0.869822       -23.6691
  29   2.0000      -0.856769       -23.3139
  30   2.0000      -0.837046       -22.7772
  31   2.0000      -0.812501       -22.1093
  32   2.0000      -0.790622       -21.5139
  33   2.0000      -0.774902       -21.0862
  34   2.0000      -0.711167       -19.3518
  35   2.0000      -0.700409       -19.0591
  36   2.0000      -0.694241       -18.8912
  37   2.0000      -0.669828       -18.2270
  38   2.0000      -0.637302       -17.3419
  39   2.0000      -0.616768       -16.7831
  40   2.0000      -0.599186       -16.3047
  41   2.0000      -0.577838       -15.7238
  42   2.0000      -0.569727       -15.5031
  43   2.0000      -0.557003       -15.1568
  44   2.0000      -0.528333       -14.3767
  45   2.0000      -0.523981       -14.2582
  46   2.0000      -0.521143       -14.1810
  47   2.0000      -0.511042       -13.9062
  48   2.0000      -0.505723       -13.7614
  49   2.0000      -0.504363       -13.7244
  50   2.0000      -0.494889       -13.4666
  51   2.0000      -0.489182       -13.3113
  52   2.0000      -0.474362       -12.9080
  53   2.0000      -0.470464       -12.8020
  54   2.0000      -0.457387       -12.4461
  55   2.0000      -0.453256       -12.3337
  56   2.0000      -0.443119       -12.0579
  57   2.0000      -0.436783       -11.8855
  58   2.0000      -0.430215       -11.7067
  59   2.0000      -0.424022       -11.5382
  60   2.0000      -0.422564       -11.4985
  61   2.0000      -0.410549       -11.1716
  62   2.0000      -0.406575       -11.0635
  63   2.0000      -0.360079        -9.7982
  64   2.0000      -0.331947        -9.0327
  65   2.0000      -0.328169        -8.9299
  66   2.0000      -0.284944        -7.7537
  67   0.0000       0.015924         0.4333
  68   0.0000       0.080285         2.1847
  69   0.0000       0.092834         2.5261
  70   0.0000       0.112629         3.0648
  71   0.0000       0.125794         3.4230

MULLIKEN ATOMIC CHARGES
-----------------------
   0 S :    0.091344
   1 C :   -0.112160
   2 C :   -0.092842
   3 C :   -0.007396
   4 C :   -0.107413
   5 H :    0.012563
   6 C :    0.102788
   7 H :    0.028768
   8 H :    0.003206
   9 C :   -0.095315
  10 H :    0.021637
  11 H :    0.028236
  12 C :   -0.052648
  13 H :    0.023447
  14 H :    0.032856
  15 H :    0.045173
  16 S :    0.083028
  17 C :   -0.085178
  18 C :   -0.054625
  19 C :   -0.053212
  20 C :   -0.120670
  21 H :    0.001244
  22 C :    0.089512
  23 H :    0.020511
  24 H :    0.018690
  25 C :   -0.047923
  26 H :    0.032065
  27 H :    0.018882
  28 C :   -0.069168
  29 H :    0.039097
  30 H :    0.038295
  31 H :    0.032879
  32 H :    0.056641
  33 H :    0.077690
Sum of atomic charges:   -0.0000000

LOEWDIN ATOMIC CHARGES
----------------------
   0 S :    0.364829
   1 C :   -0.187587
   2 C :   -0.057023
   3 C :   -0.077477
   4 C :   -0.178021
   5 H :    0.032129
   6 C :   -0.029927
   7 H :    0.032642
   8 H :    0.024388
   9 C :   -0.041921
  10 H :    0.023339
  11 H :    0.021649
  12 C :   -0.070251
  13 H :    0.020954
  14 H :    0.035115
  15 H :    0.028328
  16 S :    0.416477
  17 C :   -0.208496
  18 C :   -0.068709
  19 C :   -0.055342
  20 C :   -0.175081
  21 H :    0.018984
  22 C :   -0.027064
  23 H :    0.033996
  24 H :    0.023981
  25 C :   -0.043949
  26 H :    0.026418
  27 H :    0.023126
  28 C :   -0.070673
  29 H :    0.032876
  30 H :    0.026992
  31 H :    0.025898
  32 H :    0.038850
  33 H :    0.040550

  Mayer bond orders larger than 0.100000
B(  0-S ,  1-C ) :   1.0971 B(  0-S ,  4-C ) :   1.1331 B(  1-C ,  2-C ) :   1.6345
B(  1-C ,  4-C ) :   0.1003 B(  1-C , 32-H ) :   0.9595 B(  2-C ,  3-C ) :   1.2152
B(  2-C ,  6-C ) :   1.0477 B(  3-C ,  4-C ) :   1.5907 B(  3-C ,  5-H ) :   0.9824
B(  4-C , 20-C ) :   1.0629 B(  6-C ,  7-H ) :   0.9325 B(  6-C ,  8-H ) :   0.9372
B(  6-C ,  9-C ) :   1.0665 B(  9-C , 10-H ) :   0.9478 B(  9-C , 11-H ) :   0.9563
B(  9-C , 12-C ) :   1.0950 B( 12-C , 13-H ) :   0.9713 B( 12-C , 14-H ) :   0.9703
B( 12-C , 15-H ) :   0.9749 B( 16-S , 17-C ) :   1.1681 B( 16-S , 20-C ) :   1.1428
B( 17-C , 18-C ) :   1.5723 B( 17-C , 33-H ) :   0.9699 B( 18-C , 19-C ) :   1.2396
B( 18-C , 21-H ) :   0.9952 B( 19-C , 20-C ) :   1.6082 B( 19-C , 22-C ) :   1.0306
B( 22-C , 23-H ) :   0.9268 B( 22-C , 24-H ) :   0.9252 B( 22-C , 25-C ) :   1.0825
B( 25-C , 26-H ) :   0.9607 B( 25-C , 27-H ) :   0.9532 B( 25-C , 28-C ) :   1.0532
B( 28-C , 29-H ) :   0.9776 B( 28-C , 30-H ) :   0.9820 B( 28-C , 31-H ) :   0.9796

Dispersion correction           -0.013891777
FINAL SINGLE POINT ENERGY     -1339.865023506037

DIPOLE MOMENT
-------------
                                X             Y             Z
Electronic contribution:      0.73276     -28.79705     -17.79824
Nuclear contribution   :     -0.55558      29.56531      17.97766
                        -----------------------------------------
Total Dipole Moment    :      0.17718       0.76826       0.17942
                        -----------------------------------------
Magnitude (a.u.)       :      0.80859
Magnitude (Debye)      :      2.05526

Rotational constants in cm-1:     0.017494     0.009483     0.006355
Rotational constants in MHz :   524.461466   284.279494   190.524063

                             ****ORCA TERMINATED NORMALLY****
TOTAL RUN TIME: 0 days 0 hours 0 minutes 31 seconds 679 msec
