                         Program Version 4.2.1 -  RELEASE  -
|  1> ! wB97X-D3 SP def2-SVP
|  2> %pal
|  3> nprocs 16
|  4> end
|  5>
|  6> * xyz 0 1
|  7> S 	 -14.3425 	 34.0875 	 34.489
|  8> C 	 -14.1612 	 35.8136 	 34.7305
|  9> C 	 -15.3715 	 36.4076 	 34.8848
| 10> C 	 -16.4233 	 35.4709 	 34.6394
| 11> C 	 -16.05 	 34.1912 	 34.2981
| 12> H 	 -17.4407 	 35.7682 	 34.7916
| 13> C 	 -15.6417 	 37.9228 	 35.2377
| 14> H 	 -15.6926 	 37.9781 	 36.3041
| 15> H 	 -16.6102 	 38.2669 	 34.8008
| 16> C 	 -14.5275 	 38.8274 	 34.6899
| 17> H 	 -13.573 	 38.5002 	 35.1962
| 18> H 	 -14.4383 	 38.5222 	 33.6681
| 19> C 	 -14.9791 	 40.2706 	 34.7553
| 20> H 	 -16.0711 	 40.2791 	 34.4522
| 21> H 	 -14.7922 	 40.7443 	 35.7537
| 22> H 	 -14.453 	 40.8536 	 33.9614
| 23> S 	 -17.3426 	 32.2989 	 35.8426
| 24> C 	 -18.2473 	 31.0995 	 35.0357
| 25> C 	 -18.1616 	 31.2642 	 33.6473
| 26> C 	 -17.4941 	 32.4141 	 33.1536
| 27> C 	 -16.8882 	 33.0601 	 34.2733
| 28> H 	 -18.6583 	 30.4546 	 33.1236
| 29> C 	 -17.2017 	 32.4233 	 31.6667
| 30> H 	 -16.7322 	 31.5032 	 31.4862
| 31> H 	 -16.4931 	 33.1976 	 31.4587
| 32> C 	 -18.3764 	 32.5002 	 30.7198
| 33> H 	 -19.0977 	 31.7131 	 31.0437
| 34> H 	 -18.0342 	 32.3314 	 29.7439
| 35> C 	 -19.0856 	 33.833 	 30.7355
| 36> H 	 -18.367 	 34.6743 	 30.6482
| 37> H 	 -19.6054 	 33.8967 	 31.6708
| 38> H 	 -19.8499 	 33.8465 	 29.9176
| 39> H 	 -13.2106 	 36.3706 	 34.7293
| 40> H 	 -18.9178 	 30.3954 	 35.5144
| 41> *
| 42>
| 43>                          ****END OF INPUT****

CARTESIAN COORDINATES (ANGSTROEM)
---------------------------------
  S    -14.342500   34.087500   34.489000
  C    -14.161200   35.813600   34.730500
  C    -15.371500   36.407600   34.884800
  C    -16.423300   35.470900   34.639400
  C    -16.050000   34.191200   34.298100
  H    -17.440700   35.768200   34.791600
  C    -15.641700   37.922800   35.237700
  H    -15.692600   37.978100   36.304100
  H    -16.610200   38.266900   34.800800
  C    -14.527500   38.827400   34.689900
  H    -13.573000   38.500200   35.196200
  H    -14.438300   38.522200   33.668100
  C    -14.979100   40.270600   34.755300
  H    -16.071100   40.279100   34.452200
  H    -14.792200   40.744300   35.753700
  H    -14.453000   40.853600   33.961400
  S    -17.342600   32.298900   35.842600
  C    -18.247300   31.099500   35.035700
  C    -18.161600   31.264200   33.647300
  C    -17.494100   32.414100   33.153600
  C    -16.888200   33.060100   34.273300
  H    -18.658300   30.454600   33.123600
  C    -17.201700   32.423300   31.666700
  H    -16.732200   31.503200   31.486200
  H    -16.493100   33.197600   31.458700
  C    -18.376400   32.500200   30.719800
  H    -19.097700   31.713100   31.043700
  H    -18.034200   32.331400   29.743900
  C    -19.085600   33.833000   30.735500
  H    -18.367000   34.674300   30.648200
  H    -19.605400   33.896700   31.670800
  H    -19.849900   33.846500   29.917600
  H    -13.210600   36.370600   34.729300
  H    -18.917800   30.395400   35.514400

 Total Charge           Charge          ....    0
 Multiplicity           Mult            ....    1
 Number of Electrons    NEL             ....  134
 Basis Dimension        Dim             ....  322

ORBITAL ENERGIES
----------------

  NO   OCC          E(Eh)            E(eV)
   0   2.0000     -88.966680     -2420.9064
   1   2.0000     -88.960926     -2420.7499
   2   2.0000     -10.328568      -281.0546
   3   2.0000     -10.317854      -280.7631
   4   2.0000     -10.313435      -280.6428
   5   2.0000     -10.312326      -280.6127
   6   2.0000     -10.308479      -280.5080
   7   2.0000     -10.297232      -280.2019
   8   2.0000     -10.296220      -280.1744
   9   2.0000     -10.290295      -280.0132
  10   2.0000     -10.288692      -279.9696
  11   2.0000     -10.287879      -279.9474
  12   2.0000     -10.287685      -279.9421
  13   2.0000     -10.284096      -279.8445
  14   2.0000     -10.279649      -279.7235
  15   2.0000     -10.274158      -279.5741
  16   2.0000      -8.081263      -219.9023
  17   2.0000      -8.076342      -219.7684
  18   2.0000      -6.039624      -164.3465
  19   2.0000      -6.035700      -164.2398
  20   2.0000      -6.034866      -164.2171
  21   2.0000      -6.032285      -164.1468
  22   2.0000      -6.030765      -164.1055
  23   2.0000      -6.027011      -164.0033
  24   2.0000      -1.008165       -27.4336
  25   2.0000      -0.982947       -26.7474
  26   2.0000      -0.917852       -24.9760
  27   2.0000      -0.914048       -24.8725
  28   2.0000      -0.872211       -23.7341
  29   2.0000      -0.852402       -23.1950
  30   2.0000      -0.842796       -22.9336
  31   2.0000      -0.805119       -21.9084
  32   2.0000      -0.785878       -21.3848
  33   2.0000      -0.771076       -20.9821
  34   2.0000      -0.711133       -19.3509
  35   2.0000      -0.697091       -18.9688
  36   2.0000      -0.689334       -18.7577
  37   2.0000      -0.649617       -17.6770
  38   2.0000      -0.638348       -17.3703
  39   2.0000      -0.615180       -16.7399
  40   2.0000      -0.600784       -16.3482
  41   2.0000      -0.576686       -15.6924
  42   2.0000      -0.566048       -15.4030
  43   2.0000      -0.554978       -15.1017
  44   2.0000      -0.547289       -14.8925
  45   2.0000      -0.524510       -14.2727
  46   2.0000      -0.519772       -14.1437
  47   2.0000      -0.506362       -13.7788
  48   2.0000      -0.505026       -13.7425
  49   2.0000      -0.501030       -13.6337
  50   2.0000      -0.490154       -13.3378
  51   2.0000      -0.474515       -12.9122
  52   2.0000      -0.468542       -12.7497
  53   2.0000      -0.461096       -12.5471
  54   2.0000      -0.457429       -12.4473
  55   2.0000      -0.449975       -12.2445
  56   2.0000      -0.438254       -11.9255
  57   2.0000      -0.433941       -11.8081
  58   2.0000      -0.429489       -11.6870
  59   2.0000      -0.425699       -11.5839
  60   2.0000      -0.422214       -11.4890
  61   2.0000      -0.421634       -11.4733
  62   2.0000      -0.413519       -11.2524
  63   2.0000      -0.333866        -9.0850
  64   2.0000      -0.325696        -8.8626
  65   2.0000      -0.321465        -8.7475
  66   2.0000      -0.305595        -8.3157
  67   0.0000       0.042260         1.1500
  68   0.0000       0.049330         1.3423
  69   0.0000       0.115588         3.1453
  70   0.0000       0.119199         3.2436
  71   0.0000       0.132455         3.6043

MULLIKEN ATOMIC CHARGES
-----------------------
   0 S :    0.108788
   1 C :   -0.149836
   2 C :   -0.092742
   3 C :    0.027166
   4 C :   -0.142737
   5 H :   -0.000839
   6 C :    0.068528
   7 H :    0.041093
   8 H :    0.026930
   9 C :   -0.120557
  10 H :    0.044112
  11 H :    0.029496
  12 C :   -0.050544
  13 H :    0.037537
  14 H :    0.052475
  15 H :    0.040637
  16 S :    0.130620
  17 C :   -0.104916
  18 C :   -0.070200
  19 C :    0.023780
  20 C :   -0.201972
  21 H :    0.019870
  22 C :    0.086822
  23 H :    0.029564
  24 H :    0.015711
  25 C :   -0.061372
  26 H :    0.028160
  27 H :    0.018066
  28 C :   -0.056254
  29 H :    0.036136
  30 H :    0.032824
  31 H :    0.038018
  32 H :    0.055652
  33 H :    0.059988
Sum of atomic charges:   -0.0000000

LOEWDIN ATOMIC CHARGES
----------------------
   0 S :    0.415823
   1 C :   -0.200439
   2 C :   -0.069371
   3 C :   -0.052899
   4 C :   -0.222954
   5 H :    0.025133
   6 C :   -0.022516
   7 H :    0.028334
   8 H :    0.028496
   9 C :   -0.052234
  10 H :    0.028117
  11 H :    0.022337
  12 C :   -0.071274
  13 H :    0.033702
  14 H :    0.032728
  15 H :    0.030645
  16 S :    0.414350
  17 C :   -0.204889
  18 C :   -0.079569
  19 C :   -0.042794
  20 C :   -0.193153
  21 H :    0.027551
  22 C :   -0.021099
  23 H :    0.033381
  24 H :    0.025747
  25 C :   -0.037178
  26 H :    0.027366
  27 H :    0.017423
  28 C :   -0.064084
  29 H :    0.027213
  30 H :    0.022856
  31 H :    0.029686
  32 H :    0.032548
  33 H :    0.031017

  Mayer bond orders larger than 0.100000
B(  0-S ,  1-C ) :   1.1455 B(  0-S ,  4-C ) :   1.1476 B(  1-C ,  2-C ) :   1.6099
B(  1-C , 32-H ) :   0.9628 B(  2-C ,  3-C ) :   1.2736 B(  2-C ,  6-C ) :   0.9918
B(  3-C ,  4-C ) :   1.5615 B(  3-C ,  5-H ) :   1.0046 B(  4-C , 20-C ) :   1.0458
B(  6-C ,  7-H ) :   0.9349 B(  6-C ,  8-H ) :   0.9502 B(  6-C ,  9-C ) :   1.0717
B(  9-C , 10-H ) :   0.9454 B(  9-C , 11-H ) :   0.9629 B(  9-C , 12-C ) :   1.0798
B( 12-C , 13-H ) :   0.9699 B( 12-C , 14-H ) :   0.9736 B( 12-C , 15-H ) :   0.9745
B( 16-S , 17-C ) :   1.1653 B( 16-S , 20-C ) :   1.1547 B( 17-C , 18-C ) :   1.6099
B( 17-C , 20-C ) :   0.1098 B( 17-C , 33-H ) :   0.9650 B( 18-C , 19-C ) :   1.2321
B( 18-C , 21-H ) :   0.9849 B( 19-C , 20-C ) :   1.5523 B( 19-C , 22-C ) :   1.0351
B( 22-C , 23-H ) :   0.9389 B( 22-C , 24-H ) :   0.9316 B( 22-C , 25-C ) :   1.0828
B( 25-C , 26-H ) :   0.9537 B( 25-C , 27-H ) :   0.9514 B( 25-C , 28-C ) :   1.0788
B( 28-C , 29-H ) :   0.9741 B( 28-C , 30-H ) :   0.9755 B( 28-C , 31-H ) :   0.9739

Dispersion correction           -0.013483177
FINAL SINGLE POINT ENERGY     -1339.866304350987

DIPOLE MOMENT
-------------
                                X             Y             Z
Electronic contribution:      5.72900     -19.33033      13.96319
Nuclear contribution   :     -5.95683      19.61556     -14.19563
                        -----------------------------------------
Total Dipole Moment    :     -0.22782       0.28523      -0.23245
                        -----------------------------------------
Magnitude (a.u.)       :      0.43277
Magnitude (Debye)      :      1.10002

Rotational constants in cm-1:     0.020780     0.007279     0.006258
Rotational constants in MHz :   622.981631   218.215620   187.615105

                             ****ORCA TERMINATED NORMALLY****
TOTAL RUN TIME: 0 days 0 hours 0 minutes 31 seconds 502 msec
