                         Program Version 4.2.1 -  RELEASE  -
|  1> ! wB97X-D3 SP def2-SVP
|  2> %pal
|  3> nprocs 16
|  4> end
|  5>
|  6> * xyz 0 1
|  7> S 	 -29.7426 	 69.5031 	 108.69
|  8> C 	 -28.8792 	 70.7731 	 107.908
|  9> C 	 -28.1046 	 70.2468 	 106.835
| 10> C 	 -28.16 	 68.8248 	 106.8
| 11> C 	 -28.7605 	 68.2978 	 107.882
| 12> H 	 -27.592 	 68.1017 	 106.141
| 13> C 	 -27.3048 	 70.9246 	 105.82
| 14> H 	 -26.3184 	 70.5883 	 105.957
| 15> H 	 -27.2059 	 72.0398 	 105.987
| 16> C 	 -27.7254 	 70.7034 	 104.298
| 17> H 	 -27.1177 	 71.2945 	 103.68
| 18> H 	 -27.4592 	 69.6841 	 104.081
| 19> C 	 -29.1912 	 70.8537 	 103.992
| 20> H 	 -29.279 	 70.8556 	 102.866
| 21> H 	 -29.7917 	 70.0254 	 104.331
| 22> H 	 -29.6705 	 71.6687 	 104.447
| 23> S 	 -28.4318 	 66.6931 	 109.96
| 24> C 	 -28.4263 	 64.917 	 109.771
| 25> C 	 -28.7456 	 64.5332 	 108.491
| 26> C 	 -28.9027 	 65.7199 	 107.714
| 27> C 	 -28.7959 	 66.9045 	 108.375
| 28> H 	 -28.7908 	 63.4821 	 108.189
| 29> C 	 -29.2655 	 65.6495 	 106.206
| 30> H 	 -29.2818 	 66.5937 	 105.711
| 31> H 	 -30.2631 	 65.3196 	 106.221
| 32> C 	 -28.4696 	 64.6799 	 105.266
| 33> H 	 -28.7063 	 64.8956 	 104.232
| 34> H 	 -28.8697 	 63.6467 	 105.292
| 35> C 	 -26.9604 	 64.6601 	 105.427
| 36> H 	 -26.5833 	 63.8919 	 104.712
| 37> H 	 -26.677 	 64.5093 	 106.457
| 38> H 	 -26.584 	 65.6498 	 105.069
| 39> H 	 -29.1621 	 71.8149 	 108
| 40> H 	 -28.1146 	 64.2336 	 110.551
| 41> *
| 42>
| 43>                          ****END OF INPUT****

CARTESIAN COORDINATES (ANGSTROEM)
---------------------------------
  S    -29.742600   69.503100  108.690000
  C    -28.879200   70.773100  107.908000
  C    -28.104600   70.246800  106.835000
  C    -28.160000   68.824800  106.800000
  C    -28.760500   68.297800  107.882000
  H    -27.592000   68.101700  106.141000
  C    -27.304800   70.924600  105.820000
  H    -26.318400   70.588300  105.957000
  H    -27.205900   72.039800  105.987000
  C    -27.725400   70.703400  104.298000
  H    -27.117700   71.294500  103.680000
  H    -27.459200   69.684100  104.081000
  C    -29.191200   70.853700  103.992000
  H    -29.279000   70.855600  102.866000
  H    -29.791700   70.025400  104.331000
  H    -29.670500   71.668700  104.447000
  S    -28.431800   66.693100  109.960000
  C    -28.426300   64.917000  109.771000
  C    -28.745600   64.533200  108.491000
  C    -28.902700   65.719900  107.714000
  C    -28.795900   66.904500  108.375000
  H    -28.790800   63.482100  108.189000
  C    -29.265500   65.649500  106.206000
  H    -29.281800   66.593700  105.711000
  H    -30.263100   65.319600  106.221000
  C    -28.469600   64.679900  105.266000
  H    -28.706300   64.895600  104.232000
  H    -28.869700   63.646700  105.292000
  C    -26.960400   64.660100  105.427000
  H    -26.583300   63.891900  104.712000
  H    -26.677000   64.509300  106.457000
  H    -26.584000   65.649800  105.069000
  H    -29.162100   71.814900  108.000000
  H    -28.114600   64.233600  110.551000

 Total Charge           Charge          ....    0
 Multiplicity           Mult            ....    1
 Number of Electrons    NEL             ....  134
 Basis Dimension        Dim             ....  322

ORBITAL ENERGIES
----------------

  NO   OCC          E(Eh)            E(eV)
   0   2.0000     -88.964495     -2420.8470
   1   2.0000     -88.963687     -2420.8250
   2   2.0000     -10.327523      -281.0262
   3   2.0000     -10.319208      -280.7999
   4   2.0000     -10.316327      -280.7215
   5   2.0000     -10.314367      -280.6682
   6   2.0000     -10.303624      -280.3759
   7   2.0000     -10.300924      -280.3024
   8   2.0000     -10.299610      -280.2666
   9   2.0000     -10.293255      -280.0937
  10   2.0000     -10.289037      -279.9789
  11   2.0000     -10.285498      -279.8826
  12   2.0000     -10.284204      -279.8474
  13   2.0000     -10.283830      -279.8372
  14   2.0000     -10.279921      -279.7309
  15   2.0000     -10.272413      -279.5266
  16   2.0000      -8.081092      -219.8977
  17   2.0000      -8.079090      -219.8432
  18   2.0000      -6.039383      -164.3400
  19   2.0000      -6.037566      -164.2905
  20   2.0000      -6.035340      -164.2299
  21   2.0000      -6.033649      -164.1839
  22   2.0000      -6.031901      -164.1364
  23   2.0000      -6.029716      -164.0769
  24   2.0000      -1.019770       -27.7494
  25   2.0000      -0.992595       -27.0099
  26   2.0000      -0.912659       -24.8347
  27   2.0000      -0.903599       -24.5882
  28   2.0000      -0.874029       -23.7835
  29   2.0000      -0.853896       -23.2357
  30   2.0000      -0.847995       -23.0751
  31   2.0000      -0.821523       -22.3548
  32   2.0000      -0.782583       -21.2952
  33   2.0000      -0.772266       -21.0144
  34   2.0000      -0.709790       -19.3144
  35   2.0000      -0.696086       -18.9415
  36   2.0000      -0.691039       -18.8041
  37   2.0000      -0.666123       -18.1261
  38   2.0000      -0.640791       -17.4368
  39   2.0000      -0.622550       -16.9404
  40   2.0000      -0.592616       -16.1259
  41   2.0000      -0.567709       -15.4482
  42   2.0000      -0.553345       -15.0573
  43   2.0000      -0.552342       -15.0300
  44   2.0000      -0.545512       -14.8441
  45   2.0000      -0.542618       -14.7654
  46   2.0000      -0.522362       -14.2142
  47   2.0000      -0.512212       -13.9380
  48   2.0000      -0.503402       -13.6983
  49   2.0000      -0.498420       -13.5627
  50   2.0000      -0.487294       -13.2599
  51   2.0000      -0.483265       -13.1503
  52   2.0000      -0.474733       -12.9181
  53   2.0000      -0.466607       -12.6970
  54   2.0000      -0.459050       -12.4914
  55   2.0000      -0.451621       -12.2892
  56   2.0000      -0.448996       -12.2178
  57   2.0000      -0.437446       -11.9035
  58   2.0000      -0.432353       -11.7649
  59   2.0000      -0.423218       -11.5163
  60   2.0000      -0.418647       -11.3920
  61   2.0000      -0.412283       -11.2188
  62   2.0000      -0.407661       -11.0930
  63   2.0000      -0.357067        -9.7163
  64   2.0000      -0.331740        -9.0271
  65   2.0000      -0.323265        -8.7965
  66   2.0000      -0.291374        -7.9287
  67   0.0000       0.034639         0.9426
  68   0.0000       0.071298         1.9401
  69   0.0000       0.105153         2.8613
  70   0.0000       0.118173         3.2157
  71   0.0000       0.121787         3.3140

MULLIKEN ATOMIC CHARGES
-----------------------
   0 S :    0.106256
   1 C :   -0.101780
   2 C :   -0.098398
   3 C :    0.001314
   4 C :   -0.156240
   5 H :    0.037419
   6 C :    0.048028
   7 H :    0.024566
   8 H :    0.022945
   9 C :   -0.051048
  10 H :    0.021150
  11 H :    0.014481
  12 C :   -0.027840
  13 H :    0.038772
  14 H :    0.028081
  15 H :    0.018989
  16 S :    0.117776
  17 C :   -0.108994
  18 C :   -0.018163
  19 C :   -0.079154
  20 C :   -0.118752
  21 H :    0.035643
  22 C :    0.102193
  23 H :    0.012679
  24 H :    0.023574
  25 C :   -0.106103
  26 H :    0.017521
  27 H :    0.017038
  28 C :   -0.046321
  29 H :    0.041131
  30 H :    0.046222
  31 H :    0.028757
  32 H :    0.051851
  33 H :    0.056408
Sum of atomic charges:   -0.0000000

LOEWDIN ATOMIC CHARGES
----------------------
   0 S :    0.407989
   1 C :   -0.212288
   2 C :   -0.060503
   3 C :   -0.074043
   4 C :   -0.179385
   5 H :    0.042169
   6 C :   -0.037555
   7 H :    0.028043
   8 H :    0.032370
   9 C :   -0.029241
  10 H :    0.018023
  11 H :    0.019598
  12 C :   -0.064367
  13 H :    0.036051
  14 H :    0.026297
  15 H :    0.017037
  16 S :    0.445630
  17 C :   -0.173114
  18 C :   -0.066244
  19 C :   -0.062830
  20 C :   -0.242552
  21 H :    0.041875
  22 C :   -0.028250
  23 H :    0.023550
  24 H :    0.030554
  25 C :   -0.051091
  26 H :    0.023434
  27 H :    0.018880
  28 C :   -0.066082
  29 H :    0.033184
  30 H :    0.023440
  31 H :    0.025008
  32 H :    0.027398
  33 H :    0.027017

  Mayer bond orders larger than 0.100000
B(  0-S ,  1-C ) :   1.1333 B(  0-S ,  4-C ) :   1.1651 B(  1-C ,  2-C ) :   1.5879
B(  1-C ,  4-C ) :   0.1024 B(  1-C , 32-H ) :   0.9685 B(  2-C ,  3-C ) :   1.2185
B(  2-C ,  6-C ) :   1.0448 B(  3-C ,  4-C ) :   1.6194 B(  3-C ,  5-H ) :   0.9790
B(  4-C , 20-C ) :   0.9756 B(  6-C ,  7-H ) :   0.9367 B(  6-C ,  8-H ) :   0.9418
B(  6-C ,  9-C ) :   1.0638 B(  9-C , 10-H ) :   0.9603 B(  9-C , 11-H ) :   0.9503
B(  9-C , 12-C ) :   1.0831 B( 12-C , 13-H ) :   0.9720 B( 12-C , 14-H ) :   0.9674
B( 12-C , 15-H ) :   0.9778 B( 16-S , 17-C ) :   1.1646 B( 16-S , 20-C ) :   1.1626
B( 17-C , 18-C ) :   1.5940 B( 17-C , 33-H ) :   0.9691 B( 18-C , 19-C ) :   1.2355
B( 18-C , 21-H ) :   0.9941 B( 19-C , 20-C ) :   1.6155 B( 19-C , 22-C ) :   1.0285
B( 22-C , 23-H ) :   0.9430 B( 22-C , 24-H ) :   0.9302 B( 22-C , 25-C ) :   1.0663
B( 25-C , 26-H ) :   0.9548 B( 25-C , 27-H ) :   0.9531 B( 25-C , 28-C ) :   1.0836
B( 28-C , 29-H ) :   0.9713 B( 28-C , 30-H ) :   0.9718 B( 28-C , 31-H ) :   0.9741

Dispersion correction           -0.015258638
FINAL SINGLE POINT ENERGY     -1339.862315738188

DIPOLE MOMENT
-------------
                                X             Y             Z
Electronic contribution:     -6.14818       1.66253      27.87502
Nuclear contribution   :      6.32431      -1.91359     -28.51486
                        -----------------------------------------
Total Dipole Moment    :      0.17613      -0.25106      -0.63984
                        -----------------------------------------
Magnitude (a.u.)       :      0.70954
Magnitude (Debye)      :      1.80351

Rotational constants in cm-1:     0.018702     0.009993     0.007217
Rotational constants in MHz :   560.670160   299.597071   216.361652

                             ****ORCA TERMINATED NORMALLY****
TOTAL RUN TIME: 0 days 0 hours 0 minutes 29 seconds 25 msec
