                         Program Version 4.2.1 -  RELEASE  -
|  1> ! wB97X-D3 SP def2-SVP
|  2> %pal
|  3> nprocs 16
|  4> end
|  5>
|  6> * xyz 0 1
|  7> S 	 -26.3808 	 56.0885 	 110.611
|  8> C 	 -26.9018 	 55.9003 	 112.276
|  9> C 	 -27.5575 	 57.0642 	 112.737
| 10> C 	 -27.6513 	 58.0692 	 111.764
| 11> C 	 -27.117 	 57.6751 	 110.536
| 12> H 	 -28.036 	 59.0551 	 111.932
| 13> C 	 -28.1572 	 57.2471 	 114.113
| 14> H 	 -28.0494 	 58.2927 	 114.508
| 15> H 	 -27.5801 	 56.5833 	 114.783
| 16> C 	 -29.5814 	 56.6565 	 114.22
| 17> H 	 -29.6144 	 55.5733 	 114.007
| 18> H 	 -29.9479 	 56.6836 	 115.271
| 19> C 	 -30.6562 	 57.4005 	 113.364
| 20> H 	 -30.7145 	 58.4855 	 113.42
| 21> H 	 -30.5321 	 57.0295 	 112.321
| 22> H 	 -31.5609 	 57.0508 	 113.619
| 23> S 	 -25.4629 	 58.9652 	 108.875
| 24> C 	 -25.9554 	 59.5649 	 107.271
| 25> C 	 -27.3097 	 59.4494 	 107.175
| 26> C 	 -27.9352 	 58.663 	 108.214
| 27> C 	 -27.0746 	 58.3306 	 109.233
| 28> H 	 -27.8058 	 59.7866 	 106.291
| 29> C 	 -29.4688 	 58.3804 	 108.238
| 30> H 	 -29.6633 	 57.993 	 109.244
| 31> H 	 -29.8443 	 57.5493 	 107.605
| 32> C 	 -30.4713 	 59.5217 	 108.014
| 33> H 	 -31.506 	 59.1507 	 107.804
| 34> H 	 -30.1039 	 60.1479 	 107.263
| 35> C 	 -30.93 	 60.3333 	 109.207
| 36> H 	 -31.6929 	 61.0242 	 108.869
| 37> H 	 -30.0275 	 60.8956 	 109.526
| 38> H 	 -31.443 	 59.7964 	 109.992
| 39> H 	 -26.6954 	 54.9674 	 112.783
| 40> H 	 -25.294 	 59.9144 	 106.486
| 41> *
| 42>
| 43>                          ****END OF INPUT****

CARTESIAN COORDINATES (ANGSTROEM)
---------------------------------
  S    -26.380800   56.088500  110.611000
  C    -26.901800   55.900300  112.276000
  C    -27.557500   57.064200  112.737000
  C    -27.651300   58.069200  111.764000
  C    -27.117000   57.675100  110.536000
  H    -28.036000   59.055100  111.932000
  C    -28.157200   57.247100  114.113000
  H    -28.049400   58.292700  114.508000
  H    -27.580100   56.583300  114.783000
  C    -29.581400   56.656500  114.220000
  H    -29.614400   55.573300  114.007000
  H    -29.947900   56.683600  115.271000
  C    -30.656200   57.400500  113.364000
  H    -30.714500   58.485500  113.420000
  H    -30.532100   57.029500  112.321000
  H    -31.560900   57.050800  113.619000
  S    -25.462900   58.965200  108.875000
  C    -25.955400   59.564900  107.271000
  C    -27.309700   59.449400  107.175000
  C    -27.935200   58.663000  108.214000
  C    -27.074600   58.330600  109.233000
  H    -27.805800   59.786600  106.291000
  C    -29.468800   58.380400  108.238000
  H    -29.663300   57.993000  109.244000
  H    -29.844300   57.549300  107.605000
  C    -30.471300   59.521700  108.014000
  H    -31.506000   59.150700  107.804000
  H    -30.103900   60.147900  107.263000
  C    -30.930000   60.333300  109.207000
  H    -31.692900   61.024200  108.869000
  H    -30.027500   60.895600  109.526000
  H    -31.443000   59.796400  109.992000
  H    -26.695400   54.967400  112.783000
  H    -25.294000   59.914400  106.486000

 Total Charge           Charge          ....    0
 Multiplicity           Mult            ....    1
 Number of Electrons    NEL             ....  134
 Basis Dimension        Dim             ....  322

ORBITAL ENERGIES
----------------

  NO   OCC          E(Eh)            E(eV)
   0   2.0000     -88.967732     -2420.9351
   1   2.0000     -88.958407     -2420.6813
   2   2.0000     -10.330960      -281.1197
   3   2.0000     -10.327802      -281.0338
   4   2.0000     -10.319000      -280.7943
   5   2.0000     -10.318468      -280.7798
   6   2.0000     -10.309713      -280.5416
   7   2.0000     -10.303598      -280.3752
   8   2.0000     -10.297799      -280.2174
   9   2.0000     -10.295568      -280.1567
  10   2.0000     -10.293357      -280.0965
  11   2.0000     -10.292480      -280.0726
  12   2.0000     -10.292414      -280.0708
  13   2.0000     -10.280989      -279.7599
  14   2.0000     -10.272882      -279.5393
  15   2.0000     -10.269576      -279.4494
  16   2.0000      -8.082399      -219.9332
  17   2.0000      -8.072881      -219.6743
  18   2.0000      -6.040693      -164.3756
  19   2.0000      -6.036832      -164.2705
  20   2.0000      -6.033459      -164.1788
  21   2.0000      -6.031554      -164.1269
  22   2.0000      -6.027338      -164.0122
  23   2.0000      -6.023535      -163.9087
  24   2.0000      -1.004830       -27.3428
  25   2.0000      -0.980941       -26.6927
  26   2.0000      -0.908622       -24.7249
  27   2.0000      -0.905013       -24.6266
  28   2.0000      -0.867349       -23.6018
  29   2.0000      -0.849672       -23.1208
  30   2.0000      -0.844536       -22.9810
  31   2.0000      -0.816112       -22.2075
  32   2.0000      -0.783779       -21.3277
  33   2.0000      -0.772665       -21.0253
  34   2.0000      -0.701772       -19.0962
  35   2.0000      -0.699340       -19.0300
  36   2.0000      -0.690467       -18.7886
  37   2.0000      -0.656310       -17.8591
  38   2.0000      -0.646945       -17.6043
  39   2.0000      -0.617564       -16.8048
  40   2.0000      -0.599726       -16.3194
  41   2.0000      -0.569164       -15.4877
  42   2.0000      -0.557044       -15.1579
  43   2.0000      -0.546821       -14.8798
  44   2.0000      -0.543765       -14.7966
  45   2.0000      -0.530313       -14.4305
  46   2.0000      -0.520275       -14.1574
  47   2.0000      -0.516981       -14.0678
  48   2.0000      -0.504752       -13.7350
  49   2.0000      -0.493515       -13.4292
  50   2.0000      -0.489649       -13.3240
  51   2.0000      -0.484132       -13.1739
  52   2.0000      -0.477383       -12.9902
  53   2.0000      -0.462262       -12.5788
  54   2.0000      -0.460280       -12.5248
  55   2.0000      -0.444353       -12.0915
  56   2.0000      -0.442705       -12.0466
  57   2.0000      -0.440258       -11.9800
  58   2.0000      -0.423180       -11.5153
  59   2.0000      -0.422500       -11.4968
  60   2.0000      -0.419154       -11.4057
  61   2.0000      -0.410399       -11.1675
  62   2.0000      -0.393382       -10.7045
  63   2.0000      -0.339638        -9.2420
  64   2.0000      -0.328364        -8.9352
  65   2.0000      -0.323392        -8.7999
  66   2.0000      -0.304565        -8.2876
  67   0.0000       0.036245         0.9863
  68   0.0000       0.055666         1.5148
  69   0.0000       0.114413         3.1133
  70   0.0000       0.117696         3.2027
  71   0.0000       0.127411         3.4670

MULLIKEN ATOMIC CHARGES
-----------------------
   0 S :    0.127136
   1 C :   -0.133895
   2 C :   -0.084907
   3 C :    0.080419
   4 C :   -0.186216
   5 H :    0.008262
   6 C :    0.062848
   7 H :    0.045701
   8 H :    0.023106
   9 C :   -0.102570
  10 H :    0.032195
  11 H :    0.030229
  12 C :   -0.019258
  13 H :    0.034075
  14 H :    0.040957
  15 H :   -0.002600
  16 S :    0.083433
  17 C :   -0.091658
  18 C :   -0.030421
  19 C :    0.003533
  20 C :   -0.172226
  21 H :    0.015663
  22 C :    0.070486
  23 H :    0.012122
  24 H :    0.043623
  25 C :   -0.089118
  26 H :    0.026207
  27 H :    0.020171
  28 C :   -0.058095
  29 H :    0.027250
  30 H :    0.035622
  31 H :    0.031550
  32 H :    0.052451
  33 H :    0.063925
Sum of atomic charges:   -0.0000000

LOEWDIN ATOMIC CHARGES
----------------------
   0 S :    0.422850
   1 C :   -0.196396
   2 C :   -0.063753
   3 C :   -0.051125
   4 C :   -0.202709
   5 H :    0.033386
   6 C :   -0.036624
   7 H :    0.037490
   8 H :    0.033837
   9 C :   -0.039772
  10 H :    0.028101
  11 H :    0.023364
  12 C :   -0.064531
  13 H :    0.025202
  14 H :    0.032470
  15 H :    0.007897
  16 S :    0.380094
  17 C :   -0.170580
  18 C :   -0.073484
  19 C :   -0.056275
  20 C :   -0.194775
  21 H :    0.026752
  22 C :   -0.037442
  23 H :    0.029796
  24 H :    0.039233
  25 C :   -0.045012
  26 H :    0.033422
  27 H :    0.013473
  28 C :   -0.066146
  29 H :    0.025349
  30 H :    0.024707
  31 H :    0.021972
  32 H :    0.025045
  33 H :    0.034185

  Mayer bond orders larger than 0.100000
B(  0-S ,  1-C ) :   1.1609 B(  0-S ,  4-C ) :   1.1842 B(  1-C ,  2-C ) :   1.5600
B(  1-C ,  4-C ) :   0.1168 B(  1-C , 32-H ) :   0.9738 B(  2-C ,  3-C ) :   1.2683
B(  2-C ,  6-C ) :   1.0225 B(  3-C ,  4-C ) :   1.5449 B(  3-C ,  5-H ) :   1.0057
B(  4-C , 20-C ) :   0.9836 B(  6-C ,  7-H ) :   0.9485 B(  6-C ,  8-H ) :   0.9348
B(  6-C ,  9-C ) :   1.0702 B(  9-C , 10-H ) :   0.9552 B(  9-C , 11-H ) :   0.9602
B(  9-C , 12-C ) :   1.0767 B( 12-C , 13-H ) :   0.9765 B( 12-C , 14-H ) :   0.9723
B( 12-C , 15-H ) :   0.9687 B( 16-S , 17-C ) :   1.1340 B( 16-S , 20-C ) :   1.1430
B( 17-C , 18-C ) :   1.6369 B( 17-C , 33-H ) :   0.9690 B( 18-C , 19-C ) :   1.2080
B( 18-C , 21-H ) :   0.9874 B( 19-C , 20-C ) :   1.6430 B( 19-C , 22-C ) :   1.0251
B( 22-C , 23-H ) :   0.9409 B( 22-C , 24-H ) :   0.9388 B( 22-C , 25-C ) :   1.0605
B( 25-C , 26-H ) :   0.9588 B( 25-C , 27-H ) :   0.9594 B( 25-C , 28-C ) :   1.0855
B( 28-C , 29-H ) :   0.9739 B( 28-C , 30-H ) :   0.9759 B( 28-C , 31-H ) :   0.9733

Dispersion correction           -0.014728481
FINAL SINGLE POINT ENERGY     -1339.862270103697

DIPOLE MOMENT
-------------
                                X             Y             Z
Electronic contribution:     27.33861      -5.42221      -9.50509
Nuclear contribution   :    -27.95544       5.44967       9.67366
                        -----------------------------------------
Total Dipole Moment    :     -0.61684       0.02745       0.16857
                        -----------------------------------------
Magnitude (a.u.)       :      0.64004
Magnitude (Debye)      :      1.62686

Rotational constants in cm-1:     0.017726     0.009908     0.007065
Rotational constants in MHz :   531.415351   297.040540   211.802439

                             ****ORCA TERMINATED NORMALLY****
TOTAL RUN TIME: 0 days 0 hours 0 minutes 30 seconds 710 msec
