                         Program Version 4.2.1 -  RELEASE  -
|  1> ! wB97X-D3 SP def2-SVP
|  2> %pal
|  3> nprocs 16
|  4> end
|  5>
|  6> * xyz 0 1
|  7> S 	 31.7098 	 13.0562 	 70.7335
|  8> C 	 30.3847 	 14.1729 	 70.3357
|  9> C 	 29.6665 	 13.7776 	 69.2297
| 10> C 	 30.1736 	 12.5324 	 68.7248
| 11> C 	 31.2493 	 12.0178 	 69.4271
| 12> H 	 29.8649 	 11.886 	 67.9311
| 13> C 	 28.3318 	 14.4695 	 68.8127
| 14> H 	 28.5327 	 14.8033 	 67.7775
| 15> H 	 28.2429 	 15.3657 	 69.4115
| 16> C 	 27.0165 	 13.6141 	 69.0344
| 17> H 	 27.0859 	 12.5565 	 68.7428
| 18> H 	 26.9284 	 13.6293 	 70.1531
| 19> C 	 25.8728 	 14.2442 	 68.2745
| 20> H 	 25.0546 	 13.5632 	 68.3756
| 21> H 	 25.6192 	 15.2368 	 68.6035
| 22> H 	 26.1355 	 14.2963 	 67.1939
| 23> S 	 33.7073 	 10.8708 	 68.9394
| 24> C 	 33.8582 	 9.15942 	 68.7994
| 25> C 	 32.632 	 8.59444 	 68.9992
| 26> C 	 31.5489 	 9.47478 	 69.2203
| 27> C 	 31.9823 	 10.7926 	 69.2198
| 28> H 	 32.4837 	 7.55052 	 68.79
| 29> C 	 30.1092 	 9.01663 	 69.5627
| 30> H 	 29.7153 	 8.48308 	 68.7311
| 31> H 	 29.4854 	 9.9013 	 69.7611
| 32> C 	 30.1055 	 8.10069 	 70.8172
| 33> H 	 30.6017 	 8.65629 	 71.6189
| 34> H 	 30.5947 	 7.15391 	 70.6082
| 35> C 	 28.7085 	 7.80616 	 71.3617
| 36> H 	 28.1815 	 8.80136 	 71.5741
| 37> H 	 28.7327 	 7.09563 	 72.1876
| 38> H 	 28.1026 	 7.31181 	 70.6118
| 39> H 	 30.0891 	 15.0274 	 70.8555
| 40> H 	 34.7878 	 8.62372 	 68.6142
| 41> *
| 42>
| 43>                          ****END OF INPUT****

CARTESIAN COORDINATES (ANGSTROEM)
---------------------------------
  S     31.709800   13.056200   70.733500
  C     30.384700   14.172900   70.335700
  C     29.666500   13.777600   69.229700
  C     30.173600   12.532400   68.724800
  C     31.249300   12.017800   69.427100
  H     29.864900   11.886000   67.931100
  C     28.331800   14.469500   68.812700
  H     28.532700   14.803300   67.777500
  H     28.242900   15.365700   69.411500
  C     27.016500   13.614100   69.034400
  H     27.085900   12.556500   68.742800
  H     26.928400   13.629300   70.153100
  C     25.872800   14.244200   68.274500
  H     25.054600   13.563200   68.375600
  H     25.619200   15.236800   68.603500
  H     26.135500   14.296300   67.193900
  S     33.707300   10.870800   68.939400
  C     33.858200    9.159420   68.799400
  C     32.632000    8.594440   68.999200
  C     31.548900    9.474780   69.220300
  C     31.982300   10.792600   69.219800
  H     32.483700    7.550520   68.790000
  C     30.109200    9.016630   69.562700
  H     29.715300    8.483080   68.731100
  H     29.485400    9.901300   69.761100
  C     30.105500    8.100690   70.817200
  H     30.601700    8.656290   71.618900
  H     30.594700    7.153910   70.608200
  C     28.708500    7.806160   71.361700
  H     28.181500    8.801360   71.574100
  H     28.732700    7.095630   72.187600
  H     28.102600    7.311810   70.611800
  H     30.089100   15.027400   70.855500
  H     34.787800    8.623720   68.614200

 Total Charge           Charge          ....    0
 Multiplicity           Mult            ....    1
 Number of Electrons    NEL             ....  134
 Basis Dimension        Dim             ....  322

ORBITAL ENERGIES
----------------

  NO   OCC          E(Eh)            E(eV)
   0   2.0000     -88.964618     -2420.8503
   1   2.0000     -88.962993     -2420.8061
   2   2.0000     -10.324414      -280.9416
   3   2.0000     -10.322961      -280.9021
   4   2.0000     -10.315581      -280.7012
   5   2.0000     -10.309209      -280.5278
   6   2.0000     -10.303511      -280.3728
   7   2.0000     -10.301761      -280.3252
   8   2.0000     -10.299640      -280.2675
   9   2.0000     -10.296022      -280.1690
  10   2.0000     -10.293263      -280.0939
  11   2.0000     -10.292645      -280.0771
  12   2.0000     -10.287914      -279.9484
  13   2.0000     -10.284672      -279.8602
  14   2.0000     -10.280571      -279.7486
  15   2.0000     -10.279018      -279.7063
  16   2.0000      -8.079257      -219.8478
  17   2.0000      -8.078391      -219.8242
  18   2.0000      -6.037719      -164.2947
  19   2.0000      -6.036841      -164.2708
  20   2.0000      -6.033834      -164.1890
  21   2.0000      -6.032717      -164.1586
  22   2.0000      -6.030011      -164.0849
  23   2.0000      -6.029251      -164.0643
  24   2.0000      -1.009292       -27.4642
  25   2.0000      -0.984327       -26.7849
  26   2.0000      -0.907827       -24.7032
  27   2.0000      -0.906681       -24.6720
  28   2.0000      -0.873262       -23.7627
  29   2.0000      -0.850935       -23.1551
  30   2.0000      -0.843283       -22.9469
  31   2.0000      -0.815904       -22.2019
  32   2.0000      -0.782127       -21.2828
  33   2.0000      -0.771141       -20.9838
  34   2.0000      -0.706417       -19.2226
  35   2.0000      -0.696030       -18.9399
  36   2.0000      -0.693820       -18.8798
  37   2.0000      -0.657181       -17.8828
  38   2.0000      -0.647360       -17.6156
  39   2.0000      -0.613806       -16.7025
  40   2.0000      -0.597390       -16.2558
  41   2.0000      -0.570912       -15.5353
  42   2.0000      -0.565600       -15.3908
  43   2.0000      -0.562135       -15.2965
  44   2.0000      -0.531372       -14.4594
  45   2.0000      -0.525797       -14.3077
  46   2.0000      -0.514574       -14.0023
  47   2.0000      -0.509538       -13.8652
  48   2.0000      -0.502278       -13.6677
  49   2.0000      -0.501435       -13.6447
  50   2.0000      -0.492056       -13.3895
  51   2.0000      -0.481317       -13.0973
  52   2.0000      -0.472161       -12.8481
  53   2.0000      -0.465847       -12.6763
  54   2.0000      -0.459130       -12.4936
  55   2.0000      -0.448247       -12.1974
  56   2.0000      -0.445880       -12.1330
  57   2.0000      -0.437071       -11.8933
  58   2.0000      -0.429208       -11.6793
  59   2.0000      -0.425779       -11.5860
  60   2.0000      -0.422509       -11.4971
  61   2.0000      -0.416958       -11.3460
  62   2.0000      -0.414357       -11.2752
  63   2.0000      -0.341072        -9.2810
  64   2.0000      -0.333873        -9.0851
  65   2.0000      -0.328082        -8.9276
  66   2.0000      -0.297415        -8.0931
  67   0.0000       0.038335         1.0431
  68   0.0000       0.068880         1.8743
  69   0.0000       0.118240         3.2175
  70   0.0000       0.126073         3.4306
  71   0.0000       0.133101         3.6219

MULLIKEN ATOMIC CHARGES
-----------------------
   0 S :    0.112151
   1 C :   -0.090162
   2 C :   -0.085263
   3 C :    0.050855
   4 C :   -0.190774
   5 H :   -0.001333
   6 C :    0.056166
   7 H :    0.037429
   8 H :    0.014592
   9 C :   -0.096553
  10 H :    0.038073
  11 H :    0.039946
  12 C :   -0.021113
  13 H :    0.030398
  14 H :    0.030751
  15 H :    0.035382
  16 S :    0.111381
  17 C :   -0.093528
  18 C :   -0.034027
  19 C :   -0.024864
  20 C :   -0.182766
  21 H :    0.013157
  22 C :    0.098779
  23 H :    0.021155
  24 H :    0.027321
  25 C :   -0.099630
  26 H :    0.041859
  27 H :    0.031991
  28 C :   -0.050719
  29 H :    0.041157
  30 H :    0.039342
  31 H :    0.016216
  32 H :    0.017745
  33 H :    0.064890
Sum of atomic charges:    0.0000000

LOEWDIN ATOMIC CHARGES
----------------------
   0 S :    0.401012
   1 C :   -0.182894
   2 C :   -0.061255
   3 C :   -0.062682
   4 C :   -0.199023
   5 H :    0.028201
   6 C :   -0.027386
   7 H :    0.030982
   8 H :    0.026021
   9 C :   -0.040728
  10 H :    0.024871
  11 H :    0.030924
  12 C :   -0.061341
  13 H :    0.024315
  14 H :    0.022435
  15 H :    0.031545
  16 S :    0.416742
  17 C :   -0.191742
  18 C :   -0.076772
  19 C :   -0.054021
  20 C :   -0.208826
  21 H :    0.027288
  22 C :   -0.022612
  23 H :    0.024488
  24 H :    0.031412
  25 C :   -0.040187
  26 H :    0.029144
  27 H :    0.021251
  28 C :   -0.070296
  29 H :    0.033344
  30 H :    0.027070
  31 H :    0.018011
  32 H :    0.014874
  33 H :    0.035835

  Mayer bond orders larger than 0.100000
B(  0-S ,  1-C ) :   1.1273 B(  0-S ,  4-C ) :   1.1496 B(  1-C ,  2-C ) :   1.6435
B(  1-C , 32-H ) :   0.9698 B(  2-C ,  3-C ) :   1.1972 B(  2-C ,  6-C ) :   1.0176
B(  3-C ,  4-C ) :   1.6067 B(  3-C ,  5-H ) :   1.0008 B(  4-C , 20-C ) :   1.0243
B(  6-C ,  7-H ) :   0.9430 B(  6-C ,  8-H ) :   0.9445 B(  6-C ,  9-C ) :   1.0405
B(  9-C , 10-H ) :   0.9631 B(  9-C , 11-H ) :   0.9554 B(  9-C , 12-C ) :   1.0790
B( 12-C , 13-H ) :   0.9734 B( 12-C , 14-H ) :   0.9747 B( 12-C , 15-H ) :   0.9744
B( 16-S , 17-C ) :   1.1581 B( 16-S , 20-C ) :   1.1559 B( 17-C , 18-C ) :   1.5954
B( 17-C , 20-C ) :   0.1005 B( 17-C , 33-H ) :   0.9692 B( 18-C , 19-C ) :   1.2600
B( 18-C , 21-H ) :   0.9859 B( 19-C , 20-C ) :   1.5841 B( 19-C , 22-C ) :   1.0408
B( 22-C , 23-H ) :   0.9269 B( 22-C , 24-H ) :   0.9350 B( 22-C , 25-C ) :   1.0691
B( 25-C , 26-H ) :   0.9584 B( 25-C , 27-H ) :   0.9515 B( 25-C , 28-C ) :   1.0935
B( 28-C , 29-H ) :   0.9733 B( 28-C , 30-H ) :   0.9735 B( 28-C , 31-H ) :   0.9715

Dispersion correction           -0.013789281
FINAL SINGLE POINT ENERGY     -1339.891403215656

DIPOLE MOMENT
-------------
                                X             Y             Z
Electronic contribution:     29.68707       5.26367      -0.09685
Nuclear contribution   :    -30.35305      -5.56291      -0.04482
                        -----------------------------------------
Total Dipole Moment    :     -0.66598      -0.29924      -0.14167
                        -----------------------------------------
Magnitude (a.u.)       :      0.74374
Magnitude (Debye)      :      1.89043

Rotational constants in cm-1:     0.017416     0.008518     0.006587
Rotational constants in MHz :   522.109932   255.351537   197.463841

                             ****ORCA TERMINATED NORMALLY****
TOTAL RUN TIME: 0 days 0 hours 0 minutes 29 seconds 469 msec
