                         Program Version 4.2.1 -  RELEASE  -
|  1> ! wB97X-D3 SP def2-SVP
|  2> %pal
|  3> nprocs 16
|  4> end
|  5>
|  6> * xyz 0 1
|  7> S 	 -8.35963 	 51.8085 	 43.9851
|  8> C 	 -9.95802 	 52.0247 	 44.5705
|  9> C 	 -10.6595 	 50.7742 	 44.6885
| 10> C 	 -9.80769 	 49.7239 	 44.2231
| 11> C 	 -8.50266 	 50.0436 	 43.9517
| 12> H 	 -10.0435 	 48.6717 	 44.0838
| 13> C 	 -12.1503 	 50.6154 	 44.9382
| 14> H 	 -12.6169 	 50.9881 	 44.0923
| 15> H 	 -12.3473 	 51.3487 	 45.7289
| 16> C 	 -12.6509 	 49.2468 	 45.2956
| 17> H 	 -13.7269 	 49.3272 	 45.3665
| 18> H 	 -12.3771 	 48.6097 	 44.5192
| 19> C 	 -12.008 	 48.641 	 46.5449
| 20> H 	 -12.3503 	 49.1385 	 47.4593
| 21> H 	 -12.2454 	 47.5876 	 46.6253
| 22> H 	 -10.9563 	 48.699 	 46.7425
| 23> S 	 -6.68424 	 49.4493 	 41.9235
| 24> C 	 -5.57882 	 48.0851 	 42.0952
| 25> C 	 -5.72459 	 47.5492 	 43.342
| 26> C 	 -6.81175 	 48.1228 	 44.1206
| 27> C 	 -7.38929 	 49.1888 	 43.4741
| 28> H 	 -5.03142 	 46.7887 	 43.6164
| 29> C 	 -7.16511 	 47.5301 	 45.4854
| 30> H 	 -6.52012 	 46.636 	 45.7607
| 31> H 	 -8.18765 	 47.255 	 45.4255
| 32> C 	 -6.89035 	 48.5011 	 46.6068
| 33> H 	 -7.12492 	 49.5055 	 46.454
| 34> H 	 -5.81394 	 48.4995 	 46.7708
| 35> C 	 -7.52213 	 48.0321 	 47.9294
| 36> H 	 -7.35392 	 46.9682 	 48.0752
| 37> H 	 -8.63749 	 48.0583 	 47.7633
| 38> H 	 -7.29736 	 48.6502 	 48.8205
| 39> H 	 -10.4192 	 52.9672 	 44.6957
| 40> H 	 -4.89345 	 47.8012 	 41.3332
| 41> *
| 42>
| 43>                          ****END OF INPUT****

CARTESIAN COORDINATES (ANGSTROEM)
---------------------------------
  S     -8.359630   51.808500   43.985100
  C     -9.958020   52.024700   44.570500
  C    -10.659500   50.774200   44.688500
  C     -9.807690   49.723900   44.223100
  C     -8.502660   50.043600   43.951700
  H    -10.043500   48.671700   44.083800
  C    -12.150300   50.615400   44.938200
  H    -12.616900   50.988100   44.092300
  H    -12.347300   51.348700   45.728900
  C    -12.650900   49.246800   45.295600
  H    -13.726900   49.327200   45.366500
  H    -12.377100   48.609700   44.519200
  C    -12.008000   48.641000   46.544900
  H    -12.350300   49.138500   47.459300
  H    -12.245400   47.587600   46.625300
  H    -10.956300   48.699000   46.742500
  S     -6.684240   49.449300   41.923500
  C     -5.578820   48.085100   42.095200
  C     -5.724590   47.549200   43.342000
  C     -6.811750   48.122800   44.120600
  C     -7.389290   49.188800   43.474100
  H     -5.031420   46.788700   43.616400
  C     -7.165110   47.530100   45.485400
  H     -6.520120   46.636000   45.760700
  H     -8.187650   47.255000   45.425500
  C     -6.890350   48.501100   46.606800
  H     -7.124920   49.505500   46.454000
  H     -5.813940   48.499500   46.770800
  C     -7.522130   48.032100   47.929400
  H     -7.353920   46.968200   48.075200
  H     -8.637490   48.058300   47.763300
  H     -7.297360   48.650200   48.820500
  H    -10.419200   52.967200   44.695700
  H     -4.893450   47.801200   41.333200

 Total Charge           Charge          ....    0
 Multiplicity           Mult            ....    1
 Number of Electrons    NEL             ....  134
 Basis Dimension        Dim             ....  322

ORBITAL ENERGIES
----------------

  NO   OCC          E(Eh)            E(eV)
   0   2.0000     -88.966422     -2420.8994
   1   2.0000     -88.963025     -2420.8070
   2   2.0000     -10.329113      -281.0695
   3   2.0000     -10.326345      -280.9941
   4   2.0000     -10.315471      -280.6982
   5   2.0000     -10.314517      -280.6723
   6   2.0000     -10.306657      -280.4584
   7   2.0000     -10.304750      -280.4065
   8   2.0000     -10.293486      -280.1000
   9   2.0000     -10.293332      -280.0958
  10   2.0000     -10.292403      -280.0705
  11   2.0000     -10.286309      -279.9047
  12   2.0000     -10.283632      -279.8319
  13   2.0000     -10.278501      -279.6922
  14   2.0000     -10.273844      -279.5655
  15   2.0000     -10.273275      -279.5500
  16   2.0000      -8.081038      -219.8962
  17   2.0000      -8.078180      -219.8185
  18   2.0000      -6.039392      -164.3402
  19   2.0000      -6.036727      -164.2677
  20   2.0000      -6.035449      -164.2329
  21   2.0000      -6.032555      -164.1542
  22   2.0000      -6.032091      -164.1416
  23   2.0000      -6.028948      -164.0560
  24   2.0000      -1.006067       -27.3765
  25   2.0000      -0.984206       -26.7816
  26   2.0000      -0.918933       -25.0054
  27   2.0000      -0.911551       -24.8046
  28   2.0000      -0.869157       -23.6510
  29   2.0000      -0.847588       -23.0641
  30   2.0000      -0.842852       -22.9352
  31   2.0000      -0.820948       -22.3391
  32   2.0000      -0.784737       -21.3538
  33   2.0000      -0.770527       -20.9671
  34   2.0000      -0.714202       -19.4344
  35   2.0000      -0.699889       -19.0449
  36   2.0000      -0.690331       -18.7849
  37   2.0000      -0.662721       -18.0336
  38   2.0000      -0.645428       -17.5630
  39   2.0000      -0.623001       -16.9527
  40   2.0000      -0.597257       -16.2522
  41   2.0000      -0.572791       -15.5864
  42   2.0000      -0.567181       -15.4338
  43   2.0000      -0.561915       -15.2905
  44   2.0000      -0.536122       -14.5886
  45   2.0000      -0.525577       -14.3017
  46   2.0000      -0.524306       -14.2671
  47   2.0000      -0.513697       -13.9784
  48   2.0000      -0.501357       -13.6426
  49   2.0000      -0.497332       -13.5331
  50   2.0000      -0.491913       -13.3856
  51   2.0000      -0.483400       -13.1540
  52   2.0000      -0.475786       -12.9468
  53   2.0000      -0.466548       -12.6954
  54   2.0000      -0.456175       -12.4132
  55   2.0000      -0.447019       -12.1640
  56   2.0000      -0.441283       -12.0079
  57   2.0000      -0.437197       -11.8967
  58   2.0000      -0.432043       -11.7565
  59   2.0000      -0.426511       -11.6059
  60   2.0000      -0.418293       -11.3823
  61   2.0000      -0.418072       -11.3763
  62   2.0000      -0.409747       -11.1498
  63   2.0000      -0.346518        -9.4292
  64   2.0000      -0.329483        -8.9657
  65   2.0000      -0.325512        -8.8576
  66   2.0000      -0.295970        -8.0538
  67   0.0000       0.035172         0.9571
  68   0.0000       0.065258         1.7758
  69   0.0000       0.119038         3.2392
  70   0.0000       0.126155         3.4329
  71   0.0000       0.129489         3.5236

MULLIKEN ATOMIC CHARGES
-----------------------
   0 S :    0.116863
   1 C :   -0.108779
   2 C :   -0.120352
   3 C :    0.032270
   4 C :   -0.192476
   5 H :    0.014025
   6 C :    0.098349
   7 H :    0.027512
   8 H :    0.021789
   9 C :   -0.021531
  10 H :    0.035989
  11 H :    0.018077
  12 C :   -0.064598
  13 H :    0.019272
  14 H :    0.029971
  15 H :    0.030230
  16 S :    0.103575
  17 C :   -0.096932
  18 C :   -0.016693
  19 C :   -0.043584
  20 C :   -0.147780
  21 H :    0.011205
  22 C :    0.090564
  23 H :    0.033040
  24 H :    0.017542
  25 C :   -0.056321
  26 H :    0.029347
  27 H :    0.019486
  28 C :   -0.060109
  29 H :    0.019004
  30 H :    0.022739
  31 H :    0.048612
  32 H :    0.037501
  33 H :    0.052195
Sum of atomic charges:   -0.0000000

LOEWDIN ATOMIC CHARGES
----------------------
   0 S :    0.417109
   1 C :   -0.204215
   2 C :   -0.058961
   3 C :   -0.067168
   4 C :   -0.193489
   5 H :    0.031256
   6 C :   -0.028076
   7 H :    0.027020
   8 H :    0.033292
   9 C :   -0.032775
  10 H :    0.032525
  11 H :    0.017274
  12 C :   -0.070490
  13 H :    0.026725
  14 H :    0.026416
  15 H :    0.023300
  16 S :    0.407046
  17 C :   -0.173983
  18 C :   -0.068081
  19 C :   -0.051268
  20 C :   -0.213411
  21 H :    0.027868
  22 C :   -0.024647
  23 H :    0.041066
  24 H :    0.022781
  25 C :   -0.037854
  26 H :    0.015620
  27 H :    0.023580
  28 C :   -0.069603
  29 H :    0.020163
  30 H :    0.025510
  31 H :    0.030081
  32 H :    0.019573
  33 H :    0.025813

  Mayer bond orders larger than 0.100000
B(  0-S ,  1-C ) :   1.1765 B(  0-S ,  4-C ) :   1.1458 B(  1-C ,  2-C ) :   1.5612
B(  1-C ,  4-C ) :   0.1106 B(  1-C , 32-H ) :   0.9764 B(  2-C ,  3-C ) :   1.2564
B(  2-C ,  6-C ) :   1.0013 B(  3-C ,  4-C ) :   1.5938 B(  3-C ,  5-H ) :   0.9832
B(  4-C , 20-C ) :   1.0094 B(  6-C ,  7-H ) :   0.9332 B(  6-C ,  8-H ) :   0.9336
B(  6-C ,  9-C ) :   1.0972 B(  9-C , 10-H ) :   0.9504 B(  9-C , 11-H ) :   0.9457
B(  9-C , 12-C ) :   1.0744 B( 12-C , 13-H ) :   0.9692 B( 12-C , 14-H ) :   0.9751
B( 12-C , 15-H ) :   0.9765 B( 16-S , 17-C ) :   1.1476 B( 16-S , 20-C ) :   1.1462
B( 17-C , 18-C ) :   1.6186 B( 17-C , 33-H ) :   0.9740 B( 18-C , 19-C ) :   1.2289
B( 18-C , 21-H ) :   0.9959 B( 19-C , 20-C ) :   1.6133 B( 19-C , 22-C ) :   1.0303
B( 22-C , 23-H ) :   0.9369 B( 22-C , 24-H ) :   0.9350 B( 22-C , 25-C ) :   1.0585
B( 25-C , 26-H ) :   0.9622 B( 25-C , 27-H ) :   0.9508 B( 25-C , 28-C ) :   1.0818
B( 28-C , 29-H ) :   0.9669 B( 28-C , 30-H ) :   0.9767 B( 28-C , 31-H ) :   0.9724

Dispersion correction           -0.015436802
FINAL SINGLE POINT ENERGY     -1339.877032347221

DIPOLE MOMENT
-------------
                                X             Y             Z
Electronic contribution:     13.87476      12.33942     -22.50472
Nuclear contribution   :    -14.19555     -12.70821      22.74617
                        -----------------------------------------
Total Dipole Moment    :     -0.32078      -0.36878       0.24145
                        -----------------------------------------
Magnitude (a.u.)       :      0.54516
Magnitude (Debye)      :      1.38569

Rotational constants in cm-1:     0.017804     0.009978     0.007819
Rotational constants in MHz :   533.761767   299.132816   234.397990

                             ****ORCA TERMINATED NORMALLY****
TOTAL RUN TIME: 0 days 0 hours 0 minutes 35 seconds 335 msec
