                         Program Version 4.2.1 -  RELEASE  -
|  1> ! wB97X-D3 SP def2-SVP
|  2> %pal
|  3> nprocs 16
|  4> end
|  5>
|  6> * xyz 0 1
|  7> S 	 -4.45358 	 11.0543 	 79.3227
|  8> C 	 -4.67676 	 9.33742 	 79.7275
|  9> C 	 -4.85053 	 9.085 	 81.0696
| 10> C 	 -4.58314 	 10.2914 	 81.7955
| 11> C 	 -4.34597 	 11.3898 	 81.0158
| 12> H 	 -4.63458 	 10.421 	 82.821
| 13> C 	 -5.25203 	 7.78312 	 81.7073
| 14> H 	 -4.54963 	 7.53278 	 82.5181
| 15> H 	 -4.98162 	 7.05272 	 80.9366
| 16> C 	 -6.66009 	 7.67873 	 82.2432
| 17> H 	 -6.75821 	 6.80253 	 82.9689
| 18> H 	 -6.88645 	 8.55788 	 82.877
| 19> C 	 -7.74595 	 7.65089 	 81.0828
| 20> H 	 -7.94223 	 8.59015 	 80.5347
| 21> H 	 -7.46671 	 6.84211 	 80.4217
| 22> H 	 -8.68387 	 7.5314 	 81.5208
| 23> S 	 -2.1412 	 12.6085 	 81.8973
| 24> C 	 -2.23963 	 14.2227 	 82.5132
| 25> C 	 -3.52533 	 14.7749 	 82.4041
| 26> C 	 -4.44644 	 13.862 	 81.7841
| 27> C 	 -3.80976 	 12.6952 	 81.409
| 28> H 	 -3.75987 	 15.7331 	 82.8075
| 29> C 	 -5.93068 	 14.0439 	 81.6587
| 30> H 	 -6.33191 	 14.5611 	 82.4687
| 31> H 	 -6.41668 	 13.08 	 81.6624
| 32> C 	 -6.37606 	 14.6689 	 80.3234
| 33> H 	 -5.898 	 14.1567 	 79.4912
| 34> H 	 -6.04287 	 15.7058 	 80.1767
| 35> C 	 -7.933 	 14.5891 	 80.1864
| 36> H 	 -8.18469 	 13.5428 	 80.2088
| 37> H 	 -8.35447 	 15.0081 	 79.28
| 38> H 	 -8.37286 	 15.1113 	 81.1014
| 39> H 	 -4.79346 	 8.58534 	 78.9659
| 40> H 	 -1.2789 	 14.6748 	 82.8728
| 41> *
| 42>
| 43>                          ****END OF INPUT****

CARTESIAN COORDINATES (ANGSTROEM)
---------------------------------
  S     -4.453580   11.054300   79.322700
  C     -4.676760    9.337420   79.727500
  C     -4.850530    9.085000   81.069600
  C     -4.583140   10.291400   81.795500
  C     -4.345970   11.389800   81.015800
  H     -4.634580   10.421000   82.821000
  C     -5.252030    7.783120   81.707300
  H     -4.549630    7.532780   82.518100
  H     -4.981620    7.052720   80.936600
  C     -6.660090    7.678730   82.243200
  H     -6.758210    6.802530   82.968900
  H     -6.886450    8.557880   82.877000
  C     -7.745950    7.650890   81.082800
  H     -7.942230    8.590150   80.534700
  H     -7.466710    6.842110   80.421700
  H     -8.683870    7.531400   81.520800
  S     -2.141200   12.608500   81.897300
  C     -2.239630   14.222700   82.513200
  C     -3.525330   14.774900   82.404100
  C     -4.446440   13.862000   81.784100
  C     -3.809760   12.695200   81.409000
  H     -3.759870   15.733100   82.807500
  C     -5.930680   14.043900   81.658700
  H     -6.331910   14.561100   82.468700
  H     -6.416680   13.080000   81.662400
  C     -6.376060   14.668900   80.323400
  H     -5.898000   14.156700   79.491200
  H     -6.042870   15.705800   80.176700
  C     -7.933000   14.589100   80.186400
  H     -8.184690   13.542800   80.208800
  H     -8.354470   15.008100   79.280000
  H     -8.372860   15.111300   81.101400
  H     -4.793460    8.585340   78.965900
  H     -1.278900   14.674800   82.872800

 Total Charge           Charge          ....    0
 Multiplicity           Mult            ....    1
 Number of Electrons    NEL             ....  134
 Basis Dimension        Dim             ....  322

ORBITAL ENERGIES
----------------

  NO   OCC          E(Eh)            E(eV)
   0   2.0000     -88.963788     -2420.8277
   1   2.0000     -88.963554     -2420.8214
   2   2.0000     -10.321317      -280.8573
   3   2.0000     -10.321225      -280.8548
   4   2.0000     -10.318059      -280.7687
   5   2.0000     -10.312522      -280.6180
   6   2.0000     -10.302769      -280.3526
   7   2.0000     -10.300037      -280.2782
   8   2.0000     -10.298957      -280.2489
   9   2.0000     -10.296792      -280.1899
  10   2.0000     -10.293578      -280.1025
  11   2.0000     -10.285870      -279.8927
  12   2.0000     -10.284253      -279.8488
  13   2.0000     -10.283989      -279.8416
  14   2.0000     -10.280132      -279.7366
  15   2.0000     -10.275898      -279.6214
  16   2.0000      -8.079032      -219.8417
  17   2.0000      -8.078625      -219.8306
  18   2.0000      -6.037326      -164.2840
  19   2.0000      -6.037024      -164.2758
  20   2.0000      -6.033448      -164.1785
  21   2.0000      -6.033296      -164.1743
  22   2.0000      -6.029965      -164.0837
  23   2.0000      -6.029325      -164.0663
  24   2.0000      -1.007964       -27.4281
  25   2.0000      -0.982987       -26.7484
  26   2.0000      -0.911495       -24.8030
  27   2.0000      -0.908852       -24.7311
  28   2.0000      -0.863233       -23.4898
  29   2.0000      -0.848903       -23.0998
  30   2.0000      -0.844629       -22.9835
  31   2.0000      -0.810171       -22.0459
  32   2.0000      -0.786189       -21.3933
  33   2.0000      -0.771148       -20.9840
  34   2.0000      -0.706453       -19.2236
  35   2.0000      -0.698181       -18.9985
  36   2.0000      -0.686624       -18.6840
  37   2.0000      -0.665416       -18.1069
  38   2.0000      -0.644916       -17.5490
  39   2.0000      -0.618887       -16.8408
  40   2.0000      -0.600815       -16.3490
  41   2.0000      -0.567726       -15.4486
  42   2.0000      -0.560897       -15.2628
  43   2.0000      -0.551241       -15.0000
  44   2.0000      -0.537824       -14.6349
  45   2.0000      -0.522658       -14.2222
  46   2.0000      -0.518751       -14.1159
  47   2.0000      -0.510402       -13.8887
  48   2.0000      -0.503624       -13.7043
  49   2.0000      -0.489758       -13.3270
  50   2.0000      -0.487902       -13.2765
  51   2.0000      -0.474080       -12.9004
  52   2.0000      -0.463940       -12.6245
  53   2.0000      -0.460649       -12.5349
  54   2.0000      -0.458332       -12.4719
  55   2.0000      -0.448757       -12.2113
  56   2.0000      -0.443968       -12.0810
  57   2.0000      -0.441351       -12.0098
  58   2.0000      -0.436676       -11.8826
  59   2.0000      -0.428468       -11.6592
  60   2.0000      -0.425462       -11.5774
  61   2.0000      -0.418355       -11.3840
  62   2.0000      -0.411393       -11.1946
  63   2.0000      -0.337805        -9.1921
  64   2.0000      -0.327804        -8.9200
  65   2.0000      -0.320879        -8.7316
  66   2.0000      -0.306665        -8.3448
  67   0.0000       0.049029         1.3342
  68   0.0000       0.054971         1.4958
  69   0.0000       0.103314         2.8113
  70   0.0000       0.115812         3.1514
  71   0.0000       0.133796         3.6408

MULLIKEN ATOMIC CHARGES
-----------------------
   0 S :    0.109890
   1 C :   -0.126145
   2 C :   -0.082437
   3 C :    0.061555
   4 C :   -0.184078
   5 H :   -0.018688
   6 C :    0.081935
   7 H :    0.030646
   8 H :    0.016884
   9 C :   -0.094330
  10 H :    0.045960
  11 H :    0.032457
  12 C :   -0.035478
  13 H :    0.043446
  14 H :    0.033464
  15 H :    0.015910
  16 S :    0.124350
  17 C :   -0.124937
  18 C :   -0.011819
  19 C :   -0.015390
  20 C :   -0.170393
  21 H :    0.008111
  22 C :    0.107618
  23 H :    0.004762
  24 H :    0.017705
  25 C :   -0.081223
  26 H :    0.019911
  27 H :    0.025494
  28 C :   -0.053755
  29 H :    0.029739
  30 H :    0.039175
  31 H :    0.036616
  32 H :    0.035314
  33 H :    0.077731
Sum of atomic charges:   -0.0000000

LOEWDIN ATOMIC CHARGES
----------------------
   0 S :    0.400260
   1 C :   -0.182060
   2 C :   -0.059945
   3 C :   -0.053937
   4 C :   -0.204931
   5 H :    0.019396
   6 C :   -0.039096
   7 H :    0.035454
   8 H :    0.030749
   9 C :   -0.042627
  10 H :    0.033804
  11 H :    0.026287
  12 C :   -0.064064
  13 H :    0.033475
  14 H :    0.023426
  15 H :    0.017530
  16 S :    0.428541
  17 C :   -0.194707
  18 C :   -0.068328
  19 C :   -0.047710
  20 C :   -0.213747
  21 H :    0.027165
  22 C :   -0.024464
  23 H :    0.021221
  24 H :    0.032133
  25 C :   -0.037146
  26 H :    0.018729
  27 H :    0.020300
  28 C :   -0.066463
  29 H :    0.021560
  30 H :    0.024156
  31 H :    0.031184
  32 H :    0.019268
  33 H :    0.034587

  Mayer bond orders larger than 0.100000
B(  0-S ,  1-C ) :   1.1377 B(  0-S ,  4-C ) :   1.1512 B(  1-C ,  2-C ) :   1.6350
B(  1-C , 32-H ) :   0.9653 B(  2-C ,  3-C ) :   1.2013 B(  2-C ,  6-C ) :   1.0215
B(  3-C ,  4-C ) :   1.6191 B(  3-C ,  5-H ) :   1.0116 B(  4-C , 20-C ) :   0.9705
B(  6-C ,  7-H ) :   0.9335 B(  6-C ,  8-H ) :   0.9395 B(  6-C ,  9-C ) :   1.0685
B(  9-C , 10-H ) :   0.9571 B(  9-C , 11-H ) :   0.9553 B(  9-C , 12-C ) :   1.0634
B( 12-C , 13-H ) :   0.9749 B( 12-C , 14-H ) :   0.9799 B( 12-C , 15-H ) :   0.9731
B( 16-S , 17-C ) :   1.1800 B( 16-S , 20-C ) :   1.1612 B( 17-C , 18-C ) :   1.5726
B( 17-C , 33-H ) :   0.9634 B( 18-C , 19-C ) :   1.2457 B( 18-C , 21-H ) :   1.0017
B( 19-C , 20-C ) :   1.6015 B( 19-C , 22-C ) :   1.0505 B( 22-C , 23-H ) :   0.9301
B( 22-C , 24-H ) :   0.9263 B( 22-C , 25-C ) :   1.0564 B( 25-C , 26-H ) :   0.9548
B( 25-C , 27-H ) :   0.9575 B( 25-C , 28-C ) :   1.0729 B( 28-C , 29-H ) :   0.9772
B( 28-C , 30-H ) :   0.9758 B( 28-C , 31-H ) :   0.9747

Dispersion correction           -0.014694904
FINAL SINGLE POINT ENERGY     -1339.882942219563

DIPOLE MOMENT
-------------
                                X             Y             Z
Electronic contribution:     23.70703       5.24104      -2.25439
Nuclear contribution   :    -24.09048      -5.36898       2.63547
                        -----------------------------------------
Total Dipole Moment    :     -0.38346      -0.12794       0.38108
                        -----------------------------------------
Magnitude (a.u.)       :      0.55554
Magnitude (Debye)      :      1.41208

Rotational constants in cm-1:     0.018224     0.008974     0.007226
Rotational constants in MHz :   546.354313   269.027411   216.630562

                             ****ORCA TERMINATED NORMALLY****
TOTAL RUN TIME: 0 days 0 hours 0 minutes 35 seconds 155 msec
