                         Program Version 4.2.1 -  RELEASE  -
|  1> ! wB97X-D3 SP def2-SVP
|  2> %pal
|  3> nprocs 16
|  4> end
|  5>
|  6> * xyz 0 1
|  7> S 	 48.3203 	 20.5061 	 89.8576
|  8> C 	 49.9156 	 20.8242 	 90.6314
|  9> C 	 50.5511 	 19.6499 	 90.9409
| 10> C 	 49.9749 	 18.556 	 90.2171
| 11> C 	 48.6656 	 18.795 	 89.8537
| 12> H 	 50.4123 	 17.6552 	 90.0722
| 13> C 	 51.8315 	 19.5013 	 91.7167
| 14> H 	 52.3763 	 20.4398 	 91.8725
| 15> H 	 52.608 	 19.0887 	 91.1385
| 16> C 	 51.678 	 18.9146 	 93.1419
| 17> H 	 50.8718 	 19.4573 	 93.5523
| 18> H 	 51.4499 	 17.8421 	 93.1565
| 19> C 	 52.9852 	 18.9249 	 93.9304
| 20> H 	 53.3965 	 19.8564 	 94.3076
| 21> H 	 52.8694 	 18.2147 	 94.8053
| 22> H 	 53.8113 	 18.4046 	 93.3819
| 23> S 	 47.3769 	 16.403 	 89.8301
| 24> C 	 46.7986 	 15.7939 	 88.2885
| 25> C 	 46.699 	 16.7978 	 87.3691
| 26> C 	 47.3294 	 18.0157 	 87.7589
| 27> C 	 47.8544 	 17.8687 	 89.0606
| 28> H 	 46.2664 	 16.6609 	 86.3998
| 29> C 	 47.3442 	 19.2317 	 86.8707
| 30> H 	 47.3438 	 20.1632 	 87.471
| 31> H 	 46.4088 	 19.2758 	 86.3667
| 32> C 	 48.5006 	 19.1374 	 85.9996
| 33> H 	 48.4121 	 19.9115 	 85.2078
| 34> H 	 48.4533 	 18.2067 	 85.5135
| 35> C 	 49.8696 	 19.3504 	 86.7627
| 36> H 	 50.3053 	 18.481 	 87.2885
| 37> H 	 49.8063 	 20.2304 	 87.4516
| 38> H 	 50.7129 	 19.5131 	 86.1088
| 39> H 	 50.2778 	 21.755 	 91.1257
| 40> H 	 46.4246 	 14.79 	 88.109
| 41> *
| 42>
| 43>                          ****END OF INPUT****

CARTESIAN COORDINATES (ANGSTROEM)
---------------------------------
  S     48.320300   20.506100   89.857600
  C     49.915600   20.824200   90.631400
  C     50.551100   19.649900   90.940900
  C     49.974900   18.556000   90.217100
  C     48.665600   18.795000   89.853700
  H     50.412300   17.655200   90.072200
  C     51.831500   19.501300   91.716700
  H     52.376300   20.439800   91.872500
  H     52.608000   19.088700   91.138500
  C     51.678000   18.914600   93.141900
  H     50.871800   19.457300   93.552300
  H     51.449900   17.842100   93.156500
  C     52.985200   18.924900   93.930400
  H     53.396500   19.856400   94.307600
  H     52.869400   18.214700   94.805300
  H     53.811300   18.404600   93.381900
  S     47.376900   16.403000   89.830100
  C     46.798600   15.793900   88.288500
  C     46.699000   16.797800   87.369100
  C     47.329400   18.015700   87.758900
  C     47.854400   17.868700   89.060600
  H     46.266400   16.660900   86.399800
  C     47.344200   19.231700   86.870700
  H     47.343800   20.163200   87.471000
  H     46.408800   19.275800   86.366700
  C     48.500600   19.137400   85.999600
  H     48.412100   19.911500   85.207800
  H     48.453300   18.206700   85.513500
  C     49.869600   19.350400   86.762700
  H     50.305300   18.481000   87.288500
  H     49.806300   20.230400   87.451600
  H     50.712900   19.513100   86.108800
  H     50.277800   21.755000   91.125700
  H     46.424600   14.790000   88.109000

 Total Charge           Charge          ....    0
 Multiplicity           Mult            ....    1
 Number of Electrons    NEL             ....  134
 Basis Dimension        Dim             ....  322

ORBITAL ENERGIES
----------------

  NO   OCC          E(Eh)            E(eV)
   0   2.0000     -88.967934     -2420.9406
   1   2.0000     -88.965878     -2420.8846
   2   2.0000     -10.325899      -280.9820
   3   2.0000     -10.322131      -280.8795
   4   2.0000     -10.318485      -280.7802
   5   2.0000     -10.312804      -280.6257
   6   2.0000     -10.300915      -280.3022
   7   2.0000     -10.298561      -280.2381
   8   2.0000     -10.288770      -279.9717
   9   2.0000     -10.288022      -279.9513
  10   2.0000     -10.287188      -279.9286
  11   2.0000     -10.286833      -279.9189
  12   2.0000     -10.285760      -279.8898
  13   2.0000     -10.280429      -279.7447
  14   2.0000     -10.278727      -279.6984
  15   2.0000     -10.272698      -279.5343
  16   2.0000      -8.081227      -219.9014
  17   2.0000      -8.080823      -219.8904
  18   2.0000      -6.039936      -164.3550
  19   2.0000      -6.039199      -164.3350
  20   2.0000      -6.036028      -164.2487
  21   2.0000      -6.035464      -164.2333
  22   2.0000      -6.031749      -164.1322
  23   2.0000      -6.031565      -164.1272
  24   2.0000      -1.007296       -27.4099
  25   2.0000      -0.983913       -26.7736
  26   2.0000      -0.918614       -24.9968
  27   2.0000      -0.912473       -24.8296
  28   2.0000      -0.868961       -23.6456
  29   2.0000      -0.849570       -23.1180
  30   2.0000      -0.836421       -22.7602
  31   2.0000      -0.812378       -22.1059
  32   2.0000      -0.784285       -21.3415
  33   2.0000      -0.772087       -21.0096
  34   2.0000      -0.706790       -19.2327
  35   2.0000      -0.703548       -19.1445
  36   2.0000      -0.689682       -18.7672
  37   2.0000      -0.662484       -18.0271
  38   2.0000      -0.639956       -17.4141
  39   2.0000      -0.623531       -16.9671
  40   2.0000      -0.602748       -16.4016
  41   2.0000      -0.574579       -15.6351
  42   2.0000      -0.561069       -15.2675
  43   2.0000      -0.555365       -15.1123
  44   2.0000      -0.539890       -14.6912
  45   2.0000      -0.524328       -14.2677
  46   2.0000      -0.514935       -14.0121
  47   2.0000      -0.504967       -13.7409
  48   2.0000      -0.498981       -13.5780
  49   2.0000      -0.496891       -13.5211
  50   2.0000      -0.485236       -13.2039
  51   2.0000      -0.473795       -12.8926
  52   2.0000      -0.465229       -12.6595
  53   2.0000      -0.462797       -12.5933
  54   2.0000      -0.456868       -12.4320
  55   2.0000      -0.450885       -12.2692
  56   2.0000      -0.447053       -12.1649
  57   2.0000      -0.438916       -11.9435
  58   2.0000      -0.433738       -11.8026
  59   2.0000      -0.424808       -11.5596
  60   2.0000      -0.416068       -11.3218
  61   2.0000      -0.410390       -11.1673
  62   2.0000      -0.409686       -11.1481
  63   2.0000      -0.338633        -9.2147
  64   2.0000      -0.331604        -9.0234
  65   2.0000      -0.328009        -8.9256
  66   2.0000      -0.292430        -7.9574
  67   0.0000       0.029007         0.7893
  68   0.0000       0.071716         1.9515
  69   0.0000       0.109543         2.9808
  70   0.0000       0.113430         3.0866
  71   0.0000       0.116714         3.1760

MULLIKEN ATOMIC CHARGES
-----------------------
   0 S :    0.088408
   1 C :   -0.124768
   2 C :   -0.067648
   3 C :    0.063112
   4 C :   -0.122669
   5 H :   -0.021710
   6 C :    0.060996
   7 H :    0.002349
   8 H :    0.008574
   9 C :   -0.035852
  10 H :    0.028170
  11 H :    0.032894
  12 C :   -0.083123
  13 H :    0.038785
  14 H :    0.036131
  15 H :    0.030861
  16 S :    0.122763
  17 C :   -0.093727
  18 C :   -0.023666
  19 C :   -0.059180
  20 C :   -0.188458
  21 H :    0.008337
  22 C :    0.096683
  23 H :    0.027365
  24 H :    0.012568
  25 C :   -0.016859
  26 H :    0.026690
  27 H :    0.008778
  28 C :   -0.065579
  29 H :    0.035244
  30 H :    0.042506
  31 H :    0.018882
  32 H :    0.059542
  33 H :    0.053599
Sum of atomic charges:    0.0000000

LOEWDIN ATOMIC CHARGES
----------------------
   0 S :    0.401594
   1 C :   -0.189549
   2 C :   -0.057459
   3 C :   -0.034991
   4 C :   -0.192353
   5 H :    0.011754
   6 C :   -0.040097
   7 H :    0.031223
   8 H :    0.024667
   9 C :   -0.033199
  10 H :    0.021969
  11 H :    0.028964
  12 C :   -0.075268
  13 H :    0.020060
  14 H :    0.033896
  15 H :    0.030153
  16 S :    0.420250
  17 C :   -0.189812
  18 C :   -0.066133
  19 C :   -0.051593
  20 C :   -0.209432
  21 H :    0.027385
  22 C :   -0.037898
  23 H :    0.019557
  24 H :    0.028198
  25 C :   -0.033016
  26 H :    0.025322
  27 H :    0.016665
  28 C :   -0.074262
  29 H :    0.029120
  30 H :    0.025833
  31 H :    0.021912
  32 H :    0.037165
  33 H :    0.029375

  Mayer bond orders larger than 0.100000
B(  0-S ,  1-C ) :   1.1135 B(  0-S ,  4-C ) :   1.1341 B(  1-C ,  2-C ) :   1.6471
B(  1-C , 32-H ) :   0.9550 B(  2-C ,  3-C ) :   1.2011 B(  2-C ,  6-C ) :   1.0395
B(  3-C ,  4-C ) :   1.6035 B(  3-C ,  5-H ) :   0.9988 B(  4-C , 20-C ) :   1.0159
B(  6-C ,  7-H ) :   0.9382 B(  6-C ,  8-H ) :   0.9335 B(  6-C ,  9-C ) :   1.0485
B(  9-C , 10-H ) :   0.9570 B(  9-C , 11-H ) :   0.9570 B(  9-C , 12-C ) :   1.0786
B( 12-C , 13-H ) :   0.9762 B( 12-C , 14-H ) :   0.9757 B( 12-C , 15-H ) :   0.9712
B( 16-S , 17-C ) :   1.1449 B( 16-S , 20-C ) :   1.1709 B( 17-C , 18-C ) :   1.6025
B( 17-C , 33-H ) :   0.9687 B( 18-C , 19-C ) :   1.2635 B( 18-C , 21-H ) :   0.9860
B( 19-C , 20-C ) :   1.5593 B( 19-C , 22-C ) :   1.0255 B( 22-C , 23-H ) :   0.9310
B( 22-C , 24-H ) :   0.9241 B( 22-C , 25-C ) :   1.0877 B( 25-C , 26-H ) :   0.9518
B( 25-C , 27-H ) :   0.9513 B( 25-C , 28-C ) :   1.0661 B( 28-C , 29-H ) :   0.9699
B( 28-C , 30-H ) :   0.9728 B( 28-C , 31-H ) :   0.9717

Dispersion correction           -0.015930256
FINAL SINGLE POINT ENERGY     -1339.854426240887

DIPOLE MOMENT
-------------
                                X             Y             Z
Electronic contribution:    -18.98573      -4.39323      -1.02416
Nuclear contribution   :     19.39000       4.33867       0.89533
                        -----------------------------------------
Total Dipole Moment    :      0.40427      -0.05456      -0.12882
                        -----------------------------------------
Magnitude (a.u.)       :      0.42779
Magnitude (Debye)      :      1.08736

Rotational constants in cm-1:     0.022710     0.008454     0.007107
Rotational constants in MHz :   680.843479   253.441264   213.049731

                             ****ORCA TERMINATED NORMALLY****
TOTAL RUN TIME: 0 days 0 hours 0 minutes 30 seconds 474 msec
