                         Program Version 4.2.1 -  RELEASE  -
|  1> ! wB97X-D3 SP def2-SVP
|  2> %pal
|  3> nprocs 16
|  4> end
|  5>
|  6> * xyz 0 1
|  7> S 	 -36.5166 	 54.5677 	 109.118
|  8> C 	 -37.3322 	 55.7334 	 110.013
|  9> C 	 -38.5538 	 55.2847 	 110.528
| 10> C 	 -38.5619 	 53.8253 	 110.441
| 11> C 	 -37.5186 	 53.267 	 109.689
| 12> H 	 -39.1608 	 53.0546 	 110.907
| 13> C 	 -39.5605 	 55.9185 	 111.519
| 14> H 	 -39.0659 	 56.8148 	 111.932
| 15> H 	 -39.6738 	 55.2716 	 112.373
| 16> C 	 -40.9199 	 56.249 	 110.967
| 17> H 	 -40.6957 	 56.9295 	 110.118
| 18> H 	 -41.3158 	 55.3831 	 110.517
| 19> C 	 -41.8465 	 56.8663 	 112.039
| 20> H 	 -41.8383 	 56.1975 	 112.922
| 21> H 	 -41.6307 	 57.9298 	 112.147
| 22> H 	 -42.8512 	 56.9683 	 111.611
| 23> S 	 -35.5232 	 51.2655 	 109.504
| 24> C 	 -35.9679 	 49.622 	 109.157
| 25> C 	 -37.2962 	 49.4047 	 109.141
| 26> C 	 -37.9725 	 50.6815 	 109.128
| 27> C 	 -37.1985 	 51.8113 	 109.439
| 28> H 	 -37.7832 	 48.4618 	 109.016
| 29> C 	 -39.4509 	 50.7056 	 108.894
| 30> H 	 -39.4413 	 50.1525 	 107.933
| 31> H 	 -39.7389 	 51.7024 	 108.507
| 32> C 	 -40.3433 	 50.306 	 110.032
| 33> H 	 -40.0399 	 50.77 	 110.963
| 34> H 	 -40.0841 	 49.2975 	 110.377
| 35> C 	 -41.8439 	 50.4671 	 109.721
| 36> H 	 -42.0722 	 51.4206 	 109.224
| 37> H 	 -42.4584 	 50.3973 	 110.637
| 38> H 	 -42.2908 	 49.7233 	 109.052
| 39> H 	 -37.0082 	 56.8153 	 109.995
| 40> H 	 -35.334 	 48.7764 	 108.968
| 41> *
| 42>
| 43>                          ****END OF INPUT****

CARTESIAN COORDINATES (ANGSTROEM)
---------------------------------
  S    -36.516600   54.567700  109.118000
  C    -37.332200   55.733400  110.013000
  C    -38.553800   55.284700  110.528000
  C    -38.561900   53.825300  110.441000
  C    -37.518600   53.267000  109.689000
  H    -39.160800   53.054600  110.907000
  C    -39.560500   55.918500  111.519000
  H    -39.065900   56.814800  111.932000
  H    -39.673800   55.271600  112.373000
  C    -40.919900   56.249000  110.967000
  H    -40.695700   56.929500  110.118000
  H    -41.315800   55.383100  110.517000
  C    -41.846500   56.866300  112.039000
  H    -41.838300   56.197500  112.922000
  H    -41.630700   57.929800  112.147000
  H    -42.851200   56.968300  111.611000
  S    -35.523200   51.265500  109.504000
  C    -35.967900   49.622000  109.157000
  C    -37.296200   49.404700  109.141000
  C    -37.972500   50.681500  109.128000
  C    -37.198500   51.811300  109.439000
  H    -37.783200   48.461800  109.016000
  C    -39.450900   50.705600  108.894000
  H    -39.441300   50.152500  107.933000
  H    -39.738900   51.702400  108.507000
  C    -40.343300   50.306000  110.032000
  H    -40.039900   50.770000  110.963000
  H    -40.084100   49.297500  110.377000
  C    -41.843900   50.467100  109.721000
  H    -42.072200   51.420600  109.224000
  H    -42.458400   50.397300  110.637000
  H    -42.290800   49.723300  109.052000
  H    -37.008200   56.815300  109.995000
  H    -35.334000   48.776400  108.968000

 Total Charge           Charge          ....    0
 Multiplicity           Mult            ....    1
 Number of Electrons    NEL             ....  134
 Basis Dimension        Dim             ....  322

ORBITAL ENERGIES
----------------

  NO   OCC          E(Eh)            E(eV)
   0   2.0000     -88.966114     -2420.8910
   1   2.0000     -88.963650     -2420.8240
   2   2.0000     -10.332310      -281.1564
   3   2.0000     -10.332267      -281.1553
   4   2.0000     -10.320580      -280.8373
   5   2.0000     -10.314412      -280.6694
   6   2.0000     -10.309501      -280.5358
   7   2.0000     -10.302801      -280.3535
   8   2.0000     -10.296925      -280.1936
   9   2.0000     -10.291278      -280.0399
  10   2.0000     -10.290433      -280.0169
  11   2.0000     -10.290209      -280.0108
  12   2.0000     -10.286861      -279.9197
  13   2.0000     -10.284373      -279.8520
  14   2.0000     -10.283662      -279.8327
  15   2.0000     -10.281682      -279.7788
  16   2.0000      -8.082298      -219.9305
  17   2.0000      -8.078442      -219.8256
  18   2.0000      -6.040722      -164.3764
  19   2.0000      -6.037100      -164.2779
  20   2.0000      -6.036425      -164.2595
  21   2.0000      -6.033239      -164.1728
  22   2.0000      -6.032941      -164.1647
  23   2.0000      -6.029039      -164.0585
  24   2.0000      -1.006652       -27.3924
  25   2.0000      -0.989426       -26.9236
  26   2.0000      -0.913033       -24.8449
  27   2.0000      -0.911240       -24.7961
  28   2.0000      -0.868617       -23.6363
  29   2.0000      -0.850376       -23.1399
  30   2.0000      -0.846224       -23.0269
  31   2.0000      -0.817349       -22.2412
  32   2.0000      -0.780562       -21.2402
  33   2.0000      -0.769226       -20.9317
  34   2.0000      -0.713170       -19.4063
  35   2.0000      -0.699994       -19.0478
  36   2.0000      -0.690317       -18.7845
  37   2.0000      -0.663511       -18.0551
  38   2.0000      -0.645765       -17.5721
  39   2.0000      -0.615098       -16.7377
  40   2.0000      -0.595789       -16.2122
  41   2.0000      -0.577693       -15.7198
  42   2.0000      -0.564853       -15.3704
  43   2.0000      -0.548022       -14.9124
  44   2.0000      -0.532875       -14.5003
  45   2.0000      -0.518996       -14.1226
  46   2.0000      -0.518497       -14.1090
  47   2.0000      -0.508156       -13.8276
  48   2.0000      -0.506490       -13.7823
  49   2.0000      -0.497946       -13.5498
  50   2.0000      -0.493996       -13.4423
  51   2.0000      -0.482925       -13.1411
  52   2.0000      -0.470510       -12.8032
  53   2.0000      -0.467322       -12.7165
  54   2.0000      -0.462096       -12.5743
  55   2.0000      -0.453722       -12.3464
  56   2.0000      -0.444815       -12.1040
  57   2.0000      -0.437576       -11.9070
  58   2.0000      -0.433689       -11.8013
  59   2.0000      -0.421118       -11.4592
  60   2.0000      -0.419090       -11.4040
  61   2.0000      -0.415298       -11.3008
  62   2.0000      -0.399021       -10.8579
  63   2.0000      -0.351352        -9.5608
  64   2.0000      -0.328976        -8.9519
  65   2.0000      -0.327907        -8.9228
  66   2.0000      -0.293170        -7.9776
  67   0.0000       0.029822         0.8115
  68   0.0000       0.080134         2.1806
  69   0.0000       0.112063         3.0494
  70   0.0000       0.117684         3.2023
  71   0.0000       0.133703         3.6383

MULLIKEN ATOMIC CHARGES
-----------------------
   0 S :    0.126855
   1 C :   -0.141198
   2 C :   -0.054674
   3 C :    0.016063
   4 C :   -0.159698
   5 H :    0.003051
   6 C :    0.033271
   7 H :    0.017043
   8 H :    0.020877
   9 C :   -0.065994
  10 H :    0.026021
  11 H :    0.014310
  12 C :   -0.031901
  13 H :    0.047316
  14 H :    0.035047
  15 H :    0.030622
  16 S :    0.098328
  17 C :   -0.059630
  18 C :   -0.018386
  19 C :   -0.109473
  20 C :   -0.119377
  21 H :    0.018053
  22 C :    0.035153
  23 H :    0.031018
  24 H :    0.017232
  25 C :   -0.020619
  26 H :    0.019785
  27 H :    0.009330
  28 C :   -0.045348
  29 H :    0.031951
  30 H :    0.035291
  31 H :    0.033803
  32 H :    0.077454
  33 H :    0.048424
Sum of atomic charges:   -0.0000000

LOEWDIN ATOMIC CHARGES
----------------------
   0 S :    0.438223
   1 C :   -0.219794
   2 C :   -0.066827
   3 C :   -0.059664
   4 C :   -0.205879
   5 H :    0.029084
   6 C :   -0.031337
   7 H :    0.028534
   8 H :    0.024843
   9 C :   -0.042962
  10 H :    0.027814
  11 H :    0.014892
  12 C :   -0.066775
  13 H :    0.031787
  14 H :    0.030164
  15 H :    0.029749
  16 S :    0.397879
  17 C :   -0.176636
  18 C :   -0.071393
  19 C :   -0.054641
  20 C :   -0.203064
  21 H :    0.031747
  22 C :   -0.047256
  23 H :    0.038077
  24 H :    0.029414
  25 C :   -0.045232
  26 H :    0.025555
  27 H :    0.025587
  28 C :   -0.068249
  29 H :    0.026870
  30 H :    0.029811
  31 H :    0.027529
  32 H :    0.041551
  33 H :    0.030602

  Mayer bond orders larger than 0.100000
B(  0-S ,  1-C ) :   1.1804 B(  0-S ,  4-C ) :   1.1534 B(  1-C ,  2-C ) :   1.5815
B(  1-C , 32-H ) :   0.9576 B(  2-C ,  3-C ) :   1.2212 B(  2-C ,  6-C ) :   1.0237
B(  3-C ,  4-C ) :   1.5902 B(  3-C ,  5-H ) :   0.9907 B(  4-C , 20-C ) :   1.0289
B(  6-C ,  7-H ) :   0.9481 B(  6-C ,  8-H ) :   0.9479 B(  6-C ,  9-C ) :   1.0564
B(  9-C , 10-H ) :   0.9531 B(  9-C , 11-H ) :   0.9569 B(  9-C , 12-C ) :   1.0802
B( 12-C , 13-H ) :   0.9730 B( 12-C , 14-H ) :   0.9727 B( 12-C , 15-H ) :   0.9724
B( 16-S , 17-C ) :   1.1574 B( 16-S , 20-C ) :   1.1106 B( 17-C , 18-C ) :   1.6210
B( 17-C , 33-H ) :   0.9625 B( 18-C , 19-C ) :   1.2341 B( 18-C , 21-H ) :   0.9915
B( 19-C , 20-C ) :   1.6060 B( 19-C , 22-C ) :   1.0458 B( 22-C , 23-H ) :   0.9313
B( 22-C , 24-H ) :   0.9333 B( 22-C , 25-C ) :   1.0526 B( 25-C , 26-H ) :   0.9484
B( 25-C , 27-H ) :   0.9435 B( 25-C , 28-C ) :   1.0724 B( 28-C , 29-H ) :   0.9755
B( 28-C , 30-H ) :   0.9747 B( 28-C , 31-H ) :   0.9763

Dispersion correction           -0.013790742
FINAL SINGLE POINT ENERGY     -1339.862896759064

DIPOLE MOMENT
-------------
                                X             Y             Z
Electronic contribution:     31.51023      -3.79665      -8.54050
Nuclear contribution   :    -32.16204       3.66224       8.70367
                        -----------------------------------------
Total Dipole Moment    :     -0.65181      -0.13441       0.16317
                        -----------------------------------------
Magnitude (a.u.)       :      0.68523
Magnitude (Debye)      :      1.74172

Rotational constants in cm-1:     0.017591     0.008788     0.006145
Rotational constants in MHz :   527.363570   263.457173   184.224442

                             ****ORCA TERMINATED NORMALLY****
TOTAL RUN TIME: 0 days 0 hours 0 minutes 29 seconds 651 msec
