                         Program Version 4.2.1 -  RELEASE  -
|  1> ! wB97X-D3 SP def2-SVP
|  2> %pal
|  3> nprocs 16
|  4> end
|  5>
|  6> * xyz 0 1
|  7> S 	 16.0829 	 -9.58016 	 80.2115
|  8> C 	 15.5314 	 -10.1814 	 81.7484
|  9> C 	 16.6282 	 -10.5012 	 82.5792
| 10> C 	 17.8791 	 -10.1618 	 81.9197
| 11> C 	 17.6562 	 -9.43907 	 80.738
| 12> H 	 18.8908 	 -10.2191 	 82.2514
| 13> C 	 16.6122 	 -11.2707 	 83.8843
| 14> H 	 15.5747 	 -11.4997 	 84.1483
| 15> H 	 16.948 	 -10.5792 	 84.5529
| 16> C 	 17.4422 	 -12.612 	 83.8733
| 17> H 	 18.3441 	 -12.3211 	 83.4165
| 18> H 	 17.6354 	 -13.1361 	 84.7877
| 19> C 	 16.7817 	 -13.6852 	 82.9326
| 20> H 	 17.1574 	 -14.6365 	 83.1017
| 21> H 	 15.6904 	 -13.6296 	 83.2267
| 22> H 	 16.8456 	 -13.4369 	 81.8283
| 23> S 	 18.7226 	 -6.90421 	 80.1017
| 24> C 	 20.152 	 -6.88561 	 79.0492
| 25> C 	 20.7813 	 -8.10754 	 78.9888
| 26> C 	 20.0091 	 -9.11905 	 79.6797
| 27> C 	 18.7074 	 -8.69633 	 79.9992
| 28> H 	 21.6694 	 -8.1888 	 78.4376
| 29> C 	 20.6793 	 -10.5341 	 79.7309
| 30> H 	 20.1071 	 -10.9814 	 80.5519
| 31> H 	 21.699 	 -10.508 	 79.979
| 32> C 	 20.4452 	 -11.4019 	 78.3928
| 33> H 	 20.9201 	 -10.9742 	 77.5295
| 34> H 	 19.3875 	 -11.3759 	 78.193
| 35> C 	 20.9061 	 -12.9077 	 78.5317
| 36> H 	 21.9606 	 -12.9781 	 78.4069
| 37> H 	 20.495 	 -13.5297 	 77.7822
| 38> H 	 20.6893 	 -13.2944 	 79.5087
| 39> H 	 14.5156 	 -10.4017 	 82.0171
| 40> H 	 20.4925 	 -5.94581 	 78.6962
| 41> *
| 42>
| 43>                          ****END OF INPUT****

CARTESIAN COORDINATES (ANGSTROEM)
---------------------------------
  S     16.082900   -9.580160   80.211500
  C     15.531400  -10.181400   81.748400
  C     16.628200  -10.501200   82.579200
  C     17.879100  -10.161800   81.919700
  C     17.656200   -9.439070   80.738000
  H     18.890800  -10.219100   82.251400
  C     16.612200  -11.270700   83.884300
  H     15.574700  -11.499700   84.148300
  H     16.948000  -10.579200   84.552900
  C     17.442200  -12.612000   83.873300
  H     18.344100  -12.321100   83.416500
  H     17.635400  -13.136100   84.787700
  C     16.781700  -13.685200   82.932600
  H     17.157400  -14.636500   83.101700
  H     15.690400  -13.629600   83.226700
  H     16.845600  -13.436900   81.828300
  S     18.722600   -6.904210   80.101700
  C     20.152000   -6.885610   79.049200
  C     20.781300   -8.107540   78.988800
  C     20.009100   -9.119050   79.679700
  C     18.707400   -8.696330   79.999200
  H     21.669400   -8.188800   78.437600
  C     20.679300  -10.534100   79.730900
  H     20.107100  -10.981400   80.551900
  H     21.699000  -10.508000   79.979000
  C     20.445200  -11.401900   78.392800
  H     20.920100  -10.974200   77.529500
  H     19.387500  -11.375900   78.193000
  C     20.906100  -12.907700   78.531700
  H     21.960600  -12.978100   78.406900
  H     20.495000  -13.529700   77.782200
  H     20.689300  -13.294400   79.508700
  H     14.515600  -10.401700   82.017100
  H     20.492500   -5.945810   78.696200

 Total Charge           Charge          ....    0
 Multiplicity           Mult            ....    1
 Number of Electrons    NEL             ....  134
 Basis Dimension        Dim             ....  322

ORBITAL ENERGIES
----------------

  NO   OCC          E(Eh)            E(eV)
   0   2.0000     -88.968103     -2420.9452
   1   2.0000     -88.961639     -2420.7693
   2   2.0000     -10.332584      -281.1639
   3   2.0000     -10.324916      -280.9552
   4   2.0000     -10.316594      -280.7288
   5   2.0000     -10.314907      -280.6829
   6   2.0000     -10.312351      -280.6133
   7   2.0000     -10.308707      -280.5142
   8   2.0000     -10.296807      -280.1904
   9   2.0000     -10.294240      -280.1205
  10   2.0000     -10.292169      -280.0642
  11   2.0000     -10.289724      -279.9976
  12   2.0000     -10.289391      -279.9886
  13   2.0000     -10.287256      -279.9305
  14   2.0000     -10.279178      -279.7107
  15   2.0000     -10.272129      -279.5188
  16   2.0000      -8.084321      -219.9856
  17   2.0000      -8.075740      -219.7520
  18   2.0000      -6.042573      -164.4268
  19   2.0000      -6.038633      -164.3195
  20   2.0000      -6.035244      -164.2273
  21   2.0000      -6.034332      -164.2025
  22   2.0000      -6.030704      -164.1038
  23   2.0000      -6.026075      -163.9778
  24   2.0000      -1.007898       -27.4263
  25   2.0000      -0.980482       -26.6803
  26   2.0000      -0.910686       -24.7810
  27   2.0000      -0.893287       -24.3076
  28   2.0000      -0.864172       -23.5153
  29   2.0000      -0.846832       -23.0435
  30   2.0000      -0.842629       -22.9291
  31   2.0000      -0.810935       -22.0667
  32   2.0000      -0.784189       -21.3389
  33   2.0000      -0.772414       -21.0185
  34   2.0000      -0.710365       -19.3300
  35   2.0000      -0.703249       -19.1364
  36   2.0000      -0.690326       -18.7847
  37   2.0000      -0.660731       -17.9794
  38   2.0000      -0.644368       -17.5341
  39   2.0000      -0.617659       -16.8074
  40   2.0000      -0.591601       -16.0983
  41   2.0000      -0.571287       -15.5455
  42   2.0000      -0.563844       -15.3430
  43   2.0000      -0.558079       -15.1861
  44   2.0000      -0.545223       -14.8363
  45   2.0000      -0.523584       -14.2475
  46   2.0000      -0.519068       -14.1245
  47   2.0000      -0.506688       -13.7877
  48   2.0000      -0.499256       -13.5854
  49   2.0000      -0.491718       -13.3803
  50   2.0000      -0.488525       -13.2934
  51   2.0000      -0.481955       -13.1147
  52   2.0000      -0.468102       -12.7377
  53   2.0000      -0.462002       -12.5717
  54   2.0000      -0.455403       -12.3922
  55   2.0000      -0.453894       -12.3511
  56   2.0000      -0.440407       -11.9841
  57   2.0000      -0.439689       -11.9646
  58   2.0000      -0.435484       -11.8501
  59   2.0000      -0.427895       -11.6436
  60   2.0000      -0.425262       -11.5720
  61   2.0000      -0.417006       -11.3473
  62   2.0000      -0.413471       -11.2511
  63   2.0000      -0.337822        -9.1926
  64   2.0000      -0.327543        -8.9129
  65   2.0000      -0.322940        -8.7876
  66   2.0000      -0.297782        -8.1031
  67   0.0000       0.026529         0.7219
  68   0.0000       0.063684         1.7329
  69   0.0000       0.097294         2.6475
  70   0.0000       0.106736         2.9044
  71   0.0000       0.139257         3.7894

MULLIKEN ATOMIC CHARGES
-----------------------
   0 S :    0.141029
   1 C :   -0.109710
   2 C :   -0.125589
   3 C :    0.031287
   4 C :   -0.198835
   5 H :    0.019435
   6 C :    0.115970
   7 H :    0.012182
   8 H :    0.018966
   9 C :   -0.052681
  10 H :    0.015737
  11 H :    0.035301
  12 C :   -0.079392
  13 H :    0.026469
  14 H :    0.027882
  15 H :    0.055363
  16 S :    0.085266
  17 C :   -0.077604
  18 C :    0.001679
  19 C :   -0.059736
  20 C :   -0.128310
  21 H :    0.008120
  22 C :    0.077927
  23 H :    0.009674
  24 H :    0.024470
  25 C :   -0.069349
  26 H :    0.025721
  27 H :    0.030881
  28 C :   -0.021249
  29 H :    0.019461
  30 H :    0.029608
  31 H :    0.024258
  32 H :    0.040899
  33 H :    0.044871
Sum of atomic charges:    0.0000000

LOEWDIN ATOMIC CHARGES
----------------------
   0 S :    0.457076
   1 C :   -0.208074
   2 C :   -0.051951
   3 C :   -0.067137
   4 C :   -0.228189
   5 H :    0.024714
   6 C :   -0.021395
   7 H :    0.025753
   8 H :    0.021057
   9 C :   -0.028418
  10 H :    0.013839
  11 H :    0.024696
  12 C :   -0.064627
  13 H :    0.012286
  14 H :    0.028050
  15 H :    0.034326
  16 S :    0.370009
  17 C :   -0.155993
  18 C :   -0.064616
  19 C :   -0.041975
  20 C :   -0.193844
  21 H :    0.026209
  22 C :   -0.023655
  23 H :    0.027154
  24 H :    0.022012
  25 C :   -0.027140
  26 H :    0.018839
  27 H :    0.023220
  28 C :   -0.059357
  29 H :    0.020165
  30 H :    0.023129
  31 H :    0.021900
  32 H :    0.024752
  33 H :    0.017185

  Mayer bond orders larger than 0.100000
B(  0-S ,  1-C ) :   1.1493 B(  0-S ,  4-C ) :   1.1977 B(  1-C ,  2-C ) :   1.5827
B(  1-C , 32-H ) :   0.9731 B(  2-C ,  3-C ) :   1.2485 B(  2-C ,  6-C ) :   1.0144
B(  3-C ,  4-C ) :   1.5474 B(  3-C ,  5-H ) :   0.9842 B(  4-C , 20-C ) :   1.0136
B(  6-C ,  7-H ) :   0.9459 B(  6-C ,  8-H ) :   0.9323 B(  6-C ,  9-C ) :   1.0615
B(  9-C , 10-H ) :   0.9579 B(  9-C , 11-H ) :   0.9631 B(  9-C , 12-C ) :   1.0632
B( 12-C , 13-H ) :   0.9785 B( 12-C , 14-H ) :   0.9789 B( 12-C , 15-H ) :   0.9770
B( 16-S , 17-C ) :   1.1482 B( 16-S , 20-C ) :   1.1235 B( 17-C , 18-C ) :   1.6244
B( 17-C , 33-H ) :   0.9733 B( 18-C , 19-C ) :   1.1906 B( 18-C , 21-H ) :   1.0054
B( 19-C , 20-C ) :   1.6134 B( 19-C , 22-C ) :   1.0416 B( 22-C , 23-H ) :   0.9310
B( 22-C , 24-H ) :   0.9447 B( 22-C , 25-C ) :   1.0561 B( 25-C , 26-H ) :   0.9625
B( 25-C , 27-H ) :   0.9605 B( 25-C , 28-C ) :   1.0734 B( 28-C , 29-H ) :   0.9770
B( 28-C , 30-H ) :   0.9762 B( 28-C , 31-H ) :   0.9784

Dispersion correction           -0.014639739
FINAL SINGLE POINT ENERGY     -1339.839326584780

DIPOLE MOMENT
-------------
                                X             Y             Z
Electronic contribution:     -8.58421      26.81699      -5.43258
Nuclear contribution   :      9.05612     -27.28951       5.62074
                        -----------------------------------------
Total Dipole Moment    :      0.47190      -0.47252       0.18817
                        -----------------------------------------
Magnitude (a.u.)       :      0.69381
Magnitude (Debye)      :      1.76352

Rotational constants in cm-1:     0.016798     0.009553     0.007116
Rotational constants in MHz :   503.605029   286.381881   213.330200

                             ****ORCA TERMINATED NORMALLY****
TOTAL RUN TIME: 0 days 0 hours 0 minutes 30 seconds 658 msec
