                         Program Version 4.2.1 -  RELEASE  -
|  1> ! wB97X-D3 SP def2-SVP
|  2> %pal
|  3> nprocs 16
|  4> end
|  5>
|  6> * xyz 0 1
|  7> S 	 -46.9189 	 31.093 	 90.3029
|  8> C 	 -47.9316 	 29.8046 	 89.5464
|  9> C 	 -48.4441 	 30.3127 	 88.2826
| 10> C 	 -47.9021 	 31.6182 	 87.9766
| 11> C 	 -47.129 	 32.1846 	 88.9594
| 12> H 	 -48.1882 	 32.1893 	 87.0332
| 13> C 	 -49.1822 	 29.4267 	 87.3698
| 14> H 	 -48.4135 	 28.9211 	 86.8126
| 15> H 	 -49.7715 	 30.0431 	 86.6928
| 16> C 	 -50.0026 	 28.2084 	 87.8037
| 17> H 	 -49.2837 	 27.511 	 88.3466
| 18> H 	 -50.7813 	 28.5778 	 88.5196
| 19> C 	 -50.6433 	 27.3755 	 86.7396
| 20> H 	 -49.877 	 27.0829 	 86.0149
| 21> H 	 -51.1076 	 26.4903 	 87.1404
| 22> H 	 -51.4402 	 27.9665 	 86.3707
| 23> S 	 -44.9869 	 34.0537 	 88.5633
| 24> C 	 -45.2584 	 35.6658 	 89.2418
| 25> C 	 -46.526 	 35.8764 	 89.715
| 26> C 	 -47.3484 	 34.6978 	 89.5553
| 27> C 	 -46.646 	 33.5469 	 89.0958
| 28> H 	 -46.7765 	 36.8804 	 90.0798
| 29> C 	 -48.8306 	 34.7698 	 89.8486
| 30> H 	 -49.2919 	 33.9308 	 89.2893
| 31> H 	 -49.2995 	 35.6462 	 89.3959
| 32> C 	 -49.0796 	 34.764 	 91.3252
| 33> H 	 -48.2307 	 35.2273 	 91.9094
| 34> H 	 -49.2216 	 33.6711 	 91.6611
| 35> C 	 -50.509 	 35.2074 	 91.5879
| 36> H 	 -51.2182 	 34.4537 	 91.1753
| 37> H 	 -50.7162 	 36.2142 	 91.1604
| 38> H 	 -50.838 	 35.0617 	 92.6391
| 39> H 	 -47.9725 	 28.8075 	 89.9375
| 40> H 	 -44.4955 	 36.4705 	 89.3168
| 41> *
| 42>
| 43>                          ****END OF INPUT****

CARTESIAN COORDINATES (ANGSTROEM)
---------------------------------
  S    -46.918900   31.093000   90.302900
  C    -47.931600   29.804600   89.546400
  C    -48.444100   30.312700   88.282600
  C    -47.902100   31.618200   87.976600
  C    -47.129000   32.184600   88.959400
  H    -48.188200   32.189300   87.033200
  C    -49.182200   29.426700   87.369800
  H    -48.413500   28.921100   86.812600
  H    -49.771500   30.043100   86.692800
  C    -50.002600   28.208400   87.803700
  H    -49.283700   27.511000   88.346600
  H    -50.781300   28.577800   88.519600
  C    -50.643300   27.375500   86.739600
  H    -49.877000   27.082900   86.014900
  H    -51.107600   26.490300   87.140400
  H    -51.440200   27.966500   86.370700
  S    -44.986900   34.053700   88.563300
  C    -45.258400   35.665800   89.241800
  C    -46.526000   35.876400   89.715000
  C    -47.348400   34.697800   89.555300
  C    -46.646000   33.546900   89.095800
  H    -46.776500   36.880400   90.079800
  C    -48.830600   34.769800   89.848600
  H    -49.291900   33.930800   89.289300
  H    -49.299500   35.646200   89.395900
  C    -49.079600   34.764000   91.325200
  H    -48.230700   35.227300   91.909400
  H    -49.221600   33.671100   91.661100
  C    -50.509000   35.207400   91.587900
  H    -51.218200   34.453700   91.175300
  H    -50.716200   36.214200   91.160400
  H    -50.838000   35.061700   92.639100
  H    -47.972500   28.807500   89.937500
  H    -44.495500   36.470500   89.316800

 Total Charge           Charge          ....    0
 Multiplicity           Mult            ....    1
 Number of Electrons    NEL             ....  134
 Basis Dimension        Dim             ....  322

ORBITAL ENERGIES
----------------

  NO   OCC          E(Eh)            E(eV)
   0   2.0000     -88.965908     -2420.8854
   1   2.0000     -88.964455     -2420.8459
   2   2.0000     -10.331444      -281.1329
   3   2.0000     -10.329939      -281.0919
   4   2.0000     -10.323180      -280.9080
   5   2.0000     -10.321314      -280.8572
   6   2.0000     -10.313593      -280.6471
   7   2.0000     -10.309521      -280.5363
   8   2.0000     -10.304863      -280.4096
   9   2.0000     -10.295369      -280.1512
  10   2.0000     -10.294326      -280.1228
  11   2.0000     -10.289538      -279.9926
  12   2.0000     -10.288615      -279.9674
  13   2.0000     -10.286512      -279.9102
  14   2.0000     -10.281331      -279.7692
  15   2.0000     -10.277717      -279.6709
  16   2.0000      -8.079226      -219.8469
  17   2.0000      -8.078295      -219.8216
  18   2.0000      -6.037882      -164.2991
  19   2.0000      -6.036783      -164.2692
  20   2.0000      -6.034033      -164.1944
  21   2.0000      -6.032731      -164.1590
  22   2.0000      -6.029816      -164.0796
  23   2.0000      -6.029303      -164.0657
  24   2.0000      -0.995821       -27.0977
  25   2.0000      -0.973106       -26.4796
  26   2.0000      -0.919996       -25.0344
  27   2.0000      -0.911447       -24.8017
  28   2.0000      -0.869366       -23.6567
  29   2.0000      -0.848261       -23.0824
  30   2.0000      -0.843996       -22.9663
  31   2.0000      -0.815283       -22.1850
  32   2.0000      -0.784323       -21.3425
  33   2.0000      -0.762401       -20.7460
  34   2.0000      -0.704216       -19.1627
  35   2.0000      -0.695841       -18.9348
  36   2.0000      -0.685058       -18.6414
  37   2.0000      -0.650505       -17.7012
  38   2.0000      -0.638919       -17.3859
  39   2.0000      -0.611991       -16.6531
  40   2.0000      -0.593722       -16.1560
  41   2.0000      -0.583026       -15.8650
  42   2.0000      -0.571446       -15.5498
  43   2.0000      -0.562515       -15.3068
  44   2.0000      -0.528180       -14.3725
  45   2.0000      -0.518773       -14.1165
  46   2.0000      -0.517713       -14.0877
  47   2.0000      -0.514584       -14.0025
  48   2.0000      -0.508652       -13.8411
  49   2.0000      -0.502797       -13.6818
  50   2.0000      -0.496851       -13.5200
  51   2.0000      -0.476082       -12.9548
  52   2.0000      -0.466132       -12.6841
  53   2.0000      -0.461779       -12.5656
  54   2.0000      -0.454831       -12.3766
  55   2.0000      -0.453921       -12.3518
  56   2.0000      -0.441727       -12.0200
  57   2.0000      -0.430788       -11.7223
  58   2.0000      -0.427577       -11.6350
  59   2.0000      -0.424236       -11.5441
  60   2.0000      -0.417623       -11.3641
  61   2.0000      -0.406457       -11.0603
  62   2.0000      -0.399080       -10.8595
  63   2.0000      -0.333347        -9.0708
  64   2.0000      -0.328647        -8.9429
  65   2.0000      -0.311766        -8.4836
  66   2.0000      -0.309034        -8.4093
  67   0.0000       0.038411         1.0452
  68   0.0000       0.047049         1.2803
  69   0.0000       0.104347         2.8394
  70   0.0000       0.119231         3.2444
  71   0.0000       0.123452         3.3593

MULLIKEN ATOMIC CHARGES
-----------------------
   0 S :    0.112585
   1 C :   -0.139297
   2 C :   -0.088825
   3 C :    0.037846
   4 C :   -0.177229
   5 H :    0.042101
   6 C :    0.055047
   7 H :    0.036831
   8 H :    0.019319
   9 C :   -0.136764
  10 H :    0.028674
  11 H :    0.035624
  12 C :   -0.000345
  13 H :    0.034212
  14 H :    0.033666
  15 H :    0.024109
  16 S :    0.103509
  17 C :   -0.102171
  18 C :   -0.032613
  19 C :   -0.029328
  20 C :   -0.174247
  21 H :    0.030727
  22 C :    0.083048
  23 H :    0.028031
  24 H :    0.023611
  25 C :   -0.112836
  26 H :    0.058495
  27 H :    0.042210
  28 C :   -0.062286
  29 H :    0.027563
  30 H :    0.038667
  31 H :    0.033770
  32 H :    0.059781
  33 H :    0.066517
Sum of atomic charges:    0.0000000

LOEWDIN ATOMIC CHARGES
----------------------
   0 S :    0.400624
   1 C :   -0.188835
   2 C :   -0.054959
   3 C :   -0.068477
   4 C :   -0.203566
   5 H :    0.045987
   6 C :   -0.045219
   7 H :    0.039652
   8 H :    0.027244
   9 C :   -0.046714
  10 H :    0.023798
  11 H :    0.024689
  12 C :   -0.056525
  13 H :    0.028427
  14 H :    0.029977
  15 H :    0.022266
  16 S :    0.370424
  17 C :   -0.176031
  18 C :   -0.080620
  19 C :   -0.035222
  20 C :   -0.202120
  21 H :    0.038591
  22 C :   -0.038686
  23 H :    0.035552
  24 H :    0.028632
  25 C :   -0.054855
  26 H :    0.031794
  27 H :    0.040627
  28 C :   -0.077898
  29 H :    0.030963
  30 H :    0.021207
  31 H :    0.028947
  32 H :    0.023581
  33 H :    0.036743

  Mayer bond orders larger than 0.100000
B(  0-S ,  1-C ) :   1.1425 B(  0-S ,  4-C ) :   1.1642 B(  1-C ,  2-C ) :   1.5527
B(  1-C ,  4-C ) :   0.1075 B(  1-C , 32-H ) :   0.9751 B(  2-C ,  3-C ) :   1.2554
B(  2-C ,  6-C ) :   1.0428 B(  3-C ,  4-C ) :   1.5774 B(  3-C ,  5-H ) :   0.9810
B(  4-C , 20-C ) :   1.0294 B(  6-C ,  7-H ) :   0.9242 B(  6-C ,  8-H ) :   0.9398
B(  6-C ,  9-C ) :   1.0660 B(  9-C , 10-H ) :   0.9461 B(  9-C , 11-H ) :   0.9562
B(  9-C , 12-C ) :   1.0944 B( 12-C , 13-H ) :   0.9715 B( 12-C , 14-H ) :   0.9692
B( 12-C , 15-H ) :   0.9728 B( 16-S , 17-C ) :   1.1493 B( 16-S , 20-C ) :   1.1078
B( 17-C , 18-C ) :   1.6504 B( 17-C , 33-H ) :   0.9568 B( 18-C , 19-C ) :   1.2091
B( 18-C , 21-H ) :   0.9859 B( 19-C , 20-C ) :   1.6122 B( 19-C , 22-C ) :   1.0425
B( 22-C , 23-H ) :   0.9193 B( 22-C , 24-H ) :   0.9471 B( 22-C , 25-C ) :   1.0486
B( 25-C , 26-H ) :   0.9666 B( 25-C , 27-H ) :   0.9472 B( 25-C , 28-C ) :   1.0717
B( 28-C , 29-H ) :   0.9686 B( 28-C , 30-H ) :   0.9746 B( 28-C , 31-H ) :   0.9719

Dispersion correction           -0.013906188
FINAL SINGLE POINT ENERGY     -1339.855919667544

DIPOLE MOMENT
-------------
                                X             Y             Z
Electronic contribution:     25.51990       7.57340       1.22072
Nuclear contribution   :    -26.12228      -7.65405      -1.43543
                        -----------------------------------------
Total Dipole Moment    :     -0.60238      -0.08066      -0.21471
                        -----------------------------------------
Magnitude (a.u.)       :      0.64457
Magnitude (Debye)      :      1.63836

Rotational constants in cm-1:     0.020262     0.007303     0.006126
Rotational constants in MHz :   607.437273   218.936594   183.639072

                             ****ORCA TERMINATED NORMALLY****
TOTAL RUN TIME: 0 days 0 hours 0 minutes 28 seconds 554 msec
