                         Program Version 4.2.1 -  RELEASE  -
|  1> ! wB97X-D3 SP def2-SVP
|  2> %pal
|  3> nprocs 16
|  4> end
|  5>
|  6> * xyz 0 1
|  7> S 	 -89.978 	 44.2923 	 112.745
|  8> C 	 -88.5156 	 45.2059 	 113.102
|  9> C 	 -88.7081 	 46.0104 	 114.183
| 10> C 	 -90.0623 	 45.9027 	 114.636
| 11> C 	 -90.8965 	 45.003 	 114.028
| 12> H 	 -90.5159 	 46.4108 	 115.417
| 13> C 	 -87.7239 	 46.871 	 114.854
| 14> H 	 -88.1723 	 47.7137 	 115.406
| 15> H 	 -87.149 	 47.2449 	 113.999
| 16> C 	 -86.726 	 46.154 	 115.783
| 17> H 	 -86.3939 	 45.1311 	 115.311
| 18> H 	 -85.8274 	 46.7733 	 115.729
| 19> C 	 -87.1849 	 45.9652 	 117.231
| 20> H 	 -86.2665 	 45.7694 	 117.81
| 21> H 	 -87.6431 	 46.7957 	 117.688
| 22> H 	 -87.8539 	 45.1264 	 117.321
| 23> S 	 -93.2505 	 44.055 	 113.05
| 24> C 	 -94.6287 	 43.9328 	 114.052
| 25> C 	 -94.3329 	 44.215 	 115.376
| 26> C 	 -92.9556 	 44.587 	 115.567
| 27> C 	 -92.2405 	 44.5722 	 114.389
| 28> H 	 -95.1286 	 44.0912 	 116.132
| 29> C 	 -92.4584 	 44.8811 	 116.979
| 30> H 	 -92.5201 	 45.9802 	 117.152
| 31> H 	 -91.4571 	 44.6027 	 116.95
| 32> C 	 -93.0741 	 44.0366 	 118.099
| 33> H 	 -92.7649 	 42.9652 	 118.014
| 34> H 	 -94.1975 	 44.0817 	 118.38
| 35> C 	 -92.3906 	 44.4598 	 119.435
| 36> H 	 -91.331 	 44.5001 	 119.428
| 37> H 	 -92.6557 	 43.8611 	 120.256
| 38> H 	 -92.7637 	 45.4299 	 119.791
| 39> H 	 -87.5329 	 45.0307 	 112.669
| 40> H 	 -95.6167 	 43.6378 	 113.716
| 41> *
| 42>
| 43>                          ****END OF INPUT****

CARTESIAN COORDINATES (ANGSTROEM)
---------------------------------
  S    -89.978000   44.292300  112.745000
  C    -88.515600   45.205900  113.102000
  C    -88.708100   46.010400  114.183000
  C    -90.062300   45.902700  114.636000
  C    -90.896500   45.003000  114.028000
  H    -90.515900   46.410800  115.417000
  C    -87.723900   46.871000  114.854000
  H    -88.172300   47.713700  115.406000
  H    -87.149000   47.244900  113.999000
  C    -86.726000   46.154000  115.783000
  H    -86.393900   45.131100  115.311000
  H    -85.827400   46.773300  115.729000
  C    -87.184900   45.965200  117.231000
  H    -86.266500   45.769400  117.810000
  H    -87.643100   46.795700  117.688000
  H    -87.853900   45.126400  117.321000
  S    -93.250500   44.055000  113.050000
  C    -94.628700   43.932800  114.052000
  C    -94.332900   44.215000  115.376000
  C    -92.955600   44.587000  115.567000
  C    -92.240500   44.572200  114.389000
  H    -95.128600   44.091200  116.132000
  C    -92.458400   44.881100  116.979000
  H    -92.520100   45.980200  117.152000
  H    -91.457100   44.602700  116.950000
  C    -93.074100   44.036600  118.099000
  H    -92.764900   42.965200  118.014000
  H    -94.197500   44.081700  118.380000
  C    -92.390600   44.459800  119.435000
  H    -91.331000   44.500100  119.428000
  H    -92.655700   43.861100  120.256000
  H    -92.763700   45.429900  119.791000
  H    -87.532900   45.030700  112.669000
  H    -95.616700   43.637800  113.716000

 Total Charge           Charge          ....    0
 Multiplicity           Mult            ....    1
 Number of Electrons    NEL             ....  134
 Basis Dimension        Dim             ....  322

ORBITAL ENERGIES
----------------

  NO   OCC          E(Eh)            E(eV)
   0   2.0000     -88.964891     -2420.8578
   1   2.0000     -88.961072     -2420.7538
   2   2.0000     -10.328522      -281.0534
   3   2.0000     -10.326252      -280.9916
   4   2.0000     -10.315675      -280.7038
   5   2.0000     -10.311547      -280.5915
   6   2.0000     -10.305852      -280.4365
   7   2.0000     -10.302417      -280.3430
   8   2.0000     -10.296063      -280.1701
   9   2.0000     -10.295960      -280.1673
  10   2.0000     -10.295772      -280.1622
  11   2.0000     -10.294875      -280.1378
  12   2.0000     -10.290798      -280.0269
  13   2.0000     -10.282086      -279.7898
  14   2.0000     -10.275794      -279.6186
  15   2.0000     -10.272497      -279.5288
  16   2.0000      -8.080495      -219.8815
  17   2.0000      -8.076120      -219.7624
  18   2.0000      -6.038993      -164.3293
  19   2.0000      -6.034848      -164.2166
  20   2.0000      -6.034802      -164.2153
  21   2.0000      -6.031258      -164.1189
  22   2.0000      -6.030476      -164.0976
  23   2.0000      -6.026778      -163.9970
  24   2.0000      -1.011431       -27.5224
  25   2.0000      -0.989030       -26.9129
  26   2.0000      -0.915887       -24.9225
  27   2.0000      -0.912391       -24.8274
  28   2.0000      -0.871887       -23.7252
  29   2.0000      -0.854603       -23.2549
  30   2.0000      -0.842751       -22.9324
  31   2.0000      -0.817738       -22.2518
  32   2.0000      -0.786963       -21.4144
  33   2.0000      -0.778093       -21.1730
  34   2.0000      -0.707400       -19.2493
  35   2.0000      -0.702604       -19.1188
  36   2.0000      -0.697404       -18.9773
  37   2.0000      -0.658309       -17.9135
  38   2.0000      -0.640219       -17.4212
  39   2.0000      -0.617037       -16.7904
  40   2.0000      -0.598066       -16.2742
  41   2.0000      -0.577410       -15.7121
  42   2.0000      -0.571599       -15.5540
  43   2.0000      -0.552532       -15.0352
  44   2.0000      -0.539537       -14.6815
  45   2.0000      -0.526895       -14.3376
  46   2.0000      -0.517469       -14.0810
  47   2.0000      -0.514935       -14.0121
  48   2.0000      -0.506424       -13.7805
  49   2.0000      -0.503789       -13.7088
  50   2.0000      -0.489849       -13.3295
  51   2.0000      -0.482797       -13.1376
  52   2.0000      -0.474936       -12.9237
  53   2.0000      -0.468811       -12.7570
  54   2.0000      -0.460113       -12.5203
  55   2.0000      -0.451103       -12.2751
  56   2.0000      -0.441331       -12.0092
  57   2.0000      -0.435007       -11.8372
  58   2.0000      -0.431950       -11.7540
  59   2.0000      -0.426215       -11.5979
  60   2.0000      -0.423923       -11.5355
  61   2.0000      -0.414355       -11.2752
  62   2.0000      -0.410632       -11.1739
  63   2.0000      -0.358249        -9.7484
  64   2.0000      -0.332143        -9.0381
  65   2.0000      -0.325573        -8.8593
  66   2.0000      -0.287258        -7.8167
  67   0.0000       0.027354         0.7443
  68   0.0000       0.081199         2.2095
  69   0.0000       0.108641         2.9563
  70   0.0000       0.123664         3.3651
  71   0.0000       0.129982         3.5370

MULLIKEN ATOMIC CHARGES
-----------------------
   0 S :    0.090313
   1 C :   -0.119238
   2 C :   -0.063616
   3 C :    0.006541
   4 C :   -0.112596
   5 H :   -0.038380
   6 C :    0.069388
   7 H :    0.030713
   8 H :    0.025917
   9 C :   -0.107718
  10 H :    0.038719
  11 H :    0.029274
  12 C :   -0.018207
  13 H :    0.035769
  14 H :    0.017747
  15 H :    0.036915
  16 S :    0.105830
  17 C :   -0.080918
  18 C :   -0.049845
  19 C :   -0.064646
  20 C :   -0.127985
  21 H :    0.027513
  22 C :    0.097100
  23 H :    0.056245
  24 H :    0.014015
  25 C :   -0.126967
  26 H :    0.049605
  27 H :    0.055033
  28 C :   -0.033003
  29 H :    0.021446
  30 H :    0.014563
  31 H :    0.019004
  32 H :    0.046217
  33 H :    0.055252
Sum of atomic charges:    0.0000000

LOEWDIN ATOMIC CHARGES
----------------------
   0 S :    0.399239
   1 C :   -0.194573
   2 C :   -0.065540
   3 C :   -0.070255
   4 C :   -0.194553
   5 H :    0.013781
   6 C :   -0.037373
   7 H :    0.034146
   8 H :    0.037345
   9 C :   -0.043222
  10 H :    0.034435
  11 H :    0.022256
  12 C :   -0.063927
  13 H :    0.033653
  14 H :    0.017001
  15 H :    0.025655
  16 S :    0.420239
  17 C :   -0.193238
  18 C :   -0.076076
  19 C :   -0.055351
  20 C :   -0.196893
  21 H :    0.036150
  22 C :   -0.029399
  23 H :    0.039622
  24 H :    0.026794
  25 C :   -0.045397
  26 H :    0.034292
  27 H :    0.035449
  28 C :   -0.064977
  29 H :    0.017380
  30 H :    0.018441
  31 H :    0.023643
  32 H :    0.031104
  33 H :    0.030152

  Mayer bond orders larger than 0.100000
B(  0-S ,  1-C ) :   1.1306 B(  0-S ,  4-C ) :   1.1428 B(  1-C ,  2-C ) :   1.6160
B(  1-C , 32-H ) :   0.9655 B(  2-C ,  3-C ) :   1.2223 B(  2-C ,  6-C ) :   1.0297
B(  3-C ,  4-C ) :   1.5881 B(  3-C ,  5-H ) :   1.0137 B(  4-C , 20-C ) :   1.0413
B(  6-C ,  7-H ) :   0.9432 B(  6-C ,  8-H ) :   0.9293 B(  6-C ,  9-C ) :   1.0691
B(  9-C , 10-H ) :   0.9542 B(  9-C , 11-H ) :   0.9587 B(  9-C , 12-C ) :   1.0747
B( 12-C , 13-H ) :   0.9723 B( 12-C , 14-H ) :   0.9750 B( 12-C , 15-H ) :   0.9761
B( 16-S , 17-C ) :   1.1712 B( 16-S , 20-C ) :   1.1317 B( 17-C , 18-C ) :   1.6034
B( 17-C , 33-H ) :   0.9659 B( 18-C , 19-C ) :   1.2395 B( 18-C , 21-H ) :   0.9870
B( 19-C , 20-C ) :   1.6129 B( 19-C , 22-C ) :   1.0217 B( 22-C , 23-H ) :   0.9310
B( 22-C , 24-H ) :   0.9304 B( 22-C , 25-C ) :   1.0685 B( 25-C , 26-H ) :   0.9566
B( 25-C , 27-H ) :   0.9509 B( 25-C , 28-C ) :   1.0804 B( 28-C , 29-H ) :   0.9748
B( 28-C , 30-H ) :   0.9726 B( 28-C , 31-H ) :   0.9741

Dispersion correction           -0.013781312
FINAL SINGLE POINT ENERGY     -1339.874363708019

DIPOLE MOMENT
-------------
                                X             Y             Z
Electronic contribution:    -11.47387      -6.43410     -29.26325
Nuclear contribution   :     11.61365       6.63760      30.08560
                        -----------------------------------------
Total Dipole Moment    :      0.13978       0.20350       0.82235
                        -----------------------------------------
Magnitude (a.u.)       :      0.85861
Magnitude (Debye)      :      2.18242

Rotational constants in cm-1:     0.016351     0.009837     0.006425
Rotational constants in MHz :   490.198177   294.917504   192.603586

                             ****ORCA TERMINATED NORMALLY****
TOTAL RUN TIME: 0 days 0 hours 0 minutes 33 seconds 915 msec
