                         Program Version 4.2.1 -  RELEASE  -
|  1> ! wB97X-D3 SP def2-SVP
|  2> %pal
|  3> nprocs 16
|  4> end
|  5>
|  6> * xyz 0 1
|  7> S 	 -48.8725 	 65.3572 	 130.945
|  8> C 	 -49.1755 	 63.67 	 130.815
|  9> C 	 -48.6479 	 62.9588 	 131.917
| 10> C 	 -48.1292 	 63.8266 	 132.873
| 11> C 	 -48.2244 	 65.1724 	 132.562
| 12> H 	 -47.7018 	 63.4933 	 133.819
| 13> C 	 -48.6801 	 61.444 	 132.047
| 14> H 	 -49.6909 	 61.109 	 132.303
| 15> H 	 -48.0628 	 61.0551 	 132.92
| 16> C 	 -48.3286 	 60.576 	 130.872
| 17> H 	 -48.6659 	 59.5857 	 131.068
| 18> H 	 -48.8691 	 61.0101 	 129.978
| 19> C 	 -46.7872 	 60.5502 	 130.591
| 20> H 	 -46.2536 	 60.4207 	 131.472
| 21> H 	 -46.4882 	 59.8328 	 129.725
| 22> H 	 -46.3945 	 61.5287 	 130.216
| 23> S 	 -47.1227 	 67.5833 	 132.559
| 24> C 	 -46.9936 	 68.4438 	 134.107
| 25> C 	 -47.2321 	 67.6825 	 135.174
| 26> C 	 -47.8771 	 66.4627 	 134.759
| 27> C 	 -47.8224 	 66.2329 	 133.402
| 28> H 	 -47.1078 	 68.1429 	 136.152
| 29> C 	 -48.2133 	 65.5267 	 135.907
| 30> H 	 -47.1797 	 65.2415 	 136.238
| 31> H 	 -48.738 	 64.6716 	 135.492
| 32> C 	 -49.1583 	 66.0921 	 136.994
| 33> H 	 -50.0882 	 66.4596 	 136.642
| 34> H 	 -48.7353 	 67.0768 	 137.37
| 35> C 	 -49.4206 	 65.2909 	 138.254
| 36> H 	 -48.5324 	 64.9566 	 138.833
| 37> H 	 -50.0931 	 64.5105 	 138.025
| 38> H 	 -49.8416 	 65.9027 	 138.948
| 39> H 	 -49.5567 	 63.1315 	 129.911
| 40> H 	 -46.6707 	 69.4856 	 134.18
| 41> *
| 42>
| 43>                          ****END OF INPUT****

CARTESIAN COORDINATES (ANGSTROEM)
---------------------------------
  S    -48.872500   65.357200  130.945000
  C    -49.175500   63.670000  130.815000
  C    -48.647900   62.958800  131.917000
  C    -48.129200   63.826600  132.873000
  C    -48.224400   65.172400  132.562000
  H    -47.701800   63.493300  133.819000
  C    -48.680100   61.444000  132.047000
  H    -49.690900   61.109000  132.303000
  H    -48.062800   61.055100  132.920000
  C    -48.328600   60.576000  130.872000
  H    -48.665900   59.585700  131.068000
  H    -48.869100   61.010100  129.978000
  C    -46.787200   60.550200  130.591000
  H    -46.253600   60.420700  131.472000
  H    -46.488200   59.832800  129.725000
  H    -46.394500   61.528700  130.216000
  S    -47.122700   67.583300  132.559000
  C    -46.993600   68.443800  134.107000
  C    -47.232100   67.682500  135.174000
  C    -47.877100   66.462700  134.759000
  C    -47.822400   66.232900  133.402000
  H    -47.107800   68.142900  136.152000
  C    -48.213300   65.526700  135.907000
  H    -47.179700   65.241500  136.238000
  H    -48.738000   64.671600  135.492000
  C    -49.158300   66.092100  136.994000
  H    -50.088200   66.459600  136.642000
  H    -48.735300   67.076800  137.370000
  C    -49.420600   65.290900  138.254000
  H    -48.532400   64.956600  138.833000
  H    -50.093100   64.510500  138.025000
  H    -49.841600   65.902700  138.948000
  H    -49.556700   63.131500  129.911000
  H    -46.670700   69.485600  134.180000

 Total Charge           Charge          ....    0
 Multiplicity           Mult            ....    1
 Number of Electrons    NEL             ....  134
 Basis Dimension        Dim             ....  322

ORBITAL ENERGIES
----------------

  NO   OCC          E(Eh)            E(eV)
   0   2.0000     -88.971674     -2421.0423
   1   2.0000     -88.959800     -2420.7192
   2   2.0000     -10.324624      -280.9473
   3   2.0000     -10.321624      -280.8657
   4   2.0000     -10.317252      -280.7467
   5   2.0000     -10.312907      -280.6285
   6   2.0000     -10.302811      -280.3538
   7   2.0000     -10.301519      -280.3186
   8   2.0000     -10.295964      -280.1674
   9   2.0000     -10.295528      -280.1556
  10   2.0000     -10.290357      -280.0149
  11   2.0000     -10.290066      -280.0069
  12   2.0000     -10.288740      -279.9708
  13   2.0000     -10.287560      -279.9387
  14   2.0000     -10.280419      -279.7444
  15   2.0000     -10.268960      -279.4326
  16   2.0000      -8.086366      -220.0412
  17   2.0000      -8.075157      -219.7362
  18   2.0000      -6.044782      -164.4869
  19   2.0000      -6.040841      -164.3796
  20   2.0000      -6.037261      -164.2822
  21   2.0000      -6.033739      -164.1864
  22   2.0000      -6.029860      -164.0808
  23   2.0000      -6.025521      -163.9628
  24   2.0000      -1.013159       -27.5694
  25   2.0000      -0.987762       -26.8784
  26   2.0000      -0.914252       -24.8781
  27   2.0000      -0.906970       -24.6799
  28   2.0000      -0.876228       -23.8434
  29   2.0000      -0.857908       -23.3449
  30   2.0000      -0.847930       -23.0734
  31   2.0000      -0.814198       -22.1555
  32   2.0000      -0.782858       -21.3026
  33   2.0000      -0.772007       -21.0074
  34   2.0000      -0.709578       -19.3086
  35   2.0000      -0.703201       -19.1351
  36   2.0000      -0.693509       -18.8713
  37   2.0000      -0.662968       -18.0403
  38   2.0000      -0.633579       -17.2406
  39   2.0000      -0.616975       -16.7887
  40   2.0000      -0.594223       -16.1696
  41   2.0000      -0.579731       -15.7753
  42   2.0000      -0.561751       -15.2860
  43   2.0000      -0.547596       -14.9009
  44   2.0000      -0.542793       -14.7701
  45   2.0000      -0.527135       -14.3441
  46   2.0000      -0.524385       -14.2692
  47   2.0000      -0.509094       -13.8531
  48   2.0000      -0.504425       -13.7261
  49   2.0000      -0.502439       -13.6721
  50   2.0000      -0.494247       -13.4491
  51   2.0000      -0.477069       -12.9817
  52   2.0000      -0.469847       -12.7852
  53   2.0000      -0.462034       -12.5726
  54   2.0000      -0.460538       -12.5319
  55   2.0000      -0.454776       -12.3751
  56   2.0000      -0.441407       -12.0113
  57   2.0000      -0.435101       -11.8397
  58   2.0000      -0.431388       -11.7387
  59   2.0000      -0.425421       -11.5763
  60   2.0000      -0.422039       -11.4843
  61   2.0000      -0.414517       -11.2796
  62   2.0000      -0.405406       -11.0317
  63   2.0000      -0.357116        -9.7176
  64   2.0000      -0.335853        -9.1390
  65   2.0000      -0.327628        -8.9152
  66   2.0000      -0.282202        -7.6791
  67   0.0000       0.024092         0.6556
  68   0.0000       0.080153         2.1811
  69   0.0000       0.096988         2.6392
  70   0.0000       0.122140         3.3236
  71   0.0000       0.139735         3.8024

MULLIKEN ATOMIC CHARGES
-----------------------
   0 S :    0.136608
   1 C :   -0.146556
   2 C :   -0.048767
   3 C :   -0.008571
   4 C :   -0.130385
   5 H :    0.012784
   6 C :    0.026354
   7 H :    0.038855
   8 H :    0.025069
   9 C :   -0.067088
  10 H :    0.028257
  11 H :    0.029768
  12 C :   -0.064381
  13 H :    0.015052
  14 H :    0.048949
  15 H :    0.033696
  16 S :    0.077885
  17 C :   -0.092837
  18 C :   -0.025659
  19 C :   -0.070723
  20 C :   -0.123837
  21 H :    0.033373
  22 C :    0.074971
  23 H :    0.052667
  24 H :    0.020920
  25 C :   -0.102629
  26 H :    0.019791
  27 H :    0.009322
  28 C :    0.018699
  29 H :    0.026169
  30 H :    0.027026
  31 H :    0.003178
  32 H :    0.067437
  33 H :    0.054604
Sum of atomic charges:   -0.0000000

LOEWDIN ATOMIC CHARGES
----------------------
   0 S :    0.430231
   1 C :   -0.219289
   2 C :   -0.065654
   3 C :   -0.062564
   4 C :   -0.201054
   5 H :    0.032283
   6 C :   -0.040671
   7 H :    0.036400
   8 H :    0.033139
   9 C :   -0.039331
  10 H :    0.021612
  11 H :    0.026489
  12 C :   -0.073234
  13 H :    0.011283
  14 H :    0.036404
  15 H :    0.030114
  16 S :    0.379028
  17 C :   -0.164260
  18 C :   -0.072156
  19 C :   -0.055900
  20 C :   -0.196954
  21 H :    0.038421
  22 C :   -0.033131
  23 H :    0.043710
  24 H :    0.025182
  25 C :   -0.042748
  26 H :    0.023824
  27 H :    0.022172
  28 C :   -0.056478
  29 H :    0.030985
  30 H :    0.020114
  31 H :    0.016502
  32 H :    0.036808
  33 H :    0.028725

  Mayer bond orders larger than 0.100000
B(  0-S ,  1-C ) :   1.1609 B(  0-S ,  4-C ) :   1.1530 B(  1-C ,  2-C ) :   1.5496
B(  1-C ,  4-C ) :   0.1087 B(  1-C , 32-H ) :   0.9591 B(  2-C ,  3-C ) :   1.3071
B(  2-C ,  6-C ) :   1.0098 B(  3-C ,  4-C ) :   1.5125 B(  3-C ,  5-H ) :   0.9955
B(  4-C , 20-C ) :   1.0953 B(  6-C ,  7-H ) :   0.9331 B(  6-C ,  8-H ) :   0.9471
B(  6-C ,  9-C ) :   1.0875 B(  9-C , 10-H ) :   0.9525 B(  9-C , 11-H ) :   0.9522
B(  9-C , 12-C ) :   1.0673 B( 12-C , 13-H ) :   0.9750 B( 12-C , 14-H ) :   0.9764
B( 12-C , 15-H ) :   0.9754 B( 16-S , 17-C ) :   1.1274 B( 16-S , 20-C ) :   1.1083
B( 17-C , 18-C ) :   1.6859 B( 17-C , 33-H ) :   0.9616 B( 18-C , 19-C ) :   1.1720
B( 18-C , 21-H ) :   0.9827 B( 19-C , 20-C ) :   1.6339 B( 19-C , 22-C ) :   1.0460
B( 22-C , 23-H ) :   0.9400 B( 22-C , 24-H ) :   0.9299 B( 22-C , 25-C ) :   1.0490
B( 25-C , 26-H ) :   0.9512 B( 25-C , 27-H ) :   0.9564 B( 25-C , 28-C ) :   1.0986
B( 28-C , 29-H ) :   0.9699 B( 28-C , 30-H ) :   0.9736 B( 28-C , 31-H ) :   0.9656

Dispersion correction           -0.013491554
FINAL SINGLE POINT ENERGY     -1339.859262311403

DIPOLE MOMENT
-------------
                                X             Y             Z
Electronic contribution:      1.84659      20.66759     -14.98322
Nuclear contribution   :     -1.90407     -21.00560      15.56377
                        -----------------------------------------
Total Dipole Moment    :     -0.05748      -0.33802       0.58055
                        -----------------------------------------
Magnitude (a.u.)       :      0.67424
Magnitude (Debye)      :      1.71377

Rotational constants in cm-1:     0.018791     0.007969     0.006196
Rotational constants in MHz :   563.330447   238.892300   185.759206

                             ****ORCA TERMINATED NORMALLY****
TOTAL RUN TIME: 0 days 0 hours 0 minutes 34 seconds 172 msec
