                         Program Version 4.2.1 -  RELEASE  -
|  1> ! wB97X-D3 SP def2-SVP
|  2> %pal
|  3> nprocs 16
|  4> end
|  5>
|  6> * xyz 0 1
|  7> S 	 -2.78874 	 32.479 	 38.2875
|  8> C 	 -2.15178 	 31.3977 	 37.0615
|  9> C 	 -1.46848 	 30.3366 	 37.6356
| 10> C 	 -1.58181 	 30.3221 	 39.0874
| 11> C 	 -2.11558 	 31.4925 	 39.5727
| 12> H 	 -1.25148 	 29.5274 	 39.7843
| 13> C 	 -0.741163 	 29.2096 	 36.9676
| 14> H 	 -0.486435 	 28.5402 	 37.7778
| 15> H 	 0.239053 	 29.6752 	 36.6853
| 16> C 	 -1.53835 	 28.3275 	 35.9747
| 17> H 	 -2.39518 	 27.9707 	 36.5059
| 18> H 	 -1.84805 	 28.9187 	 35.1241
| 19> C 	 -0.781338 	 27.1164 	 35.3545
| 20> H 	 -0.273585 	 26.4442 	 36.1075
| 21> H 	 -1.50854 	 26.4761 	 34.8178
| 22> H 	 -0.0135245 	 27.4887 	 34.6851
| 23> S 	 -3.10534 	 30.5871 	 41.952
| 24> C 	 -3.03279 	 31.6282 	 43.361
| 25> C 	 -2.62202 	 32.8964 	 43.0564
| 26> C 	 -2.29238 	 33.028 	 41.6577
| 27> C 	 -2.31931 	 31.8205 	 41.0254
| 28> H 	 -2.51302 	 33.716 	 43.8031
| 29> C 	 -1.6743 	 34.2914 	 41.0665
| 30> H 	 -2.00348 	 35.1942 	 41.6814
| 31> H 	 -2.20914 	 34.4069 	 40.0988
| 32> C 	 -0.157429 	 34.2324 	 40.8085
| 33> H 	 0.129137 	 33.4918 	 40.0388
| 34> H 	 0.382793 	 33.9779 	 41.726
| 35> C 	 0.362748 	 35.5209 	 40.2567
| 36> H 	 0.55035 	 36.2551 	 41.0545
| 37> H 	 -0.3807 	 35.8774 	 39.5903
| 38> H 	 1.15831 	 35.3494 	 39.5829
| 39> H 	 -2.26738 	 31.679 	 35.9367
| 40> H 	 -3.23909 	 31.3092 	 44.3468
| 41> *
| 42>
| 43>                          ****END OF INPUT****

CARTESIAN COORDINATES (ANGSTROEM)
---------------------------------
  S     -2.788740   32.479000   38.287500
  C     -2.151780   31.397700   37.061500
  C     -1.468480   30.336600   37.635600
  C     -1.581810   30.322100   39.087400
  C     -2.115580   31.492500   39.572700
  H     -1.251480   29.527400   39.784300
  C     -0.741163   29.209600   36.967600
  H     -0.486435   28.540200   37.777800
  H      0.239053   29.675200   36.685300
  C     -1.538350   28.327500   35.974700
  H     -2.395180   27.970700   36.505900
  H     -1.848050   28.918700   35.124100
  C     -0.781338   27.116400   35.354500
  H     -0.273585   26.444200   36.107500
  H     -1.508540   26.476100   34.817800
  H     -0.013524   27.488700   34.685100
  S     -3.105340   30.587100   41.952000
  C     -3.032790   31.628200   43.361000
  C     -2.622020   32.896400   43.056400
  C     -2.292380   33.028000   41.657700
  C     -2.319310   31.820500   41.025400
  H     -2.513020   33.716000   43.803100
  C     -1.674300   34.291400   41.066500
  H     -2.003480   35.194200   41.681400
  H     -2.209140   34.406900   40.098800
  C     -0.157429   34.232400   40.808500
  H      0.129137   33.491800   40.038800
  H      0.382793   33.977900   41.726000
  C      0.362748   35.520900   40.256700
  H      0.550350   36.255100   41.054500
  H     -0.380700   35.877400   39.590300
  H      1.158310   35.349400   39.582900
  H     -2.267380   31.679000   35.936700
  H     -3.239090   31.309200   44.346800

 Total Charge           Charge          ....    0
 Multiplicity           Mult            ....    1
 Number of Electrons    NEL             ....  134
 Basis Dimension        Dim             ....  322

ORBITAL ENERGIES
----------------

  NO   OCC          E(Eh)            E(eV)
   0   2.0000     -88.966483     -2420.9011
   1   2.0000     -88.964814     -2420.8557
   2   2.0000     -10.330358      -281.1033
   3   2.0000     -10.322403      -280.8869
   4   2.0000     -10.322155      -280.8801
   5   2.0000     -10.311928      -280.6018
   6   2.0000     -10.304741      -280.4063
   7   2.0000     -10.298241      -280.2294
   8   2.0000     -10.297088      -280.1980
   9   2.0000     -10.296084      -280.1707
  10   2.0000     -10.296020      -280.1690
  11   2.0000     -10.292718      -280.0791
  12   2.0000     -10.288503      -279.9644
  13   2.0000     -10.285624      -279.8860
  14   2.0000     -10.280257      -279.7400
  15   2.0000     -10.263880      -279.2944
  16   2.0000      -8.080732      -219.8879
  17   2.0000      -8.079841      -219.8636
  18   2.0000      -6.039405      -164.3406
  19   2.0000      -6.038369      -164.3124
  20   2.0000      -6.035278      -164.2283
  21   2.0000      -6.034439      -164.2054
  22   2.0000      -6.031409      -164.1230
  23   2.0000      -6.030445      -164.0968
  24   2.0000      -1.006771       -27.3956
  25   2.0000      -0.983924       -26.7739
  26   2.0000      -0.909410       -24.7463
  27   2.0000      -0.906897       -24.6779
  28   2.0000      -0.864379       -23.5209
  29   2.0000      -0.855188       -23.2708
  30   2.0000      -0.847160       -23.0524
  31   2.0000      -0.812520       -22.1098
  32   2.0000      -0.778003       -21.1705
  33   2.0000      -0.767340       -20.8804
  34   2.0000      -0.705177       -19.1888
  35   2.0000      -0.697073       -18.9683
  36   2.0000      -0.684648       -18.6302
  37   2.0000      -0.663022       -18.0417
  38   2.0000      -0.636581       -17.3223
  39   2.0000      -0.606833       -16.5128
  40   2.0000      -0.592218       -16.1151
  41   2.0000      -0.570648       -15.5281
  42   2.0000      -0.567073       -15.4308
  43   2.0000      -0.555902       -15.1269
  44   2.0000      -0.527613       -14.3571
  45   2.0000      -0.521120       -14.1804
  46   2.0000      -0.515668       -14.0320
  47   2.0000      -0.510275       -13.8853
  48   2.0000      -0.503455       -13.6997
  49   2.0000      -0.498075       -13.5533
  50   2.0000      -0.487748       -13.2723
  51   2.0000      -0.476744       -12.9729
  52   2.0000      -0.470458       -12.8018
  53   2.0000      -0.467422       -12.7192
  54   2.0000      -0.455299       -12.3893
  55   2.0000      -0.447269       -12.1708
  56   2.0000      -0.443510       -12.0685
  57   2.0000      -0.439128       -11.9493
  58   2.0000      -0.427807       -11.6412
  59   2.0000      -0.421690       -11.4748
  60   2.0000      -0.420261       -11.4359
  61   2.0000      -0.416505       -11.3337
  62   2.0000      -0.412248       -11.2179
  63   2.0000      -0.346044        -9.4163
  64   2.0000      -0.330492        -8.9931
  65   2.0000      -0.328687        -8.9440
  66   2.0000      -0.294274        -8.0076
  67   0.0000       0.030716         0.8358
  68   0.0000       0.078214         2.1283
  69   0.0000       0.105638         2.8746
  70   0.0000       0.113609         3.0915
  71   0.0000       0.131423         3.5762

MULLIKEN ATOMIC CHARGES
-----------------------
   0 S :    0.097487
   1 C :   -0.171288
   2 C :   -0.092716
   3 C :   -0.020190
   4 C :   -0.123883
   5 H :    0.035749
   6 C :    0.072839
   7 H :    0.006205
   8 H :    0.048601
   9 C :   -0.058959
  10 H :    0.032569
  11 H :    0.029404
  12 C :   -0.074242
  13 H :    0.035736
  14 H :    0.043744
  15 H :    0.036298
  16 S :    0.106165
  17 C :   -0.070482
  18 C :   -0.036172
  19 C :   -0.059588
  20 C :   -0.139757
  21 H :    0.031984
  22 C :    0.024441
  23 H :    0.032029
  24 H :    0.026947
  25 C :   -0.069126
  26 H :    0.037062
  27 H :    0.029445
  28 C :    0.000093
  29 H :    0.039168
  30 H :    0.006081
  31 H :    0.018346
  32 H :    0.088090
  33 H :    0.037922
Sum of atomic charges:    0.0000000

LOEWDIN ATOMIC CHARGES
----------------------
   0 S :    0.404439
   1 C :   -0.215335
   2 C :   -0.064613
   3 C :   -0.073949
   4 C :   -0.188718
   5 H :    0.037523
   6 C :   -0.040437
   7 H :    0.027237
   8 H :    0.041007
   9 C :   -0.034413
  10 H :    0.025344
  11 H :    0.021887
  12 C :   -0.069509
  13 H :    0.027291
  14 H :    0.030882
  15 H :    0.023789
  16 S :    0.411215
  17 C :   -0.177482
  18 C :   -0.068384
  19 C :   -0.065974
  20 C :   -0.198537
  21 H :    0.038953
  22 C :   -0.042126
  23 H :    0.035610
  24 H :    0.022485
  25 C :   -0.041508
  26 H :    0.031717
  27 H :    0.023408
  28 C :   -0.061933
  29 H :    0.027515
  30 H :    0.021305
  31 H :    0.022970
  32 H :    0.048752
  33 H :    0.019590

  Mayer bond orders larger than 0.100000
B(  0-S ,  1-C ) :   1.1252 B(  0-S ,  4-C ) :   1.1481 B(  1-C ,  2-C ) :   1.6194
B(  1-C , 32-H ) :   0.9589 B(  2-C ,  3-C ) :   1.2232 B(  2-C ,  6-C ) :   1.0233
B(  3-C ,  4-C ) :   1.5893 B(  3-C ,  5-H ) :   0.9849 B(  4-C , 20-C ) :   1.0188
B(  6-C ,  7-H ) :   0.9377 B(  6-C ,  8-H ) :   0.9306 B(  6-C ,  9-C ) :   1.0569
B(  9-C , 10-H ) :   0.9572 B(  9-C , 11-H ) :   0.9581 B(  9-C , 12-C ) :   1.0828
B( 12-C , 13-H ) :   0.9758 B( 12-C , 14-H ) :   0.9754 B( 12-C , 15-H ) :   0.9771
B( 16-S , 17-C ) :   1.1413 B( 16-S , 20-C ) :   1.1423 B( 17-C , 18-C ) :   1.6282
B( 17-C , 33-H ) :   0.9721 B( 18-C , 19-C ) :   1.2235 B( 18-C , 21-H ) :   0.9846
B( 19-C , 20-C ) :   1.6165 B( 19-C , 22-C ) :   1.0495 B( 22-C , 23-H ) :   0.9406
B( 22-C , 24-H ) :   0.9161 B( 22-C , 25-C ) :   1.0672 B( 25-C , 26-H ) :   0.9511
B( 25-C , 27-H ) :   0.9587 B( 25-C , 28-C ) :   1.0900 B( 28-C , 29-H ) :   0.9749
B( 28-C , 30-H ) :   0.9664 B( 28-C , 31-H ) :   0.9713

Dispersion correction           -0.014090326
FINAL SINGLE POINT ENERGY     -1339.881039406041

DIPOLE MOMENT
-------------
                                X             Y             Z
Electronic contribution:    -14.79380       1.20237      12.62431
Nuclear contribution   :     15.11339      -1.25591     -12.75771
                        -----------------------------------------
Total Dipole Moment    :      0.31959      -0.05354      -0.13340
                        -----------------------------------------
Magnitude (a.u.)       :      0.35043
Magnitude (Debye)      :      0.89072

Rotational constants in cm-1:     0.020771     0.007720     0.006322
Rotational constants in MHz :   622.690778   231.451646   189.533318

                             ****ORCA TERMINATED NORMALLY****
TOTAL RUN TIME: 0 days 0 hours 0 minutes 32 seconds 140 msec
