                         Program Version 4.2.1 -  RELEASE  -
|  1> ! wB97X-D3 SP def2-SVP
|  2> %pal
|  3> nprocs 16
|  4> end
|  5>
|  6> * xyz 0 1
|  7> S 	 0.948641 	 24.5542 	 38.8805
|  8> C 	 -0.623804 	 25.018 	 38.2685
|  9> C 	 -1.69373 	 24.2778 	 38.7093
| 10> C 	 -1.13937 	 23.2615 	 39.5781
| 11> C 	 0.223671 	 23.2354 	 39.7134
| 12> H 	 -1.73161 	 22.5506 	 40.0831
| 13> C 	 -3.15941 	 24.4929 	 38.4042
| 14> H 	 -3.25792 	 25.444 	 37.8817
| 15> H 	 -3.54832 	 24.6058 	 39.4464
| 16> C 	 -3.7424 	 23.4022 	 37.5733
| 17> H 	 -3.19431 	 23.0953 	 36.6899
| 18> H 	 -3.83306 	 22.5221 	 38.2417
| 19> C 	 -5.14328 	 23.756 	 37.0851
| 20> H 	 -5.83689 	 23.7399 	 37.9317
| 21> H 	 -5.18699 	 24.7595 	 36.5886
| 22> H 	 -5.48251 	 23.1115 	 36.2683
| 23> S 	 2.06723 	 23.0747 	 41.8158
| 24> C 	 2.45323 	 21.5161 	 42.4639
| 25> C 	 1.73293 	 20.4896 	 41.8596
| 26> C 	 0.820522 	 20.9474 	 40.8404
| 27> C 	 0.974829 	 22.338 	 40.5782
| 28> H 	 1.86737 	 19.4401 	 42.2531
| 29> C 	 -0.00647415 	 20.0125 	 39.9625
| 30> H 	 0.694358 	 19.2069 	 39.5906
| 31> H 	 -0.44401 	 20.6402 	 39.1436
| 32> C 	 -1.16167 	 19.444 	 40.7119
| 33> H 	 -1.78279 	 20.3042 	 41.0955
| 34> H 	 -0.767789 	 18.9652 	 41.5802
| 35> C 	 -2.02334 	 18.4639 	 39.8329
| 36> H 	 -2.56412 	 19.1207 	 39.0982
| 37> H 	 -2.76625 	 17.8238 	 40.3179
| 38> H 	 -1.3818 	 17.8033 	 39.2482
| 39> H 	 -0.836562 	 25.7624 	 37.5073
| 40> H 	 2.81995 	 21.3343 	 43.4498
| 41> *
| 42>
| 43>                          ****END OF INPUT****

CARTESIAN COORDINATES (ANGSTROEM)
---------------------------------
  S      0.948641   24.554200   38.880500
  C     -0.623804   25.018000   38.268500
  C     -1.693730   24.277800   38.709300
  C     -1.139370   23.261500   39.578100
  C      0.223671   23.235400   39.713400
  H     -1.731610   22.550600   40.083100
  C     -3.159410   24.492900   38.404200
  H     -3.257920   25.444000   37.881700
  H     -3.548320   24.605800   39.446400
  C     -3.742400   23.402200   37.573300
  H     -3.194310   23.095300   36.689900
  H     -3.833060   22.522100   38.241700
  C     -5.143280   23.756000   37.085100
  H     -5.836890   23.739900   37.931700
  H     -5.186990   24.759500   36.588600
  H     -5.482510   23.111500   36.268300
  S      2.067230   23.074700   41.815800
  C      2.453230   21.516100   42.463900
  C      1.732930   20.489600   41.859600
  C      0.820522   20.947400   40.840400
  C      0.974829   22.338000   40.578200
  H      1.867370   19.440100   42.253100
  C     -0.006474   20.012500   39.962500
  H      0.694358   19.206900   39.590600
  H     -0.444010   20.640200   39.143600
  C     -1.161670   19.444000   40.711900
  H     -1.782790   20.304200   41.095500
  H     -0.767789   18.965200   41.580200
  C     -2.023340   18.463900   39.832900
  H     -2.564120   19.120700   39.098200
  H     -2.766250   17.823800   40.317900
  H     -1.381800   17.803300   39.248200
  H     -0.836562   25.762400   37.507300
  H      2.819950   21.334300   43.449800

 Total Charge           Charge          ....    0
 Multiplicity           Mult            ....    1
 Number of Electrons    NEL             ....  134
 Basis Dimension        Dim             ....  322

ORBITAL ENERGIES
----------------

  NO   OCC          E(Eh)            E(eV)
   0   2.0000     -88.968353     -2420.9520
   1   2.0000     -88.966751     -2420.9084
   2   2.0000     -10.334575      -281.2181
   3   2.0000     -10.326585      -281.0007
   4   2.0000     -10.314573      -280.6738
   5   2.0000     -10.310564      -280.5647
   6   2.0000     -10.310238      -280.5558
   7   2.0000     -10.301390      -280.3151
   8   2.0000     -10.300469      -280.2900
   9   2.0000     -10.299253      -280.2569
  10   2.0000     -10.295364      -280.1511
  11   2.0000     -10.290257      -280.0121
  12   2.0000     -10.289394      -279.9887
  13   2.0000     -10.288556      -279.9659
  14   2.0000     -10.285776      -279.8902
  15   2.0000     -10.282906      -279.8121
  16   2.0000      -8.083523      -219.9639
  17   2.0000      -8.080868      -219.8916
  18   2.0000      -6.042029      -164.4120
  19   2.0000      -6.039357      -164.3393
  20   2.0000      -6.038096      -164.3049
  21   2.0000      -6.035450      -164.2329
  22   2.0000      -6.034141      -164.1973
  23   2.0000      -6.031701      -164.1309
  24   2.0000      -1.007164       -27.4063
  25   2.0000      -0.980801       -26.6889
  26   2.0000      -0.923331       -25.1251
  27   2.0000      -0.912574       -24.8324
  28   2.0000      -0.871148       -23.7051
  29   2.0000      -0.852021       -23.1847
  30   2.0000      -0.842373       -22.9221
  31   2.0000      -0.812099       -22.0983
  32   2.0000      -0.784902       -21.3583
  33   2.0000      -0.771671       -20.9982
  34   2.0000      -0.708569       -19.2811
  35   2.0000      -0.697533       -18.9808
  36   2.0000      -0.692866       -18.8538
  37   2.0000      -0.655463       -17.8360
  38   2.0000      -0.638723       -17.3805
  39   2.0000      -0.623171       -16.9573
  40   2.0000      -0.592827       -16.1316
  41   2.0000      -0.579090       -15.7578
  42   2.0000      -0.567951       -15.4547
  43   2.0000      -0.561054       -15.2671
  44   2.0000      -0.535413       -14.5693
  45   2.0000      -0.520962       -14.1761
  46   2.0000      -0.518849       -14.1186
  47   2.0000      -0.508612       -13.8400
  48   2.0000      -0.506139       -13.7727
  49   2.0000      -0.498490       -13.5646
  50   2.0000      -0.491181       -13.3657
  51   2.0000      -0.476024       -12.9533
  52   2.0000      -0.467566       -12.7231
  53   2.0000      -0.463021       -12.5994
  54   2.0000      -0.457156       -12.4398
  55   2.0000      -0.449959       -12.2440
  56   2.0000      -0.445537       -12.1237
  57   2.0000      -0.442404       -12.0384
  58   2.0000      -0.436061       -11.8658
  59   2.0000      -0.430255       -11.7078
  60   2.0000      -0.419185       -11.4066
  61   2.0000      -0.417317       -11.3558
  62   2.0000      -0.415710       -11.3120
  63   2.0000      -0.350147        -9.5280
  64   2.0000      -0.333372        -9.0715
  65   2.0000      -0.330690        -8.9985
  66   2.0000      -0.287981        -7.8364
  67   0.0000       0.028501         0.7755
  68   0.0000       0.067941         1.8488
  69   0.0000       0.110743         3.0135
  70   0.0000       0.119152         3.2423
  71   0.0000       0.122179         3.3247

MULLIKEN ATOMIC CHARGES
-----------------------
   0 S :    0.122857
   1 C :   -0.111894
   2 C :   -0.113351
   3 C :    0.033726
   4 C :   -0.148393
   5 H :   -0.027409
   6 C :    0.088771
   7 H :    0.012180
   8 H :    0.053056
   9 C :   -0.076040
  10 H :    0.038537
  11 H :    0.032190
  12 C :   -0.055388
  13 H :    0.034173
  14 H :    0.029062
  15 H :    0.035035
  16 S :    0.096770
  17 C :   -0.076321
  18 C :   -0.073771
  19 C :   -0.039391
  20 C :   -0.133894
  21 H :    0.044155
  22 C :    0.035160
  23 H :    0.048550
  24 H :    0.034852
  25 C :   -0.097251
  26 H :    0.037730
  27 H :    0.017363
  28 C :   -0.034093
  29 H :    0.031146
  30 H :    0.042126
  31 H :    0.025885
  32 H :    0.034239
  33 H :    0.059632
Sum of atomic charges:   -0.0000000

LOEWDIN ATOMIC CHARGES
----------------------
   0 S :    0.415752
   1 C :   -0.198988
   2 C :   -0.058969
   3 C :   -0.059251
   4 C :   -0.207272
   5 H :    0.016237
   6 C :   -0.029816
   7 H :    0.028612
   8 H :    0.046359
   9 C :   -0.045024
  10 H :    0.028973
  11 H :    0.028576
  12 C :   -0.069106
  13 H :    0.025099
  14 H :    0.026655
  15 H :    0.026808
  16 S :    0.391308
  17 C :   -0.197435
  18 C :   -0.077963
  19 C :   -0.052322
  20 C :   -0.179253
  21 H :    0.041401
  22 C :   -0.036186
  23 H :    0.038929
  24 H :    0.033713
  25 C :   -0.045060
  26 H :    0.027888
  27 H :    0.014680
  28 C :   -0.068462
  29 H :    0.029721
  30 H :    0.026351
  31 H :    0.023231
  32 H :    0.025271
  33 H :    0.029544

  Mayer bond orders larger than 0.100000
B(  0-S ,  1-C ) :   1.1304 B(  0-S ,  4-C ) :   1.1412 B(  1-C ,  2-C ) :   1.6551
B(  1-C , 32-H ) :   0.9549 B(  2-C ,  3-C ) :   1.2260 B(  2-C ,  6-C ) :   1.0109
B(  3-C ,  4-C ) :   1.5801 B(  3-C ,  5-H ) :   0.9983 B(  4-C , 20-C ) :   1.0463
B(  6-C ,  7-H ) :   0.9377 B(  6-C ,  8-H ) :   0.9334 B(  6-C ,  9-C ) :   1.0636
B(  9-C , 10-H ) :   0.9593 B(  9-C , 11-H ) :   0.9503 B(  9-C , 12-C ) :   1.0904
B( 12-C , 13-H ) :   0.9742 B( 12-C , 14-H ) :   0.9733 B( 12-C , 15-H ) :   0.9759
B( 16-S , 17-C ) :   1.1575 B( 16-S , 20-C ) :   1.1352 B( 17-C , 18-C ) :   1.6186
B( 17-C , 20-C ) :   0.1008 B( 17-C , 33-H ) :   0.9601 B( 18-C , 19-C ) :   1.2415
B( 18-C , 21-H ) :   0.9768 B( 19-C , 20-C ) :   1.5803 B( 19-C , 22-C ) :   1.0394
B( 22-C , 23-H ) :   0.9385 B( 22-C , 24-H ) :   0.9343 B( 22-C , 25-C ) :   1.0564
B( 25-C , 26-H ) :   0.9519 B( 25-C , 27-H ) :   0.9585 B( 25-C , 28-C ) :   1.0652
B( 28-C , 29-H ) :   0.9750 B( 28-C , 30-H ) :   0.9783 B( 28-C , 31-H ) :   0.9744

Dispersion correction           -0.014026025
FINAL SINGLE POINT ENERGY     -1339.879815225697

DIPOLE MOMENT
-------------
                                X             Y             Z
Electronic contribution:     28.18210      14.70529       9.71174
Nuclear contribution   :    -28.91384     -15.08975      -9.77779
                        -----------------------------------------
Total Dipole Moment    :     -0.73174      -0.38446      -0.06605
                        -----------------------------------------
Magnitude (a.u.)       :      0.82923
Magnitude (Debye)      :      2.10773

Rotational constants in cm-1:     0.017202     0.009234     0.006369
Rotational constants in MHz :   515.712345   276.822699   190.944152

                             ****ORCA TERMINATED NORMALLY****
TOTAL RUN TIME: 0 days 0 hours 0 minutes 34 seconds 839 msec
