                         Program Version 4.2.1 -  RELEASE  -
|  1> ! wB97X-D3 SP def2-SVP
|  2> %pal
|  3> nprocs 16
|  4> end
|  5>
|  6> * xyz 0 1
|  7> S 	 38.1105 	 26.1197 	 94.8261
|  8> C 	 38.9767 	 26.7571 	 93.4533
|  9> C 	 40.1802 	 26.0674 	 93.2745
| 10> C 	 40.4257 	 25.1271 	 94.3263
| 11> C 	 39.4123 	 25.0847 	 95.2594
| 12> H 	 41.345 	 24.5438 	 94.4323
| 13> C 	 41.1537 	 26.2052 	 92.0926
| 14> H 	 42.18 	 26.1303 	 92.3384
| 15> H 	 41.1001 	 27.1997 	 91.7381
| 16> C 	 40.9969 	 25.2337 	 90.9627
| 17> H 	 39.9753 	 25.4285 	 90.5782
| 18> H 	 41.59 	 25.5198 	 90.0875
| 19> C 	 41.4234 	 23.7706 	 91.3005
| 20> H 	 42.3166 	 23.7037 	 91.842
| 21> H 	 40.6396 	 23.3734 	 91.8819
| 22> H 	 41.338 	 23.017 	 90.4395
| 23> S 	 38.7055 	 24.838 	 97.8999
| 24> C 	 38.6434 	 23.1884 	 98.5909
| 25> C 	 39.2769 	 22.2906 	 97.773
| 26> C 	 39.4103 	 22.8017 	 96.4837
| 27> C 	 39.1764 	 24.1887 	 96.388
| 28> H 	 39.4354 	 21.2742 	 98.0808
| 29> C 	 39.9655 	 21.9331 	 95.3979
| 30> H 	 40.627 	 21.1172 	 95.8231
| 31> H 	 40.691 	 22.5408 	 94.8715
| 32> C 	 38.8822 	 21.3043 	 94.4861
| 33> H 	 39.333 	 20.5764 	 93.787
| 34> H 	 38.4143 	 22.0652 	 93.8235
| 35> C 	 37.8227 	 20.4808 	 95.2249
| 36> H 	 37.0913 	 19.9529 	 94.5468
| 37> H 	 37.2173 	 21.2515 	 95.7171
| 38> H 	 38.2363 	 19.7727 	 95.958
| 39> H 	 38.5183 	 27.4003 	 92.7088
| 40> H 	 38.525 	 22.9458 	 99.6661
| 41> *
| 42>
| 43>                          ****END OF INPUT****

CARTESIAN COORDINATES (ANGSTROEM)
---------------------------------
  S     38.110500   26.119700   94.826100
  C     38.976700   26.757100   93.453300
  C     40.180200   26.067400   93.274500
  C     40.425700   25.127100   94.326300
  C     39.412300   25.084700   95.259400
  H     41.345000   24.543800   94.432300
  C     41.153700   26.205200   92.092600
  H     42.180000   26.130300   92.338400
  H     41.100100   27.199700   91.738100
  C     40.996900   25.233700   90.962700
  H     39.975300   25.428500   90.578200
  H     41.590000   25.519800   90.087500
  C     41.423400   23.770600   91.300500
  H     42.316600   23.703700   91.842000
  H     40.639600   23.373400   91.881900
  H     41.338000   23.017000   90.439500
  S     38.705500   24.838000   97.899900
  C     38.643400   23.188400   98.590900
  C     39.276900   22.290600   97.773000
  C     39.410300   22.801700   96.483700
  C     39.176400   24.188700   96.388000
  H     39.435400   21.274200   98.080800
  C     39.965500   21.933100   95.397900
  H     40.627000   21.117200   95.823100
  H     40.691000   22.540800   94.871500
  C     38.882200   21.304300   94.486100
  H     39.333000   20.576400   93.787000
  H     38.414300   22.065200   93.823500
  C     37.822700   20.480800   95.224900
  H     37.091300   19.952900   94.546800
  H     37.217300   21.251500   95.717100
  H     38.236300   19.772700   95.958000
  H     38.518300   27.400300   92.708800
  H     38.525000   22.945800   99.666100

 Total Charge           Charge          ....    0
 Multiplicity           Mult            ....    1
 Number of Electrons    NEL             ....  134
 Basis Dimension        Dim             ....  322

ORBITAL ENERGIES
----------------

  NO   OCC          E(Eh)            E(eV)
   0   2.0000     -88.969700     -2420.9886
   1   2.0000     -88.967092     -2420.9177
   2   2.0000     -10.328442      -281.0512
   3   2.0000     -10.326052      -280.9862
   4   2.0000     -10.318248      -280.7738
   5   2.0000     -10.316924      -280.7378
   6   2.0000     -10.306605      -280.4570
   7   2.0000     -10.297774      -280.2167
   8   2.0000     -10.296493      -280.1818
   9   2.0000     -10.292209      -280.0652
  10   2.0000     -10.289917      -280.0029
  11   2.0000     -10.287956      -279.9495
  12   2.0000     -10.287627      -279.9406
  13   2.0000     -10.285134      -279.8727
  14   2.0000     -10.278499      -279.6922
  15   2.0000     -10.278082      -279.6808
  16   2.0000      -8.084262      -219.9839
  17   2.0000      -8.082547      -219.9373
  18   2.0000      -6.042665      -164.4293
  19   2.0000      -6.040913      -164.3816
  20   2.0000      -6.038890      -164.3265
  21   2.0000      -6.036875      -164.2717
  22   2.0000      -6.035037      -164.2217
  23   2.0000      -6.033473      -164.1791
  24   2.0000      -1.012835       -27.5606
  25   2.0000      -0.988399       -26.8957
  26   2.0000      -0.916062       -24.9273
  27   2.0000      -0.905728       -24.6461
  28   2.0000      -0.872125       -23.7317
  29   2.0000      -0.848857       -23.0986
  30   2.0000      -0.844019       -22.9669
  31   2.0000      -0.816464       -22.2171
  32   2.0000      -0.790087       -21.4994
  33   2.0000      -0.768885       -20.9224
  34   2.0000      -0.705768       -19.2049
  35   2.0000      -0.702532       -19.1169
  36   2.0000      -0.683671       -18.6036
  37   2.0000      -0.665178       -18.1004
  38   2.0000      -0.643445       -17.5090
  39   2.0000      -0.621113       -16.9014
  40   2.0000      -0.589327       -16.0364
  41   2.0000      -0.577535       -15.7155
  42   2.0000      -0.556248       -15.1363
  43   2.0000      -0.547028       -14.8854
  44   2.0000      -0.546581       -14.8732
  45   2.0000      -0.539847       -14.6900
  46   2.0000      -0.517139       -14.0721
  47   2.0000      -0.511688       -13.9237
  48   2.0000      -0.500557       -13.6208
  49   2.0000      -0.494003       -13.4425
  50   2.0000      -0.489032       -13.3072
  51   2.0000      -0.480652       -13.0792
  52   2.0000      -0.468465       -12.7476
  53   2.0000      -0.468227       -12.7411
  54   2.0000      -0.463792       -12.6204
  55   2.0000      -0.444997       -12.1090
  56   2.0000      -0.443156       -12.0589
  57   2.0000      -0.440200       -11.9784
  58   2.0000      -0.435657       -11.8548
  59   2.0000      -0.425065       -11.5666
  60   2.0000      -0.418016       -11.3748
  61   2.0000      -0.407256       -11.0820
  62   2.0000      -0.403943       -10.9919
  63   2.0000      -0.350503        -9.5377
  64   2.0000      -0.333878        -9.0853
  65   2.0000      -0.332866        -9.0577
  66   2.0000      -0.290290        -7.8992
  67   0.0000       0.025970         0.7067
  68   0.0000       0.067793         1.8448
  69   0.0000       0.100648         2.7388
  70   0.0000       0.116991         3.1835
  71   0.0000       0.130455         3.5499

MULLIKEN ATOMIC CHARGES
-----------------------
   0 S :    0.114278
   1 C :   -0.116895
   2 C :   -0.102178
   3 C :    0.014254
   4 C :   -0.138538
   5 H :    0.027747
   6 C :    0.097102
   7 H :    0.007362
   8 H :    0.008425
   9 C :   -0.075514
  10 H :    0.020399
  11 H :    0.027329
  12 C :   -0.041459
  13 H :    0.026942
  14 H :    0.024470
  15 H :    0.042081
  16 S :    0.118081
  17 C :   -0.102848
  18 C :   -0.032553
  19 C :   -0.051091
  20 C :   -0.144654
  21 H :    0.021508
  22 C :    0.071268
  23 H :    0.028459
  24 H :    0.001586
  25 C :   -0.077122
  26 H :    0.025876
  27 H :    0.043830
  28 C :   -0.078599
  29 H :    0.042884
  30 H :    0.043428
  31 H :    0.034619
  32 H :    0.053129
  33 H :    0.066396
Sum of atomic charges:    0.0000000

LOEWDIN ATOMIC CHARGES
----------------------
   0 S :    0.429471
   1 C :   -0.203899
   2 C :   -0.054836
   3 C :   -0.067789
   4 C :   -0.201184
   5 H :    0.033660
   6 C :   -0.031631
   7 H :    0.024305
   8 H :    0.027812
   9 C :   -0.041151
  10 H :    0.024755
  11 H :    0.023559
  12 C :   -0.068417
  13 H :    0.017012
  14 H :    0.021529
  15 H :    0.039895
  16 S :    0.415771
  17 C :   -0.183643
  18 C :   -0.061823
  19 C :   -0.062125
  20 C :   -0.219189
  21 H :    0.032218
  22 C :   -0.035159
  23 H :    0.036087
  24 H :    0.024664
  25 C :   -0.043761
  26 H :    0.021459
  27 H :    0.028934
  28 C :   -0.074543
  29 H :    0.032707
  30 H :    0.028052
  31 H :    0.023216
  32 H :    0.029052
  33 H :    0.034994

  Mayer bond orders larger than 0.100000
B(  0-S ,  1-C ) :   1.1454 B(  0-S ,  4-C ) :   1.1800 B(  1-C ,  2-C ) :   1.6004
B(  1-C ,  4-C ) :   0.1013 B(  1-C , 32-H ) :   0.9688 B(  2-C ,  3-C ) :   1.2551
B(  2-C ,  6-C ) :   1.0208 B(  3-C ,  4-C ) :   1.5618 B(  3-C ,  5-H ) :   0.9904
B(  4-C , 20-C ) :   1.0154 B(  6-C ,  7-H ) :   0.9411 B(  6-C ,  8-H ) :   0.9329
B(  6-C ,  9-C ) :   1.0817 B(  9-C , 10-H ) :   0.9552 B(  9-C , 11-H ) :   0.9559
B(  9-C , 12-C ) :   1.0641 B( 12-C , 13-H ) :   0.9747 B( 12-C , 14-H ) :   0.9725
B( 12-C , 15-H ) :   0.9705 B( 16-S , 17-C ) :   1.1488 B( 16-S , 20-C ) :   1.1665
B( 17-C , 18-C ) :   1.6032 B( 17-C , 20-C ) :   0.1065 B( 17-C , 33-H ) :   0.9595
B( 18-C , 19-C ) :   1.2735 B( 18-C , 21-H ) :   0.9856 B( 19-C , 20-C ) :   1.5499
B( 19-C , 22-C ) :   1.0329 B( 22-C , 23-H ) :   0.9411 B( 22-C , 24-H ) :   0.9342
B( 22-C , 25-C ) :   1.0647 B( 25-C , 26-H ) :   0.9585 B( 25-C , 27-H ) :   0.9571
B( 25-C , 28-C ) :   1.0731 B( 28-C , 29-H ) :   0.9733 B( 28-C , 30-H ) :   0.9721
B( 28-C , 31-H ) :   0.9742

Dispersion correction           -0.015786270
FINAL SINGLE POINT ENERGY     -1339.870986111022

DIPOLE MOMENT
-------------
                                X             Y             Z
Electronic contribution:     -8.76780      17.13376      20.42150
Nuclear contribution   :      9.14427     -17.54236     -20.79796
                        -----------------------------------------
Total Dipole Moment    :      0.37646      -0.40860      -0.37646
                        -----------------------------------------
Magnitude (a.u.)       :      0.67112
Magnitude (Debye)      :      1.70585

Rotational constants in cm-1:     0.019531     0.009864     0.007488
Rotational constants in MHz :   585.520589   295.701045   224.480513

                             ****ORCA TERMINATED NORMALLY****
TOTAL RUN TIME: 0 days 0 hours 0 minutes 32 seconds 770 msec
