                         Program Version 4.2.1 -  RELEASE  -
|  1> ! wB97X-D3 SP def2-SVP
|  2> %pal
|  3> nprocs 16
|  4> end
|  5>
|  6> * xyz 0 1
|  7> S 	 70.8633 	 28.9813 	 72.0946
|  8> C 	 71.2705 	 29.8232 	 70.5999
|  9> C 	 71.8912 	 29.0332 	 69.6641
| 10> C 	 72.1732 	 27.6822 	 70.1665
| 11> C 	 71.7546 	 27.5672 	 71.4764
| 12> H 	 72.7998 	 26.8275 	 69.7977
| 13> C 	 72.3288 	 29.3816 	 68.2924
| 14> H 	 72.9597 	 28.5695 	 67.9294
| 15> H 	 73.0621 	 30.2151 	 68.2543
| 16> C 	 71.2069 	 29.739 	 67.2512
| 17> H 	 70.5202 	 28.881 	 67.0263
| 18> H 	 70.4935 	 30.4706 	 67.5644
| 19> C 	 71.8336 	 30.198 	 65.89
| 20> H 	 71.0692 	 30.4399 	 65.175
| 21> H 	 72.4972 	 31.0051 	 65.9878
| 22> H 	 72.429 	 29.3363 	 65.5601
| 23> S 	 73.0937 	 26.9875 	 73.8265
| 24> C 	 73.3723 	 25.2464 	 74.2889
| 25> C 	 72.7962 	 24.4133 	 73.3345
| 26> C 	 72.1415 	 25.1057 	 72.2559
| 27> C 	 72.285 	 26.4878 	 72.3336
| 28> H 	 72.9886 	 23.4034 	 73.5484
| 29> C 	 71.3706 	 24.428 	 71.1085
| 30> H 	 71.0394 	 25.0625 	 70.314
| 31> H 	 70.4323 	 24.0358 	 71.4893
| 32> C 	 72.0262 	 23.2745 	 70.4421
| 33> H 	 71.3519 	 22.7982 	 69.697
| 34> H 	 72.1628 	 22.4514 	 71.132
| 35> C 	 73.3247 	 23.5389 	 69.712
| 36> H 	 73.1088 	 24.3866 	 68.995
| 37> H 	 73.6724 	 22.7023 	 69.0852
| 38> H 	 74.1127 	 23.9228 	 70.4006
| 39> H 	 70.9773 	 30.8479 	 70.2956
| 40> H 	 73.7529 	 24.8542 	 75.2486
| 41> *
| 42>
| 43>                          ****END OF INPUT****

CARTESIAN COORDINATES (ANGSTROEM)
---------------------------------
  S     70.863300   28.981300   72.094600
  C     71.270500   29.823200   70.599900
  C     71.891200   29.033200   69.664100
  C     72.173200   27.682200   70.166500
  C     71.754600   27.567200   71.476400
  H     72.799800   26.827500   69.797700
  C     72.328800   29.381600   68.292400
  H     72.959700   28.569500   67.929400
  H     73.062100   30.215100   68.254300
  C     71.206900   29.739000   67.251200
  H     70.520200   28.881000   67.026300
  H     70.493500   30.470600   67.564400
  C     71.833600   30.198000   65.890000
  H     71.069200   30.439900   65.175000
  H     72.497200   31.005100   65.987800
  H     72.429000   29.336300   65.560100
  S     73.093700   26.987500   73.826500
  C     73.372300   25.246400   74.288900
  C     72.796200   24.413300   73.334500
  C     72.141500   25.105700   72.255900
  C     72.285000   26.487800   72.333600
  H     72.988600   23.403400   73.548400
  C     71.370600   24.428000   71.108500
  H     71.039400   25.062500   70.314000
  H     70.432300   24.035800   71.489300
  C     72.026200   23.274500   70.442100
  H     71.351900   22.798200   69.697000
  H     72.162800   22.451400   71.132000
  C     73.324700   23.538900   69.712000
  H     73.108800   24.386600   68.995000
  H     73.672400   22.702300   69.085200
  H     74.112700   23.922800   70.400600
  H     70.977300   30.847900   70.295600
  H     73.752900   24.854200   75.248600

 Total Charge           Charge          ....    0
 Multiplicity           Mult            ....    1
 Number of Electrons    NEL             ....  134
 Basis Dimension        Dim             ....  322

ORBITAL ENERGIES
----------------

  NO   OCC          E(Eh)            E(eV)
   0   2.0000     -88.973377     -2421.0887
   1   2.0000     -88.964733     -2420.8535
   2   2.0000     -10.331521      -281.1350
   3   2.0000     -10.330765      -281.1144
   4   2.0000     -10.324468      -280.9431
   5   2.0000     -10.317905      -280.7645
   6   2.0000     -10.310022      -280.5500
   7   2.0000     -10.305102      -280.4161
   8   2.0000     -10.301320      -280.3132
   9   2.0000     -10.296601      -280.1848
  10   2.0000     -10.296220      -280.1744
  11   2.0000     -10.291942      -280.0580
  12   2.0000     -10.287042      -279.9246
  13   2.0000     -10.281739      -279.7803
  14   2.0000     -10.281163      -279.7647
  15   2.0000     -10.275658      -279.6149
  16   2.0000      -8.086982      -220.0580
  17   2.0000      -8.078019      -219.8141
  18   2.0000      -6.045688      -164.5115
  19   2.0000      -6.041805      -164.4059
  20   2.0000      -6.037443      -164.2872
  21   2.0000      -6.036691      -164.2667
  22   2.0000      -6.032730      -164.1589
  23   2.0000      -6.028665      -164.0483
  24   2.0000      -0.999867       -27.2078
  25   2.0000      -0.975568       -26.5466
  26   2.0000      -0.913149       -24.8481
  27   2.0000      -0.906603       -24.6699
  28   2.0000      -0.867752       -23.6127
  29   2.0000      -0.851661       -23.1749
  30   2.0000      -0.840838       -22.8804
  31   2.0000      -0.815683       -22.1959
  32   2.0000      -0.781773       -21.2731
  33   2.0000      -0.772930       -21.0325
  34   2.0000      -0.710020       -19.3206
  35   2.0000      -0.700243       -19.0546
  36   2.0000      -0.689437       -18.7605
  37   2.0000      -0.654451       -17.8085
  38   2.0000      -0.639155       -17.3923
  39   2.0000      -0.613954       -16.7065
  40   2.0000      -0.596726       -16.2377
  41   2.0000      -0.570722       -15.5301
  42   2.0000      -0.557170       -15.1614
  43   2.0000      -0.552302       -15.0289
  44   2.0000      -0.541867       -14.7449
  45   2.0000      -0.526146       -14.3172
  46   2.0000      -0.520368       -14.1599
  47   2.0000      -0.507535       -13.8107
  48   2.0000      -0.500352       -13.6153
  49   2.0000      -0.495177       -13.4745
  50   2.0000      -0.484805       -13.1922
  51   2.0000      -0.474554       -12.9133
  52   2.0000      -0.471409       -12.8277
  53   2.0000      -0.465841       -12.6762
  54   2.0000      -0.460431       -12.5290
  55   2.0000      -0.446920       -12.1613
  56   2.0000      -0.443218       -12.0606
  57   2.0000      -0.440534       -11.9875
  58   2.0000      -0.435243       -11.8436
  59   2.0000      -0.426851       -11.6152
  60   2.0000      -0.417364       -11.3570
  61   2.0000      -0.414364       -11.2754
  62   2.0000      -0.408944       -11.1279
  63   2.0000      -0.348651        -9.4873
  64   2.0000      -0.330856        -9.0030
  65   2.0000      -0.328278        -8.9329
  66   2.0000      -0.294162        -8.0045
  67   0.0000       0.027539         0.7494
  68   0.0000       0.064893         1.7658
  69   0.0000       0.105199         2.8626
  70   0.0000       0.115766         3.1502
  71   0.0000       0.123413         3.3582

MULLIKEN ATOMIC CHARGES
-----------------------
   0 S :    0.124046
   1 C :   -0.118091
   2 C :   -0.068475
   3 C :    0.011174
   4 C :   -0.152685
   5 H :    0.046218
   6 C :    0.055571
   7 H :    0.015896
   8 H :    0.033983
   9 C :   -0.089502
  10 H :    0.033114
  11 H :    0.022595
  12 C :   -0.034931
  13 H :    0.036524
  14 H :    0.021613
  15 H :    0.027982
  16 S :    0.091609
  17 C :   -0.122366
  18 C :   -0.022524
  19 C :   -0.016565
  20 C :   -0.168841
  21 H :    0.008173
  22 C :    0.114540
  23 H :    0.014134
  24 H :    0.029029
  25 C :   -0.098503
  26 H :    0.024757
  27 H :    0.017251
  28 C :   -0.074745
  29 H :    0.022236
  30 H :    0.043709
  31 H :    0.049549
  32 H :    0.053633
  33 H :    0.069891
Sum of atomic charges:    0.0000000

LOEWDIN ATOMIC CHARGES
----------------------
   0 S :    0.388134
   1 C :   -0.195494
   2 C :   -0.062887
   3 C :   -0.058727
   4 C :   -0.184679
   5 H :    0.045211
   6 C :   -0.039670
   7 H :    0.031539
   8 H :    0.036349
   9 C :   -0.038272
  10 H :    0.028499
  11 H :    0.015704
  12 C :   -0.059576
  13 H :    0.025537
  14 H :    0.014859
  15 H :    0.027284
  16 S :    0.366838
  17 C :   -0.171375
  18 C :   -0.065195
  19 C :   -0.058540
  20 C :   -0.184075
  21 H :    0.026756
  22 C :   -0.030165
  23 H :    0.027673
  24 H :    0.038071
  25 C :   -0.052631
  26 H :    0.029556
  27 H :    0.015927
  28 C :   -0.073934
  29 H :    0.023869
  30 H :    0.029722
  31 H :    0.029339
  32 H :    0.036357
  33 H :    0.037996

  Mayer bond orders larger than 0.100000
B(  0-S ,  1-C ) :   1.1073 B(  0-S ,  4-C ) :   1.1332 B(  1-C ,  2-C ) :   1.6690
B(  1-C , 32-H ) :   0.9592 B(  2-C ,  3-C ) :   1.1905 B(  2-C ,  6-C ) :   1.0321
B(  3-C ,  4-C ) :   1.6151 B(  3-C ,  5-H ) :   0.9730 B(  4-C , 20-C ) :   1.0361
B(  6-C ,  7-H ) :   0.9399 B(  6-C ,  8-H ) :   0.9399 B(  6-C ,  9-C ) :   1.0443
B(  9-C , 10-H ) :   0.9568 B(  9-C , 11-H ) :   0.9628 B(  9-C , 12-C ) :   1.0759
B( 12-C , 13-H ) :   0.9749 B( 12-C , 14-H ) :   0.9782 B( 12-C , 15-H ) :   0.9769
B( 16-S , 17-C ) :   1.1260 B( 16-S , 20-C ) :   1.1307 B( 17-C , 18-C ) :   1.6530
B( 17-C , 33-H ) :   0.9615 B( 18-C , 19-C ) :   1.1931 B( 18-C , 21-H ) :   0.9978
B( 19-C , 20-C ) :   1.6143 B( 19-C , 22-C ) :   1.0339 B( 22-C , 23-H ) :   0.9349
B( 22-C , 24-H ) :   0.9223 B( 22-C , 25-C ) :   1.0888 B( 25-C , 26-H ) :   0.9486
B( 25-C , 27-H ) :   0.9477 B( 25-C , 28-C ) :   1.0801 B( 28-C , 29-H ) :   0.9682
B( 28-C , 30-H ) :   0.9717 B( 28-C , 31-H ) :   0.9729

Dispersion correction           -0.014304431
FINAL SINGLE POINT ENERGY     -1339.869605563707

DIPOLE MOMENT
-------------
                                X             Y             Z
Electronic contribution:     -1.64850       7.36221      28.77519
Nuclear contribution   :      1.64629      -7.65889     -29.31058
                        -----------------------------------------
Total Dipole Moment    :     -0.00221      -0.29669      -0.53540
                        -----------------------------------------
Magnitude (a.u.)       :      0.61211
Magnitude (Debye)      :      1.55586

Rotational constants in cm-1:     0.019371     0.008207     0.006299
Rotational constants in MHz :   580.715924   246.039548   188.836295

                             ****ORCA TERMINATED NORMALLY****
TOTAL RUN TIME: 0 days 0 hours 0 minutes 28 seconds 113 msec
