                         Program Version 4.2.1 -  RELEASE  -
|  1> ! wB97X-D3 SP def2-SVP
|  2> %pal
|  3> nprocs 16
|  4> end
|  5>
|  6> * xyz 0 1
|  7> S 	 -4.76447 	 10.1025 	 80.452
|  8> C 	 -6.05941 	 9.01725 	 80.1428
|  9> C 	 -7.2728 	 9.69044 	 80.2491
| 10> C 	 -7.06682 	 11.0988 	 80.4622
| 11> C 	 -5.75966 	 11.5001 	 80.3732
| 12> H 	 -7.93375 	 11.5989 	 80.5236
| 13> C 	 -8.60623 	 9.03654 	 80.1202
| 14> H 	 -8.85655 	 8.4472 	 81.0126
| 15> H 	 -8.46753 	 8.1725 	 79.4249
| 16> C 	 -9.82834 	 9.72447 	 79.601
| 17> H 	 -10.6664 	 9.03236 	 79.745
| 18> H 	 -10.0996 	 10.606 	 80.1212
| 19> C 	 -9.69346 	 10.181 	 78.168
| 20> H 	 -8.91734 	 10.9005 	 77.9325
| 21> H 	 -9.39355 	 9.32983 	 77.5272
| 22> H 	 -10.5918 	 10.5919 	 77.8236
| 23> S 	 -3.62429 	 13.092 	 81.1749
| 24> C 	 -3.91644 	 14.8384 	 81.2794
| 25> C 	 -5.02257 	 15.1882 	 80.5841
| 26> C 	 -5.80989 	 14.0883 	 80.1595
| 27> C 	 -5.21079 	 12.8691 	 80.4983
| 28> H 	 -5.34713 	 16.2458 	 80.429
| 29> C 	 -7.08349 	 14.2613 	 79.3975
| 30> H 	 -7.91336 	 14.2931 	 80.0501
| 31> H 	 -7.16552 	 13.36 	 78.8381
| 32> C 	 -7.09831 	 15.4384 	 78.4214
| 33> H 	 -6.21163 	 15.4132 	 77.8047
| 34> H 	 -6.97689 	 16.3531 	 79.0068
| 35> C 	 -8.38876 	 15.7252 	 77.594
| 36> H 	 -9.21179 	 15.8462 	 78.2786
| 37> H 	 -8.6136 	 14.8126 	 77.036
| 38> H 	 -8.29492 	 16.5679 	 76.8725
| 39> H 	 -6.07807 	 7.90663 	 80.0504
| 40> H 	 -3.28603 	 15.6383 	 81.6549
| 41> *
| 42>
| 43>                          ****END OF INPUT****

CARTESIAN COORDINATES (ANGSTROEM)
---------------------------------
  S     -4.764470   10.102500   80.452000
  C     -6.059410    9.017250   80.142800
  C     -7.272800    9.690440   80.249100
  C     -7.066820   11.098800   80.462200
  C     -5.759660   11.500100   80.373200
  H     -7.933750   11.598900   80.523600
  C     -8.606230    9.036540   80.120200
  H     -8.856550    8.447200   81.012600
  H     -8.467530    8.172500   79.424900
  C     -9.828340    9.724470   79.601000
  H    -10.666400    9.032360   79.745000
  H    -10.099600   10.606000   80.121200
  C     -9.693460   10.181000   78.168000
  H     -8.917340   10.900500   77.932500
  H     -9.393550    9.329830   77.527200
  H    -10.591800   10.591900   77.823600
  S     -3.624290   13.092000   81.174900
  C     -3.916440   14.838400   81.279400
  C     -5.022570   15.188200   80.584100
  C     -5.809890   14.088300   80.159500
  C     -5.210790   12.869100   80.498300
  H     -5.347130   16.245800   80.429000
  C     -7.083490   14.261300   79.397500
  H     -7.913360   14.293100   80.050100
  H     -7.165520   13.360000   78.838100
  C     -7.098310   15.438400   78.421400
  H     -6.211630   15.413200   77.804700
  H     -6.976890   16.353100   79.006800
  C     -8.388760   15.725200   77.594000
  H     -9.211790   15.846200   78.278600
  H     -8.613600   14.812600   77.036000
  H     -8.294920   16.567900   76.872500
  H     -6.078070    7.906630   80.050400
  H     -3.286030   15.638300   81.654900

 Total Charge           Charge          ....    0
 Multiplicity           Mult            ....    1
 Number of Electrons    NEL             ....  134
 Basis Dimension        Dim             ....  322

ORBITAL ENERGIES
----------------

  NO   OCC          E(Eh)            E(eV)
   0   2.0000     -88.968642     -2420.9598
   1   2.0000     -88.966046     -2420.8892
   2   2.0000     -10.331348      -281.1303
   3   2.0000     -10.329926      -281.0916
   4   2.0000     -10.315728      -280.7052
   5   2.0000     -10.312607      -280.6203
   6   2.0000     -10.300369      -280.2873
   7   2.0000     -10.297242      -280.2022
   8   2.0000     -10.291889      -280.0565
   9   2.0000     -10.291646      -280.0499
  10   2.0000     -10.286986      -279.9231
  11   2.0000     -10.285233      -279.8754
  12   2.0000     -10.285035      -279.8700
  13   2.0000     -10.284188      -279.8470
  14   2.0000     -10.284093      -279.8444
  15   2.0000     -10.271658      -279.5060
  16   2.0000      -8.083072      -219.9516
  17   2.0000      -8.081792      -219.9167
  18   2.0000      -6.041712      -164.4034
  19   2.0000      -6.040388      -164.3673
  20   2.0000      -6.037830      -164.2977
  21   2.0000      -6.036193      -164.2532
  22   2.0000      -6.033507      -164.1801
  23   2.0000      -6.032377      -164.1493
  24   2.0000      -1.012794       -27.5595
  25   2.0000      -0.990052       -26.9407
  26   2.0000      -0.922111       -25.0919
  27   2.0000      -0.912149       -24.8208
  28   2.0000      -0.872424       -23.7399
  29   2.0000      -0.854005       -23.2386
  30   2.0000      -0.846187       -23.0259
  31   2.0000      -0.821775       -22.3616
  32   2.0000      -0.787695       -21.4343
  33   2.0000      -0.774919       -21.0866
  34   2.0000      -0.714800       -19.4507
  35   2.0000      -0.706037       -19.2122
  36   2.0000      -0.694544       -18.8995
  37   2.0000      -0.653255       -17.7760
  38   2.0000      -0.639787       -17.4095
  39   2.0000      -0.632223       -17.2037
  40   2.0000      -0.598505       -16.2861
  41   2.0000      -0.572083       -15.5672
  42   2.0000      -0.570364       -15.5204
  43   2.0000      -0.560563       -15.2537
  44   2.0000      -0.542412       -14.7598
  45   2.0000      -0.526761       -14.3339
  46   2.0000      -0.519031       -14.1235
  47   2.0000      -0.513350       -13.9690
  48   2.0000      -0.504375       -13.7248
  49   2.0000      -0.495532       -13.4841
  50   2.0000      -0.493768       -13.4361
  51   2.0000      -0.488706       -13.2984
  52   2.0000      -0.469702       -12.7812
  53   2.0000      -0.465085       -12.6556
  54   2.0000      -0.461374       -12.5546
  55   2.0000      -0.457825       -12.4580
  56   2.0000      -0.448928       -12.2160
  57   2.0000      -0.440907       -11.9977
  58   2.0000      -0.435503       -11.8506
  59   2.0000      -0.432944       -11.7810
  60   2.0000      -0.418700       -11.3934
  61   2.0000      -0.414854       -11.2888
  62   2.0000      -0.408961       -11.1284
  63   2.0000      -0.359586        -9.7848
  64   2.0000      -0.335072        -9.1178
  65   2.0000      -0.323786        -8.8107
  66   2.0000      -0.283335        -7.7099
  67   0.0000       0.022378         0.6089
  68   0.0000       0.081051         2.2055
  69   0.0000       0.097133         2.6431
  70   0.0000       0.122025         3.3205
  71   0.0000       0.131441         3.5767

MULLIKEN ATOMIC CHARGES
-----------------------
   0 S :    0.106173
   1 C :   -0.111370
   2 C :   -0.128729
   3 C :    0.069909
   4 C :   -0.096449
   5 H :   -0.059980
   6 C :    0.035807
   7 H :    0.038349
   8 H :    0.015870
   9 C :   -0.041453
  10 H :    0.029109
  11 H :    0.018784
  12 C :   -0.043181
  13 H :    0.033535
  14 H :    0.020205
  15 H :    0.022097
  16 S :    0.105405
  17 C :   -0.072061
  18 C :   -0.055875
  19 C :   -0.089316
  20 C :   -0.120937
  21 H :    0.032169
  22 C :    0.132593
  23 H :    0.025940
  24 H :    0.019251
  25 C :   -0.120099
  26 H :    0.031662
  27 H :    0.023095
  28 C :   -0.030886
  29 H :    0.026043
  30 H :    0.025107
  31 H :    0.051371
  32 H :    0.055793
  33 H :    0.052068
Sum of atomic charges:   -0.0000000

LOEWDIN ATOMIC CHARGES
----------------------
   0 S :    0.428842
   1 C :   -0.217063
   2 C :   -0.062580
   3 C :   -0.056308
   4 C :   -0.193374
   5 H :    0.006290
   6 C :   -0.046681
   7 H :    0.036997
   8 H :    0.037227
   9 C :   -0.041771
  10 H :    0.033491
  11 H :    0.016646
  12 C :   -0.062503
  13 H :    0.025913
  14 H :    0.026184
  15 H :    0.018275
  16 S :    0.396483
  17 C :   -0.180409
  18 C :   -0.074301
  19 C :   -0.056497
  20 C :   -0.193695
  21 H :    0.039013
  22 C :   -0.028026
  23 H :    0.025971
  24 H :    0.028928
  25 C :   -0.041231
  26 H :    0.023519
  27 H :    0.018396
  28 C :   -0.062301
  29 H :    0.022290
  30 H :    0.023045
  31 H :    0.034781
  32 H :    0.040033
  33 H :    0.034416

  Mayer bond orders larger than 0.100000
B(  0-S ,  1-C ) :   1.1437 B(  0-S ,  4-C ) :   1.1611 B(  1-C ,  2-C ) :   1.5955
B(  1-C , 32-H ) :   0.9619 B(  2-C ,  3-C ) :   1.2899 B(  2-C ,  6-C ) :   1.0198
B(  3-C ,  4-C ) :   1.4990 B(  3-C ,  5-H ) :   1.0132 B(  4-C , 20-C ) :   1.0611
B(  6-C ,  7-H ) :   0.9265 B(  6-C ,  8-H ) :   0.9364 B(  6-C ,  9-C ) :   1.0925
B(  9-C , 10-H ) :   0.9444 B(  9-C , 11-H ) :   0.9478 B(  9-C , 12-C ) :   1.0814
B( 12-C , 13-H ) :   0.9732 B( 12-C , 14-H ) :   0.9713 B( 12-C , 15-H ) :   0.9730
B( 16-S , 17-C ) :   1.1319 B( 16-S , 20-C ) :   1.1320 B( 17-C , 18-C ) :   1.6332
B( 17-C , 33-H ) :   0.9607 B( 18-C , 19-C ) :   1.2525 B( 18-C , 21-H ) :   0.9773
B( 19-C , 20-C ) :   1.5975 B( 19-C , 22-C ) :   1.0380 B( 22-C , 23-H ) :   0.9153
B( 22-C , 24-H ) :   0.9235 B( 22-C , 25-C ) :   1.0731 B( 25-C , 26-H ) :   0.9601
B( 25-C , 27-H ) :   0.9459 B( 25-C , 28-C ) :   1.0803 B( 28-C , 29-H ) :   0.9736
B( 28-C , 30-H ) :   0.9763 B( 28-C , 31-H ) :   0.9747

Dispersion correction           -0.014140074
FINAL SINGLE POINT ENERGY     -1339.866846295725

DIPOLE MOMENT
-------------
                                X             Y             Z
Electronic contribution:     28.12067      -5.74471      14.80282
Nuclear contribution   :    -28.89724       5.93421     -14.98404
                        -----------------------------------------
Total Dipole Moment    :     -0.77657       0.18950      -0.18122
                        -----------------------------------------
Magnitude (a.u.)       :      0.81964
Magnitude (Debye)      :      2.08336

Rotational constants in cm-1:     0.015876     0.010424     0.006618
Rotational constants in MHz :   475.963441   312.494953   198.415195

                             ****ORCA TERMINATED NORMALLY****
TOTAL RUN TIME: 0 days 0 hours 0 minutes 35 seconds 898 msec
