                         Program Version 4.2.1 -  RELEASE  -
|  1> ! wB97X-D3 SP def2-SVP
|  2> %pal
|  3> nprocs 16
|  4> end
|  5>
|  6> * xyz 0 1
|  7> S 	 -31.4865 	 30.6176 	 44.4563
|  8> C 	 -33.0966 	 30.2666 	 44.9562
|  9> C 	 -33.81 	 31.4373 	 45.2136
| 10> C 	 -33.0476 	 32.5987 	 44.9223
| 11> C 	 -31.7948 	 32.3547 	 44.3836
| 12> H 	 -33.2836 	 33.6625 	 45.1989
| 13> C 	 -35.2185 	 31.3845 	 45.8286
| 14> H 	 -35.5715 	 30.3697 	 46.0466
| 15> H 	 -35.9758 	 31.7148 	 45.0647
| 16> C 	 -35.4177 	 32.2873 	 47.0714
| 17> H 	 -35.3954 	 33.3847 	 46.9726
| 18> H 	 -36.5139 	 32.1315 	 47.3003
| 19> C 	 -34.6102 	 31.8271 	 48.3162
| 20> H 	 -34.8354 	 30.8197 	 48.7396
| 21> H 	 -33.5274 	 31.7591 	 48.076
| 22> H 	 -34.6867 	 32.4932 	 49.1052
| 23> S 	 -29.1666 	 33.1546 	 44.6057
| 24> C 	 -28.7092 	 34.6543 	 43.9655
| 25> C 	 -29.7202 	 35.2744 	 43.3124
| 26> C 	 -30.9102 	 34.5378 	 43.3269
| 27> C 	 -30.827 	 33.382 	 44.1121
| 28> H 	 -29.5046 	 36.204 	 42.7464
| 29> C 	 -32.1208 	 34.9439 	 42.4856
| 30> H 	 -32.9581 	 34.1798 	 42.5291
| 31> H 	 -31.7837 	 35.0238 	 41.4287
| 32> C 	 -32.8582 	 36.2235 	 42.9147
| 33> H 	 -32.3657 	 37.1326 	 42.5966
| 34> H 	 -32.9016 	 36.3635 	 44.0417
| 35> C 	 -34.3163 	 36.373 	 42.3286
| 36> H 	 -34.6929 	 37.3568 	 42.3643
| 37> H 	 -34.948 	 35.6357 	 42.8492
| 38> H 	 -34.3669 	 36.1218 	 41.3029
| 39> H 	 -33.451 	 29.307 	 45.1352
| 40> H 	 -27.7388 	 35.1246 	 43.9981
| 41> *
| 42>
| 43>                          ****END OF INPUT****

CARTESIAN COORDINATES (ANGSTROEM)
---------------------------------
  S    -31.486500   30.617600   44.456300
  C    -33.096600   30.266600   44.956200
  C    -33.810000   31.437300   45.213600
  C    -33.047600   32.598700   44.922300
  C    -31.794800   32.354700   44.383600
  H    -33.283600   33.662500   45.198900
  C    -35.218500   31.384500   45.828600
  H    -35.571500   30.369700   46.046600
  H    -35.975800   31.714800   45.064700
  C    -35.417700   32.287300   47.071400
  H    -35.395400   33.384700   46.972600
  H    -36.513900   32.131500   47.300300
  C    -34.610200   31.827100   48.316200
  H    -34.835400   30.819700   48.739600
  H    -33.527400   31.759100   48.076000
  H    -34.686700   32.493200   49.105200
  S    -29.166600   33.154600   44.605700
  C    -28.709200   34.654300   43.965500
  C    -29.720200   35.274400   43.312400
  C    -30.910200   34.537800   43.326900
  C    -30.827000   33.382000   44.112100
  H    -29.504600   36.204000   42.746400
  C    -32.120800   34.943900   42.485600
  H    -32.958100   34.179800   42.529100
  H    -31.783700   35.023800   41.428700
  C    -32.858200   36.223500   42.914700
  H    -32.365700   37.132600   42.596600
  H    -32.901600   36.363500   44.041700
  C    -34.316300   36.373000   42.328600
  H    -34.692900   37.356800   42.364300
  H    -34.948000   35.635700   42.849200
  H    -34.366900   36.121800   41.302900
  H    -33.451000   29.307000   45.135200
  H    -27.738800   35.124600   43.998100

 Total Charge           Charge          ....    0
 Multiplicity           Mult            ....    1
 Number of Electrons    NEL             ....  134
 Basis Dimension        Dim             ....  322

ORBITAL ENERGIES
----------------

  NO   OCC          E(Eh)            E(eV)
   0   2.0000     -88.966954     -2420.9139
   1   2.0000     -88.966122     -2420.8913
   2   2.0000     -10.328940      -281.0648
   3   2.0000     -10.325675      -280.9759
   4   2.0000     -10.310212      -280.5551
   5   2.0000     -10.309991      -280.5491
   6   2.0000     -10.303390      -280.3695
   7   2.0000     -10.303029      -280.3597
   8   2.0000     -10.301312      -280.3130
   9   2.0000     -10.298034      -280.2238
  10   2.0000     -10.297355      -280.2053
  11   2.0000     -10.295830      -280.1638
  12   2.0000     -10.290355      -280.0148
  13   2.0000     -10.288876      -279.9746
  14   2.0000     -10.274044      -279.5709
  15   2.0000     -10.273944      -279.5682
  16   2.0000      -8.082010      -219.9227
  17   2.0000      -8.081754      -219.9157
  18   2.0000      -6.040365      -164.3667
  19   2.0000      -6.040214      -164.3626
  20   2.0000      -6.036367      -164.2579
  21   2.0000      -6.036252      -164.2548
  22   2.0000      -6.032862      -164.1625
  23   2.0000      -6.032568      -164.1545
  24   2.0000      -1.013548       -27.5800
  25   2.0000      -0.990329       -26.9482
  26   2.0000      -0.904710       -24.6184
  27   2.0000      -0.902839       -24.5675
  28   2.0000      -0.873929       -23.7808
  29   2.0000      -0.852132       -23.1877
  30   2.0000      -0.842021       -22.9126
  31   2.0000      -0.816067       -22.2063
  32   2.0000      -0.783304       -21.3148
  33   2.0000      -0.773084       -21.0367
  34   2.0000      -0.711510       -19.3612
  35   2.0000      -0.695343       -18.9213
  36   2.0000      -0.694577       -18.9004
  37   2.0000      -0.655758       -17.8441
  38   2.0000      -0.642167       -17.4743
  39   2.0000      -0.619762       -16.8646
  40   2.0000      -0.598754       -16.2929
  41   2.0000      -0.568347       -15.4655
  42   2.0000      -0.559604       -15.2276
  43   2.0000      -0.550351       -14.9758
  44   2.0000      -0.525594       -14.3021
  45   2.0000      -0.521809       -14.1992
  46   2.0000      -0.517335       -14.0774
  47   2.0000      -0.512538       -13.9469
  48   2.0000      -0.509249       -13.8574
  49   2.0000      -0.501358       -13.6426
  50   2.0000      -0.481756       -13.1092
  51   2.0000      -0.479742       -13.0545
  52   2.0000      -0.472883       -12.8678
  53   2.0000      -0.468584       -12.7508
  54   2.0000      -0.461155       -12.5487
  55   2.0000      -0.452644       -12.3171
  56   2.0000      -0.443912       -12.0795
  57   2.0000      -0.437956       -11.9174
  58   2.0000      -0.431088       -11.7305
  59   2.0000      -0.429580       -11.6895
  60   2.0000      -0.420030       -11.4296
  61   2.0000      -0.409975       -11.1560
  62   2.0000      -0.404271       -11.0008
  63   2.0000      -0.355364        -9.6700
  64   2.0000      -0.334402        -9.0995
  65   2.0000      -0.329012        -8.9529
  66   2.0000      -0.286675        -7.8008
  67   0.0000       0.027071         0.7366
  68   0.0000       0.075725         2.0606
  69   0.0000       0.116233         3.1629
  70   0.0000       0.123867         3.3706
  71   0.0000       0.125142         3.4053

MULLIKEN ATOMIC CHARGES
-----------------------
   0 S :    0.110468
   1 C :   -0.095528
   2 C :   -0.067780
   3 C :   -0.011704
   4 C :   -0.138676
   5 H :    0.039289
   6 C :    0.066291
   7 H :    0.019286
   8 H :    0.042756
   9 C :   -0.108557
  10 H :    0.040945
  11 H :    0.030020
  12 C :   -0.043702
  13 H :    0.029324
  14 H :    0.040585
  15 H :    0.018319
  16 S :    0.117633
  17 C :   -0.077526
  18 C :   -0.049605
  19 C :   -0.021907
  20 C :   -0.165062
  21 H :    0.029153
  22 C :    0.044938
  23 H :    0.035816
  24 H :    0.045232
  25 C :   -0.107346
  26 H :    0.019048
  27 H :    0.039733
  28 C :   -0.035696
  29 H :    0.028026
  30 H :    0.033983
  31 H :    0.018281
  32 H :    0.023197
  33 H :    0.050766
Sum of atomic charges:    0.0000000

LOEWDIN ATOMIC CHARGES
----------------------
   0 S :    0.409560
   1 C :   -0.192747
   2 C :   -0.066436
   3 C :   -0.068311
   4 C :   -0.192427
   5 H :    0.041485
   6 C :   -0.032353
   7 H :    0.030792
   8 H :    0.038168
   9 C :   -0.049774
  10 H :    0.026999
  11 H :    0.030753
  12 C :   -0.070019
  13 H :    0.028443
  14 H :    0.030670
  15 H :    0.014428
  16 S :    0.430386
  17 C :   -0.198706
  18 C :   -0.080530
  19 C :   -0.055268
  20 C :   -0.201247
  21 H :    0.039863
  22 C :   -0.036909
  23 H :    0.035586
  24 H :    0.038159
  25 C :   -0.047529
  26 H :    0.015730
  27 H :    0.028374
  28 C :   -0.061254
  29 H :    0.021465
  30 H :    0.026208
  31 H :    0.019375
  32 H :    0.014991
  33 H :    0.032076

  Mayer bond orders larger than 0.100000
B(  0-S ,  1-C ) :   1.1505 B(  0-S ,  4-C ) :   1.1462 B(  1-C ,  2-C ) :   1.5759
B(  1-C , 32-H ) :   0.9807 B(  2-C ,  3-C ) :   1.2582 B(  2-C ,  6-C ) :   1.0228
B(  3-C ,  4-C ) :   1.5460 B(  3-C ,  5-H ) :   0.9857 B(  4-C , 20-C ) :   1.0881
B(  6-C ,  7-H ) :   0.9460 B(  6-C ,  8-H ) :   0.9372 B(  6-C ,  9-C ) :   1.0703
B(  9-C , 10-H ) :   0.9580 B(  9-C , 11-H ) :   0.9538 B(  9-C , 12-C ) :   1.0663
B( 12-C , 13-H ) :   0.9753 B( 12-C , 14-H ) :   0.9761 B( 12-C , 15-H ) :   0.9758
B( 16-S , 17-C ) :   1.1714 B( 16-S , 20-C ) :   1.1392 B( 17-C , 18-C ) :   1.6022
B( 17-C , 33-H ) :   0.9638 B( 18-C , 19-C ) :   1.2634 B( 18-C , 21-H ) :   0.9882
B( 19-C , 20-C ) :   1.5624 B( 19-C , 22-C ) :   1.0442 B( 22-C , 23-H ) :   0.9416
B( 22-C , 24-H ) :   0.9316 B( 22-C , 25-C ) :   1.0449 B( 25-C , 26-H ) :   0.9549
B( 25-C , 27-H ) :   0.9611 B( 25-C , 28-C ) :   1.0814 B( 28-C , 29-H ) :   0.9764
B( 28-C , 30-H ) :   0.9761 B( 28-C , 31-H ) :   0.9743

Dispersion correction           -0.014341187
FINAL SINGLE POINT ENERGY     -1339.882426481600

DIPOLE MOMENT
-------------
                                X             Y             Z
Electronic contribution:     24.87156     -12.85799      -3.68113
Nuclear contribution   :    -25.28961      13.25769       3.66703
                        -----------------------------------------
Total Dipole Moment    :     -0.41805       0.39969      -0.01410
                        -----------------------------------------
Magnitude (a.u.)       :      0.57855
Magnitude (Debye)      :      1.47056

Rotational constants in cm-1:     0.016336     0.009537     0.007117
Rotational constants in MHz :   489.727567   285.899451   213.370374

                             ****ORCA TERMINATED NORMALLY****
TOTAL RUN TIME: 0 days 0 hours 0 minutes 34 seconds 50 msec
