                         Program Version 4.2.1 -  RELEASE  -
|  1> ! wB97X-D3 SP def2-SVP
|  2> %pal
|  3> nprocs 16
|  4> end
|  5>
|  6> * xyz 0 1
|  7> S 	 -45.1246 	 53.2898 	 109.407
|  8> C 	 -46.0285 	 54.8333 	 109.701
|  9> C 	 -45.1594 	 55.7595 	 110.315
| 10> C 	 -43.8104 	 55.3309 	 110.123
| 11> C 	 -43.561 	 54.0371 	 109.758
| 12> H 	 -42.8342 	 55.8315 	 110.25
| 13> C 	 -45.4346 	 57.1542 	 110.685
| 14> H 	 -44.6008 	 57.7376 	 110.336
| 15> H 	 -45.5147 	 57.181 	 111.767
| 16> C 	 -46.7341 	 57.807 	 110.039
| 17> H 	 -46.8751 	 57.3195 	 109.082
| 18> H 	 -47.5952 	 57.6084 	 110.612
| 19> C 	 -46.6021 	 59.3526 	 109.905
| 20> H 	 -46.2458 	 59.6536 	 110.941
| 21> H 	 -45.9801 	 59.7288 	 109.099
| 22> H 	 -47.5284 	 59.8313 	 109.671
| 23> S 	 -42.1956 	 51.7205 	 110.43
| 24> C 	 -40.6162 	 51.4154 	 109.745
| 25> C 	 -40.1921 	 52.4436 	 108.98
| 26> C 	 -41.182 	 53.5206 	 108.876
| 27> C 	 -42.3169 	 53.2747 	 109.629
| 28> H 	 -39.1959 	 52.4011 	 108.441
| 29> C 	 -40.9768 	 54.799 	 108.02
| 30> H 	 -41.954 	 55.2724 	 107.765
| 31> H 	 -40.534 	 54.4231 	 107.043
| 32> C 	 -40.0691 	 55.7882 	 108.755
| 33> H 	 -39.0311 	 55.3964 	 108.741
| 34> H 	 -40.2812 	 55.6348 	 109.8
| 35> C 	 -40.0808 	 57.2439 	 108.289
| 36> H 	 -41.1061 	 57.6838 	 108.31
| 37> H 	 -39.6412 	 57.216 	 107.296
| 38> H 	 -39.2998 	 57.8453 	 108.921
| 39> H 	 -47.0896 	 54.9635 	 109.64
| 40> H 	 -39.8743 	 50.6775 	 110
| 41> *
| 42>
| 43>                          ****END OF INPUT****

CARTESIAN COORDINATES (ANGSTROEM)
---------------------------------
  S    -45.124600   53.289800  109.407000
  C    -46.028500   54.833300  109.701000
  C    -45.159400   55.759500  110.315000
  C    -43.810400   55.330900  110.123000
  C    -43.561000   54.037100  109.758000
  H    -42.834200   55.831500  110.250000
  C    -45.434600   57.154200  110.685000
  H    -44.600800   57.737600  110.336000
  H    -45.514700   57.181000  111.767000
  C    -46.734100   57.807000  110.039000
  H    -46.875100   57.319500  109.082000
  H    -47.595200   57.608400  110.612000
  C    -46.602100   59.352600  109.905000
  H    -46.245800   59.653600  110.941000
  H    -45.980100   59.728800  109.099000
  H    -47.528400   59.831300  109.671000
  S    -42.195600   51.720500  110.430000
  C    -40.616200   51.415400  109.745000
  C    -40.192100   52.443600  108.980000
  C    -41.182000   53.520600  108.876000
  C    -42.316900   53.274700  109.629000
  H    -39.195900   52.401100  108.441000
  C    -40.976800   54.799000  108.020000
  H    -41.954000   55.272400  107.765000
  H    -40.534000   54.423100  107.043000
  C    -40.069100   55.788200  108.755000
  H    -39.031100   55.396400  108.741000
  H    -40.281200   55.634800  109.800000
  C    -40.080800   57.243900  108.289000
  H    -41.106100   57.683800  108.310000
  H    -39.641200   57.216000  107.296000
  H    -39.299800   57.845300  108.921000
  H    -47.089600   54.963500  109.640000
  H    -39.874300   50.677500  110.000000

 Total Charge           Charge          ....    0
 Multiplicity           Mult            ....    1
 Number of Electrons    NEL             ....  134
 Basis Dimension        Dim             ....  322

ORBITAL ENERGIES
----------------

  NO   OCC          E(Eh)            E(eV)
   0   2.0000     -88.966791     -2420.9095
   1   2.0000     -88.962187     -2420.7842
   2   2.0000     -10.330284      -281.1013
   3   2.0000     -10.329796      -281.0880
   4   2.0000     -10.322401      -280.8868
   5   2.0000     -10.315445      -280.6975
   6   2.0000     -10.309179      -280.5270
   7   2.0000     -10.306680      -280.4590
   8   2.0000     -10.300450      -280.2895
   9   2.0000     -10.300058      -280.2788
  10   2.0000     -10.294016      -280.1144
  11   2.0000     -10.292560      -280.0748
  12   2.0000     -10.291779      -280.0535
  13   2.0000     -10.288875      -279.9745
  14   2.0000     -10.285843      -279.8920
  15   2.0000     -10.284682      -279.8604
  16   2.0000      -8.081517      -219.9093
  17   2.0000      -8.075760      -219.7526
  18   2.0000      -6.040222      -164.3628
  19   2.0000      -6.036030      -164.2487
  20   2.0000      -6.034461      -164.2060
  21   2.0000      -6.032037      -164.1401
  22   2.0000      -6.030406      -164.0957
  23   2.0000      -6.026387      -163.9863
  24   2.0000      -1.004896       -27.3446
  25   2.0000      -0.981720       -26.7140
  26   2.0000      -0.912220       -24.8228
  27   2.0000      -0.906989       -24.6804
  28   2.0000      -0.869341       -23.6560
  29   2.0000      -0.847642       -23.0655
  30   2.0000      -0.843077       -22.9413
  31   2.0000      -0.818632       -22.2761
  32   2.0000      -0.780333       -21.2340
  33   2.0000      -0.769547       -20.9404
  34   2.0000      -0.717546       -19.5254
  35   2.0000      -0.699985       -19.0475
  36   2.0000      -0.692219       -18.8362
  37   2.0000      -0.656398       -17.8615
  38   2.0000      -0.643717       -17.5164
  39   2.0000      -0.606025       -16.4908
  40   2.0000      -0.590468       -16.0675
  41   2.0000      -0.575495       -15.6600
  42   2.0000      -0.570607       -15.5270
  43   2.0000      -0.561489       -15.2789
  44   2.0000      -0.532862       -14.4999
  45   2.0000      -0.521558       -14.1923
  46   2.0000      -0.516987       -14.0679
  47   2.0000      -0.514173       -13.9914
  48   2.0000      -0.505447       -13.7539
  49   2.0000      -0.497176       -13.5288
  50   2.0000      -0.490612       -13.3502
  51   2.0000      -0.481370       -13.0987
  52   2.0000      -0.472677       -12.8622
  53   2.0000      -0.463744       -12.6191
  54   2.0000      -0.456717       -12.4279
  55   2.0000      -0.446433       -12.1480
  56   2.0000      -0.445298       -12.1172
  57   2.0000      -0.433216       -11.7884
  58   2.0000      -0.432033       -11.7562
  59   2.0000      -0.425388       -11.5754
  60   2.0000      -0.423454       -11.5228
  61   2.0000      -0.412474       -11.2240
  62   2.0000      -0.407716       -11.0945
  63   2.0000      -0.349268        -9.5041
  64   2.0000      -0.331227        -9.0131
  65   2.0000      -0.326771        -8.8919
  66   2.0000      -0.296727        -8.0743
  67   0.0000       0.033193         0.9032
  68   0.0000       0.063443         1.7264
  69   0.0000       0.113912         3.0997
  70   0.0000       0.116576         3.1722
  71   0.0000       0.127183         3.4608

MULLIKEN ATOMIC CHARGES
-----------------------
   0 S :    0.091919
   1 C :   -0.116478
   2 C :   -0.075767
   3 C :   -0.003151
   4 C :   -0.146636
   5 H :    0.010516
   6 C :    0.065502
   7 H :    0.034586
   8 H :    0.046453
   9 C :   -0.082447
  10 H :    0.030601
  11 H :    0.026074
  12 C :   -0.062275
  13 H :    0.042706
  14 H :    0.038548
  15 H :    0.026350
  16 S :    0.110044
  17 C :   -0.068871
  18 C :   -0.063061
  19 C :   -0.064635
  20 C :   -0.155660
  21 H :    0.045513
  22 C :    0.044985
  23 H :    0.037849
  24 H :    0.037370
  25 C :   -0.094560
  26 H :    0.021603
  27 H :    0.028737
  28 C :   -0.051926
  29 H :    0.050462
  30 H :    0.035691
  31 H :    0.050233
  32 H :    0.054323
  33 H :    0.055401
Sum of atomic charges:    0.0000000

LOEWDIN ATOMIC CHARGES
----------------------
   0 S :    0.370178
   1 C :   -0.175727
   2 C :   -0.061237
   3 C :   -0.072490
   4 C :   -0.186742
   5 H :    0.035017
   6 C :   -0.031010
   7 H :    0.033518
   8 H :    0.038648
   9 C :   -0.034240
  10 H :    0.020400
  11 H :    0.017674
  12 C :   -0.066951
  13 H :    0.034471
  14 H :    0.025338
  15 H :    0.022334
  16 S :    0.403348
  17 C :   -0.187526
  18 C :   -0.079972
  19 C :   -0.052422
  20 C :   -0.201791
  21 H :    0.043796
  22 C :   -0.034942
  23 H :    0.031861
  24 H :    0.034668
  25 C :   -0.057128
  26 H :    0.027261
  27 H :    0.018263
  28 C :   -0.071592
  29 H :    0.029227
  30 H :    0.026486
  31 H :    0.040961
  32 H :    0.024889
  33 H :    0.035432

  Mayer bond orders larger than 0.100000
B(  0-S ,  1-C ) :   1.1311 B(  0-S ,  4-C ) :   1.1226 B(  1-C ,  2-C ) :   1.6079
B(  1-C ,  4-C ) :   0.1041 B(  1-C , 32-H ) :   0.9655 B(  2-C ,  3-C ) :   1.2023
B(  2-C ,  6-C ) :   1.0359 B(  3-C ,  4-C ) :   1.6364 B(  3-C ,  5-H ) :   0.9840
B(  4-C , 20-C ) :   1.0279 B(  6-C ,  7-H ) :   0.9562 B(  6-C ,  8-H ) :   0.9125
B(  6-C ,  9-C ) :   1.0675 B(  9-C , 10-H ) :   0.9590 B(  9-C , 11-H ) :   0.9546
B(  9-C , 12-C ) :   1.0835 B( 12-C , 13-H ) :   0.9761 B( 12-C , 14-H ) :   0.9764
B( 12-C , 15-H ) :   0.9740 B( 16-S , 17-C ) :   1.1336 B( 16-S , 20-C ) :   1.1282
B( 17-C , 18-C ) :   1.6656 B( 17-C , 33-H ) :   0.9597 B( 18-C , 19-C ) :   1.2147
B( 18-C , 21-H ) :   0.9749 B( 19-C , 20-C ) :   1.6238 B( 19-C , 22-C ) :   1.0450
B( 22-C , 23-H ) :   0.9409 B( 22-C , 24-H ) :   0.9353 B( 22-C , 25-C ) :   1.0423
B( 25-C , 26-H ) :   0.9472 B( 25-C , 27-H ) :   0.9568 B( 25-C , 28-C ) :   1.0813
B( 28-C , 29-H ) :   0.9740 B( 28-C , 30-H ) :   0.9714 B( 28-C , 31-H ) :   0.9719

Dispersion correction           -0.014035417
FINAL SINGLE POINT ENERGY     -1339.863483839832

DIPOLE MOMENT
-------------
                                X             Y             Z
Electronic contribution:     -2.16392     -30.96633       4.44147
Nuclear contribution   :      2.47098      31.65165      -4.54170
                        -----------------------------------------
Total Dipole Moment    :      0.30707       0.68532      -0.10023
                        -----------------------------------------
Magnitude (a.u.)       :      0.75763
Magnitude (Debye)      :      1.92574

Rotational constants in cm-1:     0.019149     0.008308     0.006149
Rotational constants in MHz :   574.061249   249.064113   184.345419

                             ****ORCA TERMINATED NORMALLY****
TOTAL RUN TIME: 0 days 0 hours 0 minutes 29 seconds 334 msec
