                         Program Version 4.2.1 -  RELEASE  -
|  1> ! wB97X-D3 SP def2-SVP
|  2> %pal
|  3> nprocs 16
|  4> end
|  5>
|  6> * xyz 0 1
|  7> S 	 -39.7532 	 53.2093 	 106.257
|  8> C 	 -41.0204 	 54.0904 	 105.562
|  9> C 	 -42.0136 	 54.3786 	 106.498
| 10> C 	 -41.7698 	 53.8384 	 107.814
| 11> C 	 -40.5873 	 53.1683 	 107.862
| 12> H 	 -42.3795 	 53.8229 	 108.673
| 13> C 	 -43.2285 	 55.1992 	 106.116
| 14> H 	 -44.039 	 55.0088 	 106.794
| 15> H 	 -43.5975 	 54.9065 	 105.13
| 16> C 	 -43.0954 	 56.7845 	 106.256
| 17> H 	 -43.0529 	 57.0728 	 107.314
| 18> H 	 -42.173 	 57.1197 	 105.847
| 19> C 	 -44.1129 	 57.7202 	 105.525
| 20> H 	 -43.9555 	 58.7665 	 105.592
| 21> H 	 -44.2074 	 57.4499 	 104.406
| 22> H 	 -45.165 	 57.6156 	 105.867
| 23> S 	 -40.5569 	 51.1692 	 109.712
| 24> C 	 -39.366 	 51.1107 	 110.958
| 25> C 	 -38.6387 	 52.2975 	 110.974
| 26> C 	 -38.9219 	 53.084 	 109.853
| 27> C 	 -39.9433 	 52.6234 	 109.037
| 28> H 	 -37.8586 	 52.4155 	 111.699
| 29> C 	 -38.1412 	 54.4321 	 109.612
| 30> H 	 -37.7466 	 54.7949 	 110.554
| 31> H 	 -38.8548 	 55.0999 	 109.233
| 32> C 	 -37.0424 	 54.1944 	 108.565
| 33> H 	 -37.5495 	 53.82 	 107.694
| 34> H 	 -36.304 	 53.4549 	 108.89
| 35> C 	 -36.2505 	 55.5229 	 108.283
| 36> H 	 -36.821 	 56.2692 	 107.722
| 37> H 	 -35.4136 	 55.1121 	 107.784
| 38> H 	 -35.9291 	 55.956 	 109.179
| 39> H 	 -41.0578 	 54.4614 	 104.524
| 40> H 	 -39.1692 	 50.2379 	 111.602
| 41> *
| 42>
| 43>                          ****END OF INPUT****

CARTESIAN COORDINATES (ANGSTROEM)
---------------------------------
  S    -39.753200   53.209300  106.257000
  C    -41.020400   54.090400  105.562000
  C    -42.013600   54.378600  106.498000
  C    -41.769800   53.838400  107.814000
  C    -40.587300   53.168300  107.862000
  H    -42.379500   53.822900  108.673000
  C    -43.228500   55.199200  106.116000
  H    -44.039000   55.008800  106.794000
  H    -43.597500   54.906500  105.130000
  C    -43.095400   56.784500  106.256000
  H    -43.052900   57.072800  107.314000
  H    -42.173000   57.119700  105.847000
  C    -44.112900   57.720200  105.525000
  H    -43.955500   58.766500  105.592000
  H    -44.207400   57.449900  104.406000
  H    -45.165000   57.615600  105.867000
  S    -40.556900   51.169200  109.712000
  C    -39.366000   51.110700  110.958000
  C    -38.638700   52.297500  110.974000
  C    -38.921900   53.084000  109.853000
  C    -39.943300   52.623400  109.037000
  H    -37.858600   52.415500  111.699000
  C    -38.141200   54.432100  109.612000
  H    -37.746600   54.794900  110.554000
  H    -38.854800   55.099900  109.233000
  C    -37.042400   54.194400  108.565000
  H    -37.549500   53.820000  107.694000
  H    -36.304000   53.454900  108.890000
  C    -36.250500   55.522900  108.283000
  H    -36.821000   56.269200  107.722000
  H    -35.413600   55.112100  107.784000
  H    -35.929100   55.956000  109.179000
  H    -41.057800   54.461400  104.524000
  H    -39.169200   50.237900  111.602000

 Total Charge           Charge          ....    0
 Multiplicity           Mult            ....    1
 Number of Electrons    NEL             ....  134
 Basis Dimension        Dim             ....  322

ORBITAL ENERGIES
----------------

  NO   OCC          E(Eh)            E(eV)
   0   2.0000     -88.969093     -2420.9721
   1   2.0000     -88.963434     -2420.8181
   2   2.0000     -10.331136      -281.1245
   3   2.0000     -10.319542      -280.8090
   4   2.0000     -10.317335      -280.7490
   5   2.0000     -10.316139      -280.7164
   6   2.0000     -10.305132      -280.4169
   7   2.0000     -10.299929      -280.2753
   8   2.0000     -10.296924      -280.1936
   9   2.0000     -10.294774      -280.1350
  10   2.0000     -10.290092      -280.0076
  11   2.0000     -10.289703      -279.9970
  12   2.0000     -10.285562      -279.8844
  13   2.0000     -10.282829      -279.8100
  14   2.0000     -10.278633      -279.6958
  15   2.0000     -10.266425      -279.3636
  16   2.0000      -8.083399      -219.9605
  17   2.0000      -8.079195      -219.8461
  18   2.0000      -6.041874      -164.4077
  19   2.0000      -6.037868      -164.2987
  20   2.0000      -6.037495      -164.2886
  21   2.0000      -6.034290      -164.2014
  22   2.0000      -6.033317      -164.1749
  23   2.0000      -6.030370      -164.0947
  24   2.0000      -1.011401       -27.5216
  25   2.0000      -0.989296       -26.9201
  26   2.0000      -0.902320       -24.5534
  27   2.0000      -0.899420       -24.4745
  28   2.0000      -0.875366       -23.8199
  29   2.0000      -0.849441       -23.1145
  30   2.0000      -0.845919       -23.0186
  31   2.0000      -0.817906       -22.2564
  32   2.0000      -0.779676       -21.2161
  33   2.0000      -0.766815       -20.8661
  34   2.0000      -0.705317       -19.1927
  35   2.0000      -0.698360       -19.0034
  36   2.0000      -0.691583       -18.8189
  37   2.0000      -0.665014       -18.0959
  38   2.0000      -0.650758       -17.7080
  39   2.0000      -0.616812       -16.7843
  40   2.0000      -0.591471       -16.0947
  41   2.0000      -0.571771       -15.5587
  42   2.0000      -0.565451       -15.3867
  43   2.0000      -0.552191       -15.0259
  44   2.0000      -0.528880       -14.3915
  45   2.0000      -0.518444       -14.1076
  46   2.0000      -0.516097       -14.0437
  47   2.0000      -0.511850       -13.9281
  48   2.0000      -0.508443       -13.8354
  49   2.0000      -0.500667       -13.6238
  50   2.0000      -0.490323       -13.3424
  51   2.0000      -0.482455       -13.1283
  52   2.0000      -0.475634       -12.9427
  53   2.0000      -0.466982       -12.7072
  54   2.0000      -0.463867       -12.6225
  55   2.0000      -0.448554       -12.2058
  56   2.0000      -0.441789       -12.0217
  57   2.0000      -0.436502       -11.8778
  58   2.0000      -0.430160       -11.7052
  59   2.0000      -0.428373       -11.6566
  60   2.0000      -0.421887       -11.4801
  61   2.0000      -0.411521       -11.1980
  62   2.0000      -0.399963       -10.8835
  63   2.0000      -0.347095        -9.4449
  64   2.0000      -0.334596        -9.1048
  65   2.0000      -0.319985        -8.7072
  66   2.0000      -0.301367        -8.2006
  67   0.0000       0.042299         1.1510
  68   0.0000       0.053159         1.4465
  69   0.0000       0.113134         3.0785
  70   0.0000       0.117723         3.2034
  71   0.0000       0.137709         3.7473

MULLIKEN ATOMIC CHARGES
-----------------------
   0 S :    0.117641
   1 C :   -0.115611
   2 C :   -0.093789
   3 C :    0.080064
   4 C :   -0.166238
   5 H :    0.003149
   6 C :    0.073471
   7 H :    0.016588
   8 H :    0.026418
   9 C :   -0.055627
  10 H :    0.030288
  11 H :    0.016854
  12 C :   -0.085471
  13 H :    0.035899
  14 H :    0.034791
  15 H :    0.025502
  16 S :    0.118726
  17 C :   -0.116762
  18 C :   -0.030682
  19 C :   -0.040109
  20 C :   -0.193524
  21 H :    0.013039
  22 C :    0.122363
  23 H :    0.011232
  24 H :    0.015712
  25 C :   -0.100648
  26 H :    0.017988
  27 H :    0.025302
  28 C :    0.005722
  29 H :    0.038634
  30 H :    0.025296
  31 H :    0.010818
  32 H :    0.062670
  33 H :    0.070297
Sum of atomic charges:   -0.0000000

LOEWDIN ATOMIC CHARGES
----------------------
   0 S :    0.420927
   1 C :   -0.213349
   2 C :   -0.066850
   3 C :   -0.044341
   4 C :   -0.178311
   5 H :    0.031087
   6 C :   -0.031070
   7 H :    0.027730
   8 H :    0.029868
   9 C :   -0.038644
  10 H :    0.025436
  11 H :    0.016129
  12 C :   -0.076821
  13 H :    0.022319
  14 H :    0.031419
  15 H :    0.022388
  16 S :    0.437619
  17 C :   -0.195509
  18 C :   -0.076570
  19 C :   -0.049162
  20 C :   -0.230109
  21 H :    0.029839
  22 C :   -0.017619
  23 H :    0.023220
  24 H :    0.022004
  25 C :   -0.033722
  26 H :    0.005681
  27 H :    0.022498
  28 C :   -0.055645
  29 H :    0.026947
  30 H :    0.023756
  31 H :    0.014199
  32 H :    0.038553
  33 H :    0.036104

  Mayer bond orders larger than 0.100000
B(  0-S ,  1-C ) :   1.1567 B(  0-S ,  4-C ) :   1.1329 B(  1-C ,  2-C ) :   1.6028
B(  1-C , 32-H ) :   0.9650 B(  2-C ,  3-C ) :   1.2177 B(  2-C ,  6-C ) :   1.0412
B(  3-C ,  4-C ) :   1.6131 B(  3-C ,  5-H ) :   1.0000 B(  4-C , 20-C ) :   1.0127
B(  6-C ,  7-H ) :   0.9403 B(  6-C ,  8-H ) :   0.9477 B(  6-C ,  9-C ) :   1.0391
B(  9-C , 10-H ) :   0.9588 B(  9-C , 11-H ) :   0.9630 B(  9-C , 12-C ) :   1.0709
B( 12-C , 13-H ) :   0.9767 B( 12-C , 14-H ) :   0.9752 B( 12-C , 15-H ) :   0.9770
B( 16-S , 17-C ) :   1.1941 B( 16-S , 20-C ) :   1.1583 B( 17-C , 18-C ) :   1.5505
B( 17-C , 20-C ) :   0.1101 B( 17-C , 33-H ) :   0.9657 B( 18-C , 19-C ) :   1.2936
B( 18-C , 21-H ) :   0.9966 B( 19-C , 20-C ) :   1.5630 B( 19-C , 22-C ) :   1.0265
B( 22-C , 23-H ) :   0.9401 B( 22-C , 24-H ) :   0.9299 B( 22-C , 25-C ) :   1.0731
B( 25-C , 26-H ) :   0.9483 B( 25-C , 27-H ) :   0.9601 B( 25-C , 28-C ) :   1.0749
B( 28-C , 29-H ) :   0.9765 B( 28-C , 30-H ) :   0.9774 B( 28-C , 31-H ) :   0.9736

Dispersion correction           -0.014343130
FINAL SINGLE POINT ENERGY     -1339.873997417976

DIPOLE MOMENT
-------------
                                X             Y             Z
Electronic contribution:      0.58167     -24.15643       5.57341
Nuclear contribution   :     -0.57830      24.54819      -5.45480
                        -----------------------------------------
Total Dipole Moment    :      0.00337       0.39176       0.11861
                        -----------------------------------------
Magnitude (a.u.)       :      0.40933
Magnitude (Debye)      :      1.04044

Rotational constants in cm-1:     0.019285     0.007906     0.006674
Rotational constants in MHz :   578.147299   237.016957   200.095203

                             ****ORCA TERMINATED NORMALLY****
TOTAL RUN TIME: 0 days 0 hours 0 minutes 27 seconds 637 msec
