                         Program Version 4.2.1 -  RELEASE  -
|  1> ! wB97X-D3 SP def2-SVP
|  2> %pal
|  3> nprocs 16
|  4> end
|  5>
|  6> * xyz 0 1
|  7> S 	 -80.1958 	 44.2588 	 132.15
|  8> C 	 -81.7781 	 44.1745 	 131.378
|  9> C 	 -82.2477 	 45.4738 	 131.203
| 10> C 	 -81.4338 	 46.5212 	 131.733
| 11> C 	 -80.231 	 46.0315 	 132.218
| 12> H 	 -81.6486 	 47.6083 	 131.722
| 13> C 	 -83.4851 	 45.7423 	 130.462
| 14> H 	 -83.8213 	 46.7407 	 130.787
| 15> H 	 -84.2404 	 45.0828 	 130.891
| 16> C 	 -83.3424 	 45.7399 	 128.925
| 17> H 	 -84.2973 	 46.058 	 128.541
| 18> H 	 -82.6209 	 46.4272 	 128.573
| 19> C 	 -83.0831 	 44.3446 	 128.323
| 20> H 	 -81.9899 	 44.2021 	 128.487
| 21> H 	 -83.6168 	 43.5904 	 128.836
| 22> H 	 -83.3527 	 44.3557 	 127.234
| 23> S 	 -78.4588 	 48.1791 	 132.18
| 24> C 	 -77.3709 	 48.389 	 133.437
| 25> C 	 -77.4978 	 47.4645 	 134.436
| 26> C 	 -78.498 	 46.4849 	 134.095
| 27> C 	 -79.1686 	 46.7778 	 132.873
| 28> H 	 -76.8776 	 47.4205 	 135.29
| 29> C 	 -78.9162 	 45.3668 	 135.057
| 30> H 	 -78.358 	 44.4954 	 134.852
| 31> H 	 -79.9544 	 45.146 	 134.805
| 32> C 	 -78.7762 	 45.6641 	 136.571
| 33> H 	 -79.1694 	 46.6279 	 136.626
| 34> H 	 -77.7633 	 45.6915 	 136.905
| 35> C 	 -79.4686 	 44.6568 	 137.491
| 36> H 	 -79.5277 	 45.0971 	 138.507
| 37> H 	 -78.9016 	 43.7359 	 137.544
| 38> H 	 -80.41 	 44.4808 	 137.1
| 39> H 	 -82.1893 	 43.2478 	 130.997
| 40> H 	 -76.5611 	 49.1158 	 133.488
| 41> *
| 42>
| 43>                          ****END OF INPUT****

CARTESIAN COORDINATES (ANGSTROEM)
---------------------------------
  S    -80.195800   44.258800  132.150000
  C    -81.778100   44.174500  131.378000
  C    -82.247700   45.473800  131.203000
  C    -81.433800   46.521200  131.733000
  C    -80.231000   46.031500  132.218000
  H    -81.648600   47.608300  131.722000
  C    -83.485100   45.742300  130.462000
  H    -83.821300   46.740700  130.787000
  H    -84.240400   45.082800  130.891000
  C    -83.342400   45.739900  128.925000
  H    -84.297300   46.058000  128.541000
  H    -82.620900   46.427200  128.573000
  C    -83.083100   44.344600  128.323000
  H    -81.989900   44.202100  128.487000
  H    -83.616800   43.590400  128.836000
  H    -83.352700   44.355700  127.234000
  S    -78.458800   48.179100  132.180000
  C    -77.370900   48.389000  133.437000
  C    -77.497800   47.464500  134.436000
  C    -78.498000   46.484900  134.095000
  C    -79.168600   46.777800  132.873000
  H    -76.877600   47.420500  135.290000
  C    -78.916200   45.366800  135.057000
  H    -78.358000   44.495400  134.852000
  H    -79.954400   45.146000  134.805000
  C    -78.776200   45.664100  136.571000
  H    -79.169400   46.627900  136.626000
  H    -77.763300   45.691500  136.905000
  C    -79.468600   44.656800  137.491000
  H    -79.527700   45.097100  138.507000
  H    -78.901600   43.735900  137.544000
  H    -80.410000   44.480800  137.100000
  H    -82.189300   43.247800  130.997000
  H    -76.561100   49.115800  133.488000

 Total Charge           Charge          ....    0
 Multiplicity           Mult            ....    1
 Number of Electrons    NEL             ....  134
 Basis Dimension        Dim             ....  322

ORBITAL ENERGIES
----------------

  NO   OCC          E(Eh)            E(eV)
   0   2.0000     -88.967884     -2420.9392
   1   2.0000     -88.965392     -2420.8714
   2   2.0000     -10.333179      -281.1801
   3   2.0000     -10.324242      -280.9369
   4   2.0000     -10.314803      -280.6800
   5   2.0000     -10.311528      -280.5909
   6   2.0000     -10.304447      -280.3983
   7   2.0000     -10.297659      -280.2136
   8   2.0000     -10.297217      -280.2015
   9   2.0000     -10.288268      -279.9580
  10   2.0000     -10.285822      -279.8915
  11   2.0000     -10.281852      -279.7834
  12   2.0000     -10.281431      -279.7720
  13   2.0000     -10.277642      -279.6689
  14   2.0000     -10.274380      -279.5801
  15   2.0000     -10.271059      -279.4897
  16   2.0000      -8.084261      -219.9839
  17   2.0000      -8.079145      -219.8447
  18   2.0000      -6.042579      -164.4269
  19   2.0000      -6.038360      -164.3121
  20   2.0000      -6.037730      -164.2950
  21   2.0000      -6.035318      -164.2294
  22   2.0000      -6.033669      -164.1845
  23   2.0000      -6.029995      -164.0845
  24   2.0000      -1.010438       -27.4954
  25   2.0000      -0.986569       -26.8459
  26   2.0000      -0.913681       -24.8625
  27   2.0000      -0.907827       -24.7032
  28   2.0000      -0.869327       -23.6556
  29   2.0000      -0.853318       -23.2200
  30   2.0000      -0.846041       -23.0220
  31   2.0000      -0.816459       -22.2170
  32   2.0000      -0.781661       -21.2701
  33   2.0000      -0.769006       -20.9257
  34   2.0000      -0.707770       -19.2594
  35   2.0000      -0.704580       -19.1726
  36   2.0000      -0.692562       -18.8456
  37   2.0000      -0.656369       -17.8607
  38   2.0000      -0.637212       -17.3394
  39   2.0000      -0.617566       -16.8048
  40   2.0000      -0.597597       -16.2614
  41   2.0000      -0.575664       -15.6646
  42   2.0000      -0.572512       -15.5788
  43   2.0000      -0.544527       -14.8173
  44   2.0000      -0.540280       -14.7018
  45   2.0000      -0.527665       -14.3585
  46   2.0000      -0.523406       -14.2426
  47   2.0000      -0.515428       -14.0255
  48   2.0000      -0.509386       -13.8611
  49   2.0000      -0.497123       -13.5274
  50   2.0000      -0.483092       -13.1456
  51   2.0000      -0.482052       -13.1173
  52   2.0000      -0.471737       -12.8366
  53   2.0000      -0.468655       -12.7528
  54   2.0000      -0.463087       -12.6012
  55   2.0000      -0.456114       -12.4115
  56   2.0000      -0.445111       -12.1121
  57   2.0000      -0.437788       -11.9128
  58   2.0000      -0.428037       -11.6475
  59   2.0000      -0.421558       -11.4712
  60   2.0000      -0.418553       -11.3894
  61   2.0000      -0.417460       -11.3597
  62   2.0000      -0.404011       -10.9937
  63   2.0000      -0.351706        -9.5704
  64   2.0000      -0.332744        -9.0544
  65   2.0000      -0.325127        -8.8472
  66   2.0000      -0.288274        -7.8443
  67   0.0000       0.029318         0.7978
  68   0.0000       0.075530         2.0553
  69   0.0000       0.112005         3.0478
  70   0.0000       0.124491         3.3876
  71   0.0000       0.135545         3.6884

MULLIKEN ATOMIC CHARGES
-----------------------
   0 S :    0.099083
   1 C :   -0.129265
   2 C :   -0.101353
   3 C :    0.018156
   4 C :   -0.154006
   5 H :    0.031249
   6 C :    0.051643
   7 H :    0.009716
   8 H :    0.030899
   9 C :   -0.027477
  10 H :    0.019473
  11 H :    0.023637
  12 C :   -0.070336
  13 H :    0.050464
  14 H :    0.020019
  15 H :    0.047748
  16 S :    0.135720
  17 C :   -0.071936
  18 C :   -0.031063
  19 C :   -0.072451
  20 C :   -0.153931
  21 H :    0.003758
  22 C :    0.074758
  23 H :    0.022143
  24 H :    0.030512
  25 C :   -0.084613
  26 H :    0.018312
  27 H :    0.022396
  28 C :   -0.005367
  29 H :    0.038586
  30 H :    0.030189
  31 H :    0.014369
  32 H :    0.054208
  33 H :    0.054762
Sum of atomic charges:    0.0000000

LOEWDIN ATOMIC CHARGES
----------------------
   0 S :    0.403758
   1 C :   -0.198610
   2 C :   -0.066528
   3 C :   -0.070553
   4 C :   -0.178044
   5 H :    0.040115
   6 C :   -0.037698
   7 H :    0.029402
   8 H :    0.032815
   9 C :   -0.028993
  10 H :    0.019864
  11 H :    0.021241
  12 C :   -0.066496
  13 H :    0.031760
  14 H :    0.012974
  15 H :    0.033835
  16 S :    0.458162
  17 C :   -0.209080
  18 C :   -0.072285
  19 C :   -0.047799
  20 C :   -0.227190
  21 H :    0.025944
  22 C :   -0.035738
  23 H :    0.022614
  24 H :    0.024740
  25 C :   -0.035676
  26 H :    0.015437
  27 H :    0.017747
  28 C :   -0.051117
  29 H :    0.033439
  30 H :    0.025379
  31 H :    0.013641
  32 H :    0.029183
  33 H :    0.033756

  Mayer bond orders larger than 0.100000
B(  0-S ,  1-C ) :   1.1258 B(  0-S ,  4-C ) :   1.1586 B(  1-C ,  2-C ) :   1.5874
B(  1-C , 32-H ) :   0.9738 B(  2-C ,  3-C ) :   1.2529 B(  2-C ,  6-C ) :   1.0295
B(  3-C ,  4-C ) :   1.5570 B(  3-C ,  5-H ) :   0.9869 B(  4-C , 20-C ) :   1.0386
B(  6-C ,  7-H ) :   0.9349 B(  6-C ,  8-H ) :   0.9408 B(  6-C ,  9-C ) :   1.0716
B(  9-C , 10-H ) :   0.9555 B(  9-C , 11-H ) :   0.9564 B(  9-C , 12-C ) :   1.0770
B( 12-C , 13-H ) :   0.9740 B( 12-C , 14-H ) :   0.9756 B( 12-C , 15-H ) :   0.9730
B( 16-S , 17-C ) :   1.1888 B( 16-S , 20-C ) :   1.1583 B( 17-C , 18-C ) :   1.5635
B( 17-C , 33-H ) :   0.9604 B( 18-C , 19-C ) :   1.2888 B( 18-C , 21-H ) :   0.9981
B( 19-C , 20-C ) :   1.5368 B( 19-C , 22-C ) :   1.0343 B( 22-C , 23-H ) :   0.9223
B( 22-C , 24-H ) :   0.9342 B( 22-C , 25-C ) :   1.0772 B( 25-C , 26-H ) :   0.9596
B( 25-C , 27-H ) :   0.9468 B( 25-C , 28-C ) :   1.0905 B( 28-C , 29-H ) :   0.9725
B( 28-C , 30-H ) :   0.9749 B( 28-C , 31-H ) :   0.9761

Dispersion correction           -0.014174022
FINAL SINGLE POINT ENERGY     -1339.884103653339

DIPOLE MOMENT
-------------
                                X             Y             Z
Electronic contribution:     11.79683       7.78787      -4.14138
Nuclear contribution   :    -11.97951      -7.73918       4.26196
                        -----------------------------------------
Total Dipole Moment    :     -0.18268       0.04869       0.12058
                        -----------------------------------------
Magnitude (a.u.)       :      0.22423
Magnitude (Debye)      :      0.56996

Rotational constants in cm-1:     0.022109     0.007731     0.006255
Rotational constants in MHz :   662.811656   231.781824   187.524314

                             ****ORCA TERMINATED NORMALLY****
TOTAL RUN TIME: 0 days 0 hours 0 minutes 33 seconds 608 msec
