                         Program Version 4.2.1 -  RELEASE  -
|  1> ! wB97X-D3 SP def2-SVP
|  2> %pal
|  3> nprocs 16
|  4> end
|  5>
|  6> * xyz 0 1
|  7> S 	 68.5435 	 24.242 	 74.6938
|  8> C 	 69.3022 	 23.3955 	 76.0291
|  9> C 	 70.5768 	 23.8548 	 76.237
| 10> C 	 70.8672 	 24.9893 	 75.4377
| 11> C 	 69.8067 	 25.4861 	 74.6521
| 12> H 	 71.7997 	 25.5146 	 75.4565
| 13> C 	 71.6156 	 23.1859 	 77.1288
| 14> H 	 72.4482 	 22.891 	 76.4367
| 15> H 	 71.3479 	 22.2136 	 77.5239
| 16> C 	 72.1929 	 24.0416 	 78.224
| 17> H 	 73.041 	 23.4374 	 78.7028
| 18> H 	 72.7502 	 24.8511 	 77.8143
| 19> C 	 71.2293 	 24.3936 	 79.2828
| 20> H 	 70.5003 	 25.068 	 79.006
| 21> H 	 70.7995 	 23.4802 	 79.7031
| 22> H 	 71.7312 	 24.9882 	 80.0413
| 23> S 	 69.598 	 26.7873 	 72.1562
| 24> C 	 69.6536 	 28.5635 	 72.2119
| 25> C 	 69.7757 	 29.1107 	 73.5166
| 26> C 	 69.8875 	 28.0445 	 74.4802
| 27> C 	 69.8774 	 26.7734 	 73.9156
| 28> H 	 69.7444 	 30.1624 	 73.6742
| 29> C 	 70.0557 	 28.3583 	 75.9229
| 30> H 	 70.2041 	 27.4816 	 76.524
| 31> H 	 69.1795 	 28.8375 	 76.28
| 32> C 	 71.2649 	 29.2658 	 76.2401
| 33> H 	 71.1772 	 30.2859 	 75.8316
| 34> H 	 72.1495 	 28.9214 	 75.7578
| 35> C 	 71.4398 	 29.4451 	 77.75
| 36> H 	 71.4549 	 28.4404 	 78.1463
| 37> H 	 70.6207 	 29.953 	 78.3477
| 38> H 	 72.4364 	 29.7716 	 77.9583
| 39> H 	 68.9594 	 22.4607 	 76.4182
| 40> H 	 69.4977 	 29.1494 	 71.2649
| 41> *
| 42>
| 43>                          ****END OF INPUT****

CARTESIAN COORDINATES (ANGSTROEM)
---------------------------------
  S     68.543500   24.242000   74.693800
  C     69.302200   23.395500   76.029100
  C     70.576800   23.854800   76.237000
  C     70.867200   24.989300   75.437700
  C     69.806700   25.486100   74.652100
  H     71.799700   25.514600   75.456500
  C     71.615600   23.185900   77.128800
  H     72.448200   22.891000   76.436700
  H     71.347900   22.213600   77.523900
  C     72.192900   24.041600   78.224000
  H     73.041000   23.437400   78.702800
  H     72.750200   24.851100   77.814300
  C     71.229300   24.393600   79.282800
  H     70.500300   25.068000   79.006000
  H     70.799500   23.480200   79.703100
  H     71.731200   24.988200   80.041300
  S     69.598000   26.787300   72.156200
  C     69.653600   28.563500   72.211900
  C     69.775700   29.110700   73.516600
  C     69.887500   28.044500   74.480200
  C     69.877400   26.773400   73.915600
  H     69.744400   30.162400   73.674200
  C     70.055700   28.358300   75.922900
  H     70.204100   27.481600   76.524000
  H     69.179500   28.837500   76.280000
  C     71.264900   29.265800   76.240100
  H     71.177200   30.285900   75.831600
  H     72.149500   28.921400   75.757800
  C     71.439800   29.445100   77.750000
  H     71.454900   28.440400   78.146300
  H     70.620700   29.953000   78.347700
  H     72.436400   29.771600   77.958300
  H     68.959400   22.460700   76.418200
  H     69.497700   29.149400   71.264900

 Total Charge           Charge          ....    0
 Multiplicity           Mult            ....    1
 Number of Electrons    NEL             ....  134
 Basis Dimension        Dim             ....  322

ORBITAL ENERGIES
----------------

  NO   OCC          E(Eh)            E(eV)
   0   2.0000     -88.969599     -2420.9859
   1   2.0000     -88.965177     -2420.8655
   2   2.0000     -10.333604      -281.1917
   3   2.0000     -10.330947      -281.1194
   4   2.0000     -10.330869      -281.1172
   5   2.0000     -10.310816      -280.5716
   6   2.0000     -10.307360      -280.4775
   7   2.0000     -10.301791      -280.3260
   8   2.0000     -10.298445      -280.2349
   9   2.0000     -10.292586      -280.0755
  10   2.0000     -10.291470      -280.0451
  11   2.0000     -10.285509      -279.8829
  12   2.0000     -10.283731      -279.8345
  13   2.0000     -10.283425      -279.8262
  14   2.0000     -10.279261      -279.7129
  15   2.0000     -10.266631      -279.3692
  16   2.0000      -8.083408      -219.9607
  17   2.0000      -8.079225      -219.8469
  18   2.0000      -6.041873      -164.4077
  19   2.0000      -6.038230      -164.3086
  20   2.0000      -6.037850      -164.2982
  21   2.0000      -6.034103      -164.1963
  22   2.0000      -6.033806      -164.1882
  23   2.0000      -6.029919      -164.0824
  24   2.0000      -0.999004       -27.1843
  25   2.0000      -0.979527       -26.6543
  26   2.0000      -0.917521       -24.9670
  27   2.0000      -0.912355       -24.8265
  28   2.0000      -0.865633       -23.5551
  29   2.0000      -0.853663       -23.2293
  30   2.0000      -0.845259       -23.0007
  31   2.0000      -0.810879       -22.0651
  32   2.0000      -0.786371       -21.3982
  33   2.0000      -0.773325       -21.0432
  34   2.0000      -0.707105       -19.2413
  35   2.0000      -0.699424       -19.0323
  36   2.0000      -0.691961       -18.8292
  37   2.0000      -0.661250       -17.9935
  38   2.0000      -0.638042       -17.3620
  39   2.0000      -0.622194       -16.9308
  40   2.0000      -0.599807       -16.3216
  41   2.0000      -0.572264       -15.5721
  42   2.0000      -0.564928       -15.3725
  43   2.0000      -0.559087       -15.2135
  44   2.0000      -0.542813       -14.7707
  45   2.0000      -0.527050       -14.3418
  46   2.0000      -0.518601       -14.1118
  47   2.0000      -0.510326       -13.8867
  48   2.0000      -0.500675       -13.6241
  49   2.0000      -0.496464       -13.5095
  50   2.0000      -0.488155       -13.2834
  51   2.0000      -0.481585       -13.1046
  52   2.0000      -0.468444       -12.7470
  53   2.0000      -0.463988       -12.6258
  54   2.0000      -0.458658       -12.4807
  55   2.0000      -0.452193       -12.3048
  56   2.0000      -0.443110       -12.0576
  57   2.0000      -0.438532       -11.9331
  58   2.0000      -0.434976       -11.8363
  59   2.0000      -0.430352       -11.7105
  60   2.0000      -0.420059       -11.4304
  61   2.0000      -0.415598       -11.3090
  62   2.0000      -0.408490       -11.1156
  63   2.0000      -0.337115        -9.1734
  64   2.0000      -0.333235        -9.0678
  65   2.0000      -0.327085        -8.9004
  66   2.0000      -0.295636        -8.0447
  67   0.0000       0.030118         0.8195
  68   0.0000       0.059954         1.6314
  69   0.0000       0.107129         2.9151
  70   0.0000       0.114981         3.1288
  71   0.0000       0.122989         3.3467

MULLIKEN ATOMIC CHARGES
-----------------------
   0 S :    0.107731
   1 C :   -0.115824
   2 C :   -0.063923
   3 C :    0.015976
   4 C :   -0.147421
   5 H :    0.005557
   6 C :    0.058332
   7 H :    0.038399
   8 H :    0.009885
   9 C :   -0.086210
  10 H :    0.026334
  11 H :    0.014613
  12 C :    0.009198
  13 H :    0.018786
  14 H :    0.028392
  15 H :    0.020259
  16 S :    0.103907
  17 C :   -0.120589
  18 C :   -0.013332
  19 C :   -0.029140
  20 C :   -0.171136
  21 H :    0.020251
  22 C :    0.109653
  23 H :    0.016396
  24 H :    0.022343
  25 C :   -0.095736
  26 H :    0.025373
  27 H :    0.022213
  28 C :   -0.031688
  29 H :    0.006313
  30 H :    0.049522
  31 H :    0.026803
  32 H :    0.039287
  33 H :    0.079476
Sum of atomic charges:   -0.0000000

LOEWDIN ATOMIC CHARGES
----------------------
   0 S :    0.393105
   1 C :   -0.191655
   2 C :   -0.068439
   3 C :   -0.060100
   4 C :   -0.189451
   5 H :    0.024314
   6 C :   -0.034405
   7 H :    0.041245
   8 H :    0.024917
   9 C :   -0.047608
  10 H :    0.031922
  11 H :    0.015807
  12 C :   -0.059117
  13 H :    0.015961
  14 H :    0.029128
  15 H :    0.029383
  16 S :    0.382959
  17 C :   -0.173429
  18 C :   -0.063559
  19 C :   -0.041648
  20 C :   -0.197394
  21 H :    0.030484
  22 C :   -0.026858
  23 H :    0.026952
  24 H :    0.030938
  25 C :   -0.037219
  26 H :    0.021150
  27 H :    0.020912
  28 C :   -0.069876
  29 H :    0.020244
  30 H :    0.035771
  31 H :    0.024823
  32 H :    0.024591
  33 H :    0.036153

  Mayer bond orders larger than 0.100000
B(  0-S ,  1-C ) :   1.1419 B(  0-S ,  4-C ) :   1.1408 B(  1-C ,  2-C ) :   1.5987
B(  1-C , 32-H ) :   0.9683 B(  2-C ,  3-C ) :   1.2522 B(  2-C ,  6-C ) :   1.0168
B(  3-C ,  4-C ) :   1.5482 B(  3-C ,  5-H ) :   0.9977 B(  4-C , 20-C ) :   1.0504
B(  6-C ,  7-H ) :   0.9352 B(  6-C ,  8-H ) :   0.9440 B(  6-C ,  9-C ) :   1.0864
B(  9-C , 10-H ) :   0.9480 B(  9-C , 11-H ) :   0.9517 B(  9-C , 12-C ) :   1.0874
B( 12-C , 13-H ) :   0.9710 B( 12-C , 14-H ) :   0.9696 B( 12-C , 15-H ) :   0.9649
B( 16-S , 17-C ) :   1.1637 B( 16-S , 20-C ) :   1.1147 B( 17-C , 18-C ) :   1.6035
B( 17-C , 33-H ) :   0.9595 B( 18-C , 19-C ) :   1.2155 B( 18-C , 21-H ) :   0.9979
B( 19-C , 20-C ) :   1.6138 B( 19-C , 22-C ) :   1.0603 B( 22-C , 23-H ) :   0.9314
B( 22-C , 24-H ) :   0.9202 B( 22-C , 25-C ) :   1.0588 B( 25-C , 26-H ) :   0.9493
B( 25-C , 27-H ) :   0.9562 B( 25-C , 28-C ) :   1.0883 B( 28-C , 29-H ) :   0.9702
B( 28-C , 30-H ) :   0.9734 B( 28-C , 31-H ) :   0.9704

Dispersion correction           -0.014787319
FINAL SINGLE POINT ENERGY     -1339.872285011774

DIPOLE MOMENT
-------------
                                X             Y             Z
Electronic contribution:    -14.82476      -6.50149     -27.87240
Nuclear contribution   :     15.23854       6.78202      28.34308
                        -----------------------------------------
Total Dipole Moment    :      0.41378       0.28052       0.47067
                        -----------------------------------------
Magnitude (a.u.)       :      0.68662
Magnitude (Debye)      :      1.74524

Rotational constants in cm-1:     0.016822     0.010150     0.006917
Rotational constants in MHz :   504.296812   304.280677   207.372457

                             ****ORCA TERMINATED NORMALLY****
TOTAL RUN TIME: 0 days 0 hours 0 minutes 31 seconds 78 msec
