                         Program Version 4.2.1 -  RELEASE  -
|  1> ! wB97X-D3 SP def2-SVP
|  2> %pal
|  3> nprocs 16
|  4> end
|  5>
|  6> * xyz 0 1
|  7> S 	 65.2195 	 -6.75297 	 87.8133
|  8> C 	 63.7069 	 -6.17382 	 88.5344
|  9> C 	 64.0062 	 -5.44066 	 89.69
| 10> C 	 65.3873 	 -5.29337 	 89.9239
| 11> C 	 66.2186 	 -5.8857 	 88.9624
| 12> H 	 65.8501 	 -4.72932 	 90.7431
| 13> C 	 63.0101 	 -4.73686 	 90.5083
| 14> H 	 63.3458 	 -4.79585 	 91.5754
| 15> H 	 62.0972 	 -5.33943 	 90.4699
| 16> C 	 62.6906 	 -3.23057 	 90.3318
| 17> H 	 63.6365 	 -2.70463 	 90.5055
| 18> H 	 62.5539 	 -3.12062 	 89.3003
| 19> C 	 61.3994 	 -2.69155 	 91.021
| 20> H 	 61.1908 	 -1.68804 	 90.5934
| 21> H 	 60.6164 	 -3.40739 	 90.8224
| 22> H 	 61.7582 	 -2.50272 	 92.0655
| 23> S 	 68.5861 	 -6.90812 	 89.8241
| 24> C 	 70.0276 	 -6.60726 	 88.9381
| 25> C 	 69.8465 	 -5.54651 	 88.1253
| 26> C 	 68.4944 	 -5.00346 	 88.1552
| 27> C 	 67.6651 	 -5.78541 	 88.8889
| 28> H 	 70.6917 	 -5.07417 	 87.704
| 29> C 	 67.986 	 -3.82781 	 87.348
| 30> H 	 66.9844 	 -4.07007 	 87.0193
| 31> H 	 68.597 	 -3.51039 	 86.4243
| 32> C 	 67.7782 	 -2.4945 	 88.2182
| 33> H 	 67.1845 	 -2.58469 	 89.1121
| 34> H 	 67.2435 	 -1.77714 	 87.5355
| 35> C 	 69.0846 	 -1.94059 	 88.7929
| 36> H 	 70.0288 	 -2.03504 	 88.2281
| 37> H 	 69.2035 	 -2.44874 	 89.736
| 38> H 	 69.1087 	 -0.906158 	 89.1498
| 39> H 	 62.6996 	 -6.36868 	 88.2179
| 40> H 	 70.9924 	 -6.96549 	 89.1214
| 41> *
| 42>
| 43>                          ****END OF INPUT****

CARTESIAN COORDINATES (ANGSTROEM)
---------------------------------
  S     65.219500   -6.752970   87.813300
  C     63.706900   -6.173820   88.534400
  C     64.006200   -5.440660   89.690000
  C     65.387300   -5.293370   89.923900
  C     66.218600   -5.885700   88.962400
  H     65.850100   -4.729320   90.743100
  C     63.010100   -4.736860   90.508300
  H     63.345800   -4.795850   91.575400
  H     62.097200   -5.339430   90.469900
  C     62.690600   -3.230570   90.331800
  H     63.636500   -2.704630   90.505500
  H     62.553900   -3.120620   89.300300
  C     61.399400   -2.691550   91.021000
  H     61.190800   -1.688040   90.593400
  H     60.616400   -3.407390   90.822400
  H     61.758200   -2.502720   92.065500
  S     68.586100   -6.908120   89.824100
  C     70.027600   -6.607260   88.938100
  C     69.846500   -5.546510   88.125300
  C     68.494400   -5.003460   88.155200
  C     67.665100   -5.785410   88.888900
  H     70.691700   -5.074170   87.704000
  C     67.986000   -3.827810   87.348000
  H     66.984400   -4.070070   87.019300
  H     68.597000   -3.510390   86.424300
  C     67.778200   -2.494500   88.218200
  H     67.184500   -2.584690   89.112100
  H     67.243500   -1.777140   87.535500
  C     69.084600   -1.940590   88.792900
  H     70.028800   -2.035040   88.228100
  H     69.203500   -2.448740   89.736000
  H     69.108700   -0.906158   89.149800
  H     62.699600   -6.368680   88.217900
  H     70.992400   -6.965490   89.121400

 Total Charge           Charge          ....    0
 Multiplicity           Mult            ....    1
 Number of Electrons    NEL             ....  134
 Basis Dimension        Dim             ....  322

ORBITAL ENERGIES
----------------

  NO   OCC          E(Eh)            E(eV)
   0   2.0000     -88.970871     -2421.0205
   1   2.0000     -88.959841     -2420.7203
   2   2.0000     -10.332093      -281.1506
   3   2.0000     -10.320443      -280.8335
   4   2.0000     -10.319492      -280.8077
   5   2.0000     -10.308730      -280.5148
   6   2.0000     -10.303747      -280.3792
   7   2.0000     -10.299971      -280.2764
   8   2.0000     -10.299950      -280.2759
   9   2.0000     -10.295985      -280.1680
  10   2.0000     -10.291600      -280.0487
  11   2.0000     -10.290154      -280.0093
  12   2.0000     -10.289662      -279.9959
  13   2.0000     -10.288101      -279.9535
  14   2.0000     -10.283069      -279.8165
  15   2.0000     -10.272806      -279.5373
  16   2.0000      -8.084533      -219.9913
  17   2.0000      -8.076005      -219.7593
  18   2.0000      -6.043096      -164.4410
  19   2.0000      -6.038958      -164.3284
  20   2.0000      -6.035501      -164.2343
  21   2.0000      -6.034513      -164.2075
  22   2.0000      -6.030294      -164.0926
  23   2.0000      -6.026666      -163.9939
  24   2.0000      -1.012749       -27.5583
  25   2.0000      -0.987761       -26.8784
  26   2.0000      -0.912275       -24.8243
  27   2.0000      -0.900525       -24.5045
  28   2.0000      -0.873208       -23.7612
  29   2.0000      -0.850653       -23.1474
  30   2.0000      -0.845567       -23.0091
  31   2.0000      -0.818769       -22.2798
  32   2.0000      -0.781170       -21.2567
  33   2.0000      -0.772269       -21.0145
  34   2.0000      -0.712054       -19.3760
  35   2.0000      -0.700829       -19.0705
  36   2.0000      -0.691002       -18.8031
  37   2.0000      -0.664472       -18.0812
  38   2.0000      -0.640984       -17.4421
  39   2.0000      -0.618878       -16.8405
  40   2.0000      -0.594574       -16.1792
  41   2.0000      -0.576304       -15.6820
  42   2.0000      -0.566175       -15.4064
  43   2.0000      -0.549038       -14.9401
  44   2.0000      -0.537541       -14.6272
  45   2.0000      -0.529813       -14.4170
  46   2.0000      -0.518910       -14.1203
  47   2.0000      -0.510962       -13.9040
  48   2.0000      -0.504831       -13.7372
  49   2.0000      -0.501127       -13.6363
  50   2.0000      -0.486971       -13.2512
  51   2.0000      -0.477770       -13.0008
  52   2.0000      -0.474691       -12.9170
  53   2.0000      -0.470526       -12.8037
  54   2.0000      -0.461092       -12.5469
  55   2.0000      -0.445347       -12.1185
  56   2.0000      -0.434347       -11.8192
  57   2.0000      -0.431987       -11.7550
  58   2.0000      -0.431667       -11.7463
  59   2.0000      -0.430169       -11.7055
  60   2.0000      -0.426472       -11.6049
  61   2.0000      -0.409414       -11.1407
  62   2.0000      -0.405358       -11.0304
  63   2.0000      -0.333482        -9.0745
  64   2.0000      -0.331101        -9.0097
  65   2.0000      -0.320635        -8.7249
  66   2.0000      -0.312302        -8.4982
  67   0.0000       0.041269         1.1230
  68   0.0000       0.050592         1.3767
  69   0.0000       0.112239         3.0542
  70   0.0000       0.119244         3.2448
  71   0.0000       0.131761         3.5854

MULLIKEN ATOMIC CHARGES
-----------------------
   0 S :    0.129805
   1 C :   -0.116440
   2 C :   -0.066037
   3 C :    0.037637
   4 C :   -0.168119
   5 H :    0.019506
   6 C :    0.025393
   7 H :    0.023201
   8 H :    0.011893
   9 C :   -0.055105
  10 H :    0.020628
  11 H :    0.003289
  12 C :   -0.044539
  13 H :    0.045395
  14 H :    0.046577
  15 H :    0.047252
  16 S :    0.114135
  17 C :   -0.053142
  18 C :   -0.028756
  19 C :    0.002248
  20 C :   -0.203998
  21 H :    0.005344
  22 C :    0.046812
  23 H :    0.030483
  24 H :    0.047791
  25 C :   -0.078838
  26 H :    0.028730
  27 H :    0.038651
  28 C :   -0.070508
  29 H :    0.030226
  30 H :    0.025369
  31 H :    0.027423
  32 H :    0.042654
  33 H :    0.035037
Sum of atomic charges:   -0.0000000

LOEWDIN ATOMIC CHARGES
----------------------
   0 S :    0.412053
   1 C :   -0.188389
   2 C :   -0.069427
   3 C :   -0.059603
   4 C :   -0.199966
   5 H :    0.034079
   6 C :   -0.043328
   7 H :    0.032855
   8 H :    0.026001
   9 C :   -0.042400
  10 H :    0.022667
  11 H :    0.010643
  12 C :   -0.060268
  13 H :    0.033854
  14 H :    0.027795
  15 H :    0.034459
  16 S :    0.422711
  17 C :   -0.180651
  18 C :   -0.068470
  19 C :   -0.051887
  20 C :   -0.212345
  21 H :    0.024203
  22 C :   -0.030440
  23 H :    0.029847
  24 H :    0.040763
  25 C :   -0.037261
  26 H :    0.022486
  27 H :    0.025510
  28 C :   -0.082178
  29 H :    0.022386
  30 H :    0.025724
  31 H :    0.027498
  32 H :    0.028347
  33 H :    0.022729

  Mayer bond orders larger than 0.100000
B(  0-S ,  1-C ) :   1.1448 B(  0-S ,  4-C ) :   1.1555 B(  1-C ,  2-C ) :   1.5702
B(  1-C ,  4-C ) :   0.1078 B(  1-C , 32-H ) :   0.9731 B(  2-C ,  3-C ) :   1.2594
B(  2-C ,  6-C ) :   1.0512 B(  3-C ,  4-C ) :   1.5595 B(  3-C ,  5-H ) :   0.9893
B(  4-C , 20-C ) :   1.0126 B(  6-C ,  7-H ) :   0.9350 B(  6-C ,  8-H ) :   0.9332
B(  6-C ,  9-C ) :   1.0552 B(  9-C , 10-H ) :   0.9536 B(  9-C , 11-H ) :   0.9538
B(  9-C , 12-C ) :   1.0670 B( 12-C , 13-H ) :   0.9744 B( 12-C , 14-H ) :   0.9741
B( 12-C , 15-H ) :   0.9802 B( 16-S , 17-C ) :   1.1496 B( 16-S , 20-C ) :   1.1438
B( 17-C , 18-C ) :   1.6309 B( 17-C , 33-H ) :   0.9718 B( 18-C , 19-C ) :   1.2175
B( 18-C , 21-H ) :   0.9935 B( 19-C , 20-C ) :   1.6156 B( 19-C , 22-C ) :   1.0487
B( 22-C , 23-H ) :   0.9253 B( 22-C , 24-H ) :   0.9481 B( 22-C , 25-C ) :   1.0631
B( 25-C , 26-H ) :   0.9624 B( 25-C , 27-H ) :   0.9629 B( 25-C , 28-C ) :   1.0535
B( 28-C , 29-H ) :   0.9797 B( 28-C , 30-H ) :   0.9770 B( 28-C , 31-H ) :   0.9730

Dispersion correction           -0.014805491
FINAL SINGLE POINT ENERGY     -1339.861793202430

DIPOLE MOMENT
-------------
                                X             Y             Z
Electronic contribution:     10.17363     -25.67211      -5.04090
Nuclear contribution   :    -10.27817      26.28854       5.13522
                        -----------------------------------------
Total Dipole Moment    :     -0.10453       0.61644       0.09432
                        -----------------------------------------
Magnitude (a.u.)       :      0.63231
Magnitude (Debye)      :      1.60720

Rotational constants in cm-1:     0.019808     0.008306     0.006860
Rotational constants in MHz :   593.841895   249.022026   205.648891

                             ****ORCA TERMINATED NORMALLY****
TOTAL RUN TIME: 0 days 0 hours 0 minutes 30 seconds 224 msec
