                         Program Version 4.2.1 -  RELEASE  -
|  1> ! wB97X-D3 SP def2-SVP
|  2> %pal
|  3> nprocs 16
|  4> end
|  5>
|  6> * xyz 0 1
|  7> S 	 -0.86836 	 -4.82518 	 76.421
|  8> C 	 -1.17185 	 -5.19985 	 78.0806
|  9> C 	 -1.16028 	 -4.03064 	 78.7959
| 10> C 	 -0.731815 	 -2.88926 	 78.0668
| 11> C 	 -0.691927 	 -3.07927 	 76.6846
| 12> H 	 -0.50763 	 -1.90945 	 78.3896
| 13> C 	 -1.3317 	 -3.8167 	 80.3116
| 14> H 	 -2.34523 	 -4.07704 	 80.6612
| 15> H 	 -1.20165 	 -2.72335 	 80.4408
| 16> C 	 -0.340235 	 -4.53992 	 81.2102
| 17> H 	 -0.6421 	 -4.64613 	 82.1809
| 18> H 	 -0.212758 	 -5.51973 	 80.8415
| 19> C 	 1.06174 	 -3.81565 	 81.2608
| 20> H 	 1.66696 	 -3.78322 	 80.291
| 21> H 	 1.03417 	 -2.82431 	 81.723
| 22> H 	 1.60044 	 -4.33058 	 81.9531
| 23> S 	 0.893 	 -2.85605 	 74.5071
| 24> C 	 1.03907 	 -1.39158 	 73.5884
| 25> C 	 0.215941 	 -0.439776 	 74.1569
| 26> C 	 -0.557032 	 -0.809702 	 75.3159
| 27> C 	 -0.2207 	 -2.13679 	 75.6697
| 28> H 	 0.36135 	 0.536269 	 73.7783
| 29> C 	 -1.49217 	 0.10865 	 75.9797
| 30> H 	 -1.14461 	 1.0277 	 75.6209
| 31> H 	 -1.18562 	 0.301068 	 77.0251
| 32> C 	 -3.03206 	 -0.00391876 	 75.846
| 33> H 	 -3.50626 	 -0.783364 	 76.3936
| 34> H 	 -3.42532 	 -0.0749651 	 74.8206
| 35> C 	 -3.75407 	 1.20941 	 76.4839
| 36> H 	 -4.81653 	 1.07156 	 76.474
| 37> H 	 -3.58191 	 2.02694 	 75.8119
| 38> H 	 -3.39943 	 1.37698 	 77.5002
| 39> H 	 -1.32891 	 -6.14029 	 78.6096
| 40> H 	 1.79986 	 -1.30356 	 72.8377
| 41> *
| 42>
| 43>                          ****END OF INPUT****

CARTESIAN COORDINATES (ANGSTROEM)
---------------------------------
  S     -0.868360   -4.825180   76.421000
  C     -1.171850   -5.199850   78.080600
  C     -1.160280   -4.030640   78.795900
  C     -0.731815   -2.889260   78.066800
  C     -0.691927   -3.079270   76.684600
  H     -0.507630   -1.909450   78.389600
  C     -1.331700   -3.816700   80.311600
  H     -2.345230   -4.077040   80.661200
  H     -1.201650   -2.723350   80.440800
  C     -0.340235   -4.539920   81.210200
  H     -0.642100   -4.646130   82.180900
  H     -0.212758   -5.519730   80.841500
  C      1.061740   -3.815650   81.260800
  H      1.666960   -3.783220   80.291000
  H      1.034170   -2.824310   81.723000
  H      1.600440   -4.330580   81.953100
  S      0.893000   -2.856050   74.507100
  C      1.039070   -1.391580   73.588400
  C      0.215941   -0.439776   74.156900
  C     -0.557032   -0.809702   75.315900
  C     -0.220700   -2.136790   75.669700
  H      0.361350    0.536269   73.778300
  C     -1.492170    0.108650   75.979700
  H     -1.144610    1.027700   75.620900
  H     -1.185620    0.301068   77.025100
  C     -3.032060   -0.003919   75.846000
  H     -3.506260   -0.783364   76.393600
  H     -3.425320   -0.074965   74.820600
  C     -3.754070    1.209410   76.483900
  H     -4.816530    1.071560   76.474000
  H     -3.581910    2.026940   75.811900
  H     -3.399430    1.376980   77.500200
  H     -1.328910   -6.140290   78.609600
  H      1.799860   -1.303560   72.837700

 Total Charge           Charge          ....    0
 Multiplicity           Mult            ....    1
 Number of Electrons    NEL             ....  134
 Basis Dimension        Dim             ....  322

ORBITAL ENERGIES
----------------

  NO   OCC          E(Eh)            E(eV)
   0   2.0000     -88.966209     -2420.8936
   1   2.0000     -88.962393     -2420.7898
   2   2.0000     -10.332905      -281.1726
   3   2.0000     -10.330542      -281.1083
   4   2.0000     -10.316632      -280.7298
   5   2.0000     -10.313762      -280.6517
   6   2.0000     -10.309566      -280.5376
   7   2.0000     -10.297480      -280.2087
   8   2.0000     -10.293536      -280.1013
   9   2.0000     -10.291655      -280.0502
  10   2.0000     -10.290793      -280.0267
  11   2.0000     -10.288640      -279.9681
  12   2.0000     -10.285987      -279.8959
  13   2.0000     -10.277707      -279.6706
  14   2.0000     -10.273602      -279.5589
  15   2.0000     -10.273457      -279.5550
  16   2.0000      -8.080468      -219.8807
  17   2.0000      -8.077539      -219.8010
  18   2.0000      -6.039140      -164.3333
  19   2.0000      -6.035996      -164.2478
  20   2.0000      -6.034903      -164.2181
  21   2.0000      -6.031785      -164.1332
  22   2.0000      -6.031173      -164.1166
  23   2.0000      -6.028516      -164.0443
  24   2.0000      -1.006072       -27.3766
  25   2.0000      -0.985035       -26.8042
  26   2.0000      -0.912402       -24.8277
  27   2.0000      -0.907565       -24.6961
  28   2.0000      -0.869987       -23.6736
  29   2.0000      -0.858314       -23.3559
  30   2.0000      -0.843957       -22.9652
  31   2.0000      -0.813417       -22.1342
  32   2.0000      -0.783235       -21.3129
  33   2.0000      -0.774280       -21.0692
  34   2.0000      -0.712198       -19.3799
  35   2.0000      -0.706973       -19.2377
  36   2.0000      -0.694759       -18.9054
  37   2.0000      -0.666666       -18.1409
  38   2.0000      -0.640214       -17.4211
  39   2.0000      -0.613133       -16.6842
  40   2.0000      -0.598796       -16.2941
  41   2.0000      -0.573465       -15.6048
  42   2.0000      -0.564285       -15.3550
  43   2.0000      -0.550024       -14.9669
  44   2.0000      -0.538783       -14.6610
  45   2.0000      -0.530750       -14.4424
  46   2.0000      -0.527874       -14.3642
  47   2.0000      -0.510283       -13.8855
  48   2.0000      -0.507143       -13.8001
  49   2.0000      -0.502917       -13.6851
  50   2.0000      -0.489376       -13.3166
  51   2.0000      -0.477334       -12.9889
  52   2.0000      -0.469854       -12.7854
  53   2.0000      -0.465166       -12.6578
  54   2.0000      -0.456452       -12.4207
  55   2.0000      -0.451213       -12.2781
  56   2.0000      -0.442407       -12.0385
  57   2.0000      -0.433907       -11.8072
  58   2.0000      -0.432494       -11.7688
  59   2.0000      -0.426684       -11.6107
  60   2.0000      -0.418689       -11.3931
  61   2.0000      -0.413572       -11.2539
  62   2.0000      -0.404975       -11.0199
  63   2.0000      -0.353074        -9.6076
  64   2.0000      -0.330628        -8.9968
  65   2.0000      -0.327046        -8.8994
  66   2.0000      -0.288719        -7.8564
  67   0.0000       0.022327         0.6076
  68   0.0000       0.073560         2.0017
  69   0.0000       0.112194         3.0530
  70   0.0000       0.120319         3.2740
  71   0.0000       0.138461         3.7677

MULLIKEN ATOMIC CHARGES
-----------------------
   0 S :    0.107208
   1 C :   -0.110715
   2 C :   -0.080895
   3 C :    0.018027
   4 C :   -0.125233
   5 H :   -0.002903
   6 C :    0.059339
   7 H :    0.033521
   8 H :    0.018758
   9 C :   -0.010881
  10 H :    0.005242
  11 H :    0.009415
  12 C :   -0.064147
  13 H :    0.058166
  14 H :    0.025293
  15 H :    0.003759
  16 S :    0.088623
  17 C :   -0.093014
  18 C :   -0.028798
  19 C :   -0.028269
  20 C :   -0.162570
  21 H :    0.007923
  22 C :    0.107032
  23 H :   -0.020348
  24 H :    0.020066
  25 C :   -0.034691
  26 H :    0.028742
  27 H :    0.032453
  28 C :   -0.061795
  29 H :    0.030325
  30 H :    0.023399
  31 H :    0.034823
  32 H :    0.052161
  33 H :    0.059984
Sum of atomic charges:    0.0000000

LOEWDIN ATOMIC CHARGES
----------------------
   0 S :    0.407795
   1 C :   -0.208810
   2 C :   -0.068038
   3 C :   -0.060540
   4 C :   -0.190454
   5 H :    0.023068
   6 C :   -0.030868
   7 H :    0.031225
   8 H :    0.029660
   9 C :   -0.026320
  10 H :    0.012996
  11 H :    0.017708
  12 C :   -0.066079
  13 H :    0.037498
  14 H :    0.024760
  15 H :    0.010129
  16 S :    0.407574
  17 C :   -0.186068
  18 C :   -0.069282
  19 C :   -0.056431
  20 C :   -0.182670
  21 H :    0.023697
  22 C :   -0.040597
  23 H :    0.027046
  24 H :    0.038661
  25 C :   -0.031406
  26 H :    0.022196
  27 H :    0.028659
  28 C :   -0.058592
  29 H :    0.024100
  30 H :    0.019162
  31 H :    0.023446
  32 H :    0.038632
  33 H :    0.028144

  Mayer bond orders larger than 0.100000
B(  0-S ,  1-C ) :   1.1379 B(  0-S ,  4-C ) :   1.1461 B(  1-C ,  2-C ) :   1.5991
B(  1-C , 32-H ) :   0.9674 B(  2-C ,  3-C ) :   1.2541 B(  2-C ,  6-C ) :   1.0139
B(  3-C ,  4-C ) :   1.5610 B(  3-C ,  5-H ) :   0.9957 B(  4-C , 20-C ) :   1.0654
B(  6-C ,  7-H ) :   0.9380 B(  6-C ,  8-H ) :   0.9497 B(  6-C ,  9-C ) :   1.0775
B(  9-C , 10-H ) :   0.9526 B(  9-C , 11-H ) :   0.9548 B(  9-C , 12-C ) :   1.0796
B( 12-C , 13-H ) :   0.9772 B( 12-C , 14-H ) :   0.9731 B( 12-C , 15-H ) :   0.9727
B( 16-S , 17-C ) :   1.1564 B( 16-S , 20-C ) :   1.1595 B( 17-C , 18-C ) :   1.5908
B( 17-C , 33-H ) :   0.9733 B( 18-C , 19-C ) :   1.2501 B( 18-C , 21-H ) :   0.9895
B( 19-C , 20-C ) :   1.5490 B( 19-C , 22-C ) :   1.0506 B( 22-C , 23-H ) :   0.9111
B( 22-C , 24-H ) :   0.9188 B( 22-C , 25-C ) :   1.0506 B( 25-C , 26-H ) :   0.9593
B( 25-C , 27-H ) :   0.9580 B( 25-C , 28-C ) :   1.0770 B( 28-C , 29-H ) :   0.9756
B( 28-C , 30-H ) :   0.9796 B( 28-C , 31-H ) :   0.9761

Dispersion correction           -0.013656887
FINAL SINGLE POINT ENERGY     -1339.851283911949

DIPOLE MOMENT
-------------
                                X             Y             Z
Electronic contribution:      8.32709     -13.53627     -20.28317
Nuclear contribution   :     -8.36822      14.00366      20.76747
                        -----------------------------------------
Total Dipole Moment    :     -0.04113       0.46739       0.48430
                        -----------------------------------------
Magnitude (a.u.)       :      0.67431
Magnitude (Debye)      :      1.71395

Rotational constants in cm-1:     0.017184     0.008608     0.006848
Rotational constants in MHz :   515.176478   258.071257   205.306822

                             ****ORCA TERMINATED NORMALLY****
TOTAL RUN TIME: 0 days 0 hours 0 minutes 33 seconds 300 msec
