                         Program Version 4.2.1 -  RELEASE  -
|  1> ! wB97X-D3 SP def2-SVP
|  2> %pal
|  3> nprocs 16
|  4> end
|  5>
|  6> * xyz 0 1
|  7> S 	 -94.1509 	 38.883 	 125.418
|  8> C 	 -92.7709 	 37.8714 	 125.805
|  9> C 	 -92.1785 	 37.3054 	 124.701
| 10> C 	 -92.9528 	 37.5863 	 123.526
| 11> C 	 -93.9727 	 38.5274 	 123.717
| 12> H 	 -92.7473 	 37.1388 	 122.562
| 13> C 	 -90.926 	 36.5609 	 124.614
| 14> H 	 -91.1804 	 35.5504 	 124.782
| 15> H 	 -90.3025 	 36.8997 	 125.435
| 16> C 	 -90.0861 	 36.5368 	 123.315
| 17> H 	 -89.2568 	 35.8908 	 123.497
| 18> H 	 -90.6596 	 36.0397 	 122.524
| 19> C 	 -89.6836 	 37.9582 	 122.883
| 20> H 	 -89.3867 	 38.3483 	 123.859
| 21> H 	 -88.8465 	 38.0075 	 122.144
| 22> H 	 -90.5493 	 38.5031 	 122.458
| 23> S 	 -96.6499 	 38.6929 	 122.801
| 24> C 	 -96.973 	 39.7933 	 121.421
| 25> C 	 -95.7856 	 40.2787 	 120.87
| 26> C 	 -94.6456 	 39.7796 	 121.599
| 27> C 	 -94.9027 	 39.0485 	 122.691
| 28> H 	 -95.6005 	 40.976 	 119.967
| 29> C 	 -93.23 	 40.2669 	 121.136
| 30> H 	 -92.534 	 40.4463 	 121.93
| 31> H 	 -93.2811 	 41.2393 	 120.673
| 32> C 	 -92.7003 	 39.3753 	 120.058
| 33> H 	 -92.3108 	 38.488 	 120.433
| 34> H 	 -91.8247 	 39.95 	 119.628
| 35> C 	 -93.6317 	 39.1474 	 118.933
| 36> H 	 -94.604 	 38.5194 	 119.136
| 37> H 	 -93.1815 	 38.4513 	 118.187
| 38> H 	 -93.9084 	 40.1147 	 118.451
| 39> H 	 -92.3735 	 37.8114 	 126.811
| 40> H 	 -97.9803 	 39.9462 	 121.033
| 41> *
| 42>
| 43>                          ****END OF INPUT****

CARTESIAN COORDINATES (ANGSTROEM)
---------------------------------
  S    -94.150900   38.883000  125.418000
  C    -92.770900   37.871400  125.805000
  C    -92.178500   37.305400  124.701000
  C    -92.952800   37.586300  123.526000
  C    -93.972700   38.527400  123.717000
  H    -92.747300   37.138800  122.562000
  C    -90.926000   36.560900  124.614000
  H    -91.180400   35.550400  124.782000
  H    -90.302500   36.899700  125.435000
  C    -90.086100   36.536800  123.315000
  H    -89.256800   35.890800  123.497000
  H    -90.659600   36.039700  122.524000
  C    -89.683600   37.958200  122.883000
  H    -89.386700   38.348300  123.859000
  H    -88.846500   38.007500  122.144000
  H    -90.549300   38.503100  122.458000
  S    -96.649900   38.692900  122.801000
  C    -96.973000   39.793300  121.421000
  C    -95.785600   40.278700  120.870000
  C    -94.645600   39.779600  121.599000
  C    -94.902700   39.048500  122.691000
  H    -95.600500   40.976000  119.967000
  C    -93.230000   40.266900  121.136000
  H    -92.534000   40.446300  121.930000
  H    -93.281100   41.239300  120.673000
  C    -92.700300   39.375300  120.058000
  H    -92.310800   38.488000  120.433000
  H    -91.824700   39.950000  119.628000
  C    -93.631700   39.147400  118.933000
  H    -94.604000   38.519400  119.136000
  H    -93.181500   38.451300  118.187000
  H    -93.908400   40.114700  118.451000
  H    -92.373500   37.811400  126.811000
  H    -97.980300   39.946200  121.033000

 Total Charge           Charge          ....    0
 Multiplicity           Mult            ....    1
 Number of Electrons    NEL             ....  134
 Basis Dimension        Dim             ....  322

ORBITAL ENERGIES
----------------

  NO   OCC          E(Eh)            E(eV)
   0   2.0000     -88.966981     -2420.9146
   1   2.0000     -88.962928     -2420.8043
   2   2.0000     -10.331338      -281.1300
   3   2.0000     -10.325976      -280.9841
   4   2.0000     -10.324917      -280.9553
   5   2.0000     -10.312664      -280.6219
   6   2.0000     -10.304890      -280.4103
   7   2.0000     -10.298926      -280.2480
   8   2.0000     -10.298281      -280.2305
   9   2.0000     -10.294791      -280.1355
  10   2.0000     -10.289676      -279.9963
  11   2.0000     -10.286647      -279.9139
  12   2.0000     -10.286261      -279.9034
  13   2.0000     -10.285800      -279.8909
  14   2.0000     -10.283060      -279.8163
  15   2.0000     -10.280107      -279.7359
  16   2.0000      -8.081560      -219.9104
  17   2.0000      -8.076690      -219.7779
  18   2.0000      -6.040095      -164.3593
  19   2.0000      -6.036080      -164.2501
  20   2.0000      -6.035408      -164.2318
  21   2.0000      -6.032319      -164.1477
  22   2.0000      -6.031456      -164.1243
  23   2.0000      -6.027159      -164.0073
  24   2.0000      -1.002111       -27.2688
  25   2.0000      -0.981141       -26.6982
  26   2.0000      -0.919929       -25.0325
  27   2.0000      -0.916382       -24.9360
  28   2.0000      -0.866089       -23.5675
  29   2.0000      -0.846905       -23.0455
  30   2.0000      -0.839204       -22.8359
  31   2.0000      -0.812416       -22.1070
  32   2.0000      -0.785776       -21.3820
  33   2.0000      -0.775770       -21.1098
  34   2.0000      -0.709362       -19.3027
  35   2.0000      -0.697856       -18.9896
  36   2.0000      -0.685165       -18.6443
  37   2.0000      -0.661614       -18.0034
  38   2.0000      -0.637933       -17.3590
  39   2.0000      -0.621638       -16.9156
  40   2.0000      -0.597227       -16.2514
  41   2.0000      -0.568509       -15.4699
  42   2.0000      -0.567143       -15.4328
  43   2.0000      -0.558229       -15.1902
  44   2.0000      -0.541707       -14.7406
  45   2.0000      -0.538890       -14.6639
  46   2.0000      -0.519188       -14.1278
  47   2.0000      -0.506538       -13.7836
  48   2.0000      -0.498612       -13.5679
  49   2.0000      -0.493418       -13.4266
  50   2.0000      -0.491470       -13.3736
  51   2.0000      -0.480021       -13.0620
  52   2.0000      -0.471893       -12.8409
  53   2.0000      -0.462864       -12.5952
  54   2.0000      -0.453605       -12.3432
  55   2.0000      -0.447255       -12.1704
  56   2.0000      -0.445281       -12.1167
  57   2.0000      -0.433508       -11.7964
  58   2.0000      -0.430584       -11.7168
  59   2.0000      -0.427780       -11.6405
  60   2.0000      -0.425566       -11.5802
  61   2.0000      -0.421376       -11.4662
  62   2.0000      -0.398474       -10.8430
  63   2.0000      -0.338459        -9.2099
  64   2.0000      -0.331581        -9.0228
  65   2.0000      -0.324949        -8.8423
  66   2.0000      -0.299996        -8.1633
  67   0.0000       0.035896         0.9768
  68   0.0000       0.065597         1.7850
  69   0.0000       0.110453         3.0056
  70   0.0000       0.120968         3.2917
  71   0.0000       0.121766         3.3134

MULLIKEN ATOMIC CHARGES
-----------------------
   0 S :    0.119719
   1 C :   -0.136714
   2 C :   -0.081426
   3 C :    0.028491
   4 C :   -0.164383
   5 H :    0.009536
   6 C :    0.066474
   7 H :    0.032703
   8 H :    0.023415
   9 C :   -0.068987
  10 H :    0.026885
  11 H :    0.023104
  12 C :   -0.061897
  13 H :    0.029867
  14 H :    0.044456
  15 H :    0.050607
  16 S :    0.090033
  17 C :   -0.104345
  18 C :   -0.027887
  19 C :   -0.058330
  20 C :   -0.159248
  21 H :    0.053568
  22 C :    0.093365
  23 H :    0.028082
  24 H :    0.006500
  25 C :   -0.035406
  26 H :    0.007446
  27 H :    0.029438
  28 C :   -0.106083
  29 H :    0.062770
  30 H :    0.035102
  31 H :    0.031439
  32 H :    0.044178
  33 H :    0.067527
Sum of atomic charges:   -0.0000000

LOEWDIN ATOMIC CHARGES
----------------------
   0 S :    0.410572
   1 C :   -0.196410
   2 C :   -0.064422
   3 C :   -0.056814
   4 C :   -0.194443
   5 H :    0.027103
   6 C :   -0.034820
   7 H :    0.035428
   8 H :    0.031073
   9 C :   -0.036027
  10 H :    0.024569
  11 H :    0.018661
  12 C :   -0.069028
  13 H :    0.027353
  14 H :    0.029264
  15 H :    0.029052
  16 S :    0.364175
  17 C :   -0.169006
  18 C :   -0.074523
  19 C :   -0.056014
  20 C :   -0.192532
  21 H :    0.048152
  22 C :   -0.024855
  23 H :    0.027637
  24 H :    0.025796
  25 C :   -0.042609
  26 H :    0.008497
  27 H :    0.033567
  28 C :   -0.079736
  29 H :    0.040208
  30 H :    0.029595
  31 H :    0.024265
  32 H :    0.025738
  33 H :    0.030536

  Mayer bond orders larger than 0.100000
B(  0-S ,  1-C ) :   1.1390 B(  0-S ,  4-C ) :   1.1590 B(  1-C ,  2-C ) :   1.6142
B(  1-C , 32-H ) :   0.9666 B(  2-C ,  3-C ) :   1.2442 B(  2-C ,  6-C ) :   1.0178
B(  3-C ,  4-C ) :   1.5737 B(  3-C ,  5-H ) :   0.9864 B(  4-C , 20-C ) :   1.0169
B(  6-C ,  7-H ) :   0.9168 B(  6-C ,  8-H ) :   0.9390 B(  6-C ,  9-C ) :   1.0981
B(  9-C , 10-H ) :   0.9508 B(  9-C , 11-H ) :   0.9455 B(  9-C , 12-C ) :   1.0672
B( 12-C , 13-H ) :   0.9770 B( 12-C , 14-H ) :   0.9748 B( 12-C , 15-H ) :   0.9692
B( 16-S , 17-C ) :   1.1403 B( 16-S , 20-C ) :   1.1053 B( 17-C , 18-C ) :   1.6126
B( 17-C , 33-H ) :   0.9681 B( 18-C , 19-C ) :   1.2226 B( 18-C , 21-H ) :   0.9693
B( 19-C , 20-C ) :   1.6871 B( 19-C , 22-C ) :   1.0239 B( 22-C , 23-H ) :   0.9380
B( 22-C , 24-H ) :   0.9363 B( 22-C , 25-C ) :   1.0768 B( 25-C , 26-H ) :   0.9472
B( 25-C , 27-H ) :   0.9488 B( 25-C , 28-C ) :   1.1019 B( 28-C , 29-H ) :   0.9576
B( 28-C , 30-H ) :   0.9667 B( 28-C , 31-H ) :   0.9686

Dispersion correction           -0.016189405
FINAL SINGLE POINT ENERGY     -1339.872537002915

DIPOLE MOMENT
-------------
                                X             Y             Z
Electronic contribution:    -23.50487       2.57443      16.83118
Nuclear contribution   :     24.17844      -2.68494     -17.24722
                        -----------------------------------------
Total Dipole Moment    :      0.67356      -0.11051      -0.41604
                        -----------------------------------------
Magnitude (a.u.)       :      0.79937
Magnitude (Debye)      :      2.03183

Rotational constants in cm-1:     0.018594     0.010653     0.007439
Rotational constants in MHz :   557.424411   319.380875   223.000984

                             ****ORCA TERMINATED NORMALLY****
TOTAL RUN TIME: 0 days 0 hours 0 minutes 36 seconds 678 msec
