                         Program Version 4.2.1 -  RELEASE  -
|  1> ! wB97X-D3 SP def2-SVP
|  2> %pal
|  3> nprocs 16
|  4> end
|  5>
|  6> * xyz 0 1
|  7> S 	 7.02427 	 -9.17849 	 63.361
|  8> C 	 7.03004 	 -9.13313 	 65.1099
|  9> C 	 8.23088 	 -9.65848 	 65.4696
| 10> C 	 8.73785 	 -10.5889 	 64.5096
| 11> C 	 8.01703 	 -10.5344 	 63.2889
| 12> H 	 9.6078 	 -11.2216 	 64.6496
| 13> C 	 8.8313 	 -9.68581 	 66.8228
| 14> H 	 9.47586 	 -10.5163 	 66.9119
| 15> H 	 8.00612 	 -9.792 	 67.606
| 16> C 	 9.6102 	 -8.48956 	 67.2881
| 17> H 	 10.2042 	 -8.77688 	 68.1625
| 18> H 	 10.4082 	 -8.34553 	 66.5038
| 19> C 	 8.78177 	 -7.27513 	 67.7205
| 20> H 	 9.28743 	 -6.3438 	 68.0731
| 21> H 	 8.1557 	 -6.95935 	 66.9636
| 22> H 	 8.11274 	 -7.51591 	 68.5636
| 23> S 	 8.37544 	 -10.4303 	 60.4653
| 24> C 	 8.76421 	 -11.939 	 59.6095
| 25> C 	 8.79737 	 -12.9587 	 60.4829
| 26> C 	 8.50172 	 -12.6431 	 61.9082
| 27> C 	 8.31157 	 -11.2705 	 62.0714
| 28> H 	 8.81301 	 -13.9969 	 60.0636
| 29> C 	 8.4427 	 -13.7439 	 62.9567
| 30> H 	 7.53747 	 -14.3101 	 62.9391
| 31> H 	 8.38524 	 -13.235 	 63.9383
| 32> C 	 9.70119 	 -14.6755 	 62.9114
| 33> H 	 10.6258 	 -14.14 	 63.1307
| 34> H 	 9.83359 	 -15.0258 	 61.9409
| 35> C 	 9.89092 	 -15.9256 	 63.8424
| 36> H 	 9.64247 	 -15.8067 	 64.8773
| 37> H 	 10.8974 	 -16.396 	 63.8246
| 38> H 	 9.21231 	 -16.7584 	 63.4846
| 39> H 	 6.36624 	 -8.55015 	 65.7477
| 40> H 	 8.87136 	 -12.1154 	 58.4738
| 41> *
| 42>
| 43>                          ****END OF INPUT****

CARTESIAN COORDINATES (ANGSTROEM)
---------------------------------
  S      7.024270   -9.178490   63.361000
  C      7.030040   -9.133130   65.109900
  C      8.230880   -9.658480   65.469600
  C      8.737850  -10.588900   64.509600
  C      8.017030  -10.534400   63.288900
  H      9.607800  -11.221600   64.649600
  C      8.831300   -9.685810   66.822800
  H      9.475860  -10.516300   66.911900
  H      8.006120   -9.792000   67.606000
  C      9.610200   -8.489560   67.288100
  H     10.204200   -8.776880   68.162500
  H     10.408200   -8.345530   66.503800
  C      8.781770   -7.275130   67.720500
  H      9.287430   -6.343800   68.073100
  H      8.155700   -6.959350   66.963600
  H      8.112740   -7.515910   68.563600
  S      8.375440  -10.430300   60.465300
  C      8.764210  -11.939000   59.609500
  C      8.797370  -12.958700   60.482900
  C      8.501720  -12.643100   61.908200
  C      8.311570  -11.270500   62.071400
  H      8.813010  -13.996900   60.063600
  C      8.442700  -13.743900   62.956700
  H      7.537470  -14.310100   62.939100
  H      8.385240  -13.235000   63.938300
  C      9.701190  -14.675500   62.911400
  H     10.625800  -14.140000   63.130700
  H      9.833590  -15.025800   61.940900
  C      9.890920  -15.925600   63.842400
  H      9.642470  -15.806700   64.877300
  H     10.897400  -16.396000   63.824600
  H      9.212310  -16.758400   63.484600
  H      6.366240   -8.550150   65.747700
  H      8.871360  -12.115400   58.473800

 Total Charge           Charge          ....    0
 Multiplicity           Mult            ....    1
 Number of Electrons    NEL             ....  134
 Basis Dimension        Dim             ....  322

ORBITAL ENERGIES
----------------

  NO   OCC          E(Eh)            E(eV)
   0   2.0000     -88.964875     -2420.8573
   1   2.0000     -88.963803     -2420.8281
   2   2.0000     -10.337378      -281.2944
   3   2.0000     -10.330928      -281.1188
   4   2.0000     -10.324563      -280.9456
   5   2.0000     -10.315804      -280.7073
   6   2.0000     -10.312566      -280.6192
   7   2.0000     -10.299401      -280.2609
   8   2.0000     -10.297869      -280.2193
   9   2.0000     -10.297316      -280.2042
  10   2.0000     -10.297105      -280.1985
  11   2.0000     -10.289635      -279.9952
  12   2.0000     -10.288477      -279.9637
  13   2.0000     -10.287059      -279.9251
  14   2.0000     -10.284675      -279.8602
  15   2.0000     -10.277106      -279.6543
  16   2.0000      -8.080201      -219.8735
  17   2.0000      -8.078413      -219.8248
  18   2.0000      -6.038667      -164.3205
  19   2.0000      -6.037424      -164.2867
  20   2.0000      -6.034747      -164.2138
  21   2.0000      -6.033200      -164.1717
  22   2.0000      -6.030601      -164.1010
  23   2.0000      -6.028585      -164.0462
  24   2.0000      -1.015317       -27.6282
  25   2.0000      -0.981340       -26.7036
  26   2.0000      -0.920733       -25.0544
  27   2.0000      -0.900903       -24.5148
  28   2.0000      -0.873542       -23.7703
  29   2.0000      -0.850783       -23.1510
  30   2.0000      -0.839028       -22.8311
  31   2.0000      -0.814002       -22.1501
  32   2.0000      -0.788766       -21.4634
  33   2.0000      -0.777237       -21.1497
  34   2.0000      -0.710166       -19.3246
  35   2.0000      -0.701661       -19.0932
  36   2.0000      -0.700665       -19.0661
  37   2.0000      -0.651193       -17.7199
  38   2.0000      -0.636295       -17.3145
  39   2.0000      -0.618659       -16.8346
  40   2.0000      -0.592540       -16.1238
  41   2.0000      -0.573510       -15.6060
  42   2.0000      -0.558833       -15.2066
  43   2.0000      -0.552388       -15.0312
  44   2.0000      -0.547739       -14.9047
  45   2.0000      -0.524485       -14.2720
  46   2.0000      -0.518051       -14.0969
  47   2.0000      -0.510046       -13.8791
  48   2.0000      -0.502171       -13.6648
  49   2.0000      -0.501093       -13.6354
  50   2.0000      -0.494223       -13.4485
  51   2.0000      -0.489441       -13.3184
  52   2.0000      -0.469873       -12.7859
  53   2.0000      -0.466248       -12.6872
  54   2.0000      -0.458423       -12.4743
  55   2.0000      -0.452904       -12.3241
  56   2.0000      -0.444678       -12.1003
  57   2.0000      -0.438902       -11.9431
  58   2.0000      -0.429386       -11.6842
  59   2.0000      -0.422625       -11.5002
  60   2.0000      -0.413236       -11.2447
  61   2.0000      -0.412145       -11.2150
  62   2.0000      -0.411389       -11.1945
  63   2.0000      -0.357315        -9.7230
  64   2.0000      -0.328378        -8.9356
  65   2.0000      -0.322703        -8.7812
  66   2.0000      -0.288898        -7.8613
  67   0.0000       0.018222         0.4958
  68   0.0000       0.065997         1.7959
  69   0.0000       0.101192         2.7536
  70   0.0000       0.114118         3.1053
  71   0.0000       0.129600         3.5266

MULLIKEN ATOMIC CHARGES
-----------------------
   0 S :    0.107617
   1 C :   -0.120202
   2 C :   -0.042200
   3 C :   -0.008095
   4 C :   -0.138584
   5 H :    0.023059
   6 C :    0.036395
   7 H :    0.008959
   8 H :    0.030164
   9 C :   -0.061372
  10 H :    0.028001
  11 H :    0.029398
  12 C :   -0.039059
  13 H :    0.040955
  14 H :    0.010185
  15 H :    0.021625
  16 S :    0.082480
  17 C :   -0.115940
  18 C :   -0.046877
  19 C :   -0.068182
  20 C :   -0.128577
  21 H :    0.041657
  22 C :    0.123204
  23 H :    0.034202
  24 H :    0.017190
  25 C :   -0.080545
  26 H :    0.029502
  27 H :    0.015829
  28 C :   -0.077168
  29 H :    0.028342
  30 H :    0.041655
  31 H :    0.027060
  32 H :    0.057757
  33 H :    0.091565
Sum of atomic charges:   -0.0000000

LOEWDIN ATOMIC CHARGES
----------------------
   0 S :    0.432433
   1 C :   -0.187153
   2 C :   -0.065994
   3 C :   -0.064707
   4 C :   -0.208326
   5 H :    0.030448
   6 C :   -0.035254
   7 H :    0.024504
   8 H :    0.037470
   9 C :   -0.044228
  10 H :    0.025941
  11 H :    0.028267
  12 C :   -0.070009
  13 H :    0.034536
  14 H :    0.010429
  15 H :    0.027650
  16 S :    0.353343
  17 C :   -0.190852
  18 C :   -0.082754
  19 C :   -0.051902
  20 C :   -0.172360
  21 H :    0.038296
  22 C :   -0.027495
  23 H :    0.030944
  24 H :    0.033286
  25 C :   -0.039284
  26 H :    0.027884
  27 H :    0.013284
  28 C :   -0.074529
  29 H :    0.018272
  30 H :    0.032732
  31 H :    0.026117
  32 H :    0.031917
  33 H :    0.057096

  Mayer bond orders larger than 0.100000
B(  0-S ,  1-C ) :   1.1361 B(  0-S ,  4-C ) :   1.1758 B(  1-C ,  2-C ) :   1.5655
B(  1-C ,  4-C ) :   0.1037 B(  1-C , 32-H ) :   0.9764 B(  2-C ,  3-C ) :   1.2552
B(  2-C ,  6-C ) :   1.0387 B(  3-C ,  4-C ) :   1.4970 B(  3-C ,  5-H ) :   0.9964
B(  4-C , 20-C ) :   1.0808 B(  6-C ,  7-H ) :   0.9395 B(  6-C ,  8-H ) :   0.9405
B(  6-C ,  9-C ) :   1.0786 B(  9-C , 10-H ) :   0.9542 B(  9-C , 11-H ) :   0.9507
B(  9-C , 12-C ) :   1.0675 B( 12-C , 13-H ) :   0.9731 B( 12-C , 14-H ) :   0.9777
B( 12-C , 15-H ) :   0.9700 B( 16-S , 17-C ) :   1.1078 B( 16-S , 20-C ) :   1.1031
B( 17-C , 18-C ) :   1.7048 B( 17-C , 33-H ) :   0.9503 B( 18-C , 19-C ) :   1.1803
B( 18-C , 21-H ) :   0.9698 B( 19-C , 20-C ) :   1.6453 B( 19-C , 22-C ) :   1.0487
B( 22-C , 23-H ) :   0.9335 B( 22-C , 24-H ) :   0.9280 B( 22-C , 25-C ) :   1.0418
B( 25-C , 26-H ) :   0.9604 B( 25-C , 27-H ) :   0.9595 B( 25-C , 28-C ) :   1.0765
B( 28-C , 29-H ) :   0.9779 B( 28-C , 30-H ) :   0.9764 B( 28-C , 31-H ) :   0.9759

Dispersion correction           -0.013586726
FINAL SINGLE POINT ENERGY     -1339.840200942689

DIPOLE MOMENT
-------------
                                X             Y             Z
Electronic contribution:    -10.23843      11.41283     -22.31294
Nuclear contribution   :     10.44612     -11.84757      22.79395
                        -----------------------------------------
Total Dipole Moment    :      0.20769      -0.43474       0.48101
                        -----------------------------------------
Magnitude (a.u.)       :      0.68081
Magnitude (Debye)      :      1.73048

Rotational constants in cm-1:     0.018785     0.007975     0.006012
Rotational constants in MHz :   563.158660   239.084852   180.247229

                             ****ORCA TERMINATED NORMALLY****
TOTAL RUN TIME: 0 days 0 hours 0 minutes 33 seconds 667 msec
