                         Program Version 4.2.1 -  RELEASE  -
|  1> ! wB97X-D3 SP def2-SVP
|  2> %pal
|  3> nprocs 16
|  4> end
|  5>
|  6> * xyz 0 1
|  7> S 	 -0.534126 	 4.66487 	 83.2693
|  8> C 	 0.0353248 	 4.62665 	 81.6195
|  9> C 	 -0.547467 	 5.59591 	 80.8169
| 10> C 	 -1.46802 	 6.38217 	 81.5343
| 11> C 	 -1.67621 	 6.03556 	 82.8479
| 12> H 	 -2.12051 	 7.05926 	 81.0556
| 13> C 	 -0.131729 	 5.84555 	 79.3008
| 14> H 	 0.821764 	 5.40609 	 79.1605
| 15> H 	 0.0861271 	 6.88484 	 79.1525
| 16> C 	 -1.05494 	 5.41535 	 78.1414
| 17> H 	 -0.732533 	 5.82858 	 77.1853
| 18> H 	 -1.09659 	 4.36478 	 77.9121
| 19> C 	 -2.5132 	 5.92033 	 78.3272
| 20> H 	 -2.56368 	 6.89409 	 78.824
| 21> H 	 -3.07116 	 5.99993 	 77.3914
| 22> H 	 -3.08454 	 5.17383 	 78.8747
| 23> S 	 -1.94048 	 8.13822 	 84.5064
| 24> C 	 -3.52956 	 8.57151 	 85.0225
| 25> C 	 -4.45143 	 7.55861 	 84.784
| 26> C 	 -3.82662 	 6.46571 	 84.1011
| 27> C 	 -2.5224 	 6.69654 	 83.7692
| 28> H 	 -5.42979 	 7.47018 	 85.1323
| 29> C 	 -4.64352 	 5.21816 	 83.6973
| 30> H 	 -5.23551 	 4.82571 	 84.5665
| 31> H 	 -3.89106 	 4.42901 	 83.5711
| 32> C 	 -5.65069 	 5.36354 	 82.5409
| 33> H 	 -5.01195 	 5.50884 	 81.6479
| 34> H 	 -6.10036 	 6.31017 	 82.6815
| 35> C 	 -6.67054 	 4.26848 	 82.3712
| 36> H 	 -6.04736 	 3.32419 	 82.4222
| 37> H 	 -7.28743 	 4.18712 	 81.4192
| 38> H 	 -7.37474 	 4.19915 	 83.2831
| 39> H 	 0.834833 	 3.99486 	 81.2354
| 40> H 	 -3.71783 	 9.39093 	 85.6483
| 41> *
| 42>
| 43>                          ****END OF INPUT****

CARTESIAN COORDINATES (ANGSTROEM)
---------------------------------
  S     -0.534126    4.664870   83.269300
  C      0.035325    4.626650   81.619500
  C     -0.547467    5.595910   80.816900
  C     -1.468020    6.382170   81.534300
  C     -1.676210    6.035560   82.847900
  H     -2.120510    7.059260   81.055600
  C     -0.131729    5.845550   79.300800
  H      0.821764    5.406090   79.160500
  H      0.086127    6.884840   79.152500
  C     -1.054940    5.415350   78.141400
  H     -0.732533    5.828580   77.185300
  H     -1.096590    4.364780   77.912100
  C     -2.513200    5.920330   78.327200
  H     -2.563680    6.894090   78.824000
  H     -3.071160    5.999930   77.391400
  H     -3.084540    5.173830   78.874700
  S     -1.940480    8.138220   84.506400
  C     -3.529560    8.571510   85.022500
  C     -4.451430    7.558610   84.784000
  C     -3.826620    6.465710   84.101100
  C     -2.522400    6.696540   83.769200
  H     -5.429790    7.470180   85.132300
  C     -4.643520    5.218160   83.697300
  H     -5.235510    4.825710   84.566500
  H     -3.891060    4.429010   83.571100
  C     -5.650690    5.363540   82.540900
  H     -5.011950    5.508840   81.647900
  H     -6.100360    6.310170   82.681500
  C     -6.670540    4.268480   82.371200
  H     -6.047360    3.324190   82.422200
  H     -7.287430    4.187120   81.419200
  H     -7.374740    4.199150   83.283100
  H      0.834833    3.994860   81.235400
  H     -3.717830    9.390930   85.648300

 Total Charge           Charge          ....    0
 Multiplicity           Mult            ....    1
 Number of Electrons    NEL             ....  134
 Basis Dimension        Dim             ....  322

ORBITAL ENERGIES
----------------

  NO   OCC          E(Eh)            E(eV)
   0   2.0000     -88.967627     -2420.9322
   1   2.0000     -88.965373     -2420.8709
   2   2.0000     -10.329188      -281.0715
   3   2.0000     -10.317581      -280.7557
   4   2.0000     -10.316511      -280.7265
   5   2.0000     -10.315912      -280.7102
   6   2.0000     -10.302795      -280.3533
   7   2.0000     -10.301497      -280.3180
   8   2.0000     -10.295066      -280.1430
   9   2.0000     -10.293553      -280.1018
  10   2.0000     -10.292564      -280.0749
  11   2.0000     -10.291059      -280.0339
  12   2.0000     -10.290359      -280.0149
  13   2.0000     -10.287415      -279.9348
  14   2.0000     -10.282488      -279.8007
  15   2.0000     -10.276519      -279.6383
  16   2.0000      -8.081305      -219.9035
  17   2.0000      -8.080978      -219.8946
  18   2.0000      -6.039670      -164.3478
  19   2.0000      -6.039442      -164.3416
  20   2.0000      -6.035739      -164.2408
  21   2.0000      -6.035608      -164.2372
  22   2.0000      -6.032166      -164.1436
  23   2.0000      -6.031804      -164.1337
  24   2.0000      -1.011027       -27.5114
  25   2.0000      -0.982088       -26.7240
  26   2.0000      -0.906439       -24.6655
  27   2.0000      -0.903050       -24.5733
  28   2.0000      -0.874911       -23.8075
  29   2.0000      -0.851507       -23.1707
  30   2.0000      -0.844000       -22.9664
  31   2.0000      -0.815110       -22.1803
  32   2.0000      -0.782774       -21.3004
  33   2.0000      -0.769356       -20.9352
  34   2.0000      -0.706621       -19.2281
  35   2.0000      -0.700077       -19.0501
  36   2.0000      -0.695349       -18.9214
  37   2.0000      -0.671844       -18.2818
  38   2.0000      -0.642252       -17.4766
  39   2.0000      -0.617372       -16.7995
  40   2.0000      -0.599579       -16.3154
  41   2.0000      -0.569186       -15.4883
  42   2.0000      -0.558374       -15.1941
  43   2.0000      -0.547776       -14.9057
  44   2.0000      -0.539462       -14.6795
  45   2.0000      -0.523639       -14.2489
  46   2.0000      -0.518793       -14.1171
  47   2.0000      -0.514626       -14.0037
  48   2.0000      -0.506783       -13.7903
  49   2.0000      -0.495435       -13.4815
  50   2.0000      -0.488243       -13.2858
  51   2.0000      -0.473651       -12.8887
  52   2.0000      -0.470091       -12.7918
  53   2.0000      -0.465392       -12.6639
  54   2.0000      -0.460166       -12.5218
  55   2.0000      -0.449655       -12.2357
  56   2.0000      -0.442025       -12.0281
  57   2.0000      -0.435456       -11.8494
  58   2.0000      -0.431451       -11.7404
  59   2.0000      -0.428287       -11.6543
  60   2.0000      -0.420444       -11.4409
  61   2.0000      -0.412067       -11.2129
  62   2.0000      -0.407904       -11.0996
  63   2.0000      -0.341939        -9.3046
  64   2.0000      -0.330361        -8.9896
  65   2.0000      -0.321138        -8.7386
  66   2.0000      -0.310434        -8.4473
  67   0.0000       0.042858         1.1662
  68   0.0000       0.048454         1.3185
  69   0.0000       0.107052         2.9130
  70   0.0000       0.122484         3.3329
  71   0.0000       0.123568         3.3624

MULLIKEN ATOMIC CHARGES
-----------------------
   0 S :    0.105458
   1 C :   -0.116398
   2 C :   -0.091706
   3 C :    0.073565
   4 C :   -0.182983
   5 H :   -0.002102
   6 C :    0.094796
   7 H :    0.004311
   8 H :    0.028395
   9 C :   -0.048011
  10 H :    0.022637
  11 H :    0.023579
  12 C :   -0.088132
  13 H :    0.035715
  14 H :    0.029180
  15 H :    0.040788
  16 S :    0.132263
  17 C :   -0.068315
  18 C :    0.000133
  19 C :   -0.032075
  20 C :   -0.190361
  21 H :   -0.002694
  22 C :    0.035517
  23 H :    0.020962
  24 H :    0.021857
  25 C :   -0.023960
  26 H :    0.030028
  27 H :    0.009535
  28 C :   -0.092140
  29 H :    0.035530
  30 H :    0.059229
  31 H :    0.041854
  32 H :    0.050089
  33 H :    0.043454
Sum of atomic charges:   -0.0000000

LOEWDIN ATOMIC CHARGES
----------------------
   0 S :    0.372887
   1 C :   -0.190688
   2 C :   -0.066971
   3 C :   -0.045593
   4 C :   -0.177991
   5 H :    0.025489
   6 C :   -0.023103
   7 H :    0.024583
   8 H :    0.031444
   9 C :   -0.038881
  10 H :    0.025067
  11 H :    0.021228
  12 C :   -0.071086
  13 H :    0.022081
  14 H :    0.026065
  15 H :    0.026273
  16 S :    0.438257
  17 C :   -0.177310
  18 C :   -0.061578
  19 C :   -0.046663
  20 C :   -0.221892
  21 H :    0.022321
  22 C :   -0.034414
  23 H :    0.031135
  24 H :    0.026109
  25 C :   -0.048261
  26 H :    0.029432
  27 H :    0.014856
  28 C :   -0.082340
  29 H :    0.031611
  30 H :    0.037491
  31 H :    0.031922
  32 H :    0.030652
  33 H :    0.017868

  Mayer bond orders larger than 0.100000
B(  0-S ,  1-C ) :   1.1518 B(  0-S ,  4-C ) :   1.1039 B(  1-C ,  2-C ) :   1.6279
B(  1-C ,  4-C ) :   0.1022 B(  1-C , 32-H ) :   0.9592 B(  2-C ,  3-C ) :   1.2497
B(  2-C ,  6-C ) :   1.0043 B(  3-C ,  4-C ) :   1.6093 B(  3-C ,  5-H ) :   0.9933
B(  4-C , 20-C ) :   1.0462 B(  6-C ,  7-H ) :   0.9391 B(  6-C ,  8-H ) :   0.9453
B(  6-C ,  9-C ) :   1.0750 B(  9-C , 10-H ) :   0.9575 B(  9-C , 11-H ) :   0.9588
B(  9-C , 12-C ) :   1.0743 B( 12-C , 13-H ) :   0.9767 B( 12-C , 14-H ) :   0.9733
B( 12-C , 15-H ) :   0.9752 B( 16-S , 17-C ) :   1.1776 B( 16-S , 20-C ) :   1.1514
B( 17-C , 18-C ) :   1.5660 B( 17-C , 33-H ) :   0.9743 B( 18-C , 19-C ) :   1.2661
B( 18-C , 21-H ) :   0.9976 B( 19-C , 20-C ) :   1.6005 B( 19-C , 22-C ) :   1.0458
B( 22-C , 23-H ) :   0.9386 B( 22-C , 24-H ) :   0.9252 B( 22-C , 25-C ) :   1.0522
B( 25-C , 26-H ) :   0.9477 B( 25-C , 27-H ) :   0.9559 B( 25-C , 28-C ) :   1.0730
B( 28-C , 29-H ) :   0.9737 B( 28-C , 30-H ) :   0.9733 B( 28-C , 31-H ) :   0.9707

Dispersion correction           -0.014689753
FINAL SINGLE POINT ENERGY     -1339.872491618157

DIPOLE MOMENT
-------------
                                X             Y             Z
Electronic contribution:     16.22561       7.61172      21.41293
Nuclear contribution   :    -16.51358      -7.59864     -21.86413
                        -----------------------------------------
Total Dipole Moment    :     -0.28797       0.01308      -0.45120
                        -----------------------------------------
Magnitude (a.u.)       :      0.53542
Magnitude (Debye)      :      1.36093

Rotational constants in cm-1:     0.015901     0.009507     0.007565
Rotational constants in MHz :   476.701768   285.003777   226.787675

                             ****ORCA TERMINATED NORMALLY****
TOTAL RUN TIME: 0 days 0 hours 0 minutes 33 seconds 231 msec
