                         Program Version 4.2.1 -  RELEASE  -
|  1> ! wB97X-D3 SP def2-SVP
|  2> %pal
|  3> nprocs 16
|  4> end
|  5>
|  6> * xyz 0 1
|  7> S 	 40.5011 	 12.7745 	 80.1275
|  8> C 	 39.7547 	 11.8163 	 78.9048
|  9> C 	 38.9038 	 12.5783 	 78.1451
| 10> C 	 38.6919 	 13.8808 	 78.7304
| 11> C 	 39.4076 	 14.1434 	 79.9151
| 12> H 	 38.0441 	 14.6123 	 78.3117
| 13> C 	 38.4362 	 12.1681 	 76.7497
| 14> H 	 37.3179 	 12.092 	 76.6487
| 15> H 	 38.6474 	 11.1083 	 76.6233
| 16> C 	 39.1192 	 13.0327 	 75.5747
| 17> H 	 38.6601 	 14.0661 	 75.6198
| 18> H 	 40.1575 	 13.2011 	 75.7558
| 19> C 	 38.9101 	 12.4808 	 74.1746
| 20> H 	 38.0416 	 12.5982 	 73.571
| 21> H 	 39.4721 	 13.0823 	 73.4341
| 22> H 	 39.354 	 11.4803 	 74.0756
| 23> S 	 37.6881 	 15.6488 	 81.6594
| 24> C 	 38.2938 	 17.0579 	 82.4686
| 25> C 	 39.5902 	 17.2722 	 82.0755
| 26> C 	 40.1471 	 16.3099 	 81.1826
| 27> C 	 39.244 	 15.3038 	 80.8876
| 28> H 	 40.0509 	 18.1268 	 82.4507
| 29> C 	 41.5802 	 16.3439 	 80.6724
| 30> H 	 41.6881 	 15.6769 	 79.7863
| 31> H 	 42.1234 	 15.9266 	 81.4433
| 32> C 	 42.2802 	 17.5769 	 80.4173
| 33> H 	 42.3407 	 18.0534 	 81.3986
| 34> H 	 41.5862 	 18.1593 	 79.7965
| 35> C 	 43.7205 	 17.3146 	 79.8537
| 36> H 	 43.5566 	 16.8966 	 78.8494
| 37> H 	 44.1927 	 16.5539 	 80.4467
| 38> H 	 44.1592 	 18.2437 	 79.8723
| 39> H 	 39.9651 	 10.7357 	 78.6732
| 40> H 	 37.701 	 17.6302 	 83.203
| 41> *
| 42>
| 43>                          ****END OF INPUT****

CARTESIAN COORDINATES (ANGSTROEM)
---------------------------------
  S     40.501100   12.774500   80.127500
  C     39.754700   11.816300   78.904800
  C     38.903800   12.578300   78.145100
  C     38.691900   13.880800   78.730400
  C     39.407600   14.143400   79.915100
  H     38.044100   14.612300   78.311700
  C     38.436200   12.168100   76.749700
  H     37.317900   12.092000   76.648700
  H     38.647400   11.108300   76.623300
  C     39.119200   13.032700   75.574700
  H     38.660100   14.066100   75.619800
  H     40.157500   13.201100   75.755800
  C     38.910100   12.480800   74.174600
  H     38.041600   12.598200   73.571000
  H     39.472100   13.082300   73.434100
  H     39.354000   11.480300   74.075600
  S     37.688100   15.648800   81.659400
  C     38.293800   17.057900   82.468600
  C     39.590200   17.272200   82.075500
  C     40.147100   16.309900   81.182600
  C     39.244000   15.303800   80.887600
  H     40.050900   18.126800   82.450700
  C     41.580200   16.343900   80.672400
  H     41.688100   15.676900   79.786300
  H     42.123400   15.926600   81.443300
  C     42.280200   17.576900   80.417300
  H     42.340700   18.053400   81.398600
  H     41.586200   18.159300   79.796500
  C     43.720500   17.314600   79.853700
  H     43.556600   16.896600   78.849400
  H     44.192700   16.553900   80.446700
  H     44.159200   18.243700   79.872300
  H     39.965100   10.735700   78.673200
  H     37.701000   17.630200   83.203000

 Total Charge           Charge          ....    0
 Multiplicity           Mult            ....    1
 Number of Electrons    NEL             ....  134
 Basis Dimension        Dim             ....  322

ORBITAL ENERGIES
----------------

  NO   OCC          E(Eh)            E(eV)
   0   2.0000     -88.964402     -2420.8444
   1   2.0000     -88.964286     -2420.8413
   2   2.0000     -10.337134      -281.2877
   3   2.0000     -10.331990      -281.1477
   4   2.0000     -10.319717      -280.8138
   5   2.0000     -10.316125      -280.7160
   6   2.0000     -10.303555      -280.3740
   7   2.0000     -10.300587      -280.2932
   8   2.0000     -10.300352      -280.2868
   9   2.0000     -10.297590      -280.2117
  10   2.0000     -10.295208      -280.1469
  11   2.0000     -10.288760      -279.9714
  12   2.0000     -10.279842      -279.7287
  13   2.0000     -10.278672      -279.6969
  14   2.0000     -10.277188      -279.6565
  15   2.0000     -10.276685      -279.6428
  16   2.0000      -8.079069      -219.8426
  17   2.0000      -8.078928      -219.8388
  18   2.0000      -6.037678      -164.2936
  19   2.0000      -6.037462      -164.2877
  20   2.0000      -6.033456      -164.1787
  21   2.0000      -6.033316      -164.1749
  22   2.0000      -6.029839      -164.0803
  23   2.0000      -6.029782      -164.0787
  24   2.0000      -1.002301       -27.2740
  25   2.0000      -0.986284       -26.8381
  26   2.0000      -0.924000       -25.1433
  27   2.0000      -0.899679       -24.4815
  28   2.0000      -0.865366       -23.5478
  29   2.0000      -0.849166       -23.1070
  30   2.0000      -0.845019       -22.9941
  31   2.0000      -0.815156       -22.1815
  32   2.0000      -0.786432       -21.3999
  33   2.0000      -0.773077       -21.0365
  34   2.0000      -0.708995       -19.2927
  35   2.0000      -0.700238       -19.0545
  36   2.0000      -0.690702       -18.7949
  37   2.0000      -0.653949       -17.7949
  38   2.0000      -0.637100       -17.3364
  39   2.0000      -0.618492       -16.8300
  40   2.0000      -0.602563       -16.3966
  41   2.0000      -0.583314       -15.8728
  42   2.0000      -0.569230       -15.4895
  43   2.0000      -0.555840       -15.1252
  44   2.0000      -0.537006       -14.6127
  45   2.0000      -0.521737       -14.1972
  46   2.0000      -0.513895       -13.9838
  47   2.0000      -0.510889       -13.9020
  48   2.0000      -0.506410       -13.7801
  49   2.0000      -0.499530       -13.5929
  50   2.0000      -0.488106       -13.2821
  51   2.0000      -0.485100       -13.2002
  52   2.0000      -0.472523       -12.8580
  53   2.0000      -0.462074       -12.5737
  54   2.0000      -0.460211       -12.5230
  55   2.0000      -0.453380       -12.3371
  56   2.0000      -0.445384       -12.1195
  57   2.0000      -0.432085       -11.7576
  58   2.0000      -0.426640       -11.6095
  59   2.0000      -0.419737       -11.4216
  60   2.0000      -0.416432       -11.3317
  61   2.0000      -0.412453       -11.2234
  62   2.0000      -0.411016       -11.1843
  63   2.0000      -0.339958        -9.2507
  64   2.0000      -0.330971        -9.0062
  65   2.0000      -0.324396        -8.8273
  66   2.0000      -0.299060        -8.1378
  67   0.0000       0.037637         1.0242
  68   0.0000       0.059020         1.6060
  69   0.0000       0.108974         2.9653
  70   0.0000       0.132228         3.5981
  71   0.0000       0.135129         3.6770

MULLIKEN ATOMIC CHARGES
-----------------------
   0 S :    0.111237
   1 C :   -0.135409
   2 C :   -0.097037
   3 C :    0.040824
   4 C :   -0.179073
   5 H :    0.002633
   6 C :    0.056839
   7 H :    0.038373
   8 H :    0.003921
   9 C :   -0.059264
  10 H :    0.037930
  11 H :    0.036871
  12 C :   -0.056615
  13 H :    0.028285
  14 H :    0.015394
  15 H :    0.036733
  16 S :    0.108554
  17 C :   -0.108693
  18 C :   -0.019451
  19 C :   -0.002173
  20 C :   -0.153323
  21 H :   -0.006449
  22 C :    0.088696
  23 H :    0.022808
  24 H :    0.009997
  25 C :   -0.131830
  26 H :    0.022770
  27 H :    0.030203
  28 C :    0.015072
  29 H :    0.037502
  30 H :    0.029113
  31 H :    0.030234
  32 H :    0.071919
  33 H :    0.073411
Sum of atomic charges:    0.0000000

LOEWDIN ATOMIC CHARGES
----------------------
   0 S :    0.410263
   1 C :   -0.208590
   2 C :   -0.075508
   3 C :   -0.056747
   4 C :   -0.192065
   5 H :    0.024580
   6 C :   -0.036924
   7 H :    0.035064
   8 H :    0.023703
   9 C :   -0.033918
  10 H :    0.031711
  11 H :    0.025466
  12 C :   -0.085359
  13 H :    0.025726
  14 H :    0.034611
  15 H :    0.027908
  16 S :    0.407340
  17 C :   -0.187274
  18 C :   -0.073486
  19 C :   -0.048668
  20 C :   -0.197396
  21 H :    0.019637
  22 C :   -0.039899
  23 H :    0.028634
  24 H :    0.024489
  25 C :   -0.043303
  26 H :    0.019874
  27 H :    0.022940
  28 C :   -0.042149
  29 H :    0.031926
  30 H :    0.025976
  31 H :    0.018449
  32 H :    0.043704
  33 H :    0.039283

  Mayer bond orders larger than 0.100000
B(  0-S ,  1-C ) :   1.1577 B(  0-S ,  4-C ) :   1.1463 B(  1-C ,  2-C ) :   1.6030
B(  1-C , 32-H ) :   0.9567 B(  2-C ,  3-C ) :   1.2436 B(  2-C ,  6-C ) :   1.0358
B(  3-C ,  4-C ) :   1.5694 B(  3-C ,  5-H ) :   1.0044 B(  4-C , 20-C ) :   1.0006
B(  6-C ,  7-H ) :   0.9410 B(  6-C ,  8-H ) :   0.9431 B(  6-C ,  9-C ) :   1.0357
B(  9-C , 10-H ) :   0.9545 B(  9-C , 11-H ) :   0.9596 B(  9-C , 12-C ) :   1.0906
B( 12-C , 13-H ) :   0.9730 B( 12-C , 14-H ) :   0.9620 B( 12-C , 15-H ) :   0.9742
B( 16-S , 17-C ) :   1.1662 B( 16-S , 20-C ) :   1.1430 B( 17-C , 18-C ) :   1.5906
B( 17-C , 33-H ) :   0.9650 B( 18-C , 19-C ) :   1.2415 B( 18-C , 21-H ) :   1.0037
B( 19-C , 20-C ) :   1.5924 B( 19-C , 22-C ) :   1.0279 B( 22-C , 23-H ) :   0.9291
B( 22-C , 24-H ) :   0.9184 B( 22-C , 25-C ) :   1.0765 B( 25-C , 26-H ) :   0.9422
B( 25-C , 27-H ) :   0.9626 B( 25-C , 28-C ) :   1.0743 B( 28-C , 29-H ) :   0.9748
B( 28-C , 30-H ) :   0.9732 B( 28-C , 31-H ) :   0.9734

Dispersion correction           -0.013557455
FINAL SINGLE POINT ENERGY     -1339.849939568143

DIPOLE MOMENT
-------------
                                X             Y             Z
Electronic contribution:    -11.41465      -3.84434      21.35454
Nuclear contribution   :     11.64821       4.10993     -21.77753
                        -----------------------------------------
Total Dipole Moment    :      0.23355       0.26559      -0.42299
                        -----------------------------------------
Magnitude (a.u.)       :      0.55137
Magnitude (Debye)      :      1.40148

Rotational constants in cm-1:     0.017639     0.007563     0.006415
Rotational constants in MHz :   528.813505   226.724971   192.321312

                             ****ORCA TERMINATED NORMALLY****
TOTAL RUN TIME: 0 days 0 hours 0 minutes 28 seconds 55 msec
