                         Program Version 4.2.1 -  RELEASE  -
|  1> ! wB97X-D3 SP def2-SVP
|  2> %pal
|  3> nprocs 16
|  4> end
|  5>
|  6> * xyz 0 1
|  7> S 	 -25.8425 	 44.2055 	 58.2461
|  8> C 	 -25.8462 	 45.8954 	 58.804
|  9> C 	 -24.7943 	 46.6473 	 58.3734
| 10> C 	 -23.9427 	 45.8185 	 57.5709
| 11> C 	 -24.2919 	 44.4843 	 57.467
| 12> H 	 -23.0738 	 46.2655 	 57.1307
| 13> C 	 -24.5062 	 48.0506 	 58.7851
| 14> H 	 -25.4114 	 48.7233 	 58.6931
| 15> H 	 -23.9108 	 48.485 	 58.0141
| 16> C 	 -24.0183 	 48.2703 	 60.2056
| 17> H 	 -24.2143 	 49.2454 	 60.5482
| 18> H 	 -24.5237 	 47.5676 	 60.8577
| 19> C 	 -22.4377 	 48.0052 	 60.3416
| 20> H 	 -21.7519 	 48.3709 	 59.5035
| 21> H 	 -21.9587 	 48.3833 	 61.2736
| 22> H 	 -22.279 	 46.9532 	 60.1861
| 23> S 	 -23.4897 	 41.8816 	 57.2024
| 24> C 	 -22.6734 	 41.3499 	 55.725
| 25> C 	 -22.5057 	 42.397 	 54.8725
| 26> C 	 -23.053 	 43.6304 	 55.3231
| 27> C 	 -23.6343 	 43.5461 	 56.6
| 28> H 	 -22.006 	 42.1693 	 53.9407
| 29> C 	 -22.869 	 44.9911 	 54.6435
| 30> H 	 -22.3644 	 44.9458 	 53.7054
| 31> H 	 -22.2965 	 45.6511 	 55.2504
| 32> C 	 -24.1151 	 45.7172 	 54.1554
| 33> H 	 -23.9346 	 46.72 	 53.7799
| 34> H 	 -24.8043 	 45.8559 	 54.965
| 35> C 	 -24.8761 	 45.0311 	 53.0748
| 36> H 	 -25.8678 	 45.5587 	 52.9125
| 37> H 	 -25.1148 	 44.0165 	 53.3431
| 38> H 	 -24.3772 	 45.1345 	 52.0903
| 39> H 	 -26.4958 	 46.2241 	 59.5388
| 40> H 	 -22.3867 	 40.3213 	 55.6592
| 41> *
| 42>
| 43>                          ****END OF INPUT****

CARTESIAN COORDINATES (ANGSTROEM)
---------------------------------
  S    -25.842500   44.205500   58.246100
  C    -25.846200   45.895400   58.804000
  C    -24.794300   46.647300   58.373400
  C    -23.942700   45.818500   57.570900
  C    -24.291900   44.484300   57.467000
  H    -23.073800   46.265500   57.130700
  C    -24.506200   48.050600   58.785100
  H    -25.411400   48.723300   58.693100
  H    -23.910800   48.485000   58.014100
  C    -24.018300   48.270300   60.205600
  H    -24.214300   49.245400   60.548200
  H    -24.523700   47.567600   60.857700
  C    -22.437700   48.005200   60.341600
  H    -21.751900   48.370900   59.503500
  H    -21.958700   48.383300   61.273600
  H    -22.279000   46.953200   60.186100
  S    -23.489700   41.881600   57.202400
  C    -22.673400   41.349900   55.725000
  C    -22.505700   42.397000   54.872500
  C    -23.053000   43.630400   55.323100
  C    -23.634300   43.546100   56.600000
  H    -22.006000   42.169300   53.940700
  C    -22.869000   44.991100   54.643500
  H    -22.364400   44.945800   53.705400
  H    -22.296500   45.651100   55.250400
  C    -24.115100   45.717200   54.155400
  H    -23.934600   46.720000   53.779900
  H    -24.804300   45.855900   54.965000
  C    -24.876100   45.031100   53.074800
  H    -25.867800   45.558700   52.912500
  H    -25.114800   44.016500   53.343100
  H    -24.377200   45.134500   52.090300
  H    -26.495800   46.224100   59.538800
  H    -22.386700   40.321300   55.659200

 Total Charge           Charge          ....    0
 Multiplicity           Mult            ....    1
 Number of Electrons    NEL             ....  134
 Basis Dimension        Dim             ....  322

ORBITAL ENERGIES
----------------

  NO   OCC          E(Eh)            E(eV)
   0   2.0000     -88.970214     -2421.0026
   1   2.0000     -88.961424     -2420.7634
   2   2.0000     -10.330729      -281.1134
   3   2.0000     -10.330153      -281.0978
   4   2.0000     -10.318219      -280.7730
   5   2.0000     -10.310240      -280.5559
   6   2.0000     -10.310180      -280.5542
   7   2.0000     -10.299825      -280.2725
   8   2.0000     -10.296713      -280.1878
   9   2.0000     -10.295421      -280.1527
  10   2.0000     -10.294232      -280.1203
  11   2.0000     -10.292116      -280.0627
  12   2.0000     -10.286210      -279.9020
  13   2.0000     -10.284820      -279.8642
  14   2.0000     -10.272542      -279.5301
  15   2.0000     -10.271831      -279.5107
  16   2.0000      -8.084293      -219.9848
  17   2.0000      -8.076042      -219.7603
  18   2.0000      -6.042904      -164.4358
  19   2.0000      -6.039021      -164.3301
  20   2.0000      -6.034860      -164.2169
  21   2.0000      -6.034450      -164.2057
  22   2.0000      -6.030523      -164.0989
  23   2.0000      -6.026971      -164.0022
  24   2.0000      -1.006281       -27.3823
  25   2.0000      -0.983273       -26.7562
  26   2.0000      -0.915176       -24.9032
  27   2.0000      -0.912548       -24.8317
  28   2.0000      -0.871261       -23.7082
  29   2.0000      -0.849842       -23.1254
  30   2.0000      -0.842709       -22.9313
  31   2.0000      -0.814672       -22.1683
  32   2.0000      -0.785230       -21.3672
  33   2.0000      -0.775779       -21.1100
  34   2.0000      -0.715363       -19.4660
  35   2.0000      -0.708755       -19.2862
  36   2.0000      -0.685119       -18.6430
  37   2.0000      -0.666584       -18.1387
  38   2.0000      -0.641565       -17.4579
  39   2.0000      -0.622411       -16.9367
  40   2.0000      -0.598289       -16.2803
  41   2.0000      -0.579801       -15.7772
  42   2.0000      -0.559923       -15.2363
  43   2.0000      -0.556260       -15.1366
  44   2.0000      -0.551092       -14.9960
  45   2.0000      -0.531095       -14.4518
  46   2.0000      -0.513042       -13.9606
  47   2.0000      -0.507570       -13.8117
  48   2.0000      -0.503898       -13.7118
  49   2.0000      -0.500114       -13.6088
  50   2.0000      -0.487862       -13.2754
  51   2.0000      -0.477258       -12.9868
  52   2.0000      -0.472762       -12.8645
  53   2.0000      -0.465349       -12.6628
  54   2.0000      -0.455134       -12.3848
  55   2.0000      -0.453055       -12.3283
  56   2.0000      -0.441502       -12.0139
  57   2.0000      -0.438946       -11.9443
  58   2.0000      -0.431521       -11.7423
  59   2.0000      -0.426877       -11.6159
  60   2.0000      -0.420398       -11.4396
  61   2.0000      -0.409814       -11.1516
  62   2.0000      -0.403119       -10.9694
  63   2.0000      -0.351597        -9.5675
  64   2.0000      -0.335012        -9.1161
  65   2.0000      -0.332473        -9.0471
  66   2.0000      -0.290447        -7.9035
  67   0.0000       0.020151         0.5483
  68   0.0000       0.071366         1.9420
  69   0.0000       0.105159         2.8615
  70   0.0000       0.116551         3.1715
  71   0.0000       0.134962         3.6725

MULLIKEN ATOMIC CHARGES
-----------------------
   0 S :    0.114103
   1 C :   -0.101569
   2 C :   -0.073166
   3 C :   -0.001914
   4 C :   -0.086275
   5 H :   -0.011180
   6 C :    0.055788
   7 H :    0.034570
   8 H :    0.011713
   9 C :   -0.008956
  10 H :    0.023627
  11 H :    0.032304
  12 C :   -0.105059
  13 H :    0.027491
  14 H :    0.048866
  15 H :    0.033731
  16 S :    0.076816
  17 C :   -0.093611
  18 C :   -0.021761
  19 C :   -0.016330
  20 C :   -0.166136
  21 H :    0.021787
  22 C :    0.095511
  23 H :   -0.000598
  24 H :    0.028268
  25 C :   -0.067887
  26 H :    0.016920
  27 H :    0.030198
  28 C :   -0.075148
  29 H :    0.033224
  30 H :    0.038788
  31 H :    0.028328
  32 H :    0.019065
  33 H :    0.058493
Sum of atomic charges:    0.0000000

LOEWDIN ATOMIC CHARGES
----------------------
   0 S :    0.394337
   1 C :   -0.166263
   2 C :   -0.063015
   3 C :   -0.053499
   4 C :   -0.198436
   5 H :    0.023878
   6 C :   -0.036839
   7 H :    0.043020
   8 H :    0.026315
   9 C :   -0.023991
  10 H :    0.017360
  11 H :    0.027625
  12 C :   -0.082451
  13 H :    0.029094
  14 H :    0.028703
  15 H :    0.023026
  16 S :    0.380322
  17 C :   -0.167798
  18 C :   -0.071513
  19 C :   -0.052389
  20 C :   -0.182143
  21 H :    0.036053
  22 C :   -0.027864
  23 H :    0.027410
  24 H :    0.025073
  25 C :   -0.045769
  26 H :    0.024149
  27 H :    0.019009
  28 C :   -0.067858
  29 H :    0.033651
  30 H :    0.022032
  31 H :    0.022418
  32 H :    0.010317
  33 H :    0.026036

  Mayer bond orders larger than 0.100000
B(  0-S ,  1-C ) :   1.1344 B(  0-S ,  4-C ) :   1.1329 B(  1-C ,  2-C ) :   1.6214
B(  1-C , 32-H ) :   0.9693 B(  2-C ,  3-C ) :   1.2444 B(  2-C ,  6-C ) :   1.0347
B(  3-C ,  4-C ) :   1.5505 B(  3-C ,  5-H ) :   1.0034 B(  4-C , 20-C ) :   1.0693
B(  6-C ,  7-H ) :   0.9346 B(  6-C ,  8-H ) :   0.9367 B(  6-C ,  9-C ) :   1.0633
B(  9-C , 10-H ) :   0.9599 B(  9-C , 11-H ) :   0.9587 B(  9-C , 12-C ) :   1.0541
B( 12-C , 13-H ) :   0.9780 B( 12-C , 14-H ) :   0.9790 B( 12-C , 15-H ) :   0.9788
B( 16-S , 17-C ) :   1.1522 B( 16-S , 20-C ) :   1.1419 B( 17-C , 18-C ) :   1.5969
B( 17-C , 20-C ) :   0.1051 B( 17-C , 33-H ) :   0.9738 B( 18-C , 19-C ) :   1.2379
B( 18-C , 21-H ) :   0.9970 B( 19-C , 20-C ) :   1.5636 B( 19-C , 22-C ) :   1.0352
B( 22-C , 23-H ) :   0.9301 B( 22-C , 24-H ) :   0.9401 B( 22-C , 25-C ) :   1.0637
B( 25-C , 26-H ) :   0.9509 B( 25-C , 27-H ) :   0.9539 B( 25-C , 28-C ) :   1.0933
B( 28-C , 29-H ) :   0.9704 B( 28-C , 30-H ) :   0.9749 B( 28-C , 31-H ) :   0.9728

Dispersion correction           -0.015175692
FINAL SINGLE POINT ENERGY     -1339.872901322912

DIPOLE MOMENT
-------------
                                X             Y             Z
Electronic contribution:     -5.25600     -22.79618       5.33690
Nuclear contribution   :      5.49338      23.37229      -5.51226
                        -----------------------------------------
Total Dipole Moment    :      0.23738       0.57611      -0.17536
                        -----------------------------------------
Magnitude (a.u.)       :      0.64730
Magnitude (Debye)      :      1.64532

Rotational constants in cm-1:     0.019575     0.008728     0.007663
Rotational constants in MHz :   586.853456   261.656005   229.726208

                             ****ORCA TERMINATED NORMALLY****
TOTAL RUN TIME: 0 days 0 hours 0 minutes 36 seconds 527 msec
