                         Program Version 4.2.1 -  RELEASE  -
|  1> ! wB97X-D3 SP def2-SVP
|  2> %pal
|  3> nprocs 16
|  4> end
|  5>
|  6> * xyz 0 1
|  7> S 	 -0.972689 	 0.219431 	 83.2486
|  8> C 	 -1.55792 	 -1.35409 	 83.8217
|  9> C 	 -0.668729 	 -1.8651 	 84.7058
| 10> C 	 0.428403 	 -1.01865 	 84.9936
| 11> C 	 0.266695 	 0.258902 	 84.4726
| 12> H 	 1.19363 	 -1.10671 	 85.7414
| 13> C 	 -0.928129 	 -3.16199 	 85.4267
| 14> H 	 -0.112714 	 -3.88044 	 85.2856
| 15> H 	 -1.84313 	 -3.5705 	 84.9284
| 16> C 	 -0.957451 	 -2.97506 	 87.002
| 17> H 	 -1.04301 	 -3.91414 	 87.5034
| 18> H 	 0.0398934 	 -2.57435 	 87.3034
| 19> C 	 -1.95805 	 -1.90453 	 87.4878
| 20> H 	 -1.88791 	 -0.997172 	 86.9918
| 21> H 	 -2.94368 	 -2.14788 	 87.2596
| 22> H 	 -1.87719 	 -1.83048 	 88.5629
| 23> S 	 1.73069 	 2.38961 	 83.3329
| 24> C 	 2.71846 	 3.38239 	 84.3013
| 25> C 	 2.59372 	 3.10982 	 85.6558
| 26> C 	 1.67292 	 2.00918 	 85.8701
| 27> C 	 1.15232 	 1.43719 	 84.6935
| 28> H 	 3.01233 	 3.72324 	 86.4173
| 29> C 	 1.26232 	 1.57659 	 87.2745
| 30> H 	 2.22299 	 1.30047 	 87.6963
| 31> H 	 0.624585 	 0.65762 	 87.2138
| 32> C 	 0.51316 	 2.66981 	 88.1485
| 33> H 	 1.1803 	 3.6095 	 88.1886
| 34> H 	 0.493684 	 2.27222 	 89.2379
| 35> C 	 -0.878165 	 2.87066 	 87.653
| 36> H 	 -0.760573 	 3.37326 	 86.7408
| 37> H 	 -1.63281 	 3.36262 	 88.3041
| 38> H 	 -1.34523 	 1.96308 	 87.4842
| 39> H 	 -2.40806 	 -1.87259 	 83.3647
| 40> H 	 3.31108 	 4.16175 	 83.8861
| 41> *
| 42>
| 43>                          ****END OF INPUT****

CARTESIAN COORDINATES (ANGSTROEM)
---------------------------------
  S     -0.972689    0.219431   83.248600
  C     -1.557920   -1.354090   83.821700
  C     -0.668729   -1.865100   84.705800
  C      0.428403   -1.018650   84.993600
  C      0.266695    0.258902   84.472600
  H      1.193630   -1.106710   85.741400
  C     -0.928129   -3.161990   85.426700
  H     -0.112714   -3.880440   85.285600
  H     -1.843130   -3.570500   84.928400
  C     -0.957451   -2.975060   87.002000
  H     -1.043010   -3.914140   87.503400
  H      0.039893   -2.574350   87.303400
  C     -1.958050   -1.904530   87.487800
  H     -1.887910   -0.997172   86.991800
  H     -2.943680   -2.147880   87.259600
  H     -1.877190   -1.830480   88.562900
  S      1.730690    2.389610   83.332900
  C      2.718460    3.382390   84.301300
  C      2.593720    3.109820   85.655800
  C      1.672920    2.009180   85.870100
  C      1.152320    1.437190   84.693500
  H      3.012330    3.723240   86.417300
  C      1.262320    1.576590   87.274500
  H      2.222990    1.300470   87.696300
  H      0.624585    0.657620   87.213800
  C      0.513160    2.669810   88.148500
  H      1.180300    3.609500   88.188600
  H      0.493684    2.272220   89.237900
  C     -0.878165    2.870660   87.653000
  H     -0.760573    3.373260   86.740800
  H     -1.632810    3.362620   88.304100
  H     -1.345230    1.963080   87.484200
  H     -2.408060   -1.872590   83.364700
  H      3.311080    4.161750   83.886100

 Total Charge           Charge          ....    0
 Multiplicity           Mult            ....    1
 Number of Electrons    NEL             ....  134
 Basis Dimension        Dim             ....  322

ORBITAL ENERGIES
----------------

  NO   OCC          E(Eh)            E(eV)
   0   2.0000     -88.965970     -2420.8871
   1   2.0000     -88.963660     -2420.8243
   2   2.0000     -10.336117      -281.2600
   3   2.0000     -10.332159      -281.1524
   4   2.0000     -10.318856      -280.7903
   5   2.0000     -10.314915      -280.6831
   6   2.0000     -10.309704      -280.5413
   7   2.0000     -10.300931      -280.3026
   8   2.0000     -10.299093      -280.2526
   9   2.0000     -10.297408      -280.2067
  10   2.0000     -10.297253      -280.2025
  11   2.0000     -10.296070      -280.1703
  12   2.0000     -10.292939      -280.0851
  13   2.0000     -10.292500      -280.0732
  14   2.0000     -10.264070      -279.2995
  15   2.0000     -10.263819      -279.2927
  16   2.0000      -8.081580      -219.9110
  17   2.0000      -8.078472      -219.8264
  18   2.0000      -6.039996      -164.3567
  19   2.0000      -6.036982      -164.2746
  20   2.0000      -6.035826      -164.2432
  21   2.0000      -6.033033      -164.1672
  22   2.0000      -6.032532      -164.1535
  23   2.0000      -6.029170      -164.0621
  24   2.0000      -1.008241       -27.4356
  25   2.0000      -0.989292       -26.9200
  26   2.0000      -0.908269       -24.7153
  27   2.0000      -0.906989       -24.6804
  28   2.0000      -0.868562       -23.6348
  29   2.0000      -0.852540       -23.1988
  30   2.0000      -0.842883       -22.9360
  31   2.0000      -0.819291       -22.2940
  32   2.0000      -0.784649       -21.3514
  33   2.0000      -0.774091       -21.0641
  34   2.0000      -0.711510       -19.3612
  35   2.0000      -0.695682       -18.9305
  36   2.0000      -0.694735       -18.9047
  37   2.0000      -0.657749       -17.8983
  38   2.0000      -0.642833       -17.4924
  39   2.0000      -0.619842       -16.8668
  40   2.0000      -0.595844       -16.2137
  41   2.0000      -0.568845       -15.4791
  42   2.0000      -0.554626       -15.0921
  43   2.0000      -0.550534       -14.9808
  44   2.0000      -0.541952       -14.7473
  45   2.0000      -0.539379       -14.6773
  46   2.0000      -0.523143       -14.2355
  47   2.0000      -0.511269       -13.9123
  48   2.0000      -0.506420       -13.7804
  49   2.0000      -0.496913       -13.5217
  50   2.0000      -0.492595       -13.4042
  51   2.0000      -0.479100       -13.0370
  52   2.0000      -0.476542       -12.9674
  53   2.0000      -0.463656       -12.6167
  54   2.0000      -0.461929       -12.5697
  55   2.0000      -0.449845       -12.2409
  56   2.0000      -0.445756       -12.1296
  57   2.0000      -0.441619       -12.0171
  58   2.0000      -0.430581       -11.7167
  59   2.0000      -0.421304       -11.4643
  60   2.0000      -0.419937       -11.4271
  61   2.0000      -0.416108       -11.3229
  62   2.0000      -0.406065       -11.0496
  63   2.0000      -0.351848        -9.5743
  64   2.0000      -0.330709        -8.9991
  65   2.0000      -0.328333        -8.9344
  66   2.0000      -0.293297        -7.9810
  67   0.0000       0.026567         0.7229
  68   0.0000       0.072289         1.9671
  69   0.0000       0.109037         2.9671
  70   0.0000       0.116232         3.1628
  71   0.0000       0.131736         3.5847

MULLIKEN ATOMIC CHARGES
-----------------------
   0 S :    0.090673
   1 C :   -0.132354
   2 C :   -0.089190
   3 C :    0.049362
   4 C :   -0.162976
   5 H :    0.012527
   6 C :    0.073718
   7 H :    0.035656
   8 H :    0.024318
   9 C :   -0.092461
  10 H :    0.029628
  11 H :    0.025577
  12 C :    0.001093
  13 H :    0.028835
  14 H :    0.002851
  15 H :    0.032727
  16 S :    0.108651
  17 C :   -0.078010
  18 C :   -0.016292
  19 C :   -0.081784
  20 C :   -0.142528
  21 H :    0.015042
  22 C :    0.039864
  23 H :    0.032577
  24 H :    0.028682
  25 C :   -0.115074
  26 H :    0.041226
  27 H :    0.039059
  28 C :    0.009729
  29 H :    0.031909
  30 H :    0.037089
  31 H :    0.007375
  32 H :    0.058394
  33 H :    0.054109
Sum of atomic charges:    0.0000000

LOEWDIN ATOMIC CHARGES
----------------------
   0 S :    0.387813
   1 C :   -0.192413
   2 C :   -0.069366
   3 C :   -0.065029
   4 C :   -0.180343
   5 H :    0.028034
   6 C :   -0.030063
   7 H :    0.033347
   8 H :    0.030948
   9 C :   -0.032659
  10 H :    0.020086
  11 H :    0.024836
  12 C :   -0.058868
  13 H :    0.019011
  14 H :    0.016787
  15 H :    0.027919
  16 S :    0.421710
  17 C :   -0.184317
  18 C :   -0.072672
  19 C :   -0.054950
  20 C :   -0.208183
  21 H :    0.028325
  22 C :   -0.035737
  23 H :    0.030639
  24 H :    0.030784
  25 C :   -0.044222
  26 H :    0.027091
  27 H :    0.029509
  28 C :   -0.064183
  29 H :    0.025560
  30 H :    0.032812
  31 H :    0.018349
  32 H :    0.034153
  33 H :    0.025293

  Mayer bond orders larger than 0.100000
B(  0-S ,  1-C ) :   1.1175 B(  0-S ,  4-C ) :   1.1590 B(  1-C ,  2-C ) :   1.6209
B(  1-C , 32-H ) :   0.9678 B(  2-C ,  3-C ) :   1.2153 B(  2-C ,  6-C ) :   1.0294
B(  3-C ,  4-C ) :   1.5737 B(  3-C ,  5-H ) :   0.9933 B(  4-C , 20-C ) :   1.0373
B(  6-C ,  7-H ) :   0.9367 B(  6-C ,  8-H ) :   0.9476 B(  6-C ,  9-C ) :   1.0578
B(  9-C , 10-H ) :   0.9600 B(  9-C , 11-H ) :   0.9550 B(  9-C , 12-C ) :   1.0709
B( 12-C , 13-H ) :   0.9686 B( 12-C , 14-H ) :   0.9697 B( 12-C , 15-H ) :   0.9747
B( 16-S , 17-C ) :   1.1876 B( 16-S , 20-C ) :   1.1367 B( 17-C , 18-C ) :   1.5714
B( 17-C , 33-H ) :   0.9712 B( 18-C , 19-C ) :   1.2553 B( 18-C , 21-H ) :   0.9975
B( 19-C , 20-C ) :   1.5793 B( 19-C , 22-C ) :   1.0328 B( 22-C , 23-H ) :   0.9319
B( 22-C , 24-H ) :   0.9386 B( 22-C , 25-C ) :   1.0663 B( 25-C , 26-H ) :   0.9581
B( 25-C , 27-H ) :   0.9540 B( 25-C , 28-C ) :   1.0612 B( 28-C , 29-H ) :   0.9739
B( 28-C , 30-H ) :   0.9703 B( 28-C , 31-H ) :   0.9693

Dispersion correction           -0.015991809
FINAL SINGLE POINT ENERGY     -1339.873231757352

DIPOLE MOMENT
-------------
                                X             Y             Z
Electronic contribution:      7.92872       7.39886     -25.53679
Nuclear contribution   :     -7.89570      -7.55950      26.12598
                        -----------------------------------------
Total Dipole Moment    :      0.03302      -0.16064       0.58919
                        -----------------------------------------
Magnitude (a.u.)       :      0.61159
Magnitude (Debye)      :      1.55454

Rotational constants in cm-1:     0.019011     0.010193     0.007724
Rotational constants in MHz :   569.944578   305.578766   231.552982

                             ****ORCA TERMINATED NORMALLY****
TOTAL RUN TIME: 0 days 0 hours 0 minutes 37 seconds 356 msec
