                         Program Version 4.2.1 -  RELEASE  -
|  1> ! wB97X-D3 SP def2-SVP
|  2> %pal
|  3> nprocs 16
|  4> end
|  5>
|  6> * xyz 0 1
|  7> S 	 46.4095 	 23.9638 	 90.8335
|  8> C 	 46.234 	 23.9089 	 92.5647
|  9> C 	 47.4819 	 23.8375 	 93.1362
| 10> C 	 48.5367 	 23.6471 	 92.2176
| 11> C 	 48.1161 	 23.5746 	 90.8646
| 12> H 	 49.5689 	 23.4594 	 92.4456
| 13> C 	 47.7244 	 23.7835 	 94.5996
| 14> H 	 47.8819 	 22.7868 	 94.8664
| 15> H 	 46.8043 	 24.1777 	 95.1057
| 16> C 	 48.8505 	 24.5105 	 95.1972
| 17> H 	 48.6368 	 24.4496 	 96.2218
| 18> H 	 49.8577 	 23.9741 	 95.0499
| 19> C 	 48.9843 	 26.0103 	 94.9961
| 20> H 	 49.8474 	 26.4368 	 95.5451
| 21> H 	 49.2584 	 26.2583 	 93.9252
| 22> H 	 48.0261 	 26.5083 	 95.0915
| 23> S 	 48.9477 	 21.8665 	 89.0459
| 24> C 	 49.7733 	 22.3483 	 87.6268
| 25> C 	 50.2143 	 23.6543 	 87.7763
| 26> C 	 49.7277 	 24.2812 	 88.9308
| 27> C 	 48.9043 	 23.4381 	 89.6431
| 28> H 	 50.9492 	 24.049 	 87.1256
| 29> C 	 50.1132 	 25.6679 	 89.3941
| 30> H 	 51.2436 	 25.6943 	 89.2751
| 31> H 	 49.8633 	 25.7438 	 90.4629
| 32> C 	 49.4158 	 26.6654 	 88.4274
| 33> H 	 48.3325 	 26.5705 	 88.3594
| 34> H 	 49.6123 	 26.3576 	 87.4158
| 35> C 	 49.8933 	 28.0843 	 88.6076
| 36> H 	 49.7261 	 28.3279 	 89.6376
| 37> H 	 49.2797 	 28.8668 	 88.1072
| 38> H 	 50.9881 	 28.2143 	 88.5112
| 39> H 	 45.3105 	 24.0567 	 93.1093
| 40> H 	 50.0565 	 21.727 	 86.8113
| 41> *
| 42>
| 43>                          ****END OF INPUT****

CARTESIAN COORDINATES (ANGSTROEM)
---------------------------------
  S     46.409500   23.963800   90.833500
  C     46.234000   23.908900   92.564700
  C     47.481900   23.837500   93.136200
  C     48.536700   23.647100   92.217600
  C     48.116100   23.574600   90.864600
  H     49.568900   23.459400   92.445600
  C     47.724400   23.783500   94.599600
  H     47.881900   22.786800   94.866400
  H     46.804300   24.177700   95.105700
  C     48.850500   24.510500   95.197200
  H     48.636800   24.449600   96.221800
  H     49.857700   23.974100   95.049900
  C     48.984300   26.010300   94.996100
  H     49.847400   26.436800   95.545100
  H     49.258400   26.258300   93.925200
  H     48.026100   26.508300   95.091500
  S     48.947700   21.866500   89.045900
  C     49.773300   22.348300   87.626800
  C     50.214300   23.654300   87.776300
  C     49.727700   24.281200   88.930800
  C     48.904300   23.438100   89.643100
  H     50.949200   24.049000   87.125600
  C     50.113200   25.667900   89.394100
  H     51.243600   25.694300   89.275100
  H     49.863300   25.743800   90.462900
  C     49.415800   26.665400   88.427400
  H     48.332500   26.570500   88.359400
  H     49.612300   26.357600   87.415800
  C     49.893300   28.084300   88.607600
  H     49.726100   28.327900   89.637600
  H     49.279700   28.866800   88.107200
  H     50.988100   28.214300   88.511200
  H     45.310500   24.056700   93.109300
  H     50.056500   21.727000   86.811300

 Total Charge           Charge          ....    0
 Multiplicity           Mult            ....    1
 Number of Electrons    NEL             ....  134
 Basis Dimension        Dim             ....  322

ORBITAL ENERGIES
----------------

  NO   OCC          E(Eh)            E(eV)
   0   2.0000     -88.963456     -2420.8187
   1   2.0000     -88.962197     -2420.7844
   2   2.0000     -10.330562      -281.1089
   3   2.0000     -10.315107      -280.6883
   4   2.0000     -10.312272      -280.6112
   5   2.0000     -10.310563      -280.5647
   6   2.0000     -10.297448      -280.2078
   7   2.0000     -10.296352      -280.1780
   8   2.0000     -10.294352      -280.1236
   9   2.0000     -10.293894      -280.1111
  10   2.0000     -10.286547      -279.9112
  11   2.0000     -10.283809      -279.8367
  12   2.0000     -10.282916      -279.8124
  13   2.0000     -10.281948      -279.7860
  14   2.0000     -10.280374      -279.7432
  15   2.0000     -10.273989      -279.5695
  16   2.0000      -8.078951      -219.8394
  17   2.0000      -8.078188      -219.8187
  18   2.0000      -6.037200      -164.2806
  19   2.0000      -6.036610      -164.2645
  20   2.0000      -6.033121      -164.1696
  21   2.0000      -6.032562      -164.1543
  22   2.0000      -6.029904      -164.0820
  23   2.0000      -6.029167      -164.0620
  24   2.0000      -1.016224       -27.6529
  25   2.0000      -0.990671       -26.9575
  26   2.0000      -0.923207       -25.1217
  27   2.0000      -0.910327       -24.7713
  28   2.0000      -0.872520       -23.7425
  29   2.0000      -0.852655       -23.2019
  30   2.0000      -0.845400       -23.0045
  31   2.0000      -0.815569       -22.1928
  32   2.0000      -0.786241       -21.3947
  33   2.0000      -0.771282       -20.9876
  34   2.0000      -0.708258       -19.2727
  35   2.0000      -0.702364       -19.1123
  36   2.0000      -0.690221       -18.7819
  37   2.0000      -0.666375       -18.1330
  38   2.0000      -0.639086       -17.3904
  39   2.0000      -0.621233       -16.9046
  40   2.0000      -0.594860       -16.1870
  41   2.0000      -0.570437       -15.5224
  42   2.0000      -0.569535       -15.4978
  43   2.0000      -0.556080       -15.1317
  44   2.0000      -0.539381       -14.6773
  45   2.0000      -0.528599       -14.3839
  46   2.0000      -0.521152       -14.1813
  47   2.0000      -0.513377       -13.9697
  48   2.0000      -0.506406       -13.7800
  49   2.0000      -0.501200       -13.6383
  50   2.0000      -0.490300       -13.3418
  51   2.0000      -0.487661       -13.2699
  52   2.0000      -0.470793       -12.8109
  53   2.0000      -0.463944       -12.6246
  54   2.0000      -0.460380       -12.5276
  55   2.0000      -0.450542       -12.2599
  56   2.0000      -0.441102       -12.0030
  57   2.0000      -0.437755       -11.9119
  58   2.0000      -0.433409       -11.7936
  59   2.0000      -0.423171       -11.5151
  60   2.0000      -0.420132       -11.4324
  61   2.0000      -0.408824       -11.1247
  62   2.0000      -0.403028       -10.9670
  63   2.0000      -0.333709        -9.0807
  64   2.0000      -0.326483        -8.8840
  65   2.0000      -0.317894        -8.6503
  66   2.0000      -0.311259        -8.4698
  67   0.0000       0.041573         1.1312
  68   0.0000       0.058417         1.5896
  69   0.0000       0.113317         3.0835
  70   0.0000       0.122641         3.3372
  71   0.0000       0.134717         3.6658

MULLIKEN ATOMIC CHARGES
-----------------------
   0 S :    0.117685
   1 C :   -0.124324
   2 C :   -0.077580
   3 C :    0.056615
   4 C :   -0.177625
   5 H :    0.006121
   6 C :    0.095779
   7 H :    0.030734
   8 H :    0.013313
   9 C :   -0.096819
  10 H :    0.019895
  11 H :    0.035000
  12 C :   -0.055001
  13 H :    0.044339
  14 H :    0.024737
  15 H :    0.029192
  16 S :    0.135950
  17 C :   -0.076789
  18 C :   -0.045525
  19 C :   -0.023223
  20 C :   -0.218383
  21 H :    0.004610
  22 C :    0.082280
  23 H :    0.039880
  24 H :    0.037449
  25 C :   -0.075586
  26 H :    0.026896
  27 H :    0.011873
  28 C :   -0.012054
  29 H :    0.008375
  30 H :    0.037332
  31 H :    0.031360
  32 H :    0.048471
  33 H :    0.045024
Sum of atomic charges:    0.0000000

LOEWDIN ATOMIC CHARGES
----------------------
   0 S :    0.417298
   1 C :   -0.199987
   2 C :   -0.072843
   3 C :   -0.059889
   4 C :   -0.203303
   5 H :    0.028288
   6 C :   -0.031738
   7 H :    0.032761
   8 H :    0.033263
   9 C :   -0.052431
  10 H :    0.024093
  11 H :    0.028937
  12 C :   -0.072283
  13 H :    0.032815
  14 H :    0.026296
  15 H :    0.024872
  16 S :    0.464324
  17 C :   -0.194391
  18 C :   -0.071170
  19 C :   -0.056094
  20 C :   -0.237340
  21 H :    0.024706
  22 C :   -0.024814
  23 H :    0.040468
  24 H :    0.031968
  25 C :   -0.044994
  26 H :    0.029934
  27 H :    0.020018
  28 C :   -0.073857
  29 H :    0.020529
  30 H :    0.031575
  31 H :    0.027840
  32 H :    0.030815
  33 H :    0.024335

  Mayer bond orders larger than 0.100000
B(  0-S ,  1-C ) :   1.1499 B(  0-S ,  4-C ) :   1.1779 B(  1-C ,  2-C ) :   1.5771
B(  1-C ,  4-C ) :   0.1089 B(  1-C , 32-H ) :   0.9721 B(  2-C ,  3-C ) :   1.2541
B(  2-C ,  6-C ) :   1.0305 B(  3-C ,  4-C ) :   1.5440 B(  3-C ,  5-H ) :   1.0019
B(  4-C , 20-C ) :   0.9921 B(  6-C ,  7-H ) :   0.9275 B(  6-C ,  8-H ) :   0.9349
B(  6-C ,  9-C ) :   1.1007 B(  9-C , 10-H ) :   0.9481 B(  9-C , 11-H ) :   0.9421
B(  9-C , 12-C ) :   1.0856 B( 12-C , 13-H ) :   0.9725 B( 12-C , 14-H ) :   0.9695
B( 12-C , 15-H ) :   0.9706 B( 16-S , 17-C ) :   1.1827 B( 16-S , 20-C ) :   1.1953
B( 17-C , 18-C ) :   1.5601 B( 17-C , 20-C ) :   0.1086 B( 17-C , 33-H ) :   0.9750
B( 18-C , 19-C ) :   1.2769 B( 18-C , 21-H ) :   0.9950 B( 19-C , 20-C ) :   1.5663
B( 19-C , 22-C ) :   1.0328 B( 22-C , 23-H ) :   0.9369 B( 22-C , 24-H ) :   0.9316
B( 22-C , 25-C ) :   1.0463 B( 25-C , 26-H ) :   0.9496 B( 25-C , 27-H ) :   0.9579
B( 25-C , 28-C ) :   1.0833 B( 28-C , 29-H ) :   0.9671 B( 28-C , 30-H ) :   0.9709
B( 28-C , 31-H ) :   0.9726

Dispersion correction           -0.014468257
FINAL SINGLE POINT ENERGY     -1339.868055808638

DIPOLE MOMENT
-------------
                                X             Y             Z
Electronic contribution:     -9.84975     -20.86244     -12.19778
Nuclear contribution   :     10.23249      21.08913      12.53673
                        -----------------------------------------
Total Dipole Moment    :      0.38274       0.22670       0.33894
                        -----------------------------------------
Magnitude (a.u.)       :      0.55925
Magnitude (Debye)      :      1.42151

Rotational constants in cm-1:     0.017562     0.009066     0.007321
Rotational constants in MHz :   526.501225   271.793507   219.478108

                             ****ORCA TERMINATED NORMALLY****
TOTAL RUN TIME: 0 days 0 hours 0 minutes 30 seconds 506 msec
