                         Program Version 4.2.1 -  RELEASE  -
|  1> ! wB97X-D3 SP def2-SVP
|  2> %pal
|  3> nprocs 16
|  4> end
|  5>
|  6> * xyz 0 1
|  7> S 	 -48.0784 	 63.7686 	 131.103
|  8> C 	 -46.6504 	 63.8983 	 130.083
|  9> C 	 -47.021 	 63.7165 	 128.741
| 10> C 	 -48.3741 	 63.3783 	 128.549
| 11> C 	 -49.048 	 63.2898 	 129.73
| 12> H 	 -48.7908 	 63.1179 	 127.618
| 13> C 	 -45.9802 	 63.7287 	 127.635
| 14> H 	 -45.9958 	 62.7992 	 127.105
| 15> H 	 -45.1381 	 63.6577 	 128.263
| 16> C 	 -45.9526 	 64.9838 	 126.709
| 17> H 	 -47.002 	 65.1354 	 126.36
| 18> H 	 -45.71 	 65.9792 	 127.165
| 19> C 	 -45.0372 	 64.7755 	 125.483
| 20> H 	 -45.2351 	 65.5769 	 124.767
| 21> H 	 -43.9362 	 64.7672 	 125.725
| 22> H 	 -45.3282 	 63.7331 	 125.002
| 23> S 	 -51.731 	 63.7118 	 130.235
| 24> C 	 -52.8272 	 62.4444 	 129.975
| 25> C 	 -52.2908 	 61.2149 	 130.025
| 26> C 	 -50.8558 	 61.3428 	 129.973
| 27> C 	 -50.3599 	 62.6351 	 129.98
| 28> H 	 -53.128 	 60.4009 	 130.022
| 29> C 	 -49.9721 	 60.1583 	 129.796
| 30> H 	 -50.1127 	 59.4419 	 130.613
| 31> H 	 -48.9716 	 60.5916 	 129.823
| 32> C 	 -50.1211 	 59.4953 	 128.362
| 33> H 	 -49.7925 	 60.1696 	 127.56
| 34> H 	 -51.1855 	 59.209 	 128.153
| 35> C 	 -49.2462 	 58.2138 	 128.29
| 36> H 	 -49.3482 	 57.8174 	 127.295
| 37> H 	 -49.586 	 57.4767 	 128.994
| 38> H 	 -48.212 	 58.4225 	 128.357
| 39> H 	 -45.6335 	 64.2051 	 130.357
| 40> H 	 -53.9437 	 62.574 	 129.899
| 41> *
| 42>
| 43>                          ****END OF INPUT****

CARTESIAN COORDINATES (ANGSTROEM)
---------------------------------
  S    -48.078400   63.768600  131.103000
  C    -46.650400   63.898300  130.083000
  C    -47.021000   63.716500  128.741000
  C    -48.374100   63.378300  128.549000
  C    -49.048000   63.289800  129.730000
  H    -48.790800   63.117900  127.618000
  C    -45.980200   63.728700  127.635000
  H    -45.995800   62.799200  127.105000
  H    -45.138100   63.657700  128.263000
  C    -45.952600   64.983800  126.709000
  H    -47.002000   65.135400  126.360000
  H    -45.710000   65.979200  127.165000
  C    -45.037200   64.775500  125.483000
  H    -45.235100   65.576900  124.767000
  H    -43.936200   64.767200  125.725000
  H    -45.328200   63.733100  125.002000
  S    -51.731000   63.711800  130.235000
  C    -52.827200   62.444400  129.975000
  C    -52.290800   61.214900  130.025000
  C    -50.855800   61.342800  129.973000
  C    -50.359900   62.635100  129.980000
  H    -53.128000   60.400900  130.022000
  C    -49.972100   60.158300  129.796000
  H    -50.112700   59.441900  130.613000
  H    -48.971600   60.591600  129.823000
  C    -50.121100   59.495300  128.362000
  H    -49.792500   60.169600  127.560000
  H    -51.185500   59.209000  128.153000
  C    -49.246200   58.213800  128.290000
  H    -49.348200   57.817400  127.295000
  H    -49.586000   57.476700  128.994000
  H    -48.212000   58.422500  128.357000
  H    -45.633500   64.205100  130.357000
  H    -53.943700   62.574000  129.899000

 Total Charge           Charge          ....    0
 Multiplicity           Mult            ....    1
 Number of Electrons    NEL             ....  134
 Basis Dimension        Dim             ....  322

ORBITAL ENERGIES
----------------

  NO   OCC          E(Eh)            E(eV)
   0   2.0000     -88.968307     -2420.9507
   1   2.0000     -88.955447     -2420.6008
   2   2.0000     -10.331429      -281.1325
   3   2.0000     -10.323634      -280.9204
   4   2.0000     -10.318766      -280.7879
   5   2.0000     -10.311091      -280.5791
   6   2.0000     -10.304782      -280.4074
   7   2.0000     -10.299632      -280.2672
   8   2.0000     -10.296896      -280.1928
   9   2.0000     -10.295887      -280.1653
  10   2.0000     -10.293477      -280.0998
  11   2.0000     -10.291482      -280.0455
  12   2.0000     -10.291031      -280.0332
  13   2.0000     -10.288059      -279.9523
  14   2.0000     -10.286129      -279.8998
  15   2.0000     -10.269492      -279.4471
  16   2.0000      -8.082766      -219.9432
  17   2.0000      -8.071873      -219.6468
  18   2.0000      -6.041284      -164.3917
  19   2.0000      -6.037257      -164.2821
  20   2.0000      -6.033578      -164.1820
  21   2.0000      -6.030251      -164.0915
  22   2.0000      -6.026260      -163.9829
  23   2.0000      -6.022543      -163.8817
  24   2.0000      -1.009711       -27.4756
  25   2.0000      -0.989922       -26.9372
  26   2.0000      -0.908488       -24.7212
  27   2.0000      -0.902147       -24.5487
  28   2.0000      -0.866753       -23.5856
  29   2.0000      -0.850696       -23.1486
  30   2.0000      -0.847294       -23.0560
  31   2.0000      -0.822128       -22.3712
  32   2.0000      -0.778886       -21.1946
  33   2.0000      -0.763318       -20.7709
  34   2.0000      -0.705439       -19.1960
  35   2.0000      -0.695574       -18.9275
  36   2.0000      -0.690947       -18.8016
  37   2.0000      -0.648173       -17.6377
  38   2.0000      -0.643791       -17.5185
  39   2.0000      -0.625177       -17.0119
  40   2.0000      -0.587892       -15.9974
  41   2.0000      -0.573161       -15.5965
  42   2.0000      -0.562640       -15.3102
  43   2.0000      -0.551684       -15.0121
  44   2.0000      -0.527714       -14.3598
  45   2.0000      -0.522136       -14.2081
  46   2.0000      -0.513282       -13.9671
  47   2.0000      -0.510734       -13.8978
  48   2.0000      -0.507643       -13.8137
  49   2.0000      -0.502424       -13.6717
  50   2.0000      -0.493010       -13.4155
  51   2.0000      -0.471883       -12.8406
  52   2.0000      -0.465238       -12.6598
  53   2.0000      -0.461557       -12.5596
  54   2.0000      -0.458526       -12.4771
  55   2.0000      -0.452060       -12.3012
  56   2.0000      -0.440669       -11.9912
  57   2.0000      -0.438728       -11.9384
  58   2.0000      -0.434049       -11.8111
  59   2.0000      -0.421003       -11.4561
  60   2.0000      -0.420708       -11.4480
  61   2.0000      -0.415081       -11.2949
  62   2.0000      -0.410363       -11.1665
  63   2.0000      -0.339650        -9.2424
  64   2.0000      -0.331096        -9.0096
  65   2.0000      -0.320012        -8.7080
  66   2.0000      -0.306117        -8.3299
  67   0.0000       0.044383         1.2077
  68   0.0000       0.056494         1.5373
  69   0.0000       0.117053         3.1852
  70   0.0000       0.122802         3.3416
  71   0.0000       0.124515         3.3882

MULLIKEN ATOMIC CHARGES
-----------------------
   0 S :    0.125059
   1 C :   -0.118517
   2 C :   -0.145373
   3 C :    0.084343
   4 C :   -0.153357
   5 H :   -0.004949
   6 C :    0.117890
   7 H :    0.020932
   8 H :   -0.008781
   9 C :   -0.081293
  10 H :    0.031306
  11 H :    0.039300
  12 C :   -0.092267
  13 H :    0.043655
  14 H :    0.050276
  15 H :    0.041069
  16 S :    0.097679
  17 C :   -0.115698
  18 C :   -0.058587
  19 C :   -0.030245
  20 C :   -0.166791
  21 H :    0.058272
  22 C :    0.069761
  23 H :    0.035625
  24 H :    0.026279
  25 C :   -0.116639
  26 H :    0.029984
  27 H :    0.035889
  28 C :   -0.011817
  29 H :    0.020391
  30 H :    0.031714
  31 H :    0.023225
  32 H :    0.055422
  33 H :    0.066245
Sum of atomic charges:    0.0000000

LOEWDIN ATOMIC CHARGES
----------------------
   0 S :    0.410936
   1 C :   -0.202381
   2 C :   -0.062137
   3 C :   -0.052048
   4 C :   -0.193854
   5 H :    0.027856
   6 C :   -0.029136
   7 H :    0.028609
   8 H :    0.023212
   9 C :   -0.046808
  10 H :    0.026187
  11 H :    0.030850
  12 C :   -0.077690
  13 H :    0.026147
  14 H :    0.029614
  15 H :    0.033761
  16 S :    0.405867
  17 C :   -0.198456
  18 C :   -0.100052
  19 C :   -0.049653
  20 C :   -0.208979
  21 H :    0.058836
  22 C :   -0.033069
  23 H :    0.032960
  24 H :    0.031619
  25 C :   -0.034596
  26 H :    0.023643
  27 H :    0.023786
  28 C :   -0.061434
  29 H :    0.023738
  30 H :    0.022783
  31 H :    0.019396
  32 H :    0.033111
  33 H :    0.037383

  Mayer bond orders larger than 0.100000
B(  0-S ,  1-C ) :   1.1379 B(  0-S ,  4-C ) :   1.1678 B(  1-C ,  2-C ) :   1.6125
B(  1-C ,  4-C ) :   0.1012 B(  1-C , 32-H ) :   0.9601 B(  2-C ,  3-C ) :   1.2390
B(  2-C ,  6-C ) :   1.0153 B(  3-C ,  4-C ) :   1.5767 B(  3-C ,  5-H ) :   1.0113
B(  4-C , 20-C ) :   0.9703 B(  6-C ,  7-H ) :   0.9421 B(  6-C ,  8-H ) :   0.9329
B(  6-C ,  9-C ) :   1.0448 B(  9-C , 10-H ) :   0.9608 B(  9-C , 11-H ) :   0.9548
B(  9-C , 12-C ) :   1.0756 B( 12-C , 13-H ) :   0.9743 B( 12-C , 14-H ) :   0.9757
B( 12-C , 15-H ) :   0.9738 B( 16-S , 17-C ) :   1.1768 B( 16-S , 20-C ) :   1.1209
B( 17-C , 18-C ) :   1.6554 B( 17-C , 33-H ) :   0.9537 B( 18-C , 19-C ) :   1.1746
B( 18-C , 21-H ) :   0.9793 B( 19-C , 20-C ) :   1.6490 B( 19-C , 22-C ) :   1.0613
B( 22-C , 23-H ) :   0.9375 B( 22-C , 24-H ) :   0.9316 B( 22-C , 25-C ) :   1.0557
B( 25-C , 26-H ) :   0.9553 B( 25-C , 27-H ) :   0.9610 B( 25-C , 28-C ) :   1.0865
B( 28-C , 29-H ) :   0.9722 B( 28-C , 30-H ) :   0.9762 B( 28-C , 31-H ) :   0.9746

Dispersion correction           -0.013970049
FINAL SINGLE POINT ENERGY     -1339.859688089622

DIPOLE MOMENT
-------------
                                X             Y             Z
Electronic contribution:    -14.95708      12.29443      21.10110
Nuclear contribution   :     15.13695     -12.66282     -21.60458
                        -----------------------------------------
Total Dipole Moment    :      0.17987      -0.36839      -0.50348
                        -----------------------------------------
Magnitude (a.u.)       :      0.64928
Magnitude (Debye)      :      1.65033

Rotational constants in cm-1:     0.017591     0.008050     0.006664
Rotational constants in MHz :   527.354503   241.346072   199.771790

                             ****ORCA TERMINATED NORMALLY****
TOTAL RUN TIME: 0 days 0 hours 0 minutes 34 seconds 300 msec
