                         Program Version 4.2.1 -  RELEASE  -
|  1> ! wB97X-D3 SP def2-SVP
|  2> %pal
|  3> nprocs 16
|  4> end
|  5>
|  6> * xyz 0 1
|  7> S 	 -0.075438 	 -10.751 	 81.351
|  8> C 	 -0.267641 	 -12.4232 	 81.9173
|  9> C 	 -1.57519 	 -12.7944 	 81.6533
| 10> C 	 -2.42341 	 -11.8073 	 81.1114
| 11> C 	 -1.77003 	 -10.6114 	 80.9735
| 12> H 	 -3.41502 	 -11.9813 	 80.7625
| 13> C 	 -2.08404 	 -14.1421 	 81.8694
| 14> H 	 -1.31431 	 -14.8556 	 81.9201
| 15> H 	 -2.66664 	 -14.4894 	 80.9603
| 16> C 	 -3.06949 	 -14.3727 	 83.0642
| 17> H 	 -2.4906 	 -14.3075 	 83.9909
| 18> H 	 -3.76659 	 -13.5695 	 83.0407
| 19> C 	 -3.85909 	 -15.6758 	 83.082
| 20> H 	 -3.23861 	 -16.5362 	 82.9534
| 21> H 	 -4.34917 	 -15.8047 	 84.0425
| 22> H 	 -4.59827 	 -15.8188 	 82.3055
| 23> S 	 -1.89628 	 -8.53351 	 79.202
| 24> C 	 -3.16106 	 -7.39341 	 79.4517
| 25> C 	 -3.85661 	 -7.55773 	 80.5593
| 26> C 	 -3.61758 	 -8.79325 	 81.1895
| 27> C 	 -2.46252 	 -9.37144 	 80.6399
| 28> H 	 -4.77223 	 -6.94589 	 80.8607
| 29> C 	 -4.26246 	 -9.24081 	 82.4341
| 30> H 	 -5.0129 	 -9.97434 	 82.1714
| 31> H 	 -4.88296 	 -8.34851 	 82.8171
| 32> C 	 -3.33858 	 -9.67412 	 83.5887
| 33> H 	 -2.42662 	 -9.15601 	 83.4167
| 34> H 	 -3.27418 	 -10.7348 	 83.5212
| 35> C 	 -3.79224 	 -9.24891 	 85.0411
| 36> H 	 -3.29863 	 -8.31891 	 85.2945
| 37> H 	 -3.29932 	 -9.89282 	 85.755
| 38> H 	 -4.86874 	 -9.20642 	 85.2176
| 39> H 	 0.509823 	 -13.0819 	 82.2288
| 40> H 	 -3.3446 	 -6.57052 	 78.9612
| 41> *
| 42>
| 43>                          ****END OF INPUT****

CARTESIAN COORDINATES (ANGSTROEM)
---------------------------------
  S     -0.075438  -10.751000   81.351000
  C     -0.267641  -12.423200   81.917300
  C     -1.575190  -12.794400   81.653300
  C     -2.423410  -11.807300   81.111400
  C     -1.770030  -10.611400   80.973500
  H     -3.415020  -11.981300   80.762500
  C     -2.084040  -14.142100   81.869400
  H     -1.314310  -14.855600   81.920100
  H     -2.666640  -14.489400   80.960300
  C     -3.069490  -14.372700   83.064200
  H     -2.490600  -14.307500   83.990900
  H     -3.766590  -13.569500   83.040700
  C     -3.859090  -15.675800   83.082000
  H     -3.238610  -16.536200   82.953400
  H     -4.349170  -15.804700   84.042500
  H     -4.598270  -15.818800   82.305500
  S     -1.896280   -8.533510   79.202000
  C     -3.161060   -7.393410   79.451700
  C     -3.856610   -7.557730   80.559300
  C     -3.617580   -8.793250   81.189500
  C     -2.462520   -9.371440   80.639900
  H     -4.772230   -6.945890   80.860700
  C     -4.262460   -9.240810   82.434100
  H     -5.012900   -9.974340   82.171400
  H     -4.882960   -8.348510   82.817100
  C     -3.338580   -9.674120   83.588700
  H     -2.426620   -9.156010   83.416700
  H     -3.274180  -10.734800   83.521200
  C     -3.792240   -9.248910   85.041100
  H     -3.298630   -8.318910   85.294500
  H     -3.299320   -9.892820   85.755000
  H     -4.868740   -9.206420   85.217600
  H      0.509823  -13.081900   82.228800
  H     -3.344600   -6.570520   78.961200

 Total Charge           Charge          ....    0
 Multiplicity           Mult            ....    1
 Number of Electrons    NEL             ....  134
 Basis Dimension        Dim             ....  322

ORBITAL ENERGIES
----------------

  NO   OCC          E(Eh)            E(eV)
   0   2.0000     -88.966280     -2420.8956
   1   2.0000     -88.966051     -2420.8893
   2   2.0000     -10.326354      -280.9944
   3   2.0000     -10.323134      -280.9068
   4   2.0000     -10.314271      -280.6656
   5   2.0000     -10.298111      -280.2258
   6   2.0000     -10.296815      -280.1906
   7   2.0000     -10.295192      -280.1464
   8   2.0000     -10.290678      -280.0236
   9   2.0000     -10.287558      -279.9387
  10   2.0000     -10.286103      -279.8991
  11   2.0000     -10.285682      -279.8876
  12   2.0000     -10.285366      -279.8790
  13   2.0000     -10.277955      -279.6774
  14   2.0000     -10.275177      -279.6018
  15   2.0000     -10.274871      -279.5935
  16   2.0000      -8.081365      -219.9051
  17   2.0000      -8.080614      -219.8847
  18   2.0000      -6.039739      -164.3497
  19   2.0000      -6.039192      -164.3348
  20   2.0000      -6.035938      -164.2462
  21   2.0000      -6.035159      -164.2250
  22   2.0000      -6.032099      -164.1418
  23   2.0000      -6.031344      -164.1212
  24   2.0000      -1.012392       -27.5486
  25   2.0000      -0.990523       -26.9535
  26   2.0000      -0.912552       -24.8318
  27   2.0000      -0.908452       -24.7202
  28   2.0000      -0.872734       -23.7483
  29   2.0000      -0.852148       -23.1881
  30   2.0000      -0.850065       -23.1314
  31   2.0000      -0.820845       -22.3363
  32   2.0000      -0.783166       -21.3110
  33   2.0000      -0.771737       -21.0000
  34   2.0000      -0.717522       -19.5248
  35   2.0000      -0.704151       -19.1609
  36   2.0000      -0.693579       -18.8732
  37   2.0000      -0.658787       -17.9265
  38   2.0000      -0.644002       -17.5242
  39   2.0000      -0.625280       -17.0147
  40   2.0000      -0.600661       -16.3448
  41   2.0000      -0.567308       -15.4372
  42   2.0000      -0.563399       -15.3309
  43   2.0000      -0.559255       -15.2181
  44   2.0000      -0.529042       -14.3960
  45   2.0000      -0.524896       -14.2831
  46   2.0000      -0.518983       -14.1222
  47   2.0000      -0.512766       -13.9531
  48   2.0000      -0.508746       -13.8437
  49   2.0000      -0.498457       -13.5637
  50   2.0000      -0.491435       -13.3726
  51   2.0000      -0.483472       -13.1559
  52   2.0000      -0.469089       -12.7646
  53   2.0000      -0.463501       -12.6125
  54   2.0000      -0.456390       -12.4190
  55   2.0000      -0.453816       -12.3490
  56   2.0000      -0.449503       -12.2316
  57   2.0000      -0.440622       -11.9899
  58   2.0000      -0.430835       -11.7236
  59   2.0000      -0.426699       -11.6111
  60   2.0000      -0.422424       -11.4947
  61   2.0000      -0.415929       -11.3180
  62   2.0000      -0.406402       -11.0588
  63   2.0000      -0.345312        -9.3964
  64   2.0000      -0.330797        -9.0015
  65   2.0000      -0.328984        -8.9521
  66   2.0000      -0.293399        -7.9838
  67   0.0000       0.031347         0.8530
  68   0.0000       0.070194         1.9101
  69   0.0000       0.108129         2.9423
  70   0.0000       0.123613         3.3637
  71   0.0000       0.131341         3.5740

MULLIKEN ATOMIC CHARGES
-----------------------
   0 S :    0.105177
   1 C :   -0.110645
   2 C :   -0.059881
   3 C :    0.022091
   4 C :   -0.122186
   5 H :    0.007854
   6 C :    0.045757
   7 H :   -0.003651
   8 H :    0.025774
   9 C :   -0.055415
  10 H :    0.028218
  11 H :    0.017827
  12 C :   -0.033157
  13 H :    0.015907
  14 H :    0.034216
  15 H :    0.024747
  16 S :    0.117739
  17 C :    0.023097
  18 C :   -0.064674
  19 C :   -0.051218
  20 C :   -0.188335
  21 H :    0.040360
  22 C :    0.032602
  23 H :    0.032347
  24 H :    0.019858
  25 C :   -0.044603
  26 H :    0.034121
  27 H :    0.039146
  28 C :   -0.037971
  29 H :    0.023238
  30 H :    0.023573
  31 H :    0.041319
  32 H :    0.040781
  33 H :   -0.024017
Sum of atomic charges:    0.0000000

LOEWDIN ATOMIC CHARGES
----------------------
   0 S :    0.398319
   1 C :   -0.189402
   2 C :   -0.063715
   3 C :   -0.060462
   4 C :   -0.191826
   5 H :    0.030888
   6 C :   -0.036617
   7 H :    0.017214
   8 H :    0.036628
   9 C :   -0.033493
  10 H :    0.025667
  11 H :    0.015878
  12 C :   -0.065445
  13 H :    0.020406
  14 H :    0.030298
  15 H :    0.022644
  16 S :    0.414225
  17 C :   -0.167914
  18 C :   -0.074328
  19 C :   -0.055745
  20 C :   -0.196048
  21 H :    0.044844
  22 C :   -0.040228
  23 H :    0.031460
  24 H :    0.035956
  25 C :   -0.029836
  26 H :    0.025501
  27 H :    0.020851
  28 C :   -0.066603
  29 H :    0.025759
  30 H :    0.026720
  31 H :    0.023774
  32 H :    0.026882
  33 H :   -0.002251

  Mayer bond orders larger than 0.100000
B(  0-S ,  1-C ) :   1.1141 B(  0-S ,  4-C ) :   1.1625 B(  1-C ,  2-C ) :   1.5962
B(  1-C , 32-H ) :   0.9766 B(  2-C ,  3-C ) :   1.2284 B(  2-C ,  6-C ) :   1.0548
B(  3-C ,  4-C ) :   1.5511 B(  3-C ,  5-H ) :   1.0115 B(  4-C , 20-C ) :   1.0217
B(  6-C ,  7-H ) :   0.9323 B(  6-C ,  8-H ) :   0.9399 B(  6-C ,  9-C ) :   1.0526
B(  9-C , 10-H ) :   0.9551 B(  9-C , 11-H ) :   0.9569 B(  9-C , 12-C ) :   1.0867
B( 12-C , 13-H ) :   0.9734 B( 12-C , 14-H ) :   0.9727 B( 12-C , 15-H ) :   0.9729
B( 16-S , 17-C ) :   1.1426 B( 16-S , 20-C ) :   1.1450 B( 17-C , 18-C ) :   1.6517
B( 17-C , 33-H ) :   0.9641 B( 18-C , 19-C ) :   1.2584 B( 18-C , 21-H ) :   0.9643
B( 19-C , 20-C ) :   1.5869 B( 19-C , 22-C ) :   1.0490 B( 22-C , 23-H ) :   0.9131
B( 22-C , 24-H ) :   0.9411 B( 22-C , 25-C ) :   1.0567 B( 25-C , 26-H ) :   0.9603
B( 25-C , 27-H ) :   0.9510 B( 25-C , 28-C ) :   1.0851 B( 28-C , 29-H ) :   0.9757
B( 28-C , 30-H ) :   0.9732 B( 28-C , 31-H ) :   0.9782

Dispersion correction           -0.015239929
FINAL SINGLE POINT ENERGY     -1339.856729927732

DIPOLE MOMENT
-------------
                                X             Y             Z
Electronic contribution:     15.95447      16.42590     -20.74584
Nuclear contribution   :    -16.44779     -16.74158      21.05423
                        -----------------------------------------
Total Dipole Moment    :     -0.49331      -0.31569       0.30839
                        -----------------------------------------
Magnitude (a.u.)       :      0.66191
Magnitude (Debye)      :      1.68243

Rotational constants in cm-1:     0.018879     0.009135     0.007504
Rotational constants in MHz :   565.991544   273.872995   224.950078

                             ****ORCA TERMINATED NORMALLY****
TOTAL RUN TIME: 0 days 0 hours 0 minutes 36 seconds 403 msec
