                         Program Version 4.2.1 -  RELEASE  -
|  1> ! wB97X-D3 SP def2-SVP
|  2> %pal
|  3> nprocs 16
|  4> end
|  5>
|  6> * xyz 0 1
|  7> S 	 34.9345 	 22.9135 	 47.2954
|  8> C 	 35.3229 	 23.3102 	 48.9665
|  9> C 	 35.3792 	 22.115 	 49.7198
| 10> C 	 35.2856 	 20.9073 	 48.9372
| 11> C 	 35.0986 	 21.1602 	 47.5888
| 12> H 	 35.2609 	 19.8375 	 49.2492
| 13> C 	 35.3143 	 22.1133 	 51.1938
| 14> H 	 34.841 	 21.2401 	 51.5062
| 15> H 	 34.6194 	 22.8994 	 51.502
| 16> C 	 36.6256 	 22.3188 	 51.9222
| 17> H 	 37.3072 	 21.5009 	 51.588
| 18> H 	 37.1056 	 23.2894 	 51.7448
| 19> C 	 36.5726 	 22.1072 	 53.4664
| 20> H 	 36.0393 	 22.9528 	 53.9408
| 21> H 	 36.199 	 21.1331 	 53.6758
| 22> H 	 37.5854 	 22.2449 	 53.7655
| 23> S 	 32.8755 	 19.6972 	 46.631
| 24> C 	 33.239 	 18.3298 	 45.6077
| 25> C 	 34.5824 	 18.18 	 45.2674
| 26> C 	 35.3834 	 19.1146 	 46.0203
| 27> C 	 34.6115 	 20.1662 	 46.6058
| 28> H 	 34.8247 	 17.371 	 44.5787
| 29> C 	 36.8721 	 19.1661 	 45.7884
| 30> H 	 37.3604 	 18.7706 	 46.5741
| 31> H 	 37.1497 	 20.2407 	 45.6973
| 32> C 	 37.4353 	 18.4075 	 44.5163
| 33> H 	 37.038 	 18.9055 	 43.6748
| 34> H 	 37.1436 	 17.362 	 44.6407
| 35> C 	 38.9499 	 18.4887 	 44.3434
| 36> H 	 39.3803 	 17.8911 	 43.4724
| 37> H 	 39.5894 	 18.2513 	 45.2381
| 38> H 	 39.0652 	 19.538 	 44.2028
| 39> H 	 35.2002 	 24.3138 	 49.4633
| 40> H 	 32.4297 	 17.8229 	 45.0279
| 41> *
| 42>
| 43>                          ****END OF INPUT****

CARTESIAN COORDINATES (ANGSTROEM)
---------------------------------
  S     34.934500   22.913500   47.295400
  C     35.322900   23.310200   48.966500
  C     35.379200   22.115000   49.719800
  C     35.285600   20.907300   48.937200
  C     35.098600   21.160200   47.588800
  H     35.260900   19.837500   49.249200
  C     35.314300   22.113300   51.193800
  H     34.841000   21.240100   51.506200
  H     34.619400   22.899400   51.502000
  C     36.625600   22.318800   51.922200
  H     37.307200   21.500900   51.588000
  H     37.105600   23.289400   51.744800
  C     36.572600   22.107200   53.466400
  H     36.039300   22.952800   53.940800
  H     36.199000   21.133100   53.675800
  H     37.585400   22.244900   53.765500
  S     32.875500   19.697200   46.631000
  C     33.239000   18.329800   45.607700
  C     34.582400   18.180000   45.267400
  C     35.383400   19.114600   46.020300
  C     34.611500   20.166200   46.605800
  H     34.824700   17.371000   44.578700
  C     36.872100   19.166100   45.788400
  H     37.360400   18.770600   46.574100
  H     37.149700   20.240700   45.697300
  C     37.435300   18.407500   44.516300
  H     37.038000   18.905500   43.674800
  H     37.143600   17.362000   44.640700
  C     38.949900   18.488700   44.343400
  H     39.380300   17.891100   43.472400
  H     39.589400   18.251300   45.238100
  H     39.065200   19.538000   44.202800
  H     35.200200   24.313800   49.463300
  H     32.429700   17.822900   45.027900

 Total Charge           Charge          ....    0
 Multiplicity           Mult            ....    1
 Number of Electrons    NEL             ....  134
 Basis Dimension        Dim             ....  322

ORBITAL ENERGIES
----------------

  NO   OCC          E(Eh)            E(eV)
   0   2.0000     -88.967636     -2420.9324
   1   2.0000     -88.966292     -2420.8959
   2   2.0000     -10.331626      -281.1378
   3   2.0000     -10.330428      -281.1052
   4   2.0000     -10.321723      -280.8684
   5   2.0000     -10.320971      -280.8479
   6   2.0000     -10.312411      -280.6150
   7   2.0000     -10.302990      -280.3586
   8   2.0000     -10.300856      -280.3005
   9   2.0000     -10.298102      -280.2256
  10   2.0000     -10.286584      -279.9122
  11   2.0000     -10.286403      -279.9072
  12   2.0000     -10.284847      -279.8649
  13   2.0000     -10.282955      -279.8134
  14   2.0000     -10.280752      -279.7535
  15   2.0000     -10.275106      -279.5999
  16   2.0000      -8.081617      -219.9120
  17   2.0000      -8.080010      -219.8683
  18   2.0000      -6.040098      -164.3594
  19   2.0000      -6.038548      -164.3173
  20   2.0000      -6.036275      -164.2554
  21   2.0000      -6.034607      -164.2100
  22   2.0000      -6.032404      -164.1500
  23   2.0000      -6.030836      -164.1074
  24   2.0000      -0.996630       -27.1197
  25   2.0000      -0.976212       -26.5641
  26   2.0000      -0.912782       -24.8381
  27   2.0000      -0.907597       -24.6970
  28   2.0000      -0.864130       -23.5142
  29   2.0000      -0.850203       -23.1352
  30   2.0000      -0.847137       -23.0518
  31   2.0000      -0.813060       -22.1245
  32   2.0000      -0.781703       -21.2712
  33   2.0000      -0.764487       -20.8028
  34   2.0000      -0.701286       -19.0830
  35   2.0000      -0.695570       -18.9274
  36   2.0000      -0.692291       -18.8382
  37   2.0000      -0.645136       -17.5551
  38   2.0000      -0.640274       -17.4227
  39   2.0000      -0.613189       -16.6857
  40   2.0000      -0.593191       -16.1416
  41   2.0000      -0.579744       -15.7756
  42   2.0000      -0.574537       -15.6340
  43   2.0000      -0.559855       -15.2344
  44   2.0000      -0.527644       -14.3579
  45   2.0000      -0.518798       -14.1172
  46   2.0000      -0.514613       -14.0033
  47   2.0000      -0.508927       -13.8486
  48   2.0000      -0.505959       -13.7678
  49   2.0000      -0.494178       -13.4473
  50   2.0000      -0.493317       -13.4238
  51   2.0000      -0.475396       -12.9362
  52   2.0000      -0.465862       -12.6767
  53   2.0000      -0.460414       -12.5285
  54   2.0000      -0.457771       -12.4566
  55   2.0000      -0.451331       -12.2813
  56   2.0000      -0.441624       -12.0172
  57   2.0000      -0.438840       -11.9414
  58   2.0000      -0.433262       -11.7897
  59   2.0000      -0.424313       -11.5461
  60   2.0000      -0.416597       -11.3362
  61   2.0000      -0.414066       -11.2673
  62   2.0000      -0.410057       -11.1582
  63   2.0000      -0.340207        -9.2575
  64   2.0000      -0.327584        -8.9140
  65   2.0000      -0.314165        -8.5489
  66   2.0000      -0.307171        -8.3585
  67   0.0000       0.031397         0.8543
  68   0.0000       0.047121         1.2822
  69   0.0000       0.103526         2.8171
  70   0.0000       0.121336         3.3017
  71   0.0000       0.124291         3.3821

MULLIKEN ATOMIC CHARGES
-----------------------
   0 S :    0.099333
   1 C :   -0.118041
   2 C :   -0.111461
   3 C :    0.034617
   4 C :   -0.168252
   5 H :    0.038848
   6 C :    0.105452
   7 H :   -0.004522
   8 H :    0.018101
   9 C :   -0.115997
  10 H :    0.028441
  11 H :    0.031177
  12 C :   -0.020195
  13 H :    0.031519
  14 H :    0.032406
  15 H :    0.026227
  16 S :    0.109514
  17 C :   -0.105345
  18 C :   -0.044892
  19 C :   -0.042022
  20 C :   -0.156831
  21 H :    0.036426
  22 C :    0.074138
  23 H :    0.001427
  24 H :    0.041180
  25 C :   -0.085597
  26 H :    0.031064
  27 H :    0.038265
  28 C :   -0.060242
  29 H :    0.053250
  30 H :    0.034734
  31 H :    0.020014
  32 H :    0.075496
  33 H :    0.071768
Sum of atomic charges:   -0.0000000

LOEWDIN ATOMIC CHARGES
----------------------
   0 S :    0.392020
   1 C :   -0.206563
   2 C :   -0.060924
   3 C :   -0.057779
   4 C :   -0.197514
   5 H :    0.044258
   6 C :   -0.037652
   7 H :    0.021902
   8 H :    0.031565
   9 C :   -0.039349
  10 H :    0.026265
  11 H :    0.022994
  12 C :   -0.058391
  13 H :    0.025849
  14 H :    0.019647
  15 H :    0.024197
  16 S :    0.393584
  17 C :   -0.188419
  18 C :   -0.077652
  19 C :   -0.039820
  20 C :   -0.204105
  21 H :    0.038372
  22 C :   -0.024831
  23 H :    0.014827
  24 H :    0.038600
  25 C :   -0.034259
  26 H :    0.021806
  27 H :    0.020101
  28 C :   -0.073007
  29 H :    0.036953
  30 H :    0.027249
  31 H :    0.021254
  32 H :    0.043718
  33 H :    0.035102

  Mayer bond orders larger than 0.100000
B(  0-S ,  1-C ) :   1.1427 B(  0-S ,  4-C ) :   1.1453 B(  1-C ,  2-C ) :   1.5948
B(  1-C , 32-H ) :   0.9602 B(  2-C ,  3-C ) :   1.2380 B(  2-C ,  6-C ) :   1.0357
B(  3-C ,  4-C ) :   1.5810 B(  3-C ,  5-H ) :   0.9883 B(  4-C , 20-C ) :   1.0104
B(  6-C ,  7-H ) :   0.9344 B(  6-C ,  8-H ) :   0.9341 B(  6-C ,  9-C ) :   1.0650
B(  9-C , 10-H ) :   0.9572 B(  9-C , 11-H ) :   0.9580 B(  9-C , 12-C ) :   1.0844
B( 12-C , 13-H ) :   0.9752 B( 12-C , 14-H ) :   0.9762 B( 12-C , 15-H ) :   0.9754
B( 16-S , 17-C ) :   1.1772 B( 16-S , 20-C ) :   1.1284 B( 17-C , 18-C ) :   1.6144
B( 17-C , 20-C ) :   0.1011 B( 17-C , 33-H ) :   0.9496 B( 18-C , 19-C ) :   1.2343
B( 18-C , 21-H ) :   0.9832 B( 19-C , 20-C ) :   1.5860 B( 19-C , 22-C ) :   1.0346
B( 22-C , 23-H ) :   0.9145 B( 22-C , 24-H ) :   0.9441 B( 22-C , 25-C ) :   1.0892
B( 25-C , 26-H ) :   0.9580 B( 25-C , 27-H ) :   0.9454 B( 25-C , 28-C ) :   1.0745
B( 28-C , 29-H ) :   0.9727 B( 28-C , 30-H ) :   0.9753 B( 28-C , 31-H ) :   0.9757

Dispersion correction           -0.013286376
FINAL SINGLE POINT ENERGY     -1339.849686930076

DIPOLE MOMENT
-------------
                                X             Y             Z
Electronic contribution:    -20.45289       5.28237     -10.75082
Nuclear contribution   :     20.66036      -5.60685      11.01166
                        -----------------------------------------
Total Dipole Moment    :      0.20748      -0.32448       0.26084
                        -----------------------------------------
Magnitude (a.u.)       :      0.46516
Magnitude (Debye)      :      1.18234

Rotational constants in cm-1:     0.018431     0.006990     0.006104
Rotational constants in MHz :   552.545388   209.564688   182.990197

                             ****ORCA TERMINATED NORMALLY****
TOTAL RUN TIME: 0 days 0 hours 0 minutes 33 seconds 493 msec
