                         Program Version 4.2.1 -  RELEASE  -
|  1> ! wB97X-D3 SP def2-SVP
|  2> %pal
|  3> nprocs 16
|  4> end
|  5>
|  6> * xyz 0 1
|  7> S 	 -35.6672 	 72.3089 	 166.339
|  8> C 	 -35.9331 	 72.9956 	 164.769
|  9> C 	 -36.9541 	 73.9886 	 164.838
| 10> C 	 -37.6234 	 73.9951 	 166.099
| 11> C 	 -37.1444 	 73.087 	 166.981
| 12> H 	 -38.4168 	 74.6003 	 166.466
| 13> C 	 -37.3227 	 74.9544 	 163.738
| 14> H 	 -38.1153 	 75.6393 	 164.027
| 15> H 	 -37.7843 	 74.259 	 163.044
| 16> C 	 -36.1896 	 75.7866 	 163.07
| 17> H 	 -35.8191 	 76.5499 	 163.803
| 18> H 	 -35.3191 	 75.1714 	 162.75
| 19> C 	 -36.7159 	 76.6152 	 161.815
| 20> H 	 -35.7955 	 77.1396 	 161.335
| 21> H 	 -37.1643 	 76.0898 	 160.991
| 22> H 	 -37.3454 	 77.3955 	 162.087
| 23> S 	 -35.8521 	 73.4188 	 169.361
| 24> C 	 -36.753 	 73.2467 	 170.852
| 25> C 	 -38.0183 	 72.8247 	 170.685
| 26> C 	 -38.4124 	 72.7721 	 169.307
| 27> C 	 -37.3751 	 73.0349 	 168.421
| 28> H 	 -38.6551 	 72.6942 	 171.524
| 29> C 	 -39.8621 	 72.4538 	 168.788
| 30> H 	 -40.2394 	 71.6383 	 169.414
| 31> H 	 -39.7781 	 71.8737 	 167.91
| 32> C 	 -40.6888 	 73.7408 	 168.559
| 33> H 	 -41.6768 	 73.5497 	 168.226
| 34> H 	 -40.1113 	 74.1613 	 167.669
| 35> C 	 -40.6795 	 74.8484 	 169.595
| 36> H 	 -39.747 	 75.4279 	 169.529
| 37> H 	 -40.6562 	 74.4638 	 170.627
| 38> H 	 -41.5237 	 75.4031 	 169.387
| 39> H 	 -35.1801 	 73.1637 	 163.989
| 40> H 	 -36.4418 	 73.5293 	 171.834
| 41> *
| 42>
| 43>                          ****END OF INPUT****

CARTESIAN COORDINATES (ANGSTROEM)
---------------------------------
  S    -35.667200   72.308900  166.339000
  C    -35.933100   72.995600  164.769000
  C    -36.954100   73.988600  164.838000
  C    -37.623400   73.995100  166.099000
  C    -37.144400   73.087000  166.981000
  H    -38.416800   74.600300  166.466000
  C    -37.322700   74.954400  163.738000
  H    -38.115300   75.639300  164.027000
  H    -37.784300   74.259000  163.044000
  C    -36.189600   75.786600  163.070000
  H    -35.819100   76.549900  163.803000
  H    -35.319100   75.171400  162.750000
  C    -36.715900   76.615200  161.815000
  H    -35.795500   77.139600  161.335000
  H    -37.164300   76.089800  160.991000
  H    -37.345400   77.395500  162.087000
  S    -35.852100   73.418800  169.361000
  C    -36.753000   73.246700  170.852000
  C    -38.018300   72.824700  170.685000
  C    -38.412400   72.772100  169.307000
  C    -37.375100   73.034900  168.421000
  H    -38.655100   72.694200  171.524000
  C    -39.862100   72.453800  168.788000
  H    -40.239400   71.638300  169.414000
  H    -39.778100   71.873700  167.910000
  C    -40.688800   73.740800  168.559000
  H    -41.676800   73.549700  168.226000
  H    -40.111300   74.161300  167.669000
  C    -40.679500   74.848400  169.595000
  H    -39.747000   75.427900  169.529000
  H    -40.656200   74.463800  170.627000
  H    -41.523700   75.403100  169.387000
  H    -35.180100   73.163700  163.989000
  H    -36.441800   73.529300  171.834000

 Total Charge           Charge          ....    0
 Multiplicity           Mult            ....    1
 Number of Electrons    NEL             ....  134
 Basis Dimension        Dim             ....  322

ORBITAL ENERGIES
----------------

  NO   OCC          E(Eh)            E(eV)
   0   2.0000     -88.966733     -2420.9079
   1   2.0000     -88.962609     -2420.7957
   2   2.0000     -10.332070      -281.1499
   3   2.0000     -10.329801      -281.0882
   4   2.0000     -10.313906      -280.6557
   5   2.0000     -10.312301      -280.6120
   6   2.0000     -10.309674      -280.5405
   7   2.0000     -10.307051      -280.4691
   8   2.0000     -10.302663      -280.3497
   9   2.0000     -10.293276      -280.0943
  10   2.0000     -10.292468      -280.0723
  11   2.0000     -10.291412      -280.0435
  12   2.0000     -10.289869      -280.0016
  13   2.0000     -10.289345      -279.9873
  14   2.0000     -10.283767      -279.8355
  15   2.0000     -10.272568      -279.5308
  16   2.0000      -8.080869      -219.8916
  17   2.0000      -8.076485      -219.7723
  18   2.0000      -6.039459      -164.3420
  19   2.0000      -6.035528      -164.2351
  20   2.0000      -6.035142      -164.2246
  21   2.0000      -6.031478      -164.1249
  22   2.0000      -6.031225      -164.1180
  23   2.0000      -6.027001      -164.0030
  24   2.0000      -1.003480       -27.3061
  25   2.0000      -0.979816       -26.6621
  26   2.0000      -0.906159       -24.6578
  27   2.0000      -0.905379       -24.6366
  28   2.0000      -0.868686       -23.6381
  29   2.0000      -0.850789       -23.1512
  30   2.0000      -0.844633       -22.9836
  31   2.0000      -0.819137       -22.2899
  32   2.0000      -0.787233       -21.4217
  33   2.0000      -0.770192       -20.9580
  34   2.0000      -0.709642       -19.3103
  35   2.0000      -0.705074       -19.1860
  36   2.0000      -0.689950       -18.7745
  37   2.0000      -0.661643       -18.0042
  38   2.0000      -0.642584       -17.4856
  39   2.0000      -0.612972       -16.6798
  40   2.0000      -0.592603       -16.1255
  41   2.0000      -0.573706       -15.6113
  42   2.0000      -0.564064       -15.3490
  43   2.0000      -0.556284       -15.1373
  44   2.0000      -0.542242       -14.7551
  45   2.0000      -0.518948       -14.1213
  46   2.0000      -0.514702       -14.0057
  47   2.0000      -0.507700       -13.8152
  48   2.0000      -0.503731       -13.7072
  49   2.0000      -0.498790       -13.5728
  50   2.0000      -0.489189       -13.3115
  51   2.0000      -0.483084       -13.1454
  52   2.0000      -0.473629       -12.8881
  53   2.0000      -0.463468       -12.6116
  54   2.0000      -0.457692       -12.4544
  55   2.0000      -0.450423       -12.2566
  56   2.0000      -0.444325       -12.0907
  57   2.0000      -0.438726       -11.9383
  58   2.0000      -0.434214       -11.8156
  59   2.0000      -0.427088       -11.6217
  60   2.0000      -0.419161       -11.4059
  61   2.0000      -0.415986       -11.3195
  62   2.0000      -0.401579       -10.9275
  63   2.0000      -0.350611        -9.5406
  64   2.0000      -0.333135        -9.0651
  65   2.0000      -0.324705        -8.8357
  66   2.0000      -0.292200        -7.9512
  67   0.0000       0.026697         0.7265
  68   0.0000       0.054804         1.4913
  69   0.0000       0.110301         3.0014
  70   0.0000       0.124186         3.3793
  71   0.0000       0.132332         3.6009

MULLIKEN ATOMIC CHARGES
-----------------------
   0 S :    0.100170
   1 C :   -0.091406
   2 C :   -0.123061
   3 C :    0.049235
   4 C :   -0.129922
   5 H :    0.006260
   6 C :    0.065059
   7 H :    0.020687
   8 H :    0.043817
   9 C :   -0.103113
  10 H :    0.048143
  11 H :    0.042200
  12 C :   -0.069986
  13 H :    0.038294
  14 H :    0.035914
  15 H :    0.024791
  16 S :    0.084601
  17 C :   -0.061703
  18 C :   -0.026140
  19 C :   -0.078355
  20 C :   -0.172442
  21 H :    0.007884
  22 C :    0.103043
  23 H :    0.017335
  24 H :    0.016766
  25 C :   -0.078448
  26 H :    0.026472
  27 H :    0.013123
  28 C :   -0.006273
  29 H :    0.040804
  30 H :    0.026193
  31 H :    0.026018
  32 H :    0.060944
  33 H :    0.043095
Sum of atomic charges:   -0.0000000

LOEWDIN ATOMIC CHARGES
----------------------
   0 S :    0.400953
   1 C :   -0.223991
   2 C :   -0.052425
   3 C :   -0.059705
   4 C :   -0.182448
   5 H :    0.026958
   6 C :   -0.041096
   7 H :    0.030272
   8 H :    0.039467
   9 C :   -0.038644
  10 H :    0.033533
  11 H :    0.024371
  12 C :   -0.069208
  13 H :    0.037811
  14 H :    0.021785
  15 H :    0.013759
  16 S :    0.364902
  17 C :   -0.172623
  18 C :   -0.073564
  19 C :   -0.048946
  20 C :   -0.170312
  21 H :    0.027792
  22 C :   -0.030716
  23 H :    0.028062
  24 H :    0.027825
  25 C :   -0.039117
  26 H :    0.018140
  27 H :    0.030580
  28 C :   -0.060792
  29 H :    0.032168
  30 H :    0.025680
  31 H :    0.019590
  32 H :    0.032831
  33 H :    0.027111

  Mayer bond orders larger than 0.100000
B(  0-S ,  1-C ) :   1.1378 B(  0-S ,  4-C ) :   1.1409 B(  1-C ,  2-C ) :   1.5963
B(  1-C , 32-H ) :   0.9571 B(  2-C ,  3-C ) :   1.2464 B(  2-C ,  6-C ) :   1.0139
B(  3-C ,  4-C ) :   1.5838 B(  3-C ,  5-H ) :   0.9890 B(  4-C , 20-C ) :   1.0331
B(  6-C ,  7-H ) :   0.9483 B(  6-C ,  8-H ) :   0.9367 B(  6-C ,  9-C ) :   1.0529
B(  9-C , 10-H ) :   0.9580 B(  9-C , 11-H ) :   0.9601 B(  9-C , 12-C ) :   1.0702
B( 12-C , 13-H ) :   0.9757 B( 12-C , 14-H ) :   0.9796 B( 12-C , 15-H ) :   0.9786
B( 16-S , 17-C ) :   1.1359 B( 16-S , 20-C ) :   1.1095 B( 17-C , 18-C ) :   1.6565
B( 17-C , 33-H ) :   0.9627 B( 18-C , 19-C ) :   1.2103 B( 18-C , 21-H ) :   0.9936
B( 19-C , 20-C ) :   1.6451 B( 19-C , 22-C ) :   1.0233 B( 22-C , 23-H ) :   0.9378
B( 22-C , 24-H ) :   0.9386 B( 22-C , 25-C ) :   1.0490 B( 25-C , 26-H ) :   0.9613
B( 25-C , 27-H ) :   0.9527 B( 25-C , 28-C ) :   1.0791 B( 28-C , 29-H ) :   0.9704
B( 28-C , 30-H ) :   0.9766 B( 28-C , 31-H ) :   0.9727

Dispersion correction           -0.014557951
FINAL SINGLE POINT ENERGY     -1339.849835606801

DIPOLE MOMENT
-------------
                                X             Y             Z
Electronic contribution:     16.14896     -15.11951      13.13634
Nuclear contribution   :    -16.68438      15.65543     -13.23463
                        -----------------------------------------
Total Dipole Moment    :     -0.53543       0.53592      -0.09829
                        -----------------------------------------
Magnitude (a.u.)       :      0.76391
Magnitude (Debye)      :      1.94169

Rotational constants in cm-1:     0.021045     0.007735     0.006405
Rotational constants in MHz :   630.909456   231.874613   192.024070

                             ****ORCA TERMINATED NORMALLY****
TOTAL RUN TIME: 0 days 0 hours 0 minutes 31 seconds 827 msec
