                         Program Version 4.2.1 -  RELEASE  -
|  1> ! wB97X-D3 SP def2-SVP
|  2> %pal
|  3> nprocs 16
|  4> end
|  5>
|  6> * xyz 0 1
|  7> S 	 -1.4522 	 -13.1176 	 77.2807
|  8> C 	 -2.57569 	 -13.3931 	 75.9386
|  9> C 	 -3.59454 	 -12.4658 	 75.8713
| 10> C 	 -3.55898 	 -11.5421 	 76.9355
| 11> C 	 -2.52725 	 -11.8347 	 77.8023
| 12> H 	 -4.13501 	 -10.6398 	 77.0939
| 13> C 	 -4.79727 	 -12.4233 	 74.9034
| 14> H 	 -5.61436 	 -12.098 	 75.6015
| 15> H 	 -5.00111 	 -13.4775 	 74.5199
| 16> C 	 -4.77747 	 -11.5039 	 73.7536
| 17> H 	 -3.79238 	 -11.359 	 73.4307
| 18> H 	 -5.3932 	 -11.9985 	 72.978
| 19> C 	 -5.53659 	 -10.1793 	 73.9563
| 20> H 	 -5.10644 	 -9.64495 	 74.8387
| 21> H 	 -5.51326 	 -9.48239 	 73.1336
| 22> H 	 -6.63909 	 -10.3004 	 74.1969
| 23> S 	 -0.660818 	 -10.473 	 79.2813
| 24> C 	 -1.18014 	 -9.51057 	 80.5817
| 25> C 	 -2.46759 	 -9.82606 	 80.9471
| 26> C 	 -3.17949 	 -10.5888 	 80.0774
| 27> C 	 -2.29057 	 -11.0932 	 79.079
| 28> H 	 -2.85128 	 -9.42443 	 81.8522
| 29> C 	 -4.68022 	 -10.7248 	 80.2411
| 30> H 	 -5.07993 	 -10.9838 	 81.1989
| 31> H 	 -4.87203 	 -11.5698 	 79.5878
| 32> C 	 -5.48043 	 -9.5136 	 79.7338
| 33> H 	 -5.12058 	 -9.20263 	 78.7581
| 34> H 	 -5.28405 	 -8.66772 	 80.374
| 35> C 	 -7.00037 	 -9.76697 	 79.7662
| 36> H 	 -7.4639 	 -8.83098 	 79.6268
| 37> H 	 -7.35256 	 -10.0865 	 80.7566
| 38> H 	 -7.36796 	 -10.5857 	 79.154
| 39> H 	 -2.53161 	 -14.1702 	 75.1992
| 40> H 	 -0.574291 	 -8.84107 	 81.2202
| 41> *
| 42>
| 43>                          ****END OF INPUT****

CARTESIAN COORDINATES (ANGSTROEM)
---------------------------------
  S     -1.452200  -13.117600   77.280700
  C     -2.575690  -13.393100   75.938600
  C     -3.594540  -12.465800   75.871300
  C     -3.558980  -11.542100   76.935500
  C     -2.527250  -11.834700   77.802300
  H     -4.135010  -10.639800   77.093900
  C     -4.797270  -12.423300   74.903400
  H     -5.614360  -12.098000   75.601500
  H     -5.001110  -13.477500   74.519900
  C     -4.777470  -11.503900   73.753600
  H     -3.792380  -11.359000   73.430700
  H     -5.393200  -11.998500   72.978000
  C     -5.536590  -10.179300   73.956300
  H     -5.106440   -9.644950   74.838700
  H     -5.513260   -9.482390   73.133600
  H     -6.639090  -10.300400   74.196900
  S     -0.660818  -10.473000   79.281300
  C     -1.180140   -9.510570   80.581700
  C     -2.467590   -9.826060   80.947100
  C     -3.179490  -10.588800   80.077400
  C     -2.290570  -11.093200   79.079000
  H     -2.851280   -9.424430   81.852200
  C     -4.680220  -10.724800   80.241100
  H     -5.079930  -10.983800   81.198900
  H     -4.872030  -11.569800   79.587800
  C     -5.480430   -9.513600   79.733800
  H     -5.120580   -9.202630   78.758100
  H     -5.284050   -8.667720   80.374000
  C     -7.000370   -9.766970   79.766200
  H     -7.463900   -8.830980   79.626800
  H     -7.352560  -10.086500   80.756600
  H     -7.367960  -10.585700   79.154000
  H     -2.531610  -14.170200   75.199200
  H     -0.574291   -8.841070   81.220200

 Total Charge           Charge          ....    0
 Multiplicity           Mult            ....    1
 Number of Electrons    NEL             ....  134
 Basis Dimension        Dim             ....  322

ORBITAL ENERGIES
----------------

  NO   OCC          E(Eh)            E(eV)
   0   2.0000     -88.970926     -2421.0220
   1   2.0000     -88.969118     -2420.9728
   2   2.0000     -10.329863      -281.0899
   3   2.0000     -10.329597      -281.0826
   4   2.0000     -10.311801      -280.5984
   5   2.0000     -10.311148      -280.5806
   6   2.0000     -10.300990      -280.3042
   7   2.0000     -10.298730      -280.2427
   8   2.0000     -10.296566      -280.1838
   9   2.0000     -10.288974      -279.9772
  10   2.0000     -10.288797      -279.9724
  11   2.0000     -10.287544      -279.9383
  12   2.0000     -10.284470      -279.8546
  13   2.0000     -10.281087      -279.7626
  14   2.0000     -10.279024      -279.7065
  15   2.0000     -10.277502      -279.6650
  16   2.0000      -8.085111      -220.0070
  17   2.0000      -8.084432      -219.9886
  18   2.0000      -6.043630      -164.4555
  19   2.0000      -6.042663      -164.4292
  20   2.0000      -6.039949      -164.3554
  21   2.0000      -6.038858      -164.3257
  22   2.0000      -6.035652      -164.2385
  23   2.0000      -6.035460      -164.2332
  24   2.0000      -1.009563       -27.4716
  25   2.0000      -0.987949       -26.8835
  26   2.0000      -0.916413       -24.9369
  27   2.0000      -0.913096       -24.8466
  28   2.0000      -0.864844       -23.5336
  29   2.0000      -0.857724       -23.3398
  30   2.0000      -0.849678       -23.1209
  31   2.0000      -0.809423       -22.0255
  32   2.0000      -0.785478       -21.3740
  33   2.0000      -0.772878       -21.0311
  34   2.0000      -0.707444       -19.2505
  35   2.0000      -0.701914       -19.1000
  36   2.0000      -0.693740       -18.8776
  37   2.0000      -0.660909       -17.9842
  38   2.0000      -0.637315       -17.3422
  39   2.0000      -0.618483       -16.8298
  40   2.0000      -0.600829       -16.3494
  41   2.0000      -0.572275       -15.5724
  42   2.0000      -0.564867       -15.3708
  43   2.0000      -0.550763       -14.9870
  44   2.0000      -0.535792       -14.5797
  45   2.0000      -0.531301       -14.4574
  46   2.0000      -0.520731       -14.1698
  47   2.0000      -0.512714       -13.9516
  48   2.0000      -0.500363       -13.6156
  49   2.0000      -0.492131       -13.3916
  50   2.0000      -0.487054       -13.2534
  51   2.0000      -0.483509       -13.1569
  52   2.0000      -0.469925       -12.7873
  53   2.0000      -0.467379       -12.7180
  54   2.0000      -0.456664       -12.4265
  55   2.0000      -0.453092       -12.3293
  56   2.0000      -0.445263       -12.1162
  57   2.0000      -0.442213       -12.0332
  58   2.0000      -0.439465       -11.9585
  59   2.0000      -0.431950       -11.7540
  60   2.0000      -0.424536       -11.5522
  61   2.0000      -0.415511       -11.3066
  62   2.0000      -0.403391       -10.9768
  63   2.0000      -0.345416        -9.3992
  64   2.0000      -0.336041        -9.1441
  65   2.0000      -0.333965        -9.0876
  66   2.0000      -0.284208        -7.7337
  67   0.0000       0.029902         0.8137
  68   0.0000       0.068394         1.8611
  69   0.0000       0.102451         2.7878
  70   0.0000       0.121045         3.2938
  71   0.0000       0.127682         3.4744

MULLIKEN ATOMIC CHARGES
-----------------------
   0 S :    0.116788
   1 C :   -0.110805
   2 C :   -0.067495
   3 C :    0.001419
   4 C :   -0.131448
   5 H :    0.011045
   6 C :    0.010295
   7 H :    0.034239
   8 H :    0.037134
   9 C :   -0.000038
  10 H :    0.024920
  11 H :    0.030611
  12 C :   -0.096843
  13 H :    0.028937
  14 H :    0.036040
  15 H :    0.037918
  16 S :    0.123407
  17 C :   -0.093934
  18 C :   -0.038874
  19 C :   -0.012084
  20 C :   -0.178456
  21 H :   -0.003299
  22 C :    0.080399
  23 H :    0.019134
  24 H :    0.018043
  25 C :   -0.072339
  26 H :    0.024634
  27 H :    0.020165
  28 C :   -0.015046
  29 H :    0.028708
  30 H :    0.013757
  31 H :    0.033911
  32 H :    0.029315
  33 H :    0.059841
Sum of atomic charges:    0.0000000

LOEWDIN ATOMIC CHARGES
----------------------
   0 S :    0.393300
   1 C :   -0.195119
   2 C :   -0.060991
   3 C :   -0.071953
   4 C :   -0.183621
   5 H :    0.032381
   6 C :   -0.035021
   7 H :    0.037319
   8 H :    0.038148
   9 C :   -0.043609
  10 H :    0.020561
  11 H :    0.032745
  12 C :   -0.072956
  13 H :    0.022859
  14 H :    0.023138
  15 H :    0.030231
  16 S :    0.434653
  17 C :   -0.209662
  18 C :   -0.072522
  19 C :   -0.055047
  20 C :   -0.198666
  21 H :    0.024316
  22 C :   -0.027885
  23 H :    0.027787
  24 H :    0.029769
  25 C :   -0.032478
  26 H :    0.019342
  27 H :    0.021937
  28 C :   -0.061788
  29 H :    0.023087
  30 H :    0.025506
  31 H :    0.025995
  32 H :    0.023146
  33 H :    0.035098

  Mayer bond orders larger than 0.100000
B(  0-S ,  1-C ) :   1.1118 B(  0-S ,  4-C ) :   1.1522 B(  1-C ,  2-C ) :   1.6527
B(  1-C , 32-H ) :   0.9643 B(  2-C ,  3-C ) :   1.2158 B(  2-C ,  6-C ) :   1.0138
B(  3-C ,  4-C ) :   1.5956 B(  3-C ,  5-H ) :   0.9918 B(  4-C , 20-C ) :   1.0038
B(  6-C ,  7-H ) :   0.9455 B(  6-C ,  8-H ) :   0.9450 B(  6-C ,  9-C ) :   1.0589
B(  9-C , 10-H ) :   0.9539 B(  9-C , 11-H ) :   0.9543 B(  9-C , 12-C ) :   1.0806
B( 12-C , 13-H ) :   0.9764 B( 12-C , 14-H ) :   0.9743 B( 12-C , 15-H ) :   0.9730
B( 16-S , 17-C ) :   1.1756 B( 16-S , 20-C ) :   1.1769 B( 17-C , 18-C ) :   1.5699
B( 17-C , 20-C ) :   0.1148 B( 17-C , 33-H ) :   0.9615 B( 18-C , 19-C ) :   1.2942
B( 18-C , 21-H ) :   0.9940 B( 19-C , 20-C ) :   1.5335 B( 19-C , 22-C ) :   1.0398
B( 22-C , 23-H ) :   0.9389 B( 22-C , 24-H ) :   0.9277 B( 22-C , 25-C ) :   1.0648
B( 25-C , 26-H ) :   0.9508 B( 25-C , 27-H ) :   0.9512 B( 25-C , 28-C ) :   1.0853
B( 28-C , 29-H ) :   0.9730 B( 28-C , 30-H ) :   0.9684 B( 28-C , 31-H ) :   0.9761

Dispersion correction           -0.014325329
FINAL SINGLE POINT ENERGY     -1339.862907695364

DIPOLE MOMENT
-------------
                                X             Y             Z
Electronic contribution:     29.52168      -9.24084       8.38720
Nuclear contribution   :    -30.15470       9.54547      -8.40090
                        -----------------------------------------
Total Dipole Moment    :     -0.63302       0.30463      -0.01370
                        -----------------------------------------
Magnitude (a.u.)       :      0.70264
Magnitude (Debye)      :      1.78596

Rotational constants in cm-1:     0.015721     0.010033     0.006990
Rotational constants in MHz :   471.300358   300.792283   209.546844

                             ****ORCA TERMINATED NORMALLY****
TOTAL RUN TIME: 0 days 0 hours 0 minutes 34 seconds 558 msec
