                         Program Version 4.2.1 -  RELEASE  -
|  1> ! wB97X-D3 SP def2-SVP
|  2> %pal
|  3> nprocs 16
|  4> end
|  5>
|  6> * xyz 0 1
|  7> S 	 -38.9787 	 32.6503 	 78.3979
|  8> C 	 -38.9875 	 33.0172 	 76.7491
|  9> C 	 -40.0066 	 33.9429 	 76.4729
| 10> C 	 -40.872 	 34.1357 	 77.5686
| 11> C 	 -40.5461 	 33.4039 	 78.6509
| 12> H 	 -41.6769 	 34.8337 	 77.572
| 13> C 	 -40.2442 	 34.7674 	 75.169
| 14> H 	 -41.3312 	 34.8612 	 74.8937
| 15> H 	 -39.6309 	 34.4147 	 74.3648
| 16> C 	 -39.8841 	 36.2563 	 75.3219
| 17> H 	 -40.2498 	 36.784 	 74.3824
| 18> H 	 -40.5122 	 36.5623 	 76.1715
| 19> C 	 -38.3998 	 36.675 	 75.5835
| 20> H 	 -37.6649 	 36.3409 	 74.8395
| 21> H 	 -38.3945 	 37.7753 	 75.7089
| 22> H 	 -38.0785 	 36.1866 	 76.4978
| 23> S 	 -41.2718 	 34.9545 	 80.9026
| 24> C 	 -41.8672 	 34.1492 	 82.3454
| 25> C 	 -42.0103 	 32.8092 	 82.1221
| 26> C 	 -41.7241 	 32.4472 	 80.8172
| 27> C 	 -41.2053 	 33.4497 	 79.9906
| 28> H 	 -42.4193 	 32.2012 	 82.8956
| 29> C 	 -41.8356 	 30.9653 	 80.3369
| 30> H 	 -40.9308 	 30.4944 	 80.7317
| 31> H 	 -41.6851 	 30.9131 	 79.2139
| 32> C 	 -43.1811 	 30.1869 	 80.8297
| 33> H 	 -44.0959 	 30.7421 	 80.8918
| 34> H 	 -42.9842 	 29.8633 	 81.8295
| 35> C 	 -43.5222 	 29.0348 	 79.9632
| 36> H 	 -42.6441 	 28.3148 	 80.0314
| 37> H 	 -43.6158 	 29.2959 	 78.9122
| 38> H 	 -44.367 	 28.5222 	 80.3308
| 39> H 	 -38.3787 	 32.5935 	 75.9771
| 40> H 	 -42.083 	 34.5342 	 83.357
| 41> *
| 42>
| 43>                          ****END OF INPUT****

CARTESIAN COORDINATES (ANGSTROEM)
---------------------------------
  S    -38.978700   32.650300   78.397900
  C    -38.987500   33.017200   76.749100
  C    -40.006600   33.942900   76.472900
  C    -40.872000   34.135700   77.568600
  C    -40.546100   33.403900   78.650900
  H    -41.676900   34.833700   77.572000
  C    -40.244200   34.767400   75.169000
  H    -41.331200   34.861200   74.893700
  H    -39.630900   34.414700   74.364800
  C    -39.884100   36.256300   75.321900
  H    -40.249800   36.784000   74.382400
  H    -40.512200   36.562300   76.171500
  C    -38.399800   36.675000   75.583500
  H    -37.664900   36.340900   74.839500
  H    -38.394500   37.775300   75.708900
  H    -38.078500   36.186600   76.497800
  S    -41.271800   34.954500   80.902600
  C    -41.867200   34.149200   82.345400
  C    -42.010300   32.809200   82.122100
  C    -41.724100   32.447200   80.817200
  C    -41.205300   33.449700   79.990600
  H    -42.419300   32.201200   82.895600
  C    -41.835600   30.965300   80.336900
  H    -40.930800   30.494400   80.731700
  H    -41.685100   30.913100   79.213900
  C    -43.181100   30.186900   80.829700
  H    -44.095900   30.742100   80.891800
  H    -42.984200   29.863300   81.829500
  C    -43.522200   29.034800   79.963200
  H    -42.644100   28.314800   80.031400
  H    -43.615800   29.295900   78.912200
  H    -44.367000   28.522200   80.330800
  H    -38.378700   32.593500   75.977100
  H    -42.083000   34.534200   83.357000

 Total Charge           Charge          ....    0
 Multiplicity           Mult            ....    1
 Number of Electrons    NEL             ....  134
 Basis Dimension        Dim             ....  322

ORBITAL ENERGIES
----------------

  NO   OCC          E(Eh)            E(eV)
   0   2.0000     -88.967906     -2420.9398
   1   2.0000     -88.965903     -2420.8853
   2   2.0000     -10.329306      -281.0747
   3   2.0000     -10.327133      -281.0156
   4   2.0000     -10.319203      -280.7998
   5   2.0000     -10.313856      -280.6543
   6   2.0000     -10.302269      -280.3390
   7   2.0000     -10.302051      -280.3331
   8   2.0000     -10.299364      -280.2599
   9   2.0000     -10.295759      -280.1618
  10   2.0000     -10.291814      -280.0545
  11   2.0000     -10.288221      -279.9567
  12   2.0000     -10.285633      -279.8863
  13   2.0000     -10.283842      -279.8376
  14   2.0000     -10.278067      -279.6804
  15   2.0000     -10.272860      -279.5387
  16   2.0000      -8.083397      -219.9604
  17   2.0000      -8.080115      -219.8711
  18   2.0000      -6.041820      -164.4063
  19   2.0000      -6.038629      -164.3195
  20   2.0000      -6.037857      -164.2984
  21   2.0000      -6.034602      -164.2099
  22   2.0000      -6.034123      -164.1968
  23   2.0000      -6.030975      -164.1112
  24   2.0000      -1.011190       -27.5159
  25   2.0000      -0.990628       -26.9564
  26   2.0000      -0.904333       -24.6082
  27   2.0000      -0.899093       -24.4656
  28   2.0000      -0.871147       -23.7051
  29   2.0000      -0.852184       -23.1891
  30   2.0000      -0.846607       -23.0373
  31   2.0000      -0.816380       -22.2148
  32   2.0000      -0.781125       -21.2555
  33   2.0000      -0.764456       -20.8019
  34   2.0000      -0.702568       -19.1178
  35   2.0000      -0.698488       -19.0068
  36   2.0000      -0.684906       -18.6372
  37   2.0000      -0.657506       -17.8917
  38   2.0000      -0.642479       -17.4827
  39   2.0000      -0.624768       -17.0008
  40   2.0000      -0.589665       -16.0456
  41   2.0000      -0.573448       -15.6043
  42   2.0000      -0.558853       -15.2072
  43   2.0000      -0.544891       -14.8272
  44   2.0000      -0.540434       -14.7060
  45   2.0000      -0.530200       -14.4275
  46   2.0000      -0.519106       -14.1256
  47   2.0000      -0.514024       -13.9873
  48   2.0000      -0.506444       -13.7810
  49   2.0000      -0.493632       -13.4324
  50   2.0000      -0.487131       -13.2555
  51   2.0000      -0.478617       -13.0238
  52   2.0000      -0.475654       -12.9432
  53   2.0000      -0.468297       -12.7430
  54   2.0000      -0.455660       -12.3991
  55   2.0000      -0.446018       -12.1368
  56   2.0000      -0.444437       -12.0937
  57   2.0000      -0.432642       -11.7728
  58   2.0000      -0.430641       -11.7183
  59   2.0000      -0.422620       -11.5001
  60   2.0000      -0.420313       -11.4373
  61   2.0000      -0.411178       -11.1887
  62   2.0000      -0.404105       -10.9963
  63   2.0000      -0.343061        -9.3352
  64   2.0000      -0.336327        -9.1519
  65   2.0000      -0.321477        -8.7478
  66   2.0000      -0.301697        -8.2096
  67   0.0000       0.032176         0.8756
  68   0.0000       0.064306         1.7499
  69   0.0000       0.107916         2.9365
  70   0.0000       0.126979         3.4553
  71   0.0000       0.133555         3.6342

MULLIKEN ATOMIC CHARGES
-----------------------
   0 S :    0.130552
   1 C :   -0.111233
   2 C :   -0.095886
   3 C :    0.020813
   4 C :   -0.138507
   5 H :    0.005729
   6 C :    0.080543
   7 H :    0.042610
   8 H :    0.010847
   9 C :   -0.134932
  10 H :    0.041782
  11 H :    0.027398
  12 C :   -0.049643
  13 H :    0.032858
  14 H :    0.045986
  15 H :    0.035092
  16 S :    0.110212
  17 C :   -0.092347
  18 C :   -0.034631
  19 C :   -0.026641
  20 C :   -0.164268
  21 H :    0.012612
  22 C :    0.023615
  23 H :    0.043689
  24 H :    0.040964
  25 C :   -0.061771
  26 H :    0.030139
  27 H :    0.022459
  28 C :   -0.046143
  29 H :    0.024417
  30 H :    0.040119
  31 H :    0.026216
  32 H :    0.045698
  33 H :    0.061653
Sum of atomic charges:   -0.0000000

LOEWDIN ATOMIC CHARGES
----------------------
   0 S :    0.433386
   1 C :   -0.214177
   2 C :   -0.064624
   3 C :   -0.059182
   4 C :   -0.192019
   5 H :    0.028686
   6 C :   -0.031921
   7 H :    0.039952
   8 H :    0.020678
   9 C :   -0.047932
  10 H :    0.028161
  11 H :    0.021136
  12 C :   -0.071407
  13 H :    0.024403
  14 H :    0.032676
  15 H :    0.025335
  16 S :    0.402634
  17 C :   -0.181919
  18 C :   -0.078451
  19 C :   -0.054204
  20 C :   -0.209547
  21 H :    0.030544
  22 C :   -0.031100
  23 H :    0.034215
  24 H :    0.032710
  25 C :   -0.039456
  26 H :    0.022253
  27 H :    0.018928
  28 C :   -0.062779
  29 H :    0.028663
  30 H :    0.025827
  31 H :    0.019946
  32 H :    0.028764
  33 H :    0.039821

  Mayer bond orders larger than 0.100000
B(  0-S ,  1-C ) :   1.1648 B(  0-S ,  4-C ) :   1.1512 B(  1-C ,  2-C ) :   1.5722
B(  1-C , 32-H ) :   0.9706 B(  2-C ,  3-C ) :   1.2554 B(  2-C ,  6-C ) :   1.0302
B(  3-C ,  4-C ) :   1.5665 B(  3-C ,  5-H ) :   1.0075 B(  4-C , 20-C ) :   1.0166
B(  6-C ,  7-H ) :   0.9457 B(  6-C ,  8-H ) :   0.9421 B(  6-C ,  9-C ) :   1.0603
B(  9-C , 10-H ) :   0.9584 B(  9-C , 11-H ) :   0.9574 B(  9-C , 12-C ) :   1.0696
B( 12-C , 13-H ) :   0.9762 B( 12-C , 14-H ) :   0.9743 B( 12-C , 15-H ) :   0.9746
B( 16-S , 17-C ) :   1.1685 B( 16-S , 20-C ) :   1.1312 B( 17-C , 18-C ) :   1.5961
B( 17-C , 20-C ) :   0.1028 B( 17-C , 33-H ) :   0.9598 B( 18-C , 19-C ) :   1.2741
B( 18-C , 21-H ) :   0.9936 B( 19-C , 20-C ) :   1.5783 B( 19-C , 22-C ) :   1.0290
B( 22-C , 23-H ) :   0.9384 B( 22-C , 24-H ) :   0.9481 B( 22-C , 25-C ) :   1.0273
B( 25-C , 26-H ) :   0.9682 B( 25-C , 27-H ) :   0.9499 B( 25-C , 28-C ) :   1.1029
B( 28-C , 29-H ) :   0.9722 B( 28-C , 30-H ) :   0.9752 B( 28-C , 31-H ) :   0.9715

Dispersion correction           -0.014086807
FINAL SINGLE POINT ENERGY     -1339.867648279235

DIPOLE MOMENT
-------------
                                X             Y             Z
Electronic contribution:      5.76122       4.88268      11.16297
Nuclear contribution   :     -5.97658      -5.04642     -11.20956
                        -----------------------------------------
Total Dipole Moment    :     -0.21536      -0.16374      -0.04659
                        -----------------------------------------
Magnitude (a.u.)       :      0.27452
Magnitude (Debye)      :      0.69777

Rotational constants in cm-1:     0.021382     0.007628     0.006405
Rotational constants in MHz :   641.008317   228.673359   192.014650

                             ****ORCA TERMINATED NORMALLY****
TOTAL RUN TIME: 0 days 0 hours 0 minutes 29 seconds 255 msec
