                         Program Version 4.2.1 -  RELEASE  -
|  1> ! wB97X-D3 SP def2-SVP
|  2> %pal
|  3> nprocs 16
|  4> end
|  5>
|  6> * xyz 0 1
|  7> S 	 11.3216 	 22.354 	 38.4497
|  8> C 	 13.041 	 22.4822 	 38.4198
|  9> C 	 13.6295 	 21.6462 	 39.3143
| 10> C 	 12.7506 	 20.8437 	 40.0525
| 11> C 	 11.4664 	 21.1109 	 39.7268
| 12> H 	 12.9565 	 20.0314 	 40.7393
| 13> C 	 15.141 	 21.6413 	 39.4717
| 14> H 	 15.5877 	 21.8543 	 38.5492
| 15> H 	 15.4236 	 20.5917 	 39.6945
| 16> C 	 15.5912 	 22.5193 	 40.6526
| 17> H 	 15.3964 	 23.574 	 40.453
| 18> H 	 15.1111 	 22.3313 	 41.6216
| 19> C 	 17.1159 	 22.3955 	 40.8189
| 20> H 	 17.4875 	 23.2026 	 41.4263
| 21> H 	 17.4696 	 21.3798 	 41.228
| 22> H 	 17.6461 	 22.6764 	 39.8593
| 23> S 	 9.83599 	 19.0899 	 38.9358
| 24> C 	 8.893 	 18.1797 	 40.1489
| 25> C 	 9.05505 	 18.7118 	 41.3837
| 26> C 	 9.84856 	 19.8748 	 41.4238
| 27> C 	 10.4078 	 20.1651 	 40.1677
| 28> H 	 8.53089 	 18.3459 	 42.2271
| 29> C 	 10.2256 	 20.5406 	 42.7163
| 30> H 	 9.25226 	 20.7371 	 43.149
| 31> H 	 10.7111 	 21.5082 	 42.5854
| 32> C 	 11.044 	 19.8328 	 43.7926
| 33> H 	 11.979 	 19.4258 	 43.2338
| 34> H 	 10.5535 	 18.9282 	 44.1625
| 35> C 	 11.1971 	 20.6785 	 45.0173
| 36> H 	 11.9677 	 20.3023 	 45.7057
| 37> H 	 10.2879 	 20.8279 	 45.5292
| 38> H 	 11.5347 	 21.73 	 44.8051
| 39> H 	 13.5228 	 23.2965 	 37.9145
| 40> H 	 8.13453 	 17.5054 	 39.859
| 41> *
| 42>
| 43>                          ****END OF INPUT****

CARTESIAN COORDINATES (ANGSTROEM)
---------------------------------
  S     11.321600   22.354000   38.449700
  C     13.041000   22.482200   38.419800
  C     13.629500   21.646200   39.314300
  C     12.750600   20.843700   40.052500
  C     11.466400   21.110900   39.726800
  H     12.956500   20.031400   40.739300
  C     15.141000   21.641300   39.471700
  H     15.587700   21.854300   38.549200
  H     15.423600   20.591700   39.694500
  C     15.591200   22.519300   40.652600
  H     15.396400   23.574000   40.453000
  H     15.111100   22.331300   41.621600
  C     17.115900   22.395500   40.818900
  H     17.487500   23.202600   41.426300
  H     17.469600   21.379800   41.228000
  H     17.646100   22.676400   39.859300
  S      9.835990   19.089900   38.935800
  C      8.893000   18.179700   40.148900
  C      9.055050   18.711800   41.383700
  C      9.848560   19.874800   41.423800
  C     10.407800   20.165100   40.167700
  H      8.530890   18.345900   42.227100
  C     10.225600   20.540600   42.716300
  H      9.252260   20.737100   43.149000
  H     10.711100   21.508200   42.585400
  C     11.044000   19.832800   43.792600
  H     11.979000   19.425800   43.233800
  H     10.553500   18.928200   44.162500
  C     11.197100   20.678500   45.017300
  H     11.967700   20.302300   45.705700
  H     10.287900   20.827900   45.529200
  H     11.534700   21.730000   44.805100
  H     13.522800   23.296500   37.914500
  H      8.134530   17.505400   39.859000

 Total Charge           Charge          ....    0
 Multiplicity           Mult            ....    1
 Number of Electrons    NEL             ....  134
 Basis Dimension        Dim             ....  322

ORBITAL ENERGIES
----------------

  NO   OCC          E(Eh)            E(eV)
   0   2.0000     -88.966077     -2420.8900
   1   2.0000     -88.961046     -2420.7531
   2   2.0000     -10.327093      -281.0145
   3   2.0000     -10.325597      -280.9738
   4   2.0000     -10.311533      -280.5911
   5   2.0000     -10.307582      -280.4836
   6   2.0000     -10.299488      -280.2633
   7   2.0000     -10.293638      -280.1041
   8   2.0000     -10.292511      -280.0735
   9   2.0000     -10.289907      -280.0026
  10   2.0000     -10.289096      -279.9805
  11   2.0000     -10.288333      -279.9598
  12   2.0000     -10.287074      -279.9255
  13   2.0000     -10.286077      -279.8984
  14   2.0000     -10.285399      -279.8799
  15   2.0000     -10.279744      -279.7261
  16   2.0000      -8.080800      -219.8897
  17   2.0000      -8.075841      -219.7548
  18   2.0000      -6.039278      -164.3371
  19   2.0000      -6.035369      -164.2307
  20   2.0000      -6.034260      -164.2006
  21   2.0000      -6.031540      -164.1265
  22   2.0000      -6.030340      -164.0939
  23   2.0000      -6.026687      -163.9945
  24   2.0000      -1.008872       -27.4528
  25   2.0000      -0.986952       -26.8563
  26   2.0000      -0.913385       -24.8545
  27   2.0000      -0.909570       -24.7507
  28   2.0000      -0.872410       -23.7395
  29   2.0000      -0.854494       -23.2520
  30   2.0000      -0.849765       -23.1233
  31   2.0000      -0.819087       -22.2885
  32   2.0000      -0.778279       -21.1781
  33   2.0000      -0.765914       -20.8416
  34   2.0000      -0.704048       -19.1581
  35   2.0000      -0.698528       -19.0079
  36   2.0000      -0.694918       -18.9097
  37   2.0000      -0.663509       -18.0550
  38   2.0000      -0.648621       -17.6499
  39   2.0000      -0.619379       -16.8542
  40   2.0000      -0.601555       -16.3691
  41   2.0000      -0.569281       -15.4909
  42   2.0000      -0.566649       -15.4193
  43   2.0000      -0.556359       -15.1393
  44   2.0000      -0.527907       -14.3651
  45   2.0000      -0.523672       -14.2498
  46   2.0000      -0.517538       -14.0829
  47   2.0000      -0.516729       -14.0609
  48   2.0000      -0.512145       -13.9362
  49   2.0000      -0.497585       -13.5400
  50   2.0000      -0.489856       -13.3296
  51   2.0000      -0.477477       -12.9928
  52   2.0000      -0.469538       -12.7768
  53   2.0000      -0.462978       -12.5983
  54   2.0000      -0.456046       -12.4096
  55   2.0000      -0.452878       -12.3234
  56   2.0000      -0.447695       -12.1824
  57   2.0000      -0.435755       -11.8575
  58   2.0000      -0.430409       -11.7120
  59   2.0000      -0.425520       -11.5790
  60   2.0000      -0.422710       -11.5025
  61   2.0000      -0.413932       -11.2637
  62   2.0000      -0.410750       -11.1771
  63   2.0000      -0.348616        -9.4863
  64   2.0000      -0.330774        -9.0008
  65   2.0000      -0.321392        -8.7455
  66   2.0000      -0.300769        -8.1843
  67   0.0000       0.039311         1.0697
  68   0.0000       0.064245         1.7482
  69   0.0000       0.118605         3.2274
  70   0.0000       0.120171         3.2700
  71   0.0000       0.132441         3.6039

MULLIKEN ATOMIC CHARGES
-----------------------
   0 S :    0.109748
   1 C :   -0.120623
   2 C :   -0.072302
   3 C :    0.038273
   4 C :   -0.150097
   5 H :    0.022758
   6 C :    0.095213
   7 H :    0.009116
   8 H :    0.019452
   9 C :   -0.066748
  10 H :    0.022061
  11 H :    0.035974
  12 C :   -0.072802
  13 H :    0.025036
  14 H :    0.052348
  15 H :    0.028291
  16 S :    0.099595
  17 C :   -0.080795
  18 C :   -0.016005
  19 C :   -0.006055
  20 C :   -0.188501
  21 H :    0.004362
  22 C :    0.035115
  23 H :    0.014609
  24 H :    0.025697
  25 C :   -0.066328
  26 H :    0.036960
  27 H :    0.021119
  28 C :   -0.040812
  29 H :    0.041686
  30 H :    0.024652
  31 H :    0.023368
  32 H :    0.047541
  33 H :    0.048095
Sum of atomic charges:    0.0000000

LOEWDIN ATOMIC CHARGES
----------------------
   0 S :    0.395196
   1 C :   -0.198961
   2 C :   -0.065414
   3 C :   -0.052385
   4 C :   -0.186295
   5 H :    0.037864
   6 C :   -0.023371
   7 H :    0.021688
   8 H :    0.032231
   9 C :   -0.040224
  10 H :    0.023956
  11 H :    0.027618
  12 C :   -0.077974
  13 H :    0.021086
  14 H :    0.032532
  15 H :    0.029166
  16 S :    0.398462
  17 C :   -0.168387
  18 C :   -0.063337
  19 C :   -0.065067
  20 C :   -0.194155
  21 H :    0.027229
  22 C :   -0.039026
  23 H :    0.029881
  24 H :    0.031121
  25 C :   -0.047672
  26 H :    0.029943
  27 H :    0.022167
  28 C :   -0.066057
  29 H :    0.032358
  30 H :    0.021864
  31 H :    0.027130
  32 H :    0.025818
  33 H :    0.021015

  Mayer bond orders larger than 0.100000
B(  0-S ,  1-C ) :   1.1307 B(  0-S ,  4-C ) :   1.1479 B(  1-C ,  2-C ) :   1.6282
B(  1-C , 32-H ) :   0.9675 B(  2-C ,  3-C ) :   1.2298 B(  2-C ,  6-C ) :   1.0215
B(  3-C ,  4-C ) :   1.5879 B(  3-C ,  5-H ) :   0.9952 B(  4-C , 20-C ) :   1.0022
B(  6-C ,  7-H ) :   0.9424 B(  6-C ,  8-H ) :   0.9405 B(  6-C ,  9-C ) :   1.0568
B(  9-C , 10-H ) :   0.9535 B(  9-C , 11-H ) :   0.9581 B(  9-C , 12-C ) :   1.0869
B( 12-C , 13-H ) :   0.9731 B( 12-C , 14-H ) :   0.9746 B( 12-C , 15-H ) :   0.9707
B( 16-S , 17-C ) :   1.1390 B( 16-S , 20-C ) :   1.1653 B( 17-C , 18-C ) :   1.6084
B( 17-C , 33-H ) :   0.9726 B( 18-C , 19-C ) :   1.2479 B( 18-C , 21-H ) :   0.9943
B( 19-C , 20-C ) :   1.5863 B( 19-C , 22-C ) :   1.0525 B( 22-C , 23-H ) :   0.9219
B( 22-C , 24-H ) :   0.9370 B( 22-C , 25-C ) :   1.0682 B( 25-C , 26-H ) :   0.9527
B( 25-C , 27-H ) :   0.9456 B( 25-C , 28-C ) :   1.0779 B( 28-C , 29-H ) :   0.9715
B( 28-C , 30-H ) :   0.9715 B( 28-C , 31-H ) :   0.9728

Dispersion correction           -0.013925131
FINAL SINGLE POINT ENERGY     -1339.876566040696

DIPOLE MOMENT
-------------
                                X             Y             Z
Electronic contribution:    -20.00490      -4.11064     -23.07550
Nuclear contribution   :     20.34963       4.15721      23.62919
                        -----------------------------------------
Total Dipole Moment    :      0.34473       0.04657       0.55370
                        -----------------------------------------
Magnitude (a.u.)       :      0.65390
Magnitude (Debye)      :      1.66208

Rotational constants in cm-1:     0.016509     0.009015     0.006573
Rotational constants in MHz :   494.936567   270.256050   197.045721

                             ****ORCA TERMINATED NORMALLY****
TOTAL RUN TIME: 0 days 0 hours 0 minutes 34 seconds 796 msec
