                         Program Version 4.2.1 -  RELEASE  -
|  1> ! wB97X-D3 SP def2-SVP
|  2> %pal
|  3> nprocs 16
|  4> end
|  5>
|  6> * xyz 0 1
|  7> S 	 -4.03075 	 30.8297 	 47.9772
|  8> C 	 -5.17811 	 29.6294 	 48.5601
|  9> C 	 -6.08445 	 30.1053 	 49.4803
| 10> C 	 -5.86613 	 31.4935 	 49.6483
| 11> C 	 -4.84929 	 32.0263 	 48.9367
| 12> H 	 -6.59901 	 32.1174 	 50.2104
| 13> C 	 -7.07966 	 29.2619 	 50.2058
| 14> H 	 -7.13149 	 28.321 	 49.6228
| 15> H 	 -8.04888 	 29.7206 	 50.2143
| 16> C 	 -6.6526 	 28.9304 	 51.6312
| 17> H 	 -6.64493 	 29.8545 	 52.1774
| 18> H 	 -7.4411 	 28.3315 	 52.1167
| 19> C 	 -5.21695 	 28.3903 	 51.8186
| 20> H 	 -4.86742 	 27.787 	 50.9416
| 21> H 	 -4.50948 	 29.2762 	 51.8219
| 22> H 	 -5.1006 	 27.7822 	 52.7709
| 23> S 	 -4.98788 	 34.2428 	 47.2296
| 24> C 	 -4.31947 	 35.7659 	 47.7615
| 25> C 	 -3.81806 	 35.6386 	 49.0452
| 26> C 	 -3.93718 	 34.2907 	 49.5697
| 27> C 	 -4.53195 	 33.407 	 48.7149
| 28> H 	 -3.43166 	 36.4488 	 49.6368
| 29> C 	 -3.48553 	 33.9364 	 51.0488
| 30> H 	 -2.49533 	 34.426 	 51.1333
| 31> H 	 -3.30788 	 32.8496 	 51.0958
| 32> C 	 -4.33028 	 34.3347 	 52.2394
| 33> H 	 -5.32082 	 33.9565 	 52.0269
| 34> H 	 -4.40874 	 35.4743 	 52.2526
| 35> C 	 -3.73433 	 33.9983 	 53.6043
| 36> H 	 -3.18297 	 33.0447 	 53.6175
| 37> H 	 -4.59265 	 33.9083 	 54.2838
| 38> H 	 -3.0805 	 34.8007 	 53.8919
| 39> H 	 -5.13166 	 28.5836 	 48.1787
| 40> H 	 -4.44725 	 36.749 	 47.3708
| 41> *
| 42>
| 43>                          ****END OF INPUT****

CARTESIAN COORDINATES (ANGSTROEM)
---------------------------------
  S     -4.030750   30.829700   47.977200
  C     -5.178110   29.629400   48.560100
  C     -6.084450   30.105300   49.480300
  C     -5.866130   31.493500   49.648300
  C     -4.849290   32.026300   48.936700
  H     -6.599010   32.117400   50.210400
  C     -7.079660   29.261900   50.205800
  H     -7.131490   28.321000   49.622800
  H     -8.048880   29.720600   50.214300
  C     -6.652600   28.930400   51.631200
  H     -6.644930   29.854500   52.177400
  H     -7.441100   28.331500   52.116700
  C     -5.216950   28.390300   51.818600
  H     -4.867420   27.787000   50.941600
  H     -4.509480   29.276200   51.821900
  H     -5.100600   27.782200   52.770900
  S     -4.987880   34.242800   47.229600
  C     -4.319470   35.765900   47.761500
  C     -3.818060   35.638600   49.045200
  C     -3.937180   34.290700   49.569700
  C     -4.531950   33.407000   48.714900
  H     -3.431660   36.448800   49.636800
  C     -3.485530   33.936400   51.048800
  H     -2.495330   34.426000   51.133300
  H     -3.307880   32.849600   51.095800
  C     -4.330280   34.334700   52.239400
  H     -5.320820   33.956500   52.026900
  H     -4.408740   35.474300   52.252600
  C     -3.734330   33.998300   53.604300
  H     -3.182970   33.044700   53.617500
  H     -4.592650   33.908300   54.283800
  H     -3.080500   34.800700   53.891900
  H     -5.131660   28.583600   48.178700
  H     -4.447250   36.749000   47.370800

 Total Charge           Charge          ....    0
 Multiplicity           Mult            ....    1
 Number of Electrons    NEL             ....  134
 Basis Dimension        Dim             ....  322

ORBITAL ENERGIES
----------------

  NO   OCC          E(Eh)            E(eV)
   0   2.0000     -88.965826     -2420.8832
   1   2.0000     -88.964488     -2420.8468
   2   2.0000     -10.323189      -280.9083
   3   2.0000     -10.321224      -280.8548
   4   2.0000     -10.317180      -280.7447
   5   2.0000     -10.317084      -280.7421
   6   2.0000     -10.302768      -280.3526
   7   2.0000     -10.298495      -280.2363
   8   2.0000     -10.294897      -280.1384
   9   2.0000     -10.293763      -280.1075
  10   2.0000     -10.293224      -280.0929
  11   2.0000     -10.292457      -280.0720
  12   2.0000     -10.288651      -279.9684
  13   2.0000     -10.287698      -279.9425
  14   2.0000     -10.287036      -279.9245
  15   2.0000     -10.280316      -279.7416
  16   2.0000      -8.080986      -219.8948
  17   2.0000      -8.078981      -219.8403
  18   2.0000      -6.039405      -164.3406
  19   2.0000      -6.037707      -164.2944
  20   2.0000      -6.035511      -164.2346
  21   2.0000      -6.033424      -164.1778
  22   2.0000      -6.031740      -164.1320
  23   2.0000      -6.029604      -164.0739
  24   2.0000      -1.010663       -27.5015
  25   2.0000      -0.984702       -26.7951
  26   2.0000      -0.917670       -24.9711
  27   2.0000      -0.904749       -24.6195
  28   2.0000      -0.869698       -23.6657
  29   2.0000      -0.848365       -23.0852
  30   2.0000      -0.843681       -22.9577
  31   2.0000      -0.814405       -22.1611
  32   2.0000      -0.784419       -21.3451
  33   2.0000      -0.773025       -21.0351
  34   2.0000      -0.709228       -19.2991
  35   2.0000      -0.691658       -18.8210
  36   2.0000      -0.688260       -18.7285
  37   2.0000      -0.659764       -17.9531
  38   2.0000      -0.642324       -17.4785
  39   2.0000      -0.622477       -16.9385
  40   2.0000      -0.589805       -16.0494
  41   2.0000      -0.569959       -15.5094
  42   2.0000      -0.567830       -15.4514
  43   2.0000      -0.550258       -14.9733
  44   2.0000      -0.546579       -14.8732
  45   2.0000      -0.522002       -14.2044
  46   2.0000      -0.517523       -14.0825
  47   2.0000      -0.512142       -13.9361
  48   2.0000      -0.505110       -13.7447
  49   2.0000      -0.491449       -13.3730
  50   2.0000      -0.486555       -13.2398
  51   2.0000      -0.475894       -12.9497
  52   2.0000      -0.473604       -12.8874
  53   2.0000      -0.462482       -12.5848
  54   2.0000      -0.460067       -12.5191
  55   2.0000      -0.448922       -12.2158
  56   2.0000      -0.444071       -12.0838
  57   2.0000      -0.441599       -12.0165
  58   2.0000      -0.431433       -11.7399
  59   2.0000      -0.427028       -11.6200
  60   2.0000      -0.413357       -11.2480
  61   2.0000      -0.412562       -11.2264
  62   2.0000      -0.409995       -11.1565
  63   2.0000      -0.341473        -9.2920
  64   2.0000      -0.329599        -8.9688
  65   2.0000      -0.326444        -8.8830
  66   2.0000      -0.308169        -8.3857
  67   0.0000       0.041596         1.1319
  68   0.0000       0.059563         1.6208
  69   0.0000       0.117319         3.1924
  70   0.0000       0.123385         3.3575
  71   0.0000       0.124134         3.3778

MULLIKEN ATOMIC CHARGES
-----------------------
   0 S :    0.118074
   1 C :   -0.153196
   2 C :   -0.100550
   3 C :    0.026881
   4 C :   -0.184278
   5 H :    0.026464
   6 C :    0.102626
   7 H :    0.022581
   8 H :    0.027416
   9 C :   -0.073811
  10 H :    0.019747
  11 H :    0.036820
  12 C :   -0.093639
  13 H :    0.033456
  14 H :    0.049880
  15 H :    0.054101
  16 S :    0.114984
  17 C :   -0.069871
  18 C :   -0.034973
  19 C :   -0.034507
  20 C :   -0.161866
  21 H :    0.014022
  22 C :    0.043180
  23 H :    0.020800
  24 H :    0.031142
  25 C :   -0.077066
  26 H :    0.022652
  27 H :    0.026681
  28 C :   -0.035269
  29 H :    0.035314
  30 H :    0.040242
  31 H :    0.037980
  32 H :    0.060639
  33 H :    0.053343
Sum of atomic charges:    0.0000000

LOEWDIN ATOMIC CHARGES
----------------------
   0 S :    0.408110
   1 C :   -0.189819
   2 C :   -0.069414
   3 C :   -0.060082
   4 C :   -0.199974
   5 H :    0.037807
   6 C :   -0.026771
   7 H :    0.033400
   8 H :    0.030891
   9 C :   -0.046063
  10 H :    0.020832
  11 H :    0.026089
  12 C :   -0.078471
  13 H :    0.024615
  14 H :    0.034796
  15 H :    0.035439
  16 S :    0.401388
  17 C :   -0.184664
  18 C :   -0.069520
  19 C :   -0.052740
  20 C :   -0.208085
  21 H :    0.027698
  22 C :   -0.035320
  23 H :    0.028471
  24 H :    0.028298
  25 C :   -0.047847
  26 H :    0.017806
  27 H :    0.028526
  28 C :   -0.062062
  29 H :    0.026326
  30 H :    0.033248
  31 H :    0.026019
  32 H :    0.030238
  33 H :    0.030832

  Mayer bond orders larger than 0.100000
B(  0-S ,  1-C ) :   1.1474 B(  0-S ,  4-C ) :   1.1444 B(  1-C ,  2-C ) :   1.6161
B(  1-C , 32-H ) :   0.9564 B(  2-C ,  3-C ) :   1.2367 B(  2-C ,  6-C ) :   1.0313
B(  3-C ,  4-C ) :   1.6116 B(  3-C ,  5-H ) :   0.9851 B(  4-C , 20-C ) :   1.0188
B(  6-C ,  7-H ) :   0.9351 B(  6-C ,  8-H ) :   0.9347 B(  6-C ,  9-C ) :   1.0770
B(  9-C , 10-H ) :   0.9568 B(  9-C , 11-H ) :   0.9599 B(  9-C , 12-C ) :   1.0579
B( 12-C , 13-H ) :   0.9790 B( 12-C , 14-H ) :   0.9717 B( 12-C , 15-H ) :   0.9737
B( 16-S , 17-C ) :   1.1486 B( 16-S , 20-C ) :   1.1246 B( 17-C , 18-C ) :   1.6157
B( 17-C , 33-H ) :   0.9672 B( 18-C , 19-C ) :   1.2423 B( 18-C , 21-H ) :   0.9880
B( 19-C , 20-C ) :   1.6362 B( 19-C , 22-C ) :   1.0317 B( 22-C , 23-H ) :   0.9371
B( 22-C , 24-H ) :   0.9299 B( 22-C , 25-C ) :   1.0741 B( 25-C , 26-H ) :   0.9556
B( 25-C , 27-H ) :   0.9545 B( 25-C , 28-C ) :   1.0668 B( 28-C , 29-H ) :   0.9771
B( 28-C , 30-H ) :   0.9740 B( 28-C , 31-H ) :   0.9778

Dispersion correction           -0.014893781
FINAL SINGLE POINT ENERGY     -1339.889937967046

DIPOLE MOMENT
-------------
                                X             Y             Z
Electronic contribution:      2.38087       7.17815     -28.32310
Nuclear contribution   :     -2.65800      -7.16725      28.97488
                        -----------------------------------------
Total Dipole Moment    :     -0.27713       0.01090       0.65178
                        -----------------------------------------
Magnitude (a.u.)       :      0.70834
Magnitude (Debye)      :      1.80044

Rotational constants in cm-1:     0.017475     0.009806     0.007063
Rotational constants in MHz :   523.888078   293.980110   211.742736

                             ****ORCA TERMINATED NORMALLY****
TOTAL RUN TIME: 0 days 0 hours 0 minutes 35 seconds 914 msec
