                         Program Version 4.2.1 -  RELEASE  -
|  1> ! wB97X-D3 SP def2-SVP
|  2> %pal
|  3> nprocs 16
|  4> end
|  5>
|  6> * xyz 0 1
|  7> S 	 -39.3284 	 19.0495 	 73.6306
|  8> C 	 -37.5867 	 19.044 	 73.3068
|  9> C 	 -36.8649 	 18.1003 	 74.0224
| 10> C 	 -37.7467 	 17.2639 	 74.7384
| 11> C 	 -39.0606 	 17.6378 	 74.6626
| 12> H 	 -37.4534 	 16.2861 	 75.1344
| 13> C 	 -35.3589 	 17.8217 	 73.8585
| 14> H 	 -34.8812 	 17.3109 	 74.7037
| 15> H 	 -34.8084 	 18.7447 	 73.834
| 16> C 	 -35.0157 	 17.1546 	 72.5739
| 17> H 	 -35.4233 	 17.6437 	 71.6771
| 18> H 	 -33.9471 	 17.0792 	 72.4562
| 19> C 	 -35.4634 	 15.652 	 72.4477
| 20> H 	 -35.0131 	 14.9559 	 73.156
| 21> H 	 -36.5483 	 15.6168 	 72.3656
| 22> H 	 -35.1728 	 15.393 	 71.4739
| 23> S 	 -41.1614 	 17.5714 	 76.3771
| 24> C 	 -41.9212 	 16.0114 	 76.6921
| 25> C 	 -41.5083 	 15.0614 	 75.7738
| 26> C 	 -40.4889 	 15.5432 	 74.8768
| 27> C 	 -40.182 	 16.8983 	 75.084
| 28> H 	 -41.888 	 14.0603 	 75.9105
| 29> C 	 -39.7708 	 14.7015 	 73.8456
| 30> H 	 -38.7022 	 14.5307 	 74.21
| 31> H 	 -39.5562 	 15.3965 	 73.0117
| 32> C 	 -40.4031 	 13.3717 	 73.3809
| 33> H 	 -41.4193 	 13.3894 	 73.1568
| 34> H 	 -40.245 	 12.587 	 74.1438
| 35> C 	 -39.6872 	 12.8438 	 72.1174
| 36> H 	 -39.958 	 13.4725 	 71.2434
| 37> H 	 -40.0922 	 11.8301 	 71.8561
| 38> H 	 -38.6323 	 12.7562 	 72.373
| 39> H 	 -37.3021 	 19.7958 	 72.5742
| 40> H 	 -42.4347 	 15.6799 	 77.5873
| 41> *
| 42>
| 43>                          ****END OF INPUT****

CARTESIAN COORDINATES (ANGSTROEM)
---------------------------------
  S    -39.328400   19.049500   73.630600
  C    -37.586700   19.044000   73.306800
  C    -36.864900   18.100300   74.022400
  C    -37.746700   17.263900   74.738400
  C    -39.060600   17.637800   74.662600
  H    -37.453400   16.286100   75.134400
  C    -35.358900   17.821700   73.858500
  H    -34.881200   17.310900   74.703700
  H    -34.808400   18.744700   73.834000
  C    -35.015700   17.154600   72.573900
  H    -35.423300   17.643700   71.677100
  H    -33.947100   17.079200   72.456200
  C    -35.463400   15.652000   72.447700
  H    -35.013100   14.955900   73.156000
  H    -36.548300   15.616800   72.365600
  H    -35.172800   15.393000   71.473900
  S    -41.161400   17.571400   76.377100
  C    -41.921200   16.011400   76.692100
  C    -41.508300   15.061400   75.773800
  C    -40.488900   15.543200   74.876800
  C    -40.182000   16.898300   75.084000
  H    -41.888000   14.060300   75.910500
  C    -39.770800   14.701500   73.845600
  H    -38.702200   14.530700   74.210000
  H    -39.556200   15.396500   73.011700
  C    -40.403100   13.371700   73.380900
  H    -41.419300   13.389400   73.156800
  H    -40.245000   12.587000   74.143800
  C    -39.687200   12.843800   72.117400
  H    -39.958000   13.472500   71.243400
  H    -40.092200   11.830100   71.856100
  H    -38.632300   12.756200   72.373000
  H    -37.302100   19.795800   72.574200
  H    -42.434700   15.679900   77.587300

 Total Charge           Charge          ....    0
 Multiplicity           Mult            ....    1
 Number of Electrons    NEL             ....  134
 Basis Dimension        Dim             ....  322

ORBITAL ENERGIES
----------------

  NO   OCC          E(Eh)            E(eV)
   0   2.0000     -88.965361     -2420.8706
   1   2.0000     -88.962192     -2420.7843
   2   2.0000     -10.322652      -280.8936
   3   2.0000     -10.318581      -280.7829
   4   2.0000     -10.317172      -280.7445
   5   2.0000     -10.315414      -280.6967
   6   2.0000     -10.305949      -280.4391
   7   2.0000     -10.305466      -280.4260
   8   2.0000     -10.297861      -280.2190
   9   2.0000     -10.294569      -280.1295
  10   2.0000     -10.293056      -280.0883
  11   2.0000     -10.292540      -280.0742
  12   2.0000     -10.286167      -279.9008
  13   2.0000     -10.285820      -279.8914
  14   2.0000     -10.283482      -279.8278
  15   2.0000     -10.272871      -279.5390
  16   2.0000      -8.080054      -219.8695
  17   2.0000      -8.076681      -219.7777
  18   2.0000      -6.038309      -164.3107
  19   2.0000      -6.035218      -164.2266
  20   2.0000      -6.034773      -164.2145
  21   2.0000      -6.031141      -164.1157
  22   2.0000      -6.030878      -164.1085
  23   2.0000      -6.027507      -164.0168
  24   2.0000      -1.006145       -27.3786
  25   2.0000      -0.978829       -26.6353
  26   2.0000      -0.915056       -24.8999
  27   2.0000      -0.905615       -24.6430
  28   2.0000      -0.871102       -23.7039
  29   2.0000      -0.851915       -23.1818
  30   2.0000      -0.845187       -22.9987
  31   2.0000      -0.813896       -22.1472
  32   2.0000      -0.788295       -21.4506
  33   2.0000      -0.764299       -20.7976
  34   2.0000      -0.704009       -19.1571
  35   2.0000      -0.699386       -19.0313
  36   2.0000      -0.697282       -18.9740
  37   2.0000      -0.652895       -17.7662
  38   2.0000      -0.643111       -17.5000
  39   2.0000      -0.620937       -16.8966
  40   2.0000      -0.592908       -16.1338
  41   2.0000      -0.577549       -15.7159
  42   2.0000      -0.568097       -15.4587
  43   2.0000      -0.547455       -14.8970
  44   2.0000      -0.543650       -14.7935
  45   2.0000      -0.526680       -14.3317
  46   2.0000      -0.518102       -14.0983
  47   2.0000      -0.516056       -14.0426
  48   2.0000      -0.499817       -13.6007
  49   2.0000      -0.496623       -13.5138
  50   2.0000      -0.483162       -13.1475
  51   2.0000      -0.478852       -13.0302
  52   2.0000      -0.469663       -12.7802
  53   2.0000      -0.463922       -12.6240
  54   2.0000      -0.453323       -12.3355
  55   2.0000      -0.448481       -12.2038
  56   2.0000      -0.445162       -12.1135
  57   2.0000      -0.440571       -11.9886
  58   2.0000      -0.433411       -11.7937
  59   2.0000      -0.426322       -11.6008
  60   2.0000      -0.421967       -11.4823
  61   2.0000      -0.416428       -11.3316
  62   2.0000      -0.411382       -11.1943
  63   2.0000      -0.340972        -9.2783
  64   2.0000      -0.337299        -9.1784
  65   2.0000      -0.322365        -8.7720
  66   2.0000      -0.289145        -7.8680
  67   0.0000       0.034224         0.9313
  68   0.0000       0.053849         1.4653
  69   0.0000       0.107393         2.9223
  70   0.0000       0.119174         3.2429
  71   0.0000       0.129435         3.5221

MULLIKEN ATOMIC CHARGES
-----------------------
   0 S :    0.103437
   1 C :   -0.155932
   2 C :   -0.051359
   3 C :    0.022731
   4 C :   -0.163228
   5 H :    0.022181
   6 C :    0.110287
   7 H :    0.024191
   8 H :    0.020231
   9 C :   -0.098099
  10 H :    0.030449
  11 H :    0.025968
  12 C :   -0.044635
  13 H :    0.037098
  14 H :    0.031899
  15 H :    0.010755
  16 S :    0.103543
  17 C :   -0.088922
  18 C :   -0.057479
  19 C :   -0.018921
  20 C :   -0.146759
  21 H :    0.020242
  22 C :    0.015122
  23 H :    0.037988
  24 H :    0.041427
  25 C :   -0.046335
  26 H :    0.023569
  27 H :    0.031570
  28 C :   -0.072982
  29 H :    0.045088
  30 H :    0.033215
  31 H :    0.039284
  32 H :    0.054834
  33 H :    0.059544
Sum of atomic charges:    0.0000000

LOEWDIN ATOMIC CHARGES
----------------------
   0 S :    0.389349
   1 C :   -0.178186
   2 C :   -0.059087
   3 C :   -0.054363
   4 C :   -0.193897
   5 H :    0.035920
   6 C :   -0.033576
   7 H :    0.033554
   8 H :    0.032894
   9 C :   -0.037067
  10 H :    0.026955
  11 H :    0.021800
  12 C :   -0.065669
  13 H :    0.023322
  14 H :    0.023910
  15 H :    0.019196
  16 S :    0.399053
  17 C :   -0.185818
  18 C :   -0.074118
  19 C :   -0.050516
  20 C :   -0.213501
  21 H :    0.031461
  22 C :   -0.043799
  23 H :    0.038692
  24 H :    0.036460
  25 C :   -0.038972
  26 H :    0.015569
  27 H :    0.027241
  28 C :   -0.063941
  29 H :    0.028535
  30 H :    0.028543
  31 H :    0.024448
  32 H :    0.021860
  33 H :    0.033747

  Mayer bond orders larger than 0.100000
B(  0-S ,  1-C ) :   1.1514 B(  0-S ,  4-C ) :   1.1418 B(  1-C ,  2-C ) :   1.5967
B(  1-C ,  4-C ) :   0.1038 B(  1-C , 32-H ) :   0.9735 B(  2-C ,  3-C ) :   1.2364
B(  2-C ,  6-C ) :   1.0195 B(  3-C ,  4-C ) :   1.6004 B(  3-C ,  5-H ) :   0.9918
B(  4-C , 20-C ) :   1.0252 B(  6-C ,  7-H ) :   0.9416 B(  6-C ,  8-H ) :   0.9288
B(  6-C ,  9-C ) :   1.0866 B(  9-C , 10-H ) :   0.9554 B(  9-C , 11-H ) :   0.9550
B(  9-C , 12-C ) :   1.0821 B( 12-C , 13-H ) :   0.9763 B( 12-C , 14-H ) :   0.9732
B( 12-C , 15-H ) :   0.9704 B( 16-S , 17-C ) :   1.1554 B( 16-S , 20-C ) :   1.1331
B( 17-C , 18-C ) :   1.6211 B( 17-C , 33-H ) :   0.9608 B( 18-C , 19-C ) :   1.2291
B( 18-C , 21-H ) :   0.9911 B( 19-C , 20-C ) :   1.5906 B( 19-C , 22-C ) :   1.0420
B( 22-C , 23-H ) :   0.9197 B( 22-C , 24-H ) :   0.9378 B( 22-C , 25-C ) :   1.0632
B( 25-C , 26-H ) :   0.9602 B( 25-C , 27-H ) :   0.9469 B( 25-C , 28-C ) :   1.0881
B( 28-C , 29-H ) :   0.9771 B( 28-C , 30-H ) :   0.9735 B( 28-C , 31-H ) :   0.9755

Dispersion correction           -0.015138065
FINAL SINGLE POINT ENERGY     -1339.870610927717

DIPOLE MOMENT
-------------
                                X             Y             Z
Electronic contribution:    -17.01014      21.93318      14.91434
Nuclear contribution   :     17.57025     -22.58173     -15.18847
                        -----------------------------------------
Total Dipole Moment    :      0.56011      -0.64855      -0.27413
                        -----------------------------------------
Magnitude (a.u.)       :      0.89971
Magnitude (Debye)      :      2.28689

Rotational constants in cm-1:     0.016323     0.010355     0.007162
Rotational constants in MHz :   489.366068   310.436405   214.721648

                             ****ORCA TERMINATED NORMALLY****
TOTAL RUN TIME: 0 days 0 hours 0 minutes 31 seconds 714 msec
