                         Program Version 4.2.1 -  RELEASE  -
|  1> ! wB97X-D3 SP def2-SVP
|  2> %pal
|  3> nprocs 16
|  4> end
|  5>
|  6> * xyz 0 1
|  7> S 	 -101.248 	 57.7682 	 115.329
|  8> C 	 -99.8319 	 56.7161 	 115.282
|  9> C 	 -99.6525 	 55.9113 	 116.374
| 10> C 	 -100.778 	 56.0971 	 117.23
| 11> C 	 -101.738 	 56.9967 	 116.897
| 12> H 	 -101.086 	 55.6019 	 118.124
| 13> C 	 -98.5736 	 54.8746 	 116.671
| 14> H 	 -98.6147 	 54.6591 	 117.732
| 15> H 	 -97.5406 	 55.3287 	 116.534
| 16> C 	 -98.7812 	 53.5186 	 115.902
| 17> H 	 -99.7231 	 53.0737 	 116.065
| 18> H 	 -98.8004 	 53.6738 	 114.864
| 19> C 	 -97.8074 	 52.4742 	 116.21
| 20> H 	 -96.8634 	 52.7113 	 115.793
| 21> H 	 -97.6169 	 52.2637 	 117.261
| 22> H 	 -98.1246 	 51.5634 	 115.708
| 23> S 	 -104.578 	 56.9687 	 116.42
| 24> C 	 -105.59 	 56.877 	 117.799
| 25> C 	 -104.864 	 57.0676 	 118.956
| 26> C 	 -103.471 	 57.0584 	 118.807
| 27> C 	 -103.102 	 57.0666 	 117.486
| 28> H 	 -105.394 	 56.9553 	 119.848
| 29> C 	 -102.435 	 57.3103 	 119.939
| 30> H 	 -102.329 	 58.3991 	 120.067
| 31> H 	 -101.451 	 57.0266 	 119.57
| 32> C 	 -102.805 	 56.6363 	 121.303
| 33> H 	 -103.835 	 56.8643 	 121.594
| 34> H 	 -102.238 	 57.0818 	 122.058
| 35> C 	 -102.692 	 55.0954 	 121.359
| 36> H 	 -103.38 	 54.5734 	 120.69
| 37> H 	 -103.112 	 54.6734 	 122.307
| 38> H 	 -101.715 	 54.8207 	 121.137
| 39> H 	 -99.161 	 56.7463 	 114.467
| 40> H 	 -106.692 	 56.678 	 117.662
| 41> *
| 42>
| 43>                          ****END OF INPUT****

CARTESIAN COORDINATES (ANGSTROEM)
---------------------------------
  S    -101.248000   57.768200  115.329000
  C    -99.831900   56.716100  115.282000
  C    -99.652500   55.911300  116.374000
  C    -100.778000   56.097100  117.230000
  C    -101.738000   56.996700  116.897000
  H    -101.086000   55.601900  118.124000
  C    -98.573600   54.874600  116.671000
  H    -98.614700   54.659100  117.732000
  H    -97.540600   55.328700  116.534000
  C    -98.781200   53.518600  115.902000
  H    -99.723100   53.073700  116.065000
  H    -98.800400   53.673800  114.864000
  C    -97.807400   52.474200  116.210000
  H    -96.863400   52.711300  115.793000
  H    -97.616900   52.263700  117.261000
  H    -98.124600   51.563400  115.708000
  S    -104.578000   56.968700  116.420000
  C    -105.590000   56.877000  117.799000
  C    -104.864000   57.067600  118.956000
  C    -103.471000   57.058400  118.807000
  C    -103.102000   57.066600  117.486000
  H    -105.394000   56.955300  119.848000
  C    -102.435000   57.310300  119.939000
  H    -102.329000   58.399100  120.067000
  H    -101.451000   57.026600  119.570000
  C    -102.805000   56.636300  121.303000
  H    -103.835000   56.864300  121.594000
  H    -102.238000   57.081800  122.058000
  C    -102.692000   55.095400  121.359000
  H    -103.380000   54.573400  120.690000
  H    -103.112000   54.673400  122.307000
  H    -101.715000   54.820700  121.137000
  H    -99.161000   56.746300  114.467000
  H    -106.692000   56.678000  117.662000

 Total Charge           Charge          ....    0
 Multiplicity           Mult            ....    1
 Number of Electrons    NEL             ....  134
 Basis Dimension        Dim             ....  322

ORBITAL ENERGIES
----------------

  NO   OCC          E(Eh)            E(eV)
   0   2.0000     -88.963932     -2420.8317
   1   2.0000     -88.963677     -2420.8247
   2   2.0000     -10.330379      -281.1039
   3   2.0000     -10.329453      -281.0787
   4   2.0000     -10.320784      -280.8428
   5   2.0000     -10.313154      -280.6352
   6   2.0000     -10.303607      -280.3754
   7   2.0000     -10.302764      -280.3525
   8   2.0000     -10.302424      -280.3432
   9   2.0000     -10.298393      -280.2335
  10   2.0000     -10.287683      -279.9421
  11   2.0000     -10.287286      -279.9313
  12   2.0000     -10.286670      -279.9145
  13   2.0000     -10.277083      -279.6536
  14   2.0000     -10.276845      -279.6472
  15   2.0000     -10.269223      -279.4398
  16   2.0000      -8.078280      -219.8212
  17   2.0000      -8.077604      -219.8028
  18   2.0000      -6.036733      -164.2679
  19   2.0000      -6.036210      -164.2536
  20   2.0000      -6.032814      -164.1612
  21   2.0000      -6.032393      -164.1498
  22   2.0000      -6.029089      -164.0599
  23   2.0000      -6.028207      -164.0359
  24   2.0000      -1.002221       -27.2718
  25   2.0000      -0.983002       -26.7488
  26   2.0000      -0.913803       -24.8659
  27   2.0000      -0.904069       -24.6010
  28   2.0000      -0.872147       -23.7323
  29   2.0000      -0.854666       -23.2567
  30   2.0000      -0.845525       -23.0079
  31   2.0000      -0.813789       -22.1443
  32   2.0000      -0.786526       -21.4025
  33   2.0000      -0.774657       -21.0795
  34   2.0000      -0.708510       -19.2795
  35   2.0000      -0.707238       -19.2449
  36   2.0000      -0.695974       -18.9384
  37   2.0000      -0.655707       -17.8427
  38   2.0000      -0.646949       -17.6044
  39   2.0000      -0.615453       -16.7473
  40   2.0000      -0.599719       -16.3192
  41   2.0000      -0.571747       -15.5580
  42   2.0000      -0.560633       -15.2556
  43   2.0000      -0.551997       -15.0206
  44   2.0000      -0.538417       -14.6511
  45   2.0000      -0.532831       -14.4991
  46   2.0000      -0.524085       -14.2611
  47   2.0000      -0.509422       -13.8621
  48   2.0000      -0.503430       -13.6990
  49   2.0000      -0.492932       -13.4134
  50   2.0000      -0.491383       -13.3712
  51   2.0000      -0.479095       -13.0368
  52   2.0000      -0.470693       -12.8082
  53   2.0000      -0.465687       -12.6720
  54   2.0000      -0.456413       -12.4196
  55   2.0000      -0.450403       -12.2561
  56   2.0000      -0.448181       -12.1956
  57   2.0000      -0.436195       -11.8695
  58   2.0000      -0.433600       -11.7989
  59   2.0000      -0.429695       -11.6926
  60   2.0000      -0.420266       -11.4360
  61   2.0000      -0.417456       -11.3596
  62   2.0000      -0.411490       -11.1972
  63   2.0000      -0.353196        -9.6110
  64   2.0000      -0.334085        -9.0909
  65   2.0000      -0.329841        -8.9754
  66   2.0000      -0.288058        -7.8385
  67   0.0000       0.029174         0.7939
  68   0.0000       0.067498         1.8367
  69   0.0000       0.106333         2.8935
  70   0.0000       0.124480         3.3873
  71   0.0000       0.131950         3.5905

MULLIKEN ATOMIC CHARGES
-----------------------
   0 S :    0.088567
   1 C :   -0.122036
   2 C :   -0.035677
   3 C :    0.020854
   4 C :   -0.171226
   5 H :    0.000130
   6 C :    0.058401
   7 H :    0.017219
   8 H :    0.043108
   9 C :   -0.031254
  10 H :    0.013916
  11 H :    0.010015
  12 C :   -0.013090
  13 H :    0.010135
  14 H :    0.025816
  15 H :    0.027794
  16 S :    0.101519
  17 C :   -0.134039
  18 C :   -0.002288
  19 C :   -0.041935
  20 C :   -0.138203
  21 H :   -0.000762
  22 C :    0.061677
  23 H :    0.050678
  24 H :    0.011058
  25 C :   -0.046616
  26 H :    0.019103
  27 H :    0.015170
  28 C :   -0.041403
  29 H :    0.028336
  30 H :    0.033732
  31 H :    0.024713
  32 H :    0.030451
  33 H :    0.086137
Sum of atomic charges:    0.0000000

LOEWDIN ATOMIC CHARGES
----------------------
   0 S :    0.361033
   1 C :   -0.170560
   2 C :   -0.065403
   3 C :   -0.059947
   4 C :   -0.174403
   5 H :    0.025793
   6 C :   -0.027887
   7 H :    0.028735
   8 H :    0.039039
   9 C :   -0.036004
  10 H :    0.022838
  11 H :    0.020000
  12 C :   -0.059679
  13 H :    0.017227
  14 H :    0.023945
  15 H :    0.030475
  16 S :    0.389748
  17 C :   -0.193773
  18 C :   -0.076107
  19 C :   -0.058394
  20 C :   -0.174515
  21 H :    0.020343
  22 C :   -0.024088
  23 H :    0.041446
  24 H :    0.026030
  25 C :   -0.035681
  26 H :    0.022696
  27 H :    0.017192
  28 C :   -0.064679
  29 H :    0.027013
  30 H :    0.034140
  31 H :    0.012936
  32 H :    0.016955
  33 H :    0.043535

  Mayer bond orders larger than 0.100000
B(  0-S ,  1-C ) :   1.1428 B(  0-S ,  4-C ) :   1.1012 B(  1-C ,  2-C ) :   1.6288
B(  1-C , 32-H ) :   0.9700 B(  2-C ,  3-C ) :   1.2099 B(  2-C ,  6-C ) :   1.0212
B(  3-C ,  4-C ) :   1.6416 B(  3-C ,  5-H ) :   0.9769 B(  4-C , 20-C ) :   1.0361
B(  6-C ,  7-H ) :   0.9386 B(  6-C ,  8-H ) :   0.9423 B(  6-C ,  9-C ) :   1.0563
B(  9-C , 10-H ) :   0.9537 B(  9-C , 11-H ) :   0.9499 B(  9-C , 12-C ) :   1.1037
B( 12-C , 13-H ) :   0.9700 B( 12-C , 14-H ) :   0.9720 B( 12-C , 15-H ) :   0.9688
B( 16-S , 17-C ) :   1.1731 B( 16-S , 20-C ) :   1.1282 B( 17-C , 18-C ) :   1.5923
B( 17-C , 33-H ) :   0.9596 B( 18-C , 19-C ) :   1.2484 B( 18-C , 21-H ) :   0.9948
B( 19-C , 20-C ) :   1.6032 B( 19-C , 22-C ) :   1.0215 B( 22-C , 23-H ) :   0.9375
B( 22-C , 24-H ) :   0.9357 B( 22-C , 25-C ) :   1.0668 B( 25-C , 26-H ) :   0.9550
B( 25-C , 27-H ) :   0.9548 B( 25-C , 28-C ) :   1.0762 B( 28-C , 29-H ) :   0.9734
B( 28-C , 30-H ) :   0.9720 B( 28-C , 31-H ) :   0.9780

Dispersion correction           -0.013952591
FINAL SINGLE POINT ENERGY     -1339.864919058245

DIPOLE MOMENT
-------------
                                X             Y             Z
Electronic contribution:    -14.98408      18.53842     -16.74998
Nuclear contribution   :     15.19133     -19.05654      17.23476
                        -----------------------------------------
Total Dipole Moment    :      0.20726      -0.51812       0.48478
                        -----------------------------------------
Magnitude (a.u.)       :      0.73920
Magnitude (Debye)      :      1.87889

Rotational constants in cm-1:     0.017212     0.008453     0.006584
Rotational constants in MHz :   515.992116   253.428710   197.382610

                             ****ORCA TERMINATED NORMALLY****
TOTAL RUN TIME: 0 days 0 hours 0 minutes 34 seconds 241 msec
