                         Program Version 4.2.1 -  RELEASE  -
|  1> ! wB97X-D3 SP def2-SVP
|  2> %pal
|  3> nprocs 16
|  4> end
|  5>
|  6> * xyz 0 1
|  7> S 	 -51.8837 	 24.1422 	 93.1574
|  8> C 	 -50.5339 	 23.2728 	 92.4387
|  9> C 	 -50.8641 	 22.8631 	 91.1724
| 10> C 	 -52.1931 	 23.1955 	 90.7951
| 11> C 	 -52.9364 	 23.6755 	 91.8331
| 12> H 	 -52.6147 	 22.9667 	 89.7889
| 13> C 	 -49.7946 	 22.2669 	 90.1616
| 14> H 	 -49.0429 	 21.5662 	 90.6758
| 15> H 	 -49.1846 	 23.17 	 89.8477
| 16> C 	 -50.3313 	 21.6545 	 88.8643
| 17> H 	 -50.8948 	 20.7455 	 89.1049
| 18> H 	 -50.805 	 22.4575 	 88.2716
| 19> C 	 -49.1537 	 21.1781 	 87.9527
| 20> H 	 -49.5945 	 20.8898 	 86.952
| 21> H 	 -48.4378 	 22.0845 	 87.8423
| 22> H 	 -48.5026 	 20.4518 	 88.4043
| 23> S 	 -55.0522 	 25.4261 	 92.5277
| 24> C 	 -56.6617 	 24.8654 	 92.1795
| 25> C 	 -56.6902 	 23.6339 	 91.5983
| 26> C 	 -55.3982 	 23.1109 	 91.3372
| 27> C 	 -54.3801 	 23.9345 	 91.8971
| 28> H 	 -57.6558 	 23.2074 	 91.3499
| 29> C 	 -55.087 	 21.7439 	 90.6857
| 30> H 	 -54.2657 	 21.3377 	 91.2464
| 31> H 	 -54.7684 	 21.8143 	 89.641
| 32> C 	 -56.2472 	 20.7524 	 90.6189
| 33> H 	 -56.9053 	 21.0987 	 89.8038
| 34> H 	 -56.9234 	 20.9469 	 91.4361
| 35> C 	 -55.7885 	 19.2962 	 90.5355
| 36> H 	 -56.5391 	 18.5303 	 90.3952
| 37> H 	 -55.2062 	 19.0843 	 91.4674
| 38> H 	 -55.0337 	 19.1509 	 89.755
| 39> H 	 -49.5778 	 23.2222 	 92.9282
| 40> H 	 -57.5684 	 25.2859 	 92.5378
| 41> *
| 42>
| 43>                          ****END OF INPUT****

CARTESIAN COORDINATES (ANGSTROEM)
---------------------------------
  S    -51.883700   24.142200   93.157400
  C    -50.533900   23.272800   92.438700
  C    -50.864100   22.863100   91.172400
  C    -52.193100   23.195500   90.795100
  C    -52.936400   23.675500   91.833100
  H    -52.614700   22.966700   89.788900
  C    -49.794600   22.266900   90.161600
  H    -49.042900   21.566200   90.675800
  H    -49.184600   23.170000   89.847700
  C    -50.331300   21.654500   88.864300
  H    -50.894800   20.745500   89.104900
  H    -50.805000   22.457500   88.271600
  C    -49.153700   21.178100   87.952700
  H    -49.594500   20.889800   86.952000
  H    -48.437800   22.084500   87.842300
  H    -48.502600   20.451800   88.404300
  S    -55.052200   25.426100   92.527700
  C    -56.661700   24.865400   92.179500
  C    -56.690200   23.633900   91.598300
  C    -55.398200   23.110900   91.337200
  C    -54.380100   23.934500   91.897100
  H    -57.655800   23.207400   91.349900
  C    -55.087000   21.743900   90.685700
  H    -54.265700   21.337700   91.246400
  H    -54.768400   21.814300   89.641000
  C    -56.247200   20.752400   90.618900
  H    -56.905300   21.098700   89.803800
  H    -56.923400   20.946900   91.436100
  C    -55.788500   19.296200   90.535500
  H    -56.539100   18.530300   90.395200
  H    -55.206200   19.084300   91.467400
  H    -55.033700   19.150900   89.755000
  H    -49.577800   23.222200   92.928200
  H    -57.568400   25.285900   92.537800

 Total Charge           Charge          ....    0
 Multiplicity           Mult            ....    1
 Number of Electrons    NEL             ....  134
 Basis Dimension        Dim             ....  322

ORBITAL ENERGIES
----------------

  NO   OCC          E(Eh)            E(eV)
   0   2.0000     -88.969807     -2420.9915
   1   2.0000     -88.962343     -2420.7884
   2   2.0000     -10.329561      -281.0816
   3   2.0000     -10.329422      -281.0779
   4   2.0000     -10.312376      -280.6140
   5   2.0000     -10.311714      -280.5960
   6   2.0000     -10.307956      -280.4938
   7   2.0000     -10.307354      -280.4774
   8   2.0000     -10.304395      -280.3968
   9   2.0000     -10.295570      -280.1567
  10   2.0000     -10.294834      -280.1367
  11   2.0000     -10.292498      -280.0731
  12   2.0000     -10.291572      -280.0479
  13   2.0000     -10.290133      -280.0088
  14   2.0000     -10.284694      -279.8608
  15   2.0000     -10.283234      -279.8210
  16   2.0000      -8.084354      -219.9865
  17   2.0000      -8.077324      -219.7952
  18   2.0000      -6.042873      -164.4349
  19   2.0000      -6.038892      -164.3266
  20   2.0000      -6.035825      -164.2431
  21   2.0000      -6.035140      -164.2245
  22   2.0000      -6.031961      -164.1380
  23   2.0000      -6.027923      -164.0281
  24   2.0000      -1.006881       -27.3986
  25   2.0000      -0.985741       -26.8234
  26   2.0000      -0.909558       -24.7503
  27   2.0000      -0.905874       -24.6501
  28   2.0000      -0.870497       -23.6874
  29   2.0000      -0.850983       -23.1564
  30   2.0000      -0.841482       -22.8979
  31   2.0000      -0.815441       -22.1893
  32   2.0000      -0.779893       -21.2220
  33   2.0000      -0.767275       -20.8786
  34   2.0000      -0.708593       -19.2818
  35   2.0000      -0.705269       -19.1914
  36   2.0000      -0.685485       -18.6530
  37   2.0000      -0.647195       -17.6111
  38   2.0000      -0.638963       -17.3871
  39   2.0000      -0.622705       -16.9447
  40   2.0000      -0.600604       -16.3433
  41   2.0000      -0.576300       -15.6819
  42   2.0000      -0.566086       -15.4040
  43   2.0000      -0.562143       -15.2967
  44   2.0000      -0.527993       -14.3674
  45   2.0000      -0.522215       -14.2102
  46   2.0000      -0.512973       -13.9587
  47   2.0000      -0.507550       -13.8111
  48   2.0000      -0.500614       -13.6224
  49   2.0000      -0.492677       -13.4064
  50   2.0000      -0.488083       -13.2814
  51   2.0000      -0.477004       -12.9799
  52   2.0000      -0.473196       -12.8763
  53   2.0000      -0.471707       -12.8358
  54   2.0000      -0.456451       -12.4207
  55   2.0000      -0.453471       -12.3396
  56   2.0000      -0.448717       -12.2102
  57   2.0000      -0.436141       -11.8680
  58   2.0000      -0.430474       -11.7138
  59   2.0000      -0.427305       -11.6276
  60   2.0000      -0.425744       -11.5851
  61   2.0000      -0.411219       -11.1898
  62   2.0000      -0.410157       -11.1609
  63   2.0000      -0.350880        -9.5479
  64   2.0000      -0.334442        -9.1006
  65   2.0000      -0.329594        -8.9687
  66   2.0000      -0.287176        -7.8145
  67   0.0000       0.023003         0.6260
  68   0.0000       0.075226         2.0470
  69   0.0000       0.108554         2.9539
  70   0.0000       0.128119         3.4863
  71   0.0000       0.129725         3.5300

MULLIKEN ATOMIC CHARGES
-----------------------
   0 S :    0.093302
   1 C :   -0.123054
   2 C :   -0.055922
   3 C :    0.001758
   4 C :   -0.152638
   5 H :    0.033705
   6 C :   -0.022795
   7 H :    0.043792
   8 H :    0.047944
   9 C :   -0.087965
  10 H :    0.047059
  11 H :    0.050157
  12 C :   -0.078823
  13 H :    0.055369
  14 H :    0.028147
  15 H :    0.032799
  16 S :    0.118492
  17 C :   -0.065296
  18 C :   -0.054161
  19 C :   -0.041851
  20 C :   -0.134089
  21 H :    0.019803
  22 C :    0.039537
  23 H :    0.039929
  24 H :    0.041687
  25 C :   -0.072558
  26 H :    0.022775
  27 H :    0.019515
  28 C :   -0.037948
  29 H :    0.039751
  30 H :    0.037617
  31 H :    0.025100
  32 H :    0.046954
  33 H :    0.041908
Sum of atomic charges:    0.0000000

LOEWDIN ATOMIC CHARGES
----------------------
   0 S :    0.391819
   1 C :   -0.189789
   2 C :   -0.066575
   3 C :   -0.069892
   4 C :   -0.184983
   5 H :    0.039383
   6 C :   -0.042790
   7 H :    0.035748
   8 H :    0.037753
   9 C :   -0.051232
  10 H :    0.027870
  11 H :    0.031667
  12 C :   -0.071570
  13 H :    0.034348
  14 H :    0.029926
  15 H :    0.018593
  16 S :    0.411631
  17 C :   -0.185183
  18 C :   -0.074649
  19 C :   -0.048238
  20 C :   -0.202071
  21 H :    0.033928
  22 C :   -0.030996
  23 H :    0.030061
  24 H :    0.032349
  25 C :   -0.049324
  26 H :    0.023272
  27 H :    0.017853
  28 C :   -0.064547
  29 H :    0.025851
  30 H :    0.033604
  31 H :    0.024815
  32 H :    0.026436
  33 H :    0.024930

  Mayer bond orders larger than 0.100000
B(  0-S ,  1-C ) :   1.1309 B(  0-S ,  4-C ) :   1.1511 B(  1-C ,  2-C ) :   1.6183
B(  1-C , 32-H ) :   0.9789 B(  2-C ,  3-C ) :   1.2523 B(  2-C ,  6-C ) :   0.9899
B(  3-C ,  4-C ) :   1.5590 B(  3-C ,  5-H ) :   0.9805 B(  4-C , 20-C ) :   1.0555
B(  6-C ,  7-H ) :   0.9528 B(  6-C ,  8-H ) :   0.9409 B(  6-C ,  9-C ) :   1.0821
B(  9-C , 10-H ) :   0.9565 B(  9-C , 11-H ) :   0.9427 B(  9-C , 12-C ) :   1.0777
B( 12-C , 13-H ) :   0.9737 B( 12-C , 14-H ) :   0.9727 B( 12-C , 15-H ) :   0.9762
B( 16-S , 17-C ) :   1.1528 B( 16-S , 20-C ) :   1.1478 B( 17-C , 18-C ) :   1.6179
B( 17-C , 20-C ) :   0.1002 B( 17-C , 33-H ) :   0.9600 B( 18-C , 19-C ) :   1.2598
B( 18-C , 21-H ) :   0.9872 B( 19-C , 20-C ) :   1.5701 B( 19-C , 22-C ) :   1.0271
B( 22-C , 23-H ) :   0.9414 B( 22-C , 24-H ) :   0.9259 B( 22-C , 25-C ) :   1.0685
B( 25-C , 26-H ) :   0.9477 B( 25-C , 27-H ) :   0.9565 B( 25-C , 28-C ) :   1.0736
B( 28-C , 29-H ) :   0.9744 B( 28-C , 30-H ) :   0.9734 B( 28-C , 31-H ) :   0.9747

Dispersion correction           -0.013564702
FINAL SINGLE POINT ENERGY     -1339.878443828568

DIPOLE MOMENT
-------------
                                X             Y             Z
Electronic contribution:     -5.69429      24.62428      20.40138
Nuclear contribution   :      5.73798     -25.12126     -20.89589
                        -----------------------------------------
Total Dipole Moment    :      0.04369      -0.49698      -0.49452
                        -----------------------------------------
Magnitude (a.u.)       :      0.70246
Magnitude (Debye)      :      1.78550

Rotational constants in cm-1:     0.016079     0.009053     0.006428
Rotational constants in MHz :   482.035684   271.406123   192.713632

                             ****ORCA TERMINATED NORMALLY****
TOTAL RUN TIME: 0 days 0 hours 0 minutes 29 seconds 311 msec
