                         Program Version 4.2.1 -  RELEASE  -
|  1> ! wB97X-D3 SP def2-SVP
|  2> %pal
|  3> nprocs 16
|  4> end
|  5>
|  6> * xyz 0 1
|  7> S 	 -43.3289 	 16.8265 	 82.4195
|  8> C 	 -41.611 	 16.7227 	 82.3983
|  9> C 	 -40.9737 	 17.6203 	 83.2228
| 10> C 	 -41.9402 	 18.3086 	 84.0042
| 11> C 	 -43.2508 	 17.9272 	 83.7545
| 12> H 	 -41.736 	 18.9556 	 84.8476
| 13> C 	 -39.4663 	 17.7811 	 83.4065
| 14> H 	 -39.2068 	 17.1013 	 84.2617
| 15> H 	 -39.3569 	 18.9003 	 83.5713
| 16> C 	 -38.6402 	 17.3773 	 82.1946
| 17> H 	 -37.5903 	 17.2845 	 82.4368
| 18> H 	 -38.7271 	 16.3848 	 81.8911
| 19> C 	 -38.8118 	 18.3635 	 81.0154
| 20> H 	 -39.83 	 18.3019 	 80.6546
| 21> H 	 -38.6229 	 19.366 	 81.4522
| 22> H 	 -38.1181 	 18.1967 	 80.2529
| 23> S 	 -45.601 	 19.3989 	 83.2835
| 24> C 	 -46.6335 	 19.7314 	 84.6107
| 25> C 	 -46.1323 	 19.2537 	 85.8025
| 26> C 	 -44.8964 	 18.4814 	 85.6708
| 27> C 	 -44.4774 	 18.4453 	 84.327
| 28> H 	 -46.7478 	 19.4111 	 86.6568
| 29> C 	 -44.2433 	 17.8992 	 86.9141
| 30> H 	 -43.6023 	 17.0218 	 86.703
| 31> H 	 -45.0789 	 17.5706 	 87.582
| 32> C 	 -43.3824 	 18.9302 	 87.6672
| 33> H 	 -42.5516 	 19.1052 	 87.0338
| 34> H 	 -43.0092 	 18.2952 	 88.5542
| 35> C 	 -44.0943 	 20.2206 	 88.194
| 36> H 	 -43.5201 	 20.87 	 88.8696
| 37> H 	 -44.9817 	 19.9669 	 88.7606
| 38> H 	 -44.3625 	 20.8481 	 87.2949
| 39> H 	 -41.0373 	 16.13 	 81.784
| 40> H 	 -47.5658 	 20.2965 	 84.6502
| 41> *
| 42>
| 43>                          ****END OF INPUT****

CARTESIAN COORDINATES (ANGSTROEM)
---------------------------------
  S    -43.328900   16.826500   82.419500
  C    -41.611000   16.722700   82.398300
  C    -40.973700   17.620300   83.222800
  C    -41.940200   18.308600   84.004200
  C    -43.250800   17.927200   83.754500
  H    -41.736000   18.955600   84.847600
  C    -39.466300   17.781100   83.406500
  H    -39.206800   17.101300   84.261700
  H    -39.356900   18.900300   83.571300
  C    -38.640200   17.377300   82.194600
  H    -37.590300   17.284500   82.436800
  H    -38.727100   16.384800   81.891100
  C    -38.811800   18.363500   81.015400
  H    -39.830000   18.301900   80.654600
  H    -38.622900   19.366000   81.452200
  H    -38.118100   18.196700   80.252900
  S    -45.601000   19.398900   83.283500
  C    -46.633500   19.731400   84.610700
  C    -46.132300   19.253700   85.802500
  C    -44.896400   18.481400   85.670800
  C    -44.477400   18.445300   84.327000
  H    -46.747800   19.411100   86.656800
  C    -44.243300   17.899200   86.914100
  H    -43.602300   17.021800   86.703000
  H    -45.078900   17.570600   87.582000
  C    -43.382400   18.930200   87.667200
  H    -42.551600   19.105200   87.033800
  H    -43.009200   18.295200   88.554200
  C    -44.094300   20.220600   88.194000
  H    -43.520100   20.870000   88.869600
  H    -44.981700   19.966900   88.760600
  H    -44.362500   20.848100   87.294900
  H    -41.037300   16.130000   81.784000
  H    -47.565800   20.296500   84.650200

 Total Charge           Charge          ....    0
 Multiplicity           Mult            ....    1
 Number of Electrons    NEL             ....  134
 Basis Dimension        Dim             ....  322

ORBITAL ENERGIES
----------------

  NO   OCC          E(Eh)            E(eV)
   0   2.0000     -88.966024     -2420.8886
   1   2.0000     -88.964607     -2420.8500
   2   2.0000     -10.329030      -281.0672
   3   2.0000     -10.325099      -280.9602
   4   2.0000     -10.313348      -280.6405
   5   2.0000     -10.308353      -280.5045
   6   2.0000     -10.304370      -280.3962
   7   2.0000     -10.302845      -280.3547
   8   2.0000     -10.297595      -280.2118
   9   2.0000     -10.297539      -280.2103
  10   2.0000     -10.293365      -280.0967
  11   2.0000     -10.293005      -280.0869
  12   2.0000     -10.289628      -279.9950
  13   2.0000     -10.284731      -279.8618
  14   2.0000     -10.281412      -279.7714
  15   2.0000     -10.273877      -279.5664
  16   2.0000      -8.081555      -219.9103
  17   2.0000      -8.079055      -219.8423
  18   2.0000      -6.039878      -164.3534
  19   2.0000      -6.037646      -164.2927
  20   2.0000      -6.035972      -164.2471
  21   2.0000      -6.033603      -164.1827
  22   2.0000      -6.032457      -164.1515
  23   2.0000      -6.029732      -164.0774
  24   2.0000      -1.006867       -27.3983
  25   2.0000      -0.981511       -26.7083
  26   2.0000      -0.915902       -24.9230
  27   2.0000      -0.906188       -24.6586
  28   2.0000      -0.867463       -23.6049
  29   2.0000      -0.851785       -23.1782
  30   2.0000      -0.838611       -22.8198
  31   2.0000      -0.810680       -22.0597
  32   2.0000      -0.785806       -21.3829
  33   2.0000      -0.774853       -21.0848
  34   2.0000      -0.715161       -19.4605
  35   2.0000      -0.708667       -19.2838
  36   2.0000      -0.686263       -18.6742
  37   2.0000      -0.655590       -17.8395
  38   2.0000      -0.640299       -17.4234
  39   2.0000      -0.611334       -16.6352
  40   2.0000      -0.590185       -16.0597
  41   2.0000      -0.574860       -15.6427
  42   2.0000      -0.564465       -15.3599
  43   2.0000      -0.553513       -15.0619
  44   2.0000      -0.538841       -14.6626
  45   2.0000      -0.533089       -14.5061
  46   2.0000      -0.512165       -13.9367
  47   2.0000      -0.509440       -13.8626
  48   2.0000      -0.498719       -13.5708
  49   2.0000      -0.497654       -13.5418
  50   2.0000      -0.485843       -13.2205
  51   2.0000      -0.476059       -12.9542
  52   2.0000      -0.474846       -12.9212
  53   2.0000      -0.468484       -12.7481
  54   2.0000      -0.457987       -12.4624
  55   2.0000      -0.444724       -12.1016
  56   2.0000      -0.443096       -12.0573
  57   2.0000      -0.439842       -11.9687
  58   2.0000      -0.438312       -11.9271
  59   2.0000      -0.434474       -11.8226
  60   2.0000      -0.423698       -11.5294
  61   2.0000      -0.412883       -11.2351
  62   2.0000      -0.408629       -11.1193
  63   2.0000      -0.340072        -9.2538
  64   2.0000      -0.331938        -9.0325
  65   2.0000      -0.325940        -8.8693
  66   2.0000      -0.294609        -8.0167
  67   0.0000       0.036192         0.9848
  68   0.0000       0.066097         1.7986
  69   0.0000       0.118960         3.2371
  70   0.0000       0.121813         3.3147
  71   0.0000       0.127421         3.4673

MULLIKEN ATOMIC CHARGES
-----------------------
   0 S :    0.128048
   1 C :   -0.070331
   2 C :   -0.120765
   3 C :    0.038704
   4 C :   -0.183966
   5 H :    0.003861
   6 C :    0.058027
   7 H :    0.060686
   8 H :    0.046597
   9 C :   -0.068414
  10 H :    0.012223
  11 H :    0.004169
  12 C :   -0.025400
  13 H :    0.041849
  14 H :    0.026553
  15 H :    0.025560
  16 S :    0.112384
  17 C :   -0.085118
  18 C :   -0.052800
  19 C :   -0.020166
  20 C :   -0.163594
  21 H :    0.007711
  22 C :    0.051704
  23 H :    0.040651
  24 H :    0.031743
  25 C :   -0.072767
  26 H :    0.015813
  27 H :    0.038015
  28 C :   -0.067295
  29 H :    0.040346
  30 H :    0.027887
  31 H :    0.058055
  32 H :    0.002444
  33 H :    0.057583
Sum of atomic charges:   -0.0000000

LOEWDIN ATOMIC CHARGES
----------------------
   0 S :    0.430531
   1 C :   -0.194783
   2 C :   -0.067701
   3 C :   -0.058802
   4 C :   -0.204320
   5 H :    0.027946
   6 C :   -0.029962
   7 H :    0.045627
   8 H :    0.041693
   9 C :   -0.049915
  10 H :    0.025855
  11 H :    0.013131
  12 C :   -0.052937
  13 H :    0.025376
  14 H :    0.028619
  15 H :    0.017291
  16 S :    0.394963
  17 C :   -0.200136
  18 C :   -0.074735
  19 C :   -0.048219
  20 C :   -0.194978
  21 H :    0.024818
  22 C :   -0.034717
  23 H :    0.036946
  24 H :    0.034175
  25 C :   -0.037507
  26 H :    0.012881
  27 H :    0.031925
  28 C :   -0.073635
  29 H :    0.028570
  30 H :    0.022224
  31 H :    0.036102
  32 H :    0.007220
  33 H :    0.036453

  Mayer bond orders larger than 0.100000
B(  0-S ,  1-C ) :   1.1487 B(  0-S ,  4-C ) :   1.1596 B(  1-C ,  2-C ) :   1.6155
B(  1-C , 32-H ) :   0.9673 B(  2-C ,  3-C ) :   1.2547 B(  2-C ,  6-C ) :   0.9917
B(  3-C ,  4-C ) :   1.5728 B(  3-C ,  5-H ) :   0.9950 B(  4-C , 20-C ) :   1.0374
B(  6-C ,  7-H ) :   0.9340 B(  6-C ,  8-H ) :   0.9468 B(  6-C ,  9-C ) :   1.0897
B(  9-C , 10-H ) :   0.9460 B(  9-C , 11-H ) :   0.9434 B(  9-C , 12-C ) :   1.0710
B( 12-C , 13-H ) :   0.9776 B( 12-C , 14-H ) :   0.9749 B( 12-C , 15-H ) :   0.9756
B( 16-S , 17-C ) :   1.1467 B( 16-S , 20-C ) :   1.1260 B( 17-C , 18-C ) :   1.6492
B( 17-C , 33-H ) :   0.9597 B( 18-C , 19-C ) :   1.2068 B( 18-C , 21-H ) :   0.9880
B( 19-C , 20-C ) :   1.6108 B( 19-C , 22-C ) :   1.0446 B( 22-C , 23-H ) :   0.9341
B( 22-C , 24-H ) :   0.9351 B( 22-C , 25-C ) :   1.0725 B( 25-C , 26-H ) :   0.9561
B( 25-C , 27-H ) :   0.9539 B( 25-C , 28-C ) :   1.0709 B( 28-C , 29-H ) :   0.9748
B( 28-C , 30-H ) :   0.9739 B( 28-C , 31-H ) :   0.9681

Dispersion correction           -0.014852242
FINAL SINGLE POINT ENERGY     -1339.878731766017

DIPOLE MOMENT
-------------
                                X             Y             Z
Electronic contribution:    -19.12926      -4.09635     -12.02088
Nuclear contribution   :     19.59217       4.13140      12.49828
                        -----------------------------------------
Total Dipole Moment    :      0.46291       0.03505       0.47740
                        -----------------------------------------
Magnitude (a.u.)       :      0.66590
Magnitude (Debye)      :      1.69258

Rotational constants in cm-1:     0.022262     0.007901     0.006550
Rotational constants in MHz :   667.396956   236.855922   196.374822

                             ****ORCA TERMINATED NORMALLY****
TOTAL RUN TIME: 0 days 0 hours 0 minutes 31 seconds 21 msec
