                         Program Version 4.2.1 -  RELEASE  -
|  1> ! wB97X-D3 SP def2-SVP
|  2> %pal
|  3> nprocs 16
|  4> end
|  5>
|  6> * xyz 0 1
|  7> S 	 -2.13735 	 -10.4683 	 65.2179
|  8> C 	 -3.23894 	 -10.0351 	 66.5262
|  9> C 	 -3.21 	 -10.9125 	 67.5665
| 10> C 	 -2.51023 	 -12.0892 	 67.23
| 11> C 	 -1.83551 	 -12.0306 	 65.9985
| 12> H 	 -2.3976 	 -12.9947 	 67.7441
| 13> C 	 -4.00671 	 -10.7763 	 68.797
| 14> H 	 -5.0637 	 -10.9596 	 68.4761
| 15> H 	 -4.09465 	 -9.76419 	 69.1346
| 16> C 	 -3.69875 	 -11.6751 	 70.0146
| 17> H 	 -2.70258 	 -11.9349 	 69.8967
| 18> H 	 -3.88363 	 -11.1769 	 71.0078
| 19> C 	 -4.52514 	 -12.9153 	 69.9231
| 20> H 	 -5.48328 	 -12.754 	 70.4031
| 21> H 	 -4.69297 	 -13.4189 	 68.9383
| 22> H 	 -4.03817 	 -13.7324 	 70.5279
| 23> S 	 0.587442 	 -12.5242 	 64.9396
| 24> C 	 1.07645 	 -14.1069 	 64.3203
| 25> C 	 0.00976083 	 -15.0104 	 64.4506
| 26> C 	 -1.13574 	 -14.3523 	 65.0354
| 27> C 	 -1.00906 	 -13.0213 	 65.3282
| 28> H 	 0.113091 	 -16.0677 	 64.0527
| 29> C 	 -2.42965 	 -15.166 	 65.1015
| 30> H 	 -2.65024 	 -15.4162 	 64.0566
| 31> H 	 -3.24373 	 -14.521 	 65.4221
| 32> C 	 -2.49028 	 -16.4179 	 65.8939
| 33> H 	 -1.88918 	 -17.246 	 65.4972
| 34> H 	 -3.4809 	 -16.7276 	 65.7431
| 35> C 	 -2.35308 	 -16.3949 	 67.3981
| 36> H 	 -1.38495 	 -16.2183 	 67.7774
| 37> H 	 -2.83845 	 -17.2694 	 67.8222
| 38> H 	 -2.94089 	 -15.5826 	 67.8357
| 39> H 	 -3.94693 	 -9.26087 	 66.4224
| 40> H 	 2.05527 	 -14.3576 	 63.9333
| 41> *
| 42>
| 43>                          ****END OF INPUT****

CARTESIAN COORDINATES (ANGSTROEM)
---------------------------------
  S     -2.137350  -10.468300   65.217900
  C     -3.238940  -10.035100   66.526200
  C     -3.210000  -10.912500   67.566500
  C     -2.510230  -12.089200   67.230000
  C     -1.835510  -12.030600   65.998500
  H     -2.397600  -12.994700   67.744100
  C     -4.006710  -10.776300   68.797000
  H     -5.063700  -10.959600   68.476100
  H     -4.094650   -9.764190   69.134600
  C     -3.698750  -11.675100   70.014600
  H     -2.702580  -11.934900   69.896700
  H     -3.883630  -11.176900   71.007800
  C     -4.525140  -12.915300   69.923100
  H     -5.483280  -12.754000   70.403100
  H     -4.692970  -13.418900   68.938300
  H     -4.038170  -13.732400   70.527900
  S      0.587442  -12.524200   64.939600
  C      1.076450  -14.106900   64.320300
  C      0.009761  -15.010400   64.450600
  C     -1.135740  -14.352300   65.035400
  C     -1.009060  -13.021300   65.328200
  H      0.113091  -16.067700   64.052700
  C     -2.429650  -15.166000   65.101500
  H     -2.650240  -15.416200   64.056600
  H     -3.243730  -14.521000   65.422100
  C     -2.490280  -16.417900   65.893900
  H     -1.889180  -17.246000   65.497200
  H     -3.480900  -16.727600   65.743100
  C     -2.353080  -16.394900   67.398100
  H     -1.384950  -16.218300   67.777400
  H     -2.838450  -17.269400   67.822200
  H     -2.940890  -15.582600   67.835700
  H     -3.946930   -9.260870   66.422400
  H      2.055270  -14.357600   63.933300

 Total Charge           Charge          ....    0
 Multiplicity           Mult            ....    1
 Number of Electrons    NEL             ....  134
 Basis Dimension        Dim             ....  322

ORBITAL ENERGIES
----------------

  NO   OCC          E(Eh)            E(eV)
   0   2.0000     -88.966175     -2420.8927
   1   2.0000     -88.961236     -2420.7583
   2   2.0000     -10.333410      -281.1864
   3   2.0000     -10.323476      -280.9161
   4   2.0000     -10.321491      -280.8620
   5   2.0000     -10.309129      -280.5257
   6   2.0000     -10.302334      -280.3408
   7   2.0000     -10.301336      -280.3136
   8   2.0000     -10.300042      -280.2784
   9   2.0000     -10.293869      -280.1104
  10   2.0000     -10.288653      -279.9685
  11   2.0000     -10.286268      -279.9036
  12   2.0000     -10.285335      -279.8782
  13   2.0000     -10.281258      -279.7673
  14   2.0000     -10.276851      -279.6473
  15   2.0000     -10.271205      -279.4937
  16   2.0000      -8.080463      -219.8806
  17   2.0000      -8.076508      -219.7730
  18   2.0000      -6.038898      -164.3268
  19   2.0000      -6.035070      -164.2226
  20   2.0000      -6.035035      -164.2217
  21   2.0000      -6.031290      -164.1198
  22   2.0000      -6.030811      -164.1067
  23   2.0000      -6.027320      -164.0117
  24   2.0000      -1.007875       -27.4257
  25   2.0000      -0.985513       -26.8172
  26   2.0000      -0.920118       -25.0377
  27   2.0000      -0.914183       -24.8762
  28   2.0000      -0.873904       -23.7801
  29   2.0000      -0.850386       -23.1402
  30   2.0000      -0.846147       -23.0248
  31   2.0000      -0.819489       -22.2994
  32   2.0000      -0.785099       -21.3636
  33   2.0000      -0.775669       -21.1070
  34   2.0000      -0.713511       -19.4156
  35   2.0000      -0.698086       -18.9959
  36   2.0000      -0.692638       -18.8476
  37   2.0000      -0.660184       -17.9645
  38   2.0000      -0.649160       -17.6645
  39   2.0000      -0.627877       -17.0854
  40   2.0000      -0.596335       -16.2271
  41   2.0000      -0.570751       -15.5309
  42   2.0000      -0.554143       -15.0790
  43   2.0000      -0.551491       -15.0068
  44   2.0000      -0.546549       -14.8724
  45   2.0000      -0.542388       -14.7591
  46   2.0000      -0.521044       -14.1783
  47   2.0000      -0.513556       -13.9746
  48   2.0000      -0.508089       -13.8258
  49   2.0000      -0.500562       -13.6210
  50   2.0000      -0.494941       -13.4680
  51   2.0000      -0.489309       -13.3148
  52   2.0000      -0.472147       -12.8478
  53   2.0000      -0.461185       -12.5495
  54   2.0000      -0.459444       -12.5021
  55   2.0000      -0.447660       -12.1815
  56   2.0000      -0.439986       -11.9726
  57   2.0000      -0.438596       -11.9348
  58   2.0000      -0.435797       -11.8586
  59   2.0000      -0.428252       -11.6533
  60   2.0000      -0.417736       -11.3672
  61   2.0000      -0.412206       -11.2167
  62   2.0000      -0.404567       -11.0088
  63   2.0000      -0.346124        -9.4185
  64   2.0000      -0.332547        -9.0491
  65   2.0000      -0.325430        -8.8554
  66   2.0000      -0.290416        -7.9026
  67   0.0000       0.031781         0.8648
  68   0.0000       0.062635         1.7044
  69   0.0000       0.112520         3.0618
  70   0.0000       0.118621         3.2278
  71   0.0000       0.122226         3.3259

MULLIKEN ATOMIC CHARGES
-----------------------
   0 S :    0.110920
   1 C :   -0.120152
   2 C :   -0.019748
   3 C :    0.042475
   4 C :   -0.167189
   5 H :   -0.020310
   6 C :    0.029150
   7 H :    0.038143
   8 H :    0.017502
   9 C :   -0.021240
  10 H :    0.020320
  11 H :    0.047410
  12 C :   -0.106584
  13 H :    0.034403
  14 H :    0.048939
  15 H :    0.030288
  16 S :    0.094690
  17 C :   -0.099794
  18 C :   -0.057793
  19 C :   -0.042162
  20 C :   -0.131686
  21 H :    0.051860
  22 C :    0.054984
  23 H :    0.033724
  24 H :    0.013528
  25 C :   -0.046167
  26 H :    0.021324
  27 H :    0.008165
  28 C :   -0.025713
  29 H :    0.032305
  30 H :    0.029250
  31 H :    0.006508
  32 H :    0.032999
  33 H :    0.059650
Sum of atomic charges:   -0.0000000

LOEWDIN ATOMIC CHARGES
----------------------
   0 S :    0.394659
   1 C :   -0.180380
   2 C :   -0.060864
   3 C :   -0.055931
   4 C :   -0.182131
   5 H :    0.022109
   6 C :   -0.036688
   7 H :    0.040987
   8 H :    0.028014
   9 C :   -0.037034
  10 H :    0.015183
  11 H :    0.039057
  12 C :   -0.077414
  13 H :    0.024332
  14 H :    0.027692
  15 H :    0.028374
  16 S :    0.410872
  17 C :   -0.179605
  18 C :   -0.077794
  19 C :   -0.066329
  20 C :   -0.216724
  21 H :    0.046266
  22 C :   -0.032330
  23 H :    0.038601
  24 H :    0.027393
  25 C :   -0.045193
  26 H :    0.022599
  27 H :    0.024101
  28 C :   -0.061739
  29 H :    0.018884
  30 H :    0.030472
  31 H :    0.021876
  32 H :    0.019401
  33 H :    0.029285

  Mayer bond orders larger than 0.100000
B(  0-S ,  1-C ) :   1.1383 B(  0-S ,  4-C ) :   1.1541 B(  1-C ,  2-C ) :   1.6057
B(  1-C ,  4-C ) :   0.1093 B(  1-C , 32-H ) :   0.9786 B(  2-C ,  3-C ) :   1.2175
B(  2-C ,  6-C ) :   1.0319 B(  3-C ,  4-C ) :   1.5824 B(  3-C ,  5-H ) :   1.0030
B(  4-C , 20-C ) :   1.0102 B(  6-C ,  7-H ) :   0.9326 B(  6-C ,  8-H ) :   0.9348
B(  6-C ,  9-C ) :   1.0587 B(  9-C , 10-H ) :   0.9624 B(  9-C , 11-H ) :   0.9546
B(  9-C , 12-C ) :   1.0730 B( 12-C , 13-H ) :   0.9726 B( 12-C , 14-H ) :   0.9754
B( 12-C , 15-H ) :   0.9727 B( 16-S , 17-C ) :   1.1605 B( 16-S , 20-C ) :   1.1354
B( 17-C , 18-C ) :   1.5996 B( 17-C , 33-H ) :   0.9704 B( 18-C , 19-C ) :   1.2250
B( 18-C , 21-H ) :   0.9828 B( 19-C , 20-C ) :   1.6182 B( 19-C , 22-C ) :   1.0395
B( 22-C , 23-H ) :   0.9335 B( 22-C , 24-H ) :   0.9346 B( 22-C , 25-C ) :   1.0973
B( 25-C , 26-H ) :   0.9475 B( 25-C , 27-H ) :   0.9441 B( 25-C , 28-C ) :   1.0840
B( 28-C , 29-H ) :   0.9756 B( 28-C , 30-H ) :   0.9700 B( 28-C , 31-H ) :   0.9659

Dispersion correction           -0.014941071
FINAL SINGLE POINT ENERGY     -1339.865086839752

DIPOLE MOMENT
-------------
                                X             Y             Z
Electronic contribution:     16.54627      17.16866     -19.17936
Nuclear contribution   :    -17.05762     -17.63021      19.52009
                        -----------------------------------------
Total Dipole Moment    :     -0.51135      -0.46156       0.34073
                        -----------------------------------------
Magnitude (a.u.)       :      0.76851
Magnitude (Debye)      :      1.95340

Rotational constants in cm-1:     0.017210     0.010291     0.007220
Rotational constants in MHz :   515.948884   308.524779   216.442042

                             ****ORCA TERMINATED NORMALLY****
TOTAL RUN TIME: 0 days 0 hours 0 minutes 36 seconds 474 msec
