                         Program Version 4.2.1 -  RELEASE  -
|  1> ! wB97X-D3 SP def2-SVP
|  2> %pal
|  3> nprocs 16
|  4> end
|  5>
|  6> * xyz 0 1
|  7> S 	 -39.7173 	 52.2803 	 107.258
|  8> C 	 -40.8834 	 53.5931 	 107.555
|  9> C 	 -40.2337 	 54.7763 	 107.71
| 10> C 	 -38.8034 	 54.6033 	 107.807
| 11> C 	 -38.3059 	 53.3415 	 107.445
| 12> H 	 -38.0741 	 55.3445 	 108.009
| 13> C 	 -40.8625 	 56.1553 	 107.955
| 14> H 	 -40.9371 	 56.309 	 109.025
| 15> H 	 -41.8697 	 56.2297 	 107.475
| 16> C 	 -40.026 	 57.2486 	 107.332
| 17> H 	 -39.0506 	 57.2667 	 107.848
| 18> H 	 -39.908 	 57.1633 	 106.274
| 19> C 	 -40.609 	 58.6966 	 107.482
| 20> H 	 -41.4736 	 58.8026 	 106.773
| 21> H 	 -40.9447 	 59.0489 	 108.495
| 22> H 	 -39.8634 	 59.4036 	 107.101
| 23> S 	 -36.5484 	 51.3466 	 107.993
| 24> C 	 -34.9672 	 51.4202 	 107.351
| 25> C 	 -34.6796 	 52.6525 	 106.81
| 26> C 	 -35.8562 	 53.5339 	 106.757
| 27> C 	 -36.955 	 52.9117 	 107.322
| 28> H 	 -33.7439 	 52.8834 	 106.325
| 29> C 	 -35.8551 	 54.8444 	 106.017
| 30> H 	 -36.4977 	 55.4519 	 106.653
| 31> H 	 -36.4656 	 54.7662 	 105.153
| 32> C 	 -34.5239 	 55.5472 	 105.811
| 33> H 	 -33.8647 	 54.8823 	 105.224
| 34> H 	 -34.1712 	 55.6706 	 106.834
| 35> C 	 -34.5621 	 56.9799 	 105.198
| 36> H 	 -35.497 	 57.5503 	 105.554
| 37> H 	 -34.6174 	 56.8627 	 104.072
| 38> H 	 -33.6938 	 57.5162 	 105.536
| 39> H 	 -41.9372 	 53.4614 	 107.535
| 40> H 	 -34.3109 	 50.6339 	 107.273
| 41> *
| 42>
| 43>                          ****END OF INPUT****

CARTESIAN COORDINATES (ANGSTROEM)
---------------------------------
  S    -39.717300   52.280300  107.258000
  C    -40.883400   53.593100  107.555000
  C    -40.233700   54.776300  107.710000
  C    -38.803400   54.603300  107.807000
  C    -38.305900   53.341500  107.445000
  H    -38.074100   55.344500  108.009000
  C    -40.862500   56.155300  107.955000
  H    -40.937100   56.309000  109.025000
  H    -41.869700   56.229700  107.475000
  C    -40.026000   57.248600  107.332000
  H    -39.050600   57.266700  107.848000
  H    -39.908000   57.163300  106.274000
  C    -40.609000   58.696600  107.482000
  H    -41.473600   58.802600  106.773000
  H    -40.944700   59.048900  108.495000
  H    -39.863400   59.403600  107.101000
  S    -36.548400   51.346600  107.993000
  C    -34.967200   51.420200  107.351000
  C    -34.679600   52.652500  106.810000
  C    -35.856200   53.533900  106.757000
  C    -36.955000   52.911700  107.322000
  H    -33.743900   52.883400  106.325000
  C    -35.855100   54.844400  106.017000
  H    -36.497700   55.451900  106.653000
  H    -36.465600   54.766200  105.153000
  C    -34.523900   55.547200  105.811000
  H    -33.864700   54.882300  105.224000
  H    -34.171200   55.670600  106.834000
  C    -34.562100   56.979900  105.198000
  H    -35.497000   57.550300  105.554000
  H    -34.617400   56.862700  104.072000
  H    -33.693800   57.516200  105.536000
  H    -41.937200   53.461400  107.535000
  H    -34.310900   50.633900  107.273000

 Total Charge           Charge          ....    0
 Multiplicity           Mult            ....    1
 Number of Electrons    NEL             ....  134
 Basis Dimension        Dim             ....  322

ORBITAL ENERGIES
----------------

  NO   OCC          E(Eh)            E(eV)
   0   2.0000     -88.964590     -2420.8496
   1   2.0000     -88.961937     -2420.7774
   2   2.0000     -10.330587      -281.1096
   3   2.0000     -10.322925      -280.9011
   4   2.0000     -10.313400      -280.6419
   5   2.0000     -10.309918      -280.5471
   6   2.0000     -10.307527      -280.4821
   7   2.0000     -10.302410      -280.3428
   8   2.0000     -10.296406      -280.1795
   9   2.0000     -10.294938      -280.1395
  10   2.0000     -10.293425      -280.0983
  11   2.0000     -10.292479      -280.0726
  12   2.0000     -10.292364      -280.0695
  13   2.0000     -10.288629      -279.9678
  14   2.0000     -10.287732      -279.9434
  15   2.0000     -10.287120      -279.9268
  16   2.0000      -8.080227      -219.8742
  17   2.0000      -8.075923      -219.7570
  18   2.0000      -6.038723      -164.3220
  19   2.0000      -6.034630      -164.2106
  20   2.0000      -6.034610      -164.2101
  21   2.0000      -6.030940      -164.1102
  22   2.0000      -6.030485      -164.0978
  23   2.0000      -6.026548      -163.9907
  24   2.0000      -1.007286       -27.4097
  25   2.0000      -0.981518       -26.7085
  26   2.0000      -0.913779       -24.8652
  27   2.0000      -0.912190       -24.8219
  28   2.0000      -0.875323       -23.8187
  29   2.0000      -0.850921       -23.1547
  30   2.0000      -0.837290       -22.7838
  31   2.0000      -0.814970       -22.1765
  32   2.0000      -0.783992       -21.3335
  33   2.0000      -0.774677       -21.0800
  34   2.0000      -0.712026       -19.3752
  35   2.0000      -0.705608       -19.2006
  36   2.0000      -0.690403       -18.7868
  37   2.0000      -0.654484       -17.8094
  38   2.0000      -0.643520       -17.5111
  39   2.0000      -0.619792       -16.8654
  40   2.0000      -0.600738       -16.3469
  41   2.0000      -0.576183       -15.6787
  42   2.0000      -0.574341       -15.6286
  43   2.0000      -0.562955       -15.3188
  44   2.0000      -0.528492       -14.3810
  45   2.0000      -0.525292       -14.2939
  46   2.0000      -0.517097       -14.0709
  47   2.0000      -0.514115       -13.9898
  48   2.0000      -0.506923       -13.7941
  49   2.0000      -0.502863       -13.6836
  50   2.0000      -0.492698       -13.4070
  51   2.0000      -0.483203       -13.1486
  52   2.0000      -0.467962       -12.7339
  53   2.0000      -0.464805       -12.6480
  54   2.0000      -0.460140       -12.5210
  55   2.0000      -0.455001       -12.3812
  56   2.0000      -0.444914       -12.1067
  57   2.0000      -0.439370       -11.9559
  58   2.0000      -0.428562       -11.6618
  59   2.0000      -0.426268       -11.5994
  60   2.0000      -0.421267       -11.4633
  61   2.0000      -0.417607       -11.3637
  62   2.0000      -0.409440       -11.1414
  63   2.0000      -0.350906        -9.5486
  64   2.0000      -0.329045        -8.9538
  65   2.0000      -0.327287        -8.9059
  66   2.0000      -0.288498        -7.8504
  67   0.0000       0.021986         0.5983
  68   0.0000       0.081844         2.2271
  69   0.0000       0.110307         3.0016
  70   0.0000       0.120456         3.2778
  71   0.0000       0.128291         3.4910

MULLIKEN ATOMIC CHARGES
-----------------------
   0 S :    0.090663
   1 C :   -0.117807
   2 C :   -0.060300
   3 C :    0.015172
   4 C :   -0.156564
   5 H :    0.006309
   6 C :    0.091817
   7 H :    0.045275
   8 H :    0.027743
   9 C :   -0.121209
  10 H :    0.037621
  11 H :    0.036481
  12 C :   -0.076524
  13 H :    0.032564
  14 H :    0.041246
  15 H :    0.035870
  16 S :    0.118125
  17 C :   -0.040099
  18 C :   -0.045980
  19 C :   -0.068174
  20 C :   -0.152130
  21 H :    0.016359
  22 C :    0.123735
  23 H :   -0.013126
  24 H :    0.028783
  25 C :   -0.112370
  26 H :    0.043627
  27 H :    0.032118
  28 C :   -0.057432
  29 H :    0.041080
  30 H :    0.049259
  31 H :    0.044519
  32 H :    0.038237
  33 H :    0.025109
Sum of atomic charges:   -0.0000000

LOEWDIN ATOMIC CHARGES
----------------------
   0 S :    0.375484
   1 C :   -0.178114
   2 C :   -0.064009
   3 C :   -0.062276
   4 C :   -0.183806
   5 H :    0.018340
   6 C :   -0.029068
   7 H :    0.035129
   8 H :    0.033739
   9 C :   -0.042726
  10 H :    0.023323
  11 H :    0.025654
  12 C :   -0.074296
  13 H :    0.026073
  14 H :    0.026409
  15 H :    0.027038
  16 S :    0.422540
  17 C :   -0.180609
  18 C :   -0.069858
  19 C :   -0.042377
  20 C :   -0.207483
  21 H :    0.027919
  22 C :   -0.037152
  23 H :    0.028886
  24 H :    0.030359
  25 C :   -0.044310
  26 H :    0.024426
  27 H :    0.027432
  28 C :   -0.068032
  29 H :    0.033447
  30 H :    0.033203
  31 H :    0.025773
  32 H :    0.024569
  33 H :    0.014374

  Mayer bond orders larger than 0.100000
B(  0-S ,  1-C ) :   1.1233 B(  0-S ,  4-C ) :   1.1300 B(  1-C ,  2-C ) :   1.6313
B(  1-C , 32-H ) :   0.9769 B(  2-C ,  3-C ) :   1.2172 B(  2-C ,  6-C ) :   1.0189
B(  3-C ,  4-C ) :   1.5862 B(  3-C ,  5-H ) :   0.9848 B(  4-C , 20-C ) :   1.0929
B(  6-C ,  7-H ) :   0.9367 B(  6-C ,  8-H ) :   0.9450 B(  6-C ,  9-C ) :   1.0734
B(  9-C , 10-H ) :   0.9484 B(  9-C , 11-H ) :   0.9592 B(  9-C , 12-C ) :   1.0837
B( 12-C , 13-H ) :   0.9753 B( 12-C , 14-H ) :   0.9754 B( 12-C , 15-H ) :   0.9747
B( 16-S , 17-C ) :   1.1596 B( 16-S , 20-C ) :   1.1302 B( 17-C , 18-C ) :   1.6084
B( 17-C , 33-H ) :   0.9736 B( 18-C , 19-C ) :   1.2323 B( 18-C , 21-H ) :   0.9882
B( 19-C , 20-C ) :   1.5980 B( 19-C , 22-C ) :   1.0365 B( 22-C , 23-H ) :   0.9131
B( 22-C , 24-H ) :   0.9162 B( 22-C , 25-C ) :   1.0730 B( 25-C , 26-H ) :   0.9499
B( 25-C , 27-H ) :   0.9586 B( 25-C , 28-C ) :   1.0778 B( 28-C , 29-H ) :   0.9740
B( 28-C , 30-H ) :   0.9753 B( 28-C , 31-H ) :   0.9761

Dispersion correction           -0.013625324
FINAL SINGLE POINT ENERGY     -1339.877942714857

DIPOLE MOMENT
-------------
                                X             Y             Z
Electronic contribution:     -2.60927     -32.92459       7.15047
Nuclear contribution   :      2.80562      33.65229      -7.39094
                        -----------------------------------------
Total Dipole Moment    :      0.19635       0.72770      -0.24047
                        -----------------------------------------
Magnitude (a.u.)       :      0.79116
Magnitude (Debye)      :      2.01096

Rotational constants in cm-1:     0.015434     0.009817     0.006270
Rotational constants in MHz :   462.700169   294.293197   187.983253

                             ****ORCA TERMINATED NORMALLY****
TOTAL RUN TIME: 0 days 0 hours 0 minutes 30 seconds 384 msec
