                         Program Version 4.2.1 -  RELEASE  -
|  1> ! wB97X-D3 SP def2-SVP
|  2> %pal
|  3> nprocs 16
|  4> end
|  5>
|  6> * xyz 0 1
|  7> S 	 13.2327 	 19.3019 	 38.3899
|  8> C 	 13.059 	 17.6789 	 37.7356
|  9> C 	 11.9076 	 17.4571 	 37.0176
| 10> C 	 11.0579 	 18.6367 	 37.0805
| 11> C 	 11.6172 	 19.6787 	 37.7579
| 12> H 	 10.0693 	 18.8541 	 36.7928
| 13> C 	 11.5824 	 16.1388 	 36.3368
| 14> H 	 10.9428 	 16.3231 	 35.4267
| 15> H 	 10.9543 	 15.59 	 37.1048
| 16> C 	 12.7702 	 15.3305 	 35.8326
| 17> H 	 13.4139 	 16.0577 	 35.2763
| 18> H 	 13.3018 	 15.0818 	 36.7296
| 19> C 	 12.4923 	 14.0437 	 35.0816
| 20> H 	 11.8206 	 13.3656 	 35.6511
| 21> H 	 11.9004 	 14.283 	 34.17
| 22> H 	 13.3451 	 13.5484 	 34.8396
| 23> S 	 12.011 	 22.262 	 38.4746
| 24> C 	 10.7072 	 23.3296 	 38.9118
| 25> C 	 9.53741 	 22.6645 	 38.8591
| 26> C 	 9.59536 	 21.2971 	 38.3507
| 27> C 	 10.9352 	 20.9 	 38.1683
| 28> H 	 8.70224 	 23.1788 	 39.0282
| 29> C 	 8.28616 	 20.5597 	 38.0634
| 30> H 	 8.31257 	 20.3188 	 36.9919
| 31> H 	 7.37448 	 21.2106 	 38.0685
| 32> C 	 8.08255 	 19.297 	 38.8298
| 33> H 	 8.90424 	 18.5757 	 38.5214
| 34> H 	 7.06752 	 18.941 	 38.567
| 35> C 	 7.89726 	 19.5566 	 40.3219
| 36> H 	 7.61067 	 18.6488 	 40.8837
| 37> H 	 7.11624 	 20.3104 	 40.5659
| 38> H 	 8.92422 	 19.7933 	 40.6993
| 39> H 	 13.6794 	 16.8513 	 38.0675
| 40> H 	 10.8496 	 24.3661 	 39.1714
| 41> *
| 42>
| 43>                          ****END OF INPUT****

CARTESIAN COORDINATES (ANGSTROEM)
---------------------------------
  S     13.232700   19.301900   38.389900
  C     13.059000   17.678900   37.735600
  C     11.907600   17.457100   37.017600
  C     11.057900   18.636700   37.080500
  C     11.617200   19.678700   37.757900
  H     10.069300   18.854100   36.792800
  C     11.582400   16.138800   36.336800
  H     10.942800   16.323100   35.426700
  H     10.954300   15.590000   37.104800
  C     12.770200   15.330500   35.832600
  H     13.413900   16.057700   35.276300
  H     13.301800   15.081800   36.729600
  C     12.492300   14.043700   35.081600
  H     11.820600   13.365600   35.651100
  H     11.900400   14.283000   34.170000
  H     13.345100   13.548400   34.839600
  S     12.011000   22.262000   38.474600
  C     10.707200   23.329600   38.911800
  C      9.537410   22.664500   38.859100
  C      9.595360   21.297100   38.350700
  C     10.935200   20.900000   38.168300
  H      8.702240   23.178800   39.028200
  C      8.286160   20.559700   38.063400
  H      8.312570   20.318800   36.991900
  H      7.374480   21.210600   38.068500
  C      8.082550   19.297000   38.829800
  H      8.904240   18.575700   38.521400
  H      7.067520   18.941000   38.567000
  C      7.897260   19.556600   40.321900
  H      7.610670   18.648800   40.883700
  H      7.116240   20.310400   40.565900
  H      8.924220   19.793300   40.699300
  H     13.679400   16.851300   38.067500
  H     10.849600   24.366100   39.171400

 Total Charge           Charge          ....    0
 Multiplicity           Mult            ....    1
 Number of Electrons    NEL             ....  134
 Basis Dimension        Dim             ....  322

ORBITAL ENERGIES
----------------

  NO   OCC          E(Eh)            E(eV)
   0   2.0000     -88.966707     -2420.9072
   1   2.0000     -88.960567     -2420.7401
   2   2.0000     -10.332435      -281.1599
   3   2.0000     -10.329982      -281.0931
   4   2.0000     -10.313034      -280.6319
   5   2.0000     -10.312781      -280.6251
   6   2.0000     -10.310751      -280.5698
   7   2.0000     -10.308876      -280.5188
   8   2.0000     -10.302433      -280.3434
   9   2.0000     -10.296675      -280.1868
  10   2.0000     -10.293716      -280.1063
  11   2.0000     -10.288038      -279.9517
  12   2.0000     -10.287974      -279.9500
  13   2.0000     -10.282883      -279.8115
  14   2.0000     -10.279019      -279.7063
  15   2.0000     -10.278947      -279.7044
  16   2.0000      -8.081044      -219.8964
  17   2.0000      -8.075798      -219.7536
  18   2.0000      -6.039647      -164.3471
  19   2.0000      -6.035822      -164.2431
  20   2.0000      -6.034460      -164.2060
  21   2.0000      -6.031506      -164.1256
  22   2.0000      -6.030184      -164.0897
  23   2.0000      -6.026429      -163.9875
  24   2.0000      -1.006314       -27.3832
  25   2.0000      -0.982463       -26.7342
  26   2.0000      -0.915816       -24.9206
  27   2.0000      -0.914755       -24.8918
  28   2.0000      -0.873539       -23.7702
  29   2.0000      -0.853586       -23.2273
  30   2.0000      -0.842142       -22.9158
  31   2.0000      -0.821019       -22.3411
  32   2.0000      -0.784674       -21.3521
  33   2.0000      -0.774347       -21.0710
  34   2.0000      -0.710476       -19.3330
  35   2.0000      -0.700818       -19.0702
  36   2.0000      -0.681676       -18.5493
  37   2.0000      -0.669978       -18.2310
  38   2.0000      -0.642394       -17.4804
  39   2.0000      -0.608950       -16.5704
  40   2.0000      -0.598675       -16.2908
  41   2.0000      -0.577419       -15.7124
  42   2.0000      -0.565459       -15.3869
  43   2.0000      -0.560868       -15.2620
  44   2.0000      -0.546868       -14.8810
  45   2.0000      -0.529751       -14.4153
  46   2.0000      -0.521721       -14.1968
  47   2.0000      -0.510300       -13.8860
  48   2.0000      -0.500825       -13.6281
  49   2.0000      -0.497478       -13.5371
  50   2.0000      -0.491502       -13.3745
  51   2.0000      -0.487563       -13.2673
  52   2.0000      -0.473212       -12.8767
  53   2.0000      -0.470144       -12.7933
  54   2.0000      -0.461065       -12.5462
  55   2.0000      -0.445847       -12.1321
  56   2.0000      -0.440175       -11.9778
  57   2.0000      -0.436026       -11.8649
  58   2.0000      -0.431939       -11.7537
  59   2.0000      -0.427135       -11.6229
  60   2.0000      -0.420497       -11.4423
  61   2.0000      -0.413033       -11.2392
  62   2.0000      -0.400049       -10.8859
  63   2.0000      -0.361824        -9.8457
  64   2.0000      -0.334403        -9.0996
  65   2.0000      -0.325842        -8.8666
  66   2.0000      -0.284519        -7.7422
  67   0.0000       0.023138         0.6296
  68   0.0000       0.074955         2.0396
  69   0.0000       0.102183         2.7805
  70   0.0000       0.117438         3.1956
  71   0.0000       0.138245         3.7618

MULLIKEN ATOMIC CHARGES
-----------------------
   0 S :    0.107899
   1 C :   -0.131485
   2 C :   -0.070282
   3 C :    0.002996
   4 C :   -0.091252
   5 H :   -0.022004
   6 C :    0.033064
   7 H :    0.034747
   8 H :    0.052241
   9 C :   -0.111299
  10 H :    0.044622
  11 H :    0.018745
  12 C :    0.010371
  13 H :    0.027578
  14 H :    0.028628
  15 H :    0.022019
  16 S :    0.075036
  17 C :   -0.074976
  18 C :    0.023175
  19 C :   -0.050237
  20 C :   -0.143412
  21 H :   -0.039548
  22 C :    0.027331
  23 H :    0.041255
  24 H :    0.024632
  25 C :   -0.077966
  26 H :    0.053914
  27 H :    0.024214
  28 C :   -0.073586
  29 H :    0.033581
  30 H :    0.037858
  31 H :    0.048164
  32 H :    0.055555
  33 H :    0.058420
Sum of atomic charges:   -0.0000000

LOEWDIN ATOMIC CHARGES
----------------------
   0 S :    0.382332
   1 C :   -0.195642
   2 C :   -0.057108
   3 C :   -0.062115
   4 C :   -0.177098
   5 H :    0.023331
   6 C :   -0.039365
   7 H :    0.033699
   8 H :    0.040702
   9 C :   -0.047992
  10 H :    0.032823
  11 H :    0.016701
  12 C :   -0.054256
  13 H :    0.030444
  14 H :    0.029305
  15 H :    0.014727
  16 S :    0.393078
  17 C :   -0.178646
  18 C :   -0.057466
  19 C :   -0.053386
  20 C :   -0.187731
  21 H :    0.007573
  22 C :   -0.042642
  23 H :    0.032742
  24 H :    0.035508
  25 C :   -0.052456
  26 H :    0.034314
  27 H :    0.025854
  28 C :   -0.073467
  29 H :    0.025939
  30 H :    0.028806
  31 H :    0.031157
  32 H :    0.028696
  33 H :    0.031636

  Mayer bond orders larger than 0.100000
B(  0-S ,  1-C ) :   1.1202 B(  0-S ,  4-C ) :   1.1183 B(  1-C ,  2-C ) :   1.6627
B(  1-C , 32-H ) :   0.9608 B(  2-C ,  3-C ) :   1.1752 B(  2-C ,  6-C ) :   1.0122
B(  3-C ,  4-C ) :   1.6335 B(  3-C ,  5-H ) :   1.0025 B(  4-C , 20-C ) :   1.0549
B(  6-C ,  7-H ) :   0.9478 B(  6-C ,  8-H ) :   0.9270 B(  6-C ,  9-C ) :   1.0719
B(  9-C , 10-H ) :   0.9582 B(  9-C , 11-H ) :   0.9427 B(  9-C , 12-C ) :   1.0916
B( 12-C , 13-H ) :   0.9704 B( 12-C , 14-H ) :   0.9719 B( 12-C , 15-H ) :   0.9711
B( 16-S , 17-C ) :   1.1374 B( 16-S , 20-C ) :   1.1387 B( 17-C , 18-C ) :   1.6250
B( 17-C , 33-H ) :   0.9697 B( 18-C , 19-C ) :   1.2243 B( 18-C , 21-H ) :   1.0088
B( 19-C , 20-C ) :   1.5820 B( 19-C , 22-C ) :   1.0213 B( 22-C , 23-H ) :   0.9299
B( 22-C , 24-H ) :   0.9358 B( 22-C , 25-C ) :   1.0882 B( 25-C , 26-H ) :   0.9454
B( 25-C , 27-H ) :   0.9503 B( 25-C , 28-C ) :   1.0727 B( 28-C , 29-H ) :   0.9747
B( 28-C , 30-H ) :   0.9730 B( 28-C , 31-H ) :   0.9736

Dispersion correction           -0.014278344
FINAL SINGLE POINT ENERGY     -1339.865331965384

DIPOLE MOMENT
-------------
                                X             Y             Z
Electronic contribution:     14.79992      22.37374       5.29290
Nuclear contribution   :    -15.40693     -22.77866      -5.41923
                        -----------------------------------------
Total Dipole Moment    :     -0.60700      -0.40493      -0.12633
                        -----------------------------------------
Magnitude (a.u.)       :      0.74052
Magnitude (Debye)      :      1.88226

Rotational constants in cm-1:     0.022570     0.007757     0.006277
Rotational constants in MHz :   676.631610   232.546732   188.176315

                             ****ORCA TERMINATED NORMALLY****
TOTAL RUN TIME: 0 days 0 hours 0 minutes 35 seconds 257 msec
