                         Program Version 4.2.1 -  RELEASE  -
|  1> ! wB97X-D3 SP def2-SVP
|  2> %pal
|  3> nprocs 16
|  4> end
|  5>
|  6> * xyz 0 1
|  7> S 	 -113.732 	 53.7961 	 109.409
|  8> C 	 -112.175 	 53.0676 	 109.561
|  9> C 	 -111.701 	 53.1744 	 110.829
| 10> C 	 -112.579 	 53.8717 	 111.693
| 11> C 	 -113.746 	 54.3213 	 111.088
| 12> H 	 -112.316 	 54.1075 	 112.726
| 13> C 	 -110.304 	 52.7535 	 111.343
| 14> H 	 -110.3 	 51.7314 	 111.718
| 15> H 	 -109.911 	 53.2859 	 112.239
| 16> C 	 -109.15 	 52.6478 	 110.296
| 17> H 	 -108.207 	 52.2981 	 110.837
| 18> H 	 -109.366 	 51.8519 	 109.562
| 19> C 	 -108.681 	 53.9279 	 109.629
| 20> H 	 -109.623 	 54.2702 	 109.17
| 21> H 	 -108.252 	 54.7335 	 110.263
| 22> H 	 -108.034 	 53.637 	 108.877
| 23> S 	 -115.159 	 56.6967 	 110.792
| 24> C 	 -115.965 	 57.5109 	 112.131
| 25> C 	 -115.819 	 56.6815 	 113.238
| 26> C 	 -115.157 	 55.4438 	 113.001
| 27> C 	 -114.667 	 55.3173 	 111.666
| 28> H 	 -116.209 	 57.1522 	 114.196
| 29> C 	 -115.029 	 54.4137 	 114.083
| 30> H 	 -114.612 	 53.4663 	 113.686
| 31> H 	 -116.031 	 54.1131 	 114.399
| 32> C 	 -114.157 	 54.7394 	 115.341
| 33> H 	 -113.203 	 55.1565 	 114.87
| 34> H 	 -113.863 	 53.7882 	 115.914
| 35> C 	 -114.791 	 55.788 	 116.297
| 36> H 	 -114.986 	 56.6727 	 115.818
| 37> H 	 -114.21 	 55.9808 	 117.188
| 38> H 	 -115.675 	 55.3337 	 116.764
| 39> H 	 -111.619 	 52.7173 	 108.719
| 40> H 	 -116.236 	 58.5528 	 112.178
| 41> *
| 42>
| 43>                          ****END OF INPUT****

CARTESIAN COORDINATES (ANGSTROEM)
---------------------------------
  S    -113.732000   53.796100  109.409000
  C    -112.175000   53.067600  109.561000
  C    -111.701000   53.174400  110.829000
  C    -112.579000   53.871700  111.693000
  C    -113.746000   54.321300  111.088000
  H    -112.316000   54.107500  112.726000
  C    -110.304000   52.753500  111.343000
  H    -110.300000   51.731400  111.718000
  H    -109.911000   53.285900  112.239000
  C    -109.150000   52.647800  110.296000
  H    -108.207000   52.298100  110.837000
  H    -109.366000   51.851900  109.562000
  C    -108.681000   53.927900  109.629000
  H    -109.623000   54.270200  109.170000
  H    -108.252000   54.733500  110.263000
  H    -108.034000   53.637000  108.877000
  S    -115.159000   56.696700  110.792000
  C    -115.965000   57.510900  112.131000
  C    -115.819000   56.681500  113.238000
  C    -115.157000   55.443800  113.001000
  C    -114.667000   55.317300  111.666000
  H    -116.209000   57.152200  114.196000
  C    -115.029000   54.413700  114.083000
  H    -114.612000   53.466300  113.686000
  H    -116.031000   54.113100  114.399000
  C    -114.157000   54.739400  115.341000
  H    -113.203000   55.156500  114.870000
  H    -113.863000   53.788200  115.914000
  C    -114.791000   55.788000  116.297000
  H    -114.986000   56.672700  115.818000
  H    -114.210000   55.980800  117.188000
  H    -115.675000   55.333700  116.764000
  H    -111.619000   52.717300  108.719000
  H    -116.236000   58.552800  112.178000

 Total Charge           Charge          ....    0
 Multiplicity           Mult            ....    1
 Number of Electrons    NEL             ....  134
 Basis Dimension        Dim             ....  322

ORBITAL ENERGIES
----------------

  NO   OCC          E(Eh)            E(eV)
   0   2.0000     -88.970014     -2420.9972
   1   2.0000     -88.966494     -2420.9014
   2   2.0000     -10.337192      -281.2893
   3   2.0000     -10.335103      -281.2324
   4   2.0000     -10.319193      -280.7995
   5   2.0000     -10.313756      -280.6516
   6   2.0000     -10.307589      -280.4838
   7   2.0000     -10.303764      -280.3797
   8   2.0000     -10.301119      -280.3077
   9   2.0000     -10.300872      -280.3010
  10   2.0000     -10.298831      -280.2454
  11   2.0000     -10.296802      -280.1902
  12   2.0000     -10.293809      -280.1088
  13   2.0000     -10.290820      -280.0274
  14   2.0000     -10.272947      -279.5411
  15   2.0000     -10.271061      -279.4898
  16   2.0000      -8.084939      -220.0024
  17   2.0000      -8.081625      -219.9122
  18   2.0000      -6.043485      -164.4516
  19   2.0000      -6.040044      -164.3580
  20   2.0000      -6.039381      -164.3399
  21   2.0000      -6.035807      -164.2427
  22   2.0000      -6.035681      -164.2392
  23   2.0000      -6.032680      -164.1576
  24   2.0000      -1.011224       -27.5168
  25   2.0000      -0.990389       -26.9499
  26   2.0000      -0.907940       -24.7063
  27   2.0000      -0.903068       -24.5737
  28   2.0000      -0.872130       -23.7319
  29   2.0000      -0.853643       -23.2288
  30   2.0000      -0.843410       -22.9504
  31   2.0000      -0.818148       -22.2629
  32   2.0000      -0.787181       -21.4203
  33   2.0000      -0.777061       -21.1449
  34   2.0000      -0.709728       -19.3127
  35   2.0000      -0.693416       -18.8688
  36   2.0000      -0.687823       -18.7166
  37   2.0000      -0.659715       -17.9518
  38   2.0000      -0.640117       -17.4185
  39   2.0000      -0.617560       -16.8047
  40   2.0000      -0.595775       -16.2118
  41   2.0000      -0.580917       -15.8075
  42   2.0000      -0.552079       -15.0228
  43   2.0000      -0.550659       -14.9842
  44   2.0000      -0.539657       -14.6848
  45   2.0000      -0.537640       -14.6299
  46   2.0000      -0.516605       -14.0575
  47   2.0000      -0.511186       -13.9101
  48   2.0000      -0.508690       -13.8421
  49   2.0000      -0.502725       -13.6798
  50   2.0000      -0.489656       -13.3242
  51   2.0000      -0.486716       -13.2442
  52   2.0000      -0.483708       -13.1624
  53   2.0000      -0.475297       -12.9335
  54   2.0000      -0.461711       -12.5638
  55   2.0000      -0.440390       -11.9836
  56   2.0000      -0.436336       -11.8733
  57   2.0000      -0.432814       -11.7775
  58   2.0000      -0.427385       -11.6297
  59   2.0000      -0.425533       -11.5793
  60   2.0000      -0.415893       -11.3170
  61   2.0000      -0.412235       -11.2175
  62   2.0000      -0.403334       -10.9753
  63   2.0000      -0.357558        -9.7297
  64   2.0000      -0.333953        -9.0873
  65   2.0000      -0.328698        -8.9443
  66   2.0000      -0.291251        -7.9253
  67   0.0000       0.022317         0.6073
  68   0.0000       0.073309         1.9948
  69   0.0000       0.115913         3.1542
  70   0.0000       0.122028         3.3205
  71   0.0000       0.128953         3.5090

MULLIKEN ATOMIC CHARGES
-----------------------
   0 S :    0.114965
   1 C :   -0.126923
   2 C :   -0.048461
   3 C :    0.014212
   4 C :   -0.138484
   5 H :    0.011163
   6 C :    0.069099
   7 H :    0.036909
   8 H :    0.031151
   9 C :   -0.163377
  10 H :    0.030086
  11 H :    0.035463
  12 C :   -0.011946
  13 H :    0.022643
  14 H :    0.045398
  15 H :    0.022144
  16 S :    0.104481
  17 C :   -0.109876
  18 C :   -0.070033
  19 C :   -0.044815
  20 C :   -0.116983
  21 H :    0.053189
  22 C :    0.052558
  23 H :    0.024824
  24 H :    0.029659
  25 C :   -0.124711
  26 H :    0.038146
  27 H :    0.048163
  28 C :   -0.011470
  29 H :    0.019292
  30 H :    0.025541
  31 H :    0.024173
  32 H :    0.046945
  33 H :    0.066875
Sum of atomic charges:    0.0000000

LOEWDIN ATOMIC CHARGES
----------------------
   0 S :    0.416551
   1 C :   -0.198736
   2 C :   -0.066687
   3 C :   -0.055816
   4 C :   -0.190673
   5 H :    0.032129
   6 C :   -0.037458
   7 H :    0.037201
   8 H :    0.034426
   9 C :   -0.051502
  10 H :    0.029515
  11 H :    0.023455
  12 C :   -0.067326
  13 H :    0.025457
  14 H :    0.031501
  15 H :    0.017011
  16 S :    0.428499
  17 C :   -0.195033
  18 C :   -0.078780
  19 C :   -0.067330
  20 C :   -0.207386
  21 H :    0.044806
  22 C :   -0.042038
  23 H :    0.033337
  24 H :    0.030066
  25 C :   -0.043801
  26 H :    0.024840
  27 H :    0.032913
  28 C :   -0.063786
  29 H :    0.009068
  30 H :    0.026996
  31 H :    0.028537
  32 H :    0.025701
  33 H :    0.034346

  Mayer bond orders larger than 0.100000
B(  0-S ,  1-C ) :   1.1417 B(  0-S ,  4-C ) :   1.1552 B(  1-C ,  2-C ) :   1.6072
B(  1-C , 32-H ) :   0.9641 B(  2-C ,  3-C ) :   1.2789 B(  2-C ,  6-C ) :   0.9982
B(  3-C ,  4-C ) :   1.5409 B(  3-C ,  5-H ) :   0.9923 B(  4-C , 20-C ) :   1.0493
B(  6-C ,  7-H ) :   0.9320 B(  6-C ,  8-H ) :   0.9520 B(  6-C ,  9-C ) :   1.0803
B(  9-C , 10-H ) :   0.9539 B(  9-C , 11-H ) :   0.9518 B(  9-C , 12-C ) :   1.0771
B( 12-C , 13-H ) :   0.9730 B( 12-C , 14-H ) :   0.9743 B( 12-C , 15-H ) :   0.9715
B( 16-S , 17-C ) :   1.1635 B( 16-S , 20-C ) :   1.1743 B( 17-C , 18-C ) :   1.5816
B( 17-C , 20-C ) :   0.1044 B( 17-C , 33-H ) :   0.9672 B( 18-C , 19-C ) :   1.2775
B( 18-C , 21-H ) :   0.9725 B( 19-C , 20-C ) :   1.5224 B( 19-C , 22-C ) :   1.0546
B( 22-C , 23-H ) :   0.9305 B( 22-C , 24-H ) :   0.9369 B( 22-C , 25-C ) :   1.0524
B( 25-C , 26-H ) :   0.9526 B( 25-C , 27-H ) :   0.9589 B( 25-C , 28-C ) :   1.0776
B( 28-C , 29-H ) :   0.9730 B( 28-C , 30-H ) :   0.9689 B( 28-C , 31-H ) :   0.9734

Dispersion correction           -0.014329291
FINAL SINGLE POINT ENERGY     -1339.869045011837

DIPOLE MOMENT
-------------
                                X             Y             Z
Electronic contribution:    -17.25660       5.62657     -17.39561
Nuclear contribution   :     17.74003      -5.66358      17.94622
                        -----------------------------------------
Total Dipole Moment    :      0.48344      -0.03701       0.55061
                        -----------------------------------------
Magnitude (a.u.)       :      0.73365
Magnitude (Debye)      :      1.86480

Rotational constants in cm-1:     0.020336     0.007950     0.006433
Rotational constants in MHz :   609.653881   238.341475   192.864292

                             ****ORCA TERMINATED NORMALLY****
TOTAL RUN TIME: 0 days 0 hours 0 minutes 39 seconds 352 msec
