                         Program Version 4.2.1 -  RELEASE  -
|  1> ! wB97X-D3 SP def2-SVP
|  2> %pal
|  3> nprocs 16
|  4> end
|  5>
|  6> * xyz 0 1
|  7> S 	 -1.8958 	 -15.8936 	 92.6371
|  8> C 	 -3.55508 	 -16.3793 	 92.8737
|  9> C 	 -4.48228 	 -15.3791 	 92.6428
| 10> C 	 -3.84547 	 -14.1408 	 92.3044
| 11> C 	 -2.44379 	 -14.2095 	 92.3513
| 12> H 	 -4.26184 	 -13.1868 	 92.0521
| 13> C 	 -5.94686 	 -15.4769 	 92.5242
| 14> H 	 -6.18564 	 -16.5389 	 92.3849
| 15> H 	 -6.28121 	 -14.9799 	 91.6312
| 16> C 	 -6.69836 	 -14.8425 	 93.6975
| 17> H 	 -6.24229 	 -13.9119 	 94.0467
| 18> H 	 -7.72234 	 -14.6185 	 93.4284
| 19> C 	 -6.7773 	 -15.7173 	 94.9354
| 20> H 	 -5.82415 	 -16.0014 	 95.298
| 21> H 	 -7.21882 	 -15.1075 	 95.7087
| 22> H 	 -7.46738 	 -16.6183 	 94.7474
| 23> S 	 -0.925068 	 -12.0409 	 92.8574
| 24> C 	 0.351932 	 -11.5597 	 91.7077
| 25> C 	 0.198565 	 -12.3794 	 90.5456
| 26> C 	 -0.940992 	 -13.2505 	 90.5301
| 27> C 	 -1.5641 	 -13.222 	 91.7417
| 28> H 	 0.930954 	 -12.2984 	 89.7677
| 29> C 	 -1.23202 	 -14.321 	 89.4039
| 30> H 	 -1.92932 	 -13.7618 	 88.8159
| 31> H 	 -1.78339 	 -15.2301 	 89.7737
| 32> C 	 0.0180513 	 -14.8308 	 88.6539
| 33> H 	 0.844007 	 -14.9787 	 89.3226
| 34> H 	 0.364589 	 -13.9465 	 88.0351
| 35> C 	 -0.12272 	 -15.9344 	 87.6299
| 36> H 	 -0.835753 	 -15.7263 	 86.7966
| 37> H 	 -0.421465 	 -16.8536 	 88.0902
| 38> H 	 0.775216 	 -16.1171 	 87.0474
| 39> H 	 -3.88269 	 -17.432 	 92.9846
| 40> H 	 1.20249 	 -10.9178 	 91.8882
| 41> *
| 42>
| 43>                          ****END OF INPUT****

CARTESIAN COORDINATES (ANGSTROEM)
---------------------------------
  S     -1.895800  -15.893600   92.637100
  C     -3.555080  -16.379300   92.873700
  C     -4.482280  -15.379100   92.642800
  C     -3.845470  -14.140800   92.304400
  C     -2.443790  -14.209500   92.351300
  H     -4.261840  -13.186800   92.052100
  C     -5.946860  -15.476900   92.524200
  H     -6.185640  -16.538900   92.384900
  H     -6.281210  -14.979900   91.631200
  C     -6.698360  -14.842500   93.697500
  H     -6.242290  -13.911900   94.046700
  H     -7.722340  -14.618500   93.428400
  C     -6.777300  -15.717300   94.935400
  H     -5.824150  -16.001400   95.298000
  H     -7.218820  -15.107500   95.708700
  H     -7.467380  -16.618300   94.747400
  S     -0.925068  -12.040900   92.857400
  C      0.351932  -11.559700   91.707700
  C      0.198565  -12.379400   90.545600
  C     -0.940992  -13.250500   90.530100
  C     -1.564100  -13.222000   91.741700
  H      0.930954  -12.298400   89.767700
  C     -1.232020  -14.321000   89.403900
  H     -1.929320  -13.761800   88.815900
  H     -1.783390  -15.230100   89.773700
  C      0.018051  -14.830800   88.653900
  H      0.844007  -14.978700   89.322600
  H      0.364589  -13.946500   88.035100
  C     -0.122720  -15.934400   87.629900
  H     -0.835753  -15.726300   86.796600
  H     -0.421465  -16.853600   88.090200
  H      0.775216  -16.117100   87.047400
  H     -3.882690  -17.432000   92.984600
  H      1.202490  -10.917800   91.888200

 Total Charge           Charge          ....    0
 Multiplicity           Mult            ....    1
 Number of Electrons    NEL             ....  134
 Basis Dimension        Dim             ....  322

ORBITAL ENERGIES
----------------

  NO   OCC          E(Eh)            E(eV)
   0   2.0000     -88.969583     -2420.9854
   1   2.0000     -88.964062     -2420.8352
   2   2.0000     -10.328087      -281.0415
   3   2.0000     -10.323334      -280.9122
   4   2.0000     -10.320256      -280.8284
   5   2.0000     -10.317797      -280.7615
   6   2.0000     -10.306183      -280.4455
   7   2.0000     -10.299506      -280.2638
   8   2.0000     -10.298824      -280.2452
   9   2.0000     -10.298155      -280.2271
  10   2.0000     -10.295521      -280.1554
  11   2.0000     -10.289029      -279.9787
  12   2.0000     -10.288161      -279.9551
  13   2.0000     -10.282845      -279.8104
  14   2.0000     -10.278449      -279.6908
  15   2.0000     -10.273724      -279.5622
  16   2.0000      -8.083178      -219.9545
  17   2.0000      -8.078235      -219.8199
  18   2.0000      -6.041706      -164.4032
  19   2.0000      -6.037946      -164.3009
  20   2.0000      -6.036790      -164.2694
  21   2.0000      -6.033880      -164.1902
  22   2.0000      -6.032674      -164.1574
  23   2.0000      -6.029110      -164.0604
  24   2.0000      -1.001867       -27.2622
  25   2.0000      -0.978332       -26.6218
  26   2.0000      -0.915212       -24.9042
  27   2.0000      -0.902520       -24.5588
  28   2.0000      -0.865318       -23.5465
  29   2.0000      -0.850635       -23.1470
  30   2.0000      -0.848139       -23.0790
  31   2.0000      -0.809333       -22.0231
  32   2.0000      -0.783501       -21.3202
  33   2.0000      -0.773105       -21.0373
  34   2.0000      -0.703684       -19.1482
  35   2.0000      -0.699971       -19.0472
  36   2.0000      -0.690510       -18.7897
  37   2.0000      -0.657500       -17.8915
  38   2.0000      -0.641730       -17.4624
  39   2.0000      -0.615601       -16.7513
  40   2.0000      -0.590766       -16.0755
  41   2.0000      -0.570280       -15.5181
  42   2.0000      -0.563997       -15.3471
  43   2.0000      -0.548480       -14.9249
  44   2.0000      -0.541170       -14.7260
  45   2.0000      -0.526213       -14.3190
  46   2.0000      -0.519063       -14.1244
  47   2.0000      -0.514828       -14.0092
  48   2.0000      -0.503039       -13.6884
  49   2.0000      -0.491912       -13.3856
  50   2.0000      -0.490181       -13.3385
  51   2.0000      -0.476501       -12.9663
  52   2.0000      -0.474564       -12.9135
  53   2.0000      -0.469586       -12.7781
  54   2.0000      -0.452258       -12.3066
  55   2.0000      -0.444335       -12.0910
  56   2.0000      -0.443549       -12.0696
  57   2.0000      -0.432651       -11.7730
  58   2.0000      -0.429906       -11.6983
  59   2.0000      -0.424797       -11.5593
  60   2.0000      -0.421858       -11.4793
  61   2.0000      -0.418465       -11.3870
  62   2.0000      -0.405072       -11.0226
  63   2.0000      -0.334972        -9.1150
  64   2.0000      -0.332154        -9.0384
  65   2.0000      -0.317762        -8.6467
  66   2.0000      -0.306053        -8.3281
  67   0.0000       0.039718         1.0808
  68   0.0000       0.047658         1.2968
  69   0.0000       0.104390         2.8406
  70   0.0000       0.122581         3.3356
  71   0.0000       0.129832         3.5329

MULLIKEN ATOMIC CHARGES
-----------------------
   0 S :    0.112271
   1 C :   -0.123792
   2 C :   -0.086317
   3 C :    0.036635
   4 C :   -0.153117
   5 H :    0.013972
   6 C :    0.101511
   7 H :    0.012450
   8 H :    0.025135
   9 C :   -0.073887
  10 H :    0.029208
  11 H :    0.023064
  12 C :   -0.050599
  13 H :    0.026477
  14 H :    0.026870
  15 H :    0.036442
  16 S :    0.106726
  17 C :   -0.095244
  18 C :   -0.066058
  19 C :   -0.009344
  20 C :   -0.207252
  21 H :    0.015416
  22 C :    0.090566
  23 H :    0.032161
  24 H :    0.043424
  25 C :   -0.111282
  26 H :    0.036917
  27 H :    0.029016
  28 C :   -0.028731
  29 H :    0.028335
  30 H :    0.028657
  31 H :    0.030302
  32 H :    0.056614
  33 H :    0.063454
Sum of atomic charges:    0.0000000

LOEWDIN ATOMIC CHARGES
----------------------
   0 S :    0.397591
   1 C :   -0.202423
   2 C :   -0.067867
   3 C :   -0.042810
   4 C :   -0.190908
   5 H :    0.030857
   6 C :   -0.031249
   7 H :    0.029820
   8 H :    0.032661
   9 C :   -0.038972
  10 H :    0.026205
  11 H :    0.021886
  12 C :   -0.063077
  13 H :    0.016689
  14 H :    0.024672
  15 H :    0.030129
  16 S :    0.401384
  17 C :   -0.185221
  18 C :   -0.066128
  19 C :   -0.054896
  20 C :   -0.208410
  21 H :    0.023729
  22 C :   -0.026377
  23 H :    0.031592
  24 H :    0.030745
  25 C :   -0.050700
  26 H :    0.023770
  27 H :    0.028692
  28 C :   -0.066949
  29 H :    0.030609
  30 H :    0.019628
  31 H :    0.029725
  32 H :    0.034074
  33 H :    0.031528

  Mayer bond orders larger than 0.100000
B(  0-S ,  1-C ) :   1.1398 B(  0-S ,  4-C ) :   1.1320 B(  1-C ,  2-C ) :   1.6231
B(  1-C , 32-H ) :   0.9567 B(  2-C ,  3-C ) :   1.2201 B(  2-C ,  6-C ) :   1.0359
B(  3-C ,  4-C ) :   1.6011 B(  3-C ,  5-H ) :   0.9920 B(  4-C , 20-C ) :   0.9997
B(  6-C ,  7-H ) :   0.9384 B(  6-C ,  8-H ) :   0.9372 B(  6-C ,  9-C ) :   1.0596
B(  9-C , 10-H ) :   0.9588 B(  9-C , 11-H ) :   0.9550 B(  9-C , 12-C ) :   1.0874
B( 12-C , 13-H ) :   0.9758 B( 12-C , 14-H ) :   0.9725 B( 12-C , 15-H ) :   0.9745
B( 16-S , 17-C ) :   1.1457 B( 16-S , 20-C ) :   1.1567 B( 17-C , 18-C ) :   1.6008
B( 17-C , 20-C ) :   0.1028 B( 17-C , 33-H ) :   0.9707 B( 18-C , 19-C ) :   1.2388
B( 18-C , 21-H ) :   0.9872 B( 19-C , 20-C ) :   1.6116 B( 19-C , 22-C ) :   1.0038
B( 22-C , 23-H ) :   0.9288 B( 22-C , 24-H ) :   0.9453 B( 22-C , 25-C ) :   1.0604
B( 25-C , 26-H ) :   0.9616 B( 25-C , 27-H ) :   0.9444 B( 25-C , 28-C ) :   1.0923
B( 28-C , 29-H ) :   0.9722 B( 28-C , 30-H ) :   0.9738 B( 28-C , 31-H ) :   0.9712

Dispersion correction           -0.014342617
FINAL SINGLE POINT ENERGY     -1339.868969051849

DIPOLE MOMENT
-------------
                                X             Y             Z
Electronic contribution:     12.40268       9.52700       9.86870
Nuclear contribution   :    -12.63289      -9.71108     -10.39378
                        -----------------------------------------
Total Dipole Moment    :     -0.23022      -0.18408      -0.52508
                        -----------------------------------------
Magnitude (a.u.)       :      0.60216
Magnitude (Debye)      :      1.53057

Rotational constants in cm-1:     0.020230     0.007990     0.006481
Rotational constants in MHz :   606.472541   239.535039   194.308291

                             ****ORCA TERMINATED NORMALLY****
TOTAL RUN TIME: 0 days 0 hours 0 minutes 31 seconds 21 msec
