                         Program Version 4.2.1 -  RELEASE  -
|  1> ! wB97X-D3 SP def2-SVP
|  2> %pal
|  3> nprocs 16
|  4> end
|  5>
|  6> * xyz 0 1
|  7> S 	 18.2842 	 3.57507 	 85.8703
|  8> C 	 19.423 	 4.84983 	 86.2301
|  9> C 	 18.7775 	 6.00111 	 86.7179
| 10> C 	 17.3385 	 5.83582 	 86.6447
| 11> C 	 16.8675 	 4.61594 	 86.1628
| 12> H 	 16.5406 	 6.53386 	 86.9402
| 13> C 	 19.4872 	 7.24295 	 87.2538
| 14> H 	 19.1254 	 8.21858 	 86.7973
| 15> H 	 20.5661 	 7.21453 	 86.9502
| 16> C 	 19.406 	 7.53088 	 88.7341
| 17> H 	 18.3756 	 7.75757 	 89.0137
| 18> H 	 19.6369 	 6.67679 	 89.3198
| 19> C 	 20.2733 	 8.6668 	 89.1066
| 20> H 	 20.0067 	 9.5534 	 88.5431
| 21> H 	 20.1344 	 9.05988 	 90.1194
| 22> H 	 21.2942 	 8.42143 	 88.9763
| 23> S 	 15.2442 	 2.43441 	 86.4839
| 24> C 	 13.6119 	 2.69474 	 86.8075
| 25> C 	 13.2213 	 3.91332 	 86.4348
| 26> C 	 14.2936 	 4.76904 	 86.084
| 27> C 	 15.5107 	 4.10484 	 86.1411
| 28> H 	 12.2226 	 4.22013 	 86.5179
| 29> C 	 13.9956 	 6.26277 	 85.7414
| 30> H 	 14.9443 	 6.78834 	 85.7681
| 31> H 	 13.3821 	 6.66697 	 86.6379
| 32> C 	 13.3534 	 6.48052 	 84.3433
| 33> H 	 12.344 	 6.18372 	 84.3322
| 34> H 	 13.8977 	 6.00629 	 83.5537
| 35> C 	 13.3818 	 7.98648 	 83.8462
| 36> H 	 13.137 	 7.99911 	 82.7755
| 37> H 	 14.389 	 8.25559 	 83.9862
| 38> H 	 12.8526 	 8.70292 	 84.4551
| 39> H 	 20.5226 	 4.74492 	 86.1377
| 40> H 	 12.8557 	 1.9554 	 87.1716
| 41> *
| 42>
| 43>                          ****END OF INPUT****

CARTESIAN COORDINATES (ANGSTROEM)
---------------------------------
  S     18.284200    3.575070   85.870300
  C     19.423000    4.849830   86.230100
  C     18.777500    6.001110   86.717900
  C     17.338500    5.835820   86.644700
  C     16.867500    4.615940   86.162800
  H     16.540600    6.533860   86.940200
  C     19.487200    7.242950   87.253800
  H     19.125400    8.218580   86.797300
  H     20.566100    7.214530   86.950200
  C     19.406000    7.530880   88.734100
  H     18.375600    7.757570   89.013700
  H     19.636900    6.676790   89.319800
  C     20.273300    8.666800   89.106600
  H     20.006700    9.553400   88.543100
  H     20.134400    9.059880   90.119400
  H     21.294200    8.421430   88.976300
  S     15.244200    2.434410   86.483900
  C     13.611900    2.694740   86.807500
  C     13.221300    3.913320   86.434800
  C     14.293600    4.769040   86.084000
  C     15.510700    4.104840   86.141100
  H     12.222600    4.220130   86.517900
  C     13.995600    6.262770   85.741400
  H     14.944300    6.788340   85.768100
  H     13.382100    6.666970   86.637900
  C     13.353400    6.480520   84.343300
  H     12.344000    6.183720   84.332200
  H     13.897700    6.006290   83.553700
  C     13.381800    7.986480   83.846200
  H     13.137000    7.999110   82.775500
  H     14.389000    8.255590   83.986200
  H     12.852600    8.702920   84.455100
  H     20.522600    4.744920   86.137700
  H     12.855700    1.955400   87.171600

 Total Charge           Charge          ....    0
 Multiplicity           Mult            ....    1
 Number of Electrons    NEL             ....  134
 Basis Dimension        Dim             ....  322

ORBITAL ENERGIES
----------------

  NO   OCC          E(Eh)            E(eV)
   0   2.0000     -88.965193     -2420.8660
   1   2.0000     -88.964502     -2420.8472
   2   2.0000     -10.334097      -281.2051
   3   2.0000     -10.326840      -281.0076
   4   2.0000     -10.321465      -280.8613
   5   2.0000     -10.311488      -280.5898
   6   2.0000     -10.310312      -280.5578
   7   2.0000     -10.304844      -280.4091
   8   2.0000     -10.303307      -280.3672
   9   2.0000     -10.299788      -280.2715
  10   2.0000     -10.298465      -280.2355
  11   2.0000     -10.285838      -279.8919
  12   2.0000     -10.281545      -279.7751
  13   2.0000     -10.277107      -279.6543
  14   2.0000     -10.275404      -279.6080
  15   2.0000     -10.271363      -279.4980
  16   2.0000      -8.081314      -219.9037
  17   2.0000      -8.079518      -219.8549
  18   2.0000      -6.039756      -164.3501
  19   2.0000      -6.038188      -164.3075
  20   2.0000      -6.035634      -164.2379
  21   2.0000      -6.034087      -164.1958
  22   2.0000      -6.031904      -164.1365
  23   2.0000      -6.030136      -164.0884
  24   2.0000      -1.017070       -27.6759
  25   2.0000      -0.984146       -26.7800
  26   2.0000      -0.918637       -24.9974
  27   2.0000      -0.903695       -24.5908
  28   2.0000      -0.876581       -23.8530
  29   2.0000      -0.854687       -23.2572
  30   2.0000      -0.844811       -22.9885
  31   2.0000      -0.816066       -22.2063
  32   2.0000      -0.781984       -21.2789
  33   2.0000      -0.771024       -20.9806
  34   2.0000      -0.709466       -19.3055
  35   2.0000      -0.700160       -19.0523
  36   2.0000      -0.694240       -18.8912
  37   2.0000      -0.664762       -18.0891
  38   2.0000      -0.639821       -17.4104
  39   2.0000      -0.618064       -16.8184
  40   2.0000      -0.596234       -16.2243
  41   2.0000      -0.577829       -15.7235
  42   2.0000      -0.569015       -15.4837
  43   2.0000      -0.563586       -15.3359
  44   2.0000      -0.531943       -14.4749
  45   2.0000      -0.523939       -14.2571
  46   2.0000      -0.516338       -14.0503
  47   2.0000      -0.507379       -13.8065
  48   2.0000      -0.505353       -13.7513
  49   2.0000      -0.502935       -13.6855
  50   2.0000      -0.492920       -13.4130
  51   2.0000      -0.482566       -13.1313
  52   2.0000      -0.469726       -12.7819
  53   2.0000      -0.461109       -12.5474
  54   2.0000      -0.459962       -12.5162
  55   2.0000      -0.454126       -12.3574
  56   2.0000      -0.447765       -12.1843
  57   2.0000      -0.441474       -12.0131
  58   2.0000      -0.432860       -11.7787
  59   2.0000      -0.428490       -11.6598
  60   2.0000      -0.417258       -11.3542
  61   2.0000      -0.416408       -11.3310
  62   2.0000      -0.410955       -11.1826
  63   2.0000      -0.364469        -9.9177
  64   2.0000      -0.335343        -9.1251
  65   2.0000      -0.325731        -8.8636
  66   2.0000      -0.283014        -7.7012
  67   0.0000       0.024372         0.6632
  68   0.0000       0.080073         2.1789
  69   0.0000       0.107510         2.9255
  70   0.0000       0.116768         3.1774
  71   0.0000       0.141698         3.8558

MULLIKEN ATOMIC CHARGES
-----------------------
   0 S :    0.088898
   1 C :   -0.126250
   2 C :   -0.049484
   3 C :   -0.001616
   4 C :   -0.138727
   5 H :    0.024253
   6 C :    0.009437
   7 H :    0.031633
   8 H :    0.020346
   9 C :   -0.033696
  10 H :    0.019686
  11 H :    0.018466
  12 C :   -0.028292
  13 H :    0.014567
  14 H :    0.028785
  15 H :    0.025733
  16 S :    0.113784
  17 C :   -0.090116
  18 C :   -0.012435
  19 C :   -0.073926
  20 C :   -0.122694
  21 H :   -0.006739
  22 C :    0.042582
  23 H :    0.005821
  24 H :    0.050479
  25 C :   -0.045430
  26 H :    0.023992
  27 H :    0.035782
  28 C :   -0.045788
  29 H :    0.045850
  30 H :    0.011930
  31 H :    0.027486
  32 H :    0.065818
  33 H :    0.069862
Sum of atomic charges:   -0.0000000

LOEWDIN ATOMIC CHARGES
----------------------
   0 S :    0.385235
   1 C :   -0.199181
   2 C :   -0.062963
   3 C :   -0.071136
   4 C :   -0.178630
   5 H :    0.031916
   6 C :   -0.037707
   7 H :    0.035720
   8 H :    0.031203
   9 C :   -0.042752
  10 H :    0.023626
  11 H :    0.019371
  12 C :   -0.060846
  13 H :    0.023598
  14 H :    0.029745
  15 H :    0.020099
  16 S :    0.436364
  17 C :   -0.204756
  18 C :   -0.072521
  19 C :   -0.055787
  20 C :   -0.207872
  21 H :    0.022947
  22 C :   -0.033748
  23 H :    0.021104
  24 H :    0.042599
  25 C :   -0.028170
  26 H :    0.014694
  27 H :    0.028750
  28 C :   -0.060385
  29 H :    0.031372
  30 H :    0.016282
  31 H :    0.020388
  32 H :    0.037207
  33 H :    0.044235

  Mayer bond orders larger than 0.100000
B(  0-S ,  1-C ) :   1.1418 B(  0-S ,  4-C ) :   1.1310 B(  1-C ,  2-C ) :   1.6030
B(  1-C , 32-H ) :   0.9634 B(  2-C ,  3-C ) :   1.2328 B(  2-C ,  6-C ) :   1.0279
B(  3-C ,  4-C ) :   1.5917 B(  3-C ,  5-H ) :   0.9755 B(  4-C , 20-C ) :   1.0692
B(  6-C ,  7-H ) :   0.9391 B(  6-C ,  8-H ) :   0.9466 B(  6-C ,  9-C ) :   1.0610
B(  9-C , 10-H ) :   0.9479 B(  9-C , 11-H ) :   0.9508 B(  9-C , 12-C ) :   1.0973
B( 12-C , 13-H ) :   0.9679 B( 12-C , 14-H ) :   0.9690 B( 12-C , 15-H ) :   0.9742
B( 16-S , 17-C ) :   1.1653 B( 16-S , 20-C ) :   1.1391 B( 17-C , 18-C ) :   1.6112
B( 17-C , 33-H ) :   0.9578 B( 18-C , 19-C ) :   1.2544 B( 18-C , 21-H ) :   1.0023
B( 19-C , 20-C ) :   1.5871 B( 19-C , 22-C ) :   1.0311 B( 22-C , 23-H ) :   0.9316
B( 22-C , 24-H ) :   0.9393 B( 22-C , 25-C ) :   1.0653 B( 25-C , 26-H ) :   0.9589
B( 25-C , 27-H ) :   0.9571 B( 25-C , 28-C ) :   1.0762 B( 28-C , 29-H ) :   0.9775
B( 28-C , 30-H ) :   0.9768 B( 28-C , 31-H ) :   0.9768

Dispersion correction           -0.013065085
FINAL SINGLE POINT ENERGY     -1339.872992331204

DIPOLE MOMENT
-------------
                                X             Y             Z
Electronic contribution:     -0.09823     -29.69492      -2.64498
Nuclear contribution   :     -0.16441      30.30044       2.88376
                        -----------------------------------------
Total Dipole Moment    :     -0.26264       0.60552       0.23878
                        -----------------------------------------
Magnitude (a.u.)       :      0.70189
Magnitude (Debye)      :      1.78407

Rotational constants in cm-1:     0.016617     0.008155     0.006342
Rotational constants in MHz :   498.162153   244.470639   190.114055

                             ****ORCA TERMINATED NORMALLY****
TOTAL RUN TIME: 0 days 0 hours 0 minutes 33 seconds 928 msec
