                         Program Version 4.2.1 -  RELEASE  -
|  1> ! wB97X-D3 SP def2-SVP
|  2> %pal
|  3> nprocs 16
|  4> end
|  5>
|  6> * xyz 0 1
|  7> S 	 -37.8515 	 12.9386 	 79.14
|  8> C 	 -37.1237 	 12.8709 	 77.5098
|  9> C 	 -37.7318 	 13.7306 	 76.6572
| 10> C 	 -38.9774 	 14.1645 	 77.2424
| 11> C 	 -39.2861 	 13.7584 	 78.5323
| 12> H 	 -39.6581 	 14.8115 	 76.727
| 13> C 	 -37.4218 	 13.9402 	 75.1845
| 14> H 	 -37.4323 	 15.0454 	 75.1373
| 15> H 	 -38.2206 	 13.5574 	 74.5399
| 16> C 	 -36.0738 	 13.3443 	 74.6889
| 17> H 	 -36.1543 	 12.3071 	 74.9017
| 18> H 	 -35.9083 	 13.4955 	 73.5909
| 19> C 	 -34.7966 	 13.8807 	 75.3139
| 20> H 	 -34.5694 	 13.6281 	 76.3787
| 21> H 	 -33.9591 	 13.353 	 74.7913
| 22> H 	 -34.7221 	 14.9477 	 75.216
| 23> S 	 -39.9217 	 14.649 	 81.0446
| 24> C 	 -41.5727 	 15.1347 	 81.3809
| 25> C 	 -42.4189 	 14.6575 	 80.4162
| 26> C 	 -41.7514 	 14.1192 	 79.2613
| 27> C 	 -40.3687 	 14.1952 	 79.4015
| 28> H 	 -43.4703 	 14.7457 	 80.5416
| 29> C 	 -42.4686 	 13.6485 	 78.017
| 30> H 	 -41.74 	 13.7861 	 77.165
| 31> H 	 -43.3106 	 14.3489 	 77.8487
| 32> C 	 -42.8804 	 12.2012 	 78.0089
| 33> H 	 -42.0939 	 11.5758 	 78.3073
| 34> H 	 -43.1877 	 11.9114 	 76.9841
| 35> C 	 -43.9494 	 11.9834 	 79.0778
| 36> H 	 -44.5073 	 11.0403 	 78.8492
| 37> H 	 -44.618 	 12.7997 	 79.1999
| 38> H 	 -43.5171 	 11.8193 	 80.0547
| 39> H 	 -36.202 	 12.2684 	 77.1777
| 40> H 	 -41.8917 	 15.4956 	 82.313
| 41> *
| 42>
| 43>                          ****END OF INPUT****

CARTESIAN COORDINATES (ANGSTROEM)
---------------------------------
  S    -37.851500   12.938600   79.140000
  C    -37.123700   12.870900   77.509800
  C    -37.731800   13.730600   76.657200
  C    -38.977400   14.164500   77.242400
  C    -39.286100   13.758400   78.532300
  H    -39.658100   14.811500   76.727000
  C    -37.421800   13.940200   75.184500
  H    -37.432300   15.045400   75.137300
  H    -38.220600   13.557400   74.539900
  C    -36.073800   13.344300   74.688900
  H    -36.154300   12.307100   74.901700
  H    -35.908300   13.495500   73.590900
  C    -34.796600   13.880700   75.313900
  H    -34.569400   13.628100   76.378700
  H    -33.959100   13.353000   74.791300
  H    -34.722100   14.947700   75.216000
  S    -39.921700   14.649000   81.044600
  C    -41.572700   15.134700   81.380900
  C    -42.418900   14.657500   80.416200
  C    -41.751400   14.119200   79.261300
  C    -40.368700   14.195200   79.401500
  H    -43.470300   14.745700   80.541600
  C    -42.468600   13.648500   78.017000
  H    -41.740000   13.786100   77.165000
  H    -43.310600   14.348900   77.848700
  C    -42.880400   12.201200   78.008900
  H    -42.093900   11.575800   78.307300
  H    -43.187700   11.911400   76.984100
  C    -43.949400   11.983400   79.077800
  H    -44.507300   11.040300   78.849200
  H    -44.618000   12.799700   79.199900
  H    -43.517100   11.819300   80.054700
  H    -36.202000   12.268400   77.177700
  H    -41.891700   15.495600   82.313000

 Total Charge           Charge          ....    0
 Multiplicity           Mult            ....    1
 Number of Electrons    NEL             ....  134
 Basis Dimension        Dim             ....  322

ORBITAL ENERGIES
----------------

  NO   OCC          E(Eh)            E(eV)
   0   2.0000     -88.964133     -2420.8371
   1   2.0000     -88.963249     -2420.8131
   2   2.0000     -10.331821      -281.1431
   3   2.0000     -10.329687      -281.0851
   4   2.0000     -10.319675      -280.8126
   5   2.0000     -10.313760      -280.6517
   6   2.0000     -10.304445      -280.3982
   7   2.0000     -10.300929      -280.3025
   8   2.0000     -10.300219      -280.2832
   9   2.0000     -10.293253      -280.0937
  10   2.0000     -10.292967      -280.0859
  11   2.0000     -10.292910      -280.0843
  12   2.0000     -10.292877      -280.0834
  13   2.0000     -10.282285      -279.7952
  14   2.0000     -10.279866      -279.7294
  15   2.0000     -10.271797      -279.5098
  16   2.0000      -8.078930      -219.8388
  17   2.0000      -8.077417      -219.7977
  18   2.0000      -6.037459      -164.2876
  19   2.0000      -6.036209      -164.2536
  20   2.0000      -6.033617      -164.1831
  21   2.0000      -6.032181      -164.1440
  22   2.0000      -6.029472      -164.0703
  23   2.0000      -6.027709      -164.0223
  24   2.0000      -1.006243       -27.3813
  25   2.0000      -0.983690       -26.7676
  26   2.0000      -0.915000       -24.8984
  27   2.0000      -0.913432       -24.8557
  28   2.0000      -0.870593       -23.6900
  29   2.0000      -0.849358       -23.1122
  30   2.0000      -0.842140       -22.9158
  31   2.0000      -0.812711       -22.1150
  32   2.0000      -0.785525       -21.3752
  33   2.0000      -0.775183       -21.0938
  34   2.0000      -0.710804       -19.3419
  35   2.0000      -0.704454       -19.1692
  36   2.0000      -0.691512       -18.8170
  37   2.0000      -0.665632       -18.1128
  38   2.0000      -0.629851       -17.1391
  39   2.0000      -0.611640       -16.6436
  40   2.0000      -0.595524       -16.2050
  41   2.0000      -0.579043       -15.7565
  42   2.0000      -0.558038       -15.1850
  43   2.0000      -0.552826       -15.0432
  44   2.0000      -0.546518       -14.8715
  45   2.0000      -0.533756       -14.5242
  46   2.0000      -0.521223       -14.1832
  47   2.0000      -0.518356       -14.1052
  48   2.0000      -0.502887       -13.6843
  49   2.0000      -0.492222       -13.3940
  50   2.0000      -0.488760       -13.2998
  51   2.0000      -0.481942       -13.1143
  52   2.0000      -0.476777       -12.9738
  53   2.0000      -0.463488       -12.6122
  54   2.0000      -0.459769       -12.5110
  55   2.0000      -0.444529       -12.0963
  56   2.0000      -0.442580       -12.0432
  57   2.0000      -0.439856       -11.9691
  58   2.0000      -0.432773       -11.7764
  59   2.0000      -0.424071       -11.5396
  60   2.0000      -0.418348       -11.3838
  61   2.0000      -0.415416       -11.3041
  62   2.0000      -0.408809       -11.1243
  63   2.0000      -0.354346        -9.6422
  64   2.0000      -0.330990        -9.0067
  65   2.0000      -0.325919        -8.8687
  66   2.0000      -0.288403        -7.8478
  67   0.0000       0.027479         0.7478
  68   0.0000       0.064845         1.7645
  69   0.0000       0.100883         2.7452
  70   0.0000       0.116456         3.1689
  71   0.0000       0.135089         3.6760

MULLIKEN ATOMIC CHARGES
-----------------------
   0 S :    0.085254
   1 C :   -0.159864
   2 C :   -0.067173
   3 C :    0.002922
   4 C :   -0.116496
   5 H :    0.005529
   6 C :    0.056981
   7 H :    0.036409
   8 H :    0.051575
   9 C :   -0.090913
  10 H :    0.026354
  11 H :    0.045809
  12 C :   -0.074933
  13 H :    0.035925
  14 H :    0.035982
  15 H :    0.036873
  16 S :    0.089903
  17 C :   -0.059642
  18 C :   -0.024984
  19 C :   -0.043161
  20 C :   -0.155036
  21 H :    0.007154
  22 C :    0.030554
  23 H :    0.022789
  24 H :    0.037315
  25 C :   -0.016754
  26 H :    0.024044
  27 H :    0.036050
  28 C :   -0.063423
  29 H :    0.036636
  30 H :    0.016428
  31 H :    0.036548
  32 H :    0.078058
  33 H :    0.037285
Sum of atomic charges:   -0.0000000

LOEWDIN ATOMIC CHARGES
----------------------
   0 S :    0.372389
   1 C :   -0.193643
   2 C :   -0.070865
   3 C :   -0.061274
   4 C :   -0.186980
   5 H :    0.021677
   6 C :   -0.031555
   7 H :    0.035950
   8 H :    0.037824
   9 C :   -0.047159
  10 H :    0.018701
  11 H :    0.036842
  12 C :   -0.072078
  13 H :    0.025010
  14 H :    0.033064
  15 H :    0.023057
  16 S :    0.392297
  17 C :   -0.171528
  18 C :   -0.063958
  19 C :   -0.055224
  20 C :   -0.187399
  21 H :    0.025841
  22 C :   -0.036381
  23 H :    0.035013
  24 H :    0.031915
  25 C :   -0.034323
  26 H :    0.024264
  27 H :    0.027611
  28 C :   -0.065457
  29 H :    0.031907
  30 H :    0.012670
  31 H :    0.026517
  32 H :    0.046257
  33 H :    0.019018

  Mayer bond orders larger than 0.100000
B(  0-S ,  1-C ) :   1.1198 B(  0-S ,  4-C ) :   1.1129 B(  1-C ,  2-C ) :   1.6518
B(  1-C , 32-H ) :   0.9432 B(  2-C ,  3-C ) :   1.2241 B(  2-C ,  6-C ) :   0.9949
B(  3-C ,  4-C ) :   1.6018 B(  3-C ,  5-H ) :   0.9913 B(  4-C , 20-C ) :   1.0636
B(  6-C ,  7-H ) :   0.9342 B(  6-C ,  8-H ) :   0.9487 B(  6-C ,  9-C ) :   1.0798
B(  9-C , 10-H ) :   0.9492 B(  9-C , 11-H ) :   0.9555 B(  9-C , 12-C ) :   1.0798
B( 12-C , 13-H ) :   0.9719 B( 12-C , 14-H ) :   0.9727 B( 12-C , 15-H ) :   0.9758
B( 16-S , 17-C ) :   1.1414 B( 16-S , 20-C ) :   1.1341 B( 17-C , 18-C ) :   1.6217
B( 17-C , 33-H ) :   0.9739 B( 18-C , 19-C ) :   1.2260 B( 18-C , 21-H ) :   0.9945
B( 19-C , 20-C ) :   1.6029 B( 19-C , 22-C ) :   1.0295 B( 22-C , 23-H ) :   0.9289
B( 22-C , 24-H ) :   0.9429 B( 22-C , 25-C ) :   1.0832 B( 25-C , 26-H ) :   0.9493
B( 25-C , 27-H ) :   0.9582 B( 25-C , 28-C ) :   1.0745 B( 28-C , 29-H ) :   0.9716
B( 28-C , 30-H ) :   0.9779 B( 28-C , 31-H ) :   0.9721

Dispersion correction           -0.014252212
FINAL SINGLE POINT ENERGY     -1339.872294286320

DIPOLE MOMENT
-------------
                                X             Y             Z
Electronic contribution:      2.96002       5.16696      19.89599
Nuclear contribution   :     -3.21766      -5.20120     -20.50820
                        -----------------------------------------
Total Dipole Moment    :     -0.25764      -0.03424      -0.61221
                        -----------------------------------------
Magnitude (a.u.)       :      0.66509
Magnitude (Debye)      :      1.69053

Rotational constants in cm-1:     0.024674     0.007375     0.006284
Rotational constants in MHz :   739.703987   221.094518   188.387982

                             ****ORCA TERMINATED NORMALLY****
TOTAL RUN TIME: 0 days 0 hours 0 minutes 30 seconds 364 msec
