                         Program Version 4.2.1 -  RELEASE  -
|  1> ! wB97X-D3 SP def2-SVP
|  2> %pal
|  3> nprocs 16
|  4> end
|  5>
|  6> * xyz 0 1
|  7> S 	 2.40143 	 -10.9199 	 65.632
|  8> C 	 3.22037 	 -11.0819 	 67.1994
|  9> C 	 4.49747 	 -11.5927 	 67.143
| 10> C 	 4.77763 	 -11.9146 	 65.7897
| 11> C 	 3.78869 	 -11.6988 	 64.8614
| 12> H 	 5.68872 	 -12.4211 	 65.5697
| 13> C 	 5.46206 	 -11.9126 	 68.284
| 14> H 	 5.71958 	 -12.9754 	 68.2285
| 15> H 	 4.78994 	 -11.7311 	 69.1374
| 16> C 	 6.74255 	 -11.0937 	 68.3889
| 17> H 	 6.48225 	 -9.98874 	 68.3306
| 18> H 	 7.17799 	 -11.1583 	 69.3985
| 19> C 	 7.83326 	 -11.5443 	 67.4386
| 20> H 	 8.81478 	 -11.0969 	 67.7311
| 21> H 	 7.95547 	 -12.6401 	 67.3588
| 22> H 	 7.62897 	 -11.1936 	 66.4184
| 23> S 	 4.86582 	 -13.4039 	 63.0256
| 24> C 	 4.20786 	 -13.5486 	 61.3694
| 25> C 	 3.0944 	 -12.786 	 61.2437
| 26> C 	 2.67394 	 -12.1062 	 62.4531
| 27> C 	 3.64089 	 -12.1759 	 63.4839
| 28> H 	 2.44152 	 -12.7835 	 60.3274
| 29> C 	 1.35592 	 -11.4367 	 62.516
| 30> H 	 1.05365 	 -11.0419 	 61.5691
| 31> H 	 1.4191 	 -10.5863 	 63.2049
| 32> C 	 0.216675 	 -12.3066 	 63.1438
| 33> H 	 0.501158 	 -12.5831 	 64.1142
| 34> H 	 -0.0559169 	 -13.3029 	 62.6984
| 35> C 	 -1.11871 	 -11.5191 	 63.1881
| 36> H 	 -1.02426 	 -10.8166 	 63.9887
| 37> H 	 -2.03496 	 -12.1082 	 63.2985
| 38> H 	 -1.29947 	 -10.9161 	 62.2481
| 39> H 	 2.65923 	 -10.7333 	 68.0784
| 40> H 	 4.7332 	 -14.0067 	 60.5112
| 41> *
| 42>
| 43>                          ****END OF INPUT****

CARTESIAN COORDINATES (ANGSTROEM)
---------------------------------
  S      2.401430  -10.919900   65.632000
  C      3.220370  -11.081900   67.199400
  C      4.497470  -11.592700   67.143000
  C      4.777630  -11.914600   65.789700
  C      3.788690  -11.698800   64.861400
  H      5.688720  -12.421100   65.569700
  C      5.462060  -11.912600   68.284000
  H      5.719580  -12.975400   68.228500
  H      4.789940  -11.731100   69.137400
  C      6.742550  -11.093700   68.388900
  H      6.482250   -9.988740   68.330600
  H      7.177990  -11.158300   69.398500
  C      7.833260  -11.544300   67.438600
  H      8.814780  -11.096900   67.731100
  H      7.955470  -12.640100   67.358800
  H      7.628970  -11.193600   66.418400
  S      4.865820  -13.403900   63.025600
  C      4.207860  -13.548600   61.369400
  C      3.094400  -12.786000   61.243700
  C      2.673940  -12.106200   62.453100
  C      3.640890  -12.175900   63.483900
  H      2.441520  -12.783500   60.327400
  C      1.355920  -11.436700   62.516000
  H      1.053650  -11.041900   61.569100
  H      1.419100  -10.586300   63.204900
  C      0.216675  -12.306600   63.143800
  H      0.501158  -12.583100   64.114200
  H     -0.055917  -13.302900   62.698400
  C     -1.118710  -11.519100   63.188100
  H     -1.024260  -10.816600   63.988700
  H     -2.034960  -12.108200   63.298500
  H     -1.299470  -10.916100   62.248100
  H      2.659230  -10.733300   68.078400
  H      4.733200  -14.006700   60.511200

 Total Charge           Charge          ....    0
 Multiplicity           Mult            ....    1
 Number of Electrons    NEL             ....  134
 Basis Dimension        Dim             ....  322

ORBITAL ENERGIES
----------------

  NO   OCC          E(Eh)            E(eV)
   0   2.0000     -88.969098     -2420.9722
   1   2.0000     -88.961475     -2420.7648
   2   2.0000     -10.337256      -281.2910
   3   2.0000     -10.336388      -281.2674
   4   2.0000     -10.320761      -280.8422
   5   2.0000     -10.320542      -280.8362
   6   2.0000     -10.307977      -280.4943
   7   2.0000     -10.304824      -280.4085
   8   2.0000     -10.299338      -280.2592
   9   2.0000     -10.297741      -280.2158
  10   2.0000     -10.294160      -280.1183
  11   2.0000     -10.292456      -280.0720
  12   2.0000     -10.292159      -280.0639
  13   2.0000     -10.284524      -279.8561
  14   2.0000     -10.284209      -279.8475
  15   2.0000     -10.277278      -279.6590
  16   2.0000      -8.082941      -219.9480
  17   2.0000      -8.075166      -219.7364
  18   2.0000      -6.041540      -164.3987
  19   2.0000      -6.037700      -164.2942
  20   2.0000      -6.034035      -164.1944
  21   2.0000      -6.033550      -164.1812
  22   2.0000      -6.029888      -164.0816
  23   2.0000      -6.025551      -163.9636
  24   2.0000      -1.004165       -27.3247
  25   2.0000      -0.979491       -26.6533
  26   2.0000      -0.914968       -24.8976
  27   2.0000      -0.906332       -24.6626
  28   2.0000      -0.870830       -23.6965
  29   2.0000      -0.851990       -23.1838
  30   2.0000      -0.842384       -22.9224
  31   2.0000      -0.814143       -22.1540
  32   2.0000      -0.785029       -21.3617
  33   2.0000      -0.767905       -20.8958
  34   2.0000      -0.706756       -19.2318
  35   2.0000      -0.701084       -19.0775
  36   2.0000      -0.693592       -18.8736
  37   2.0000      -0.667216       -18.1559
  38   2.0000      -0.637947       -17.3594
  39   2.0000      -0.618462       -16.8292
  40   2.0000      -0.596339       -16.2272
  41   2.0000      -0.573445       -15.6042
  42   2.0000      -0.562918       -15.3178
  43   2.0000      -0.549104       -14.9419
  44   2.0000      -0.541495       -14.7348
  45   2.0000      -0.519757       -14.1433
  46   2.0000      -0.519626       -14.1397
  47   2.0000      -0.512393       -13.9429
  48   2.0000      -0.507221       -13.8022
  49   2.0000      -0.492131       -13.3916
  50   2.0000      -0.490244       -13.3402
  51   2.0000      -0.485595       -13.2137
  52   2.0000      -0.466304       -12.6888
  53   2.0000      -0.459554       -12.5051
  54   2.0000      -0.457653       -12.4534
  55   2.0000      -0.447841       -12.1864
  56   2.0000      -0.444046       -12.0831
  57   2.0000      -0.441492       -12.0136
  58   2.0000      -0.437020       -11.8919
  59   2.0000      -0.428733       -11.6664
  60   2.0000      -0.414236       -11.2719
  61   2.0000      -0.410646       -11.1742
  62   2.0000      -0.409202       -11.1349
  63   2.0000      -0.363797        -9.8994
  64   2.0000      -0.337424        -9.1818
  65   2.0000      -0.325558        -8.8589
  66   2.0000      -0.281775        -7.6675
  67   0.0000       0.014082         0.3832
  68   0.0000       0.082751         2.2518
  69   0.0000       0.100867         2.7447
  70   0.0000       0.111067         3.0223
  71   0.0000       0.123827         3.3695

MULLIKEN ATOMIC CHARGES
-----------------------
   0 S :    0.073996
   1 C :   -0.153576
   2 C :   -0.066061
   3 C :   -0.013695
   4 C :   -0.077678
   5 H :    0.002695
   6 C :    0.073468
   7 H :    0.040051
   8 H :    0.021252
   9 C :   -0.070147
  10 H :    0.041019
  11 H :    0.033443
  12 C :   -0.076326
  13 H :    0.041995
  14 H :    0.035855
  15 H :    0.042772
  16 S :    0.055236
  17 C :   -0.086129
  18 C :   -0.029018
  19 C :   -0.068420
  20 C :   -0.095550
  21 H :    0.038932
  22 C :    0.040840
  23 H :    0.015332
  24 H :    0.027020
  25 C :   -0.053804
  26 H :    0.012515
  27 H :    0.031127
  28 C :   -0.056914
  29 H :    0.023954
  30 H :    0.038283
  31 H :    0.028955
  32 H :    0.054517
  33 H :    0.074062
Sum of atomic charges:    0.0000000

LOEWDIN ATOMIC CHARGES
----------------------
   0 S :    0.395337
   1 C :   -0.182634
   2 C :   -0.061188
   3 C :   -0.068613
   4 C :   -0.178857
   5 H :    0.020499
   6 C :   -0.028464
   7 H :    0.034515
   8 H :    0.035240
   9 C :   -0.049523
  10 H :    0.035039
  11 H :    0.027636
  12 C :   -0.073704
  13 H :    0.032939
  14 H :    0.026856
  15 H :    0.026331
  16 S :    0.366253
  17 C :   -0.177896
  18 C :   -0.074519
  19 C :   -0.060505
  20 C :   -0.172037
  21 H :    0.041790
  22 C :   -0.033559
  23 H :    0.026112
  24 H :    0.023184
  25 C :   -0.037152
  26 H :    0.008083
  27 H :    0.027446
  28 C :   -0.068791
  29 H :    0.018917
  30 H :    0.026762
  31 H :    0.027923
  32 H :    0.026185
  33 H :    0.040392

  Mayer bond orders larger than 0.100000
B(  0-S ,  1-C ) :   1.1395 B(  0-S ,  4-C ) :   1.1200 B(  1-C ,  2-C ) :   1.6244
B(  1-C , 32-H ) :   0.9606 B(  2-C ,  3-C ) :   1.2464 B(  2-C ,  6-C ) :   1.0108
B(  3-C ,  4-C ) :   1.5720 B(  3-C ,  5-H ) :   0.9808 B(  4-C , 20-C ) :   1.0924
B(  6-C ,  7-H ) :   0.9419 B(  6-C ,  8-H ) :   0.9342 B(  6-C ,  9-C ) :   1.0728
B(  9-C , 10-H ) :   0.9504 B(  9-C , 11-H ) :   0.9567 B(  9-C , 12-C ) :   1.0756
B( 12-C , 13-H ) :   0.9709 B( 12-C , 14-H ) :   0.9738 B( 12-C , 15-H ) :   0.9713
B( 16-S , 17-C ) :   1.1251 B( 16-S , 20-C ) :   1.1176 B( 17-C , 18-C ) :   1.6453
B( 17-C , 33-H ) :   0.9589 B( 18-C , 19-C ) :   1.2345 B( 18-C , 21-H ) :   0.9752
B( 19-C , 20-C ) :   1.5656 B( 19-C , 22-C ) :   1.0666 B( 22-C , 23-H ) :   0.9309
B( 22-C , 24-H ) :   0.9335 B( 22-C , 25-C ) :   1.0444 B( 25-C , 26-H ) :   0.9529
B( 25-C , 27-H ) :   0.9613 B( 25-C , 28-C ) :   1.0703 B( 28-C , 29-H ) :   0.9769
B( 28-C , 30-H ) :   0.9773 B( 28-C , 31-H ) :   0.9755

Dispersion correction           -0.014216713
FINAL SINGLE POINT ENERGY     -1339.881140828063

DIPOLE MOMENT
-------------
                                X             Y             Z
Electronic contribution:      1.99850      -3.09527      -7.46424
Nuclear contribution   :     -2.01180       3.08072       7.67925
                        -----------------------------------------
Total Dipole Moment    :     -0.01330      -0.01455       0.21501
                        -----------------------------------------
Magnitude (a.u.)       :      0.21591
Magnitude (Debye)      :      0.54880

Rotational constants in cm-1:     0.021253     0.008587     0.006356
Rotational constants in MHz :   637.146326   257.431685   190.537004

                             ****ORCA TERMINATED NORMALLY****
TOTAL RUN TIME: 0 days 0 hours 0 minutes 29 seconds 669 msec
