                         Program Version 4.2.1 -  RELEASE  -
|  1> ! wB97X-D3 SP def2-SVP
|  2> %pal
|  3> nprocs 16
|  4> end
|  5>
|  6> * xyz 0 1
|  7> S 	 53.9675 	 25.4722 	 39.9666
|  8> C 	 54.5849 	 26.9855 	 40.4901
|  9> C 	 54.3027 	 27.313 	 41.8207
| 10> C 	 53.6659 	 26.1816 	 42.3983
| 11> C 	 53.3581 	 25.1558 	 41.5222
| 12> H 	 53.3373 	 26.0999 	 43.4014
| 13> C 	 54.7109 	 28.5795 	 42.5197
| 14> H 	 54.0485 	 28.7291 	 43.3419
| 15> H 	 54.4443 	 29.4846 	 41.9317
| 16> C 	 56.2199 	 28.5947 	 42.7501
| 17> H 	 56.5576 	 27.7223 	 43.2771
| 18> H 	 56.7313 	 28.4154 	 41.8002
| 19> C 	 56.6317 	 29.9468 	 43.4308
| 20> H 	 56.2474 	 30.7454 	 42.8429
| 21> H 	 56.1797 	 30.1405 	 44.3858
| 22> H 	 57.7342 	 30.1614 	 43.5191
| 23> S 	 53.6374 	 22.3472 	 41.8439
| 24> C 	 52.4473 	 21.4387 	 42.6288
| 25> C 	 51.3731 	 22.1998 	 42.9141
| 26> C 	 51.5127 	 23.5645 	 42.4649
| 27> C 	 52.7364 	 23.8894 	 41.9027
| 28> H 	 50.5269 	 21.7195 	 43.4546
| 29> C 	 50.4272 	 24.5133 	 42.5557
| 30> H 	 50.8581 	 25.5083 	 42.5415
| 31> H 	 49.8102 	 24.2401 	 43.4278
| 32> C 	 49.4558 	 24.4827 	 41.3622
| 33> H 	 49.1101 	 23.4909 	 41.2443
| 34> H 	 49.9899 	 24.6984 	 40.4644
| 35> C 	 48.2392 	 25.373 	 41.56
| 36> H 	 48.4413 	 26.4243 	 41.4007
| 37> H 	 48.0618 	 25.2145 	 42.6134
| 38> H 	 47.3572 	 25.1585 	 40.9088
| 39> H 	 55.0943 	 27.5951 	 39.7925
| 40> H 	 52.4858 	 20.3783 	 42.9816
| 41> *
| 42>
| 43>                          ****END OF INPUT****

CARTESIAN COORDINATES (ANGSTROEM)
---------------------------------
  S     53.967500   25.472200   39.966600
  C     54.584900   26.985500   40.490100
  C     54.302700   27.313000   41.820700
  C     53.665900   26.181600   42.398300
  C     53.358100   25.155800   41.522200
  H     53.337300   26.099900   43.401400
  C     54.710900   28.579500   42.519700
  H     54.048500   28.729100   43.341900
  H     54.444300   29.484600   41.931700
  C     56.219900   28.594700   42.750100
  H     56.557600   27.722300   43.277100
  H     56.731300   28.415400   41.800200
  C     56.631700   29.946800   43.430800
  H     56.247400   30.745400   42.842900
  H     56.179700   30.140500   44.385800
  H     57.734200   30.161400   43.519100
  S     53.637400   22.347200   41.843900
  C     52.447300   21.438700   42.628800
  C     51.373100   22.199800   42.914100
  C     51.512700   23.564500   42.464900
  C     52.736400   23.889400   41.902700
  H     50.526900   21.719500   43.454600
  C     50.427200   24.513300   42.555700
  H     50.858100   25.508300   42.541500
  H     49.810200   24.240100   43.427800
  C     49.455800   24.482700   41.362200
  H     49.110100   23.490900   41.244300
  H     49.989900   24.698400   40.464400
  C     48.239200   25.373000   41.560000
  H     48.441300   26.424300   41.400700
  H     48.061800   25.214500   42.613400
  H     47.357200   25.158500   40.908800
  H     55.094300   27.595100   39.792500
  H     52.485800   20.378300   42.981600

 Total Charge           Charge          ....    0
 Multiplicity           Mult            ....    1
 Number of Electrons    NEL             ....  134
 Basis Dimension        Dim             ....  322

ORBITAL ENERGIES
----------------

  NO   OCC          E(Eh)            E(eV)
   0   2.0000     -88.969655     -2420.9874
   1   2.0000     -88.958044     -2420.6715
   2   2.0000     -10.325691      -280.9763
   3   2.0000     -10.325283      -280.9652
   4   2.0000     -10.313408      -280.6421
   5   2.0000     -10.311145      -280.5805
   6   2.0000     -10.303535      -280.3734
   7   2.0000     -10.297864      -280.2191
   8   2.0000     -10.294995      -280.1411
   9   2.0000     -10.291842      -280.0553
  10   2.0000     -10.291007      -280.0325
  11   2.0000     -10.289963      -280.0041
  12   2.0000     -10.280697      -279.7520
  13   2.0000     -10.280581      -279.7488
  14   2.0000     -10.273343      -279.5519
  15   2.0000     -10.272109      -279.5183
  16   2.0000      -8.085784      -220.0254
  17   2.0000      -8.073638      -219.6949
  18   2.0000      -6.043914      -164.4633
  19   2.0000      -6.040013      -164.3571
  20   2.0000      -6.036955      -164.2739
  21   2.0000      -6.032163      -164.1435
  22   2.0000      -6.027899      -164.0275
  23   2.0000      -6.024421      -163.9328
  24   2.0000      -1.013677       -27.5836
  25   2.0000      -0.993149       -27.0250
  26   2.0000      -0.917332       -24.9619
  27   2.0000      -0.915985       -24.9252
  28   2.0000      -0.870759       -23.6945
  29   2.0000      -0.854635       -23.2558
  30   2.0000      -0.847709       -23.0673
  31   2.0000      -0.815872       -22.2010
  32   2.0000      -0.783898       -21.3310
  33   2.0000      -0.767429       -20.8828
  34   2.0000      -0.716776       -19.5045
  35   2.0000      -0.703879       -19.1535
  36   2.0000      -0.692900       -18.8548
  37   2.0000      -0.659576       -17.9480
  38   2.0000      -0.650147       -17.6914
  39   2.0000      -0.622839       -16.9483
  40   2.0000      -0.595294       -16.1988
  41   2.0000      -0.576489       -15.6871
  42   2.0000      -0.569602       -15.4997
  43   2.0000      -0.554706       -15.0943
  44   2.0000      -0.528063       -14.3693
  45   2.0000      -0.523668       -14.2497
  46   2.0000      -0.518569       -14.1110
  47   2.0000      -0.513289       -13.9673
  48   2.0000      -0.507189       -13.8013
  49   2.0000      -0.497765       -13.5449
  50   2.0000      -0.495743       -13.4899
  51   2.0000      -0.481354       -13.0983
  52   2.0000      -0.465893       -12.6776
  53   2.0000      -0.461270       -12.5518
  54   2.0000      -0.458774       -12.4839
  55   2.0000      -0.456580       -12.4242
  56   2.0000      -0.448466       -12.2034
  57   2.0000      -0.447128       -12.1670
  58   2.0000      -0.433611       -11.7992
  59   2.0000      -0.426709       -11.6114
  60   2.0000      -0.419623       -11.4185
  61   2.0000      -0.417601       -11.3635
  62   2.0000      -0.410400       -11.1676
  63   2.0000      -0.342908        -9.3310
  64   2.0000      -0.333715        -9.0808
  65   2.0000      -0.322848        -8.7851
  66   2.0000      -0.298182        -8.1139
  67   0.0000       0.039091         1.0637
  68   0.0000       0.065526         1.7831
  69   0.0000       0.118586         3.2269
  70   0.0000       0.129302         3.5185
  71   0.0000       0.131545         3.5795

MULLIKEN ATOMIC CHARGES
-----------------------
   0 S :    0.141336
   1 C :   -0.122048
   2 C :   -0.086157
   3 C :    0.055798
   4 C :   -0.197394
   5 H :   -0.003605
   6 C :    0.086773
   7 H :    0.012183
   8 H :    0.026003
   9 C :   -0.054398
  10 H :    0.027330
  11 H :    0.025709
  12 C :   -0.029759
  13 H :    0.011036
  14 H :    0.025695
  15 H :    0.044453
  16 S :    0.095908
  17 C :   -0.090903
  18 C :   -0.058421
  19 C :   -0.047331
  20 C :   -0.133407
  21 H :    0.029897
  22 C :    0.062441
  23 H :    0.020611
  24 H :    0.017408
  25 C :   -0.040251
  26 H :    0.005984
  27 H :    0.013589
  28 C :   -0.031756
  29 H :    0.027927
  30 H :    0.016056
  31 H :    0.043575
  32 H :    0.033412
  33 H :    0.072308
Sum of atomic charges:   -0.0000000

LOEWDIN ATOMIC CHARGES
----------------------
   0 S :    0.452782
   1 C :   -0.196208
   2 C :   -0.058869
   3 C :   -0.050541
   4 C :   -0.223175
   5 H :    0.025455
   6 C :   -0.032053
   7 H :    0.026605
   8 H :    0.036280
   9 C :   -0.033609
  10 H :    0.023386
  11 H :    0.027840
  12 C :   -0.069599
  13 H :    0.019176
  14 H :    0.023387
  15 H :    0.032935
  16 S :    0.405293
  17 C :   -0.205085
  18 C :   -0.091347
  19 C :   -0.054962
  20 C :   -0.196507
  21 H :    0.038611
  22 C :   -0.035502
  23 H :    0.030805
  24 H :    0.030432
  25 C :   -0.031419
  26 H :    0.016065
  27 H :    0.017260
  28 C :   -0.066007
  29 H :    0.022312
  30 H :    0.022569
  31 H :    0.032358
  32 H :    0.014276
  33 H :    0.047057

  Mayer bond orders larger than 0.100000
B(  0-S ,  1-C ) :   1.1814 B(  0-S ,  4-C ) :   1.1746 B(  1-C ,  2-C ) :   1.5521
B(  1-C , 32-H ) :   0.9736 B(  2-C ,  3-C ) :   1.2784 B(  2-C ,  6-C ) :   1.0252
B(  3-C ,  4-C ) :   1.5491 B(  3-C ,  5-H ) :   0.9990 B(  4-C , 20-C ) :   1.0210
B(  6-C ,  7-H ) :   0.9386 B(  6-C ,  8-H ) :   0.9354 B(  6-C ,  9-C ) :   1.0473
B(  9-C , 10-H ) :   0.9583 B(  9-C , 11-H ) :   0.9568 B(  9-C , 12-C ) :   1.0644
B( 12-C , 13-H ) :   0.9722 B( 12-C , 14-H ) :   0.9760 B( 12-C , 15-H ) :   0.9761
B( 16-S , 17-C ) :   1.1747 B( 16-S , 20-C ) :   1.1127 B( 17-C , 18-C ) :   1.6194
B( 17-C , 33-H ) :   0.9543 B( 18-C , 19-C ) :   1.2258 B( 18-C , 21-H ) :   0.9872
B( 19-C , 20-C ) :   1.6008 B( 19-C , 22-C ) :   1.0924 B( 22-C , 23-H ) :   0.9191
B( 22-C , 24-H ) :   0.9166 B( 22-C , 25-C ) :   1.0826 B( 25-C , 26-H ) :   0.9522
B( 25-C , 27-H ) :   0.9503 B( 25-C , 28-C ) :   1.0752 B( 28-C , 29-H ) :   0.9757
B( 28-C , 30-H ) :   0.9724 B( 28-C , 31-H ) :   0.9747

Dispersion correction           -0.013771215
FINAL SINGLE POINT ENERGY     -1339.878925580771

DIPOLE MOMENT
-------------
                                X             Y             Z
Electronic contribution:      7.51661     -20.28767      -8.96989
Nuclear contribution   :     -7.69939      20.69494       9.28793
                        -----------------------------------------
Total Dipole Moment    :     -0.18278       0.40727       0.31804
                        -----------------------------------------
Magnitude (a.u.)       :      0.54811
Magnitude (Debye)      :      1.39319

Rotational constants in cm-1:     0.019898     0.007413     0.006438
Rotational constants in MHz :   596.539883   222.230015   193.008347

                             ****ORCA TERMINATED NORMALLY****
TOTAL RUN TIME: 0 days 0 hours 0 minutes 29 seconds 462 msec
