                         Program Version 4.2.1 -  RELEASE  -
|  1> ! wB97X-D3 SP def2-SVP
|  2> %pal
|  3> nprocs 16
|  4> end
|  5>
|  6> * xyz 0 1
|  7> S 	 -66.2684 	 44.7732 	 126.766
|  8> C 	 -67.26 	 46.249 	 126.82
|  9> C 	 -67.0165 	 47.0127 	 125.659
| 10> C 	 -66.1526 	 46.3291 	 124.683
| 11> C 	 -65.6895 	 45.0995 	 125.156
| 12> H 	 -65.8708 	 46.7598 	 123.704
| 13> C 	 -67.5625 	 48.4743 	 125.472
| 14> H 	 -66.84 	 49.1976 	 125.243
| 15> H 	 -68.0673 	 48.8573 	 126.413
| 16> C 	 -68.5741 	 48.6176 	 124.347
| 17> H 	 -68.2645 	 48.1958 	 123.387
| 18> H 	 -69.4943 	 48.0823 	 124.57
| 19> C 	 -68.9358 	 50.1392 	 124.265
| 20> H 	 -68.1261 	 50.7705 	 123.836
| 21> H 	 -69.8167 	 50.2801 	 123.669
| 22> H 	 -69.318 	 50.4647 	 125.254
| 23> S 	 -63.2135 	 43.8576 	 125.17
| 24> C 	 -62.8849 	 42.778 	 123.799
| 25> C 	 -63.9148 	 42.6723 	 122.914
| 26> C 	 -65.0622 	 43.5024 	 123.266
| 27> C 	 -64.8263 	 44.1467 	 124.472
| 28> H 	 -63.6595 	 42.1128 	 122.016
| 29> C 	 -66.1692 	 43.7421 	 122.292
| 30> H 	 -65.7237 	 43.6627 	 121.336
| 31> H 	 -66.4735 	 44.7786 	 122.383
| 32> C 	 -67.3411 	 42.853 	 122.611
| 33> H 	 -67.4411 	 42.9165 	 123.681
| 34> H 	 -67.1627 	 41.8033 	 122.139
| 35> C 	 -68.7084 	 43.2752 	 122.098
| 36> H 	 -68.6872 	 43.5378 	 121.041
| 37> H 	 -69.0058 	 44.1832 	 122.683
| 38> H 	 -69.5688 	 42.5648 	 122.286
| 39> H 	 -67.9529 	 46.4586 	 127.63
| 40> H 	 -61.9476 	 42.2053 	 123.779
| 41> *
| 42>
| 43>                          ****END OF INPUT****

CARTESIAN COORDINATES (ANGSTROEM)
---------------------------------
  S    -66.268400   44.773200  126.766000
  C    -67.260000   46.249000  126.820000
  C    -67.016500   47.012700  125.659000
  C    -66.152600   46.329100  124.683000
  C    -65.689500   45.099500  125.156000
  H    -65.870800   46.759800  123.704000
  C    -67.562500   48.474300  125.472000
  H    -66.840000   49.197600  125.243000
  H    -68.067300   48.857300  126.413000
  C    -68.574100   48.617600  124.347000
  H    -68.264500   48.195800  123.387000
  H    -69.494300   48.082300  124.570000
  C    -68.935800   50.139200  124.265000
  H    -68.126100   50.770500  123.836000
  H    -69.816700   50.280100  123.669000
  H    -69.318000   50.464700  125.254000
  S    -63.213500   43.857600  125.170000
  C    -62.884900   42.778000  123.799000
  C    -63.914800   42.672300  122.914000
  C    -65.062200   43.502400  123.266000
  C    -64.826300   44.146700  124.472000
  H    -63.659500   42.112800  122.016000
  C    -66.169200   43.742100  122.292000
  H    -65.723700   43.662700  121.336000
  H    -66.473500   44.778600  122.383000
  C    -67.341100   42.853000  122.611000
  H    -67.441100   42.916500  123.681000
  H    -67.162700   41.803300  122.139000
  C    -68.708400   43.275200  122.098000
  H    -68.687200   43.537800  121.041000
  H    -69.005800   44.183200  122.683000
  H    -69.568800   42.564800  122.286000
  H    -67.952900   46.458600  127.630000
  H    -61.947600   42.205300  123.779000

 Total Charge           Charge          ....    0
 Multiplicity           Mult            ....    1
 Number of Electrons    NEL             ....  134
 Basis Dimension        Dim             ....  322

ORBITAL ENERGIES
----------------

  NO   OCC          E(Eh)            E(eV)
   0   2.0000     -88.966153     -2420.8921
   1   2.0000     -88.965067     -2420.8625
   2   2.0000     -10.331890      -281.1450
   3   2.0000     -10.327608      -281.0285
   4   2.0000     -10.321757      -280.8693
   5   2.0000     -10.318299      -280.7752
   6   2.0000     -10.314079      -280.6603
   7   2.0000     -10.306812      -280.4626
   8   2.0000     -10.304849      -280.4092
   9   2.0000     -10.295818      -280.1635
  10   2.0000     -10.295672      -280.1595
  11   2.0000     -10.286923      -279.9214
  12   2.0000     -10.286850      -279.9194
  13   2.0000     -10.285545      -279.8839
  14   2.0000     -10.283188      -279.8198
  15   2.0000     -10.279439      -279.7177
  16   2.0000      -8.080546      -219.8828
  17   2.0000      -8.079280      -219.8484
  18   2.0000      -6.039103      -164.3324
  19   2.0000      -6.037792      -164.2967
  20   2.0000      -6.034954      -164.2194
  21   2.0000      -6.034073      -164.1955
  22   2.0000      -6.031412      -164.1231
  23   2.0000      -6.029859      -164.0808
  24   2.0000      -1.000885       -27.2355
  25   2.0000      -0.975751       -26.5515
  26   2.0000      -0.914958       -24.8973
  27   2.0000      -0.909777       -24.7563
  28   2.0000      -0.867040       -23.5933
  29   2.0000      -0.849288       -23.1103
  30   2.0000      -0.839329       -22.8393
  31   2.0000      -0.812092       -22.0982
  32   2.0000      -0.782081       -21.2815
  33   2.0000      -0.769058       -20.9271
  34   2.0000      -0.704157       -19.1611
  35   2.0000      -0.695692       -18.9307
  36   2.0000      -0.686029       -18.6678
  37   2.0000      -0.659471       -17.9451
  38   2.0000      -0.643436       -17.5088
  39   2.0000      -0.618000       -16.8166
  40   2.0000      -0.594026       -16.1643
  41   2.0000      -0.575079       -15.6487
  42   2.0000      -0.570614       -15.5272
  43   2.0000      -0.556919       -15.1545
  44   2.0000      -0.525179       -14.2909
  45   2.0000      -0.522893       -14.2286
  46   2.0000      -0.511813       -13.9271
  47   2.0000      -0.506795       -13.7906
  48   2.0000      -0.505222       -13.7478
  49   2.0000      -0.495088       -13.4720
  50   2.0000      -0.491330       -13.3698
  51   2.0000      -0.483594       -13.1593
  52   2.0000      -0.465788       -12.6747
  53   2.0000      -0.460812       -12.5393
  54   2.0000      -0.457517       -12.4497
  55   2.0000      -0.446612       -12.1529
  56   2.0000      -0.444939       -12.1074
  57   2.0000      -0.437989       -11.9183
  58   2.0000      -0.433620       -11.7994
  59   2.0000      -0.424848       -11.5607
  60   2.0000      -0.421044       -11.4572
  61   2.0000      -0.413879       -11.2622
  62   2.0000      -0.407035       -11.0760
  63   2.0000      -0.340710        -9.2712
  64   2.0000      -0.330751        -9.0002
  65   2.0000      -0.328113        -8.9284
  66   2.0000      -0.297943        -8.1075
  67   0.0000       0.035616         0.9692
  68   0.0000       0.061216         1.6658
  69   0.0000       0.106340         2.8937
  70   0.0000       0.114759         3.1227
  71   0.0000       0.123260         3.3541

MULLIKEN ATOMIC CHARGES
-----------------------
   0 S :    0.108222
   1 C :   -0.135988
   2 C :   -0.070878
   3 C :    0.041758
   4 C :   -0.173857
   5 H :    0.034192
   6 C :    0.062441
   7 H :    0.019869
   8 H :    0.026360
   9 C :   -0.092260
  10 H :    0.030060
  11 H :    0.024600
  12 C :   -0.063796
  13 H :    0.050377
  14 H :    0.023274
  15 H :    0.028903
  16 S :    0.102424
  17 C :   -0.112123
  18 C :   -0.030137
  19 C :   -0.047317
  20 C :   -0.167726
  21 H :    0.026888
  22 C :    0.144864
  23 H :    0.013868
  24 H :   -0.001276
  25 C :   -0.085919
  26 H :    0.040061
  27 H :    0.044862
  28 C :   -0.072650
  29 H :    0.028475
  30 H :    0.030698
  31 H :    0.046916
  32 H :    0.060084
  33 H :    0.064730
Sum of atomic charges:   -0.0000000

LOEWDIN ATOMIC CHARGES
----------------------
   0 S :    0.400264
   1 C :   -0.194814
   2 C :   -0.055151
   3 C :   -0.067968
   4 C :   -0.200231
   5 H :    0.036498
   6 C :   -0.029729
   7 H :    0.022799
   8 H :    0.035734
   9 C :   -0.041803
  10 H :    0.020313
  11 H :    0.022312
  12 C :   -0.069284
  13 H :    0.029808
  14 H :    0.021609
  15 H :    0.028209
  16 S :    0.376241
  17 C :   -0.173630
  18 C :   -0.074000
  19 C :   -0.041234
  20 C :   -0.195000
  21 H :    0.037229
  22 C :   -0.027935
  23 H :    0.026245
  24 H :    0.028839
  25 C :   -0.044522
  26 H :    0.029298
  27 H :    0.035047
  28 C :   -0.077125
  29 H :    0.019623
  30 H :    0.026922
  31 H :    0.033522
  32 H :    0.030967
  33 H :    0.030950

  Mayer bond orders larger than 0.100000
B(  0-S ,  1-C ) :   1.1292 B(  0-S ,  4-C ) :   1.1603 B(  1-C ,  2-C ) :   1.6108
B(  1-C , 32-H ) :   0.9729 B(  2-C ,  3-C ) :   1.2258 B(  2-C ,  6-C ) :   1.0106
B(  3-C ,  4-C ) :   1.5794 B(  3-C ,  5-H ) :   0.9834 B(  4-C , 20-C ) :   1.0187
B(  6-C ,  7-H ) :   0.9500 B(  6-C ,  8-H ) :   0.9499 B(  6-C ,  9-C ) :   1.0512
B(  9-C , 10-H ) :   0.9601 B(  9-C , 11-H ) :   0.9551 B(  9-C , 12-C ) :   1.0796
B( 12-C , 13-H ) :   0.9755 B( 12-C , 14-H ) :   0.9740 B( 12-C , 15-H ) :   0.9717
B( 16-S , 17-C ) :   1.1311 B( 16-S , 20-C ) :   1.1334 B( 17-C , 18-C ) :   1.6726
B( 17-C , 33-H ) :   0.9615 B( 18-C , 19-C ) :   1.1842 B( 18-C , 21-H ) :   0.9852
B( 19-C , 20-C ) :   1.6351 B( 19-C , 22-C ) :   1.0397 B( 22-C , 23-H ) :   0.9241
B( 22-C , 24-H ) :   0.9254 B( 22-C , 25-C ) :   1.0588 B( 25-C , 26-H ) :   0.9621
B( 25-C , 27-H ) :   0.9496 B( 25-C , 28-C ) :   1.0880 B( 28-C , 29-H ) :   0.9721
B( 28-C , 30-H ) :   0.9739 B( 28-C , 31-H ) :   0.9741

Dispersion correction           -0.014171203
FINAL SINGLE POINT ENERGY     -1339.874226850971

DIPOLE MOMENT
-------------
                                X             Y             Z
Electronic contribution:     22.40688     -13.37384      15.60670
Nuclear contribution   :    -22.70302      13.69250     -16.14045
                        -----------------------------------------
Total Dipole Moment    :     -0.29614       0.31866      -0.53375
                        -----------------------------------------
Magnitude (a.u.)       :      0.68857
Magnitude (Debye)      :      1.75021

Rotational constants in cm-1:     0.018440     0.008391     0.006865
Rotational constants in MHz :   552.815687   251.565360   205.797975

                             ****ORCA TERMINATED NORMALLY****
TOTAL RUN TIME: 0 days 0 hours 0 minutes 33 seconds 310 msec
