                         Program Version 4.2.1 -  RELEASE  -
|  1> ! wB97X-D3 SP def2-SVP
|  2> %pal
|  3> nprocs 16
|  4> end
|  5>
|  6> * xyz 0 1
|  7> S 	 -3.15737 	 -10.1139 	 85.9704
|  8> C 	 -1.59091 	 -10.5827 	 86.7175
|  9> C 	 -1.30269 	 -9.80239 	 87.8106
| 10> C 	 -2.19892 	 -8.69808 	 87.9145
| 11> C 	 -3.19452 	 -8.59078 	 86.9311
| 12> H 	 -2.10045 	 -7.87699 	 88.6336
| 13> C 	 0.0428158 	 -9.86433 	 88.5584
| 14> H 	 0.388681 	 -8.88039 	 88.8557
| 15> H 	 0.775553 	 -10.2403 	 87.7313
| 16> C 	 0.0537192 	 -10.8344 	 89.7196
| 17> H 	 0.969059 	 -10.6011 	 90.2161
| 18> H 	 -0.870923 	 -10.7549 	 90.3495
| 19> C 	 0.182215 	 -12.3649 	 89.3045
| 20> H 	 1.03165 	 -12.7374 	 88.7802
| 21> H 	 0.0105741 	 -13.0405 	 90.0844
| 22> H 	 -0.657762 	 -12.5572 	 88.6137
| 23> S 	 -5.70142 	 -8.11868 	 86.1302
| 24> C 	 -6.47171 	 -6.57362 	 86.2988
| 25> C 	 -5.60632 	 -5.64428 	 86.771
| 26> C 	 -4.29566 	 -6.23453 	 87.0334
| 27> C 	 -4.19277 	 -7.57374 	 86.762
| 28> H 	 -5.86667 	 -4.61567 	 86.8808
| 29> C 	 -3.2544 	 -5.34821 	 87.6096
| 30> H 	 -3.35511 	 -4.35779 	 87.1944
| 31> H 	 -2.29709 	 -5.64828 	 87.2687
| 32> C 	 -3.20447 	 -5.12694 	 89.1479
| 33> H 	 -2.56374 	 -4.26317 	 89.3496
| 34> H 	 -2.68385 	 -6.00374 	 89.6292
| 35> C 	 -4.52958 	 -4.85844 	 89.8488
| 36> H 	 -5.26948 	 -5.71786 	 89.699
| 37> H 	 -4.93934 	 -3.91738 	 89.3847
| 38> H 	 -4.58608 	 -4.58832 	 90.9678
| 39> H 	 -0.919888 	 -11.3048 	 86.3551
| 40> H 	 -7.36423 	 -6.2615 	 85.7127
| 41> *
| 42>
| 43>                          ****END OF INPUT****

CARTESIAN COORDINATES (ANGSTROEM)
---------------------------------
  S     -3.157370  -10.113900   85.970400
  C     -1.590910  -10.582700   86.717500
  C     -1.302690   -9.802390   87.810600
  C     -2.198920   -8.698080   87.914500
  C     -3.194520   -8.590780   86.931100
  H     -2.100450   -7.876990   88.633600
  C      0.042816   -9.864330   88.558400
  H      0.388681   -8.880390   88.855700
  H      0.775553  -10.240300   87.731300
  C      0.053719  -10.834400   89.719600
  H      0.969059  -10.601100   90.216100
  H     -0.870923  -10.754900   90.349500
  C      0.182215  -12.364900   89.304500
  H      1.031650  -12.737400   88.780200
  H      0.010574  -13.040500   90.084400
  H     -0.657762  -12.557200   88.613700
  S     -5.701420   -8.118680   86.130200
  C     -6.471710   -6.573620   86.298800
  C     -5.606320   -5.644280   86.771000
  C     -4.295660   -6.234530   87.033400
  C     -4.192770   -7.573740   86.762000
  H     -5.866670   -4.615670   86.880800
  C     -3.254400   -5.348210   87.609600
  H     -3.355110   -4.357790   87.194400
  H     -2.297090   -5.648280   87.268700
  C     -3.204470   -5.126940   89.147900
  H     -2.563740   -4.263170   89.349600
  H     -2.683850   -6.003740   89.629200
  C     -4.529580   -4.858440   89.848800
  H     -5.269480   -5.717860   89.699000
  H     -4.939340   -3.917380   89.384700
  H     -4.586080   -4.588320   90.967800
  H     -0.919888  -11.304800   86.355100
  H     -7.364230   -6.261500   85.712700

 Total Charge           Charge          ....    0
 Multiplicity           Mult            ....    1
 Number of Electrons    NEL             ....  134
 Basis Dimension        Dim             ....  322

ORBITAL ENERGIES
----------------

  NO   OCC          E(Eh)            E(eV)
   0   2.0000     -88.968431     -2420.9541
   1   2.0000     -88.960887     -2420.7488
   2   2.0000     -10.338568      -281.3267
   3   2.0000     -10.327872      -281.0357
   4   2.0000     -10.317734      -280.7598
   5   2.0000     -10.315562      -280.7007
   6   2.0000     -10.303907      -280.3836
   7   2.0000     -10.303461      -280.3714
   8   2.0000     -10.302869      -280.3553
   9   2.0000     -10.300672      -280.2955
  10   2.0000     -10.294397      -280.1248
  11   2.0000     -10.293711      -280.1061
  12   2.0000     -10.293581      -280.1026
  13   2.0000     -10.290726      -280.0249
  14   2.0000     -10.286868      -279.9199
  15   2.0000     -10.273315      -279.5511
  16   2.0000      -8.081593      -219.9113
  17   2.0000      -8.076996      -219.7862
  18   2.0000      -6.040364      -164.3667
  19   2.0000      -6.036459      -164.2604
  20   2.0000      -6.035667      -164.2389
  21   2.0000      -6.032011      -164.1394
  22   2.0000      -6.031258      -164.1189
  23   2.0000      -6.027545      -164.0179
  24   2.0000      -1.011617       -27.5275
  25   2.0000      -0.982626       -26.7386
  26   2.0000      -0.911887       -24.8137
  27   2.0000      -0.909469       -24.7479
  28   2.0000      -0.874878       -23.8066
  29   2.0000      -0.847770       -23.0690
  30   2.0000      -0.839399       -22.8412
  31   2.0000      -0.817634       -22.2490
  32   2.0000      -0.785959       -21.3870
  33   2.0000      -0.777474       -21.1561
  34   2.0000      -0.714483       -19.4421
  35   2.0000      -0.699687       -19.0395
  36   2.0000      -0.689050       -18.7500
  37   2.0000      -0.668977       -18.2038
  38   2.0000      -0.639682       -17.4066
  39   2.0000      -0.617491       -16.8028
  40   2.0000      -0.592757       -16.1297
  41   2.0000      -0.577539       -15.7156
  42   2.0000      -0.559181       -15.2161
  43   2.0000      -0.549743       -14.9593
  44   2.0000      -0.542072       -14.7505
  45   2.0000      -0.539027       -14.6677
  46   2.0000      -0.517187       -14.0734
  47   2.0000      -0.515105       -14.0167
  48   2.0000      -0.501361       -13.6427
  49   2.0000      -0.497917       -13.5490
  50   2.0000      -0.487109       -13.2549
  51   2.0000      -0.483627       -13.1602
  52   2.0000      -0.476325       -12.9615
  53   2.0000      -0.462505       -12.5854
  54   2.0000      -0.460100       -12.5200
  55   2.0000      -0.446716       -12.1557
  56   2.0000      -0.446319       -12.1450
  57   2.0000      -0.438539       -11.9332
  58   2.0000      -0.429568       -11.6891
  59   2.0000      -0.424799       -11.5594
  60   2.0000      -0.414090       -11.2680
  61   2.0000      -0.411180       -11.1888
  62   2.0000      -0.406203       -11.0533
  63   2.0000      -0.362582        -9.8663
  64   2.0000      -0.334900        -9.1131
  65   2.0000      -0.326427        -8.8825
  66   2.0000      -0.287886        -7.8338
  67   0.0000       0.015778         0.4294
  68   0.0000       0.075099         2.0436
  69   0.0000       0.096825         2.6347
  70   0.0000       0.112760         3.0684
  71   0.0000       0.129398         3.5211

MULLIKEN ATOMIC CHARGES
-----------------------
   0 S :    0.093372
   1 C :   -0.095553
   2 C :   -0.054330
   3 C :    0.011415
   4 C :   -0.119216
   5 H :   -0.007588
   6 C :    0.006193
   7 H :    0.031345
   8 H :    0.044352
   9 C :   -0.041365
  10 H :    0.030442
  11 H :    0.051179
  12 C :   -0.056298
  13 H :    0.024792
  14 H :    0.022596
  15 H :    0.018563
  16 S :    0.077979
  17 C :   -0.080338
  18 C :   -0.032695
  19 C :   -0.089000
  20 C :   -0.096077
  21 H :    0.015207
  22 C :    0.085283
  23 H :    0.011737
  24 H :    0.012693
  25 C :   -0.068994
  26 H :    0.031876
  27 H :    0.037493
  28 C :   -0.119214
  29 H :    0.063917
  30 H :    0.024678
  31 H :    0.052005
  32 H :    0.036434
  33 H :    0.077120
Sum of atomic charges:   -0.0000000

LOEWDIN ATOMIC CHARGES
----------------------
   0 S :    0.360095
   1 C :   -0.164894
   2 C :   -0.065753
   3 C :   -0.060651
   4 C :   -0.173436
   5 H :    0.028031
   6 C :   -0.031083
   7 H :    0.027939
   8 H :    0.043861
   9 C :   -0.035532
  10 H :    0.021685
  11 H :    0.036041
  12 C :   -0.070474
  13 H :    0.019635
  14 H :    0.019157
  15 H :    0.025842
  16 S :    0.411456
  17 C :   -0.196651
  18 C :   -0.062392
  19 C :   -0.062221
  20 C :   -0.196408
  21 H :    0.029269
  22 C :   -0.033445
  23 H :    0.030261
  24 H :    0.026349
  25 C :   -0.043327
  26 H :    0.026528
  27 H :    0.020716
  28 C :   -0.088265
  29 H :    0.035133
  30 H :    0.024027
  31 H :    0.036811
  32 H :    0.019473
  33 H :    0.042223

  Mayer bond orders larger than 0.100000
B(  0-S ,  1-C ) :   1.1224 B(  0-S ,  4-C ) :   1.1149 B(  1-C ,  2-C ) :   1.6283
B(  1-C ,  4-C ) :   0.1039 B(  1-C , 32-H ) :   0.9665 B(  2-C ,  3-C ) :   1.2347
B(  2-C ,  6-C ) :   1.0004 B(  3-C ,  4-C ) :   1.5770 B(  3-C ,  5-H ) :   0.9893
B(  4-C , 20-C ) :   1.0941 B(  6-C ,  7-H ) :   0.9524 B(  6-C ,  8-H ) :   0.9506
B(  6-C ,  9-C ) :   1.0586 B(  9-C , 10-H ) :   0.9564 B(  9-C , 11-H ) :   0.9572
B(  9-C , 12-C ) :   1.0682 B( 12-C , 13-H ) :   0.9781 B( 12-C , 14-H ) :   0.9757
B( 12-C , 15-H ) :   0.9729 B( 16-S , 17-C ) :   1.1518 B( 16-S , 20-C ) :   1.1209
B( 17-C , 18-C ) :   1.6247 B( 17-C , 33-H ) :   0.9541 B( 18-C , 19-C ) :   1.2226
B( 18-C , 21-H ) :   0.9960 B( 19-C , 20-C ) :   1.5970 B( 19-C , 22-C ) :   1.0666
B( 22-C , 23-H ) :   0.9260 B( 22-C , 24-H ) :   0.9287 B( 22-C , 25-C ) :   1.0680
B( 25-C , 26-H ) :   0.9534 B( 25-C , 27-H ) :   0.9517 B( 25-C , 28-C ) :   1.0746
B( 28-C , 29-H ) :   0.9680 B( 28-C , 30-H ) :   0.9712 B( 28-C , 31-H ) :   0.9731

Dispersion correction           -0.014621560
FINAL SINGLE POINT ENERGY     -1339.862888031936

DIPOLE MOMENT
-------------
                                X             Y             Z
Electronic contribution:    -15.68883      -5.02151     -19.65728
Nuclear contribution   :     16.20102       5.50422      19.97336
                        -----------------------------------------
Total Dipole Moment    :      0.51219       0.48271       0.31608
                        -----------------------------------------
Magnitude (a.u.)       :      0.77153
Magnitude (Debye)      :      1.96107

Rotational constants in cm-1:     0.021547     0.008204     0.006352
Rotational constants in MHz :   645.956349   245.953654   190.432297

                             ****ORCA TERMINATED NORMALLY****
TOTAL RUN TIME: 0 days 0 hours 0 minutes 34 seconds 235 msec
