                         Program Version 4.2.1 -  RELEASE  -
|  1> ! wB97X-D3 SP def2-SVP
|  2> %pal
|  3> nprocs 16
|  4> end
|  5>
|  6> * xyz 0 1
|  7> S 	 -10.0392 	 56.9412 	 58.1454
|  8> C 	 -8.9003 	 55.9798 	 57.2678
|  9> C 	 -8.45743 	 56.6102 	 56.1308
| 10> C 	 -8.8967 	 57.9673 	 56.009
| 11> C 	 -9.79283 	 58.3173 	 57.0082
| 12> H 	 -8.70987 	 58.6495 	 55.2426
| 13> C 	 -7.45185 	 55.9572 	 55.1579
| 14> H 	 -8.00415 	 55.6595 	 54.2392
| 15> H 	 -7.21856 	 54.987 	 55.6107
| 16> C 	 -6.20639 	 56.7718 	 54.9838
| 17> H 	 -5.48905 	 56.2506 	 54.2947
| 18> H 	 -6.41709 	 57.6846 	 54.4436
| 19> C 	 -5.48296 	 57.0361 	 56.2902
| 20> H 	 -4.51566 	 57.6174 	 56.0749
| 21> H 	 -6.11246 	 57.573 	 56.9699
| 22> H 	 -5.18466 	 56.1463 	 56.7493
| 23> S 	 -10.3319 	 60.0227 	 59.1314
| 24> C 	 -10.6544 	 61.6808 	 58.9168
| 25> C 	 -10.8647 	 61.9346 	 57.581
| 26> C 	 -10.6638 	 60.7989 	 56.7001
| 27> C 	 -10.1963 	 59.6716 	 57.4311
| 28> H 	 -11.2442 	 62.8425 	 57.1901
| 29> C 	 -10.781 	 60.9107 	 55.173
| 30> H 	 -11.8275 	 61.2097 	 55.02
| 31> H 	 -10.642 	 59.8536 	 54.7762
| 32> C 	 -9.86269 	 61.8483 	 54.3942
| 33> H 	 -10.0337 	 62.8258 	 54.8144
| 34> H 	 -10.1481 	 61.7661 	 53.3088
| 35> C 	 -8.36814 	 61.5436 	 54.5207
| 36> H 	 -7.68498 	 62.2014 	 53.873
| 37> H 	 -8.20028 	 60.4574 	 54.4174
| 38> H 	 -8.1428 	 61.7143 	 55.6112
| 39> H 	 -8.70847 	 54.9647 	 57.5102
| 40> H 	 -10.8559 	 62.4971 	 59.659
| 41> *
| 42>
| 43>                          ****END OF INPUT****

CARTESIAN COORDINATES (ANGSTROEM)
---------------------------------
  S    -10.039200   56.941200   58.145400
  C     -8.900300   55.979800   57.267800
  C     -8.457430   56.610200   56.130800
  C     -8.896700   57.967300   56.009000
  C     -9.792830   58.317300   57.008200
  H     -8.709870   58.649500   55.242600
  C     -7.451850   55.957200   55.157900
  H     -8.004150   55.659500   54.239200
  H     -7.218560   54.987000   55.610700
  C     -6.206390   56.771800   54.983800
  H     -5.489050   56.250600   54.294700
  H     -6.417090   57.684600   54.443600
  C     -5.482960   57.036100   56.290200
  H     -4.515660   57.617400   56.074900
  H     -6.112460   57.573000   56.969900
  H     -5.184660   56.146300   56.749300
  S    -10.331900   60.022700   59.131400
  C    -10.654400   61.680800   58.916800
  C    -10.864700   61.934600   57.581000
  C    -10.663800   60.798900   56.700100
  C    -10.196300   59.671600   57.431100
  H    -11.244200   62.842500   57.190100
  C    -10.781000   60.910700   55.173000
  H    -11.827500   61.209700   55.020000
  H    -10.642000   59.853600   54.776200
  C     -9.862690   61.848300   54.394200
  H    -10.033700   62.825800   54.814400
  H    -10.148100   61.766100   53.308800
  C     -8.368140   61.543600   54.520700
  H     -7.684980   62.201400   53.873000
  H     -8.200280   60.457400   54.417400
  H     -8.142800   61.714300   55.611200
  H     -8.708470   54.964700   57.510200
  H    -10.855900   62.497100   59.659000

 Total Charge           Charge          ....    0
 Multiplicity           Mult            ....    1
 Number of Electrons    NEL             ....  134
 Basis Dimension        Dim             ....  322

ORBITAL ENERGIES
----------------

  NO   OCC          E(Eh)            E(eV)
   0   2.0000     -88.967171     -2420.9198
   1   2.0000     -88.966231     -2420.8942
   2   2.0000     -10.337979      -281.3107
   3   2.0000     -10.332515      -281.1620
   4   2.0000     -10.319209      -280.8000
   5   2.0000     -10.311962      -280.6028
   6   2.0000     -10.307993      -280.4947
   7   2.0000     -10.302507      -280.3455
   8   2.0000     -10.298983      -280.2496
   9   2.0000     -10.295605      -280.1576
  10   2.0000     -10.294035      -280.1149
  11   2.0000     -10.291758      -280.0530
  12   2.0000     -10.291042      -280.0335
  13   2.0000     -10.288113      -279.9538
  14   2.0000     -10.285991      -279.8960
  15   2.0000     -10.271858      -279.5115
  16   2.0000      -8.082587      -219.9384
  17   2.0000      -8.080787      -219.8894
  18   2.0000      -6.041180      -164.3889
  19   2.0000      -6.039364      -164.3394
  20   2.0000      -6.036875      -164.2717
  21   2.0000      -6.035304      -164.2290
  22   2.0000      -6.033306      -164.1746
  23   2.0000      -6.031499      -164.1254
  24   2.0000      -1.007415       -27.4132
  25   2.0000      -0.986393       -26.8411
  26   2.0000      -0.914815       -24.8934
  27   2.0000      -0.910726       -24.7821
  28   2.0000      -0.870600       -23.6902
  29   2.0000      -0.850070       -23.1316
  30   2.0000      -0.842872       -22.9357
  31   2.0000      -0.817592       -22.2478
  32   2.0000      -0.781439       -21.2640
  33   2.0000      -0.771737       -21.0000
  34   2.0000      -0.710777       -19.3412
  35   2.0000      -0.692043       -18.8314
  36   2.0000      -0.691492       -18.8164
  37   2.0000      -0.657101       -17.8806
  38   2.0000      -0.645638       -17.5687
  39   2.0000      -0.625838       -17.0299
  40   2.0000      -0.593178       -16.1412
  41   2.0000      -0.564312       -15.3557
  42   2.0000      -0.554911       -15.0999
  43   2.0000      -0.550354       -14.9759
  44   2.0000      -0.548683       -14.9304
  45   2.0000      -0.542529       -14.7630
  46   2.0000      -0.515632       -14.0311
  47   2.0000      -0.514199       -13.9921
  48   2.0000      -0.508151       -13.8275
  49   2.0000      -0.498313       -13.5598
  50   2.0000      -0.492083       -13.3903
  51   2.0000      -0.477805       -13.0017
  52   2.0000      -0.467741       -12.7279
  53   2.0000      -0.462898       -12.5961
  54   2.0000      -0.458109       -12.4658
  55   2.0000      -0.448087       -12.1931
  56   2.0000      -0.446668       -12.1544
  57   2.0000      -0.437574       -11.9070
  58   2.0000      -0.436703       -11.8833
  59   2.0000      -0.424298       -11.5457
  60   2.0000      -0.416796       -11.3416
  61   2.0000      -0.410625       -11.1737
  62   2.0000      -0.408626       -11.1193
  63   2.0000      -0.360307        -9.8045
  64   2.0000      -0.333605        -9.0779
  65   2.0000      -0.326975        -8.8975
  66   2.0000      -0.287589        -7.8257
  67   0.0000       0.022253         0.6055
  68   0.0000       0.075399         2.0517
  69   0.0000       0.107409         2.9228
  70   0.0000       0.121751         3.3130
  71   0.0000       0.128677         3.5015

MULLIKEN ATOMIC CHARGES
-----------------------
   0 S :    0.092329
   1 C :   -0.111146
   2 C :   -0.117452
   3 C :    0.070791
   4 C :   -0.127282
   5 H :   -0.049011
   6 C :    0.093719
   7 H :    0.044319
   8 H :    0.005037
   9 C :   -0.084882
  10 H :    0.030834
  11 H :    0.027049
  12 C :   -0.035495
  13 H :    0.041082
  14 H :    0.046528
  15 H :    0.013975
  16 S :    0.114830
  17 C :   -0.087743
  18 C :   -0.032500
  19 C :   -0.071734
  20 C :   -0.143528
  21 H :    0.002315
  22 C :    0.018456
  23 H :    0.040998
  24 H :    0.032566
  25 C :   -0.047763
  26 H :    0.024791
  27 H :    0.044428
  28 C :   -0.090259
  29 H :    0.058686
  30 H :    0.030790
  31 H :    0.046136
  32 H :    0.040823
  33 H :    0.078313
Sum of atomic charges:   -0.0000000

LOEWDIN ATOMIC CHARGES
----------------------
   0 S :    0.386330
   1 C :   -0.195268
   2 C :   -0.062455
   3 C :   -0.053412
   4 C :   -0.164493
   5 H :    0.015049
   6 C :   -0.032318
   7 H :    0.036388
   8 H :    0.026516
   9 C :   -0.048731
  10 H :    0.029558
  11 H :    0.019851
  12 C :   -0.057458
  13 H :    0.036850
  14 H :    0.024656
  15 H :    0.015471
  16 S :    0.432697
  17 C :   -0.212807
  18 C :   -0.075229
  19 C :   -0.061619
  20 C :   -0.205401
  21 H :    0.021064
  22 C :   -0.040041
  23 H :    0.037754
  24 H :    0.033616
  25 C :   -0.043742
  26 H :    0.019954
  27 H :    0.031895
  28 C :   -0.077522
  29 H :    0.037748
  30 H :    0.019561
  31 H :    0.034272
  32 H :    0.022404
  33 H :    0.048858

  Mayer bond orders larger than 0.100000
B(  0-S ,  1-C ) :   1.1380 B(  0-S ,  4-C ) :   1.1397 B(  1-C ,  2-C ) :   1.6189
B(  1-C , 32-H ) :   0.9668 B(  2-C ,  3-C ) :   1.2295 B(  2-C ,  6-C ) :   1.0129
B(  3-C ,  4-C ) :   1.5754 B(  3-C ,  5-H ) :   0.9976 B(  4-C , 20-C ) :   1.0543
B(  6-C ,  7-H ) :   0.9365 B(  6-C ,  8-H ) :   0.9401 B(  6-C ,  9-C ) :   1.0734
B(  9-C , 10-H ) :   0.9528 B(  9-C , 11-H ) :   0.9530 B(  9-C , 12-C ) :   1.0759
B( 12-C , 13-H ) :   0.9721 B( 12-C , 14-H ) :   0.9724 B( 12-C , 15-H ) :   0.9742
B( 16-S , 17-C ) :   1.1630 B( 16-S , 20-C ) :   1.1556 B( 17-C , 18-C ) :   1.5827
B( 17-C , 33-H ) :   0.9610 B( 18-C , 19-C ) :   1.2723 B( 18-C , 21-H ) :   0.9915
B( 19-C , 20-C ) :   1.5371 B( 19-C , 22-C ) :   1.0410 B( 22-C , 23-H ) :   0.9304
B( 22-C , 24-H ) :   0.9357 B( 22-C , 25-C ) :   1.0759 B( 25-C , 26-H ) :   0.9522
B( 25-C , 27-H ) :   0.9524 B( 25-C , 28-C ) :   1.0700 B( 28-C , 29-H ) :   0.9700
B( 28-C , 30-H ) :   0.9710 B( 28-C , 31-H ) :   0.9722

Dispersion correction           -0.015464357
FINAL SINGLE POINT ENERGY     -1339.883720757687

DIPOLE MOMENT
-------------
                                X             Y             Z
Electronic contribution:    -16.64304      -3.77421      21.03236
Nuclear contribution   :     16.83942       3.95709     -21.53243
                        -----------------------------------------
Total Dipole Moment    :      0.19637       0.18288      -0.50008
                        -----------------------------------------
Magnitude (a.u.)       :      0.56753
Magnitude (Debye)      :      1.44254

Rotational constants in cm-1:     0.018299     0.010025     0.007514
Rotational constants in MHz :   548.585654   300.544146   225.271061

                             ****ORCA TERMINATED NORMALLY****
TOTAL RUN TIME: 0 days 0 hours 0 minutes 36 seconds 562 msec
