                         Program Version 4.2.1 -  RELEASE  -
|  1> ! wB97X-D3 SP def2-SVP
|  2> %pal
|  3> nprocs 16
|  4> end
|  5>
|  6> * xyz 0 1
|  7> S 	 38.0426 	 14.1949 	 82.0023
|  8> C 	 36.9133 	 15.4436 	 81.6728
|  9> C 	 36.6938 	 16.1979 	 82.7925
| 10> C 	 37.4476 	 15.6914 	 83.8994
| 11> C 	 38.0743 	 14.5099 	 83.6694
| 12> H 	 37.4782 	 16.125 	 84.853
| 13> C 	 35.8327 	 17.4562 	 82.8902
| 14> H 	 35.7276 	 17.7557 	 83.9333
| 15> H 	 34.8255 	 17.1396 	 82.656
| 16> C 	 36.2634 	 18.6735 	 82.0071
| 17> H 	 36.2769 	 18.4892 	 80.9021
| 18> H 	 35.5577 	 19.4473 	 82.2107
| 19> C 	 37.6077 	 19.26 	 82.4019
| 20> H 	 38.0449 	 20.057 	 81.6296
| 21> H 	 37.7124 	 19.6782 	 83.4289
| 22> H 	 38.2763 	 18.4435 	 82.4191
| 23> S 	 38.4309 	 12.0319 	 84.8443
| 24> C 	 39.6678 	 11.8844 	 86.0746
| 25> C 	 40.31 	 13.0715 	 86.3667
| 26> C 	 39.8251 	 14.1817 	 85.5815
| 27> C 	 38.8958 	 13.7495 	 84.6183
| 28> H 	 40.9903 	 13.0916 	 87.1814
| 29> C 	 40.4911 	 15.5916 	 85.6387
| 30> H 	 40.042 	 16.0925 	 84.8091
| 31> H 	 41.5227 	 15.5601 	 85.4503
| 32> C 	 40.2152 	 16.4249 	 86.8913
| 33> H 	 39.1249 	 16.6182 	 87.0218
| 34> H 	 40.6413 	 17.4619 	 86.6791
| 35> C 	 40.8391 	 15.8817 	 88.1216
| 36> H 	 41.9473 	 15.7862 	 87.9125
| 37> H 	 40.4906 	 14.8763 	 88.3891
| 38> H 	 40.6485 	 16.5588 	 88.8607
| 39> H 	 36.4667 	 15.6256 	 80.7112
| 40> H 	 39.9296 	 10.9415 	 86.5967
| 41> *
| 42>
| 43>                          ****END OF INPUT****

CARTESIAN COORDINATES (ANGSTROEM)
---------------------------------
  S     38.042600   14.194900   82.002300
  C     36.913300   15.443600   81.672800
  C     36.693800   16.197900   82.792500
  C     37.447600   15.691400   83.899400
  C     38.074300   14.509900   83.669400
  H     37.478200   16.125000   84.853000
  C     35.832700   17.456200   82.890200
  H     35.727600   17.755700   83.933300
  H     34.825500   17.139600   82.656000
  C     36.263400   18.673500   82.007100
  H     36.276900   18.489200   80.902100
  H     35.557700   19.447300   82.210700
  C     37.607700   19.260000   82.401900
  H     38.044900   20.057000   81.629600
  H     37.712400   19.678200   83.428900
  H     38.276300   18.443500   82.419100
  S     38.430900   12.031900   84.844300
  C     39.667800   11.884400   86.074600
  C     40.310000   13.071500   86.366700
  C     39.825100   14.181700   85.581500
  C     38.895800   13.749500   84.618300
  H     40.990300   13.091600   87.181400
  C     40.491100   15.591600   85.638700
  H     40.042000   16.092500   84.809100
  H     41.522700   15.560100   85.450300
  C     40.215200   16.424900   86.891300
  H     39.124900   16.618200   87.021800
  H     40.641300   17.461900   86.679100
  C     40.839100   15.881700   88.121600
  H     41.947300   15.786200   87.912500
  H     40.490600   14.876300   88.389100
  H     40.648500   16.558800   88.860700
  H     36.466700   15.625600   80.711200
  H     39.929600   10.941500   86.596700

 Total Charge           Charge          ....    0
 Multiplicity           Mult            ....    1
 Number of Electrons    NEL             ....  134
 Basis Dimension        Dim             ....  322

ORBITAL ENERGIES
----------------

  NO   OCC          E(Eh)            E(eV)
   0   2.0000     -88.967415     -2420.9264
   1   2.0000     -88.962859     -2420.8025
   2   2.0000     -10.332255      -281.1550
   3   2.0000     -10.321065      -280.8504
   4   2.0000     -10.320071      -280.8234
   5   2.0000     -10.311119      -280.5798
   6   2.0000     -10.309173      -280.5269
   7   2.0000     -10.298753      -280.2433
   8   2.0000     -10.295792      -280.1627
   9   2.0000     -10.292998      -280.0867
  10   2.0000     -10.291015      -280.0328
  11   2.0000     -10.290585      -280.0211
  12   2.0000     -10.286588      -279.9123
  13   2.0000     -10.284987      -279.8687
  14   2.0000     -10.281816      -279.7824
  15   2.0000     -10.273614      -279.5592
  16   2.0000      -8.081525      -219.9095
  17   2.0000      -8.079351      -219.8503
  18   2.0000      -6.039967      -164.3559
  19   2.0000      -6.037721      -164.2947
  20   2.0000      -6.036241      -164.2545
  21   2.0000      -6.033577      -164.1820
  22   2.0000      -6.032272      -164.1465
  23   2.0000      -6.030170      -164.0893
  24   2.0000      -1.013647       -27.5827
  25   2.0000      -0.982896       -26.7460
  26   2.0000      -0.913443       -24.8560
  27   2.0000      -0.909692       -24.7540
  28   2.0000      -0.869538       -23.6613
  29   2.0000      -0.852176       -23.1889
  30   2.0000      -0.845931       -23.0189
  31   2.0000      -0.816060       -22.2061
  32   2.0000      -0.788107       -21.4455
  33   2.0000      -0.775043       -21.0900
  34   2.0000      -0.702772       -19.1234
  35   2.0000      -0.700801       -19.0698
  36   2.0000      -0.685212       -18.6456
  37   2.0000      -0.661742       -18.0069
  38   2.0000      -0.645282       -17.5590
  39   2.0000      -0.615211       -16.7407
  40   2.0000      -0.594580       -16.1793
  41   2.0000      -0.577043       -15.7021
  42   2.0000      -0.560511       -15.2523
  43   2.0000      -0.547361       -14.8945
  44   2.0000      -0.546251       -14.8642
  45   2.0000      -0.542707       -14.7678
  46   2.0000      -0.518707       -14.1147
  47   2.0000      -0.511049       -13.9063
  48   2.0000      -0.500717       -13.6252
  49   2.0000      -0.497775       -13.5452
  50   2.0000      -0.486423       -13.2363
  51   2.0000      -0.483689       -13.1618
  52   2.0000      -0.474290       -12.9061
  53   2.0000      -0.468003       -12.7350
  54   2.0000      -0.462805       -12.5936
  55   2.0000      -0.443458       -12.0671
  56   2.0000      -0.441654       -12.0180
  57   2.0000      -0.433359       -11.7923
  58   2.0000      -0.432949       -11.7811
  59   2.0000      -0.427663       -11.6373
  60   2.0000      -0.425207       -11.5705
  61   2.0000      -0.414545       -11.2803
  62   2.0000      -0.410021       -11.1572
  63   2.0000      -0.343890        -9.3577
  64   2.0000      -0.334484        -9.1018
  65   2.0000      -0.328393        -8.9360
  66   2.0000      -0.297896        -8.1062
  67   0.0000       0.032247         0.8775
  68   0.0000       0.071187         1.9371
  69   0.0000       0.112919         3.0727
  70   0.0000       0.122515         3.3338
  71   0.0000       0.123952         3.3729

MULLIKEN ATOMIC CHARGES
-----------------------
   0 S :    0.120637
   1 C :   -0.120971
   2 C :   -0.099454
   3 C :    0.030709
   4 C :   -0.136995
   5 H :   -0.019444
   6 C :    0.080754
   7 H :    0.016416
   8 H :    0.031492
   9 C :   -0.049150
  10 H :    0.041761
  11 H :    0.026238
  12 C :   -0.092288
  13 H :    0.051918
  14 H :    0.031205
  15 H :    0.023835
  16 S :    0.108515
  17 C :   -0.096178
  18 C :   -0.030924
  19 C :   -0.025888
  20 C :   -0.168397
  21 H :    0.008796
  22 C :    0.097789
  23 H :    0.011627
  24 H :    0.024941
  25 C :   -0.114518
  26 H :    0.031133
  27 H :    0.034959
  28 C :   -0.012836
  29 H :    0.028032
  30 H :    0.037868
  31 H :    0.020104
  32 H :    0.042276
  33 H :    0.066039
Sum of atomic charges:   -0.0000000

LOEWDIN ATOMIC CHARGES
----------------------
   0 S :    0.443136
   1 C :   -0.203702
   2 C :   -0.067407
   3 C :   -0.062695
   4 C :   -0.218575
   5 H :    0.019669
   6 C :   -0.029242
   7 H :    0.030751
   8 H :    0.033981
   9 C :   -0.040533
  10 H :    0.031031
  11 H :    0.021075
  12 C :   -0.079269
  13 H :    0.040064
  14 H :    0.025782
  15 H :    0.015531
  16 S :    0.390955
  17 C :   -0.185227
  18 C :   -0.073544
  19 C :   -0.044450
  20 C :   -0.185628
  21 H :    0.025095
  22 C :   -0.023586
  23 H :    0.027631
  24 H :    0.024995
  25 C :   -0.044760
  26 H :    0.023034
  27 H :    0.031402
  28 C :   -0.060935
  29 H :    0.031686
  30 H :    0.025685
  31 H :    0.015092
  32 H :    0.027066
  33 H :    0.035892

  Mayer bond orders larger than 0.100000
B(  0-S ,  1-C ) :   1.1544 B(  0-S ,  4-C ) :   1.1769 B(  1-C ,  2-C ) :   1.5860
B(  1-C , 32-H ) :   0.9766 B(  2-C ,  3-C ) :   1.2584 B(  2-C ,  6-C ) :   1.0134
B(  3-C ,  4-C ) :   1.5537 B(  3-C ,  5-H ) :   1.0127 B(  4-C , 20-C ) :   1.0056
B(  6-C ,  7-H ) :   0.9435 B(  6-C ,  8-H ) :   0.9351 B(  6-C ,  9-C ) :   1.0703
B(  9-C , 10-H ) :   0.9577 B(  9-C , 11-H ) :   0.9556 B(  9-C , 12-C ) :   1.0662
B( 12-C , 13-H ) :   0.9730 B( 12-C , 14-H ) :   0.9733 B( 12-C , 15-H ) :   0.9775
B( 16-S , 17-C ) :   1.1471 B( 16-S , 20-C ) :   1.1392 B( 17-C , 18-C ) :   1.6371
B( 17-C , 33-H ) :   0.9592 B( 18-C , 19-C ) :   1.2087 B( 18-C , 21-H ) :   0.9899
B( 19-C , 20-C ) :   1.6221 B( 19-C , 22-C ) :   1.0193 B( 22-C , 23-H ) :   0.9272
B( 22-C , 24-H ) :   0.9446 B( 22-C , 25-C ) :   1.0828 B( 25-C , 26-H ) :   0.9489
B( 25-C , 27-H ) :   0.9503 B( 25-C , 28-C ) :   1.0892 B( 28-C , 29-H ) :   0.9707
B( 28-C , 30-H ) :   0.9673 B( 28-C , 31-H ) :   0.9678

Dispersion correction           -0.014735655
FINAL SINGLE POINT ENERGY     -1339.876309137298

DIPOLE MOMENT
-------------
                                X             Y             Z
Electronic contribution:     -3.39485     -27.08961      -8.71529
Nuclear contribution   :      3.44069      27.66082       9.04673
                        -----------------------------------------
Total Dipole Moment    :      0.04584       0.57121       0.33144
                        -----------------------------------------
Magnitude (a.u.)       :      0.66199
Magnitude (Debye)      :      1.68265

Rotational constants in cm-1:     0.019047     0.009061     0.006625
Rotational constants in MHz :   571.028726   271.640182   198.611662

                             ****ORCA TERMINATED NORMALLY****
TOTAL RUN TIME: 0 days 0 hours 0 minutes 30 seconds 587 msec
