                         Program Version 4.2.1 -  RELEASE  -
|  1> ! wB97X-D3 SP def2-SVP
|  2> %pal
|  3> nprocs 16
|  4> end
|  5>
|  6> * xyz 0 1
|  7> S 	 -63.4465 	 40.9111 	 133.029
|  8> C 	 -64.0869 	 41.5971 	 134.485
|  9> C 	 -63.521 	 42.8197 	 134.831
| 10> C 	 -62.5863 	 43.1778 	 133.831
| 11> C 	 -62.4175 	 42.332 	 132.754
| 12> H 	 -62.0924 	 44.1719 	 133.915
| 13> C 	 -63.9219 	 43.7111 	 136.039
| 14> H 	 -62.9655 	 44.128 	 136.297
| 15> H 	 -64.1785 	 43.1797 	 136.957
| 16> C 	 -64.9979 	 44.6782 	 135.695
| 17> H 	 -64.8578 	 45.2723 	 134.822
| 18> H 	 -65.9138 	 44.2218 	 135.28
| 19> C 	 -65.3405 	 45.5486 	 136.95
| 20> H 	 -64.5265 	 46.3358 	 137.052
| 21> H 	 -66.2616 	 46.0747 	 136.731
| 22> H 	 -65.5694 	 44.8942 	 137.864
| 23> S 	 -60.8972 	 40.8372 	 131.095
| 24> C 	 -59.8499 	 41.7114 	 129.953
| 25> C 	 -60.1311 	 43.0531 	 129.842
| 26> C 	 -61.0843 	 43.5127 	 130.872
| 27> C 	 -61.5368 	 42.4161 	 131.582
| 28> H 	 -59.5669 	 43.6315 	 129.183
| 29> C 	 -61.4722 	 44.9458 	 131.074
| 30> H 	 -60.6381 	 45.4445 	 131.613
| 31> H 	 -62.3482 	 44.9348 	 131.776
| 32> C 	 -61.8252 	 45.6569 	 129.792
| 33> H 	 -61.0035 	 45.8515 	 129.084
| 34> H 	 -62.2082 	 46.6608 	 129.997
| 35> C 	 -63.028 	 45.0165 	 129.105
| 36> H 	 -63.8661 	 44.8276 	 129.772
| 37> H 	 -62.8517 	 44.0421 	 128.57
| 38> H 	 -63.4546 	 45.6095 	 128.344
| 39> H 	 -64.9315 	 41.0842 	 135.019
| 40> H 	 -59.1092 	 41.2996 	 129.278
| 41> *
| 42>
| 43>                          ****END OF INPUT****

CARTESIAN COORDINATES (ANGSTROEM)
---------------------------------
  S    -63.446500   40.911100  133.029000
  C    -64.086900   41.597100  134.485000
  C    -63.521000   42.819700  134.831000
  C    -62.586300   43.177800  133.831000
  C    -62.417500   42.332000  132.754000
  H    -62.092400   44.171900  133.915000
  C    -63.921900   43.711100  136.039000
  H    -62.965500   44.128000  136.297000
  H    -64.178500   43.179700  136.957000
  C    -64.997900   44.678200  135.695000
  H    -64.857800   45.272300  134.822000
  H    -65.913800   44.221800  135.280000
  C    -65.340500   45.548600  136.950000
  H    -64.526500   46.335800  137.052000
  H    -66.261600   46.074700  136.731000
  H    -65.569400   44.894200  137.864000
  S    -60.897200   40.837200  131.095000
  C    -59.849900   41.711400  129.953000
  C    -60.131100   43.053100  129.842000
  C    -61.084300   43.512700  130.872000
  C    -61.536800   42.416100  131.582000
  H    -59.566900   43.631500  129.183000
  C    -61.472200   44.945800  131.074000
  H    -60.638100   45.444500  131.613000
  H    -62.348200   44.934800  131.776000
  C    -61.825200   45.656900  129.792000
  H    -61.003500   45.851500  129.084000
  H    -62.208200   46.660800  129.997000
  C    -63.028000   45.016500  129.105000
  H    -63.866100   44.827600  129.772000
  H    -62.851700   44.042100  128.570000
  H    -63.454600   45.609500  128.344000
  H    -64.931500   41.084200  135.019000
  H    -59.109200   41.299600  129.278000

 Total Charge           Charge          ....    0
 Multiplicity           Mult            ....    1
 Number of Electrons    NEL             ....  134
 Basis Dimension        Dim             ....  322

ORBITAL ENERGIES
----------------

  NO   OCC          E(Eh)            E(eV)
   0   2.0000     -88.966563     -2420.9033
   1   2.0000     -88.964236     -2420.8399
   2   2.0000     -10.330157      -281.0979
   3   2.0000     -10.328626      -281.0562
   4   2.0000     -10.317560      -280.7551
   5   2.0000     -10.315729      -280.7053
   6   2.0000     -10.306699      -280.4595
   7   2.0000     -10.300877      -280.3011
   8   2.0000     -10.298388      -280.2334
   9   2.0000     -10.294588      -280.1300
  10   2.0000     -10.294490      -280.1273
  11   2.0000     -10.293360      -280.0966
  12   2.0000     -10.291366      -280.0423
  13   2.0000     -10.289857      -280.0012
  14   2.0000     -10.285420      -279.8805
  15   2.0000     -10.271313      -279.4966
  16   2.0000      -8.080619      -219.8848
  17   2.0000      -8.079028      -219.8415
  18   2.0000      -6.039313      -164.3381
  19   2.0000      -6.037493      -164.2885
  20   2.0000      -6.035513      -164.2347
  21   2.0000      -6.033543      -164.1811
  22   2.0000      -6.030931      -164.1100
  23   2.0000      -6.029830      -164.0800
  24   2.0000      -1.003108       -27.2960
  25   2.0000      -0.979233       -26.6463
  26   2.0000      -0.915504       -24.9121
  27   2.0000      -0.912559       -24.8320
  28   2.0000      -0.866413       -23.5763
  29   2.0000      -0.850708       -23.1489
  30   2.0000      -0.841476       -22.8977
  31   2.0000      -0.811834       -22.0911
  32   2.0000      -0.782774       -21.3004
  33   2.0000      -0.770803       -20.9746
  34   2.0000      -0.708725       -19.2854
  35   2.0000      -0.704662       -19.1748
  36   2.0000      -0.691858       -18.8264
  37   2.0000      -0.661098       -17.9894
  38   2.0000      -0.636948       -17.3322
  39   2.0000      -0.623887       -16.9768
  40   2.0000      -0.592335       -16.1183
  41   2.0000      -0.563216       -15.3259
  42   2.0000      -0.561361       -15.2754
  43   2.0000      -0.555785       -15.1237
  44   2.0000      -0.543039       -14.7768
  45   2.0000      -0.528756       -14.3882
  46   2.0000      -0.515124       -14.0172
  47   2.0000      -0.504634       -13.7318
  48   2.0000      -0.496695       -13.5158
  49   2.0000      -0.495376       -13.4799
  50   2.0000      -0.488026       -13.2799
  51   2.0000      -0.473756       -12.8916
  52   2.0000      -0.463761       -12.6196
  53   2.0000      -0.462126       -12.5751
  54   2.0000      -0.457638       -12.4530
  55   2.0000      -0.454230       -12.3602
  56   2.0000      -0.445414       -12.1203
  57   2.0000      -0.441806       -12.0221
  58   2.0000      -0.439344       -11.9551
  59   2.0000      -0.427481       -11.6324
  60   2.0000      -0.420744       -11.4490
  61   2.0000      -0.412074       -11.2131
  62   2.0000      -0.404824       -11.0158
  63   2.0000      -0.355232        -9.6663
  64   2.0000      -0.334407        -9.0997
  65   2.0000      -0.328179        -8.9302
  66   2.0000      -0.283066        -7.7026
  67   0.0000       0.029198         0.7945
  68   0.0000       0.071664         1.9501
  69   0.0000       0.100037         2.7221
  70   0.0000       0.121823         3.3150
  71   0.0000       0.134857         3.6697

MULLIKEN ATOMIC CHARGES
-----------------------
   0 S :    0.094183
   1 C :   -0.145855
   2 C :   -0.098390
   3 C :   -0.006580
   4 C :   -0.131076
   5 H :    0.017187
   6 C :    0.103557
   7 H :    0.017399
   8 H :    0.021071
   9 C :   -0.065063
  10 H :    0.010994
  11 H :    0.019523
  12 C :   -0.071946
  13 H :    0.051261
  14 H :    0.030460
  15 H :    0.050482
  16 S :    0.096723
  17 C :   -0.074809
  18 C :   -0.015470
  19 C :   -0.064840
  20 C :   -0.124308
  21 H :   -0.003269
  22 C :    0.065038
  23 H :    0.048719
  24 H :    0.034190
  25 C :   -0.064092
  26 H :    0.037357
  27 H :    0.026754
  28 C :   -0.060850
  29 H :    0.027186
  30 H :    0.042215
  31 H :    0.016289
  32 H :    0.066337
  33 H :    0.049621
Sum of atomic charges:    0.0000000

LOEWDIN ATOMIC CHARGES
----------------------
   0 S :    0.394116
   1 C :   -0.203950
   2 C :   -0.067255
   3 C :   -0.076186
   4 C :   -0.188551
   5 H :    0.032832
   6 C :   -0.026505
   7 H :    0.029596
   8 H :    0.032413
   9 C :   -0.051173
  10 H :    0.021460
  11 H :    0.028338
  12 C :   -0.071739
  13 H :    0.034152
  14 H :    0.022818
  15 H :    0.034940
  16 S :    0.374619
  17 C :   -0.171082
  18 C :   -0.057796
  19 C :   -0.049975
  20 C :   -0.182789
  21 H :    0.020516
  22 C :   -0.037141
  23 H :    0.038733
  24 H :    0.037528
  25 C :   -0.045757
  26 H :    0.026773
  27 H :    0.029775
  28 C :   -0.069902
  29 H :    0.026797
  30 H :    0.031150
  31 H :    0.018107
  32 H :    0.035762
  33 H :    0.029378

  Mayer bond orders larger than 0.100000
B(  0-S ,  1-C ) :   1.1557 B(  0-S ,  4-C ) :   1.1394 B(  1-C ,  2-C ) :   1.5968
B(  1-C ,  4-C ) :   0.1016 B(  1-C , 32-H ) :   0.9614 B(  2-C ,  3-C ) :   1.2836
B(  2-C ,  6-C ) :   1.0008 B(  3-C ,  4-C ) :   1.5603 B(  3-C ,  5-H ) :   0.9809
B(  4-C , 20-C ) :   1.0446 B(  6-C ,  7-H ) :   0.9386 B(  6-C ,  8-H ) :   0.9436
B(  6-C ,  9-C ) :   1.0607 B(  9-C , 10-H ) :   0.9496 B(  9-C , 11-H ) :   0.9509
B(  9-C , 12-C ) :   1.0751 B( 12-C , 13-H ) :   0.9763 B( 12-C , 14-H ) :   0.9743
B( 12-C , 15-H ) :   0.9733 B( 16-S , 17-C ) :   1.1161 B( 16-S , 20-C ) :   1.1118
B( 17-C , 18-C ) :   1.6927 B( 17-C , 33-H ) :   0.9626 B( 18-C , 19-C ) :   1.1584
B( 18-C , 21-H ) :   0.9927 B( 19-C , 20-C ) :   1.6589 B( 19-C , 22-C ) :   1.0402
B( 22-C , 23-H ) :   0.9267 B( 22-C , 24-H ) :   0.9302 B( 22-C , 25-C ) :   1.0816
B( 25-C , 26-H ) :   0.9512 B( 25-C , 27-H ) :   0.9519 B( 25-C , 28-C ) :   1.0746
B( 28-C , 29-H ) :   0.9736 B( 28-C , 30-H ) :   0.9705 B( 28-C , 31-H ) :   0.9740

Dispersion correction           -0.014148521
FINAL SINGLE POINT ENERGY     -1339.875705676777

DIPOLE MOMENT
-------------
                                X             Y             Z
Electronic contribution:     10.55614     -25.97470      -6.10317
Nuclear contribution   :    -10.66147      26.76341       6.16061
                        -----------------------------------------
Total Dipole Moment    :     -0.10533       0.78871       0.05744
                        -----------------------------------------
Magnitude (a.u.)       :      0.79778
Magnitude (Debye)      :      2.02779

Rotational constants in cm-1:     0.019730     0.008315     0.006447
Rotational constants in MHz :   591.504693   249.271685   193.289755

                             ****ORCA TERMINATED NORMALLY****
TOTAL RUN TIME: 0 days 0 hours 0 minutes 35 seconds 283 msec
