                         Program Version 4.2.1 -  RELEASE  -
|  1> ! wB97X-D3 SP def2-SVP
|  2> %pal
|  3> nprocs 16
|  4> end
|  5>
|  6> * xyz 0 1
|  7> S 	 0.970579 	 29.907 	 38.1451
|  8> C 	 2.16213 	 29.0646 	 37.1821
|  9> C 	 1.80119 	 29.014 	 35.8586
| 10> C 	 0.533161 	 29.6562 	 35.5809
| 11> C 	 0.00589269 	 30.2575 	 36.6993
| 12> H 	 -0.0501917 	 29.6168 	 34.6195
| 13> C 	 2.44642 	 28.2911 	 34.7082
| 14> H 	 3.46422 	 27.9853 	 34.9377
| 15> H 	 2.51089 	 28.97 	 33.9
| 16> C 	 1.653 	 27.023 	 34.259
| 17> H 	 1.38498 	 26.4186 	 35.102
| 18> H 	 0.723198 	 27.2563 	 33.8825
| 19> C 	 2.38917 	 26.0544 	 33.3055
| 20> H 	 1.96567 	 25.0551 	 33.1506
| 21> H 	 2.3891 	 26.4702 	 32.3024
| 22> H 	 3.42959 	 25.9021 	 33.5644
| 23> S 	 -2.49728 	 30.2039 	 37.8951
| 24> C 	 -3.65466 	 31.4061 	 37.4214
| 25> C 	 -3.33599 	 32.1006 	 36.2762
| 26> C 	 -1.96542 	 31.8303 	 35.8735
| 27> C 	 -1.31017 	 30.9069 	 36.7299
| 28> H 	 -4.03613 	 32.705 	 35.7436
| 29> C 	 -1.31479 	 32.4311 	 34.6282
| 30> H 	 -2.1263 	 32.5397 	 33.8829
| 31> H 	 -0.587578 	 31.7586 	 34.196
| 32> C 	 -0.790575 	 33.8991 	 34.8901
| 33> H 	 -1.54907 	 34.4277 	 35.4686
| 34> H 	 -0.741328 	 34.428 	 33.9683
| 35> C 	 0.534132 	 33.9543 	 35.6757
| 36> H 	 0.563543 	 33.6737 	 36.7166
| 37> H 	 0.873896 	 35.0536 	 35.7765
| 38> H 	 1.32268 	 33.4601 	 35.1215
| 39> H 	 3.09116 	 28.6107 	 37.5605
| 40> H 	 -4.6792 	 31.5694 	 37.8211
| 41> *
| 42>
| 43>                          ****END OF INPUT****

CARTESIAN COORDINATES (ANGSTROEM)
---------------------------------
  S      0.970579   29.907000   38.145100
  C      2.162130   29.064600   37.182100
  C      1.801190   29.014000   35.858600
  C      0.533161   29.656200   35.580900
  C      0.005893   30.257500   36.699300
  H     -0.050192   29.616800   34.619500
  C      2.446420   28.291100   34.708200
  H      3.464220   27.985300   34.937700
  H      2.510890   28.970000   33.900000
  C      1.653000   27.023000   34.259000
  H      1.384980   26.418600   35.102000
  H      0.723198   27.256300   33.882500
  C      2.389170   26.054400   33.305500
  H      1.965670   25.055100   33.150600
  H      2.389100   26.470200   32.302400
  H      3.429590   25.902100   33.564400
  S     -2.497280   30.203900   37.895100
  C     -3.654660   31.406100   37.421400
  C     -3.335990   32.100600   36.276200
  C     -1.965420   31.830300   35.873500
  C     -1.310170   30.906900   36.729900
  H     -4.036130   32.705000   35.743600
  C     -1.314790   32.431100   34.628200
  H     -2.126300   32.539700   33.882900
  H     -0.587578   31.758600   34.196000
  C     -0.790575   33.899100   34.890100
  H     -1.549070   34.427700   35.468600
  H     -0.741328   34.428000   33.968300
  C      0.534132   33.954300   35.675700
  H      0.563543   33.673700   36.716600
  H      0.873896   35.053600   35.776500
  H      1.322680   33.460100   35.121500
  H      3.091160   28.610700   37.560500
  H     -4.679200   31.569400   37.821100

 Total Charge           Charge          ....    0
 Multiplicity           Mult            ....    1
 Number of Electrons    NEL             ....  134
 Basis Dimension        Dim             ....  322

ORBITAL ENERGIES
----------------

  NO   OCC          E(Eh)            E(eV)
   0   2.0000     -88.968629     -2420.9595
   1   2.0000     -88.965675     -2420.8791
   2   2.0000     -10.331560      -281.1360
   3   2.0000     -10.330935      -281.1190
   4   2.0000     -10.318235      -280.7734
   5   2.0000     -10.317268      -280.7471
   6   2.0000     -10.310278      -280.5569
   7   2.0000     -10.301853      -280.3277
   8   2.0000     -10.297953      -280.2215
   9   2.0000     -10.295224      -280.1473
  10   2.0000     -10.294503      -280.1277
  11   2.0000     -10.291205      -280.0379
  12   2.0000     -10.286487      -279.9095
  13   2.0000     -10.280803      -279.7549
  14   2.0000     -10.277796      -279.6730
  15   2.0000     -10.275345      -279.6063
  16   2.0000      -8.082863      -219.9459
  17   2.0000      -8.079835      -219.8635
  18   2.0000      -6.041523      -164.3982
  19   2.0000      -6.038409      -164.3134
  20   2.0000      -6.037488      -164.2884
  21   2.0000      -6.034622      -164.2104
  22   2.0000      -6.033437      -164.1782
  23   2.0000      -6.030364      -164.0945
  24   2.0000      -1.001054       -27.2401
  25   2.0000      -0.978707       -26.6320
  26   2.0000      -0.909576       -24.7508
  27   2.0000      -0.900106       -24.4931
  28   2.0000      -0.867455       -23.6046
  29   2.0000      -0.849185       -23.1075
  30   2.0000      -0.841445       -22.8969
  31   2.0000      -0.811259       -22.0755
  32   2.0000      -0.781393       -21.2628
  33   2.0000      -0.769414       -20.9368
  34   2.0000      -0.712175       -19.3793
  35   2.0000      -0.703246       -19.1363
  36   2.0000      -0.691388       -18.8136
  37   2.0000      -0.656647       -17.8683
  38   2.0000      -0.638810       -17.3829
  39   2.0000      -0.620026       -16.8718
  40   2.0000      -0.590771       -16.0757
  41   2.0000      -0.567159       -15.4332
  42   2.0000      -0.560358       -15.2481
  43   2.0000      -0.539880       -14.6909
  44   2.0000      -0.537189       -14.6177
  45   2.0000      -0.519801       -14.1445
  46   2.0000      -0.514136       -13.9903
  47   2.0000      -0.507707       -13.8154
  48   2.0000      -0.503419       -13.6987
  49   2.0000      -0.496567       -13.5123
  50   2.0000      -0.492477       -13.4010
  51   2.0000      -0.475503       -12.9391
  52   2.0000      -0.469002       -12.7622
  53   2.0000      -0.463280       -12.6065
  54   2.0000      -0.457564       -12.4509
  55   2.0000      -0.452958       -12.3256
  56   2.0000      -0.448390       -12.2013
  57   2.0000      -0.435969       -11.8633
  58   2.0000      -0.431627       -11.7452
  59   2.0000      -0.426014       -11.5924
  60   2.0000      -0.420430       -11.4405
  61   2.0000      -0.416276       -11.3274
  62   2.0000      -0.413990       -11.2652
  63   2.0000      -0.347195        -9.4477
  64   2.0000      -0.329352        -8.9621
  65   2.0000      -0.326942        -8.8965
  66   2.0000      -0.291227        -7.9247
  67   0.0000       0.027647         0.7523
  68   0.0000       0.071003         1.9321
  69   0.0000       0.098400         2.6776
  70   0.0000       0.119730         3.2580
  71   0.0000       0.129036         3.5112

MULLIKEN ATOMIC CHARGES
-----------------------
   0 S :    0.111868
   1 C :   -0.126747
   2 C :   -0.082657
   3 C :   -0.016109
   4 C :   -0.139830
   5 H :    0.054240
   6 C :    0.104994
   7 H :    0.008272
   8 H :    0.020296
   9 C :   -0.042382
  10 H :    0.022487
  11 H :    0.003989
  12 C :   -0.056906
  13 H :    0.036822
  14 H :    0.021383
  15 H :    0.025997
  16 S :    0.102319
  17 C :   -0.084675
  18 C :   -0.032354
  19 C :   -0.052280
  20 C :   -0.159217
  21 H :    0.013566
  22 C :    0.063701
  23 H :    0.022670
  24 H :    0.016456
  25 C :   -0.041544
  26 H :    0.023707
  27 H :    0.023493
  28 C :   -0.066742
  29 H :    0.044314
  30 H :    0.028702
  31 H :    0.032061
  32 H :    0.055303
  33 H :    0.064803
Sum of atomic charges:    0.0000000

LOEWDIN ATOMIC CHARGES
----------------------
   0 S :    0.395562
   1 C :   -0.201362
   2 C :   -0.062431
   3 C :   -0.064356
   4 C :   -0.190529
   5 H :    0.043284
   6 C :   -0.022318
   7 H :    0.026193
   8 H :    0.025806
   9 C :   -0.031962
  10 H :    0.025058
  11 H :    0.011231
  12 C :   -0.068444
  13 H :    0.030002
  14 H :    0.022189
  15 H :    0.022329
  16 S :    0.386923
  17 C :   -0.192001
  18 C :   -0.072003
  19 C :   -0.046981
  20 C :   -0.185821
  21 H :    0.028789
  22 C :   -0.030722
  23 H :    0.033459
  24 H :    0.022716
  25 C :   -0.033186
  26 H :    0.025151
  27 H :    0.019352
  28 C :   -0.072119
  29 H :    0.026380
  30 H :    0.033288
  31 H :    0.022380
  32 H :    0.036275
  33 H :    0.037868

  Mayer bond orders larger than 0.100000
B(  0-S ,  1-C ) :   1.1170 B(  0-S ,  4-C ) :   1.1388 B(  1-C ,  2-C ) :   1.6453
B(  1-C , 32-H ) :   0.9635 B(  2-C ,  3-C ) :   1.2043 B(  2-C ,  6-C ) :   1.0425
B(  3-C ,  4-C ) :   1.6029 B(  3-C ,  5-H ) :   0.9743 B(  4-C , 20-C ) :   1.0460
B(  6-C ,  7-H ) :   0.9402 B(  6-C ,  8-H ) :   0.9340 B(  6-C ,  9-C ) :   1.0511
B(  9-C , 10-H ) :   0.9571 B(  9-C , 11-H ) :   0.9537 B(  9-C , 12-C ) :   1.0834
B( 12-C , 13-H ) :   0.9760 B( 12-C , 14-H ) :   0.9760 B( 12-C , 15-H ) :   0.9763
B( 16-S , 17-C ) :   1.1496 B( 16-S , 20-C ) :   1.1234 B( 17-C , 18-C ) :   1.6325
B( 17-C , 33-H ) :   0.9572 B( 18-C , 19-C ) :   1.2311 B( 18-C , 21-H ) :   0.9899
B( 19-C , 20-C ) :   1.6001 B( 19-C , 22-C ) :   1.0419 B( 22-C , 23-H ) :   0.9324
B( 22-C , 24-H ) :   0.9424 B( 22-C , 25-C ) :   1.0646 B( 25-C , 26-H ) :   0.9564
B( 25-C , 27-H ) :   0.9568 B( 25-C , 28-C ) :   1.0765 B( 28-C , 29-H ) :   0.9761
B( 28-C , 30-H ) :   0.9713 B( 28-C , 31-H ) :   0.9772

Dispersion correction           -0.014583229
FINAL SINGLE POINT ENERGY     -1339.878255355232

DIPOLE MOMENT
-------------
                                X             Y             Z
Electronic contribution:    -10.94222      -0.18013      21.80612
Nuclear contribution   :     10.93609       0.14045     -22.51446
                        -----------------------------------------
Total Dipole Moment    :     -0.00613      -0.03968      -0.70835
                        -----------------------------------------
Magnitude (a.u.)       :      0.70948
Magnitude (Debye)      :      1.80336

Rotational constants in cm-1:     0.018676     0.008122     0.007407
Rotational constants in MHz :   559.892591   243.503937   222.063267

                             ****ORCA TERMINATED NORMALLY****
TOTAL RUN TIME: 0 days 0 hours 0 minutes 35 seconds 17 msec
