                         Program Version 4.2.1 -  RELEASE  -
|  1> ! wB97X-D3 SP def2-SVP
|  2> %pal
|  3> nprocs 16
|  4> end
|  5>
|  6> * xyz 0 1
|  7> S 	 -64.3376 	 46.6063 	 126.509
|  8> C 	 -64.8227 	 48.1343 	 127.2
|  9> C 	 -65.5134 	 48.9315 	 126.3
| 10> C 	 -65.4278 	 48.38 	 124.987
| 11> C 	 -65.0179 	 47.0136 	 124.967
| 12> H 	 -65.8948 	 48.8238 	 124.161
| 13> C 	 -66.1965 	 50.2961 	 126.541
| 14> H 	 -66.1703 	 50.5932 	 127.596
| 15> H 	 -67.241 	 50.2237 	 126.252
| 16> C 	 -65.6516 	 51.5403 	 125.911
| 17> H 	 -64.571 	 51.6023 	 126.297
| 18> H 	 -65.6831 	 51.2428 	 124.836
| 19> C 	 -66.3963 	 52.8794 	 126.136
| 20> H 	 -66.7402 	 53.0487 	 127.201
| 21> H 	 -65.8001 	 53.6899 	 125.854
| 22> H 	 -67.1747 	 52.9824 	 125.392
| 23> S 	 -63.1954 	 45.7858 	 123.326
| 24> C 	 -63.7344 	 45.2489 	 121.747
| 25> C 	 -65.1192 	 45.2109 	 121.664
| 26> C 	 -65.7717 	 45.6736 	 122.833
| 27> C 	 -64.8719 	 46.1735 	 123.793
| 28> H 	 -65.6512 	 44.8399 	 120.784
| 29> C 	 -67.259 	 45.7233 	 122.953
| 30> H 	 -67.5921 	 45.7416 	 124.047
| 31> H 	 -67.5335 	 44.6994 	 122.512
| 32> C 	 -67.8925 	 46.8214 	 122.117
| 33> H 	 -67.593 	 46.7866 	 120.997
| 34> H 	 -67.455 	 47.8301 	 122.421
| 35> C 	 -69.3702 	 46.8754 	 122.284
| 36> H 	 -69.7402 	 47.4995 	 121.471
| 37> H 	 -69.7246 	 47.1817 	 123.241
| 38> H 	 -69.697 	 45.8648 	 122.101
| 39> H 	 -64.7337 	 48.3338 	 128.279
| 40> H 	 -63.1555 	 45.0246 	 120.891
| 41> *
| 42>
| 43>                          ****END OF INPUT****

CARTESIAN COORDINATES (ANGSTROEM)
---------------------------------
  S    -64.337600   46.606300  126.509000
  C    -64.822700   48.134300  127.200000
  C    -65.513400   48.931500  126.300000
  C    -65.427800   48.380000  124.987000
  C    -65.017900   47.013600  124.967000
  H    -65.894800   48.823800  124.161000
  C    -66.196500   50.296100  126.541000
  H    -66.170300   50.593200  127.596000
  H    -67.241000   50.223700  126.252000
  C    -65.651600   51.540300  125.911000
  H    -64.571000   51.602300  126.297000
  H    -65.683100   51.242800  124.836000
  C    -66.396300   52.879400  126.136000
  H    -66.740200   53.048700  127.201000
  H    -65.800100   53.689900  125.854000
  H    -67.174700   52.982400  125.392000
  S    -63.195400   45.785800  123.326000
  C    -63.734400   45.248900  121.747000
  C    -65.119200   45.210900  121.664000
  C    -65.771700   45.673600  122.833000
  C    -64.871900   46.173500  123.793000
  H    -65.651200   44.839900  120.784000
  C    -67.259000   45.723300  122.953000
  H    -67.592100   45.741600  124.047000
  H    -67.533500   44.699400  122.512000
  C    -67.892500   46.821400  122.117000
  H    -67.593000   46.786600  120.997000
  H    -67.455000   47.830100  122.421000
  C    -69.370200   46.875400  122.284000
  H    -69.740200   47.499500  121.471000
  H    -69.724600   47.181700  123.241000
  H    -69.697000   45.864800  122.101000
  H    -64.733700   48.333800  128.279000
  H    -63.155500   45.024600  120.891000

 Total Charge           Charge          ....    0
 Multiplicity           Mult            ....    1
 Number of Electrons    NEL             ....  134
 Basis Dimension        Dim             ....  322

ORBITAL ENERGIES
----------------

  NO   OCC          E(Eh)            E(eV)
   0   2.0000     -88.968644     -2420.9599
   1   2.0000     -88.964666     -2420.8516
   2   2.0000     -10.332445      -281.1601
   3   2.0000     -10.327000      -281.0120
   4   2.0000     -10.317513      -280.7538
   5   2.0000     -10.316851      -280.7358
   6   2.0000     -10.305584      -280.4292
   7   2.0000     -10.303332      -280.3679
   8   2.0000     -10.300272      -280.2846
   9   2.0000     -10.295125      -280.1446
  10   2.0000     -10.293851      -280.1099
  11   2.0000     -10.293836      -280.1095
  12   2.0000     -10.293297      -280.0948
  13   2.0000     -10.291697      -280.0513
  14   2.0000     -10.283082      -279.8169
  15   2.0000     -10.272312      -279.5238
  16   2.0000      -8.083578      -219.9654
  17   2.0000      -8.078882      -219.8376
  18   2.0000      -6.042028      -164.4119
  19   2.0000      -6.037913      -164.3000
  20   2.0000      -6.037414      -164.2864
  21   2.0000      -6.034554      -164.2086
  22   2.0000      -6.033461      -164.1788
  23   2.0000      -6.029635      -164.0747
  24   2.0000      -1.004053       -27.3217
  25   2.0000      -0.981986       -26.7212
  26   2.0000      -0.915545       -24.9133
  27   2.0000      -0.912859       -24.8402
  28   2.0000      -0.868285       -23.6272
  29   2.0000      -0.856169       -23.2976
  30   2.0000      -0.847512       -23.0620
  31   2.0000      -0.810257       -22.0482
  32   2.0000      -0.788288       -21.4504
  33   2.0000      -0.770852       -20.9760
  34   2.0000      -0.704804       -19.1787
  35   2.0000      -0.690096       -18.7785
  36   2.0000      -0.688011       -18.7217
  37   2.0000      -0.661709       -18.0060
  38   2.0000      -0.641020       -17.4430
  39   2.0000      -0.622267       -16.9328
  40   2.0000      -0.596047       -16.2193
  41   2.0000      -0.572186       -15.5700
  42   2.0000      -0.565475       -15.3873
  43   2.0000      -0.560889       -15.2626
  44   2.0000      -0.534106       -14.5338
  45   2.0000      -0.521336       -14.1863
  46   2.0000      -0.515479       -14.0269
  47   2.0000      -0.506460       -13.7815
  48   2.0000      -0.504559       -13.7297
  49   2.0000      -0.503674       -13.7057
  50   2.0000      -0.493325       -13.4241
  51   2.0000      -0.482091       -13.1184
  52   2.0000      -0.472564       -12.8591
  53   2.0000      -0.470544       -12.8042
  54   2.0000      -0.460855       -12.5405
  55   2.0000      -0.454901       -12.3785
  56   2.0000      -0.442152       -12.0316
  57   2.0000      -0.439648       -11.9634
  58   2.0000      -0.433563       -11.7978
  59   2.0000      -0.425179       -11.5697
  60   2.0000      -0.415076       -11.2948
  61   2.0000      -0.409044       -11.1306
  62   2.0000      -0.404155       -10.9976
  63   2.0000      -0.339271        -9.2320
  64   2.0000      -0.332659        -9.0521
  65   2.0000      -0.327012        -8.8984
  66   2.0000      -0.292285        -7.9535
  67   0.0000       0.031466         0.8562
  68   0.0000       0.056584         1.5397
  69   0.0000       0.109292         2.9740
  70   0.0000       0.117690         3.2025
  71   0.0000       0.129139         3.5141

MULLIKEN ATOMIC CHARGES
-----------------------
   0 S :    0.117532
   1 C :   -0.136124
   2 C :   -0.063385
   3 C :    0.053100
   4 C :   -0.169101
   5 H :   -0.003521
   6 C :    0.065490
   7 H :    0.009710
   8 H :    0.027809
   9 C :   -0.135812
  10 H :    0.043847
  11 H :    0.029927
  12 C :   -0.011642
  13 H :    0.046108
  14 H :    0.022310
  15 H :    0.025122
  16 S :    0.109204
  17 C :   -0.067944
  18 C :   -0.055405
  19 C :   -0.008775
  20 C :   -0.168163
  21 H :    0.023339
  22 C :    0.024994
  23 H :    0.052390
  24 H :    0.036059
  25 C :   -0.140390
  26 H :    0.039660
  27 H :    0.027604
  28 C :    0.026095
  29 H :    0.031897
  30 H :    0.032038
  31 H :    0.012602
  32 H :    0.059704
  33 H :    0.043722
Sum of atomic charges:   -0.0000000

LOEWDIN ATOMIC CHARGES
----------------------
   0 S :    0.420384
   1 C :   -0.200809
   2 C :   -0.060465
   3 C :   -0.050934
   4 C :   -0.205886
   5 H :    0.017051
   6 C :   -0.038330
   7 H :    0.025549
   8 H :    0.028542
   9 C :   -0.050515
  10 H :    0.031627
  11 H :    0.023712
  12 C :   -0.066135
  13 H :    0.034237
  14 H :    0.023661
  15 H :    0.027758
  16 S :    0.394225
  17 C :   -0.176026
  18 C :   -0.074989
  19 C :   -0.053579
  20 C :   -0.197323
  21 H :    0.033464
  22 C :   -0.043009
  23 H :    0.042866
  24 H :    0.039954
  25 C :   -0.053588
  26 H :    0.032699
  27 H :    0.023611
  28 C :   -0.059444
  29 H :    0.030203
  30 H :    0.022198
  31 H :    0.022579
  32 H :    0.032142
  33 H :    0.024570

  Mayer bond orders larger than 0.100000
B(  0-S ,  1-C ) :   1.1530 B(  0-S ,  4-C ) :   1.1669 B(  1-C ,  2-C ) :   1.5949
B(  1-C ,  4-C ) :   0.1029 B(  1-C , 32-H ) :   0.9613 B(  2-C ,  3-C ) :   1.2639
B(  2-C ,  6-C ) :   1.0254 B(  3-C ,  4-C ) :   1.5444 B(  3-C ,  5-H ) :   0.9875
B(  4-C , 20-C ) :   1.0413 B(  6-C ,  7-H ) :   0.9423 B(  6-C ,  8-H ) :   0.9372
B(  6-C ,  9-C ) :   1.0586 B(  9-C , 10-H ) :   0.9568 B(  9-C , 11-H ) :   0.9567
B(  9-C , 12-C ) :   1.0800 B( 12-C , 13-H ) :   0.9738 B( 12-C , 14-H ) :   0.9701
B( 12-C , 15-H ) :   0.9696 B( 16-S , 17-C ) :   1.1580 B( 16-S , 20-C ) :   1.1264
B( 17-C , 18-C ) :   1.6071 B( 17-C , 20-C ) :   0.1011 B( 17-C , 33-H ) :   0.9700
B( 18-C , 19-C ) :   1.2491 B( 18-C , 21-H ) :   0.9840 B( 19-C , 20-C ) :   1.5898
B( 19-C , 22-C ) :   1.0463 B( 22-C , 23-H ) :   0.9381 B( 22-C , 24-H ) :   0.9235
B( 22-C , 25-C ) :   1.0632 B( 25-C , 26-H ) :   0.9519 B( 25-C , 27-H ) :   0.9474
B( 25-C , 28-C ) :   1.0863 B( 28-C , 29-H ) :   0.9701 B( 28-C , 30-H ) :   0.9730
B( 28-C , 31-H ) :   0.9677

Dispersion correction           -0.013773692
FINAL SINGLE POINT ENERGY     -1339.865004639939

DIPOLE MOMENT
-------------
                                X             Y             Z
Electronic contribution:     22.25804     -20.40629       4.44869
Nuclear contribution   :    -22.84215      20.83137      -4.74717
                        -----------------------------------------
Total Dipole Moment    :     -0.58411       0.42508      -0.29848
                        -----------------------------------------
Magnitude (a.u.)       :      0.78165
Magnitude (Debye)      :      1.98679

Rotational constants in cm-1:     0.016478     0.008585     0.006651
Rotational constants in MHz :   493.999768   257.382245   199.394428

                             ****ORCA TERMINATED NORMALLY****
TOTAL RUN TIME: 0 days 0 hours 0 minutes 33 seconds 534 msec
