                         Program Version 4.2.1 -  RELEASE  -
|  1> ! wB97X-D3 SP def2-SVP
|  2> %pal
|  3> nprocs 16
|  4> end
|  5>
|  6> * xyz 0 1
|  7> S 	 -97.3149 	 55.792 	 130.276
|  8> C 	 -96.1872 	 55.5332 	 131.595
|  9> C 	 -96.2077 	 56.6147 	 132.486
| 10> C 	 -97.1936 	 57.5507 	 132.166
| 11> C 	 -97.8378 	 57.2938 	 130.97
| 12> H 	 -97.5641 	 58.3657 	 132.744
| 13> C 	 -95.2333 	 56.7878 	 133.665
| 14> H 	 -94.6903 	 57.7301 	 133.557
| 15> H 	 -94.4457 	 55.9974 	 133.543
| 16> C 	 -95.8311 	 56.4574 	 135.038
| 17> H 	 -96.8083 	 56.9209 	 135.123
| 18> H 	 -96.0522 	 55.4016 	 135.122
| 19> C 	 -94.8742 	 56.7514 	 136.142
| 20> H 	 -95.2404 	 56.3957 	 137.137
| 21> H 	 -93.8692 	 56.2629 	 136.061
| 22> H 	 -94.6859 	 57.7473 	 136.184
| 23> S 	 -100.378 	 57.1031 	 130.081
| 24> C 	 -101.338 	 58.4672 	 129.62
| 25> C 	 -100.554 	 59.5651 	 129.665
| 26> C 	 -99.1799 	 59.3389 	 130.079
| 27> C 	 -98.9524 	 58.0387 	 130.428
| 28> H 	 -101.007 	 60.5372 	 129.508
| 29> C 	 -98.1106 	 60.4345 	 130.134
| 30> H 	 -97.5743 	 60.3658 	 131.057
| 31> H 	 -98.6024 	 61.3756 	 130.149
| 32> C 	 -97.2238 	 60.5585 	 128.894
| 33> H 	 -97.9648 	 60.8219 	 128.121
| 34> H 	 -96.6766 	 59.6526 	 128.58
| 35> C 	 -96.2305 	 61.8022 	 128.873
| 36> H 	 -96.7084 	 62.7913 	 129.066
| 37> H 	 -95.5752 	 61.9426 	 127.992
| 38> H 	 -95.5673 	 61.5907 	 129.733
| 39> H 	 -95.4931 	 54.7691 	 131.646
| 40> H 	 -102.356 	 58.4759 	 129.341
| 41> *
| 42>
| 43>                          ****END OF INPUT****

CARTESIAN COORDINATES (ANGSTROEM)
---------------------------------
  S    -97.314900   55.792000  130.276000
  C    -96.187200   55.533200  131.595000
  C    -96.207700   56.614700  132.486000
  C    -97.193600   57.550700  132.166000
  C    -97.837800   57.293800  130.970000
  H    -97.564100   58.365700  132.744000
  C    -95.233300   56.787800  133.665000
  H    -94.690300   57.730100  133.557000
  H    -94.445700   55.997400  133.543000
  C    -95.831100   56.457400  135.038000
  H    -96.808300   56.920900  135.123000
  H    -96.052200   55.401600  135.122000
  C    -94.874200   56.751400  136.142000
  H    -95.240400   56.395700  137.137000
  H    -93.869200   56.262900  136.061000
  H    -94.685900   57.747300  136.184000
  S    -100.378000   57.103100  130.081000
  C    -101.338000   58.467200  129.620000
  C    -100.554000   59.565100  129.665000
  C    -99.179900   59.338900  130.079000
  C    -98.952400   58.038700  130.428000
  H    -101.007000   60.537200  129.508000
  C    -98.110600   60.434500  130.134000
  H    -97.574300   60.365800  131.057000
  H    -98.602400   61.375600  130.149000
  C    -97.223800   60.558500  128.894000
  H    -97.964800   60.821900  128.121000
  H    -96.676600   59.652600  128.580000
  C    -96.230500   61.802200  128.873000
  H    -96.708400   62.791300  129.066000
  H    -95.575200   61.942600  127.992000
  H    -95.567300   61.590700  129.733000
  H    -95.493100   54.769100  131.646000
  H    -102.356000   58.475900  129.341000

 Total Charge           Charge          ....    0
 Multiplicity           Mult            ....    1
 Number of Electrons    NEL             ....  134
 Basis Dimension        Dim             ....  322

ORBITAL ENERGIES
----------------

  NO   OCC          E(Eh)            E(eV)
   0   2.0000     -88.970241     -2421.0033
   1   2.0000     -88.959245     -2420.7041
   2   2.0000     -10.328151      -281.0433
   3   2.0000     -10.323575      -280.9188
   4   2.0000     -10.312072      -280.6057
   5   2.0000     -10.311019      -280.5771
   6   2.0000     -10.304315      -280.3947
   7   2.0000     -10.302538      -280.3463
   8   2.0000     -10.297047      -280.1969
   9   2.0000     -10.292025      -280.0602
  10   2.0000     -10.290123      -280.0085
  11   2.0000     -10.289512      -279.9919
  12   2.0000     -10.287923      -279.9486
  13   2.0000     -10.285121      -279.8724
  14   2.0000     -10.282997      -279.8146
  15   2.0000     -10.273702      -279.5616
  16   2.0000      -8.084851      -220.0000
  17   2.0000      -8.074961      -219.7309
  18   2.0000      -6.043212      -164.4442
  19   2.0000      -6.039327      -164.3384
  20   2.0000      -6.035817      -164.2429
  21   2.0000      -6.033553      -164.1813
  22   2.0000      -6.029201      -164.0629
  23   2.0000      -6.025667      -163.9667
  24   2.0000      -1.013318       -27.5738
  25   2.0000      -0.988894       -26.9092
  26   2.0000      -0.915260       -24.9055
  27   2.0000      -0.904852       -24.6223
  28   2.0000      -0.876009       -23.8374
  29   2.0000      -0.854865       -23.2621
  30   2.0000      -0.840187       -22.8626
  31   2.0000      -0.819582       -22.3020
  32   2.0000      -0.781135       -21.2558
  33   2.0000      -0.773310       -21.0428
  34   2.0000      -0.710054       -19.3216
  35   2.0000      -0.702290       -19.1103
  36   2.0000      -0.692931       -18.8556
  37   2.0000      -0.664958       -18.0944
  38   2.0000      -0.649193       -17.6654
  39   2.0000      -0.622609       -16.9421
  40   2.0000      -0.595374       -16.2010
  41   2.0000      -0.571370       -15.5478
  42   2.0000      -0.566935       -15.4271
  43   2.0000      -0.562211       -15.2985
  44   2.0000      -0.529463       -14.4074
  45   2.0000      -0.523972       -14.2580
  46   2.0000      -0.519280       -14.1303
  47   2.0000      -0.512347       -13.9417
  48   2.0000      -0.505463       -13.7543
  49   2.0000      -0.502644       -13.6776
  50   2.0000      -0.499754       -13.5990
  51   2.0000      -0.481157       -13.0930
  52   2.0000      -0.471910       -12.8413
  53   2.0000      -0.462487       -12.5849
  54   2.0000      -0.461127       -12.5479
  55   2.0000      -0.450894       -12.2694
  56   2.0000      -0.449308       -12.2263
  57   2.0000      -0.440566       -11.9884
  58   2.0000      -0.431362       -11.7379
  59   2.0000      -0.429342       -11.6830
  60   2.0000      -0.415332       -11.3018
  61   2.0000      -0.408331       -11.1112
  62   2.0000      -0.404503       -11.0071
  63   2.0000      -0.350450        -9.5362
  64   2.0000      -0.334811        -9.1107
  65   2.0000      -0.327510        -8.9120
  66   2.0000      -0.296018        -8.0551
  67   0.0000       0.032568         0.8862
  68   0.0000       0.070804         1.9267
  69   0.0000       0.114765         3.1229
  70   0.0000       0.122663         3.3378
  71   0.0000       0.141400         3.8477

MULLIKEN ATOMIC CHARGES
-----------------------
   0 S :    0.124507
   1 C :   -0.089960
   2 C :   -0.075999
   3 C :    0.037305
   4 C :   -0.154553
   5 H :    0.010470
   6 C :    0.032796
   7 H :    0.043043
   8 H :    0.015065
   9 C :   -0.050169
  10 H :    0.026100
  11 H :    0.023107
  12 C :   -0.017577
  13 H :    0.034709
  14 H :    0.027437
  15 H :    0.007556
  16 S :    0.092698
  17 C :   -0.066178
  18 C :   -0.040060
  19 C :   -0.057958
  20 C :   -0.156495
  21 H :    0.016111
  22 C :    0.132269
  23 H :    0.011728
  24 H :   -0.005086
  25 C :   -0.084142
  26 H :    0.026001
  27 H :    0.047290
  28 C :   -0.085157
  29 H :    0.034565
  30 H :    0.048021
  31 H :    0.030312
  32 H :    0.018118
  33 H :    0.044125
Sum of atomic charges:   -0.0000000

LOEWDIN ATOMIC CHARGES
----------------------
   0 S :    0.419551
   1 C :   -0.185966
   2 C :   -0.058293
   3 C :   -0.060199
   4 C :   -0.198806
   5 H :    0.029743
   6 C :   -0.031743
   7 H :    0.032043
   8 H :    0.032458
   9 C :   -0.041379
  10 H :    0.022429
  11 H :    0.026657
  12 C :   -0.061530
  13 H :    0.031657
  14 H :    0.030952
  15 H :    0.008251
  16 S :    0.410437
  17 C :   -0.183762
  18 C :   -0.074249
  19 C :   -0.057723
  20 C :   -0.196955
  21 H :    0.029828
  22 C :   -0.026258
  23 H :    0.021736
  24 H :    0.026167
  25 C :   -0.039307
  26 H :    0.024996
  27 H :    0.027420
  28 C :   -0.078112
  29 H :    0.025526
  30 H :    0.030452
  31 H :    0.024622
  32 H :    0.011706
  33 H :    0.027650

  Mayer bond orders larger than 0.100000
B(  0-S ,  1-C ) :   1.1432 B(  0-S ,  4-C ) :   1.1637 B(  1-C ,  2-C ) :   1.5938
B(  1-C ,  4-C ) :   0.1056 B(  1-C , 32-H ) :   0.9759 B(  2-C ,  3-C ) :   1.2543
B(  2-C ,  6-C ) :   1.0178 B(  3-C ,  4-C ) :   1.5677 B(  3-C ,  5-H ) :   0.9946
B(  4-C , 20-C ) :   1.0301 B(  6-C ,  7-H ) :   0.9513 B(  6-C ,  8-H ) :   0.9387
B(  6-C ,  9-C ) :   1.0529 B(  9-C , 10-H ) :   0.9592 B(  9-C , 11-H ) :   0.9512
B(  9-C , 12-C ) :   1.0872 B( 12-C , 13-H ) :   0.9713 B( 12-C , 14-H ) :   0.9688
B( 12-C , 15-H ) :   0.9746 B( 16-S , 17-C ) :   1.1449 B( 16-S , 20-C ) :   1.1410
B( 17-C , 18-C ) :   1.6253 B( 17-C , 33-H ) :   0.9734 B( 18-C , 19-C ) :   1.2281
B( 18-C , 21-H ) :   0.9888 B( 19-C , 20-C ) :   1.6192 B( 19-C , 22-C ) :   1.0486
B( 22-C , 23-H ) :   0.9332 B( 22-C , 24-H ) :   0.9239 B( 22-C , 25-C ) :   1.0535
B( 25-C , 26-H ) :   0.9568 B( 25-C , 27-H ) :   0.9621 B( 25-C , 28-C ) :   1.0666
B( 28-C , 29-H ) :   0.9758 B( 28-C , 30-H ) :   0.9776 B( 28-C , 31-H ) :   0.9781

Dispersion correction           -0.013532244
FINAL SINGLE POINT ENERGY     -1339.878085653523

DIPOLE MOMENT
-------------
                                X             Y             Z
Electronic contribution:    -17.89957     -15.21162     -13.10513
Nuclear contribution   :     18.13247      15.64263      13.44704
                        -----------------------------------------
Total Dipole Moment    :      0.23290       0.43102       0.34192
                        -----------------------------------------
Magnitude (a.u.)       :      0.59743
Magnitude (Debye)      :      1.51856

Rotational constants in cm-1:     0.017565     0.007955     0.006644
Rotational constants in MHz :   526.577221   238.472196   199.176756

                             ****ORCA TERMINATED NORMALLY****
TOTAL RUN TIME: 0 days 0 hours 0 minutes 32 seconds 147 msec
