                         Program Version 4.2.1 -  RELEASE  -
|  1> ! wB97X-D3 SP def2-SVP
|  2> %pal
|  3> nprocs 16
|  4> end
|  5>
|  6> * xyz 0 1
|  7> S 	 -55.3863 	 31.9226 	 95.2569
|  8> C 	 -56.4966 	 31.6679 	 93.9578
|  9> C 	 -56.7126 	 32.8281 	 93.2018
| 10> C 	 -55.8687 	 33.8917 	 93.7211
| 11> C 	 -55.0687 	 33.5352 	 94.7421
| 12> H 	 -55.8786 	 34.8579 	 93.2863
| 13> C 	 -57.7079 	 33.0613 	 92.0989
| 14> H 	 -58.7083 	 33.0045 	 92.5661
| 15> H 	 -57.3935 	 32.4312 	 91.2834
| 16> C 	 -57.7071 	 34.5356 	 91.4973
| 17> H 	 -58.1127 	 35.1094 	 92.3416
| 18> H 	 -56.7465 	 34.904 	 91.2694
| 19> C 	 -58.5176 	 34.621 	 90.2476
| 20> H 	 -58.3299 	 35.6461 	 89.9026
| 21> H 	 -58.0914 	 33.9918 	 89.4464
| 22> H 	 -59.6174 	 34.5177 	 90.3151
| 23> S 	 -54.1739 	 34.1185 	 97.145
| 24> C 	 -52.7361 	 35.074 	 97.34
| 25> C 	 -52.5193 	 35.8244 	 96.1898
| 26> C 	 -53.3086 	 35.4204 	 95.0736
| 27> C 	 -54.0696 	 34.336 	 95.4179
| 28> H 	 -51.7987 	 36.6334 	 96.243
| 29> C 	 -53.1045 	 35.8847 	 93.6219
| 30> H 	 -53.2771 	 35.1558 	 92.8484
| 31> H 	 -52.017 	 36.0415 	 93.5616
| 32> C 	 -53.8274 	 37.1758 	 93.233
| 33> H 	 -53.6852 	 37.9318 	 94.0128
| 34> H 	 -54.8896 	 36.9374 	 93.1261
| 35> C 	 -53.2247 	 37.6636 	 91.8453
| 36> H 	 -52.9942 	 36.8569 	 91.1734
| 37> H 	 -52.3584 	 38.3057 	 92.0289
| 38> H 	 -53.9537 	 38.2976 	 91.3544
| 39> H 	 -56.9851 	 30.7597 	 93.7808
| 40> H 	 -52.2792 	 35.261 	 98.2766
| 41> *
| 42>
| 43>                          ****END OF INPUT****

CARTESIAN COORDINATES (ANGSTROEM)
---------------------------------
  S    -55.386300   31.922600   95.256900
  C    -56.496600   31.667900   93.957800
  C    -56.712600   32.828100   93.201800
  C    -55.868700   33.891700   93.721100
  C    -55.068700   33.535200   94.742100
  H    -55.878600   34.857900   93.286300
  C    -57.707900   33.061300   92.098900
  H    -58.708300   33.004500   92.566100
  H    -57.393500   32.431200   91.283400
  C    -57.707100   34.535600   91.497300
  H    -58.112700   35.109400   92.341600
  H    -56.746500   34.904000   91.269400
  C    -58.517600   34.621000   90.247600
  H    -58.329900   35.646100   89.902600
  H    -58.091400   33.991800   89.446400
  H    -59.617400   34.517700   90.315100
  S    -54.173900   34.118500   97.145000
  C    -52.736100   35.074000   97.340000
  C    -52.519300   35.824400   96.189800
  C    -53.308600   35.420400   95.073600
  C    -54.069600   34.336000   95.417900
  H    -51.798700   36.633400   96.243000
  C    -53.104500   35.884700   93.621900
  H    -53.277100   35.155800   92.848400
  H    -52.017000   36.041500   93.561600
  C    -53.827400   37.175800   93.233000
  H    -53.685200   37.931800   94.012800
  H    -54.889600   36.937400   93.126100
  C    -53.224700   37.663600   91.845300
  H    -52.994200   36.856900   91.173400
  H    -52.358400   38.305700   92.028900
  H    -53.953700   38.297600   91.354400
  H    -56.985100   30.759700   93.780800
  H    -52.279200   35.261000   98.276600

 Total Charge           Charge          ....    0
 Multiplicity           Mult            ....    1
 Number of Electrons    NEL             ....  134
 Basis Dimension        Dim             ....  322

ORBITAL ENERGIES
----------------

  NO   OCC          E(Eh)            E(eV)
   0   2.0000     -88.963520     -2420.8205
   1   2.0000     -88.959506     -2420.7112
   2   2.0000     -10.320339      -280.8307
   3   2.0000     -10.318867      -280.7906
   4   2.0000     -10.310746      -280.5697
   5   2.0000     -10.307248      -280.4745
   6   2.0000     -10.301846      -280.3275
   7   2.0000     -10.300236      -280.2837
   8   2.0000     -10.295098      -280.1439
   9   2.0000     -10.294563      -280.1293
  10   2.0000     -10.292462      -280.0721
  11   2.0000     -10.291596      -280.0486
  12   2.0000     -10.287656      -279.9413
  13   2.0000     -10.284305      -279.8502
  14   2.0000     -10.283089      -279.8171
  15   2.0000     -10.281552      -279.7753
  16   2.0000      -8.079083      -219.8430
  17   2.0000      -8.075155      -219.7361
  18   2.0000      -6.037520      -164.2893
  19   2.0000      -6.033550      -164.1813
  20   2.0000      -6.033455      -164.1787
  21   2.0000      -6.029876      -164.0813
  22   2.0000      -6.029803      -164.0793
  23   2.0000      -6.025694      -163.9675
  24   2.0000      -1.013345       -27.5745
  25   2.0000      -0.986093       -26.8329
  26   2.0000      -0.915296       -24.9065
  27   2.0000      -0.907278       -24.6883
  28   2.0000      -0.872265       -23.7355
  29   2.0000      -0.853573       -23.2269
  30   2.0000      -0.845199       -22.9990
  31   2.0000      -0.814922       -22.1752
  32   2.0000      -0.780627       -21.2419
  33   2.0000      -0.772269       -21.0145
  34   2.0000      -0.710461       -19.3326
  35   2.0000      -0.701127       -19.0786
  36   2.0000      -0.690624       -18.7928
  37   2.0000      -0.663140       -18.0450
  38   2.0000      -0.638848       -17.3839
  39   2.0000      -0.624511       -16.9938
  40   2.0000      -0.600821       -16.3492
  41   2.0000      -0.588287       -16.0081
  42   2.0000      -0.564702       -15.3663
  43   2.0000      -0.558890       -15.2082
  44   2.0000      -0.528219       -14.3736
  45   2.0000      -0.522094       -14.2069
  46   2.0000      -0.516215       -14.0469
  47   2.0000      -0.508923       -13.8485
  48   2.0000      -0.502271       -13.6675
  49   2.0000      -0.500047       -13.6070
  50   2.0000      -0.495593       -13.4858
  51   2.0000      -0.484912       -13.1951
  52   2.0000      -0.474484       -12.9114
  53   2.0000      -0.470443       -12.8014
  54   2.0000      -0.462236       -12.5781
  55   2.0000      -0.449413       -12.2291
  56   2.0000      -0.445401       -12.1200
  57   2.0000      -0.445000       -12.1091
  58   2.0000      -0.438482       -11.9317
  59   2.0000      -0.429603       -11.6901
  60   2.0000      -0.421562       -11.4713
  61   2.0000      -0.411101       -11.1866
  62   2.0000      -0.402362       -10.9488
  63   2.0000      -0.351055        -9.5527
  64   2.0000      -0.328913        -8.9502
  65   2.0000      -0.326914        -8.8958
  66   2.0000      -0.286128        -7.7859
  67   0.0000       0.026895         0.7319
  68   0.0000       0.078048         2.1238
  69   0.0000       0.101429         2.7600
  70   0.0000       0.123681         3.3655
  71   0.0000       0.130490         3.5508

MULLIKEN ATOMIC CHARGES
-----------------------
   0 S :    0.121205
   1 C :   -0.108530
   2 C :   -0.112747
   3 C :    0.007733
   4 C :   -0.098760
   5 H :   -0.032635
   6 C :    0.077229
   7 H :    0.055419
   8 H :    0.037560
   9 C :   -0.130581
  10 H :    0.036845
  11 H :    0.026692
  12 C :   -0.021356
  13 H :    0.025927
  14 H :    0.034602
  15 H :    0.043314
  16 S :    0.082493
  17 C :   -0.065036
  18 C :   -0.050157
  19 C :    0.006568
  20 C :   -0.128749
  21 H :    0.014986
  22 C :    0.010720
  23 H :    0.029361
  24 H :    0.024588
  25 C :   -0.076914
  26 H :    0.035288
  27 H :    0.037455
  28 C :   -0.047450
  29 H :    0.033273
  30 H :    0.040910
  31 H :    0.027920
  32 H :    0.021704
  33 H :    0.041120
Sum of atomic charges:    0.0000000

LOEWDIN ATOMIC CHARGES
----------------------
   0 S :    0.426112
   1 C :   -0.198989
   2 C :   -0.060320
   3 C :   -0.066056
   4 C :   -0.208075
   5 H :    0.019892
   6 C :   -0.033053
   7 H :    0.044084
   8 H :    0.032679
   9 C :   -0.043123
  10 H :    0.026874
  11 H :    0.014965
  12 C :   -0.067376
  13 H :    0.030383
  14 H :    0.029023
  15 H :    0.028809
  16 S :    0.402761
  17 C :   -0.184442
  18 C :   -0.064620
  19 C :   -0.063240
  20 C :   -0.179941
  21 H :    0.029546
  22 C :   -0.033611
  23 H :    0.027580
  24 H :    0.031417
  25 C :   -0.033822
  26 H :    0.025481
  27 H :    0.019491
  28 C :   -0.062788
  29 H :    0.022391
  30 H :    0.029053
  31 H :    0.024124
  32 H :    0.015105
  33 H :    0.019684

  Mayer bond orders larger than 0.100000
B(  0-S ,  1-C ) :   1.1441 B(  0-S ,  4-C ) :   1.1514 B(  1-C ,  2-C ) :   1.6048
B(  1-C , 32-H ) :   0.9828 B(  2-C ,  3-C ) :   1.2592 B(  2-C ,  6-C ) :   1.0066
B(  3-C ,  4-C ) :   1.5547 B(  3-C ,  5-H ) :   0.9978 B(  4-C , 20-C ) :   1.0285
B(  6-C ,  7-H ) :   0.9394 B(  6-C ,  8-H ) :   0.9339 B(  6-C ,  9-C ) :   1.0982
B(  9-C , 10-H ) :   0.9490 B(  9-C , 11-H ) :   0.9500 B(  9-C , 12-C ) :   1.0918
B( 12-C , 13-H ) :   0.9692 B( 12-C , 14-H ) :   0.9693 B( 12-C , 15-H ) :   0.9726
B( 16-S , 17-C ) :   1.1395 B( 16-S , 20-C ) :   1.1539 B( 17-C , 18-C ) :   1.6152
B( 17-C , 20-C ) :   0.1032 B( 17-C , 33-H ) :   0.9766 B( 18-C , 19-C ) :   1.2119
B( 18-C , 21-H ) :   0.9924 B( 19-C , 20-C ) :   1.6124 B( 19-C , 22-C ) :   1.0192
B( 22-C , 23-H ) :   0.9465 B( 22-C , 24-H ) :   0.9467 B( 22-C , 25-C ) :   1.0567
B( 25-C , 26-H ) :   0.9582 B( 25-C , 27-H ) :   0.9551 B( 25-C , 28-C ) :   1.0693
B( 28-C , 29-H ) :   0.9761 B( 28-C , 30-H ) :   0.9778 B( 28-C , 31-H ) :   0.9764

Dispersion correction           -0.014040721
FINAL SINGLE POINT ENERGY     -1339.868474857915

DIPOLE MOMENT
-------------
                                X             Y             Z
Electronic contribution:      6.31640     -17.51870      27.84737
Nuclear contribution   :     -6.45299      18.04351     -28.45497
                        -----------------------------------------
Total Dipole Moment    :     -0.13659       0.52481      -0.60760
                        -----------------------------------------
Magnitude (a.u.)       :      0.81441
Magnitude (Debye)      :      2.07006

Rotational constants in cm-1:     0.016203     0.010259     0.006633
Rotational constants in MHz :   485.741473   307.557878   198.848867

                             ****ORCA TERMINATED NORMALLY****
TOTAL RUN TIME: 0 days 0 hours 0 minutes 28 seconds 517 msec
