                         Program Version 4.2.1 -  RELEASE  -
|  1> ! wB97X-D3 SP def2-SVP
|  2> %pal
|  3> nprocs 16
|  4> end
|  5>
|  6> * xyz 0 1
|  7> S 	 -2.87314 	 79.0181 	 51.9484
|  8> C 	 -1.59452 	 80.1187 	 51.5506
|  9> C 	 -0.572481 	 79.504 	 50.9299
| 10> C 	 -0.706618 	 78.0754 	 50.9029
| 11> C 	 -2.04497 	 77.6863 	 51.1159
| 12> H 	 -0.025853 	 77.3218 	 50.5626
| 13> C 	 0.66081 	 80.1788 	 50.3638
| 14> H 	 1.27242 	 80.2227 	 51.2143
| 15> H 	 0.420317 	 81.2124 	 50.1189
| 16> C 	 1.46298 	 79.447 	 49.1757
| 17> H 	 2.24814 	 79.9959 	 48.7989
| 18> H 	 1.81446 	 78.3867 	 49.4975
| 19> C 	 0.583138 	 79.3349 	 47.9421
| 20> H 	 -0.0254263 	 78.4811 	 48.0644
| 21> H 	 -0.075478 	 80.1827 	 47.965
| 22> H 	 1.0983 	 79.308 	 47.0025
| 23> S 	 -4.11994 	 76.0113 	 51.8974
| 24> C 	 -4.23486 	 74.4838 	 51.1279
| 25> C 	 -3.23772 	 74.266 	 50.1735
| 26> C 	 -2.37139 	 75.356 	 49.9961
| 27> C 	 -2.65253 	 76.3942 	 50.8684
| 28> H 	 -3.16874 	 73.4194 	 49.5458
| 29> C 	 -1.24658 	 75.3242 	 48.9414
| 30> H 	 -1.05876 	 76.44 	 48.7702
| 31> H 	 -1.82724 	 74.9611 	 48.0879
| 32> C 	 -0.0523393 	 74.2841 	 49.3179
| 33> H 	 0.455067 	 74.1086 	 48.4123
| 34> H 	 -0.496805 	 73.3848 	 49.7535
| 35> C 	 1.02218 	 74.9275 	 50.2634
| 36> H 	 0.53528 	 75.0094 	 51.3179
| 37> H 	 1.42729 	 75.8371 	 49.917
| 38> H 	 1.83209 	 74.1771 	 50.4816
| 39> H 	 -1.73218 	 81.187 	 51.8162
| 40> H 	 -5.13188 	 73.8548 	 51.1708
| 41> *
| 42>
| 43>                          ****END OF INPUT****

CARTESIAN COORDINATES (ANGSTROEM)
---------------------------------
  S     -2.873140   79.018100   51.948400
  C     -1.594520   80.118700   51.550600
  C     -0.572481   79.504000   50.929900
  C     -0.706618   78.075400   50.902900
  C     -2.044970   77.686300   51.115900
  H     -0.025853   77.321800   50.562600
  C      0.660810   80.178800   50.363800
  H      1.272420   80.222700   51.214300
  H      0.420317   81.212400   50.118900
  C      1.462980   79.447000   49.175700
  H      2.248140   79.995900   48.798900
  H      1.814460   78.386700   49.497500
  C      0.583138   79.334900   47.942100
  H     -0.025426   78.481100   48.064400
  H     -0.075478   80.182700   47.965000
  H      1.098300   79.308000   47.002500
  S     -4.119940   76.011300   51.897400
  C     -4.234860   74.483800   51.127900
  C     -3.237720   74.266000   50.173500
  C     -2.371390   75.356000   49.996100
  C     -2.652530   76.394200   50.868400
  H     -3.168740   73.419400   49.545800
  C     -1.246580   75.324200   48.941400
  H     -1.058760   76.440000   48.770200
  H     -1.827240   74.961100   48.087900
  C     -0.052339   74.284100   49.317900
  H      0.455067   74.108600   48.412300
  H     -0.496805   73.384800   49.753500
  C      1.022180   74.927500   50.263400
  H      0.535280   75.009400   51.317900
  H      1.427290   75.837100   49.917000
  H      1.832090   74.177100   50.481600
  H     -1.732180   81.187000   51.816200
  H     -5.131880   73.854800   51.170800

 Total Charge           Charge          ....    0
 Multiplicity           Mult            ....    1
 Number of Electrons    NEL             ....  134
 Basis Dimension        Dim             ....  322

ORBITAL ENERGIES
----------------

  NO   OCC          E(Eh)            E(eV)
   0   2.0000     -88.965889     -2420.8849
   1   2.0000     -88.959493     -2420.7109
   2   2.0000     -10.331962      -281.1470
   3   2.0000     -10.330471      -281.1064
   4   2.0000     -10.319729      -280.8141
   5   2.0000     -10.308771      -280.5159
   6   2.0000     -10.307272      -280.4751
   7   2.0000     -10.303126      -280.3623
   8   2.0000     -10.301523      -280.3187
   9   2.0000     -10.299845      -280.2730
  10   2.0000     -10.293269      -280.0941
  11   2.0000     -10.292345      -280.0689
  12   2.0000     -10.292258      -280.0666
  13   2.0000     -10.292213      -280.0653
  14   2.0000     -10.290054      -280.0066
  15   2.0000     -10.265924      -279.3500
  16   2.0000      -8.080313      -219.8765
  17   2.0000      -8.074585      -219.7206
  18   2.0000      -6.038805      -164.3242
  19   2.0000      -6.034967      -164.2198
  20   2.0000      -6.033189      -164.1714
  21   2.0000      -6.031024      -164.1125
  22   2.0000      -6.029248      -164.0642
  23   2.0000      -6.025031      -163.9494
  24   2.0000      -1.003744       -27.3133
  25   2.0000      -0.983543       -26.7636
  26   2.0000      -0.908171       -24.7126
  27   2.0000      -0.901218       -24.5234
  28   2.0000      -0.870181       -23.6788
  29   2.0000      -0.854344       -23.2479
  30   2.0000      -0.844788       -22.9878
  31   2.0000      -0.811479       -22.0815
  32   2.0000      -0.782988       -21.3062
  33   2.0000      -0.769958       -20.9516
  34   2.0000      -0.713209       -19.4074
  35   2.0000      -0.701009       -19.0754
  36   2.0000      -0.692883       -18.8543
  37   2.0000      -0.664557       -18.0835
  38   2.0000      -0.639858       -17.4114
  39   2.0000      -0.618719       -16.8362
  40   2.0000      -0.590539       -16.0694
  41   2.0000      -0.559081       -15.2134
  42   2.0000      -0.557110       -15.1597
  43   2.0000      -0.552127       -15.0241
  44   2.0000      -0.544672       -14.8213
  45   2.0000      -0.543044       -14.7770
  46   2.0000      -0.523251       -14.2384
  47   2.0000      -0.512434       -13.9440
  48   2.0000      -0.498740       -13.5714
  49   2.0000      -0.497532       -13.5385
  50   2.0000      -0.492322       -13.3968
  51   2.0000      -0.477592       -12.9959
  52   2.0000      -0.472757       -12.8644
  53   2.0000      -0.462272       -12.5791
  54   2.0000      -0.457157       -12.4399
  55   2.0000      -0.450471       -12.2579
  56   2.0000      -0.441947       -12.0260
  57   2.0000      -0.438595       -11.9348
  58   2.0000      -0.435642       -11.8544
  59   2.0000      -0.432121       -11.7586
  60   2.0000      -0.421815       -11.4782
  61   2.0000      -0.417437       -11.3590
  62   2.0000      -0.408205       -11.1078
  63   2.0000      -0.355529        -9.6744
  64   2.0000      -0.334997        -9.1157
  65   2.0000      -0.322331        -8.7711
  66   2.0000      -0.277606        -7.5540
  67   0.0000       0.015985         0.4350
  68   0.0000       0.083633         2.2758
  69   0.0000       0.092356         2.5131
  70   0.0000       0.118150         3.2150
  71   0.0000       0.127091         3.4583

MULLIKEN ATOMIC CHARGES
-----------------------
   0 S :    0.085662
   1 C :   -0.142343
   2 C :   -0.073827
   3 C :    0.039155
   4 C :   -0.133869
   5 H :   -0.051781
   6 C :    0.076341
   7 H :    0.032783
   8 H :    0.026047
   9 C :   -0.085182
  10 H :    0.018357
  11 H :    0.045066
  12 C :   -0.015329
  13 H :    0.013413
  14 H :    0.021110
  15 H :    0.032044
  16 S :    0.093848
  17 C :   -0.077940
  18 C :   -0.028515
  19 C :   -0.073820
  20 C :   -0.141680
  21 H :   -0.002150
  22 C :    0.009284
  23 H :    0.055886
  24 H :    0.033493
  25 C :   -0.024043
  26 H :    0.032320
  27 H :    0.043439
  28 C :   -0.090713
  29 H :    0.057536
  30 H :    0.048394
  31 H :    0.045428
  32 H :    0.062773
  33 H :    0.068813
Sum of atomic charges:   -0.0000000

LOEWDIN ATOMIC CHARGES
----------------------
   0 S :    0.383321
   1 C :   -0.207289
   2 C :   -0.064576
   3 C :   -0.065064
   4 C :   -0.173802
   5 H :    0.021334
   6 C :   -0.026277
   7 H :    0.030284
   8 H :    0.030454
   9 C :   -0.033718
  10 H :    0.015460
  11 H :    0.028899
  12 C :   -0.058988
  13 H :    0.015308
  14 H :    0.025242
  15 H :    0.022822
  16 S :    0.383815
  17 C :   -0.190106
  18 C :   -0.074617
  19 C :   -0.058824
  20 C :   -0.173960
  21 H :    0.022710
  22 C :   -0.037204
  23 H :    0.040831
  24 H :    0.033062
  25 C :   -0.021790
  26 H :    0.018134
  27 H :    0.030367
  28 C :   -0.074179
  29 H :    0.041141
  30 H :    0.013892
  31 H :    0.033860
  32 H :    0.035355
  33 H :    0.034104

  Mayer bond orders larger than 0.100000
B(  0-S ,  1-C ) :   1.1177 B(  0-S ,  4-C ) :   1.1429 B(  1-C ,  2-C ) :   1.6419
B(  1-C , 32-H ) :   0.9664 B(  2-C ,  3-C ) :   1.2102 B(  2-C ,  6-C ) :   0.9985
B(  3-C ,  4-C ) :   1.5596 B(  3-C ,  5-H ) :   0.9825 B(  4-C , 20-C ) :   1.1092
B(  6-C ,  7-H ) :   0.9332 B(  6-C ,  8-H ) :   0.9461 B(  6-C ,  9-C ) :   1.0771
B(  9-C , 10-H ) :   0.9579 B(  9-C , 11-H ) :   0.9530 B(  9-C , 12-C ) :   1.0644
B( 12-C , 13-H ) :   0.9753 B( 12-C , 14-H ) :   0.9702 B( 12-C , 15-H ) :   0.9748
B( 16-S , 17-C ) :   1.1699 B( 16-S , 20-C ) :   1.1122 B( 17-C , 18-C ) :   1.5833
B( 17-C , 20-C ) :   0.1003 B( 17-C , 33-H ) :   0.9614 B( 18-C , 19-C ) :   1.2693
B( 18-C , 21-H ) :   0.9891 B( 19-C , 20-C ) :   1.5885 B( 19-C , 22-C ) :   1.0059
B( 22-C , 23-H ) :   0.9416 B( 22-C , 24-H ) :   0.9334 B( 22-C , 25-C ) :   1.0382
B( 25-C , 26-H ) :   0.9595 B( 25-C , 27-H ) :   0.9583 B( 25-C , 28-C ) :   1.0848
B( 28-C , 29-H ) :   0.9684 B( 28-C , 30-H ) :   0.9616 B( 28-C , 31-H ) :   0.9677

Dispersion correction           -0.016162165
FINAL SINGLE POINT ENERGY     -1339.848866632322

DIPOLE MOMENT
-------------
                                X             Y             Z
Electronic contribution:    -24.67852       1.85299      16.51667
Nuclear contribution   :     25.24239      -2.06492     -17.08285
                        -----------------------------------------
Total Dipole Moment    :      0.56386      -0.21193      -0.56618
                        -----------------------------------------
Magnitude (a.u.)       :      0.82669
Magnitude (Debye)      :      2.10128

Rotational constants in cm-1:     0.017680     0.011162     0.007532
Rotational constants in MHz :   530.019565   334.643179   225.810280

                             ****ORCA TERMINATED NORMALLY****
TOTAL RUN TIME: 0 days 0 hours 0 minutes 35 seconds 616 msec
