                         Program Version 4.2.1 -  RELEASE  -
|  1> ! wB97X-D3 SP def2-SVP
|  2> %pal
|  3> nprocs 16
|  4> end
|  5>
|  6> * xyz 0 1
|  7> S 	 54.0034 	 -0.595719 	 88.1469
|  8> C 	 52.6385 	 -1.62979 	 88.5762
|  9> C 	 51.5553 	 -0.77749 	 88.7151
| 10> C 	 51.8487 	 0.627494 	 88.6825
| 11> C 	 53.1685 	 0.882526 	 88.4207
| 12> H 	 51.136 	 1.48079 	 88.7204
| 13> C 	 50.151 	 -1.21294 	 88.9234
| 14> H 	 49.4981 	 -0.319631 	 88.9729
| 15> H 	 50.091 	 -1.86761 	 89.8072
| 16> C 	 49.5033 	 -2.07922 	 87.8494
| 17> H 	 49.6653 	 -1.62079 	 86.8997
| 18> H 	 49.9868 	 -3.0329 	 87.7395
| 19> C 	 47.9744 	 -2.30451 	 88.1217
| 20> H 	 47.4869 	 -2.80907 	 87.3332
| 21> H 	 47.8263 	 -2.88739 	 89.084
| 22> H 	 47.5097 	 -1.33891 	 88.2611
| 23> S 	 53.7684 	 3.02833 	 86.8924
| 24> C 	 54.8049 	 4.33344 	 87.4174
| 25> C 	 54.9413 	 4.16758 	 88.8026
| 26> C 	 54.5041 	 2.90982 	 89.3081
| 27> C 	 53.8718 	 2.13114 	 88.3203
| 28> H 	 55.5734 	 4.9486 	 89.2314
| 29> C 	 54.8467 	 2.50943 	 90.6864
| 30> H 	 55.841 	 1.92699 	 90.6749
| 31> H 	 54.0876 	 1.82974 	 91.0086
| 32> C 	 54.7831 	 3.57821 	 91.7504
| 33> H 	 53.8568 	 4.13416 	 91.567
| 34> H 	 55.5785 	 4.23752 	 91.5627
| 35> C 	 54.7709 	 3.20034 	 93.2503
| 36> H 	 53.8595 	 2.74921 	 93.5711
| 37> H 	 55.035 	 4.06421 	 93.786
| 38> H 	 55.5754 	 2.47064 	 93.402
| 39> H 	 52.7975 	 -2.70899 	 88.7521
| 40> H 	 55.1597 	 5.13716 	 86.7587
| 41> *
| 42>
| 43>                          ****END OF INPUT****

CARTESIAN COORDINATES (ANGSTROEM)
---------------------------------
  S     54.003400   -0.595719   88.146900
  C     52.638500   -1.629790   88.576200
  C     51.555300   -0.777490   88.715100
  C     51.848700    0.627494   88.682500
  C     53.168500    0.882526   88.420700
  H     51.136000    1.480790   88.720400
  C     50.151000   -1.212940   88.923400
  H     49.498100   -0.319631   88.972900
  H     50.091000   -1.867610   89.807200
  C     49.503300   -2.079220   87.849400
  H     49.665300   -1.620790   86.899700
  H     49.986800   -3.032900   87.739500
  C     47.974400   -2.304510   88.121700
  H     47.486900   -2.809070   87.333200
  H     47.826300   -2.887390   89.084000
  H     47.509700   -1.338910   88.261100
  S     53.768400    3.028330   86.892400
  C     54.804900    4.333440   87.417400
  C     54.941300    4.167580   88.802600
  C     54.504100    2.909820   89.308100
  C     53.871800    2.131140   88.320300
  H     55.573400    4.948600   89.231400
  C     54.846700    2.509430   90.686400
  H     55.841000    1.926990   90.674900
  H     54.087600    1.829740   91.008600
  C     54.783100    3.578210   91.750400
  H     53.856800    4.134160   91.567000
  H     55.578500    4.237520   91.562700
  C     54.770900    3.200340   93.250300
  H     53.859500    2.749210   93.571100
  H     55.035000    4.064210   93.786000
  H     55.575400    2.470640   93.402000
  H     52.797500   -2.708990   88.752100
  H     55.159700    5.137160   86.758700

 Total Charge           Charge          ....    0
 Multiplicity           Mult            ....    1
 Number of Electrons    NEL             ....  134
 Basis Dimension        Dim             ....  322

ORBITAL ENERGIES
----------------

  NO   OCC          E(Eh)            E(eV)
   0   2.0000     -88.962228     -2420.7853
   1   2.0000     -88.960619     -2420.7415
   2   2.0000     -10.325222      -280.9636
   3   2.0000     -10.321741      -280.8688
   4   2.0000     -10.320494      -280.8349
   5   2.0000     -10.319542      -280.8090
   6   2.0000     -10.303902      -280.3834
   7   2.0000     -10.302927      -280.3569
   8   2.0000     -10.296917      -280.1934
   9   2.0000     -10.294882      -280.1380
  10   2.0000     -10.287878      -279.9474
  11   2.0000     -10.285389      -279.8797
  12   2.0000     -10.279846      -279.7288
  13   2.0000     -10.279823      -279.7282
  14   2.0000     -10.277905      -279.6760
  15   2.0000     -10.273153      -279.5467
  16   2.0000      -8.078119      -219.8168
  17   2.0000      -8.075979      -219.7586
  18   2.0000      -6.036395      -164.2587
  19   2.0000      -6.034443      -164.2055
  20   2.0000      -6.032221      -164.1451
  21   2.0000      -6.030209      -164.0903
  22   2.0000      -6.029273      -164.0649
  23   2.0000      -6.026920      -164.0008
  24   2.0000      -1.013758       -27.5858
  25   2.0000      -0.989322       -26.9208
  26   2.0000      -0.914086       -24.8735
  27   2.0000      -0.912489       -24.8301
  28   2.0000      -0.872134       -23.7320
  29   2.0000      -0.850375       -23.1399
  30   2.0000      -0.845493       -23.0070
  31   2.0000      -0.816783       -22.2258
  32   2.0000      -0.781770       -21.2730
  33   2.0000      -0.770178       -20.9576
  34   2.0000      -0.705314       -19.1926
  35   2.0000      -0.703047       -19.1309
  36   2.0000      -0.698421       -19.0050
  37   2.0000      -0.650443       -17.6995
  38   2.0000      -0.647019       -17.6063
  39   2.0000      -0.617923       -16.8145
  40   2.0000      -0.599113       -16.3027
  41   2.0000      -0.573091       -15.5946
  42   2.0000      -0.572198       -15.5703
  43   2.0000      -0.563804       -15.3419
  44   2.0000      -0.533397       -14.5145
  45   2.0000      -0.525856       -14.3093
  46   2.0000      -0.520582       -14.1657
  47   2.0000      -0.514700       -14.0057
  48   2.0000      -0.505503       -13.7554
  49   2.0000      -0.501364       -13.6428
  50   2.0000      -0.491160       -13.3652
  51   2.0000      -0.482461       -13.1284
  52   2.0000      -0.475380       -12.9357
  53   2.0000      -0.465840       -12.6762
  54   2.0000      -0.459742       -12.5102
  55   2.0000      -0.450338       -12.2543
  56   2.0000      -0.443575       -12.0703
  57   2.0000      -0.435359       -11.8467
  58   2.0000      -0.421491       -11.4694
  59   2.0000      -0.420982       -11.4555
  60   2.0000      -0.415526       -11.3070
  61   2.0000      -0.412142       -11.2149
  62   2.0000      -0.411333       -11.1929
  63   2.0000      -0.333170        -9.0660
  64   2.0000      -0.329300        -8.9607
  65   2.0000      -0.316998        -8.6260
  66   2.0000      -0.311638        -8.4801
  67   0.0000       0.044039         1.1984
  68   0.0000       0.049249         1.3401
  69   0.0000       0.115768         3.1502
  70   0.0000       0.124550         3.3892
  71   0.0000       0.129201         3.5157

MULLIKEN ATOMIC CHARGES
-----------------------
   0 S :    0.103430
   1 C :   -0.149100
   2 C :   -0.063730
   3 C :    0.037304
   4 C :   -0.184962
   5 H :    0.030261
   6 C :    0.050985
   7 H :    0.019748
   8 H :    0.033323
   9 C :   -0.070919
  10 H :    0.018251
  11 H :    0.018013
  12 C :   -0.047034
  13 H :    0.033604
  14 H :    0.035889
  15 H :    0.024835
  16 S :    0.115874
  17 C :   -0.128148
  18 C :   -0.049413
  19 C :   -0.028576
  20 C :   -0.154057
  21 H :    0.030244
  22 C :    0.095337
  23 H :    0.055249
  24 H :    0.011531
  25 C :   -0.124557
  26 H :    0.028014
  27 H :    0.016180
  28 C :    0.010633
  29 H :    0.033835
  30 H :    0.026304
  31 H :    0.021314
  32 H :    0.074944
  33 H :    0.075392
Sum of atomic charges:    0.0000000

LOEWDIN ATOMIC CHARGES
----------------------
   0 S :    0.417375
   1 C :   -0.198105
   2 C :   -0.065682
   3 C :   -0.068198
   4 C :   -0.206759
   5 H :    0.041630
   6 C :   -0.037820
   7 H :    0.030940
   8 H :    0.035122
   9 C :   -0.037550
  10 H :    0.017720
  11 H :    0.016678
  12 C :   -0.061216
  13 H :    0.020736
  14 H :    0.031457
  15 H :    0.021504
  16 S :    0.441550
  17 C :   -0.193030
  18 C :   -0.078114
  19 C :   -0.055933
  20 C :   -0.232644
  21 H :    0.033901
  22 C :   -0.041406
  23 H :    0.044402
  24 H :    0.027604
  25 C :   -0.041290
  26 H :    0.027192
  27 H :    0.011987
  28 C :   -0.051346
  29 H :    0.022159
  30 H :    0.024165
  31 H :    0.026301
  32 H :    0.039568
  33 H :    0.037104

  Mayer bond orders larger than 0.100000
B(  0-S ,  1-C ) :   1.1392 B(  0-S ,  4-C ) :   1.1784 B(  1-C ,  2-C ) :   1.5605
B(  1-C ,  4-C ) :   0.1040 B(  1-C , 32-H ) :   0.9790 B(  2-C ,  3-C ) :   1.2464
B(  2-C ,  6-C ) :   1.0373 B(  3-C ,  4-C ) :   1.5823 B(  3-C ,  5-H ) :   0.9912
B(  4-C , 20-C ) :   0.9934 B(  6-C ,  7-H ) :   0.9444 B(  6-C ,  8-H ) :   0.9340
B(  6-C ,  9-C ) :   1.0642 B(  9-C , 10-H ) :   0.9559 B(  9-C , 11-H ) :   0.9523
B(  9-C , 12-C ) :   1.0803 B( 12-C , 13-H ) :   0.9757 B( 12-C , 14-H ) :   0.9753
B( 12-C , 15-H ) :   0.9759 B( 16-S , 17-C ) :   1.1841 B( 16-S , 20-C ) :   1.1844
B( 17-C , 18-C ) :   1.5552 B( 17-C , 20-C ) :   0.1133 B( 17-C , 33-H ) :   0.9696
B( 18-C , 19-C ) :   1.2633 B( 18-C , 21-H ) :   0.9911 B( 19-C , 20-C ) :   1.5372
B( 19-C , 22-C ) :   1.0622 B( 22-C , 23-H ) :   0.9214 B( 22-C , 24-H ) :   0.9194
B( 22-C , 25-C ) :   1.0709 B( 25-C , 26-H ) :   0.9576 B( 25-C , 27-H ) :   0.9482
B( 25-C , 28-C ) :   1.0895 B( 28-C , 29-H ) :   0.9754 B( 28-C , 30-H ) :   0.9715
B( 28-C , 31-H ) :   0.9726

Dispersion correction           -0.013388340
FINAL SINGLE POINT ENERGY     -1339.868082227727

DIPOLE MOMENT
-------------
                                X             Y             Z
Electronic contribution:     13.26040       4.30979     -17.00130
Nuclear contribution   :    -13.43452      -4.22841      17.35670
                        -----------------------------------------
Total Dipole Moment    :     -0.17412       0.08138       0.35540
                        -----------------------------------------
Magnitude (a.u.)       :      0.40404
Magnitude (Debye)      :      1.02700

Rotational constants in cm-1:     0.020145     0.007060     0.006138
Rotational constants in MHz :   603.921155   211.641428   184.016217

                             ****ORCA TERMINATED NORMALLY****
TOTAL RUN TIME: 0 days 0 hours 0 minutes 27 seconds 660 msec
