                         Program Version 4.2.1 -  RELEASE  -
|  1> ! wB97X-D3 SP def2-SVP
|  2> %pal
|  3> nprocs 16
|  4> end
|  5>
|  6> * xyz 0 1
|  7> S 	 53.933 	 5.39611 	 82.1661
|  8> C 	 54.0921 	 3.78315 	 81.4695
|  9> C 	 53.5323 	 2.7503 	 82.1808
| 10> C 	 53.0412 	 3.2773 	 83.4509
| 11> C 	 53.2718 	 4.64943 	 83.6428
| 12> H 	 52.3803 	 2.72608 	 84.1029
| 13> C 	 53.1904 	 1.32509 	 81.6399
| 14> H 	 53.5434 	 1.22823 	 80.6677
| 15> H 	 52.073 	 1.18272 	 81.6965
| 16> C 	 53.8866 	 0.27707 	 82.4545
| 17> H 	 54.996 	 0.442632 	 82.3999
| 18> H 	 53.5637 	 0.336803 	 83.5166
| 19> C 	 53.7076 	 -1.2077 	 82.0444
| 20> H 	 54.2864 	 -1.42672 	 81.1946
| 21> H 	 54.1692 	 -1.87376 	 82.7756
| 22> H 	 52.6695 	 -1.58404 	 81.8204
| 23> S 	 52.3647 	 7.09682 	 84.4202
| 24> C 	 52.1547 	 7.48103 	 86.0904
| 25> C 	 52.437 	 6.34694 	 86.9054
| 26> C 	 52.9459 	 5.24016 	 86.149
| 27> C 	 52.9919 	 5.48034 	 84.7666
| 28> H 	 52.3106 	 6.34312 	 88.0533
| 29> C 	 53.4291 	 3.9873 	 86.7976
| 30> H 	 54.2673 	 4.20045 	 87.4092
| 31> H 	 53.8069 	 3.34572 	 86.0521
| 32> C 	 52.3373 	 3.36425 	 87.6339
| 33> H 	 51.5018 	 3.09307 	 86.9834
| 34> H 	 51.9274 	 4.03159 	 88.3037
| 35> C 	 52.8742 	 2.11176 	 88.3091
| 36> H 	 52.8344 	 1.28549 	 87.6689
| 37> H 	 52.199 	 2.0214 	 89.1781
| 38> H 	 53.8236 	 2.38902 	 88.7622
| 39> H 	 54.4707 	 3.49229 	 80.4719
| 40> H 	 51.8371 	 8.44346 	 86.4123
| 41> *
| 42>
| 43>                          ****END OF INPUT****

CARTESIAN COORDINATES (ANGSTROEM)
---------------------------------
  S     53.933000    5.396110   82.166100
  C     54.092100    3.783150   81.469500
  C     53.532300    2.750300   82.180800
  C     53.041200    3.277300   83.450900
  C     53.271800    4.649430   83.642800
  H     52.380300    2.726080   84.102900
  C     53.190400    1.325090   81.639900
  H     53.543400    1.228230   80.667700
  H     52.073000    1.182720   81.696500
  C     53.886600    0.277070   82.454500
  H     54.996000    0.442632   82.399900
  H     53.563700    0.336803   83.516600
  C     53.707600   -1.207700   82.044400
  H     54.286400   -1.426720   81.194600
  H     54.169200   -1.873760   82.775600
  H     52.669500   -1.584040   81.820400
  S     52.364700    7.096820   84.420200
  C     52.154700    7.481030   86.090400
  C     52.437000    6.346940   86.905400
  C     52.945900    5.240160   86.149000
  C     52.991900    5.480340   84.766600
  H     52.310600    6.343120   88.053300
  C     53.429100    3.987300   86.797600
  H     54.267300    4.200450   87.409200
  H     53.806900    3.345720   86.052100
  C     52.337300    3.364250   87.633900
  H     51.501800    3.093070   86.983400
  H     51.927400    4.031590   88.303700
  C     52.874200    2.111760   88.309100
  H     52.834400    1.285490   87.668900
  H     52.199000    2.021400   89.178100
  H     53.823600    2.389020   88.762200
  H     54.470700    3.492290   80.471900
  H     51.837100    8.443460   86.412300

 Total Charge           Charge          ....    0
 Multiplicity           Mult            ....    1
 Number of Electrons    NEL             ....  134
 Basis Dimension        Dim             ....  322

ORBITAL ENERGIES
----------------

  NO   OCC          E(Eh)            E(eV)
   0   2.0000     -88.969651     -2420.9873
   1   2.0000     -88.965296     -2420.8688
   2   2.0000     -10.333968      -281.2016
   3   2.0000     -10.325544      -280.9723
   4   2.0000     -10.322162      -280.8803
   5   2.0000     -10.315504      -280.6991
   6   2.0000     -10.306683      -280.4591
   7   2.0000     -10.304823      -280.4085
   8   2.0000     -10.303038      -280.3599
   9   2.0000     -10.299371      -280.2601
  10   2.0000     -10.298796      -280.2445
  11   2.0000     -10.292251      -280.0664
  12   2.0000     -10.279356      -279.7155
  13   2.0000     -10.276509      -279.6380
  14   2.0000     -10.275215      -279.6028
  15   2.0000     -10.273191      -279.5477
  16   2.0000      -8.083556      -219.9647
  17   2.0000      -8.080300      -219.8761
  18   2.0000      -6.042218      -164.4171
  19   2.0000      -6.038744      -164.3226
  20   2.0000      -6.038470      -164.3151
  21   2.0000      -6.034684      -164.2121
  22   2.0000      -6.033899      -164.1907
  23   2.0000      -6.031211      -164.1176
  24   2.0000      -1.003710       -27.3123
  25   2.0000      -0.977788       -26.6070
  26   2.0000      -0.921315       -25.0703
  27   2.0000      -0.913250       -24.8508
  28   2.0000      -0.869553       -23.6617
  29   2.0000      -0.855839       -23.2886
  30   2.0000      -0.841249       -22.8915
  31   2.0000      -0.809843       -22.0370
  32   2.0000      -0.786159       -21.3925
  33   2.0000      -0.774126       -21.0650
  34   2.0000      -0.708877       -19.2895
  35   2.0000      -0.704155       -19.1610
  36   2.0000      -0.690253       -18.7827
  37   2.0000      -0.660250       -17.9663
  38   2.0000      -0.634736       -17.2720
  39   2.0000      -0.619416       -16.8552
  40   2.0000      -0.600632       -16.3440
  41   2.0000      -0.578716       -15.7477
  42   2.0000      -0.571888       -15.5619
  43   2.0000      -0.555595       -15.1185
  44   2.0000      -0.531738       -14.4693
  45   2.0000      -0.521896       -14.2015
  46   2.0000      -0.518265       -14.1027
  47   2.0000      -0.510259       -13.8849
  48   2.0000      -0.507211       -13.8019
  49   2.0000      -0.497479       -13.5371
  50   2.0000      -0.493004       -13.4153
  51   2.0000      -0.483962       -13.1693
  52   2.0000      -0.475504       -12.9391
  53   2.0000      -0.462266       -12.5789
  54   2.0000      -0.458724       -12.4825
  55   2.0000      -0.452347       -12.3090
  56   2.0000      -0.443748       -12.0750
  57   2.0000      -0.438902       -11.9431
  58   2.0000      -0.434099       -11.8124
  59   2.0000      -0.427725       -11.6390
  60   2.0000      -0.422457       -11.4956
  61   2.0000      -0.421610       -11.4726
  62   2.0000      -0.408860       -11.1256
  63   2.0000      -0.354476        -9.6458
  64   2.0000      -0.332611        -9.0508
  65   2.0000      -0.328398        -8.9362
  66   2.0000      -0.280330        -7.6282
  67   0.0000       0.019057         0.5186
  68   0.0000       0.071708         1.9513
  69   0.0000       0.096631         2.6294
  70   0.0000       0.122145         3.3237
  71   0.0000       0.129265         3.5175

MULLIKEN ATOMIC CHARGES
-----------------------
   0 S :    0.109065
   1 C :   -0.111114
   2 C :   -0.115712
   3 C :    0.014249
   4 C :   -0.147280
   5 H :    0.017562
   6 C :    0.128324
   7 H :   -0.003182
   8 H :    0.051502
   9 C :   -0.135354
  10 H :    0.040654
  11 H :    0.034690
  12 C :   -0.036498
  13 H :    0.013780
  14 H :    0.031549
  15 H :    0.036799
  16 S :    0.093225
  17 C :   -0.083843
  18 C :   -0.064706
  19 C :   -0.065414
  20 C :   -0.120611
  21 H :    0.054632
  22 C :    0.126755
  23 H :    0.015969
  24 H :   -0.001159
  25 C :   -0.104925
  26 H :    0.021862
  27 H :    0.005688
  28 C :    0.014328
  29 H :    0.035960
  30 H :    0.023427
  31 H :    0.022391
  32 H :    0.044341
  33 H :    0.053047
Sum of atomic charges:    0.0000000

LOEWDIN ATOMIC CHARGES
----------------------
   0 S :    0.384704
   1 C :   -0.198157
   2 C :   -0.060473
   3 C :   -0.062413
   4 C :   -0.178470
   5 H :    0.027384
   6 C :   -0.019813
   7 H :    0.018951
   8 H :    0.042105
   9 C :   -0.048741
  10 H :    0.033480
  11 H :    0.023320
  12 C :   -0.073584
  13 H :    0.015844
  14 H :    0.029853
  15 H :    0.028477
  16 S :    0.407447
  17 C :   -0.185025
  18 C :   -0.080662
  19 C :   -0.050142
  20 C :   -0.201861
  21 H :    0.045375
  22 C :   -0.026089
  23 H :    0.026763
  24 H :    0.023045
  25 C :   -0.032059
  26 H :    0.024914
  27 H :    0.008923
  28 C :   -0.053011
  29 H :    0.019332
  30 H :    0.030825
  31 H :    0.025085
  32 H :    0.031951
  33 H :    0.022720

  Mayer bond orders larger than 0.100000
B(  0-S ,  1-C ) :   1.1206 B(  0-S ,  4-C ) :   1.1198 B(  1-C ,  2-C ) :   1.6758
B(  1-C , 32-H ) :   0.9521 B(  2-C ,  3-C ) :   1.2108 B(  2-C ,  6-C ) :   1.0236
B(  3-C ,  4-C ) :   1.5892 B(  3-C ,  5-H ) :   0.9846 B(  4-C , 20-C ) :   1.0875
B(  6-C ,  7-H ) :   0.9334 B(  6-C ,  8-H ) :   0.9423 B(  6-C ,  9-C ) :   1.0602
B(  9-C , 10-H ) :   0.9540 B(  9-C , 11-H ) :   0.9617 B(  9-C , 12-C ) :   1.0819
B( 12-C , 13-H ) :   0.9731 B( 12-C , 14-H ) :   0.9725 B( 12-C , 15-H ) :   0.9743
B( 16-S , 17-C ) :   1.1785 B( 16-S , 20-C ) :   1.1278 B( 17-C , 18-C ) :   1.5576
B( 17-C , 20-C ) :   0.1058 B( 17-C , 33-H ) :   0.9761 B( 18-C , 19-C ) :   1.2658
B( 18-C , 21-H ) :   0.9736 B( 19-C , 20-C ) :   1.5641 B( 19-C , 22-C ) :   1.0501
B( 22-C , 23-H ) :   0.9213 B( 22-C , 24-H ) :   0.9277 B( 22-C , 25-C ) :   1.0633
B( 25-C , 26-H ) :   0.9498 B( 25-C , 27-H ) :   0.9595 B( 25-C , 28-C ) :   1.0856
B( 28-C , 29-H ) :   0.9773 B( 28-C , 30-H ) :   0.9735 B( 28-C , 31-H ) :   0.9704

Dispersion correction           -0.013569105
FINAL SINGLE POINT ENERGY     -1339.866534739137

DIPOLE MOMENT
-------------
                                X             Y             Z
Electronic contribution:     -0.29349      31.58635     -10.17298
Nuclear contribution   :      0.13828     -32.18682      10.46980
                        -----------------------------------------
Total Dipole Moment    :     -0.15521      -0.60047       0.29682
                        -----------------------------------------
Magnitude (a.u.)       :      0.68758
Magnitude (Debye)      :      1.74768

Rotational constants in cm-1:     0.016999     0.009060     0.006129
Rotational constants in MHz :   509.625906   271.620349   183.751626

                             ****ORCA TERMINATED NORMALLY****
TOTAL RUN TIME: 0 days 0 hours 0 minutes 30 seconds 93 msec
