                         Program Version 4.2.1 -  RELEASE  -
|  1> ! wB97X-D3 SP def2-SVP
|  2> %pal
|  3> nprocs 16
|  4> end
|  5>
|  6> * xyz 0 1
|  7> S 	 -46.9686 	 5.81314 	 87.7619
|  8> C 	 -46.7542 	 6.57437 	 89.4061
|  9> C 	 -47.8657 	 7.2793 	 89.7103
| 10> C 	 -48.8067 	 7.45234 	 88.7123
| 11> C 	 -48.5619 	 6.63947 	 87.604
| 12> H 	 -49.742 	 8.01027 	 88.7106
| 13> C 	 -48.2334 	 8.03787 	 90.9995
| 14> H 	 -47.9674 	 7.36544 	 91.8803
| 15> H 	 -49.2817 	 8.01183 	 91.1527
| 16> C 	 -47.7906 	 9.47766 	 91.2498
| 17> H 	 -48.2364 	 9.78806 	 92.1916
| 18> H 	 -46.7017 	 9.46102 	 91.3746
| 19> C 	 -48.1823 	 10.5454 	 90.2395
| 20> H 	 -47.6082 	 11.4239 	 90.5104
| 21> H 	 -47.9283 	 10.3346 	 89.1756
| 22> H 	 -49.2467 	 10.731 	 90.2562
| 23> S 	 -48.4384 	 7.13647 	 84.9875
| 24> C 	 -49.9138 	 7.09966 	 83.9937
| 25> C 	 -51.0203 	 6.92943 	 84.7947
| 26> C 	 -50.7346 	 6.59709 	 86.127
| 27> C 	 -49.3557 	 6.58495 	 86.3792
| 28> H 	 -51.9665 	 6.95769 	 84.3641
| 29> C 	 -51.8946 	 6.50027 	 87.142
| 30> H 	 -51.4821 	 5.89774 	 87.9961
| 31> H 	 -52.6229 	 5.75368 	 86.8655
| 32> C 	 -52.5957 	 7.7734 	 87.5818
| 33> H 	 -52.8499 	 8.2962 	 86.6478
| 34> H 	 -51.9329 	 8.36588 	 88.2273
| 35> C 	 -53.851 	 7.4186 	 88.421
| 36> H 	 -53.6324 	 7.09946 	 89.4078
| 37> H 	 -54.6231 	 6.74666 	 87.9342
| 38> H 	 -54.4398 	 8.39981 	 88.5491
| 39> H 	 -45.9449 	 6.32466 	 90.1114
| 40> H 	 -49.9478 	 7.58961 	 83.0131
| 41> *
| 42>
| 43>                          ****END OF INPUT****

CARTESIAN COORDINATES (ANGSTROEM)
---------------------------------
  S    -46.968600    5.813140   87.761900
  C    -46.754200    6.574370   89.406100
  C    -47.865700    7.279300   89.710300
  C    -48.806700    7.452340   88.712300
  C    -48.561900    6.639470   87.604000
  H    -49.742000    8.010270   88.710600
  C    -48.233400    8.037870   90.999500
  H    -47.967400    7.365440   91.880300
  H    -49.281700    8.011830   91.152700
  C    -47.790600    9.477660   91.249800
  H    -48.236400    9.788060   92.191600
  H    -46.701700    9.461020   91.374600
  C    -48.182300   10.545400   90.239500
  H    -47.608200   11.423900   90.510400
  H    -47.928300   10.334600   89.175600
  H    -49.246700   10.731000   90.256200
  S    -48.438400    7.136470   84.987500
  C    -49.913800    7.099660   83.993700
  C    -51.020300    6.929430   84.794700
  C    -50.734600    6.597090   86.127000
  C    -49.355700    6.584950   86.379200
  H    -51.966500    6.957690   84.364100
  C    -51.894600    6.500270   87.142000
  H    -51.482100    5.897740   87.996100
  H    -52.622900    5.753680   86.865500
  C    -52.595700    7.773400   87.581800
  H    -52.849900    8.296200   86.647800
  H    -51.932900    8.365880   88.227300
  C    -53.851000    7.418600   88.421000
  H    -53.632400    7.099460   89.407800
  H    -54.623100    6.746660   87.934200
  H    -54.439800    8.399810   88.549100
  H    -45.944900    6.324660   90.111400
  H    -49.947800    7.589610   83.013100

 Total Charge           Charge          ....    0
 Multiplicity           Mult            ....    1
 Number of Electrons    NEL             ....  134
 Basis Dimension        Dim             ....  322

ORBITAL ENERGIES
----------------

  NO   OCC          E(Eh)            E(eV)
   0   2.0000     -88.967082     -2420.9174
   1   2.0000     -88.965314     -2420.8693
   2   2.0000     -10.334183      -281.2074
   3   2.0000     -10.330229      -281.0998
   4   2.0000     -10.319678      -280.8127
   5   2.0000     -10.318426      -280.7787
   6   2.0000     -10.306435      -280.4524
   7   2.0000     -10.297750      -280.2160
   8   2.0000     -10.297216      -280.2015
   9   2.0000     -10.293482      -280.0999
  10   2.0000     -10.291177      -280.0372
  11   2.0000     -10.290847      -280.0282
  12   2.0000     -10.290590      -280.0212
  13   2.0000     -10.289008      -279.9781
  14   2.0000     -10.286594      -279.9124
  15   2.0000     -10.276331      -279.6332
  16   2.0000      -8.079913      -219.8656
  17   2.0000      -8.079743      -219.8610
  18   2.0000      -6.038625      -164.3193
  19   2.0000      -6.038208      -164.3080
  20   2.0000      -6.034767      -164.2144
  21   2.0000      -6.034350      -164.2030
  22   2.0000      -6.030477      -164.0976
  23   2.0000      -6.030467      -164.0974
  24   2.0000      -1.003837       -27.3158
  25   2.0000      -0.980880       -26.6911
  26   2.0000      -0.910813       -24.7845
  27   2.0000      -0.906930       -24.6788
  28   2.0000      -0.871068       -23.7030
  29   2.0000      -0.850150       -23.1337
  30   2.0000      -0.844862       -22.9899
  31   2.0000      -0.811749       -22.0888
  32   2.0000      -0.784113       -21.3368
  33   2.0000      -0.773586       -21.0503
  34   2.0000      -0.708417       -19.2770
  35   2.0000      -0.700882       -19.0720
  36   2.0000      -0.694004       -18.8848
  37   2.0000      -0.666647       -18.1404
  38   2.0000      -0.638528       -17.3752
  39   2.0000      -0.612956       -16.6794
  40   2.0000      -0.596951       -16.2439
  41   2.0000      -0.573253       -15.5990
  42   2.0000      -0.569450       -15.4955
  43   2.0000      -0.543528       -14.7901
  44   2.0000      -0.542738       -14.7687
  45   2.0000      -0.523772       -14.2526
  46   2.0000      -0.518307       -14.1038
  47   2.0000      -0.510946       -13.9036
  48   2.0000      -0.506660       -13.7869
  49   2.0000      -0.494301       -13.4506
  50   2.0000      -0.488281       -13.2868
  51   2.0000      -0.480031       -13.0623
  52   2.0000      -0.472554       -12.8588
  53   2.0000      -0.466655       -12.6983
  54   2.0000      -0.457585       -12.4515
  55   2.0000      -0.448248       -12.1974
  56   2.0000      -0.438719       -11.9381
  57   2.0000      -0.436249       -11.8709
  58   2.0000      -0.433444       -11.7946
  59   2.0000      -0.421342       -11.4653
  60   2.0000      -0.416752       -11.3404
  61   2.0000      -0.414351       -11.2751
  62   2.0000      -0.409828       -11.1520
  63   2.0000      -0.347736        -9.4624
  64   2.0000      -0.335396        -9.1266
  65   2.0000      -0.330731        -8.9997
  66   2.0000      -0.292504        -7.9594
  67   0.0000       0.022652         0.6164
  68   0.0000       0.062357         1.6968
  69   0.0000       0.100269         2.7284
  70   0.0000       0.109635         2.9833
  71   0.0000       0.127519         3.4700

MULLIKEN ATOMIC CHARGES
-----------------------
   0 S :    0.087341
   1 C :   -0.140014
   2 C :   -0.032629
   3 C :    0.033260
   4 C :   -0.157774
   5 H :    0.000300
   6 C :    0.037382
   7 H :    0.024384
   8 H :    0.003542
   9 C :   -0.042380
  10 H :    0.025762
  11 H :    0.027181
  12 C :   -0.058829
  13 H :    0.034880
  14 H :    0.045022
  15 H :    0.025762
  16 S :    0.093908
  17 C :   -0.091794
  18 C :   -0.029551
  19 C :   -0.016818
  20 C :   -0.135946
  21 H :    0.001445
  22 C :    0.026144
  23 H :    0.022571
  24 H :    0.015447
  25 C :   -0.039725
  26 H :    0.035691
  27 H :    0.039222
  28 C :   -0.087874
  29 H :    0.037305
  30 H :    0.046428
  31 H :    0.038845
  32 H :    0.060450
  33 H :    0.071062
Sum of atomic charges:   -0.0000000

LOEWDIN ATOMIC CHARGES
----------------------
   0 S :    0.353641
   1 C :   -0.176853
   2 C :   -0.069341
   3 C :   -0.062312
   4 C :   -0.173471
   5 H :    0.033268
   6 C :   -0.038199
   7 H :    0.036341
   8 H :    0.020720
   9 C :   -0.038126
  10 H :    0.027355
  11 H :    0.023355
  12 C :   -0.068553
  13 H :    0.029705
  14 H :    0.030022
  15 H :    0.020805
  16 S :    0.402098
  17 C :   -0.181286
  18 C :   -0.061508
  19 C :   -0.058757
  20 C :   -0.191759
  21 H :    0.022515
  22 C :   -0.046759
  23 H :    0.034575
  24 H :    0.028131
  25 C :   -0.035609
  26 H :    0.028150
  27 H :    0.025303
  28 C :   -0.071439
  29 H :    0.019727
  30 H :    0.031814
  31 H :    0.035297
  32 H :    0.037614
  33 H :    0.033536

  Mayer bond orders larger than 0.100000
B(  0-S ,  1-C ) :   1.1008 B(  0-S ,  4-C ) :   1.1432 B(  1-C ,  2-C ) :   1.6439
B(  1-C ,  4-C ) :   0.1029 B(  1-C , 32-H ) :   0.9663 B(  2-C ,  3-C ) :   1.2204
B(  2-C ,  6-C ) :   1.0046 B(  3-C ,  4-C ) :   1.5748 B(  3-C ,  5-H ) :   0.9913
B(  4-C , 20-C ) :   1.0243 B(  6-C ,  7-H ) :   0.9365 B(  6-C ,  8-H ) :   0.9399
B(  6-C ,  9-C ) :   1.0831 B(  9-C , 10-H ) :   0.9491 B(  9-C , 11-H ) :   0.9572
B(  9-C , 12-C ) :   1.0864 B( 12-C , 13-H ) :   0.9719 B( 12-C , 14-H ) :   0.9719
B( 12-C , 15-H ) :   0.9742 B( 16-S , 17-C ) :   1.1473 B( 16-S , 20-C ) :   1.1648
B( 17-C , 18-C ) :   1.6037 B( 17-C , 20-C ) :   0.1015 B( 17-C , 33-H ) :   0.9619
B( 18-C , 19-C ) :   1.2556 B( 18-C , 21-H ) :   0.9982 B( 19-C , 20-C ) :   1.5815
B( 19-C , 22-C ) :   1.0405 B( 22-C , 23-H ) :   0.9291 B( 22-C , 24-H ) :   0.9363
B( 22-C , 25-C ) :   1.0585 B( 25-C , 26-H ) :   0.9540 B( 25-C , 27-H ) :   0.9478
B( 25-C , 28-C ) :   1.0783 B( 28-C , 29-H ) :   0.9774 B( 28-C , 30-H ) :   0.9743
B( 28-C , 31-H ) :   0.9739

Dispersion correction           -0.014508082
FINAL SINGLE POINT ENERGY     -1339.861149721873

DIPOLE MOMENT
-------------
                                X             Y             Z
Electronic contribution:     18.29466     -14.13491     -18.88044
Nuclear contribution   :    -18.96978      14.60995      19.31322
                        -----------------------------------------
Total Dipole Moment    :     -0.67512       0.47503       0.43278
                        -----------------------------------------
Magnitude (a.u.)       :      0.93206
Magnitude (Debye)      :      2.36911

Rotational constants in cm-1:     0.015505     0.010053     0.007308
Rotational constants in MHz :   464.814818   301.376969   219.084239

                             ****ORCA TERMINATED NORMALLY****
TOTAL RUN TIME: 0 days 0 hours 0 minutes 31 seconds 250 msec
