                         Program Version 4.2.1 -  RELEASE  -
|  1> ! wB97X-D3 SP def2-SVP
|  2> %pal
|  3> nprocs 16
|  4> end
|  5>
|  6> * xyz 0 1
|  7> S 	 40.26 	 11.3981 	 78.3781
|  8> C 	 41.1504 	 10.3207 	 79.4455
|  9> C 	 41.8884 	 11.0239 	 80.3429
| 10> C 	 41.6146 	 12.4088 	 80.2193
| 11> C 	 40.8881 	 12.7924 	 79.1179
| 12> H 	 41.8671 	 13.2093 	 80.8825
| 13> C 	 42.6851 	 10.4239 	 81.4911
| 14> H 	 42.0247 	 9.78637 	 82.1464
| 15> H 	 43.0127 	 11.2728 	 82.1543
| 16> C 	 43.8394 	 9.52941 	 80.9277
| 17> H 	 44.4273 	 9.0546 	 81.7044
| 18> H 	 43.4312 	 8.57972 	 80.4722
| 19> C 	 44.8485 	 10.3211 	 80.0431
| 20> H 	 45.5361 	 10.9868 	 80.5914
| 21> H 	 45.4313 	 9.53146 	 79.6146
| 22> H 	 44.307 	 10.9371 	 79.3076
| 23> S 	 38.9936 	 14.3538 	 77.9868
| 24> C 	 39.1587 	 16.0728 	 78.0002
| 25> C 	 40.415 	 16.4924 	 78.4466
| 26> C 	 41.2401 	 15.4061 	 78.8236
| 27> C 	 40.5701 	 14.1647 	 78.7448
| 28> H 	 40.6301 	 17.5483 	 78.429
| 29> C 	 42.6405 	 15.6938 	 79.3784
| 30> H 	 42.7465 	 15.1911 	 80.3725
| 31> H 	 42.7762 	 16.7321 	 79.7023
| 32> C 	 43.8913 	 15.3817 	 78.4945
| 33> H 	 44.6962 	 15.8054 	 79.0351
| 34> H 	 43.8652 	 15.9994 	 77.579
| 35> C 	 44.0915 	 13.9322 	 78.1481
| 36> H 	 44.263 	 13.23 	 79.0004
| 37> H 	 44.8847 	 13.8099 	 77.4472
| 38> H 	 43.1902 	 13.38 	 77.8349
| 39> H 	 41.0807 	 9.22632 	 79.377
| 40> H 	 38.3711 	 16.7676 	 77.7678
| 41> *
| 42>
| 43>                          ****END OF INPUT****

CARTESIAN COORDINATES (ANGSTROEM)
---------------------------------
  S     40.260000   11.398100   78.378100
  C     41.150400   10.320700   79.445500
  C     41.888400   11.023900   80.342900
  C     41.614600   12.408800   80.219300
  C     40.888100   12.792400   79.117900
  H     41.867100   13.209300   80.882500
  C     42.685100   10.423900   81.491100
  H     42.024700    9.786370   82.146400
  H     43.012700   11.272800   82.154300
  C     43.839400    9.529410   80.927700
  H     44.427300    9.054600   81.704400
  H     43.431200    8.579720   80.472200
  C     44.848500   10.321100   80.043100
  H     45.536100   10.986800   80.591400
  H     45.431300    9.531460   79.614600
  H     44.307000   10.937100   79.307600
  S     38.993600   14.353800   77.986800
  C     39.158700   16.072800   78.000200
  C     40.415000   16.492400   78.446600
  C     41.240100   15.406100   78.823600
  C     40.570100   14.164700   78.744800
  H     40.630100   17.548300   78.429000
  C     42.640500   15.693800   79.378400
  H     42.746500   15.191100   80.372500
  H     42.776200   16.732100   79.702300
  C     43.891300   15.381700   78.494500
  H     44.696200   15.805400   79.035100
  H     43.865200   15.999400   77.579000
  C     44.091500   13.932200   78.148100
  H     44.263000   13.230000   79.000400
  H     44.884700   13.809900   77.447200
  H     43.190200   13.380000   77.834900
  H     41.080700    9.226320   79.377000
  H     38.371100   16.767600   77.767800

 Total Charge           Charge          ....    0
 Multiplicity           Mult            ....    1
 Number of Electrons    NEL             ....  134
 Basis Dimension        Dim             ....  322

ORBITAL ENERGIES
----------------

  NO   OCC          E(Eh)            E(eV)
   0   2.0000     -88.968446     -2420.9545
   1   2.0000     -88.965116     -2420.8639
   2   2.0000     -10.332706      -281.1672
   3   2.0000     -10.324954      -280.9563
   4   2.0000     -10.316514      -280.7266
   5   2.0000     -10.313476      -280.6440
   6   2.0000     -10.310592      -280.5655
   7   2.0000     -10.302700      -280.3507
   8   2.0000     -10.298848      -280.2459
   9   2.0000     -10.297364      -280.2055
  10   2.0000     -10.294654      -280.1318
  11   2.0000     -10.294201      -280.1195
  12   2.0000     -10.285803      -279.8909
  13   2.0000     -10.284192      -279.8471
  14   2.0000     -10.277745      -279.6717
  15   2.0000     -10.268267      -279.4138
  16   2.0000      -8.083503      -219.9633
  17   2.0000      -8.080717      -219.8875
  18   2.0000      -6.041862      -164.4074
  19   2.0000      -6.039230      -164.3358
  20   2.0000      -6.037958      -164.3012
  21   2.0000      -6.035053      -164.2221
  22   2.0000      -6.034418      -164.2049
  23   2.0000      -6.031471      -164.1247
  24   2.0000      -1.013913       -27.5900
  25   2.0000      -0.988409       -26.8960
  26   2.0000      -0.908980       -24.7346
  27   2.0000      -0.903964       -24.5981
  28   2.0000      -0.868435       -23.6313
  29   2.0000      -0.851837       -23.1797
  30   2.0000      -0.844011       -22.9667
  31   2.0000      -0.812375       -22.1059
  32   2.0000      -0.782297       -21.2874
  33   2.0000      -0.775647       -21.1064
  34   2.0000      -0.708329       -19.2746
  35   2.0000      -0.703223       -19.1357
  36   2.0000      -0.691376       -18.8133
  37   2.0000      -0.664755       -18.0889
  38   2.0000      -0.640416       -17.4266
  39   2.0000      -0.613233       -16.6869
  40   2.0000      -0.593024       -16.1370
  41   2.0000      -0.570960       -15.5366
  42   2.0000      -0.553965       -15.0742
  43   2.0000      -0.547085       -14.8869
  44   2.0000      -0.540136       -14.6978
  45   2.0000      -0.526071       -14.3151
  46   2.0000      -0.519558       -14.1379
  47   2.0000      -0.510882       -13.9018
  48   2.0000      -0.506236       -13.7754
  49   2.0000      -0.501658       -13.6508
  50   2.0000      -0.491751       -13.3812
  51   2.0000      -0.479654       -13.0521
  52   2.0000      -0.474627       -12.9152
  53   2.0000      -0.467891       -12.7319
  54   2.0000      -0.459917       -12.5150
  55   2.0000      -0.446373       -12.1464
  56   2.0000      -0.438357       -11.9283
  57   2.0000      -0.436984       -11.8909
  58   2.0000      -0.430286       -11.7087
  59   2.0000      -0.425507       -11.5786
  60   2.0000      -0.418850       -11.3975
  61   2.0000      -0.409627       -11.1465
  62   2.0000      -0.401878       -10.9357
  63   2.0000      -0.355315        -9.6686
  64   2.0000      -0.337105        -9.1731
  65   2.0000      -0.329331        -8.9615
  66   2.0000      -0.282789        -7.6951
  67   0.0000       0.021333         0.5805
  68   0.0000       0.077893         2.1196
  69   0.0000       0.100382         2.7315
  70   0.0000       0.120312         3.2738
  71   0.0000       0.132274         3.5994

MULLIKEN ATOMIC CHARGES
-----------------------
   0 S :    0.102954
   1 C :   -0.139860
   2 C :   -0.057004
   3 C :   -0.012130
   4 C :   -0.122557
   5 H :   -0.002443
   6 C :    0.051271
   7 H :    0.047674
   8 H :    0.032615
   9 C :   -0.102192
  10 H :    0.020069
  11 H :    0.032730
  12 C :   -0.050511
  13 H :    0.037998
  14 H :    0.030344
  15 H :    0.060797
  16 S :    0.106909
  17 C :   -0.088149
  18 C :   -0.044949
  19 C :    0.000623
  20 C :   -0.153117
  21 H :    0.019389
  22 C :    0.008944
  23 H :    0.029726
  24 H :    0.016003
  25 C :   -0.014524
  26 H :    0.015726
  27 H :    0.025660
  28 C :   -0.050361
  29 H :    0.016309
  30 H :    0.030335
  31 H :    0.041034
  32 H :    0.056397
  33 H :    0.054292
Sum of atomic charges:   -0.0000000

LOEWDIN ATOMIC CHARGES
----------------------
   0 S :    0.416135
   1 C :   -0.191384
   2 C :   -0.070620
   3 C :   -0.071900
   4 C :   -0.213721
   5 H :    0.024332
   6 C :   -0.034095
   7 H :    0.037734
   8 H :    0.033856
   9 C :   -0.047101
  10 H :    0.020890
  11 H :    0.028244
  12 C :   -0.064133
  13 H :    0.027370
  14 H :    0.026203
  15 H :    0.027202
  16 S :    0.416668
  17 C :   -0.189981
  18 C :   -0.068572
  19 C :   -0.055263
  20 C :   -0.189806
  21 H :    0.033127
  22 C :   -0.036436
  23 H :    0.031433
  24 H :    0.031100
  25 C :   -0.033556
  26 H :    0.019936
  27 H :    0.027491
  28 C :   -0.077610
  29 H :    0.027499
  30 H :    0.022182
  31 H :    0.033402
  32 H :    0.032273
  33 H :    0.027100

  Mayer bond orders larger than 0.100000
B(  0-S ,  1-C ) :   1.1395 B(  0-S ,  4-C ) :   1.1537 B(  1-C ,  2-C ) :   1.5903
B(  1-C , 32-H ) :   0.9705 B(  2-C ,  3-C ) :   1.2413 B(  2-C ,  6-C ) :   1.0085
B(  3-C ,  4-C ) :   1.5642 B(  3-C ,  5-H ) :   1.0006 B(  4-C , 20-C ) :   1.0628
B(  6-C ,  7-H ) :   0.9454 B(  6-C ,  8-H ) :   0.9493 B(  6-C ,  9-C ) :   1.0617
B(  9-C , 10-H ) :   0.9554 B(  9-C , 11-H ) :   0.9581 B(  9-C , 12-C ) :   1.0615
B( 12-C , 13-H ) :   0.9768 B( 12-C , 14-H ) :   0.9698 B( 12-C , 15-H ) :   0.9710
B( 16-S , 17-C ) :   1.1713 B( 16-S , 20-C ) :   1.1486 B( 17-C , 18-C ) :   1.5895
B( 17-C , 20-C ) :   0.1088 B( 17-C , 33-H ) :   0.9682 B( 18-C , 19-C ) :   1.2626
B( 18-C , 21-H ) :   0.9941 B( 19-C , 20-C ) :   1.5539 B( 19-C , 22-C ) :   1.0247
B( 22-C , 23-H ) :   0.9408 B( 22-C , 24-H ) :   0.9364 B( 22-C , 25-C ) :   1.0797
B( 25-C , 26-H ) :   0.9491 B( 25-C , 27-H ) :   0.9507 B( 25-C , 28-C ) :   1.0845
B( 28-C , 29-H ) :   0.9609 B( 28-C , 30-H ) :   0.9711 B( 28-C , 31-H ) :   0.9719

Dispersion correction           -0.016404377
FINAL SINGLE POINT ENERGY     -1339.879143052438

DIPOLE MOMENT
-------------
                                X             Y             Z
Electronic contribution:    -27.07231       3.75612      -8.53847
Nuclear contribution   :     27.49978      -3.61281       8.97000
                        -----------------------------------------
Total Dipole Moment    :      0.42746       0.14330       0.43153
                        -----------------------------------------
Magnitude (a.u.)       :      0.62408
Magnitude (Debye)      :      1.58630

Rotational constants in cm-1:     0.021790     0.009701     0.007441
Rotational constants in MHz :   653.238039   290.819652   223.069065

                             ****ORCA TERMINATED NORMALLY****
TOTAL RUN TIME: 0 days 0 hours 0 minutes 32 seconds 917 msec
