                         Program Version 4.2.1 -  RELEASE  -
|  1> ! wB97X-D3 SP def2-SVP
|  2> %pal
|  3> nprocs 16
|  4> end
|  5>
|  6> * xyz 0 1
|  7> S 	 -68.9084 	 37.5018 	 140.792
|  8> C 	 -69.6274 	 35.9154 	 141.061
|  9> C 	 -68.7284 	 34.9742 	 141.508
| 10> C 	 -67.4367 	 35.5207 	 141.701
| 11> C 	 -67.3393 	 36.881 	 141.363
| 12> H 	 -66.602 	 34.9735 	 142.112
| 13> C 	 -69.0873 	 33.5652 	 141.699
| 14> H 	 -70.1791 	 33.6393 	 141.788
| 15> H 	 -68.6719 	 33.1836 	 142.612
| 16> C 	 -68.7316 	 32.8225 	 140.401
| 17> H 	 -69.1438 	 33.4684 	 139.615
| 18> H 	 -67.6384 	 32.8286 	 140.341
| 19> C 	 -69.2353 	 31.3195 	 140.361
| 20> H 	 -69.1605 	 30.8872 	 139.41
| 21> H 	 -68.5961 	 30.6614 	 140.994
| 22> H 	 -70.2898 	 31.3892 	 140.68
| 23> S 	 -66.4721 	 39.2921 	 142.327
| 24> C 	 -64.7683 	 39.6373 	 142.367
| 25> C 	 -64.0563 	 38.4901 	 142.06
| 26> C 	 -64.7629 	 37.4008 	 141.625
| 27> C 	 -66.1379 	 37.7097 	 141.553
| 28> H 	 -62.9479 	 38.418 	 142.184
| 29> C 	 -64.0344 	 36.2144 	 141.053
| 30> H 	 -64.6469 	 35.3522 	 140.975
| 31> H 	 -63.2071 	 35.9913 	 141.774
| 32> C 	 -63.269 	 36.4175 	 139.753
| 33> H 	 -62.5973 	 35.5844 	 139.571
| 34> H 	 -62.5815 	 37.2119 	 139.953
| 35> C 	 -64.2387 	 36.8421 	 138.567
| 36> H 	 -64.8226 	 37.7804 	 138.795
| 37> H 	 -64.9528 	 36.1113 	 138.491
| 38> H 	 -63.6172 	 36.9203 	 137.652
| 39> H 	 -70.643 	 35.6885 	 140.756
| 40> H 	 -64.3292 	 40.5455 	 142.917
| 41> *
| 42>
| 43>                          ****END OF INPUT****

CARTESIAN COORDINATES (ANGSTROEM)
---------------------------------
  S    -68.908400   37.501800  140.792000
  C    -69.627400   35.915400  141.061000
  C    -68.728400   34.974200  141.508000
  C    -67.436700   35.520700  141.701000
  C    -67.339300   36.881000  141.363000
  H    -66.602000   34.973500  142.112000
  C    -69.087300   33.565200  141.699000
  H    -70.179100   33.639300  141.788000
  H    -68.671900   33.183600  142.612000
  C    -68.731600   32.822500  140.401000
  H    -69.143800   33.468400  139.615000
  H    -67.638400   32.828600  140.341000
  C    -69.235300   31.319500  140.361000
  H    -69.160500   30.887200  139.410000
  H    -68.596100   30.661400  140.994000
  H    -70.289800   31.389200  140.680000
  S    -66.472100   39.292100  142.327000
  C    -64.768300   39.637300  142.367000
  C    -64.056300   38.490100  142.060000
  C    -64.762900   37.400800  141.625000
  C    -66.137900   37.709700  141.553000
  H    -62.947900   38.418000  142.184000
  C    -64.034400   36.214400  141.053000
  H    -64.646900   35.352200  140.975000
  H    -63.207100   35.991300  141.774000
  C    -63.269000   36.417500  139.753000
  H    -62.597300   35.584400  139.571000
  H    -62.581500   37.211900  139.953000
  C    -64.238700   36.842100  138.567000
  H    -64.822600   37.780400  138.795000
  H    -64.952800   36.111300  138.491000
  H    -63.617200   36.920300  137.652000
  H    -70.643000   35.688500  140.756000
  H    -64.329200   40.545500  142.917000

 Total Charge           Charge          ....    0
 Multiplicity           Mult            ....    1
 Number of Electrons    NEL             ....  134
 Basis Dimension        Dim             ....  322

ORBITAL ENERGIES
----------------

  NO   OCC          E(Eh)            E(eV)
   0   2.0000     -88.969486     -2420.9828
   1   2.0000     -88.967542     -2420.9299
   2   2.0000     -10.335560      -281.2449
   3   2.0000     -10.334042      -281.2036
   4   2.0000     -10.321895      -280.8730
   5   2.0000     -10.311785      -280.5979
   6   2.0000     -10.301845      -280.3275
   7   2.0000     -10.295274      -280.1486
   8   2.0000     -10.293486      -280.1000
   9   2.0000     -10.292282      -280.0672
  10   2.0000     -10.291637      -280.0497
  11   2.0000     -10.291422      -280.0438
  12   2.0000     -10.287216      -279.9294
  13   2.0000     -10.284853      -279.8651
  14   2.0000     -10.282429      -279.7991
  15   2.0000     -10.273985      -279.5694
  16   2.0000      -8.083221      -219.9556
  17   2.0000      -8.081808      -219.9172
  18   2.0000      -6.041819      -164.4063
  19   2.0000      -6.040181      -164.3617
  20   2.0000      -6.037907      -164.2998
  21   2.0000      -6.036429      -164.2596
  22   2.0000      -6.033933      -164.1917
  23   2.0000      -6.032682      -164.1576
  24   2.0000      -1.004877       -27.3441
  25   2.0000      -0.985202       -26.8087
  26   2.0000      -0.917008       -24.9531
  27   2.0000      -0.910981       -24.7890
  28   2.0000      -0.862912       -23.4810
  29   2.0000      -0.849677       -23.1209
  30   2.0000      -0.844114       -22.9695
  31   2.0000      -0.808912       -22.0116
  32   2.0000      -0.784306       -21.3421
  33   2.0000      -0.770868       -20.9764
  34   2.0000      -0.710112       -19.3231
  35   2.0000      -0.700596       -19.0642
  36   2.0000      -0.694950       -18.9106
  37   2.0000      -0.660325       -17.9684
  38   2.0000      -0.637765       -17.3545
  39   2.0000      -0.620004       -16.8712
  40   2.0000      -0.596910       -16.2428
  41   2.0000      -0.575127       -15.6500
  42   2.0000      -0.554097       -15.0778
  43   2.0000      -0.547983       -14.9114
  44   2.0000      -0.537562       -14.6278
  45   2.0000      -0.520589       -14.1660
  46   2.0000      -0.515818       -14.0361
  47   2.0000      -0.510893       -13.9021
  48   2.0000      -0.506177       -13.7738
  49   2.0000      -0.491611       -13.3774
  50   2.0000      -0.490747       -13.3539
  51   2.0000      -0.477782       -13.0011
  52   2.0000      -0.473115       -12.8741
  53   2.0000      -0.463409       -12.6100
  54   2.0000      -0.461010       -12.5447
  55   2.0000      -0.452081       -12.3018
  56   2.0000      -0.444910       -12.1066
  57   2.0000      -0.435700       -11.8560
  58   2.0000      -0.434299       -11.8179
  59   2.0000      -0.427907       -11.6440
  60   2.0000      -0.421246       -11.4627
  61   2.0000      -0.418563       -11.3897
  62   2.0000      -0.413548       -11.2532
  63   2.0000      -0.352030        -9.5792
  64   2.0000      -0.335342        -9.1251
  65   2.0000      -0.332009        -9.0344
  66   2.0000      -0.281462        -7.6590
  67   0.0000       0.017612         0.4792
  68   0.0000       0.072744         1.9795
  69   0.0000       0.099891         2.7182
  70   0.0000       0.117148         3.1877
  71   0.0000       0.134251         3.6532

MULLIKEN ATOMIC CHARGES
-----------------------
   0 S :    0.109456
   1 C :   -0.127839
   2 C :   -0.115330
   3 C :    0.015890
   4 C :   -0.136264
   5 H :    0.013709
   6 C :    0.094591
   7 H :    0.014512
   8 H :    0.025737
   9 C :   -0.097234
  10 H :    0.035176
  11 H :    0.026645
  12 C :   -0.018355
  13 H :    0.028052
  14 H :    0.036429
  15 H :    0.036358
  16 S :    0.094688
  17 C :   -0.110222
  18 C :   -0.069546
  19 C :   -0.012081
  20 C :   -0.149862
  21 H :    0.029926
  22 C :    0.046309
  23 H :    0.009134
  24 H :    0.027688
  25 C :   -0.054769
  26 H :    0.029210
  27 H :    0.008962
  28 C :   -0.041269
  29 H :    0.058780
  30 H :    0.012915
  31 H :    0.043663
  32 H :    0.046371
  33 H :    0.088573
Sum of atomic charges:    0.0000000

LOEWDIN ATOMIC CHARGES
----------------------
   0 S :    0.387769
   1 C :   -0.198395
   2 C :   -0.062552
   3 C :   -0.062901
   4 C :   -0.184877
   5 H :    0.029292
   6 C :   -0.030562
   7 H :    0.030775
   8 H :    0.026932
   9 C :   -0.034035
  10 H :    0.027609
  11 H :    0.021458
  12 C :   -0.064569
  13 H :    0.017963
  14 H :    0.030769
  15 H :    0.028535
  16 S :    0.401663
  17 C :   -0.208216
  18 C :   -0.076717
  19 C :   -0.062700
  20 C :   -0.178477
  21 H :    0.036406
  22 C :   -0.030581
  23 H :    0.017684
  24 H :    0.039355
  25 C :   -0.035332
  26 H :    0.025075
  27 H :    0.015442
  28 C :   -0.060351
  29 H :    0.039588
  30 H :    0.009970
  31 H :    0.030206
  32 H :    0.025391
  33 H :    0.048386

  Mayer bond orders larger than 0.100000
B(  0-S ,  1-C ) :   1.1244 B(  0-S ,  4-C ) :   1.1509 B(  1-C ,  2-C ) :   1.6168
B(  1-C , 32-H ) :   0.9607 B(  2-C ,  3-C ) :   1.2534 B(  2-C ,  6-C ) :   1.0298
B(  3-C ,  4-C ) :   1.5516 B(  3-C ,  5-H ) :   0.9879 B(  4-C , 20-C ) :   1.0574
B(  6-C ,  7-H ) :   0.9322 B(  6-C ,  8-H ) :   0.9356 B(  6-C ,  9-C ) :   1.0514
B(  9-C , 10-H ) :   0.9566 B(  9-C , 11-H ) :   0.9599 B(  9-C , 12-C ) :   1.0696
B( 12-C , 13-H ) :   0.9768 B( 12-C , 14-H ) :   0.9744 B( 12-C , 15-H ) :   0.9769
B( 16-S , 17-C ) :   1.1571 B( 16-S , 20-C ) :   1.1608 B( 17-C , 18-C ) :   1.5649
B( 17-C , 20-C ) :   0.1123 B( 17-C , 33-H ) :   0.9573 B( 18-C , 19-C ) :   1.2974
B( 18-C , 21-H ) :   0.9765 B( 19-C , 20-C ) :   1.5284 B( 19-C , 22-C ) :   1.0508
B( 22-C , 23-H ) :   0.9393 B( 22-C , 24-H ) :   0.9247 B( 22-C , 25-C ) :   1.0852
B( 25-C , 26-H ) :   0.9541 B( 25-C , 27-H ) :   0.9500 B( 25-C , 28-C ) :   1.0594
B( 28-C , 29-H ) :   0.9728 B( 28-C , 30-H ) :   0.9798 B( 28-C , 31-H ) :   0.9761

Dispersion correction           -0.014515295
FINAL SINGLE POINT ENERGY     -1339.871200416728

DIPOLE MOMENT
-------------
                                X             Y             Z
Electronic contribution:     -7.25534      24.70526       9.78517
Nuclear contribution   :      7.62942     -25.34896      -9.73249
                        -----------------------------------------
Total Dipole Moment    :      0.37408      -0.64370       0.05268
                        -----------------------------------------
Magnitude (a.u.)       :      0.74637
Magnitude (Debye)      :      1.89711

Rotational constants in cm-1:     0.020026     0.008483     0.006743
Rotational constants in MHz :   600.364290   254.316360   202.151530

                             ****ORCA TERMINATED NORMALLY****
TOTAL RUN TIME: 0 days 0 hours 0 minutes 34 seconds 56 msec
