                         Program Version 4.2.1 -  RELEASE  -
|  1> ! wB97X-D3 SP def2-SVP
|  2> %pal
|  3> nprocs 16
|  4> end
|  5>
|  6> * xyz 0 1
|  7> S 	 -45.4906 	 26.0913 	 83.4267
|  8> C 	 -46.504 	 25.4041 	 84.6529
|  9> C 	 -45.8502 	 24.4731 	 85.49
| 10> C 	 -44.4023 	 24.5497 	 85.2356
| 11> C 	 -44.0292 	 25.3906 	 84.2013
| 12> H 	 -43.6645 	 23.9679 	 85.7331
| 13> C 	 -46.5383 	 23.4705 	 86.4665
| 14> H 	 -46.1667 	 22.5016 	 86.1359
| 15> H 	 -47.576 	 23.4611 	 86.3447
| 16> C 	 -46.287 	 23.5155 	 87.9782
| 17> H 	 -46.8517 	 22.6797 	 88.449
| 18> H 	 -45.2165 	 23.1652 	 88.1286
| 19> C 	 -46.5126 	 24.9147 	 88.5682
| 20> H 	 -45.8009 	 25.6221 	 88.1244
| 21> H 	 -47.4502 	 25.2828 	 88.463
| 22> H 	 -46.3475 	 24.8487 	 89.6682
| 23> S 	 -42.3794 	 24.7974 	 82.2222
| 24> C 	 -40.6814 	 24.777 	 82.361
| 25> C 	 -40.3014 	 25.4282 	 83.4862
| 26> C 	 -41.4223 	 25.7973 	 84.2694
| 27> C 	 -42.6511 	 25.5416 	 83.7152
| 28> H 	 -39.2088 	 25.4551 	 83.7463
| 29> C 	 -41.3151 	 26.5614 	 85.6533
| 30> H 	 -42.2564 	 26.7906 	 86.0453
| 31> H 	 -40.9379 	 27.52 	 85.5172
| 32> C 	 -40.6612 	 25.8427 	 86.8065
| 33> H 	 -39.6232 	 25.667 	 86.4658
| 34> H 	 -41.0819 	 24.813 	 86.9529
| 35> C 	 -40.7915 	 26.5875 	 88.1259
| 36> H 	 -40.5933 	 27.5894 	 87.9049
| 37> H 	 -40.121 	 26.2175 	 88.8867
| 38> H 	 -41.7952 	 26.676 	 88.5723
| 39> H 	 -47.5163 	 25.5814 	 84.7411
| 40> H 	 -39.9366 	 24.3666 	 81.7524
| 41> *
| 42>
| 43>                          ****END OF INPUT****

CARTESIAN COORDINATES (ANGSTROEM)
---------------------------------
  S    -45.490600   26.091300   83.426700
  C    -46.504000   25.404100   84.652900
  C    -45.850200   24.473100   85.490000
  C    -44.402300   24.549700   85.235600
  C    -44.029200   25.390600   84.201300
  H    -43.664500   23.967900   85.733100
  C    -46.538300   23.470500   86.466500
  H    -46.166700   22.501600   86.135900
  H    -47.576000   23.461100   86.344700
  C    -46.287000   23.515500   87.978200
  H    -46.851700   22.679700   88.449000
  H    -45.216500   23.165200   88.128600
  C    -46.512600   24.914700   88.568200
  H    -45.800900   25.622100   88.124400
  H    -47.450200   25.282800   88.463000
  H    -46.347500   24.848700   89.668200
  S    -42.379400   24.797400   82.222200
  C    -40.681400   24.777000   82.361000
  C    -40.301400   25.428200   83.486200
  C    -41.422300   25.797300   84.269400
  C    -42.651100   25.541600   83.715200
  H    -39.208800   25.455100   83.746300
  C    -41.315100   26.561400   85.653300
  H    -42.256400   26.790600   86.045300
  H    -40.937900   27.520000   85.517200
  C    -40.661200   25.842700   86.806500
  H    -39.623200   25.667000   86.465800
  H    -41.081900   24.813000   86.952900
  C    -40.791500   26.587500   88.125900
  H    -40.593300   27.589400   87.904900
  H    -40.121000   26.217500   88.886700
  H    -41.795200   26.676000   88.572300
  H    -47.516300   25.581400   84.741100
  H    -39.936600   24.366600   81.752400

 Total Charge           Charge          ....    0
 Multiplicity           Mult            ....    1
 Number of Electrons    NEL             ....  134
 Basis Dimension        Dim             ....  322

ORBITAL ENERGIES
----------------

  NO   OCC          E(Eh)            E(eV)
   0   2.0000     -88.969516     -2420.9836
   1   2.0000     -88.960505     -2420.7384
   2   2.0000     -10.336078      -281.2590
   3   2.0000     -10.321646      -280.8663
   4   2.0000     -10.313477      -280.6440
   5   2.0000     -10.312478      -280.6168
   6   2.0000     -10.308044      -280.4961
   7   2.0000     -10.305246      -280.4200
   8   2.0000     -10.298309      -280.2312
   9   2.0000     -10.294645      -280.1315
  10   2.0000     -10.293313      -280.0953
  11   2.0000     -10.292555      -280.0747
  12   2.0000     -10.284860      -279.8653
  13   2.0000     -10.276937      -279.6497
  14   2.0000     -10.273058      -279.5441
  15   2.0000     -10.272257      -279.5223
  16   2.0000      -8.083632      -219.9668
  17   2.0000      -8.077553      -219.8014
  18   2.0000      -6.042265      -164.4184
  19   2.0000      -6.038304      -164.3106
  20   2.0000      -6.035902      -164.2453
  21   2.0000      -6.034225      -164.1996
  22   2.0000      -6.031528      -164.1262
  23   2.0000      -6.028496      -164.0437
  24   2.0000      -1.017693       -27.6928
  25   2.0000      -0.982828       -26.7441
  26   2.0000      -0.910098       -24.7650
  27   2.0000      -0.908517       -24.7220
  28   2.0000      -0.876191       -23.8424
  29   2.0000      -0.848541       -23.0900
  30   2.0000      -0.842590       -22.9280
  31   2.0000      -0.819623       -22.3031
  32   2.0000      -0.786342       -21.3975
  33   2.0000      -0.778131       -21.1740
  34   2.0000      -0.708328       -19.2746
  35   2.0000      -0.698461       -19.0061
  36   2.0000      -0.696351       -18.9487
  37   2.0000      -0.658878       -17.9290
  38   2.0000      -0.644234       -17.5305
  39   2.0000      -0.622551       -16.9405
  40   2.0000      -0.599377       -16.3099
  41   2.0000      -0.571451       -15.5500
  42   2.0000      -0.560003       -15.2385
  43   2.0000      -0.549302       -14.9473
  44   2.0000      -0.543703       -14.7949
  45   2.0000      -0.529372       -14.4049
  46   2.0000      -0.516733       -14.0610
  47   2.0000      -0.515109       -14.0168
  48   2.0000      -0.512413       -13.9435
  49   2.0000      -0.496568       -13.5123
  50   2.0000      -0.493658       -13.4331
  51   2.0000      -0.483608       -13.1596
  52   2.0000      -0.475019       -12.9259
  53   2.0000      -0.470298       -12.7975
  54   2.0000      -0.460979       -12.5439
  55   2.0000      -0.450192       -12.2503
  56   2.0000      -0.445660       -12.1270
  57   2.0000      -0.431449       -11.7403
  58   2.0000      -0.429679       -11.6922
  59   2.0000      -0.426373       -11.6022
  60   2.0000      -0.418869       -11.3980
  61   2.0000      -0.415962       -11.3189
  62   2.0000      -0.399489       -10.8707
  63   2.0000      -0.350706        -9.5432
  64   2.0000      -0.329420        -8.9640
  65   2.0000      -0.327817        -8.9203
  66   2.0000      -0.298951        -8.1349
  67   0.0000       0.040680         1.1069
  68   0.0000       0.061642         1.6774
  69   0.0000       0.109192         2.9713
  70   0.0000       0.124074         3.3762
  71   0.0000       0.130777         3.5586

MULLIKEN ATOMIC CHARGES
-----------------------
   0 S :    0.116245
   1 C :   -0.085642
   2 C :   -0.109171
   3 C :    0.051921
   4 C :   -0.152482
   5 H :    0.004175
   6 C :    0.088337
   7 H :    0.032366
   8 H :    0.007508
   9 C :   -0.102545
  10 H :    0.035672
  11 H :    0.027055
  12 C :   -0.018620
  13 H :    0.048147
  14 H :    0.008910
  15 H :    0.034852
  16 S :    0.111455
  17 C :   -0.059288
  18 C :   -0.058585
  19 C :   -0.060840
  20 C :   -0.128818
  21 H :    0.041003
  22 C :    0.101816
  23 H :   -0.008245
  24 H :    0.012730
  25 C :   -0.097930
  26 H :    0.022718
  27 H :    0.028637
  28 C :   -0.020402
  29 H :    0.006102
  30 H :    0.037272
  31 H :    0.034560
  32 H :    0.020170
  33 H :    0.030921
Sum of atomic charges:    0.0000000

LOEWDIN ATOMIC CHARGES
----------------------
   0 S :    0.393793
   1 C :   -0.188512
   2 C :   -0.055176
   3 C :   -0.049249
   4 C :   -0.187803
   5 H :    0.025983
   6 C :   -0.028884
   7 H :    0.036418
   8 H :    0.020051
   9 C :   -0.046266
  10 H :    0.028591
  11 H :    0.025283
  12 C :   -0.059918
  13 H :    0.033404
  14 H :    0.008425
  15 H :    0.032459
  16 S :    0.453601
  17 C :   -0.190776
  18 C :   -0.084383
  19 C :   -0.053688
  20 C :   -0.220117
  21 H :    0.043165
  22 C :   -0.025992
  23 H :    0.019805
  24 H :    0.021740
  25 C :   -0.044289
  26 H :    0.020502
  27 H :    0.024387
  28 C :   -0.063952
  29 H :    0.016702
  30 H :    0.028244
  31 H :    0.030902
  32 H :    0.011575
  33 H :    0.023974

  Mayer bond orders larger than 0.100000
B(  0-S ,  1-C ) :   1.1470 B(  0-S ,  4-C ) :   1.1242 B(  1-C ,  2-C ) :   1.6175
B(  1-C , 32-H ) :   0.9730 B(  2-C ,  3-C ) :   1.2101 B(  2-C ,  6-C ) :   1.0176
B(  3-C ,  4-C ) :   1.6097 B(  3-C ,  5-H ) :   0.9973 B(  4-C , 20-C ) :   0.9990
B(  6-C ,  7-H ) :   0.9383 B(  6-C ,  8-H ) :   0.9441 B(  6-C ,  9-C ) :   1.0748
B(  9-C , 10-H ) :   0.9538 B(  9-C , 11-H ) :   0.9554 B(  9-C , 12-C ) :   1.0708
B( 12-C , 13-H ) :   0.9701 B( 12-C , 14-H ) :   0.9784 B( 12-C , 15-H ) :   0.9734
B( 16-S , 17-C ) :   1.1834 B( 16-S , 20-C ) :   1.1587 B( 17-C , 18-C ) :   1.5956
B( 17-C , 33-H ) :   0.9703 B( 18-C , 19-C ) :   1.2580 B( 18-C , 21-H ) :   0.9863
B( 19-C , 20-C ) :   1.6142 B( 19-C , 22-C ) :   1.0175 B( 22-C , 23-H ) :   0.9390
B( 22-C , 24-H ) :   0.9371 B( 22-C , 25-C ) :   1.0586 B( 25-C , 26-H ) :   0.9565
B( 25-C , 27-H ) :   0.9544 B( 25-C , 28-C ) :   1.0830 B( 28-C , 29-H ) :   0.9704
B( 28-C , 30-H ) :   0.9724 B( 28-C , 31-H ) :   0.9714

Dispersion correction           -0.014205201
FINAL SINGLE POINT ENERGY     -1339.853726512645

DIPOLE MOMENT
-------------
                                X             Y             Z
Electronic contribution:     -1.67690       1.55372     -30.76682
Nuclear contribution   :      1.79475      -1.83993      31.37556
                        -----------------------------------------
Total Dipole Moment    :      0.11785      -0.28621       0.60874
                        -----------------------------------------
Magnitude (a.u.)       :      0.68291
Magnitude (Debye)      :      1.73582

Rotational constants in cm-1:     0.016420     0.009602     0.006877
Rotational constants in MHz :   492.248104   287.867229   206.172271

                             ****ORCA TERMINATED NORMALLY****
TOTAL RUN TIME: 0 days 0 hours 0 minutes 29 seconds 366 msec
