                         Program Version 4.2.1 -  RELEASE  -
|  1> ! wB97X-D3 SP def2-SVP
|  2> %pal
|  3> nprocs 16
|  4> end
|  5>
|  6> * xyz 0 1
|  7> S 	 -45.1288 	 52.9753 	 101.239
|  8> C 	 -46.0693 	 52.3774 	 102.584
|  9> C 	 -46.9375 	 51.3484 	 102.142
| 10> C 	 -46.7772 	 51.0618 	 100.791
| 11> C 	 -45.8287 	 51.7626 	 100.077
| 12> H 	 -47.3338 	 50.3241 	 100.279
| 13> C 	 -48.0279 	 50.741 	 103.003
| 14> H 	 -48.9343 	 51.129 	 102.61
| 15> H 	 -48.1232 	 51.248 	 103.989
| 16> C 	 -47.9923 	 49.2331 	 103.091
| 17> H 	 -48.8066 	 48.9582 	 103.714
| 18> H 	 -48.1397 	 48.7985 	 102.066
| 19> C 	 -46.6755 	 48.6531 	 103.713
| 20> H 	 -46.6514 	 49.0475 	 104.72
| 21> H 	 -46.6776 	 47.5488 	 103.737
| 22> H 	 -45.8164 	 49.1044 	 103.24
| 23> S 	 -45.4753 	 50.0712 	 97.8932
| 24> C 	 -44.8689 	 50.6975 	 96.3565
| 25> C 	 -44.8304 	 52.072 	 96.4412
| 26> C 	 -45.1878 	 52.5992 	 97.7086
| 27> C 	 -45.6194 	 51.6327 	 98.6118
| 28> H 	 -44.6146 	 52.6027 	 95.5396
| 29> C 	 -45.3462 	 54.1083 	 97.9027
| 30> H 	 -46.3002 	 54.4177 	 98.4058
| 31> H 	 -45.3709 	 54.5768 	 96.8665
| 32> C 	 -44.0295 	 54.8011 	 98.4193
| 33> H 	 -43.2932 	 54.7341 	 97.634
| 34> H 	 -43.6217 	 54.2619 	 99.2896
| 35> C 	 -44.2222 	 56.2991 	 98.6035
| 36> H 	 -45.1489 	 56.5316 	 99.1083
| 37> H 	 -44.2551 	 56.7492 	 97.5597
| 38> H 	 -43.4107 	 56.7222 	 99.1611
| 39> H 	 -46.0964 	 52.7899 	 103.593
| 40> H 	 -44.8166 	 50.002 	 95.6001
| 41> *
| 42>
| 43>                          ****END OF INPUT****

CARTESIAN COORDINATES (ANGSTROEM)
---------------------------------
  S    -45.128800   52.975300  101.239000
  C    -46.069300   52.377400  102.584000
  C    -46.937500   51.348400  102.142000
  C    -46.777200   51.061800  100.791000
  C    -45.828700   51.762600  100.077000
  H    -47.333800   50.324100  100.279000
  C    -48.027900   50.741000  103.003000
  H    -48.934300   51.129000  102.610000
  H    -48.123200   51.248000  103.989000
  C    -47.992300   49.233100  103.091000
  H    -48.806600   48.958200  103.714000
  H    -48.139700   48.798500  102.066000
  C    -46.675500   48.653100  103.713000
  H    -46.651400   49.047500  104.720000
  H    -46.677600   47.548800  103.737000
  H    -45.816400   49.104400  103.240000
  S    -45.475300   50.071200   97.893200
  C    -44.868900   50.697500   96.356500
  C    -44.830400   52.072000   96.441200
  C    -45.187800   52.599200   97.708600
  C    -45.619400   51.632700   98.611800
  H    -44.614600   52.602700   95.539600
  C    -45.346200   54.108300   97.902700
  H    -46.300200   54.417700   98.405800
  H    -45.370900   54.576800   96.866500
  C    -44.029500   54.801100   98.419300
  H    -43.293200   54.734100   97.634000
  H    -43.621700   54.261900   99.289600
  C    -44.222200   56.299100   98.603500
  H    -45.148900   56.531600   99.108300
  H    -44.255100   56.749200   97.559700
  H    -43.410700   56.722200   99.161100
  H    -46.096400   52.789900  103.593000
  H    -44.816600   50.002000   95.600100

 Total Charge           Charge          ....    0
 Multiplicity           Mult            ....    1
 Number of Electrons    NEL             ....  134
 Basis Dimension        Dim             ....  322

ORBITAL ENERGIES
----------------

  NO   OCC          E(Eh)            E(eV)
   0   2.0000     -88.971114     -2421.0271
   1   2.0000     -88.963554     -2420.8214
   2   2.0000     -10.337499      -281.2977
   3   2.0000     -10.330568      -281.1091
   4   2.0000     -10.319345      -280.8037
   5   2.0000     -10.317080      -280.7420
   6   2.0000     -10.303601      -280.3753
   7   2.0000     -10.300691      -280.2961
   8   2.0000     -10.298989      -280.2497
   9   2.0000     -10.296766      -280.1893
  10   2.0000     -10.290425      -280.0167
  11   2.0000     -10.287911      -279.9483
  12   2.0000     -10.286988      -279.9232
  13   2.0000     -10.282331      -279.7964
  14   2.0000     -10.275453      -279.6093
  15   2.0000     -10.274925      -279.5949
  16   2.0000      -8.083698      -219.9686
  17   2.0000      -8.078813      -219.8357
  18   2.0000      -6.042394      -164.4219
  19   2.0000      -6.038363      -164.3122
  20   2.0000      -6.037275      -164.2826
  21   2.0000      -6.034524      -164.2078
  22   2.0000      -6.033087      -164.1686
  23   2.0000      -6.029750      -164.0778
  24   2.0000      -1.005666       -27.3655
  25   2.0000      -0.984361       -26.7858
  26   2.0000      -0.910912       -24.7872
  27   2.0000      -0.902876       -24.5685
  28   2.0000      -0.870751       -23.6943
  29   2.0000      -0.850317       -23.1383
  30   2.0000      -0.843302       -22.9474
  31   2.0000      -0.816960       -22.2306
  32   2.0000      -0.780168       -21.2294
  33   2.0000      -0.768868       -20.9220
  34   2.0000      -0.707666       -19.2566
  35   2.0000      -0.692684       -18.8489
  36   2.0000      -0.690292       -18.7838
  37   2.0000      -0.673813       -18.3354
  38   2.0000      -0.635089       -17.2816
  39   2.0000      -0.624966       -17.0062
  40   2.0000      -0.600291       -16.3347
  41   2.0000      -0.572401       -15.5758
  42   2.0000      -0.564367       -15.3572
  43   2.0000      -0.551881       -15.0174
  44   2.0000      -0.537833       -14.6352
  45   2.0000      -0.524199       -14.2642
  46   2.0000      -0.517698       -14.0873
  47   2.0000      -0.515871       -14.0376
  48   2.0000      -0.502790       -13.6816
  49   2.0000      -0.498769       -13.5722
  50   2.0000      -0.485615       -13.2143
  51   2.0000      -0.476064       -12.9544
  52   2.0000      -0.469581       -12.7779
  53   2.0000      -0.467866       -12.7313
  54   2.0000      -0.461342       -12.5538
  55   2.0000      -0.446157       -12.1406
  56   2.0000      -0.442864       -12.0509
  57   2.0000      -0.436934       -11.8896
  58   2.0000      -0.431344       -11.7375
  59   2.0000      -0.420716       -11.4483
  60   2.0000      -0.415697       -11.3117
  61   2.0000      -0.411528       -11.1983
  62   2.0000      -0.403934       -10.9916
  63   2.0000      -0.359120        -9.7721
  64   2.0000      -0.333031        -9.0622
  65   2.0000      -0.328306        -8.9337
  66   2.0000      -0.287695        -7.8286
  67   0.0000       0.019716         0.5365
  68   0.0000       0.075237         2.0473
  69   0.0000       0.105349         2.8667
  70   0.0000       0.117329         3.1927
  71   0.0000       0.132553         3.6070

MULLIKEN ATOMIC CHARGES
-----------------------
   0 S :    0.093965
   1 C :   -0.119811
   2 C :   -0.087608
   3 C :    0.006928
   4 C :   -0.091400
   5 H :   -0.003765
   6 C :    0.073333
   7 H :    0.025786
   8 H :    0.008560
   9 C :   -0.076367
  10 H :    0.023204
  11 H :    0.039250
  12 C :   -0.043727
  13 H :    0.016169
  14 H :    0.047998
  15 H :    0.044477
  16 S :    0.079205
  17 C :   -0.078665
  18 C :   -0.001954
  19 C :   -0.041188
  20 C :   -0.126939
  21 H :    0.018205
  22 C :   -0.019884
  23 H :    0.056853
  24 H :    0.022113
  25 C :   -0.088130
  26 H :    0.022158
  27 H :    0.036958
  28 C :   -0.027898
  29 H :    0.028135
  30 H :    0.032766
  31 H :    0.035437
  32 H :    0.057547
  33 H :    0.038292
Sum of atomic charges:   -0.0000000

LOEWDIN ATOMIC CHARGES
----------------------
   0 S :    0.398410
   1 C :   -0.202095
   2 C :   -0.065233
   3 C :   -0.062650
   4 C :   -0.168542
   5 H :    0.021729
   6 C :   -0.036347
   7 H :    0.031791
   8 H :    0.031638
   9 C :   -0.039365
  10 H :    0.020011
  11 H :    0.026194
  12 C :   -0.062675
  13 H :    0.022271
  14 H :    0.030436
  15 H :    0.026166
  16 S :    0.410645
  17 C :   -0.161274
  18 C :   -0.062205
  19 C :   -0.065962
  20 C :   -0.199843
  21 H :    0.030655
  22 C :   -0.040793
  23 H :    0.034925
  24 H :    0.036040
  25 C :   -0.045080
  26 H :    0.021352
  27 H :    0.010154
  28 C :   -0.063193
  29 H :    0.020780
  30 H :    0.031800
  31 H :    0.024779
  32 H :    0.033774
  33 H :    0.011710

  Mayer bond orders larger than 0.100000
B(  0-S ,  1-C ) :   1.1529 B(  0-S ,  4-C ) :   1.1263 B(  1-C ,  2-C ) :   1.5586
B(  1-C ,  4-C ) :   0.1012 B(  1-C , 32-H ) :   0.9655 B(  2-C ,  3-C ) :   1.2814
B(  2-C ,  6-C ) :   1.0201 B(  3-C ,  4-C ) :   1.5366 B(  3-C ,  5-H ) :   1.0007
B(  4-C , 20-C ) :   1.0559 B(  6-C ,  7-H ) :   0.9344 B(  6-C ,  8-H ) :   0.9367
B(  6-C ,  9-C ) :   1.0750 B(  9-C , 10-H ) :   0.9545 B(  9-C , 11-H ) :   0.9557
B(  9-C , 12-C ) :   1.0676 B( 12-C , 13-H ) :   0.9732 B( 12-C , 14-H ) :   0.9762
B( 12-C , 15-H ) :   0.9755 B( 16-S , 17-C ) :   1.1656 B( 16-S , 20-C ) :   1.1529
B( 17-C , 18-C ) :   1.5589 B( 17-C , 20-C ) :   0.1016 B( 17-C , 33-H ) :   0.9846
B( 18-C , 19-C ) :   1.2715 B( 18-C , 21-H ) :   0.9948 B( 19-C , 20-C ) :   1.5574
B( 19-C , 22-C ) :   1.0312 B( 22-C , 23-H ) :   0.9555 B( 22-C , 24-H ) :   0.9430
B( 22-C , 25-C ) :   1.0339 B( 25-C , 26-H ) :   0.9594 B( 25-C , 27-H ) :   0.9575
B( 25-C , 28-C ) :   1.0788 B( 28-C , 29-H ) :   0.9761 B( 28-C , 30-H ) :   0.9740
B( 28-C , 31-H ) :   0.9733

Dispersion correction           -0.014487779
FINAL SINGLE POINT ENERGY     -1339.875539823318

DIPOLE MOMENT
-------------
                                X             Y             Z
Electronic contribution:      3.46320      -5.53631      -8.56253
Nuclear contribution   :     -3.81675       5.66365       8.53432
                        -----------------------------------------
Total Dipole Moment    :     -0.35355       0.12734      -0.02820
                        -----------------------------------------
Magnitude (a.u.)       :      0.37684
Magnitude (Debye)      :      0.95785

Rotational constants in cm-1:     0.020320     0.008747     0.006488
Rotational constants in MHz :   609.188843   262.228386   194.503848

                             ****ORCA TERMINATED NORMALLY****
TOTAL RUN TIME: 0 days 0 hours 0 minutes 27 seconds 686 msec
