                         Program Version 4.2.1 -  RELEASE  -
|  1> ! wB97X-D3 SP def2-SVP
|  2> %pal
|  3> nprocs 16
|  4> end
|  5>
|  6> * xyz 0 1
|  7> S 	 -42.7279 	 27.0863 	 89.9246
|  8> C 	 -44.4223 	 26.8779 	 89.6111
|  9> C 	 -44.9768 	 27.9853 	 88.956
| 10> C 	 -43.9244 	 28.8909 	 88.5412
| 11> C 	 -42.6962 	 28.5305 	 89.016
| 12> H 	 -44.0626 	 29.7727 	 87.9852
| 13> C 	 -46.3611 	 28.0166 	 88.5247
| 14> H 	 -46.9451 	 28.4691 	 89.2875
| 15> H 	 -46.8305 	 27.0119 	 88.6922
| 16> C 	 -46.688 	 28.5188 	 87.1327
| 17> H 	 -47.8024 	 28.6266 	 87.0103
| 18> H 	 -46.179 	 29.4922 	 86.9559
| 19> C 	 -46.1623 	 27.6234 	 86.0054
| 20> H 	 -46.5444 	 27.9962 	 85.0784
| 21> H 	 -45.0163 	 27.535 	 85.9854
| 22> H 	 -46.6259 	 26.5964 	 86.0795
| 23> S 	 -40.509 	 30.0327 	 89.629
| 24> C 	 -39.5038 	 30.4965 	 88.3131
| 25> C 	 -39.8337 	 29.8995 	 87.0985
| 26> C 	 -40.8024 	 28.8829 	 87.2619
| 27> C 	 -41.4647 	 29.1119 	 88.4563
| 28> H 	 -39.2819 	 30.0736 	 86.1873
| 29> C 	 -41.3315 	 28.0178 	 86.132
| 30> H 	 -41.1693 	 28.6819 	 85.2586
| 31> H 	 -42.4269 	 28.0982 	 86.0536
| 32> C 	 -40.5307 	 26.724 	 85.9635
| 33> H 	 -41.0166 	 26.1328 	 85.1722
| 34> H 	 -40.6047 	 25.9288 	 86.7374
| 35> C 	 -39.1279 	 26.747 	 85.4791
| 36> H 	 -38.5068 	 27.3132 	 86.0955
| 37> H 	 -39.1296 	 27.3096 	 84.5271
| 38> H 	 -38.7373 	 25.7885 	 85.1807
| 39> H 	 -44.9647 	 25.9625 	 89.8368
| 40> H 	 -38.5575 	 30.9803 	 88.4346
| 41> *
| 42>
| 43>                          ****END OF INPUT****

CARTESIAN COORDINATES (ANGSTROEM)
---------------------------------
  S    -42.727900   27.086300   89.924600
  C    -44.422300   26.877900   89.611100
  C    -44.976800   27.985300   88.956000
  C    -43.924400   28.890900   88.541200
  C    -42.696200   28.530500   89.016000
  H    -44.062600   29.772700   87.985200
  C    -46.361100   28.016600   88.524700
  H    -46.945100   28.469100   89.287500
  H    -46.830500   27.011900   88.692200
  C    -46.688000   28.518800   87.132700
  H    -47.802400   28.626600   87.010300
  H    -46.179000   29.492200   86.955900
  C    -46.162300   27.623400   86.005400
  H    -46.544400   27.996200   85.078400
  H    -45.016300   27.535000   85.985400
  H    -46.625900   26.596400   86.079500
  S    -40.509000   30.032700   89.629000
  C    -39.503800   30.496500   88.313100
  C    -39.833700   29.899500   87.098500
  C    -40.802400   28.882900   87.261900
  C    -41.464700   29.111900   88.456300
  H    -39.281900   30.073600   86.187300
  C    -41.331500   28.017800   86.132000
  H    -41.169300   28.681900   85.258600
  H    -42.426900   28.098200   86.053600
  C    -40.530700   26.724000   85.963500
  H    -41.016600   26.132800   85.172200
  H    -40.604700   25.928800   86.737400
  C    -39.127900   26.747000   85.479100
  H    -38.506800   27.313200   86.095500
  H    -39.129600   27.309600   84.527100
  H    -38.737300   25.788500   85.180700
  H    -44.964700   25.962500   89.836800
  H    -38.557500   30.980300   88.434600

 Total Charge           Charge          ....    0
 Multiplicity           Mult            ....    1
 Number of Electrons    NEL             ....  134
 Basis Dimension        Dim             ....  322

ORBITAL ENERGIES
----------------

  NO   OCC          E(Eh)            E(eV)
   0   2.0000     -88.963879     -2420.8302
   1   2.0000     -88.963363     -2420.8162
   2   2.0000     -10.321457      -280.8611
   3   2.0000     -10.317633      -280.7571
   4   2.0000     -10.311604      -280.5930
   5   2.0000     -10.309920      -280.5472
   6   2.0000     -10.300681      -280.2958
   7   2.0000     -10.299291      -280.2580
   8   2.0000     -10.298506      -280.2366
   9   2.0000     -10.294794      -280.1356
  10   2.0000     -10.291026      -280.0331
  11   2.0000     -10.288678      -279.9692
  12   2.0000     -10.286066      -279.8981
  13   2.0000     -10.286020      -279.8968
  14   2.0000     -10.284405      -279.8529
  15   2.0000     -10.269973      -279.4602
  16   2.0000      -8.079671      -219.8590
  17   2.0000      -8.078581      -219.8294
  18   2.0000      -6.038006      -164.3025
  19   2.0000      -6.036701      -164.2670
  20   2.0000      -6.034004      -164.1936
  21   2.0000      -6.033288      -164.1741
  22   2.0000      -6.030578      -164.1004
  23   2.0000      -6.029458      -164.0699
  24   2.0000      -1.009171       -27.4609
  25   2.0000      -0.986852       -26.8536
  26   2.0000      -0.918428       -24.9917
  27   2.0000      -0.912676       -24.8352
  28   2.0000      -0.864792       -23.5322
  29   2.0000      -0.858227       -23.3535
  30   2.0000      -0.847233       -23.0544
  31   2.0000      -0.814679       -22.1685
  32   2.0000      -0.789307       -21.4781
  33   2.0000      -0.771229       -20.9862
  34   2.0000      -0.707095       -19.2410
  35   2.0000      -0.697488       -18.9796
  36   2.0000      -0.684156       -18.6168
  37   2.0000      -0.659762       -17.9530
  38   2.0000      -0.643243       -17.5035
  39   2.0000      -0.625690       -17.0259
  40   2.0000      -0.596734       -16.2380
  41   2.0000      -0.564124       -15.3506
  42   2.0000      -0.563348       -15.3295
  43   2.0000      -0.554197       -15.0805
  44   2.0000      -0.540691       -14.7130
  45   2.0000      -0.537734       -14.6325
  46   2.0000      -0.513884       -13.9835
  47   2.0000      -0.511266       -13.9123
  48   2.0000      -0.502679       -13.6786
  49   2.0000      -0.493694       -13.4341
  50   2.0000      -0.489558       -13.3216
  51   2.0000      -0.480948       -13.0873
  52   2.0000      -0.477849       -13.0029
  53   2.0000      -0.462438       -12.5836
  54   2.0000      -0.456206       -12.4140
  55   2.0000      -0.452382       -12.3099
  56   2.0000      -0.448463       -12.2033
  57   2.0000      -0.439738       -11.9659
  58   2.0000      -0.432850       -11.7784
  59   2.0000      -0.424973       -11.5641
  60   2.0000      -0.415910       -11.3175
  61   2.0000      -0.409104       -11.1323
  62   2.0000      -0.398487       -10.8434
  63   2.0000      -0.335625        -9.1328
  64   2.0000      -0.328828        -8.9479
  65   2.0000      -0.317210        -8.6317
  66   2.0000      -0.300561        -8.1787
  67   0.0000       0.044827         1.2198
  68   0.0000       0.052855         1.4382
  69   0.0000       0.113611         3.0915
  70   0.0000       0.114424         3.1136
  71   0.0000       0.129970         3.5367

MULLIKEN ATOMIC CHARGES
-----------------------
   0 S :    0.130187
   1 C :   -0.149055
   2 C :   -0.065998
   3 C :    0.019011
   4 C :   -0.113544
   5 H :   -0.003076
   6 C :    0.093518
   7 H :    0.023317
   8 H :    0.004379
   9 C :   -0.094614
  10 H :    0.041055
  11 H :    0.038088
  12 C :   -0.075782
  13 H :    0.028205
  14 H :    0.061728
  15 H :    0.029207
  16 S :    0.113852
  17 C :   -0.075755
  18 C :   -0.034667
  19 C :   -0.024917
  20 C :   -0.218312
  21 H :    0.017346
  22 C :    0.069664
  23 H :    0.011500
  24 H :    0.033998
  25 C :   -0.059352
  26 H :    0.015242
  27 H :    0.034228
  28 C :   -0.013386
  29 H :    0.021967
  30 H :    0.006466
  31 H :    0.034819
  32 H :    0.052251
  33 H :    0.048429
Sum of atomic charges:   -0.0000000

LOEWDIN ATOMIC CHARGES
----------------------
   0 S :    0.429315
   1 C :   -0.202795
   2 C :   -0.059606
   3 C :   -0.054788
   4 C :   -0.220414
   5 H :    0.023760
   6 C :   -0.048848
   7 H :    0.033525
   8 H :    0.036097
   9 C :   -0.045223
  10 H :    0.034002
  11 H :    0.026368
  12 C :   -0.072332
  13 H :    0.020446
  14 H :    0.033884
  15 H :    0.027234
  16 S :    0.409373
  17 C :   -0.195431
  18 C :   -0.071599
  19 C :   -0.051992
  20 C :   -0.187519
  21 H :    0.028365
  22 C :   -0.036105
  23 H :    0.036911
  24 H :    0.040072
  25 C :   -0.050705
  26 H :    0.028623
  27 H :    0.029365
  28 C :   -0.057672
  29 H :    0.012910
  30 H :    0.024691
  31 H :    0.030184
  32 H :    0.027336
  33 H :    0.022567

  Mayer bond orders larger than 0.100000
B(  0-S ,  1-C ) :   1.1519 B(  0-S ,  4-C ) :   1.1669 B(  1-C ,  2-C ) :   1.5871
B(  1-C , 32-H ) :   0.9675 B(  2-C ,  3-C ) :   1.2256 B(  2-C ,  6-C ) :   1.0448
B(  3-C ,  4-C ) :   1.5834 B(  3-C ,  5-H ) :   1.0065 B(  4-C , 20-C ) :   0.9931
B(  6-C ,  7-H ) :   0.9095 B(  6-C ,  8-H ) :   0.9288 B(  6-C ,  9-C ) :   1.0754
B(  9-C , 10-H ) :   0.9501 B(  9-C , 11-H ) :   0.9513 B(  9-C , 12-C ) :   1.0791
B( 12-C , 13-H ) :   0.9734 B( 12-C , 14-H ) :   0.9705 B( 12-C , 15-H ) :   0.9712
B( 16-S , 17-C ) :   1.1654 B( 16-S , 20-C ) :   1.1515 B( 17-C , 18-C ) :   1.6035
B( 17-C , 20-C ) :   0.1063 B( 17-C , 33-H ) :   0.9656 B( 18-C , 19-C ) :   1.2409
B( 18-C , 21-H ) :   0.9823 B( 19-C , 20-C ) :   1.5992 B( 19-C , 22-C ) :   1.0187
B( 22-C , 23-H ) :   0.9347 B( 22-C , 24-H ) :   0.9425 B( 22-C , 25-C ) :   1.0462
B( 25-C , 26-H ) :   0.9483 B( 25-C , 27-H ) :   0.9539 B( 25-C , 28-C ) :   1.0922
B( 28-C , 29-H ) :   0.9728 B( 28-C , 30-H ) :   0.9671 B( 28-C , 31-H ) :   0.9694

Dispersion correction           -0.015439795
FINAL SINGLE POINT ENERGY     -1339.847515808471

DIPOLE MOMENT
-------------
                                X             Y             Z
Electronic contribution:      9.41641       7.68186      23.06435
Nuclear contribution   :     -9.75220      -7.87439     -23.71750
                        -----------------------------------------
Total Dipole Moment    :     -0.33579      -0.19253      -0.65315
                        -----------------------------------------
Magnitude (a.u.)       :      0.75923
Magnitude (Debye)      :      1.92980

Rotational constants in cm-1:     0.018564     0.009325     0.007849
Rotational constants in MHz :   556.547121   279.545053   235.297720

                             ****ORCA TERMINATED NORMALLY****
TOTAL RUN TIME: 0 days 0 hours 0 minutes 31 seconds 760 msec
