                         Program Version 4.2.1 -  RELEASE  -
|  1> ! wB97X-D3 SP def2-SVP
|  2> %pal
|  3> nprocs 16
|  4> end
|  5>
|  6> * xyz 0 1
|  7> S 	 -15.7509 	 35.0427 	 35.4951
|  8> C 	 -14.5559 	 34.1604 	 34.5689
|  9> C 	 -13.2762 	 34.4427 	 35.0754
| 10> C 	 -13.2602 	 35.124 	 36.3405
| 11> C 	 -14.5095 	 35.6619 	 36.6622
| 12> H 	 -12.4501 	 35.3406 	 36.9853
| 13> C 	 -11.9305 	 34.2364 	 34.3874
| 14> H 	 -11.333 	 35.1608 	 34.4998
| 15> H 	 -12.0419 	 34.2472 	 33.3438
| 16> C 	 -11.1634 	 32.9745 	 34.7397
| 17> H 	 -11.9717 	 32.3031 	 34.4936
| 18> H 	 -10.3785 	 32.6664 	 34.043
| 19> C 	 -10.7293 	 32.8869 	 36.2073
| 20> H 	 -11.6503 	 33.0259 	 36.7421
| 21> H 	 -10.2137 	 31.9842 	 36.3385
| 22> H 	 -9.92036 	 33.5657 	 36.4289
| 23> S 	 -15.9274 	 37.9156 	 37.4481
| 24> C 	 -15.7637 	 38.4433 	 39.0933
| 25> C 	 -15.4554 	 37.4148 	 39.8929
| 26> C 	 -14.8784 	 36.3147 	 39.185
| 27> C 	 -15.007 	 36.4509 	 37.7909
| 28> H 	 -15.4383 	 37.5422 	 40.9936
| 29> C 	 -14.1175 	 35.2285 	 39.9362
| 30> H 	 -13.6765 	 35.7562 	 40.7306
| 31> H 	 -13.3341 	 34.9537 	 39.2386
| 32> C 	 -14.9265 	 33.9849 	 40.2796
| 33> H 	 -15.624 	 34.2355 	 41.0669
| 34> H 	 -14.2723 	 33.17 	 40.7354
| 35> C 	 -15.6418 	 33.379 	 39.1048
| 36> H 	 -16.2751 	 32.4933 	 39.4895
| 37> H 	 -14.9708 	 32.9483 	 38.3138
| 38> H 	 -16.3041 	 34.1748 	 38.7441
| 39> H 	 -14.8424 	 33.7938 	 33.6237
| 40> H 	 -16.3177 	 39.2697 	 39.4085
| 41> *
| 42>
| 43>                          ****END OF INPUT****

CARTESIAN COORDINATES (ANGSTROEM)
---------------------------------
  S    -15.750900   35.042700   35.495100
  C    -14.555900   34.160400   34.568900
  C    -13.276200   34.442700   35.075400
  C    -13.260200   35.124000   36.340500
  C    -14.509500   35.661900   36.662200
  H    -12.450100   35.340600   36.985300
  C    -11.930500   34.236400   34.387400
  H    -11.333000   35.160800   34.499800
  H    -12.041900   34.247200   33.343800
  C    -11.163400   32.974500   34.739700
  H    -11.971700   32.303100   34.493600
  H    -10.378500   32.666400   34.043000
  C    -10.729300   32.886900   36.207300
  H    -11.650300   33.025900   36.742100
  H    -10.213700   31.984200   36.338500
  H     -9.920360   33.565700   36.428900
  S    -15.927400   37.915600   37.448100
  C    -15.763700   38.443300   39.093300
  C    -15.455400   37.414800   39.892900
  C    -14.878400   36.314700   39.185000
  C    -15.007000   36.450900   37.790900
  H    -15.438300   37.542200   40.993600
  C    -14.117500   35.228500   39.936200
  H    -13.676500   35.756200   40.730600
  H    -13.334100   34.953700   39.238600
  C    -14.926500   33.984900   40.279600
  H    -15.624000   34.235500   41.066900
  H    -14.272300   33.170000   40.735400
  C    -15.641800   33.379000   39.104800
  H    -16.275100   32.493300   39.489500
  H    -14.970800   32.948300   38.313800
  H    -16.304100   34.174800   38.744100
  H    -14.842400   33.793800   33.623700
  H    -16.317700   39.269700   39.408500

 Total Charge           Charge          ....    0
 Multiplicity           Mult            ....    1
 Number of Electrons    NEL             ....  134
 Basis Dimension        Dim             ....  322

ORBITAL ENERGIES
----------------

  NO   OCC          E(Eh)            E(eV)
   0   2.0000     -88.964096     -2420.8361
   1   2.0000     -88.962856     -2420.8024
   2   2.0000     -10.339277      -281.3460
   3   2.0000     -10.331203      -281.1263
   4   2.0000     -10.318760      -280.7877
   5   2.0000     -10.310514      -280.5634
   6   2.0000     -10.309730      -280.5420
   7   2.0000     -10.306731      -280.4604
   8   2.0000     -10.299591      -280.2661
   9   2.0000     -10.294886      -280.1381
  10   2.0000     -10.286209      -279.9020
  11   2.0000     -10.285919      -279.8941
  12   2.0000     -10.285161      -279.8735
  13   2.0000     -10.281191      -279.7654
  14   2.0000     -10.276956      -279.6502
  15   2.0000     -10.270157      -279.4652
  16   2.0000      -8.078179      -219.8184
  17   2.0000      -8.078100      -219.8163
  18   2.0000      -6.036708      -164.2672
  19   2.0000      -6.036647      -164.2655
  20   2.0000      -6.032730      -164.1589
  21   2.0000      -6.032669      -164.1573
  22   2.0000      -6.028888      -164.0544
  23   2.0000      -6.028746      -164.0505
  24   2.0000      -1.006613       -27.3913
  25   2.0000      -0.983111       -26.7518
  26   2.0000      -0.913699       -24.8630
  27   2.0000      -0.912527       -24.8311
  28   2.0000      -0.871683       -23.7197
  29   2.0000      -0.849174       -23.1072
  30   2.0000      -0.843851       -22.9624
  31   2.0000      -0.819432       -22.2979
  32   2.0000      -0.786657       -21.4060
  33   2.0000      -0.772937       -21.0327
  34   2.0000      -0.703918       -19.1546
  35   2.0000      -0.701320       -19.0839
  36   2.0000      -0.689059       -18.7502
  37   2.0000      -0.660984       -17.9863
  38   2.0000      -0.651165       -17.7191
  39   2.0000      -0.619847       -16.8669
  40   2.0000      -0.597046       -16.2464
  41   2.0000      -0.575362       -15.6564
  42   2.0000      -0.557281       -15.1644
  43   2.0000      -0.552706       -15.0399
  44   2.0000      -0.548823       -14.9342
  45   2.0000      -0.537262       -14.6196
  46   2.0000      -0.519660       -14.1407
  47   2.0000      -0.513627       -13.9765
  48   2.0000      -0.502606       -13.6766
  49   2.0000      -0.495151       -13.4737
  50   2.0000      -0.493238       -13.4217
  51   2.0000      -0.486373       -13.2349
  52   2.0000      -0.469188       -12.7672
  53   2.0000      -0.465596       -12.6695
  54   2.0000      -0.460604       -12.5337
  55   2.0000      -0.444169       -12.0864
  56   2.0000      -0.440053       -11.9744
  57   2.0000      -0.436242       -11.8707
  58   2.0000      -0.425835       -11.5876
  59   2.0000      -0.420236       -11.4352
  60   2.0000      -0.417958       -11.3732
  61   2.0000      -0.406935       -11.0733
  62   2.0000      -0.405683       -11.0392
  63   2.0000      -0.349940        -9.5224
  64   2.0000      -0.331464        -9.0196
  65   2.0000      -0.327462        -8.9107
  66   2.0000      -0.294109        -8.0031
  67   0.0000       0.024342         0.6624
  68   0.0000       0.056955         1.5498
  69   0.0000       0.106408         2.8955
  70   0.0000       0.113180         3.0798
  71   0.0000       0.122538         3.3344

MULLIKEN ATOMIC CHARGES
-----------------------
   0 S :    0.083173
   1 C :   -0.092695
   2 C :   -0.107746
   3 C :    0.041783
   4 C :   -0.147562
   5 H :    0.017984
   6 C :    0.068045
   7 H :    0.027944
   8 H :    0.003018
   9 C :   -0.078610
  10 H :    0.014103
  11 H :    0.027518
  12 C :   -0.004534
  13 H :    0.044122
  14 H :    0.017711
  15 H :    0.022581
  16 S :    0.094609
  17 C :   -0.056743
  18 C :   -0.043868
  19 C :   -0.108867
  20 C :   -0.152873
  21 H :    0.034896
  22 C :    0.146981
  23 H :    0.012592
  24 H :    0.003481
  25 C :   -0.069759
  26 H :    0.021173
  27 H :    0.035218
  28 C :   -0.087832
  29 H :    0.041435
  30 H :    0.052700
  31 H :    0.051194
  32 H :    0.044723
  33 H :    0.044106
Sum of atomic charges:    0.0000000

LOEWDIN ATOMIC CHARGES
----------------------
   0 S :    0.380495
   1 C :   -0.188791
   2 C :   -0.056879
   3 C :   -0.060205
   4 C :   -0.161928
   5 H :    0.028354
   6 C :   -0.034399
   7 H :    0.029506
   8 H :    0.023836
   9 C :   -0.042318
  10 H :    0.023610
  11 H :    0.022646
  12 C :   -0.059929
  13 H :    0.028001
  14 H :    0.021624
  15 H :    0.025241
  16 S :    0.401897
  17 C :   -0.174644
  18 C :   -0.073104
  19 C :   -0.051816
  20 C :   -0.205162
  21 H :    0.038316
  22 C :   -0.026649
  23 H :    0.024434
  24 H :    0.029325
  25 C :   -0.046194
  26 H :    0.020339
  27 H :    0.029210
  28 C :   -0.073816
  29 H :    0.034611
  30 H :    0.031559
  31 H :    0.026182
  32 H :    0.019131
  33 H :    0.017518

  Mayer bond orders larger than 0.100000
B(  0-S ,  1-C ) :   1.1362 B(  0-S ,  4-C ) :   1.1445 B(  1-C ,  2-C ) :   1.6070
B(  1-C ,  4-C ) :   0.1077 B(  1-C , 32-H ) :   0.9752 B(  2-C ,  3-C ) :   1.2069
B(  2-C ,  6-C ) :   1.0163 B(  3-C ,  4-C ) :   1.6028 B(  3-C ,  5-H ) :   0.9926
B(  4-C , 20-C ) :   1.0313 B(  6-C ,  7-H ) :   0.9462 B(  6-C ,  8-H ) :   0.9379
B(  6-C ,  9-C ) :   1.0574 B(  9-C , 10-H ) :   0.9531 B(  9-C , 11-H ) :   0.9565
B(  9-C , 12-C ) :   1.0868 B( 12-C , 13-H ) :   0.9692 B( 12-C , 14-H ) :   0.9693
B( 12-C , 15-H ) :   0.9723 B( 16-S , 17-C ) :   1.1546 B( 16-S , 20-C ) :   1.1396
B( 17-C , 18-C ) :   1.6332 B( 17-C , 20-C ) :   0.1016 B( 17-C , 33-H ) :   0.9648
B( 18-C , 19-C ) :   1.2388 B( 18-C , 21-H ) :   0.9794 B( 19-C , 20-C ) :   1.5805
B( 19-C , 22-C ) :   1.0168 B( 22-C , 23-H ) :   0.9328 B( 22-C , 24-H ) :   0.9303
B( 22-C , 25-C ) :   1.0684 B( 25-C , 26-H ) :   0.9533 B( 25-C , 27-H ) :   0.9537
B( 25-C , 28-C ) :   1.0842 B( 28-C , 29-H ) :   0.9704 B( 28-C , 30-H ) :   0.9724
B( 28-C , 31-H ) :   0.9679

Dispersion correction           -0.015845380
FINAL SINGLE POINT ENERGY     -1339.854316732031

DIPOLE MOMENT
-------------
                                X             Y             Z
Electronic contribution:    -16.52590      18.50887      -5.83291
Nuclear contribution   :     16.96012     -18.66341       6.08354
                        -----------------------------------------
Total Dipole Moment    :      0.43422      -0.15454       0.25063
                        -----------------------------------------
Magnitude (a.u.)       :      0.52464
Magnitude (Debye)      :      1.33352

Rotational constants in cm-1:     0.020403     0.009162     0.007788
Rotational constants in MHz :   611.672468   274.677697   233.468371

                             ****ORCA TERMINATED NORMALLY****
TOTAL RUN TIME: 0 days 0 hours 0 minutes 35 seconds 888 msec
