                         Program Version 4.2.1 -  RELEASE  -
|  1> ! wB97X-D3 SP def2-SVP
|  2> %pal
|  3> nprocs 16
|  4> end
|  5>
|  6> * xyz 0 1
|  7> S 	 -30.6312 	 68.063 	 107.58
|  8> C 	 -29.2826 	 69.1213 	 107.303
|  9> C 	 -28.0293 	 68.4965 	 107.326
| 10> C 	 -28.2537 	 67.1676 	 107.718
| 11> C 	 -29.5639 	 66.7371 	 108.01
| 12> H 	 -27.5036 	 66.4779 	 107.876
| 13> C 	 -26.688 	 69.0185 	 106.977
| 14> H 	 -25.9329 	 68.4474 	 107.449
| 15> H 	 -26.6671 	 70.0776 	 107.385
| 16> C 	 -26.5062 	 69.166 	 105.434
| 17> H 	 -25.5116 	 69.4676 	 105.192
| 18> H 	 -26.6731 	 68.2025 	 104.945
| 19> C 	 -27.3181 	 70.0979 	 104.604
| 20> H 	 -26.8599 	 70.0487 	 103.588
| 21> H 	 -28.3806 	 69.8708 	 104.631
| 22> H 	 -27.1544 	 71.1541 	 104.861
| 23> S 	 -29.8698 	 64.8827 	 109.907
| 24> C 	 -30.7625 	 63.4125 	 109.538
| 25> C 	 -30.9517 	 63.3124 	 108.14
| 26> C 	 -30.5516 	 64.4866 	 107.423
| 27> C 	 -30.0526 	 65.4225 	 108.281
| 28> H 	 -31.3758 	 62.3617 	 107.805
| 29> C 	 -30.7726 	 64.7083 	 105.98
| 30> H 	 -29.8396 	 65.0727 	 105.55
| 31> H 	 -31.4726 	 65.5682 	 105.756
| 32> C 	 -31.1298 	 63.5727 	 105.043
| 33> H 	 -31.2631 	 64.0777 	 104.017
| 34> H 	 -32.0412 	 63.0897 	 105.385
| 35> C 	 -30.0127 	 62.5133 	 104.996
| 36> H 	 -29.7546 	 62.0883 	 105.927
| 37> H 	 -28.9953 	 62.7946 	 104.579
| 38> H 	 -30.2936 	 61.6544 	 104.353
| 39> H 	 -29.2589 	 70.1542 	 106.751
| 40> H 	 -30.9213 	 62.6593 	 110.258
| 41> *
| 42>
| 43>                          ****END OF INPUT****

CARTESIAN COORDINATES (ANGSTROEM)
---------------------------------
  S    -30.631200   68.063000  107.580000
  C    -29.282600   69.121300  107.303000
  C    -28.029300   68.496500  107.326000
  C    -28.253700   67.167600  107.718000
  C    -29.563900   66.737100  108.010000
  H    -27.503600   66.477900  107.876000
  C    -26.688000   69.018500  106.977000
  H    -25.932900   68.447400  107.449000
  H    -26.667100   70.077600  107.385000
  C    -26.506200   69.166000  105.434000
  H    -25.511600   69.467600  105.192000
  H    -26.673100   68.202500  104.945000
  C    -27.318100   70.097900  104.604000
  H    -26.859900   70.048700  103.588000
  H    -28.380600   69.870800  104.631000
  H    -27.154400   71.154100  104.861000
  S    -29.869800   64.882700  109.907000
  C    -30.762500   63.412500  109.538000
  C    -30.951700   63.312400  108.140000
  C    -30.551600   64.486600  107.423000
  C    -30.052600   65.422500  108.281000
  H    -31.375800   62.361700  107.805000
  C    -30.772600   64.708300  105.980000
  H    -29.839600   65.072700  105.550000
  H    -31.472600   65.568200  105.756000
  C    -31.129800   63.572700  105.043000
  H    -31.263100   64.077700  104.017000
  H    -32.041200   63.089700  105.385000
  C    -30.012700   62.513300  104.996000
  H    -29.754600   62.088300  105.927000
  H    -28.995300   62.794600  104.579000
  H    -30.293600   61.654400  104.353000
  H    -29.258900   70.154200  106.751000
  H    -30.921300   62.659300  110.258000

 Total Charge           Charge          ....    0
 Multiplicity           Mult            ....    1
 Number of Electrons    NEL             ....  134
 Basis Dimension        Dim             ....  322

ORBITAL ENERGIES
----------------

  NO   OCC          E(Eh)            E(eV)
   0   2.0000     -88.969240     -2420.9761
   1   2.0000     -88.964442     -2420.8455
   2   2.0000     -10.324363      -280.9402
   3   2.0000     -10.319165      -280.7988
   4   2.0000     -10.317746      -280.7601
   5   2.0000     -10.317716      -280.7593
   6   2.0000     -10.302958      -280.3577
   7   2.0000     -10.300329      -280.2862
   8   2.0000     -10.298205      -280.2284
   9   2.0000     -10.297109      -280.1986
  10   2.0000     -10.295051      -280.1426
  11   2.0000     -10.288145      -279.9547
  12   2.0000     -10.286213      -279.9021
  13   2.0000     -10.284789      -279.8633
  14   2.0000     -10.280863      -279.7565
  15   2.0000     -10.278708      -279.6979
  16   2.0000      -8.083384      -219.9601
  17   2.0000      -8.079647      -219.8584
  18   2.0000      -6.041865      -164.4075
  19   2.0000      -6.038023      -164.3029
  20   2.0000      -6.037868      -164.2988
  21   2.0000      -6.034314      -164.2020
  22   2.0000      -6.034050      -164.1948
  23   2.0000      -6.030564      -164.1000
  24   2.0000      -1.009861       -27.4797
  25   2.0000      -0.985230       -26.8095
  26   2.0000      -0.917749       -24.9732
  27   2.0000      -0.913606       -24.8605
  28   2.0000      -0.871793       -23.7227
  29   2.0000      -0.854811       -23.2606
  30   2.0000      -0.847916       -23.0730
  31   2.0000      -0.810355       -22.0509
  32   2.0000      -0.788721       -21.4622
  33   2.0000      -0.776182       -21.1210
  34   2.0000      -0.707118       -19.2417
  35   2.0000      -0.699436       -19.0326
  36   2.0000      -0.692850       -18.8534
  37   2.0000      -0.659123       -17.9356
  38   2.0000      -0.635707       -17.2985
  39   2.0000      -0.619302       -16.8521
  40   2.0000      -0.604376       -16.4459
  41   2.0000      -0.580220       -15.7886
  42   2.0000      -0.554631       -15.0923
  43   2.0000      -0.549795       -14.9607
  44   2.0000      -0.545173       -14.8349
  45   2.0000      -0.533767       -14.5246
  46   2.0000      -0.522779       -14.2255
  47   2.0000      -0.519043       -14.1239
  48   2.0000      -0.502347       -13.6696
  49   2.0000      -0.496715       -13.5163
  50   2.0000      -0.484480       -13.1834
  51   2.0000      -0.476793       -12.9742
  52   2.0000      -0.469575       -12.7778
  53   2.0000      -0.464090       -12.6285
  54   2.0000      -0.461363       -12.5543
  55   2.0000      -0.441992       -12.0272
  56   2.0000      -0.439479       -11.9588
  57   2.0000      -0.438936       -11.9440
  58   2.0000      -0.430963       -11.7271
  59   2.0000      -0.426536       -11.6066
  60   2.0000      -0.422610       -11.4998
  61   2.0000      -0.418145       -11.3783
  62   2.0000      -0.416658       -11.3378
  63   2.0000      -0.333000        -9.0614
  64   2.0000      -0.331746        -9.0273
  65   2.0000      -0.320539        -8.7223
  66   2.0000      -0.302019        -8.2184
  67   0.0000       0.037271         1.0142
  68   0.0000       0.051723         1.4075
  69   0.0000       0.110857         3.0166
  70   0.0000       0.122312         3.3283
  71   0.0000       0.129510         3.5242

MULLIKEN ATOMIC CHARGES
-----------------------
   0 S :    0.127808
   1 C :   -0.142810
   2 C :   -0.111764
   3 C :    0.065935
   4 C :   -0.191340
   5 H :   -0.030978
   6 C :    0.111620
   7 H :    0.022409
   8 H :    0.036464
   9 C :   -0.066098
  10 H :    0.019035
  11 H :    0.024643
  12 C :   -0.071502
  13 H :    0.039728
  14 H :    0.046511
  15 H :    0.022552
  16 S :    0.120779
  17 C :   -0.086952
  18 C :   -0.070910
  19 C :    0.027420
  20 C :   -0.191741
  21 H :    0.029257
  22 C :    0.054431
  23 H :    0.017763
  24 H :    0.045468
  25 C :   -0.053432
  26 H :    0.049261
  27 H :    0.031953
  28 C :   -0.078618
  29 H :    0.022712
  30 H :    0.030314
  31 H :    0.033232
  32 H :    0.072881
  33 H :    0.043967
Sum of atomic charges:   -0.0000000

LOEWDIN ATOMIC CHARGES
----------------------
   0 S :    0.424373
   1 C :   -0.224762
   2 C :   -0.071994
   3 C :   -0.049347
   4 C :   -0.206539
   5 H :    0.012949
   6 C :   -0.026775
   7 H :    0.029468
   8 H :    0.042574
   9 C :   -0.042193
  10 H :    0.021123
  11 H :    0.025947
  12 C :   -0.068679
  13 H :    0.038371
  14 H :    0.021302
  15 H :    0.020744
  16 S :    0.423521
  17 C :   -0.177371
  18 C :   -0.070639
  19 C :   -0.054716
  20 C :   -0.214902
  21 H :    0.033463
  22 C :   -0.047628
  23 H :    0.034873
  24 H :    0.039497
  25 C :   -0.040129
  26 H :    0.041469
  27 H :    0.021960
  28 C :   -0.077428
  29 H :    0.016477
  30 H :    0.030879
  31 H :    0.028582
  32 H :    0.047555
  33 H :    0.017977

  Mayer bond orders larger than 0.100000
B(  0-S ,  1-C ) :   1.1703 B(  0-S ,  4-C ) :   1.1425 B(  1-C ,  2-C ) :   1.5713
B(  1-C ,  4-C ) :   0.1085 B(  1-C , 32-H ) :   0.9406 B(  2-C ,  3-C ) :   1.2873
B(  2-C ,  6-C ) :   1.0248 B(  3-C ,  4-C ) :   1.5542 B(  3-C ,  5-H ) :   1.0039
B(  4-C , 20-C ) :   1.0276 B(  6-C ,  7-H ) :   0.9378 B(  6-C ,  8-H ) :   0.9351
B(  6-C ,  9-C ) :   1.0601 B(  9-C , 10-H ) :   0.9567 B(  9-C , 11-H ) :   0.9535
B(  9-C , 12-C ) :   1.0934 B( 12-C , 13-H ) :   0.9678 B( 12-C , 14-H ) :   0.9680
B( 12-C , 15-H ) :   0.9713 B( 16-S , 17-C ) :   1.1636 B( 16-S , 20-C ) :   1.1607
B( 17-C , 18-C ) :   1.5959 B( 17-C , 20-C ) :   0.1061 B( 17-C , 33-H ) :   0.9742
B( 18-C , 19-C ) :   1.2178 B( 18-C , 21-H ) :   0.9863 B( 19-C , 20-C ) :   1.5970
B( 19-C , 22-C ) :   1.0496 B( 22-C , 23-H ) :   0.9124 B( 22-C , 24-H ) :   0.9266
B( 22-C , 25-C ) :   1.0863 B( 25-C , 26-H ) :   0.9517 B( 25-C , 27-H ) :   0.9475
B( 25-C , 28-C ) :   1.0735 B( 28-C , 29-H ) :   0.9763 B( 28-C , 30-H ) :   0.9723
B( 28-C , 31-H ) :   0.9748

Dispersion correction           -0.014758671
FINAL SINGLE POINT ENERGY     -1339.860180910629

DIPOLE MOMENT
-------------
                                X             Y             Z
Electronic contribution:     -9.99850      -0.10323      23.19313
Nuclear contribution   :     10.41775      -0.08987     -23.76414
                        -----------------------------------------
Total Dipole Moment    :      0.41925      -0.19310      -0.57101
                        -----------------------------------------
Magnitude (a.u.)       :      0.73424
Magnitude (Debye)      :      1.86629

Rotational constants in cm-1:     0.020373     0.008246     0.006917
Rotational constants in MHz :   610.754827   247.209339   207.368627

                             ****ORCA TERMINATED NORMALLY****
TOTAL RUN TIME: 0 days 0 hours 0 minutes 27 seconds 628 msec
