                         Program Version 4.2.1 -  RELEASE  -
|  1> ! wB97X-D3 SP def2-SVP
|  2> %pal
|  3> nprocs 16
|  4> end
|  5>
|  6> * xyz 0 1
|  7> S 	 -36.4056 	 33.6185 	 44.0495
|  8> C 	 -37.6289 	 32.404 	 43.8769
|  9> C 	 -37.0428 	 31.161 	 44.0637
| 10> C 	 -35.679 	 31.208 	 44.5942
| 11> C 	 -35.198 	 32.4977 	 44.6246
| 12> H 	 -35.1197 	 30.3682 	 44.764
| 13> C 	 -37.7216 	 29.8105 	 43.7975
| 14> H 	 -36.994 	 29.2977 	 43.156
| 15> H 	 -38.6061 	 30.1208 	 43.2229
| 16> C 	 -38.259 	 29.1067 	 45.0012
| 17> H 	 -37.4778 	 28.9784 	 45.7675
| 18> H 	 -39.0723 	 29.6546 	 45.4061
| 19> C 	 -38.8426 	 27.6795 	 44.5756
| 20> H 	 -39.6881 	 27.7543 	 43.8359
| 21> H 	 -38.1053 	 27.0207 	 44.1813
| 22> H 	 -39.1971 	 27.1999 	 45.5046
| 23> S 	 -33.3719 	 32.7545 	 46.5776
| 24> C 	 -31.743 	 33.2394 	 46.2934
| 25> C 	 -31.5298 	 33.4288 	 44.9694
| 26> C 	 -32.6539 	 33.0915 	 44.2048
| 27> C 	 -33.7788 	 32.8298 	 44.9664
| 28> H 	 -30.5854 	 33.8387 	 44.6942
| 29> C 	 -32.6328 	 33.2454 	 42.6881
| 30> H 	 -31.9233 	 33.9756 	 42.4423
| 31> H 	 -33.5957 	 33.7286 	 42.4022
| 32> C 	 -32.323 	 31.9113 	 41.9261
| 33> H 	 -31.678 	 31.207 	 42.5508
| 34> H 	 -31.9544 	 32.1974 	 40.8911
| 35> C 	 -33.561 	 31.0536 	 41.5991
| 36> H 	 -34.37 	 31.556 	 41.0574
| 37> H 	 -34.0768 	 30.6815 	 42.4539
| 38> H 	 -33.2117 	 30.1548 	 41.0573
| 39> H 	 -38.5955 	 32.4753 	 43.5065
| 40> H 	 -30.9095 	 33.3027 	 47.0618
| 41> *
| 42>
| 43>                          ****END OF INPUT****

CARTESIAN COORDINATES (ANGSTROEM)
---------------------------------
  S    -36.405600   33.618500   44.049500
  C    -37.628900   32.404000   43.876900
  C    -37.042800   31.161000   44.063700
  C    -35.679000   31.208000   44.594200
  C    -35.198000   32.497700   44.624600
  H    -35.119700   30.368200   44.764000
  C    -37.721600   29.810500   43.797500
  H    -36.994000   29.297700   43.156000
  H    -38.606100   30.120800   43.222900
  C    -38.259000   29.106700   45.001200
  H    -37.477800   28.978400   45.767500
  H    -39.072300   29.654600   45.406100
  C    -38.842600   27.679500   44.575600
  H    -39.688100   27.754300   43.835900
  H    -38.105300   27.020700   44.181300
  H    -39.197100   27.199900   45.504600
  S    -33.371900   32.754500   46.577600
  C    -31.743000   33.239400   46.293400
  C    -31.529800   33.428800   44.969400
  C    -32.653900   33.091500   44.204800
  C    -33.778800   32.829800   44.966400
  H    -30.585400   33.838700   44.694200
  C    -32.632800   33.245400   42.688100
  H    -31.923300   33.975600   42.442300
  H    -33.595700   33.728600   42.402200
  C    -32.323000   31.911300   41.926100
  H    -31.678000   31.207000   42.550800
  H    -31.954400   32.197400   40.891100
  C    -33.561000   31.053600   41.599100
  H    -34.370000   31.556000   41.057400
  H    -34.076800   30.681500   42.453900
  H    -33.211700   30.154800   41.057300
  H    -38.595500   32.475300   43.506500
  H    -30.909500   33.302700   47.061800

 Total Charge           Charge          ....    0
 Multiplicity           Mult            ....    1
 Number of Electrons    NEL             ....  134
 Basis Dimension        Dim             ....  322

ORBITAL ENERGIES
----------------

  NO   OCC          E(Eh)            E(eV)
   0   2.0000     -88.968430     -2420.9541
   1   2.0000     -88.962675     -2420.7975
   2   2.0000     -10.333174      -281.1800
   3   2.0000     -10.320273      -280.8289
   4   2.0000     -10.313016      -280.6314
   5   2.0000     -10.310649      -280.5670
   6   2.0000     -10.301108      -280.3074
   7   2.0000     -10.296977      -280.1950
   8   2.0000     -10.295980      -280.1679
   9   2.0000     -10.291745      -280.0526
  10   2.0000     -10.290559      -280.0204
  11   2.0000     -10.289061      -279.9796
  12   2.0000     -10.285721      -279.8887
  13   2.0000     -10.284667      -279.8600
  14   2.0000     -10.284097      -279.8445
  15   2.0000     -10.268552      -279.4215
  16   2.0000      -8.082974      -219.9489
  17   2.0000      -8.079567      -219.8562
  18   2.0000      -6.041645      -164.4015
  19   2.0000      -6.037845      -164.2981
  20   2.0000      -6.037358      -164.2849
  21   2.0000      -6.033716      -164.1858
  22   2.0000      -6.033554      -164.1814
  23   2.0000      -6.030640      -164.1021
  24   2.0000      -1.017670       -27.6922
  25   2.0000      -0.991443       -26.9785
  26   2.0000      -0.911910       -24.8143
  27   2.0000      -0.900101       -24.4930
  28   2.0000      -0.874278       -23.7903
  29   2.0000      -0.846598       -23.0371
  30   2.0000      -0.843736       -22.9592
  31   2.0000      -0.820796       -22.3350
  32   2.0000      -0.778342       -21.1798
  33   2.0000      -0.769833       -20.9482
  34   2.0000      -0.705101       -19.1868
  35   2.0000      -0.701434       -19.0870
  36   2.0000      -0.684995       -18.6397
  37   2.0000      -0.660589       -17.9755
  38   2.0000      -0.647919       -17.6308
  39   2.0000      -0.622435       -16.9373
  40   2.0000      -0.593190       -16.1415
  41   2.0000      -0.574409       -15.6305
  42   2.0000      -0.568416       -15.4674
  43   2.0000      -0.542665       -14.7667
  44   2.0000      -0.535253       -14.5650
  45   2.0000      -0.525554       -14.3011
  46   2.0000      -0.520833       -14.1726
  47   2.0000      -0.510515       -13.8918
  48   2.0000      -0.508781       -13.8446
  49   2.0000      -0.497896       -13.5484
  50   2.0000      -0.493471       -13.4280
  51   2.0000      -0.483000       -13.1431
  52   2.0000      -0.469989       -12.7890
  53   2.0000      -0.465992       -12.6803
  54   2.0000      -0.457928       -12.4609
  55   2.0000      -0.447086       -12.1658
  56   2.0000      -0.444902       -12.1064
  57   2.0000      -0.435879       -11.8609
  58   2.0000      -0.431102       -11.7309
  59   2.0000      -0.424462       -11.5502
  60   2.0000      -0.416412       -11.3312
  61   2.0000      -0.409468       -11.1422
  62   2.0000      -0.406694       -11.0667
  63   2.0000      -0.338234        -9.2038
  64   2.0000      -0.335666        -9.1339
  65   2.0000      -0.321907        -8.7595
  66   2.0000      -0.308203        -8.3866
  67   0.0000       0.047654         1.2967
  68   0.0000       0.062709         1.7064
  69   0.0000       0.109275         2.9735
  70   0.0000       0.126811         3.4507
  71   0.0000       0.137379         3.7383

MULLIKEN ATOMIC CHARGES
-----------------------
   0 S :    0.120540
   1 C :   -0.073062
   2 C :   -0.152107
   3 C :    0.092737
   4 C :   -0.140683
   5 H :   -0.012190
   6 C :    0.063303
   7 H :    0.039694
   8 H :    0.009410
   9 C :   -0.050459
  10 H :    0.034083
  11 H :    0.025529
  12 C :   -0.065965
  13 H :    0.040321
  14 H :    0.028587
  15 H :    0.036810
  16 S :    0.128046
  17 C :   -0.119921
  18 C :   -0.035591
  19 C :   -0.036713
  20 C :   -0.185141
  21 H :    0.009519
  22 C :    0.104281
  23 H :    0.002992
  24 H :    0.023008
  25 C :   -0.090470
  26 H :    0.049950
  27 H :    0.043164
  28 C :   -0.048430
  29 H :    0.029954
  30 H :    0.003602
  31 H :    0.031630
  32 H :    0.019942
  33 H :    0.073631
Sum of atomic charges:   -0.0000000

LOEWDIN ATOMIC CHARGES
----------------------
   0 S :    0.418880
   1 C :   -0.201539
   2 C :   -0.056179
   3 C :   -0.049720
   4 C :   -0.195989
   5 H :    0.015004
   6 C :   -0.036734
   7 H :    0.033647
   8 H :    0.030155
   9 C :   -0.032329
  10 H :    0.024843
  11 H :    0.023323
  12 C :   -0.066793
  13 H :    0.029415
  14 H :    0.017866
  15 H :    0.027794
  16 S :    0.461819
  17 C :   -0.207175
  18 C :   -0.074737
  19 C :   -0.063132
  20 C :   -0.230607
  21 H :    0.030795
  22 C :   -0.031012
  23 H :    0.020559
  24 H :    0.031193
  25 C :   -0.042187
  26 H :    0.036240
  27 H :    0.032158
  28 C :   -0.073159
  29 H :    0.024202
  30 H :    0.013869
  31 H :    0.027239
  32 H :    0.018482
  33 H :    0.043812

  Mayer bond orders larger than 0.100000
B(  0-S ,  1-C ) :   1.1288 B(  0-S ,  4-C ) :   1.1595 B(  1-C ,  2-C ) :   1.6272
B(  1-C , 32-H ) :   0.9721 B(  2-C ,  3-C ) :   1.2285 B(  2-C ,  6-C ) :   1.0199
B(  3-C ,  4-C ) :   1.5770 B(  3-C ,  5-H ) :   0.9992 B(  4-C , 20-C ) :   0.9788
B(  6-C ,  7-H ) :   0.9439 B(  6-C ,  8-H ) :   0.9337 B(  6-C ,  9-C ) :   1.0744
B(  9-C , 10-H ) :   0.9595 B(  9-C , 11-H ) :   0.9521 B(  9-C , 12-C ) :   1.0736
B( 12-C , 13-H ) :   0.9762 B( 12-C , 14-H ) :   0.9790 B( 12-C , 15-H ) :   0.9767
B( 16-S , 17-C ) :   1.1759 B( 16-S , 20-C ) :   1.1908 B( 17-C , 18-C ) :   1.5900
B( 17-C , 33-H ) :   0.9576 B( 18-C , 19-C ) :   1.2660 B( 18-C , 21-H ) :   1.0000
B( 19-C , 20-C ) :   1.5673 B( 19-C , 22-C ) :   1.0338 B( 22-C , 23-H ) :   0.9366
B( 22-C , 24-H ) :   0.9405 B( 22-C , 25-C ) :   1.0446 B( 25-C , 26-H ) :   0.9575
B( 25-C , 27-H ) :   0.9570 B( 25-C , 28-C ) :   1.0800 B( 28-C , 29-H ) :   0.9735
B( 28-C , 30-H ) :   0.9719 B( 28-C , 31-H ) :   0.9715

Dispersion correction           -0.015414190
FINAL SINGLE POINT ENERGY     -1339.867975150710

DIPOLE MOMENT
-------------
                                X             Y             Z
Electronic contribution:      6.16053      20.05460      13.43259
Nuclear contribution   :     -6.11264     -20.45106     -13.69160
                        -----------------------------------------
Total Dipole Moment    :      0.04789      -0.39645      -0.25901
                        -----------------------------------------
Magnitude (a.u.)       :      0.47598
Magnitude (Debye)      :      1.20984

Rotational constants in cm-1:     0.020518     0.008040     0.007431
Rotational constants in MHz :   615.118032   241.043314   222.778092

                             ****ORCA TERMINATED NORMALLY****
TOTAL RUN TIME: 0 days 0 hours 0 minutes 34 seconds 871 msec
