                         Program Version 4.2.1 -  RELEASE  -
|  1> ! wB97X-D3 SP def2-SVP
|  2> %pal
|  3> nprocs 16
|  4> end
|  5>
|  6> * xyz 0 1
|  7> S 	 -40.8857 	 0.681176 	 98.6992
|  8> C 	 -39.5074 	 0.19405 	 99.4758
|  9> C 	 -38.4519 	 0.0837469 	 98.6646
| 10> C 	 -38.7828 	 0.491947 	 97.3263
| 11> C 	 -40.102 	 0.774707 	 97.1138
| 12> H 	 -38.0708 	 0.573994 	 96.436
| 13> C 	 -37.1499 	 -0.457999 	 99.1458
| 14> H 	 -37.3134 	 -1.43479 	 99.6496
| 15> H 	 -36.7517 	 0.151927 	 99.9954
| 16> C 	 -36.0629 	 -0.666129 	 98.0953
| 17> H 	 -36.5801 	 -1.2514 	 97.391
| 18> H 	 -35.9553 	 0.315693 	 97.592
| 19> C 	 -34.715 	 -1.18406 	 98.5135
| 20> H 	 -34.8154 	 -2.19776 	 98.9511
| 21> H 	 -34.202 	 -1.45245 	 97.5626
| 22> H 	 -34.1355 	 -0.454955 	 99.1351
| 23> S 	 -42.0987 	 2.25379 	 95.8398
| 24> C 	 -42.1878 	 2.27331 	 94.1346
| 25> C 	 -41.2674 	 1.447 	 93.5548
| 26> C 	 -40.4848 	 0.702268 	 94.509
| 27> C 	 -40.773 	 1.08793 	 95.8154
| 28> H 	 -41.3786 	 1.27118 	 92.4767
| 29> C 	 -39.4709 	 -0.31452 	 94.0519
| 30> H 	 -38.5571 	 -0.194153 	 94.6606
| 31> H 	 -39.1566 	 -0.00365716 	 93.0975
| 32> C 	 -39.9805 	 -1.76428 	 93.9118
| 33> H 	 -40.8614 	 -1.85982 	 93.2648
| 34> H 	 -40.3222 	 -2.20648 	 94.8511
| 35> C 	 -38.8788 	 -2.68968 	 93.4863
| 36> H 	 -38.4799 	 -2.37788 	 92.5302
| 37> H 	 -39.3274 	 -3.73409 	 93.3415
| 38> H 	 -38.2555 	 -2.65919 	 94.3438
| 39> H 	 -39.4432 	 0.0862641 	 100.538
| 40> H 	 -42.9147 	 2.88615 	 93.6126
| 41> *
| 42>
| 43>                          ****END OF INPUT****

CARTESIAN COORDINATES (ANGSTROEM)
---------------------------------
  S    -40.885700    0.681176   98.699200
  C    -39.507400    0.194050   99.475800
  C    -38.451900    0.083747   98.664600
  C    -38.782800    0.491947   97.326300
  C    -40.102000    0.774707   97.113800
  H    -38.070800    0.573994   96.436000
  C    -37.149900   -0.457999   99.145800
  H    -37.313400   -1.434790   99.649600
  H    -36.751700    0.151927   99.995400
  C    -36.062900   -0.666129   98.095300
  H    -36.580100   -1.251400   97.391000
  H    -35.955300    0.315693   97.592000
  C    -34.715000   -1.184060   98.513500
  H    -34.815400   -2.197760   98.951100
  H    -34.202000   -1.452450   97.562600
  H    -34.135500   -0.454955   99.135100
  S    -42.098700    2.253790   95.839800
  C    -42.187800    2.273310   94.134600
  C    -41.267400    1.447000   93.554800
  C    -40.484800    0.702268   94.509000
  C    -40.773000    1.087930   95.815400
  H    -41.378600    1.271180   92.476700
  C    -39.470900   -0.314520   94.051900
  H    -38.557100   -0.194153   94.660600
  H    -39.156600   -0.003657   93.097500
  C    -39.980500   -1.764280   93.911800
  H    -40.861400   -1.859820   93.264800
  H    -40.322200   -2.206480   94.851100
  C    -38.878800   -2.689680   93.486300
  H    -38.479900   -2.377880   92.530200
  H    -39.327400   -3.734090   93.341500
  H    -38.255500   -2.659190   94.343800
  H    -39.443200    0.086264  100.538000
  H    -42.914700    2.886150   93.612600

 Total Charge           Charge          ....    0
 Multiplicity           Mult            ....    1
 Number of Electrons    NEL             ....  134
 Basis Dimension        Dim             ....  322

ORBITAL ENERGIES
----------------

  NO   OCC          E(Eh)            E(eV)
   0   2.0000     -88.963741     -2420.8265
   1   2.0000     -88.961735     -2420.7719
   2   2.0000     -10.332388      -281.1586
   3   2.0000     -10.330851      -281.1167
   4   2.0000     -10.314436      -280.6701
   5   2.0000     -10.306514      -280.4545
   6   2.0000     -10.300264      -280.2844
   7   2.0000     -10.298095      -280.2254
   8   2.0000     -10.293830      -280.1094
   9   2.0000     -10.293794      -280.1084
  10   2.0000     -10.290905      -280.0298
  11   2.0000     -10.290741      -280.0253
  12   2.0000     -10.288335      -279.9598
  13   2.0000     -10.282996      -279.8145
  14   2.0000     -10.281644      -279.7778
  15   2.0000     -10.277328      -279.6603
  16   2.0000      -8.079340      -219.8500
  17   2.0000      -8.078262      -219.8207
  18   2.0000      -6.037748      -164.2955
  19   2.0000      -6.036759      -164.2686
  20   2.0000      -6.033680      -164.1848
  21   2.0000      -6.032406      -164.1501
  22   2.0000      -6.030225      -164.0908
  23   2.0000      -6.029029      -164.0582
  24   2.0000      -1.013858       -27.5885
  25   2.0000      -0.994078       -27.0502
  26   2.0000      -0.915566       -24.9138
  27   2.0000      -0.914940       -24.8968
  28   2.0000      -0.874393       -23.7934
  29   2.0000      -0.858295       -23.3554
  30   2.0000      -0.848761       -23.0960
  31   2.0000      -0.820498       -22.3269
  32   2.0000      -0.783094       -21.3091
  33   2.0000      -0.773102       -21.0372
  34   2.0000      -0.710691       -19.3389
  35   2.0000      -0.694463       -18.8973
  36   2.0000      -0.685245       -18.6465
  37   2.0000      -0.660382       -17.9699
  38   2.0000      -0.641043       -17.4437
  39   2.0000      -0.621189       -16.9034
  40   2.0000      -0.598107       -16.2753
  41   2.0000      -0.574374       -15.6295
  42   2.0000      -0.573564       -15.6075
  43   2.0000      -0.569081       -15.4855
  44   2.0000      -0.530368       -14.4320
  45   2.0000      -0.523707       -14.2508
  46   2.0000      -0.518490       -14.1088
  47   2.0000      -0.511530       -13.9194
  48   2.0000      -0.504169       -13.7191
  49   2.0000      -0.502223       -13.6662
  50   2.0000      -0.496216       -13.5027
  51   2.0000      -0.485792       -13.2191
  52   2.0000      -0.476876       -12.9765
  53   2.0000      -0.468906       -12.7596
  54   2.0000      -0.462197       -12.5770
  55   2.0000      -0.450694       -12.2640
  56   2.0000      -0.444408       -12.0929
  57   2.0000      -0.434934       -11.8352
  58   2.0000      -0.426538       -11.6067
  59   2.0000      -0.422779       -11.5044
  60   2.0000      -0.420611       -11.4454
  61   2.0000      -0.413034       -11.2392
  62   2.0000      -0.411878       -11.2078
  63   2.0000      -0.359709        -9.7882
  64   2.0000      -0.332350        -9.0437
  65   2.0000      -0.326227        -8.8771
  66   2.0000      -0.288896        -7.8612
  67   0.0000       0.029755         0.8097
  68   0.0000       0.084698         2.3048
  69   0.0000       0.113162         3.0793
  70   0.0000       0.118125         3.2143
  71   0.0000       0.131992         3.5917

MULLIKEN ATOMIC CHARGES
-----------------------
   0 S :    0.114975
   1 C :   -0.107522
   2 C :   -0.065869
   3 C :   -0.046378
   4 C :   -0.115093
   5 H :    0.042635
   6 C :    0.032710
   7 H :    0.028636
   8 H :    0.028132
   9 C :   -0.104955
  10 H :    0.012765
  11 H :    0.030808
  12 C :   -0.016709
  13 H :    0.030214
  14 H :    0.035465
  15 H :    0.055423
  16 S :    0.102561
  17 C :   -0.092501
  18 C :   -0.037730
  19 C :   -0.062234
  20 C :   -0.142735
  21 H :    0.030063
  22 C :    0.101269
  23 H :    0.005889
  24 H :   -0.004291
  25 C :   -0.069202
  26 H :    0.022833
  27 H :    0.025446
  28 C :   -0.037183
  29 H :    0.029229
  30 H :    0.042329
  31 H :    0.032335
  32 H :    0.039058
  33 H :    0.059626
Sum of atomic charges:    0.0000000

LOEWDIN ATOMIC CHARGES
----------------------
   0 S :    0.429748
   1 C :   -0.212244
   2 C :   -0.076942
   3 C :   -0.076523
   4 C :   -0.191569
   5 H :    0.039989
   6 C :   -0.040398
   7 H :    0.032295
   8 H :    0.030879
   9 C :   -0.051952
  10 H :    0.016208
  11 H :    0.025209
  12 C :   -0.068023
  13 H :    0.028817
  14 H :    0.036051
  15 H :    0.034689
  16 S :    0.412806
  17 C :   -0.191198
  18 C :   -0.080659
  19 C :   -0.052065
  20 C :   -0.190046
  21 H :    0.036860
  22 C :   -0.029030
  23 H :    0.029415
  24 H :    0.023738
  25 C :   -0.039542
  26 H :    0.021547
  27 H :    0.025359
  28 C :   -0.060753
  29 H :    0.019493
  30 H :    0.035839
  31 H :    0.022560
  32 H :    0.029115
  33 H :    0.030325

  Mayer bond orders larger than 0.100000
B(  0-S ,  1-C ) :   1.1619 B(  0-S ,  4-C ) :   1.1490 B(  1-C ,  2-C ) :   1.6135
B(  1-C , 32-H ) :   0.9714 B(  2-C ,  3-C ) :   1.2548 B(  2-C ,  6-C ) :   1.0161
B(  3-C ,  4-C ) :   1.5814 B(  3-C ,  5-H ) :   0.9737 B(  4-C , 20-C ) :   1.0345
B(  6-C ,  7-H ) :   0.9397 B(  6-C ,  8-H ) :   0.9323 B(  6-C ,  9-C ) :   1.0823
B(  9-C , 10-H ) :   0.9498 B(  9-C , 11-H ) :   0.9448 B(  9-C , 12-C ) :   1.0907
B( 12-C , 13-H ) :   0.9680 B( 12-C , 14-H ) :   0.9670 B( 12-C , 15-H ) :   0.9713
B( 16-S , 17-C ) :   1.1706 B( 16-S , 20-C ) :   1.1390 B( 17-C , 18-C ) :   1.6119
B( 17-C , 33-H ) :   0.9656 B( 18-C , 19-C ) :   1.2439 B( 18-C , 21-H ) :   0.9843
B( 19-C , 20-C ) :   1.5995 B( 19-C , 22-C ) :   1.0434 B( 22-C , 23-H ) :   0.9325
B( 22-C , 24-H ) :   0.9188 B( 22-C , 25-C ) :   1.0612 B( 25-C , 26-H ) :   0.9537
B( 25-C , 27-H ) :   0.9572 B( 25-C , 28-C ) :   1.0770 B( 28-C , 29-H ) :   0.9748
B( 28-C , 30-H ) :   0.9727 B( 28-C , 31-H ) :   0.9795

Dispersion correction           -0.013681932
FINAL SINGLE POINT ENERGY     -1339.878910694606

DIPOLE MOMENT
-------------
                                X             Y             Z
Electronic contribution:    -25.37376      18.70296       7.06116
Nuclear contribution   :     25.82237     -19.04842      -7.36608
                        -----------------------------------------
Total Dipole Moment    :      0.44861      -0.34546      -0.30492
                        -----------------------------------------
Magnitude (a.u.)       :      0.64309
Magnitude (Debye)      :      1.63461

Rotational constants in cm-1:     0.016883     0.009217     0.006615
Rotational constants in MHz :   506.125938   276.308335   198.317366

                             ****ORCA TERMINATED NORMALLY****
TOTAL RUN TIME: 0 days 0 hours 0 minutes 30 seconds 295 msec
