                         Program Version 4.2.1 -  RELEASE  -
|  1> ! wB97X-D3 SP def2-SVP
|  2> %pal
|  3> nprocs 16
|  4> end
|  5>
|  6> * xyz 0 1
|  7> S 	 -40.7036 	 34.302 	 81.0921
|  8> C 	 -41.0113 	 35.625 	 79.9979
|  9> C 	 -42.3 	 35.5857 	 79.496
| 10> C 	 -43.0958 	 34.5648 	 80.1211
| 11> C 	 -42.4479 	 33.8458 	 81.1233
| 12> H 	 -44.0939 	 34.4162 	 79.963
| 13> C 	 -42.7458 	 36.4299 	 78.3667
| 14> H 	 -42.9606 	 35.6804 	 77.5902
| 15> H 	 -41.8767 	 37.0521 	 78.0166
| 16> C 	 -44.0182 	 37.2665 	 78.6471
| 17> H 	 -44.7501 	 36.6879 	 79.0836
| 18> H 	 -43.6265 	 38.1003 	 79.2472
| 19> C 	 -44.5678 	 37.8144 	 77.234
| 20> H 	 -44.8426 	 36.9877 	 76.552
| 21> H 	 -45.5262 	 38.3385 	 77.4267
| 22> H 	 -43.8121 	 38.48 	 76.7733
| 23> S 	 -44.7189 	 32.5131 	 82.0919
| 24> C 	 -44.4974 	 31.0276 	 82.9033
| 25> C 	 -43.2279 	 30.7469 	 83.2276
| 26> C 	 -42.315 	 31.7003 	 82.6777
| 27> C 	 -42.9718 	 32.7663 	 81.9416
| 28> H 	 -42.9882 	 29.7986 	 83.7362
| 29> C 	 -40.771 	 31.4102 	 82.5986
| 30> H 	 -40.4971 	 30.7522 	 83.4698
| 31> H 	 -40.1967 	 32.2325 	 82.9682
| 32> C 	 -40.2129 	 30.685 	 81.2979
| 33> H 	 -40.5124 	 31.3117 	 80.3706
| 34> H 	 -40.7151 	 29.7568 	 81.1444
| 35> C 	 -38.6727 	 30.4918 	 81.4155
| 36> H 	 -38.1857 	 31.4089 	 81.6434
| 37> H 	 -38.4013 	 30.0426 	 80.4925
| 38> H 	 -38.3934 	 29.8591 	 82.2537
| 39> H 	 -40.2812 	 36.3818 	 79.6208
| 40> H 	 -45.3292 	 30.334 	 83.0765
| 41> *
| 42>
| 43>                          ****END OF INPUT****

CARTESIAN COORDINATES (ANGSTROEM)
---------------------------------
  S    -40.703600   34.302000   81.092100
  C    -41.011300   35.625000   79.997900
  C    -42.300000   35.585700   79.496000
  C    -43.095800   34.564800   80.121100
  C    -42.447900   33.845800   81.123300
  H    -44.093900   34.416200   79.963000
  C    -42.745800   36.429900   78.366700
  H    -42.960600   35.680400   77.590200
  H    -41.876700   37.052100   78.016600
  C    -44.018200   37.266500   78.647100
  H    -44.750100   36.687900   79.083600
  H    -43.626500   38.100300   79.247200
  C    -44.567800   37.814400   77.234000
  H    -44.842600   36.987700   76.552000
  H    -45.526200   38.338500   77.426700
  H    -43.812100   38.480000   76.773300
  S    -44.718900   32.513100   82.091900
  C    -44.497400   31.027600   82.903300
  C    -43.227900   30.746900   83.227600
  C    -42.315000   31.700300   82.677700
  C    -42.971800   32.766300   81.941600
  H    -42.988200   29.798600   83.736200
  C    -40.771000   31.410200   82.598600
  H    -40.497100   30.752200   83.469800
  H    -40.196700   32.232500   82.968200
  C    -40.212900   30.685000   81.297900
  H    -40.512400   31.311700   80.370600
  H    -40.715100   29.756800   81.144400
  C    -38.672700   30.491800   81.415500
  H    -38.185700   31.408900   81.643400
  H    -38.401300   30.042600   80.492500
  H    -38.393400   29.859100   82.253700
  H    -40.281200   36.381800   79.620800
  H    -45.329200   30.334000   83.076500

 Total Charge           Charge          ....    0
 Multiplicity           Mult            ....    1
 Number of Electrons    NEL             ....  134
 Basis Dimension        Dim             ....  322

ORBITAL ENERGIES
----------------

  NO   OCC          E(Eh)            E(eV)
   0   2.0000     -88.968573     -2420.9580
   1   2.0000     -88.965395     -2420.8715
   2   2.0000     -10.337738      -281.3042
   3   2.0000     -10.336524      -281.2711
   4   2.0000     -10.314136      -280.6619
   5   2.0000     -10.313462      -280.6436
   6   2.0000     -10.313294      -280.6390
   7   2.0000     -10.297109      -280.1986
   8   2.0000     -10.296385      -280.1789
   9   2.0000     -10.293882      -280.1108
  10   2.0000     -10.293017      -280.0872
  11   2.0000     -10.292743      -280.0798
  12   2.0000     -10.289842      -280.0008
  13   2.0000     -10.288658      -279.9686
  14   2.0000     -10.287891      -279.9477
  15   2.0000     -10.272674      -279.5337
  16   2.0000      -8.083619      -219.9665
  17   2.0000      -8.078621      -219.8305
  18   2.0000      -6.042094      -164.4137
  19   2.0000      -6.038119      -164.3056
  20   2.0000      -6.037353      -164.2847
  21   2.0000      -6.034388      -164.2040
  22   2.0000      -6.033391      -164.1769
  23   2.0000      -6.029172      -164.0621
  24   2.0000      -1.003285       -27.3008
  25   2.0000      -0.983108       -26.7517
  26   2.0000      -0.909707       -24.7544
  27   2.0000      -0.894421       -24.3384
  28   2.0000      -0.870977       -23.7005
  29   2.0000      -0.848946       -23.1010
  30   2.0000      -0.840419       -22.8690
  31   2.0000      -0.815633       -22.1945
  32   2.0000      -0.778595       -21.1866
  33   2.0000      -0.763521       -20.7765
  34   2.0000      -0.712830       -19.3971
  35   2.0000      -0.700163       -19.0524
  36   2.0000      -0.691085       -18.8054
  37   2.0000      -0.660851       -17.9827
  38   2.0000      -0.633719       -17.2444
  39   2.0000      -0.620009       -16.8713
  40   2.0000      -0.597142       -16.2491
  41   2.0000      -0.570409       -15.5216
  42   2.0000      -0.565936       -15.3999
  43   2.0000      -0.546184       -14.8624
  44   2.0000      -0.532249       -14.4832
  45   2.0000      -0.520191       -14.1551
  46   2.0000      -0.510389       -13.8884
  47   2.0000      -0.506937       -13.7945
  48   2.0000      -0.502257       -13.6671
  49   2.0000      -0.500351       -13.6153
  50   2.0000      -0.488489       -13.2925
  51   2.0000      -0.477541       -12.9945
  52   2.0000      -0.469274       -12.7696
  53   2.0000      -0.464836       -12.6488
  54   2.0000      -0.457188       -12.4407
  55   2.0000      -0.454444       -12.3661
  56   2.0000      -0.445763       -12.1298
  57   2.0000      -0.440778       -11.9942
  58   2.0000      -0.434081       -11.8119
  59   2.0000      -0.432238       -11.7618
  60   2.0000      -0.415113       -11.2958
  61   2.0000      -0.411327       -11.1928
  62   2.0000      -0.400844       -10.9075
  63   2.0000      -0.364892        -9.9292
  64   2.0000      -0.334921        -9.1137
  65   2.0000      -0.324794        -8.8381
  66   2.0000      -0.276465        -7.5230
  67   0.0000       0.014036         0.3819
  68   0.0000       0.090585         2.4650
  69   0.0000       0.111828         3.0430
  70   0.0000       0.112690         3.0664
  71   0.0000       0.133242         3.6257

MULLIKEN ATOMIC CHARGES
-----------------------
   0 S :    0.087352
   1 C :   -0.125689
   2 C :   -0.075032
   3 C :    0.024256
   4 C :   -0.105209
   5 H :   -0.024109
   6 C :    0.030060
   7 H :    0.036800
   8 H :    0.024970
   9 C :   -0.055189
  10 H :    0.024443
  11 H :    0.044060
  12 C :   -0.084270
  13 H :    0.037792
  14 H :    0.041380
  15 H :    0.043964
  16 S :    0.102967
  17 C :   -0.095215
  18 C :   -0.022830
  19 C :   -0.051780
  20 C :   -0.129172
  21 H :    0.030931
  22 C :    0.001991
  23 H :    0.010461
  24 H :    0.024667
  25 C :   -0.064207
  26 H :    0.046198
  27 H :    0.023585
  28 C :   -0.012492
  29 H :    0.025480
  30 H :    0.035527
  31 H :    0.024720
  32 H :    0.059773
  33 H :    0.063818
Sum of atomic charges:    0.0000000

LOEWDIN ATOMIC CHARGES
----------------------
   0 S :    0.394852
   1 C :   -0.211146
   2 C :   -0.065187
   3 C :   -0.060152
   4 C :   -0.162478
   5 H :    0.008372
   6 C :   -0.037475
   7 H :    0.035183
   8 H :    0.033110
   9 C :   -0.025164
  10 H :    0.011593
  11 H :    0.031808
  12 C :   -0.070558
  13 H :    0.025764
  14 H :    0.027221
  15 H :    0.027632
  16 S :    0.415601
  17 C :   -0.196283
  18 C :   -0.078674
  19 C :   -0.053013
  20 C :   -0.192267
  21 H :    0.041275
  22 C :   -0.054140
  23 H :    0.033391
  24 H :    0.018607
  25 C :   -0.034968
  26 H :    0.029658
  27 H :    0.018139
  28 C :   -0.056297
  29 H :    0.022158
  30 H :    0.025372
  31 H :    0.024620
  32 H :    0.038869
  33 H :    0.034577

  Mayer bond orders larger than 0.100000
B(  0-S ,  1-C ) :   1.1206 B(  0-S ,  4-C ) :   1.1274 B(  1-C ,  2-C ) :   1.6230
B(  1-C , 32-H ) :   0.9577 B(  2-C ,  3-C ) :   1.2305 B(  2-C ,  6-C ) :   1.0320
B(  3-C ,  4-C ) :   1.5562 B(  3-C ,  5-H ) :   0.9987 B(  4-C , 20-C ) :   1.1229
B(  6-C ,  7-H ) :   0.9361 B(  6-C ,  8-H ) :   0.9431 B(  6-C ,  9-C ) :   1.0528
B(  9-C , 10-H ) :   0.9620 B(  9-C , 11-H ) :   0.9579 B(  9-C , 12-C ) :   1.0740
B( 12-C , 13-H ) :   0.9778 B( 12-C , 14-H ) :   0.9774 B( 12-C , 15-H ) :   0.9771
B( 16-S , 17-C ) :   1.1635 B( 16-S , 20-C ) :   1.1414 B( 17-C , 18-C ) :   1.6099
B( 17-C , 33-H ) :   0.9583 B( 18-C , 19-C ) :   1.2651 B( 18-C , 21-H ) :   0.9887
B( 19-C , 20-C ) :   1.5225 B( 19-C , 22-C ) :   1.0404 B( 22-C , 23-H ) :   0.9319
B( 22-C , 24-H ) :   0.9381 B( 22-C , 25-C ) :   1.0371 B( 25-C , 26-H ) :   0.9578
B( 25-C , 27-H ) :   0.9571 B( 25-C , 28-C ) :   1.0678 B( 28-C , 29-H ) :   0.9770
B( 28-C , 30-H ) :   0.9742 B( 28-C , 31-H ) :   0.9756

Dispersion correction           -0.013959547
FINAL SINGLE POINT ENERGY     -1339.867064381681

DIPOLE MOMENT
-------------
                                X             Y             Z
Electronic contribution:     -6.18458      -3.86244      12.58912
Nuclear contribution   :      6.16456       3.65120     -12.88606
                        -----------------------------------------
Total Dipole Moment    :     -0.02002      -0.21123      -0.29694
                        -----------------------------------------
Magnitude (a.u.)       :      0.36496
Magnitude (Debye)      :      0.92765

Rotational constants in cm-1:     0.020149     0.008066     0.006110
Rotational constants in MHz :   604.037066   241.799002   183.184692

                             ****ORCA TERMINATED NORMALLY****
TOTAL RUN TIME: 0 days 0 hours 0 minutes 30 seconds 527 msec
