                         Program Version 4.2.1 -  RELEASE  -
|  1> ! wB97X-D3 SP def2-SVP
|  2> %pal
|  3> nprocs 16
|  4> end
|  5>
|  6> * xyz 0 1
|  7> S 	 -65.9363 	 36.0834 	 145.617
|  8> C 	 -67.5793 	 35.6326 	 145.082
|  9> C 	 -67.7693 	 35.6469 	 143.716
| 10> C 	 -66.5985 	 36.1763 	 143.118
| 11> C 	 -65.5423 	 36.503 	 143.935
| 12> H 	 -66.4579 	 36.4195 	 142.067
| 13> C 	 -69.059 	 35.3924 	 142.876
| 14> H 	 -69.4263 	 36.3809 	 142.527
| 15> H 	 -69.844 	 35.0867 	 143.572
| 16> C 	 -68.9555 	 34.3081 	 141.722
| 17> H 	 -68.4351 	 34.7482 	 140.858
| 18> H 	 -68.3731 	 33.4846 	 142.084
| 19> C 	 -70.3539 	 33.8488 	 141.249
| 20> H 	 -70.3435 	 33.0707 	 140.463
| 21> H 	 -71.0415 	 33.6459 	 142.073
| 22> H 	 -70.8441 	 34.7027 	 140.753
| 23> S 	 -62.7583 	 36.3783 	 144.523
| 24> C 	 -61.7367 	 37.5784 	 143.851
| 25> C 	 -62.4346 	 38.4289 	 142.982
| 26> C 	 -63.7959 	 38.0088 	 142.824
| 27> C 	 -64.1792 	 37.0201 	 143.647
| 28> H 	 -61.9143 	 39.2822 	 142.452
| 29> C 	 -64.6574 	 38.7782 	 141.794
| 30> H 	 -65.2106 	 38.088 	 141.232
| 31> H 	 -63.9411 	 39.2214 	 141.095
| 32> C 	 -65.4398 	 40.0339 	 142.308
| 33> H 	 -65.9592 	 40.4709 	 141.541
| 34> H 	 -64.7868 	 40.7582 	 142.723
| 35> C 	 -66.4868 	 39.6286 	 143.343
| 36> H 	 -67.0001 	 40.5319 	 143.733
| 37> H 	 -66.0132 	 39.0296 	 144.155
| 38> H 	 -67.2959 	 39.0518 	 142.919
| 39> H 	 -68.1733 	 35.0896 	 145.754
| 40> H 	 -60.6447 	 37.7263 	 144.138
| 41> *
| 42>
| 43>                          ****END OF INPUT****

CARTESIAN COORDINATES (ANGSTROEM)
---------------------------------
  S    -65.936300   36.083400  145.617000
  C    -67.579300   35.632600  145.082000
  C    -67.769300   35.646900  143.716000
  C    -66.598500   36.176300  143.118000
  C    -65.542300   36.503000  143.935000
  H    -66.457900   36.419500  142.067000
  C    -69.059000   35.392400  142.876000
  H    -69.426300   36.380900  142.527000
  H    -69.844000   35.086700  143.572000
  C    -68.955500   34.308100  141.722000
  H    -68.435100   34.748200  140.858000
  H    -68.373100   33.484600  142.084000
  C    -70.353900   33.848800  141.249000
  H    -70.343500   33.070700  140.463000
  H    -71.041500   33.645900  142.073000
  H    -70.844100   34.702700  140.753000
  S    -62.758300   36.378300  144.523000
  C    -61.736700   37.578400  143.851000
  C    -62.434600   38.428900  142.982000
  C    -63.795900   38.008800  142.824000
  C    -64.179200   37.020100  143.647000
  H    -61.914300   39.282200  142.452000
  C    -64.657400   38.778200  141.794000
  H    -65.210600   38.088000  141.232000
  H    -63.941100   39.221400  141.095000
  C    -65.439800   40.033900  142.308000
  H    -65.959200   40.470900  141.541000
  H    -64.786800   40.758200  142.723000
  C    -66.486800   39.628600  143.343000
  H    -67.000100   40.531900  143.733000
  H    -66.013200   39.029600  144.155000
  H    -67.295900   39.051800  142.919000
  H    -68.173300   35.089600  145.754000
  H    -60.644700   37.726300  144.138000

 Total Charge           Charge          ....    0
 Multiplicity           Mult            ....    1
 Number of Electrons    NEL             ....  134
 Basis Dimension        Dim             ....  322

ORBITAL ENERGIES
----------------

  NO   OCC          E(Eh)            E(eV)
   0   2.0000     -88.967686     -2420.9338
   1   2.0000     -88.965409     -2420.8719
   2   2.0000     -10.333024      -281.1759
   3   2.0000     -10.328119      -281.0424
   4   2.0000     -10.323661      -280.9211
   5   2.0000     -10.312971      -280.6302
   6   2.0000     -10.306989      -280.4674
   7   2.0000     -10.305895      -280.4376
   8   2.0000     -10.301831      -280.3271
   9   2.0000     -10.300195      -280.2825
  10   2.0000     -10.294977      -280.1406
  11   2.0000     -10.291509      -280.0462
  12   2.0000     -10.290553      -280.0202
  13   2.0000     -10.285219      -279.8750
  14   2.0000     -10.276087      -279.6266
  15   2.0000     -10.267147      -279.3833
  16   2.0000      -8.082424      -219.9339
  17   2.0000      -8.079183      -219.8457
  18   2.0000      -6.041024      -164.3846
  19   2.0000      -6.037674      -164.2935
  20   2.0000      -6.036897      -164.2723
  21   2.0000      -6.033958      -164.1924
  22   2.0000      -6.033118      -164.1695
  23   2.0000      -6.029886      -164.0815
  24   2.0000      -1.005265       -27.3547
  25   2.0000      -0.982699       -26.7406
  26   2.0000      -0.906432       -24.6653
  27   2.0000      -0.903068       -24.5737
  28   2.0000      -0.865983       -23.5646
  29   2.0000      -0.851063       -23.1586
  30   2.0000      -0.842016       -22.9124
  31   2.0000      -0.810439       -22.0532
  32   2.0000      -0.781866       -21.2757
  33   2.0000      -0.773707       -21.0536
  34   2.0000      -0.707563       -19.2538
  35   2.0000      -0.700919       -19.0730
  36   2.0000      -0.691397       -18.8139
  37   2.0000      -0.659291       -17.9402
  38   2.0000      -0.644458       -17.5366
  39   2.0000      -0.618870       -16.8403
  40   2.0000      -0.594468       -16.1763
  41   2.0000      -0.565470       -15.3872
  42   2.0000      -0.557068       -15.1586
  43   2.0000      -0.550354       -14.9759
  44   2.0000      -0.538438       -14.6516
  45   2.0000      -0.524444       -14.2708
  46   2.0000      -0.516045       -14.0423
  47   2.0000      -0.508005       -13.8235
  48   2.0000      -0.500952       -13.6316
  49   2.0000      -0.494294       -13.4504
  50   2.0000      -0.489302       -13.3146
  51   2.0000      -0.476395       -12.9634
  52   2.0000      -0.470719       -12.8089
  53   2.0000      -0.463602       -12.6152
  54   2.0000      -0.457225       -12.4417
  55   2.0000      -0.446600       -12.1526
  56   2.0000      -0.443949       -12.0805
  57   2.0000      -0.435478       -11.8500
  58   2.0000      -0.431410       -11.7393
  59   2.0000      -0.426343       -11.6014
  60   2.0000      -0.424681       -11.5562
  61   2.0000      -0.419185       -11.4066
  62   2.0000      -0.411008       -11.1841
  63   2.0000      -0.351169        -9.5558
  64   2.0000      -0.333790        -9.0829
  65   2.0000      -0.331494        -9.0204
  66   2.0000      -0.291245        -7.9252
  67   0.0000       0.027506         0.7485
  68   0.0000       0.069789         1.8991
  69   0.0000       0.104180         2.8349
  70   0.0000       0.115590         3.1454
  71   0.0000       0.133033         3.6200

MULLIKEN ATOMIC CHARGES
-----------------------
   0 S :    0.086955
   1 C :   -0.108620
   2 C :   -0.062405
   3 C :    0.025975
   4 C :   -0.164713
   5 H :    0.000628
   6 C :    0.036380
   7 H :    0.046750
   8 H :    0.014319
   9 C :   -0.061861
  10 H :    0.039042
  11 H :    0.039927
  12 C :   -0.065143
  13 H :    0.046715
  14 H :    0.034336
  15 H :    0.022520
  16 S :    0.112543
  17 C :   -0.123515
  18 C :   -0.054695
  19 C :   -0.064137
  20 C :   -0.134059
  21 H :    0.044030
  22 C :    0.072588
  23 H :    0.014066
  24 H :    0.013906
  25 C :    0.010059
  26 H :    0.008109
  27 H :    0.018641
  28 C :   -0.074502
  29 H :    0.027502
  30 H :    0.056679
  31 H :    0.021300
  32 H :    0.034012
  33 H :    0.086668
Sum of atomic charges:    0.0000000

LOEWDIN ATOMIC CHARGES
----------------------
   0 S :    0.375003
   1 C :   -0.174609
   2 C :   -0.060572
   3 C :   -0.066074
   4 C :   -0.172870
   5 H :    0.026896
   6 C :   -0.027597
   7 H :    0.036569
   8 H :    0.027271
   9 C :   -0.035772
  10 H :    0.026993
  11 H :    0.023744
  12 C :   -0.072111
  13 H :    0.030932
  14 H :    0.024630
  15 H :    0.026860
  16 S :    0.403571
  17 C :   -0.206360
  18 C :   -0.082025
  19 C :   -0.059133
  20 C :   -0.194633
  21 H :    0.042662
  22 C :   -0.020519
  23 H :    0.017439
  24 H :    0.032153
  25 C :   -0.022401
  26 H :    0.013507
  27 H :    0.020859
  28 C :   -0.068401
  29 H :    0.024812
  30 H :    0.030637
  31 H :    0.018791
  32 H :    0.013034
  33 H :    0.046715

  Mayer bond orders larger than 0.100000
B(  0-S ,  1-C ) :   1.1336 B(  0-S ,  4-C ) :   1.1281 B(  1-C ,  2-C ) :   1.6371
B(  1-C , 32-H ) :   0.9638 B(  2-C ,  3-C ) :   1.2189 B(  2-C ,  6-C ) :   1.0186
B(  3-C ,  4-C ) :   1.6167 B(  3-C ,  5-H ) :   0.9882 B(  4-C , 20-C ) :   1.0357
B(  6-C ,  7-H ) :   0.9451 B(  6-C ,  8-H ) :   0.9454 B(  6-C ,  9-C ) :   1.0417
B(  9-C , 10-H ) :   0.9550 B(  9-C , 11-H ) :   0.9632 B(  9-C , 12-C ) :   1.0820
B( 12-C , 13-H ) :   0.9753 B( 12-C , 14-H ) :   0.9766 B( 12-C , 15-H ) :   0.9728
B( 16-S , 17-C ) :   1.1671 B( 16-S , 20-C ) :   1.1173 B( 17-C , 18-C ) :   1.6054
B( 17-C , 33-H ) :   0.9563 B( 18-C , 19-C ) :   1.2430 B( 18-C , 21-H ) :   0.9798
B( 19-C , 20-C ) :   1.6366 B( 19-C , 22-C ) :   1.0225 B( 22-C , 23-H ) :   0.9426
B( 22-C , 24-H ) :   0.9297 B( 22-C , 25-C ) :   1.0753 B( 25-C , 26-H ) :   0.9514
B( 25-C , 27-H ) :   0.9538 B( 25-C , 28-C ) :   1.0886 B( 28-C , 29-H ) :   0.9710
B( 28-C , 30-H ) :   0.9700 B( 28-C , 31-H ) :   0.9728

Dispersion correction           -0.015312825
FINAL SINGLE POINT ENERGY     -1339.877056714355

DIPOLE MOMENT
-------------
                                X             Y             Z
Electronic contribution:     21.84608      -4.63199      17.36629
Nuclear contribution   :    -22.15343       4.86509     -17.98399
                        -----------------------------------------
Total Dipole Moment    :     -0.30736       0.23310      -0.61770
                        -----------------------------------------
Magnitude (a.u.)       :      0.72826
Magnitude (Debye)      :      1.85109

Rotational constants in cm-1:     0.020961     0.008136     0.007053
Rotational constants in MHz :   628.394746   243.900238   211.450499

                             ****ORCA TERMINATED NORMALLY****
TOTAL RUN TIME: 0 days 0 hours 0 minutes 34 seconds 317 msec
