                         Program Version 4.2.1 -  RELEASE  -
|  1> ! wB97X-D3 SP def2-SVP
|  2> %pal
|  3> nprocs 16
|  4> end
|  5>
|  6> * xyz 0 1
|  7> S 	 16.7163 	 -11.5912 	 79.1376
|  8> C 	 15.8752 	 -10.086 	 78.8336
|  9> C 	 14.7673 	 -10.3034 	 78.0318
| 10> C 	 14.4777 	 -11.6968 	 77.812
| 11> C 	 15.4084 	 -12.5379 	 78.4337
| 12> H 	 13.6559 	 -12.1816 	 77.3137
| 13> C 	 13.8036 	 -9.18374 	 77.6292
| 14> H 	 13.4612 	 -8.64057 	 78.536
| 15> H 	 12.8991 	 -9.61054 	 77.1569
| 16> C 	 14.3692 	 -8.25883 	 76.5755
| 17> H 	 13.6949 	 -7.42546 	 76.6081
| 18> H 	 15.3103 	 -7.85145 	 76.8677
| 19> C 	 14.5015 	 -8.92865 	 75.1624
| 20> H 	 13.5133 	 -9.28211 	 74.8168
| 21> H 	 15.017 	 -8.30135 	 74.4137
| 22> H 	 15.156 	 -9.76861 	 75.2143
| 23> S 	 14.0182 	 -14.6814 	 79.1239
| 24> C 	 14.7553 	 -16.2913 	 79.2206
| 25> C 	 16.0501 	 -16.2219 	 78.7914
| 26> C 	 16.4317 	 -14.9043 	 78.4926
| 27> C 	 15.4066 	 -13.9715 	 78.46
| 28> H 	 16.6183 	 -17.1447 	 78.8479
| 29> C 	 17.8788 	 -14.606 	 78.2228
| 30> H 	 18.2628 	 -14.368 	 79.1889
| 31> H 	 17.9003 	 -13.7071 	 77.6549
| 32> C 	 18.7141 	 -15.759 	 77.68
| 33> H 	 18.117 	 -16.1382 	 76.8252
| 34> H 	 18.7327 	 -16.6806 	 78.2665
| 35> C 	 20.2096 	 -15.4166 	 77.4348
| 36> H 	 20.9108 	 -16.2925 	 77.3785
| 37> H 	 20.4865 	 -14.9453 	 78.4182
| 38> H 	 20.4036 	 -14.7635 	 76.5787
| 39> H 	 16.1468 	 -9.04075 	 79.1641
| 40> H 	 14.3142 	 -17.1598 	 79.6373
| 41> *
| 42>
| 43>                          ****END OF INPUT****

CARTESIAN COORDINATES (ANGSTROEM)
---------------------------------
  S     16.716300  -11.591200   79.137600
  C     15.875200  -10.086000   78.833600
  C     14.767300  -10.303400   78.031800
  C     14.477700  -11.696800   77.812000
  C     15.408400  -12.537900   78.433700
  H     13.655900  -12.181600   77.313700
  C     13.803600   -9.183740   77.629200
  H     13.461200   -8.640570   78.536000
  H     12.899100   -9.610540   77.156900
  C     14.369200   -8.258830   76.575500
  H     13.694900   -7.425460   76.608100
  H     15.310300   -7.851450   76.867700
  C     14.501500   -8.928650   75.162400
  H     13.513300   -9.282110   74.816800
  H     15.017000   -8.301350   74.413700
  H     15.156000   -9.768610   75.214300
  S     14.018200  -14.681400   79.123900
  C     14.755300  -16.291300   79.220600
  C     16.050100  -16.221900   78.791400
  C     16.431700  -14.904300   78.492600
  C     15.406600  -13.971500   78.460000
  H     16.618300  -17.144700   78.847900
  C     17.878800  -14.606000   78.222800
  H     18.262800  -14.368000   79.188900
  H     17.900300  -13.707100   77.654900
  C     18.714100  -15.759000   77.680000
  H     18.117000  -16.138200   76.825200
  H     18.732700  -16.680600   78.266500
  C     20.209600  -15.416600   77.434800
  H     20.910800  -16.292500   77.378500
  H     20.486500  -14.945300   78.418200
  H     20.403600  -14.763500   76.578700
  H     16.146800   -9.040750   79.164100
  H     14.314200  -17.159800   79.637300

 Total Charge           Charge          ....    0
 Multiplicity           Mult            ....    1
 Number of Electrons    NEL             ....  134
 Basis Dimension        Dim             ....  322

ORBITAL ENERGIES
----------------

  NO   OCC          E(Eh)            E(eV)
   0   2.0000     -88.969554     -2420.9846
   1   2.0000     -88.962652     -2420.7968
   2   2.0000     -10.331556      -281.1359
   3   2.0000     -10.319539      -280.8089
   4   2.0000     -10.318709      -280.7863
   5   2.0000     -10.314362      -280.6681
   6   2.0000     -10.302820      -280.3540
   7   2.0000     -10.299124      -280.2534
   8   2.0000     -10.296487      -280.1817
   9   2.0000     -10.293298      -280.0949
  10   2.0000     -10.290265      -280.0123
  11   2.0000     -10.288875      -279.9745
  12   2.0000     -10.287476      -279.9365
  13   2.0000     -10.282266      -279.7947
  14   2.0000     -10.281615      -279.7770
  15   2.0000     -10.278898      -279.7030
  16   2.0000      -8.083393      -219.9603
  17   2.0000      -8.078174      -219.8183
  18   2.0000      -6.042035      -164.4121
  19   2.0000      -6.037961      -164.3013
  20   2.0000      -6.036724      -164.2676
  21   2.0000      -6.034137      -164.1972
  22   2.0000      -6.032433      -164.1508
  23   2.0000      -6.028951      -164.0561
  24   2.0000      -1.014415       -27.6036
  25   2.0000      -0.985539       -26.8179
  26   2.0000      -0.912186       -24.8218
  27   2.0000      -0.911157       -24.7938
  28   2.0000      -0.875989       -23.8369
  29   2.0000      -0.849068       -23.1043
  30   2.0000      -0.839985       -22.8571
  31   2.0000      -0.816852       -22.2277
  32   2.0000      -0.781312       -21.2606
  33   2.0000      -0.769620       -20.9424
  34   2.0000      -0.710450       -19.3323
  35   2.0000      -0.704761       -19.1775
  36   2.0000      -0.701157       -19.0794
  37   2.0000      -0.658693       -17.9240
  38   2.0000      -0.635918       -17.3042
  39   2.0000      -0.610614       -16.6157
  40   2.0000      -0.597075       -16.2472
  41   2.0000      -0.580086       -15.7849
  42   2.0000      -0.568308       -15.4645
  43   2.0000      -0.551333       -15.0025
  44   2.0000      -0.538010       -14.6400
  45   2.0000      -0.534551       -14.5459
  46   2.0000      -0.514889       -14.0108
  47   2.0000      -0.510855       -13.9011
  48   2.0000      -0.506571       -13.7845
  49   2.0000      -0.495452       -13.4819
  50   2.0000      -0.483889       -13.1673
  51   2.0000      -0.478666       -13.0252
  52   2.0000      -0.472930       -12.8691
  53   2.0000      -0.469152       -12.7663
  54   2.0000      -0.461028       -12.5452
  55   2.0000      -0.449501       -12.2316
  56   2.0000      -0.442950       -12.0533
  57   2.0000      -0.440341       -11.9823
  58   2.0000      -0.429671       -11.6919
  59   2.0000      -0.420548       -11.4437
  60   2.0000      -0.416570       -11.3355
  61   2.0000      -0.414664       -11.2836
  62   2.0000      -0.410569       -11.1722
  63   2.0000      -0.356881        -9.7112
  64   2.0000      -0.332963        -9.0604
  65   2.0000      -0.324552        -8.8315
  66   2.0000      -0.287878        -7.8336
  67   0.0000       0.028118         0.7651
  68   0.0000       0.068494         1.8638
  69   0.0000       0.110308         3.0016
  70   0.0000       0.122075         3.3218
  71   0.0000       0.128879         3.5070

MULLIKEN ATOMIC CHARGES
-----------------------
   0 S :    0.109647
   1 C :   -0.130595
   2 C :   -0.075796
   3 C :    0.024250
   4 C :   -0.154704
   5 H :    0.012657
   6 C :    0.026915
   7 H :    0.047143
   8 H :    0.019323
   9 C :   -0.035636
  10 H :    0.018927
  11 H :    0.011478
  12 C :   -0.055023
  13 H :    0.032885
  14 H :    0.038959
  15 H :    0.030418
  16 S :    0.096939
  17 C :   -0.078077
  18 C :   -0.041639
  19 C :   -0.111251
  20 C :   -0.101658
  21 H :    0.022642
  22 C :    0.120602
  23 H :    0.023294
  24 H :    0.022748
  25 C :   -0.103720
  26 H :    0.024611
  27 H :    0.027747
  28 C :   -0.053145
  29 H :    0.039941
  30 H :    0.031678
  31 H :    0.048667
  32 H :    0.067924
  33 H :    0.041847
Sum of atomic charges:   -0.0000000

LOEWDIN ATOMIC CHARGES
----------------------
   0 S :    0.410412
   1 C :   -0.209676
   2 C :   -0.064439
   3 C :   -0.065618
   4 C :   -0.186936
   5 H :    0.030657
   6 C :   -0.033644
   7 H :    0.036938
   8 H :    0.030083
   9 C :   -0.036694
  10 H :    0.020277
  11 H :    0.014823
  12 C :   -0.064046
  13 H :    0.025894
  14 H :    0.030487
  15 H :    0.023052
  16 S :    0.427552
  17 C :   -0.169188
  18 C :   -0.074193
  19 C :   -0.057935
  20 C :   -0.224675
  21 H :    0.036675
  22 C :   -0.034616
  23 H :    0.028271
  24 H :    0.022355
  25 C :   -0.050724
  26 H :    0.023962
  27 H :    0.024122
  28 C :   -0.069976
  29 H :    0.031081
  30 H :    0.032530
  31 H :    0.026153
  32 H :    0.043495
  33 H :    0.023540

  Mayer bond orders larger than 0.100000
B(  0-S ,  1-C ) :   1.1326 B(  0-S ,  4-C ) :   1.1410 B(  1-C ,  2-C ) :   1.6163
B(  1-C , 32-H ) :   0.9592 B(  2-C ,  3-C ) :   1.2235 B(  2-C ,  6-C ) :   1.0142
B(  3-C ,  4-C ) :   1.5540 B(  3-C ,  5-H ) :   1.0006 B(  4-C , 20-C ) :   1.0541
B(  6-C ,  7-H ) :   0.9469 B(  6-C ,  8-H ) :   0.9465 B(  6-C ,  9-C ) :   1.0702
B(  9-C , 10-H ) :   0.9556 B(  9-C , 11-H ) :   0.9580 B(  9-C , 12-C ) :   1.0650
B( 12-C , 13-H ) :   0.9760 B( 12-C , 14-H ) :   0.9751 B( 12-C , 15-H ) :   0.9763
B( 16-S , 17-C ) :   1.1689 B( 16-S , 20-C ) :   1.1454 B( 17-C , 18-C ) :   1.5854
B( 17-C , 33-H ) :   0.9685 B( 18-C , 19-C ) :   1.2553 B( 18-C , 21-H ) :   0.9957
B( 19-C , 20-C ) :   1.5609 B( 19-C , 22-C ) :   1.0373 B( 22-C , 23-H ) :   0.9069
B( 22-C , 24-H ) :   0.9330 B( 22-C , 25-C ) :   1.0771 B( 25-C , 26-H ) :   0.9584
B( 25-C , 27-H ) :   0.9437 B( 25-C , 28-C ) :   1.0639 B( 28-C , 29-H ) :   0.9770
B( 28-C , 30-H ) :   0.9712 B( 28-C , 31-H ) :   0.9783

Dispersion correction           -0.013863346
FINAL SINGLE POINT ENERGY     -1339.873059530044

DIPOLE MOMENT
-------------
                                X             Y             Z
Electronic contribution:     -9.46305      -6.80559      13.60938
Nuclear contribution   :      9.59918       6.81216     -13.62639
                        -----------------------------------------
Total Dipole Moment    :      0.13612       0.00657      -0.01701
                        -----------------------------------------
Magnitude (a.u.)       :      0.13734
Magnitude (Debye)      :      0.34909

Rotational constants in cm-1:     0.020971     0.007668     0.006410
Rotational constants in MHz :   628.681208   229.895689   192.154048

                             ****ORCA TERMINATED NORMALLY****
TOTAL RUN TIME: 0 days 0 hours 0 minutes 29 seconds 385 msec
