                         Program Version 4.2.1 -  RELEASE  -
|  1> ! wB97X-D3 SP def2-SVP
|  2> %pal
|  3> nprocs 16
|  4> end
|  5>
|  6> * xyz 0 1
|  7> S 	 -39.4445 	 65.8065 	 148.619
|  8> C 	 -40.0777 	 65.837 	 146.978
|  9> C 	 -39.536 	 66.7763 	 146.191
| 10> C 	 -38.4206 	 67.344 	 146.843
| 11> C 	 -38.2979 	 67.0246 	 148.183
| 12> H 	 -37.8182 	 68.1452 	 146.47
| 13> C 	 -40.05 	 67.1323 	 144.841
| 14> H 	 -39.7772 	 68.1466 	 144.613
| 15> H 	 -41.2035 	 67.1396 	 144.879
| 16> C 	 -39.5882 	 66.139 	 143.762
| 17> H 	 -39.9337 	 65.1088 	 143.939
| 18> H 	 -40.0935 	 66.4293 	 142.82
| 19> C 	 -38.0873 	 66.1228 	 143.371
| 20> H 	 -38.0065 	 65.6252 	 142.419
| 21> H 	 -37.6979 	 67.0896 	 143.204
| 22> H 	 -37.4905 	 65.5775 	 144.099
| 23> S 	 -38.1384 	 67.9984 	 150.758
| 24> C 	 -36.6023 	 68.5064 	 151.381
| 25> C 	 -35.6048 	 68.4076 	 150.409
| 26> C 	 -36.0974 	 68.0304 	 149.131
| 27> C 	 -37.4581 	 67.6792 	 149.174
| 28> H 	 -34.5861 	 68.7528 	 150.626
| 29> C 	 -35.1699 	 67.9053 	 147.972
| 30> H 	 -35.4508 	 67.0975 	 147.257
| 31> H 	 -34.2102 	 67.4722 	 148.316
| 32> C 	 -35.043 	 69.2569 	 147.227
| 33> H 	 -34.3378 	 69.8391 	 147.742
| 34> H 	 -35.9824 	 69.8293 	 147.146
| 35> C 	 -34.3526 	 69.1396 	 145.854
| 36> H 	 -35.0952 	 68.7164 	 145.108
| 37> H 	 -33.4691 	 68.5175 	 145.942
| 38> H 	 -34.122 	 70.1444 	 145.546
| 39> H 	 -40.9805 	 65.2497 	 146.743
| 40> H 	 -36.3231 	 68.8739 	 152.341
| 41> *
| 42>
| 43>                          ****END OF INPUT****

CARTESIAN COORDINATES (ANGSTROEM)
---------------------------------
  S    -39.444500   65.806500  148.619000
  C    -40.077700   65.837000  146.978000
  C    -39.536000   66.776300  146.191000
  C    -38.420600   67.344000  146.843000
  C    -38.297900   67.024600  148.183000
  H    -37.818200   68.145200  146.470000
  C    -40.050000   67.132300  144.841000
  H    -39.777200   68.146600  144.613000
  H    -41.203500   67.139600  144.879000
  C    -39.588200   66.139000  143.762000
  H    -39.933700   65.108800  143.939000
  H    -40.093500   66.429300  142.820000
  C    -38.087300   66.122800  143.371000
  H    -38.006500   65.625200  142.419000
  H    -37.697900   67.089600  143.204000
  H    -37.490500   65.577500  144.099000
  S    -38.138400   67.998400  150.758000
  C    -36.602300   68.506400  151.381000
  C    -35.604800   68.407600  150.409000
  C    -36.097400   68.030400  149.131000
  C    -37.458100   67.679200  149.174000
  H    -34.586100   68.752800  150.626000
  C    -35.169900   67.905300  147.972000
  H    -35.450800   67.097500  147.257000
  H    -34.210200   67.472200  148.316000
  C    -35.043000   69.256900  147.227000
  H    -34.337800   69.839100  147.742000
  H    -35.982400   69.829300  147.146000
  C    -34.352600   69.139600  145.854000
  H    -35.095200   68.716400  145.108000
  H    -33.469100   68.517500  145.942000
  H    -34.122000   70.144400  145.546000
  H    -40.980500   65.249700  146.743000
  H    -36.323100   68.873900  152.341000

 Total Charge           Charge          ....    0
 Multiplicity           Mult            ....    1
 Number of Electrons    NEL             ....  134
 Basis Dimension        Dim             ....  322

ORBITAL ENERGIES
----------------

  NO   OCC          E(Eh)            E(eV)
   0   2.0000     -88.969239     -2420.9761
   1   2.0000     -88.963985     -2420.8331
   2   2.0000     -10.326934      -281.0102
   3   2.0000     -10.325855      -280.9808
   4   2.0000     -10.314656      -280.6761
   5   2.0000     -10.307089      -280.4701
   6   2.0000     -10.300848      -280.3003
   7   2.0000     -10.298014      -280.2232
   8   2.0000     -10.293224      -280.0929
   9   2.0000     -10.293100      -280.0895
  10   2.0000     -10.293021      -280.0873
  11   2.0000     -10.290611      -280.0218
  12   2.0000     -10.287871      -279.9472
  13   2.0000     -10.283976      -279.8412
  14   2.0000     -10.280569      -279.7485
  15   2.0000     -10.273035      -279.5435
  16   2.0000      -8.083718      -219.9691
  17   2.0000      -8.079227      -219.8469
  18   2.0000      -6.042225      -164.4173
  19   2.0000      -6.038176      -164.3071
  20   2.0000      -6.037597      -164.2914
  21   2.0000      -6.034594      -164.2096
  22   2.0000      -6.033834      -164.1890
  23   2.0000      -6.029932      -164.0828
  24   2.0000      -1.010153       -27.4877
  25   2.0000      -0.987088       -26.8600
  26   2.0000      -0.913370       -24.8541
  27   2.0000      -0.909863       -24.7586
  28   2.0000      -0.867841       -23.6152
  29   2.0000      -0.854443       -23.2506
  30   2.0000      -0.845781       -23.0149
  31   2.0000      -0.814447       -22.1622
  32   2.0000      -0.786018       -21.3886
  33   2.0000      -0.770612       -20.9694
  34   2.0000      -0.702845       -19.1254
  35   2.0000      -0.702190       -19.1076
  36   2.0000      -0.693996       -18.8846
  37   2.0000      -0.662267       -18.0212
  38   2.0000      -0.638221       -17.3669
  39   2.0000      -0.616390       -16.7728
  40   2.0000      -0.596112       -16.2210
  41   2.0000      -0.576029       -15.6745
  42   2.0000      -0.564323       -15.3560
  43   2.0000      -0.544896       -14.8274
  44   2.0000      -0.539146       -14.6709
  45   2.0000      -0.530535       -14.4366
  46   2.0000      -0.518821       -14.1178
  47   2.0000      -0.512415       -13.9435
  48   2.0000      -0.503570       -13.7028
  49   2.0000      -0.495033       -13.4705
  50   2.0000      -0.490445       -13.3457
  51   2.0000      -0.479507       -13.0480
  52   2.0000      -0.473465       -12.8836
  53   2.0000      -0.464325       -12.6349
  54   2.0000      -0.458619       -12.4796
  55   2.0000      -0.448846       -12.2137
  56   2.0000      -0.443727       -12.0744
  57   2.0000      -0.440989       -11.9999
  58   2.0000      -0.436258       -11.8712
  59   2.0000      -0.427280       -11.6269
  60   2.0000      -0.421384       -11.4664
  61   2.0000      -0.415506       -11.3065
  62   2.0000      -0.409952       -11.1554
  63   2.0000      -0.350538        -9.5386
  64   2.0000      -0.333674        -9.0797
  65   2.0000      -0.331373        -9.0171
  66   2.0000      -0.283312        -7.7093
  67   0.0000       0.028247         0.7686
  68   0.0000       0.073860         2.0098
  69   0.0000       0.115909         3.1540
  70   0.0000       0.122387         3.3303
  71   0.0000       0.126473         3.4415

MULLIKEN ATOMIC CHARGES
-----------------------
   0 S :    0.107331
   1 C :   -0.145721
   2 C :   -0.059693
   3 C :    0.023715
   4 C :   -0.135385
   5 H :   -0.014242
   6 C :    0.075387
   7 H :    0.016523
   8 H :    0.043602
   9 C :   -0.094343
  10 H :    0.032820
  11 H :    0.025638
  12 C :   -0.026065
  13 H :    0.027223
  14 H :    0.016139
  15 H :    0.043521
  16 S :    0.119058
  17 C :   -0.076292
  18 C :   -0.047511
  19 C :   -0.030205
  20 C :   -0.150165
  21 H :    0.024060
  22 C :    0.036995
  23 H :    0.027634
  24 H :    0.026143
  25 C :   -0.080893
  26 H :    0.014481
  27 H :    0.046704
  28 C :   -0.044413
  29 H :    0.037811
  30 H :    0.034614
  31 H :    0.031025
  32 H :    0.051376
  33 H :    0.043128
Sum of atomic charges:   -0.0000000

LOEWDIN ATOMIC CHARGES
----------------------
   0 S :    0.405127
   1 C :   -0.192490
   2 C :   -0.069243
   3 C :   -0.064861
   4 C :   -0.193760
   5 H :    0.023894
   6 C :   -0.030582
   7 H :    0.026554
   8 H :    0.044520
   9 C :   -0.040463
  10 H :    0.025522
  11 H :    0.024122
  12 C :   -0.060411
  13 H :    0.027925
  14 H :    0.016757
  15 H :    0.026241
  16 S :    0.417320
  17 C :   -0.193731
  18 C :   -0.070134
  19 C :   -0.056815
  20 C :   -0.198530
  21 H :    0.033321
  22 C :   -0.040094
  23 H :    0.031221
  24 H :    0.034203
  25 C :   -0.038731
  26 H :    0.017323
  27 H :    0.027825
  28 C :   -0.061526
  29 H :    0.027379
  30 H :    0.024156
  31 H :    0.023004
  32 H :    0.028006
  33 H :    0.026951

  Mayer bond orders larger than 0.100000
B(  0-S ,  1-C ) :   1.1303 B(  0-S ,  4-C ) :   1.1539 B(  1-C ,  2-C ) :   1.6297
B(  1-C , 32-H ) :   0.9606 B(  2-C ,  3-C ) :   1.2392 B(  2-C ,  6-C ) :   1.0206
B(  3-C ,  4-C ) :   1.5632 B(  3-C ,  5-H ) :   0.9980 B(  4-C , 20-C ) :   1.0636
B(  6-C ,  7-H ) :   0.9373 B(  6-C ,  8-H ) :   0.9396 B(  6-C ,  9-C ) :   1.0755
B(  9-C , 10-H ) :   0.9577 B(  9-C , 11-H ) :   0.9572 B(  9-C , 12-C ) :   1.0777
B( 12-C , 13-H ) :   0.9730 B( 12-C , 14-H ) :   0.9742 B( 12-C , 15-H ) :   0.9761
B( 16-S , 17-C ) :   1.1562 B( 16-S , 20-C ) :   1.1433 B( 17-C , 18-C ) :   1.5960
B( 17-C , 20-C ) :   0.1006 B( 17-C , 33-H ) :   0.9691 B( 18-C , 19-C ) :   1.2757
B( 18-C , 21-H ) :   0.9826 B( 19-C , 20-C ) :   1.5498 B( 19-C , 22-C ) :   1.0568
B( 22-C , 23-H ) :   0.9396 B( 22-C , 24-H ) :   0.9314 B( 22-C , 25-C ) :   1.0407
B( 25-C , 26-H ) :   0.9534 B( 25-C , 27-H ) :   0.9598 B( 25-C , 28-C ) :   1.0861
B( 28-C , 29-H ) :   0.9767 B( 28-C , 30-H ) :   0.9711 B( 28-C , 31-H ) :   0.9755

Dispersion correction           -0.014657340
FINAL SINGLE POINT ENERGY     -1339.888223300293

DIPOLE MOMENT
-------------
                                X             Y             Z
Electronic contribution:    -12.17792      -4.46533      28.51424
Nuclear contribution   :     12.47469       4.76395     -29.03292
                        -----------------------------------------
Total Dipole Moment    :      0.29677       0.29862      -0.51868
                        -----------------------------------------
Magnitude (a.u.)       :      0.66804
Magnitude (Debye)      :      1.69802

Rotational constants in cm-1:     0.017883     0.009921     0.006770
Rotational constants in MHz :   536.111641   297.432432   202.967977

                             ****ORCA TERMINATED NORMALLY****
TOTAL RUN TIME: 0 days 0 hours 0 minutes 36 seconds 31 msec
