                         Program Version 4.2.1 -  RELEASE  -
|  1> ! wB97X-D3 SP def2-SVP
|  2> %pal
|  3> nprocs 16
|  4> end
|  5>
|  6> * xyz 0 1
|  7> S 	 41.498 	 27.3353 	 49.3564
|  8> C 	 41.6996 	 28.3362 	 50.8085
|  9> C 	 41.2203 	 29.6081 	 50.572
| 10> C 	 40.713 	 29.7464 	 49.2503
| 11> C 	 40.689 	 28.5642 	 48.4778
| 12> H 	 40.2923 	 30.7223 	 48.9166
| 13> C 	 41.3023 	 30.7791 	 51.5585
| 14> H 	 41.0767 	 30.4293 	 52.5084
| 15> H 	 40.4303 	 31.4583 	 51.2627
| 16> C 	 42.7036 	 31.3739 	 51.5947
| 17> H 	 42.9147 	 31.8942 	 50.6028
| 18> H 	 42.722 	 32.1968 	 52.2999
| 19> C 	 43.8747 	 30.3851 	 51.9119
| 20> H 	 43.813 	 30.0383 	 52.9693
| 21> H 	 43.8991 	 29.4641 	 51.307
| 22> H 	 44.8469 	 30.8833 	 51.8297
| 23> S 	 41.4057 	 27.5066 	 46.045
| 24> C 	 40.388 	 27.8631 	 44.6547
| 25> C 	 39.18 	 28.4991 	 45.0572
| 26> C 	 39.1311 	 28.8719 	 46.457
| 27> C 	 40.2718 	 28.3909 	 47.1151
| 28> H 	 38.4797 	 28.6868 	 44.3031
| 29> C 	 38.0138 	 29.6783 	 47.0646
| 30> H 	 37.3264 	 30.2072 	 46.2751
| 31> H 	 38.5429 	 30.4911 	 47.5773
| 32> C 	 37.2428 	 28.9007 	 48.1131
| 33> H 	 36.6895 	 29.5651 	 48.7055
| 34> H 	 37.833 	 28.4215 	 48.8918
| 35> C 	 36.3775 	 27.7401 	 47.55
| 36> H 	 36.0307 	 27.018 	 48.2538
| 37> H 	 36.895 	 27.0833 	 46.8378
| 38> H 	 35.4138 	 28.1151 	 47.1645
| 39> H 	 42.0227 	 27.9531 	 51.7831
| 40> H 	 40.524 	 27.5842 	 43.6242
| 41> *
| 42>
| 43>                          ****END OF INPUT****

CARTESIAN COORDINATES (ANGSTROEM)
---------------------------------
  S     41.498000   27.335300   49.356400
  C     41.699600   28.336200   50.808500
  C     41.220300   29.608100   50.572000
  C     40.713000   29.746400   49.250300
  C     40.689000   28.564200   48.477800
  H     40.292300   30.722300   48.916600
  C     41.302300   30.779100   51.558500
  H     41.076700   30.429300   52.508400
  H     40.430300   31.458300   51.262700
  C     42.703600   31.373900   51.594700
  H     42.914700   31.894200   50.602800
  H     42.722000   32.196800   52.299900
  C     43.874700   30.385100   51.911900
  H     43.813000   30.038300   52.969300
  H     43.899100   29.464100   51.307000
  H     44.846900   30.883300   51.829700
  S     41.405700   27.506600   46.045000
  C     40.388000   27.863100   44.654700
  C     39.180000   28.499100   45.057200
  C     39.131100   28.871900   46.457000
  C     40.271800   28.390900   47.115100
  H     38.479700   28.686800   44.303100
  C     38.013800   29.678300   47.064600
  H     37.326400   30.207200   46.275100
  H     38.542900   30.491100   47.577300
  C     37.242800   28.900700   48.113100
  H     36.689500   29.565100   48.705500
  H     37.833000   28.421500   48.891800
  C     36.377500   27.740100   47.550000
  H     36.030700   27.018000   48.253800
  H     36.895000   27.083300   46.837800
  H     35.413800   28.115100   47.164500
  H     42.022700   27.953100   51.783100
  H     40.524000   27.584200   43.624200

 Total Charge           Charge          ....    0
 Multiplicity           Mult            ....    1
 Number of Electrons    NEL             ....  134
 Basis Dimension        Dim             ....  322

ORBITAL ENERGIES
----------------

  NO   OCC          E(Eh)            E(eV)
   0   2.0000     -88.970369     -2421.0068
   1   2.0000     -88.966911     -2420.9127
   2   2.0000     -10.330328      -281.1025
   3   2.0000     -10.330037      -281.0946
   4   2.0000     -10.320910      -280.8462
   5   2.0000     -10.315661      -280.7034
   6   2.0000     -10.309450      -280.5344
   7   2.0000     -10.302881      -280.3556
   8   2.0000     -10.300013      -280.2776
   9   2.0000     -10.297094      -280.1982
  10   2.0000     -10.295769      -280.1621
  11   2.0000     -10.295483      -280.1543
  12   2.0000     -10.294649      -280.1316
  13   2.0000     -10.282602      -279.8038
  14   2.0000     -10.279971      -279.7322
  15   2.0000     -10.271690      -279.5069
  16   2.0000      -8.083896      -219.9740
  17   2.0000      -8.081733      -219.9151
  18   2.0000      -6.042563      -164.4265
  19   2.0000      -6.040247      -164.3635
  20   2.0000      -6.038559      -164.3175
  21   2.0000      -6.036081      -164.2501
  22   2.0000      -6.034572      -164.2090
  23   2.0000      -6.032633      -164.1563
  24   2.0000      -1.005243       -27.3541
  25   2.0000      -0.977439       -26.5975
  26   2.0000      -0.912207       -24.8224
  27   2.0000      -0.908729       -24.7278
  28   2.0000      -0.863997       -23.5106
  29   2.0000      -0.847217       -23.0539
  30   2.0000      -0.838997       -22.8303
  31   2.0000      -0.805943       -21.9308
  32   2.0000      -0.786570       -21.4037
  33   2.0000      -0.776832       -21.1387
  34   2.0000      -0.714415       -19.4402
  35   2.0000      -0.698312       -19.0020
  36   2.0000      -0.690708       -18.7951
  37   2.0000      -0.662625       -18.0310
  38   2.0000      -0.635347       -17.2887
  39   2.0000      -0.620908       -16.8958
  40   2.0000      -0.589096       -16.0301
  41   2.0000      -0.567264       -15.4360
  42   2.0000      -0.553894       -15.0722
  43   2.0000      -0.543880       -14.7997
  44   2.0000      -0.542164       -14.7530
  45   2.0000      -0.539559       -14.6821
  46   2.0000      -0.516147       -14.0451
  47   2.0000      -0.507912       -13.8210
  48   2.0000      -0.501529       -13.6473
  49   2.0000      -0.489313       -13.3149
  50   2.0000      -0.485395       -13.2083
  51   2.0000      -0.480219       -13.0674
  52   2.0000      -0.470281       -12.7970
  53   2.0000      -0.462937       -12.5972
  54   2.0000      -0.458294       -12.4708
  55   2.0000      -0.448188       -12.1958
  56   2.0000      -0.446235       -12.1427
  57   2.0000      -0.439846       -11.9688
  58   2.0000      -0.431863       -11.7516
  59   2.0000      -0.424507       -11.5514
  60   2.0000      -0.416398       -11.3308
  61   2.0000      -0.412665       -11.2292
  62   2.0000      -0.409748       -11.1498
  63   2.0000      -0.347834        -9.4651
  64   2.0000      -0.332859        -9.0576
  65   2.0000      -0.331036        -9.0079
  66   2.0000      -0.282589        -7.6896
  67   0.0000       0.022070         0.6005
  68   0.0000       0.066831         1.8186
  69   0.0000       0.103096         2.8054
  70   0.0000       0.116373         3.1667
  71   0.0000       0.138905         3.7798

MULLIKEN ATOMIC CHARGES
-----------------------
   0 S :    0.104093
   1 C :   -0.143835
   2 C :   -0.119240
   3 C :    0.007228
   4 C :   -0.149134
   5 H :    0.019778
   6 C :    0.101026
   7 H :    0.004368
   8 H :    0.037966
   9 C :   -0.067945
  10 H :    0.035952
  11 H :    0.030546
  12 C :   -0.082458
  13 H :    0.025413
  14 H :    0.058584
  15 H :    0.040557
  16 S :    0.114410
  17 C :   -0.091271
  18 C :   -0.035527
  19 C :   -0.024772
  20 C :   -0.145312
  21 H :   -0.000907
  22 C :    0.062474
  23 H :    0.048961
  24 H :    0.024491
  25 C :   -0.035148
  26 H :    0.005591
  27 H :    0.038471
  28 C :   -0.058470
  29 H :    0.017897
  30 H :    0.040726
  31 H :    0.023450
  32 H :    0.057587
  33 H :    0.054450
Sum of atomic charges:   -0.0000000

LOEWDIN ATOMIC CHARGES
----------------------
   0 S :    0.414245
   1 C :   -0.199208
   2 C :   -0.063457
   3 C :   -0.075157
   4 C :   -0.207294
   5 H :    0.030748
   6 C :   -0.028279
   7 H :    0.018174
   8 H :    0.041123
   9 C :   -0.041279
  10 H :    0.030418
  11 H :    0.022582
  12 C :   -0.072691
  13 H :    0.024427
  14 H :    0.028957
  15 H :    0.029998
  16 S :    0.391766
  17 C :   -0.185990
  18 C :   -0.062209
  19 C :   -0.047338
  20 C :   -0.187923
  21 H :    0.020357
  22 C :   -0.035156
  23 H :    0.045408
  24 H :    0.033905
  25 C :   -0.039163
  26 H :    0.016883
  27 H :    0.031813
  28 C :   -0.071731
  29 H :    0.022240
  30 H :    0.029691
  31 H :    0.023372
  32 H :    0.031740
  33 H :    0.029028

  Mayer bond orders larger than 0.100000
B(  0-S ,  1-C ) :   1.1351 B(  0-S ,  4-C ) :   1.1686 B(  1-C ,  2-C ) :   1.5853
B(  1-C ,  4-C ) :   0.1046 B(  1-C , 32-H ) :   0.9649 B(  2-C ,  3-C ) :   1.2968
B(  2-C ,  6-C ) :   1.0148 B(  3-C ,  4-C ) :   1.5112 B(  3-C ,  5-H ) :   0.9795
B(  4-C , 20-C ) :   1.0749 B(  6-C ,  7-H ) :   0.9361 B(  6-C ,  8-H ) :   0.9423
B(  6-C ,  9-C ) :   1.0629 B(  9-C , 10-H ) :   0.9559 B(  9-C , 11-H ) :   0.9565
B(  9-C , 12-C ) :   1.0729 B( 12-C , 13-H ) :   0.9740 B( 12-C , 14-H ) :   0.9685
B( 12-C , 15-H ) :   0.9728 B( 16-S , 17-C ) :   1.1452 B( 16-S , 20-C ) :   1.1313
B( 17-C , 18-C ) :   1.6157 B( 17-C , 20-C ) :   0.1062 B( 17-C , 33-H ) :   0.9681
B( 18-C , 19-C ) :   1.2231 B( 18-C , 21-H ) :   0.9959 B( 19-C , 20-C ) :   1.5799
B( 19-C , 22-C ) :   1.0351 B( 22-C , 23-H ) :   0.9413 B( 22-C , 24-H ) :   0.9232
B( 22-C , 25-C ) :   1.0743 B( 25-C , 26-H ) :   0.9518 B( 25-C , 27-H ) :   0.9562
B( 25-C , 28-C ) :   1.0648 B( 28-C , 29-H ) :   0.9744 B( 28-C , 30-H ) :   0.9760
B( 28-C , 31-H ) :   0.9765

Dispersion correction           -0.015185082
FINAL SINGLE POINT ENERGY     -1339.875225864594

DIPOLE MOMENT
-------------
                                X             Y             Z
Electronic contribution:      8.50485     -13.08006     -12.82581
Nuclear contribution   :     -8.82179      13.57531      13.07697
                        -----------------------------------------
Total Dipole Moment    :     -0.31694       0.49525       0.25115
                        -----------------------------------------
Magnitude (a.u.)       :      0.63938
Magnitude (Debye)      :      1.62516

Rotational constants in cm-1:     0.021983     0.008394     0.007170
Rotational constants in MHz :   659.044391   251.642754   214.953181

                             ****ORCA TERMINATED NORMALLY****
TOTAL RUN TIME: 0 days 0 hours 0 minutes 36 seconds 285 msec
