                         Program Version 4.2.1 -  RELEASE  -
|  1> ! wB97X-D3 SP def2-SVP
|  2> %pal
|  3> nprocs 16
|  4> end
|  5>
|  6> * xyz 0 1
|  7> S 	 -32.3545 	 66.535 	 104.562
|  8> C 	 -30.7381 	 65.9386 	 104.466
|  9> C 	 -29.8614 	 67.0096 	 104.336
| 10> C 	 -30.5522 	 68.2454 	 104.043
| 11> C 	 -31.9553 	 68.1852 	 104.137
| 12> H 	 -30.1592 	 69.2585 	 103.736
| 13> C 	 -28.3308 	 66.8636 	 104.357
| 14> H 	 -28.0899 	 66.2939 	 105.283
| 15> H 	 -27.8541 	 67.8335 	 104.554
| 16> C 	 -27.6982 	 66.1976 	 103.137
| 17> H 	 -28.213 	 65.2328 	 103.074
| 18> H 	 -28.0944 	 66.6253 	 102.207
| 19> C 	 -26.1831 	 66.0633 	 103.177
| 20> H 	 -25.8314 	 65.4217 	 102.29
| 21> H 	 -25.7247 	 66.968 	 102.951
| 22> H 	 -25.8034 	 65.5046 	 103.993
| 23> S 	 -34.5922 	 68.762 	 104.256
| 24> C 	 -35.2334 	 70.3116 	 104.043
| 25> C 	 -34.2592 	 71.1737 	 103.79
| 26> C 	 -32.9055 	 70.6513 	 103.823
| 27> C 	 -32.9729 	 69.2848 	 104
| 28> H 	 -34.606 	 72.1569 	 103.612
| 29> C 	 -31.6939 	 71.4448 	 103.43
| 30> H 	 -30.7369 	 71.3682 	 103.969
| 31> H 	 -32.0257 	 72.4883 	 103.691
| 32> C 	 -31.4042 	 71.5232 	 101.94
| 33> H 	 -31.1241 	 72.4743 	 101.671
| 34> H 	 -32.2809 	 71.4488 	 101.28
| 35> C 	 -30.3927 	 70.4738 	 101.501
| 36> H 	 -30.8641 	 69.4856 	 101.621
| 37> H 	 -29.406 	 70.5352 	 101.904
| 38> H 	 -30.3765 	 70.4566 	 100.398
| 39> H 	 -30.3654 	 64.9212 	 104.513
| 40> H 	 -36.3022 	 70.6144 	 104.045
| 41> *
| 42>
| 43>                          ****END OF INPUT****

CARTESIAN COORDINATES (ANGSTROEM)
---------------------------------
  S    -32.354500   66.535000  104.562000
  C    -30.738100   65.938600  104.466000
  C    -29.861400   67.009600  104.336000
  C    -30.552200   68.245400  104.043000
  C    -31.955300   68.185200  104.137000
  H    -30.159200   69.258500  103.736000
  C    -28.330800   66.863600  104.357000
  H    -28.089900   66.293900  105.283000
  H    -27.854100   67.833500  104.554000
  C    -27.698200   66.197600  103.137000
  H    -28.213000   65.232800  103.074000
  H    -28.094400   66.625300  102.207000
  C    -26.183100   66.063300  103.177000
  H    -25.831400   65.421700  102.290000
  H    -25.724700   66.968000  102.951000
  H    -25.803400   65.504600  103.993000
  S    -34.592200   68.762000  104.256000
  C    -35.233400   70.311600  104.043000
  C    -34.259200   71.173700  103.790000
  C    -32.905500   70.651300  103.823000
  C    -32.972900   69.284800  104.000000
  H    -34.606000   72.156900  103.612000
  C    -31.693900   71.444800  103.430000
  H    -30.736900   71.368200  103.969000
  H    -32.025700   72.488300  103.691000
  C    -31.404200   71.523200  101.940000
  H    -31.124100   72.474300  101.671000
  H    -32.280900   71.448800  101.280000
  C    -30.392700   70.473800  101.501000
  H    -30.864100   69.485600  101.621000
  H    -29.406000   70.535200  101.904000
  H    -30.376500   70.456600  100.398000
  H    -30.365400   64.921200  104.513000
  H    -36.302200   70.614400  104.045000

 Total Charge           Charge          ....    0
 Multiplicity           Mult            ....    1
 Number of Electrons    NEL             ....  134
 Basis Dimension        Dim             ....  322

ORBITAL ENERGIES
----------------

  NO   OCC          E(Eh)            E(eV)
   0   2.0000     -88.965885     -2420.8848
   1   2.0000     -88.960886     -2420.7488
   2   2.0000     -10.335064      -281.2314
   3   2.0000     -10.331370      -281.1309
   4   2.0000     -10.314053      -280.6596
   5   2.0000     -10.309674      -280.5405
   6   2.0000     -10.308148      -280.4990
   7   2.0000     -10.304671      -280.4044
   8   2.0000     -10.298730      -280.2427
   9   2.0000     -10.297213      -280.2014
  10   2.0000     -10.293526      -280.1011
  11   2.0000     -10.286817      -279.9185
  12   2.0000     -10.286358      -279.9060
  13   2.0000     -10.279026      -279.7065
  14   2.0000     -10.278400      -279.6895
  15   2.0000     -10.273955      -279.5685
  16   2.0000      -8.080513      -219.8819
  17   2.0000      -8.077769      -219.8073
  18   2.0000      -6.039187      -164.3346
  19   2.0000      -6.036275      -164.2554
  20   2.0000      -6.034884      -164.2175
  21   2.0000      -6.031959      -164.1380
  22   2.0000      -6.031251      -164.1187
  23   2.0000      -6.028423      -164.0417
  24   2.0000      -1.015795       -27.6412
  25   2.0000      -0.989271       -26.9194
  26   2.0000      -0.917262       -24.9600
  27   2.0000      -0.909200       -24.7406
  28   2.0000      -0.872132       -23.7319
  29   2.0000      -0.853609       -23.2279
  30   2.0000      -0.842549       -22.9269
  31   2.0000      -0.820302       -22.3215
  32   2.0000      -0.783571       -21.3221
  33   2.0000      -0.776712       -21.1354
  34   2.0000      -0.711234       -19.3537
  35   2.0000      -0.703991       -19.1566
  36   2.0000      -0.694847       -18.9078
  37   2.0000      -0.662759       -18.0346
  38   2.0000      -0.633508       -17.2386
  39   2.0000      -0.619511       -16.8578
  40   2.0000      -0.602048       -16.3825
  41   2.0000      -0.570947       -15.5363
  42   2.0000      -0.563183       -15.3250
  43   2.0000      -0.555635       -15.1196
  44   2.0000      -0.539494       -14.6804
  45   2.0000      -0.525851       -14.3091
  46   2.0000      -0.514021       -13.9872
  47   2.0000      -0.510818       -13.9001
  48   2.0000      -0.507137       -13.7999
  49   2.0000      -0.505064       -13.7435
  50   2.0000      -0.493608       -13.4318
  51   2.0000      -0.487629       -13.2690
  52   2.0000      -0.475598       -12.9417
  53   2.0000      -0.472335       -12.8529
  54   2.0000      -0.467820       -12.7300
  55   2.0000      -0.446353       -12.1459
  56   2.0000      -0.437996       -11.9185
  57   2.0000      -0.431676       -11.7465
  58   2.0000      -0.431095       -11.7307
  59   2.0000      -0.424032       -11.5385
  60   2.0000      -0.418248       -11.3811
  61   2.0000      -0.408684       -11.1209
  62   2.0000      -0.399973       -10.8838
  63   2.0000      -0.366006        -9.9595
  64   2.0000      -0.333524        -9.0756
  65   2.0000      -0.323086        -8.7916
  66   2.0000      -0.286333        -7.7915
  67   0.0000       0.024005         0.6532
  68   0.0000       0.096057         2.6139
  69   0.0000       0.105348         2.8667
  70   0.0000       0.122279         3.3274
  71   0.0000       0.133788         3.6406

MULLIKEN ATOMIC CHARGES
-----------------------
   0 S :    0.105668
   1 C :   -0.107190
   2 C :   -0.099264
   3 C :   -0.003775
   4 C :   -0.115483
   5 H :    0.003102
   6 C :    0.050625
   7 H :    0.030447
   8 H :    0.016404
   9 C :   -0.068464
  10 H :    0.007506
  11 H :    0.025282
  12 C :   -0.009015
  13 H :    0.028638
  14 H :    0.025713
  15 H :    0.032120
  16 S :    0.088796
  17 C :   -0.078477
  18 C :   -0.037432
  19 C :   -0.031613
  20 C :   -0.112857
  21 H :   -0.002860
  22 C :    0.005668
  23 H :    0.046291
  24 H :    0.021589
  25 C :   -0.003490
  26 H :   -0.000900
  27 H :    0.016925
  28 C :   -0.068201
  29 H :    0.044791
  30 H :    0.045315
  31 H :    0.022542
  32 H :    0.055164
  33 H :    0.066435
Sum of atomic charges:   -0.0000000

LOEWDIN ATOMIC CHARGES
----------------------
   0 S :    0.413125
   1 C :   -0.207635
   2 C :   -0.064320
   3 C :   -0.076575
   4 C :   -0.196674
   5 H :    0.035707
   6 C :   -0.037325
   7 H :    0.033361
   8 H :    0.026255
   9 C :   -0.047871
  10 H :    0.020850
  11 H :    0.027326
  12 C :   -0.061022
  13 H :    0.039144
  14 H :    0.018306
  15 H :    0.023119
  16 S :    0.428496
  17 C :   -0.205541
  18 C :   -0.072914
  19 C :   -0.060225
  20 C :   -0.191001
  21 H :    0.025339
  22 C :   -0.041861
  23 H :    0.034676
  24 H :    0.039542
  25 C :   -0.035575
  26 H :    0.010930
  27 H :    0.031721
  28 C :   -0.071833
  29 H :    0.034887
  30 H :    0.018451
  31 H :    0.029973
  32 H :    0.034776
  33 H :    0.044386

  Mayer bond orders larger than 0.100000
B(  0-S ,  1-C ) :   1.1485 B(  0-S ,  4-C ) :   1.1545 B(  1-C ,  2-C ) :   1.5835
B(  1-C ,  4-C ) :   0.1021 B(  1-C , 32-H ) :   0.9699 B(  2-C ,  3-C ) :   1.2595
B(  2-C ,  6-C ) :   1.0249 B(  3-C ,  4-C ) :   1.5678 B(  3-C ,  5-H ) :   0.9737
B(  4-C , 20-C ) :   1.0473 B(  6-C ,  7-H ) :   0.9393 B(  6-C ,  8-H ) :   0.9439
B(  6-C ,  9-C ) :   1.0609 B(  9-C , 10-H ) :   0.9507 B(  9-C , 11-H ) :   0.9530
B(  9-C , 12-C ) :   1.0840 B( 12-C , 13-H ) :   0.9686 B( 12-C , 14-H ) :   0.9748
B( 12-C , 15-H ) :   0.9742 B( 16-S , 17-C ) :   1.1447 B( 16-S , 20-C ) :   1.1552
B( 17-C , 18-C ) :   1.6587 B( 17-C , 33-H ) :   0.9599 B( 18-C , 19-C ) :   1.2089
B( 18-C , 21-H ) :   0.9942 B( 19-C , 20-C ) :   1.5889 B( 19-C , 22-C ) :   1.0575
B( 22-C , 23-H ) :   0.9356 B( 22-C , 24-H ) :   0.9237 B( 22-C , 25-C ) :   1.0677
B( 25-C , 26-H ) :   0.9522 B( 25-C , 27-H ) :   0.9458 B( 25-C , 28-C ) :   1.0972
B( 28-C , 29-H ) :   0.9634 B( 28-C , 30-H ) :   0.9712 B( 28-C , 31-H ) :   0.9638

Dispersion correction           -0.014544456
FINAL SINGLE POINT ENERGY     -1339.858562438741

DIPOLE MOMENT
-------------
                                X             Y             Z
Electronic contribution:    -28.03433      -5.05654      11.72915
Nuclear contribution   :     28.47968       5.49296     -12.06668
                        -----------------------------------------
Total Dipole Moment    :      0.44534       0.43642      -0.33753
                        -----------------------------------------
Magnitude (a.u.)       :      0.70903
Magnitude (Debye)      :      1.80220

Rotational constants in cm-1:     0.022191     0.008388     0.006375
Rotational constants in MHz :   665.255261   251.466600   191.105781

                             ****ORCA TERMINATED NORMALLY****
TOTAL RUN TIME: 0 days 0 hours 0 minutes 30 seconds 430 msec
