                         Program Version 4.2.1 -  RELEASE  -
|  1> ! wB97X-D3 SP def2-SVP
|  2> %pal
|  3> nprocs 16
|  4> end
|  5>
|  6> * xyz 0 1
|  7> S 	 -35.8445 	 38.368 	 94.894
|  8> C 	 -34.7926 	 37.1186 	 94.2733
|  9> C 	 -33.5627 	 37.0499 	 95.0043
| 10> C 	 -33.5292 	 37.9861 	 96.0903
| 11> C 	 -34.713 	 38.782 	 96.172
| 12> H 	 -32.6646 	 38.2783 	 96.6497
| 13> C 	 -32.3856 	 36.1656 	 94.7481
| 14> H 	 -31.5254 	 36.5998 	 95.2681
| 15> H 	 -32.1834 	 36.2017 	 93.6582
| 16> C 	 -32.6411 	 34.7455 	 95.2146
| 17> H 	 -32.6201 	 34.7907 	 96.3063
| 18> H 	 -33.6728 	 34.4086 	 95.0093
| 19> C 	 -31.7053 	 33.6854 	 94.6784
| 20> H 	 -30.713 	 33.9183 	 94.8825
| 21> H 	 -31.931 	 32.7325 	 95.1726
| 22> H 	 -31.6424 	 33.5562 	 93.5762
| 23> S 	 -34.261 	 41.5035 	 97.0846
| 24> C 	 -35.1134 	 41.9715 	 98.4997
| 25> C 	 -35.6693 	 40.887 	 99.1649
| 26> C 	 -35.6212 	 39.6583 	 98.4615
| 27> C 	 -34.9565 	 39.8123 	 97.2194
| 28> H 	 -36.224 	 40.9486 	 100.119
| 29> C 	 -36.2621 	 38.4584 	 98.9215
| 30> H 	 -35.6467 	 38.0362 	 99.6833
| 31> H 	 -36.2609 	 37.6647 	 98.1817
| 32> C 	 -37.7067 	 38.5771 	 99.3747
| 33> H 	 -38.2701 	 38.9142 	 98.4975
| 34> H 	 -37.7025 	 39.356 	 100.155
| 35> C 	 -38.3724 	 37.2921 	 99.923
| 36> H 	 -37.9493 	 36.3849 	 99.5471
| 37> H 	 -39.3899 	 37.3536 	 99.6782
| 38> H 	 -38.1109 	 37.2426 	 100.981
| 39> H 	 -35.0327 	 36.6308 	 93.3728
| 40> H 	 -35.0392 	 42.9288 	 98.988
| 41> *
| 42>
| 43>                          ****END OF INPUT****

CARTESIAN COORDINATES (ANGSTROEM)
---------------------------------
  S    -35.844500   38.368000   94.894000
  C    -34.792600   37.118600   94.273300
  C    -33.562700   37.049900   95.004300
  C    -33.529200   37.986100   96.090300
  C    -34.713000   38.782000   96.172000
  H    -32.664600   38.278300   96.649700
  C    -32.385600   36.165600   94.748100
  H    -31.525400   36.599800   95.268100
  H    -32.183400   36.201700   93.658200
  C    -32.641100   34.745500   95.214600
  H    -32.620100   34.790700   96.306300
  H    -33.672800   34.408600   95.009300
  C    -31.705300   33.685400   94.678400
  H    -30.713000   33.918300   94.882500
  H    -31.931000   32.732500   95.172600
  H    -31.642400   33.556200   93.576200
  S    -34.261000   41.503500   97.084600
  C    -35.113400   41.971500   98.499700
  C    -35.669300   40.887000   99.164900
  C    -35.621200   39.658300   98.461500
  C    -34.956500   39.812300   97.219400
  H    -36.224000   40.948600  100.119000
  C    -36.262100   38.458400   98.921500
  H    -35.646700   38.036200   99.683300
  H    -36.260900   37.664700   98.181700
  C    -37.706700   38.577100   99.374700
  H    -38.270100   38.914200   98.497500
  H    -37.702500   39.356000  100.155000
  C    -38.372400   37.292100   99.923000
  H    -37.949300   36.384900   99.547100
  H    -39.389900   37.353600   99.678200
  H    -38.110900   37.242600  100.981000
  H    -35.032700   36.630800   93.372800
  H    -35.039200   42.928800   98.988000

 Total Charge           Charge          ....    0
 Multiplicity           Mult            ....    1
 Number of Electrons    NEL             ....  134
 Basis Dimension        Dim             ....  322

ORBITAL ENERGIES
----------------

  NO   OCC          E(Eh)            E(eV)
   0   2.0000     -88.970919     -2421.0218
   1   2.0000     -88.966449     -2420.9002
   2   2.0000     -10.332426      -281.1596
   3   2.0000     -10.330658      -281.1115
   4   2.0000     -10.316237      -280.7191
   5   2.0000     -10.316031      -280.7135
   6   2.0000     -10.305837      -280.4361
   7   2.0000     -10.299672      -280.2683
   8   2.0000     -10.296153      -280.1726
   9   2.0000     -10.291504      -280.0461
  10   2.0000     -10.291485      -280.0455
  11   2.0000     -10.285099      -279.8718
  12   2.0000     -10.284762      -279.8626
  13   2.0000     -10.277720      -279.6710
  14   2.0000     -10.273861      -279.5660
  15   2.0000     -10.272544      -279.5301
  16   2.0000      -8.084924      -220.0020
  17   2.0000      -8.080304      -219.8763
  18   2.0000      -6.043291      -164.4463
  19   2.0000      -6.039321      -164.3383
  20   2.0000      -6.038761      -164.3230
  21   2.0000      -6.036106      -164.2508
  22   2.0000      -6.035017      -164.2211
  23   2.0000      -6.031102      -164.1146
  24   2.0000      -0.995292       -27.0833
  25   2.0000      -0.978005       -26.6129
  26   2.0000      -0.916337       -24.9348
  27   2.0000      -0.914591       -24.8873
  28   2.0000      -0.860929       -23.4271
  29   2.0000      -0.852554       -23.1992
  30   2.0000      -0.849873       -23.1262
  31   2.0000      -0.806754       -21.9529
  32   2.0000      -0.785919       -21.3860
  33   2.0000      -0.769458       -20.9380
  34   2.0000      -0.702957       -19.1284
  35   2.0000      -0.702216       -19.1083
  36   2.0000      -0.695568       -18.9274
  37   2.0000      -0.652064       -17.7436
  38   2.0000      -0.645452       -17.5636
  39   2.0000      -0.612132       -16.6569
  40   2.0000      -0.600667       -16.3450
  41   2.0000      -0.569712       -15.5027
  42   2.0000      -0.569092       -15.4858
  43   2.0000      -0.554078       -15.0772
  44   2.0000      -0.533164       -14.5081
  45   2.0000      -0.529399       -14.4057
  46   2.0000      -0.514961       -14.0128
  47   2.0000      -0.511048       -13.9063
  48   2.0000      -0.505404       -13.7527
  49   2.0000      -0.502010       -13.6604
  50   2.0000      -0.489847       -13.3294
  51   2.0000      -0.475030       -12.9262
  52   2.0000      -0.470469       -12.8021
  53   2.0000      -0.465323       -12.6621
  54   2.0000      -0.460883       -12.5413
  55   2.0000      -0.448302       -12.1989
  56   2.0000      -0.441826       -12.0227
  57   2.0000      -0.437271       -11.8987
  58   2.0000      -0.434676       -11.8281
  59   2.0000      -0.429668       -11.6919
  60   2.0000      -0.423722       -11.5301
  61   2.0000      -0.412594       -11.2273
  62   2.0000      -0.408161       -11.1066
  63   2.0000      -0.333996        -9.0885
  64   2.0000      -0.328317        -8.9340
  65   2.0000      -0.313802        -8.5390
  66   2.0000      -0.303215        -8.2509
  67   0.0000       0.039552         1.0763
  68   0.0000       0.045468         1.2372
  69   0.0000       0.108557         2.9540
  70   0.0000       0.118558         3.2261
  71   0.0000       0.132557         3.6071

MULLIKEN ATOMIC CHARGES
-----------------------
   0 S :    0.128326
   1 C :   -0.117513
   2 C :   -0.100842
   3 C :    0.047619
   4 C :   -0.199899
   5 H :    0.016802
   6 C :    0.077656
   7 H :    0.023917
   8 H :    0.030329
   9 C :   -0.079288
  10 H :    0.022571
  11 H :    0.029975
  12 C :   -0.013426
  13 H :    0.004223
  14 H :    0.036368
  15 H :    0.031200
  16 S :    0.108840
  17 C :   -0.076233
  18 C :   -0.056710
  19 C :    0.005972
  20 C :   -0.195407
  21 H :    0.025581
  22 C :    0.100341
  23 H :    0.018752
  24 H :    0.014691
  25 C :   -0.133763
  26 H :    0.036436
  27 H :    0.027144
  28 C :    0.009036
  29 H :    0.017246
  30 H :    0.036068
  31 H :    0.028627
  32 H :    0.038096
  33 H :    0.057263
Sum of atomic charges:   -0.0000000

LOEWDIN ATOMIC CHARGES
----------------------
   0 S :    0.423267
   1 C :   -0.199029
   2 C :   -0.055041
   3 C :   -0.057827
   4 C :   -0.204190
   5 H :    0.030338
   6 C :   -0.034641
   7 H :    0.031743
   8 H :    0.032991
   9 C :   -0.043308
  10 H :    0.027085
  11 H :    0.025655
  12 C :   -0.066202
  13 H :    0.013388
  14 H :    0.031311
  15 H :    0.029113
  16 S :    0.388769
  17 C :   -0.190986
  18 C :   -0.078411
  19 C :   -0.044406
  20 C :   -0.189504
  21 H :    0.032847
  22 C :   -0.041302
  23 H :    0.032397
  24 H :    0.029801
  25 C :   -0.035340
  26 H :    0.026485
  27 H :    0.019116
  28 C :   -0.055975
  29 H :    0.021772
  30 H :    0.024330
  31 H :    0.029466
  32 H :    0.016352
  33 H :    0.029935

  Mayer bond orders larger than 0.100000
B(  0-S ,  1-C ) :   1.1653 B(  0-S ,  4-C ) :   1.1744 B(  1-C ,  2-C ) :   1.5414
B(  1-C ,  4-C ) :   0.1121 B(  1-C , 32-H ) :   0.9783 B(  2-C ,  3-C ) :   1.2889
B(  2-C ,  6-C ) :   1.0322 B(  3-C ,  4-C ) :   1.5390 B(  3-C ,  5-H ) :   0.9881
B(  4-C , 20-C ) :   1.0306 B(  6-C ,  7-H ) :   0.9366 B(  6-C ,  8-H ) :   0.9385
B(  6-C ,  9-C ) :   1.0571 B(  9-C , 10-H ) :   0.9483 B(  9-C , 11-H ) :   0.9629
B(  9-C , 12-C ) :   1.0846 B( 12-C , 13-H ) :   0.9688 B( 12-C , 14-H ) :   0.9720
B( 12-C , 15-H ) :   0.9737 B( 16-S , 17-C ) :   1.1678 B( 16-S , 20-C ) :   1.1247
B( 17-C , 18-C ) :   1.5932 B( 17-C , 20-C ) :   0.1005 B( 17-C , 33-H ) :   0.9636
B( 18-C , 19-C ) :   1.2603 B( 18-C , 21-H ) :   0.9789 B( 19-C , 20-C ) :   1.5681
B( 19-C , 22-C ) :   1.0720 B( 22-C , 23-H ) :   0.9095 B( 22-C , 24-H ) :   0.9165
B( 22-C , 25-C ) :   1.0598 B( 25-C , 26-H ) :   0.9617 B( 25-C , 27-H ) :   0.9572
B( 25-C , 28-C ) :   1.0759 B( 28-C , 29-H ) :   0.9750 B( 28-C , 30-H ) :   0.9772
B( 28-C , 31-H ) :   0.9740

Dispersion correction           -0.013745220
FINAL SINGLE POINT ENERGY     -1339.874212303528

DIPOLE MOMENT
-------------
                                X             Y             Z
Electronic contribution:     -0.67137      23.87276      -7.58524
Nuclear contribution   :      0.81172     -24.32114       7.86274
                        -----------------------------------------
Total Dipole Moment    :      0.14035      -0.44838       0.27750
                        -----------------------------------------
Magnitude (a.u.)       :      0.54566
Magnitude (Debye)      :      1.38696

Rotational constants in cm-1:     0.018435     0.007491     0.006310
Rotational constants in MHz :   552.672193   224.579273   189.166190

                             ****ORCA TERMINATED NORMALLY****
TOTAL RUN TIME: 0 days 0 hours 0 minutes 28 seconds 608 msec
