                         Program Version 4.2.1 -  RELEASE  -
|  1> ! wB97X-D3 SP def2-SVP
|  2> %pal
|  3> nprocs 16
|  4> end
|  5>
|  6> * xyz 0 1
|  7> S 	 -5.10491 	 75.0215 	 58.9207
|  8> C 	 -5.3458 	 73.4378 	 59.4345
|  9> C 	 -5.78183 	 72.7518 	 58.3405
| 10> C 	 -5.97253 	 73.4746 	 57.1042
| 11> C 	 -5.75069 	 74.8457 	 57.3088
| 12> H 	 -6.17799 	 72.955 	 56.2475
| 13> C 	 -5.85808 	 71.2154 	 58.3374
| 14> H 	 -4.86945 	 70.8048 	 58.526
| 15> H 	 -6.04915 	 71.0177 	 57.2466
| 16> C 	 -7.02206 	 70.6536 	 59.0932
| 17> H 	 -7.2207 	 71.1956 	 60.0054
| 18> H 	 -7.85369 	 70.7809 	 58.4872
| 19> C 	 -6.85411 	 69.1563 	 59.4183
| 20> H 	 -7.51466 	 68.7653 	 60.1961
| 21> H 	 -6.9442 	 68.5477 	 58.5059
| 22> H 	 -5.89249 	 69.145 	 59.8535
| 23> S 	 -7.09636 	 77.1165 	 56.4304
| 24> C 	 -6.52433 	 78.0067 	 55.0863
| 25> C 	 -5.3995 	 77.3997 	 54.5739
| 26> C 	 -4.88323 	 76.2613 	 55.3249
| 27> C 	 -5.72435 	 75.938 	 56.3392
| 28> H 	 -4.87796 	 77.8394 	 53.6942
| 29> C 	 -3.68845 	 75.4228 	 54.9766
| 30> H 	 -3.26356 	 75.0025 	 55.9144
| 31> H 	 -2.86581 	 75.9873 	 54.4999
| 32> C 	 -3.95682 	 74.3767 	 53.8927
| 33> H 	 -4.71335 	 73.6673 	 54.2387
| 34> H 	 -2.99499 	 73.8878 	 53.6699
| 35> C 	 -4.36088 	 75.1024 	 52.5787
| 36> H 	 -3.43894 	 75.5783 	 52.129
| 37> H 	 -5.15648 	 75.796 	 52.6452
| 38> H 	 -4.67053 	 74.3069 	 51.9397
| 39> H 	 -5.05342 	 72.9324 	 60.3858
| 40> H 	 -6.88649 	 79.058 	 54.8944
| 41> *
| 42>
| 43>                          ****END OF INPUT****

CARTESIAN COORDINATES (ANGSTROEM)
---------------------------------
  S     -5.104910   75.021500   58.920700
  C     -5.345800   73.437800   59.434500
  C     -5.781830   72.751800   58.340500
  C     -5.972530   73.474600   57.104200
  C     -5.750690   74.845700   57.308800
  H     -6.177990   72.955000   56.247500
  C     -5.858080   71.215400   58.337400
  H     -4.869450   70.804800   58.526000
  H     -6.049150   71.017700   57.246600
  C     -7.022060   70.653600   59.093200
  H     -7.220700   71.195600   60.005400
  H     -7.853690   70.780900   58.487200
  C     -6.854110   69.156300   59.418300
  H     -7.514660   68.765300   60.196100
  H     -6.944200   68.547700   58.505900
  H     -5.892490   69.145000   59.853500
  S     -7.096360   77.116500   56.430400
  C     -6.524330   78.006700   55.086300
  C     -5.399500   77.399700   54.573900
  C     -4.883230   76.261300   55.324900
  C     -5.724350   75.938000   56.339200
  H     -4.877960   77.839400   53.694200
  C     -3.688450   75.422800   54.976600
  H     -3.263560   75.002500   55.914400
  H     -2.865810   75.987300   54.499900
  C     -3.956820   74.376700   53.892700
  H     -4.713350   73.667300   54.238700
  H     -2.994990   73.887800   53.669900
  C     -4.360880   75.102400   52.578700
  H     -3.438940   75.578300   52.129000
  H     -5.156480   75.796000   52.645200
  H     -4.670530   74.306900   51.939700
  H     -5.053420   72.932400   60.385800
  H     -6.886490   79.058000   54.894400

 Total Charge           Charge          ....    0
 Multiplicity           Mult            ....    1
 Number of Electrons    NEL             ....  134
 Basis Dimension        Dim             ....  322

ORBITAL ENERGIES
----------------

  NO   OCC          E(Eh)            E(eV)
   0   2.0000     -88.965220     -2420.8667
   1   2.0000     -88.958815     -2420.6924
   2   2.0000     -10.333452      -281.1875
   3   2.0000     -10.327753      -281.0325
   4   2.0000     -10.321094      -280.8512
   5   2.0000     -10.312792      -280.6253
   6   2.0000     -10.306125      -280.4439
   7   2.0000     -10.298969      -280.2492
   8   2.0000     -10.295329      -280.1501
   9   2.0000     -10.294859      -280.1374
  10   2.0000     -10.292248      -280.0663
  11   2.0000     -10.289569      -279.9934
  12   2.0000     -10.288632      -279.9679
  13   2.0000     -10.275256      -279.6039
  14   2.0000     -10.275049      -279.5983
  15   2.0000     -10.274333      -279.5788
  16   2.0000      -8.080946      -219.8937
  17   2.0000      -8.073990      -219.7044
  18   2.0000      -6.039420      -164.3410
  19   2.0000      -6.034982      -164.2202
  20   2.0000      -6.032515      -164.1531
  21   2.0000      -6.031966      -164.1381
  22   2.0000      -6.028333      -164.0393
  23   2.0000      -6.024785      -163.9427
  24   2.0000      -1.011119       -27.5139
  25   2.0000      -0.989422       -26.9235
  26   2.0000      -0.914901       -24.8957
  27   2.0000      -0.913297       -24.8521
  28   2.0000      -0.873571       -23.7711
  29   2.0000      -0.849925       -23.1276
  30   2.0000      -0.843966       -22.9655
  31   2.0000      -0.813501       -22.1365
  32   2.0000      -0.783636       -21.3238
  33   2.0000      -0.770044       -20.9540
  34   2.0000      -0.706674       -19.2296
  35   2.0000      -0.701446       -19.0873
  36   2.0000      -0.689980       -18.7753
  37   2.0000      -0.660639       -17.9769
  38   2.0000      -0.646252       -17.5854
  39   2.0000      -0.618629       -16.8338
  40   2.0000      -0.596365       -16.2279
  41   2.0000      -0.575702       -15.6656
  42   2.0000      -0.564562       -15.3625
  43   2.0000      -0.557491       -15.1701
  44   2.0000      -0.546835       -14.8801
  45   2.0000      -0.524510       -14.2726
  46   2.0000      -0.518406       -14.1065
  47   2.0000      -0.514104       -13.9895
  48   2.0000      -0.509915       -13.8755
  49   2.0000      -0.501939       -13.6584
  50   2.0000      -0.491651       -13.3785
  51   2.0000      -0.480368       -13.0715
  52   2.0000      -0.476346       -12.9620
  53   2.0000      -0.466158       -12.6848
  54   2.0000      -0.461514       -12.5584
  55   2.0000      -0.441829       -12.0228
  56   2.0000      -0.437801       -11.9132
  57   2.0000      -0.433414       -11.7938
  58   2.0000      -0.431225       -11.7342
  59   2.0000      -0.423145       -11.5144
  60   2.0000      -0.421931       -11.4813
  61   2.0000      -0.416086       -11.3223
  62   2.0000      -0.402278       -10.9465
  63   2.0000      -0.335168        -9.1204
  64   2.0000      -0.330198        -8.9851
  65   2.0000      -0.321817        -8.7571
  66   2.0000      -0.313879        -8.5411
  67   0.0000       0.038646         1.0516
  68   0.0000       0.057298         1.5591
  69   0.0000       0.115161         3.1337
  70   0.0000       0.120699         3.2844
  71   0.0000       0.126249         3.4354

MULLIKEN ATOMIC CHARGES
-----------------------
   0 S :    0.124537
   1 C :   -0.107138
   2 C :   -0.156954
   3 C :    0.095914
   4 C :   -0.141418
   5 H :   -0.019877
   6 C :    0.030136
   7 H :    0.035421
   8 H :    0.010491
   9 C :   -0.033389
  10 H :    0.023225
  11 H :    0.009502
  12 C :   -0.032645
  13 H :    0.033365
  14 H :    0.038773
  15 H :    0.014201
  16 S :    0.096324
  17 C :   -0.106208
  18 C :   -0.066624
  19 C :    0.004370
  20 C :   -0.204656
  21 H :    0.034874
  22 C :    0.058841
  23 H :    0.040124
  24 H :    0.015473
  25 C :   -0.063477
  26 H :    0.030110
  27 H :    0.036947
  28 C :   -0.065497
  29 H :    0.035568
  30 H :    0.041929
  31 H :    0.026974
  32 H :    0.070519
  33 H :    0.090266
Sum of atomic charges:    0.0000000

LOEWDIN ATOMIC CHARGES
----------------------
   0 S :    0.449341
   1 C :   -0.226553
   2 C :   -0.072736
   3 C :   -0.046678
   4 C :   -0.203726
   5 H :    0.014528
   6 C :   -0.034480
   7 H :    0.025438
   8 H :    0.031049
   9 C :   -0.037176
  10 H :    0.020582
  11 H :    0.016638
  12 C :   -0.060748
  13 H :    0.026736
  14 H :    0.027861
  15 H :    0.017590
  16 S :    0.391486
  17 C :   -0.204433
  18 C :   -0.084338
  19 C :   -0.049162
  20 C :   -0.184955
  21 H :    0.034080
  22 C :   -0.038541
  23 H :    0.034520
  24 H :    0.031492
  25 C :   -0.031666
  26 H :    0.018806
  27 H :    0.028984
  28 C :   -0.063102
  29 H :    0.031242
  30 H :    0.018296
  31 H :    0.024075
  32 H :    0.048033
  33 H :    0.047516

  Mayer bond orders larger than 0.100000
B(  0-S ,  1-C ) :   1.1589 B(  0-S ,  4-C ) :   1.1917 B(  1-C ,  2-C ) :   1.5713
B(  1-C , 32-H ) :   0.9661 B(  2-C ,  3-C ) :   1.3006 B(  2-C ,  6-C ) :   1.0099
B(  3-C ,  4-C ) :   1.5003 B(  3-C ,  5-H ) :   1.0073 B(  4-C , 20-C ) :   1.0066
B(  6-C ,  7-H ) :   0.9522 B(  6-C ,  8-H ) :   0.9434 B(  6-C ,  9-C ) :   1.0531
B(  9-C , 10-H ) :   0.9647 B(  9-C , 11-H ) :   0.9507 B(  9-C , 12-C ) :   1.0753
B( 12-C , 13-H ) :   0.9748 B( 12-C , 14-H ) :   0.9759 B( 12-C , 15-H ) :   0.9790
B( 16-S , 17-C ) :   1.1617 B( 16-S , 20-C ) :   1.1312 B( 17-C , 18-C ) :   1.6135
B( 17-C , 33-H ) :   0.9578 B( 18-C , 19-C ) :   1.2088 B( 18-C , 21-H ) :   0.9764
B( 19-C , 20-C ) :   1.6343 B( 19-C , 22-C ) :   1.0644 B( 22-C , 23-H ) :   0.9260
B( 22-C , 24-H ) :   0.9307 B( 22-C , 25-C ) :   1.0708 B( 25-C , 26-H ) :   0.9549
B( 25-C , 27-H ) :   0.9552 B( 25-C , 28-C ) :   1.0732 B( 28-C , 29-H ) :   0.9743
B( 28-C , 30-H ) :   0.9727 B( 28-C , 31-H ) :   0.9704

Dispersion correction           -0.014506035
FINAL SINGLE POINT ENERGY     -1339.864116602654

DIPOLE MOMENT
-------------
                                X             Y             Z
Electronic contribution:     -4.58978      23.06497       8.89410
Nuclear contribution   :      4.94697     -23.50772      -9.19951
                        -----------------------------------------
Total Dipole Moment    :      0.35720      -0.44276      -0.30541
                        -----------------------------------------
Magnitude (a.u.)       :      0.64568
Magnitude (Debye)      :      1.64118

Rotational constants in cm-1:     0.022300     0.007492     0.006444
Rotational constants in MHz :   668.551667   224.598937   193.192686

                             ****ORCA TERMINATED NORMALLY****
TOTAL RUN TIME: 0 days 0 hours 0 minutes 33 seconds 991 msec
