                         Program Version 4.2.1 -  RELEASE  -
|  1> ! wB97X-D3 SP def2-SVP
|  2> %pal
|  3> nprocs 16
|  4> end
|  5>
|  6> * xyz 0 1
|  7> S 	 -10.1309 	 48.0302 	 41.4135
|  8> C 	 -11.1639 	 49.485 	 41.3519
|  9> C 	 -10.8518 	 50.1363 	 40.2121
| 10> C 	 -9.52321 	 49.879 	 39.7458
| 11> C 	 -8.95898 	 48.7461 	 40.2852
| 12> H 	 -9.04912 	 50.3811 	 38.8897
| 13> C 	 -11.7355 	 51.2236 	 39.7646
| 14> H 	 -11.1894 	 52.0769 	 40.1226
| 15> H 	 -12.6471 	 51.1063 	 40.325
| 16> C 	 -12.0332 	 51.3522 	 38.241
| 17> H 	 -12.9538 	 51.9242 	 38.0236
| 18> H 	 -11.202 	 51.8567 	 37.7763
| 19> C 	 -12.4363 	 50.0692 	 37.406
| 20> H 	 -12.6488 	 50.3925 	 36.3626
| 21> H 	 -11.6808 	 49.2408 	 37.4357
| 22> H 	 -13.4233 	 49.7129 	 37.6352
| 23> S 	 -6.72087 	 47.3055 	 41.1136
| 24> C 	 -5.44266 	 47.0165 	 39.963
| 25> C 	 -5.89429 	 47.4099 	 38.7242
| 26> C 	 -7.17536 	 47.9425 	 38.6312
| 27> C 	 -7.73039 	 48.1199 	 39.9006
| 28> H 	 -5.29139 	 47.1681 	 37.8474
| 29> C 	 -7.74263 	 48.4008 	 37.241
| 30> H 	 -6.9162 	 48.6084 	 36.6207
| 31> H 	 -8.11497 	 49.4495 	 37.2626
| 32> C 	 -8.66774 	 47.4547 	 36.604
| 33> H 	 -9.53652 	 47.031 	 37.2069
| 34> H 	 -8.13887 	 46.5532 	 36.1948
| 35> C 	 -9.44085 	 48.0588 	 35.3601
| 36> H 	 -10.0835 	 48.9494 	 35.5326
| 37> H 	 -10.0618 	 47.2549 	 34.9379
| 38> H 	 -8.68598 	 48.2945 	 34.5982
| 39> H 	 -12.1504 	 49.4403 	 41.8144
| 40> H 	 -4.46445 	 46.5131 	 40.2198
| 41> *
| 42>
| 43>                          ****END OF INPUT****

CARTESIAN COORDINATES (ANGSTROEM)
---------------------------------
  S    -10.130900   48.030200   41.413500
  C    -11.163900   49.485000   41.351900
  C    -10.851800   50.136300   40.212100
  C     -9.523210   49.879000   39.745800
  C     -8.958980   48.746100   40.285200
  H     -9.049120   50.381100   38.889700
  C    -11.735500   51.223600   39.764600
  H    -11.189400   52.076900   40.122600
  H    -12.647100   51.106300   40.325000
  C    -12.033200   51.352200   38.241000
  H    -12.953800   51.924200   38.023600
  H    -11.202000   51.856700   37.776300
  C    -12.436300   50.069200   37.406000
  H    -12.648800   50.392500   36.362600
  H    -11.680800   49.240800   37.435700
  H    -13.423300   49.712900   37.635200
  S     -6.720870   47.305500   41.113600
  C     -5.442660   47.016500   39.963000
  C     -5.894290   47.409900   38.724200
  C     -7.175360   47.942500   38.631200
  C     -7.730390   48.119900   39.900600
  H     -5.291390   47.168100   37.847400
  C     -7.742630   48.400800   37.241000
  H     -6.916200   48.608400   36.620700
  H     -8.114970   49.449500   37.262600
  C     -8.667740   47.454700   36.604000
  H     -9.536520   47.031000   37.206900
  H     -8.138870   46.553200   36.194800
  C     -9.440850   48.058800   35.360100
  H    -10.083500   48.949400   35.532600
  H    -10.061800   47.254900   34.937900
  H     -8.685980   48.294500   34.598200
  H    -12.150400   49.440300   41.814400
  H     -4.464450   46.513100   40.219800

 Total Charge           Charge          ....    0
 Multiplicity           Mult            ....    1
 Number of Electrons    NEL             ....  134
 Basis Dimension        Dim             ....  322

ORBITAL ENERGIES
----------------

  NO   OCC          E(Eh)            E(eV)
   0   2.0000     -88.966947     -2420.9137
   1   2.0000     -88.956736     -2420.6358
   2   2.0000     -10.330798      -281.1153
   3   2.0000     -10.330141      -281.0974
   4   2.0000     -10.323726      -280.9229
   5   2.0000     -10.307844      -280.4907
   6   2.0000     -10.306738      -280.4606
   7   2.0000     -10.296441      -280.1804
   8   2.0000     -10.296329      -280.1773
   9   2.0000     -10.294798      -280.1357
  10   2.0000     -10.294493      -280.1274
  11   2.0000     -10.293253      -280.0937
  12   2.0000     -10.291402      -280.0433
  13   2.0000     -10.287593      -279.9396
  14   2.0000     -10.285760      -279.8898
  15   2.0000     -10.283586      -279.8306
  16   2.0000      -8.081384      -219.9056
  17   2.0000      -8.071090      -219.6255
  18   2.0000      -6.039847      -164.3526
  19   2.0000      -6.035824      -164.2431
  20   2.0000      -6.032296      -164.1471
  21   2.0000      -6.029747      -164.0778
  22   2.0000      -6.025948      -163.9744
  23   2.0000      -6.021400      -163.8506
  24   2.0000      -1.007871       -27.4256
  25   2.0000      -0.987062       -26.8593
  26   2.0000      -0.911309       -24.7980
  27   2.0000      -0.910772       -24.7834
  28   2.0000      -0.870783       -23.6952
  29   2.0000      -0.850186       -23.1347
  30   2.0000      -0.839499       -22.8439
  31   2.0000      -0.816648       -22.2221
  32   2.0000      -0.785969       -21.3873
  33   2.0000      -0.774210       -21.0673
  34   2.0000      -0.713080       -19.4039
  35   2.0000      -0.696326       -18.9480
  36   2.0000      -0.691809       -18.8251
  37   2.0000      -0.658940       -17.9307
  38   2.0000      -0.635686       -17.2979
  39   2.0000      -0.621162       -16.9027
  40   2.0000      -0.599989       -16.3265
  41   2.0000      -0.560929       -15.2637
  42   2.0000      -0.558116       -15.1871
  43   2.0000      -0.556596       -15.1458
  44   2.0000      -0.543831       -14.7984
  45   2.0000      -0.533163       -14.5081
  46   2.0000      -0.515742       -14.0341
  47   2.0000      -0.512589       -13.9482
  48   2.0000      -0.504839       -13.7374
  49   2.0000      -0.501492       -13.6463
  50   2.0000      -0.490982       -13.3603
  51   2.0000      -0.481970       -13.1151
  52   2.0000      -0.470135       -12.7930
  53   2.0000      -0.468690       -12.7537
  54   2.0000      -0.460582       -12.5331
  55   2.0000      -0.447671       -12.1817
  56   2.0000      -0.444727       -12.1016
  57   2.0000      -0.436558       -11.8793
  58   2.0000      -0.430154       -11.7051
  59   2.0000      -0.420613       -11.4455
  60   2.0000      -0.415354       -11.3023
  61   2.0000      -0.409061       -11.1311
  62   2.0000      -0.404967       -11.0197
  63   2.0000      -0.351488        -9.5645
  64   2.0000      -0.336954        -9.1690
  65   2.0000      -0.320590        -8.7237
  66   2.0000      -0.289660        -7.8821
  67   0.0000       0.017471         0.4754
  68   0.0000       0.074426         2.0252
  69   0.0000       0.099244         2.7006
  70   0.0000       0.120534         3.2799
  71   0.0000       0.126290         3.4365

MULLIKEN ATOMIC CHARGES
-----------------------
   0 S :    0.076052
   1 C :   -0.131196
   2 C :   -0.118751
   3 C :    0.013583
   4 C :   -0.097556
   5 H :    0.011443
   6 C :    0.106966
   7 H :    0.044074
   8 H :    0.008720
   9 C :   -0.091704
  10 H :    0.037281
  11 H :    0.030923
  12 C :   -0.080669
  13 H :    0.030929
  14 H :    0.058180
  15 H :    0.023809
  16 S :    0.112780
  17 C :   -0.113782
  18 C :   -0.041500
  19 C :   -0.002389
  20 C :   -0.184712
  21 H :    0.018828
  22 C :    0.105385
  23 H :    0.001355
  24 H :    0.017837
  25 C :   -0.102282
  26 H :    0.053990
  27 H :    0.036223
  28 C :   -0.084375
  29 H :    0.046496
  30 H :    0.037640
  31 H :    0.026209
  32 H :    0.064250
  33 H :    0.085964
Sum of atomic charges:    0.0000000

LOEWDIN ATOMIC CHARGES
----------------------
   0 S :    0.361337
   1 C :   -0.191782
   2 C :   -0.061207
   3 C :   -0.071254
   4 C :   -0.170482
   5 H :    0.030878
   6 C :   -0.030506
   7 H :    0.040709
   8 H :    0.028195
   9 C :   -0.042714
  10 H :    0.033509
  11 H :    0.020004
  12 C :   -0.073729
  13 H :    0.031234
  14 H :    0.026755
  15 H :    0.021273
  16 S :    0.407958
  17 C :   -0.195764
  18 C :   -0.080468
  19 C :   -0.048809
  20 C :   -0.191247
  21 H :    0.031323
  22 C :   -0.032283
  23 H :    0.027170
  24 H :    0.032685
  25 C :   -0.048563
  26 H :    0.034829
  27 H :    0.030939
  28 C :   -0.072268
  29 H :    0.025808
  30 H :    0.028406
  31 H :    0.020833
  32 H :    0.029838
  33 H :    0.047393

  Mayer bond orders larger than 0.100000
B(  0-S ,  1-C ) :   1.1037 B(  0-S ,  4-C ) :   1.1428 B(  1-C ,  2-C ) :   1.6324
B(  1-C , 32-H ) :   0.9613 B(  2-C ,  3-C ) :   1.1928 B(  2-C ,  6-C ) :   1.0397
B(  3-C ,  4-C ) :   1.5887 B(  3-C ,  5-H ) :   0.9915 B(  4-C , 20-C ) :   1.0962
B(  6-C ,  7-H ) :   0.9400 B(  6-C ,  8-H ) :   0.9348 B(  6-C ,  9-C ) :   1.0597
B(  9-C , 10-H ) :   0.9616 B(  9-C , 11-H ) :   0.9579 B(  9-C , 12-C ) :   1.0726
B( 12-C , 13-H ) :   0.9721 B( 12-C , 14-H ) :   0.9692 B( 12-C , 15-H ) :   0.9743
B( 16-S , 17-C ) :   1.1606 B( 16-S , 20-C ) :   1.1497 B( 17-C , 18-C ) :   1.5695
B( 17-C , 20-C ) :   0.1120 B( 17-C , 33-H ) :   0.9628 B( 18-C , 19-C ) :   1.2956
B( 18-C , 21-H ) :   0.9817 B( 19-C , 20-C ) :   1.5407 B( 19-C , 22-C ) :   1.0161
B( 22-C , 23-H ) :   0.9213 B( 22-C , 24-H ) :   0.9413 B( 22-C , 25-C ) :   1.0614
B( 25-C , 26-H ) :   0.9624 B( 25-C , 27-H ) :   0.9496 B( 25-C , 28-C ) :   1.0737
B( 28-C , 29-H ) :   0.9738 B( 28-C , 30-H ) :   0.9766 B( 28-C , 31-H ) :   0.9743

Dispersion correction           -0.015401613
FINAL SINGLE POINT ENERGY     -1339.856928328383

DIPOLE MOMENT
-------------
                                X             Y             Z
Electronic contribution:     14.24266      -9.58845      27.15038
Nuclear contribution   :    -14.38408       9.82859     -27.99999
                        -----------------------------------------
Total Dipole Moment    :     -0.14142       0.24014      -0.84961
                        -----------------------------------------
Magnitude (a.u.)       :      0.89415
Magnitude (Debye)      :      2.27275

Rotational constants in cm-1:     0.017944     0.010494     0.007287
Rotational constants in MHz :   537.941679   314.598421   218.459191

                             ****ORCA TERMINATED NORMALLY****
TOTAL RUN TIME: 0 days 0 hours 0 minutes 33 seconds 518 msec
