                         Program Version 4.2.1 -  RELEASE  -
|  1> ! wB97X-D3 SP def2-SVP
|  2> %pal
|  3> nprocs 16
|  4> end
|  5>
|  6> * xyz 0 1
|  7> S 	 -85.0408 	 54.6226 	 134.75
|  8> C 	 -85.6533 	 53.4015 	 135.922
|  9> C 	 -84.6982 	 53.1149 	 136.86
| 10> C 	 -83.5374 	 53.933 	 136.714
| 11> C 	 -83.5513 	 54.7213 	 135.553
| 12> H 	 -82.6688 	 53.7945 	 137.359
| 13> C 	 -84.7747 	 52.0077 	 137.914
| 14> H 	 -84.819 	 51.1319 	 137.267
| 15> H 	 -85.8212 	 52.0476 	 138.419
| 16> C 	 -83.7605 	 52.0709 	 139.013
| 17> H 	 -82.7422 	 52.1067 	 138.667
| 18> H 	 -83.8662 	 53.026 	 139.494
| 19> C 	 -83.8068 	 50.8073 	 139.887
| 20> H 	 -83.6791 	 49.8139 	 139.378
| 21> H 	 -82.9457 	 50.893 	 140.378
| 22> H 	 -84.6779 	 50.9159 	 140.589
| 23> S 	 -82.8632 	 56.9338 	 133.981
| 24> C 	 -81.2524 	 57.1684 	 133.447
| 25> C 	 -80.4086 	 56.1609 	 133.932
| 26> C 	 -81.1295 	 55.2784 	 134.824
| 27> C 	 -82.4705 	 55.5072 	 134.944
| 28> H 	 -79.3961 	 56.114 	 133.584
| 29> C 	 -80.2067 	 54.1616 	 135.437
| 30> H 	 -79.8525 	 53.6105 	 134.542
| 31> H 	 -80.841 	 53.5209 	 136.068
| 32> C 	 -79.0817 	 54.7027 	 136.359
| 33> H 	 -78.4075 	 55.2834 	 135.737
| 34> H 	 -78.5503 	 53.8853 	 136.745
| 35> C 	 -79.625 	 55.5569 	 137.473
| 36> H 	 -78.8758 	 55.6637 	 138.264
| 37> H 	 -80.5379 	 55.1744 	 137.917
| 38> H 	 -79.85 	 56.5604 	 137.158
| 39> H 	 -86.5026 	 52.8285 	 135.725
| 40> H 	 -81.0581 	 57.9685 	 132.766
| 41> *
| 42>
| 43>                          ****END OF INPUT****

CARTESIAN COORDINATES (ANGSTROEM)
---------------------------------
  S    -85.040800   54.622600  134.750000
  C    -85.653300   53.401500  135.922000
  C    -84.698200   53.114900  136.860000
  C    -83.537400   53.933000  136.714000
  C    -83.551300   54.721300  135.553000
  H    -82.668800   53.794500  137.359000
  C    -84.774700   52.007700  137.914000
  H    -84.819000   51.131900  137.267000
  H    -85.821200   52.047600  138.419000
  C    -83.760500   52.070900  139.013000
  H    -82.742200   52.106700  138.667000
  H    -83.866200   53.026000  139.494000
  C    -83.806800   50.807300  139.887000
  H    -83.679100   49.813900  139.378000
  H    -82.945700   50.893000  140.378000
  H    -84.677900   50.915900  140.589000
  S    -82.863200   56.933800  133.981000
  C    -81.252400   57.168400  133.447000
  C    -80.408600   56.160900  133.932000
  C    -81.129500   55.278400  134.824000
  C    -82.470500   55.507200  134.944000
  H    -79.396100   56.114000  133.584000
  C    -80.206700   54.161600  135.437000
  H    -79.852500   53.610500  134.542000
  H    -80.841000   53.520900  136.068000
  C    -79.081700   54.702700  136.359000
  H    -78.407500   55.283400  135.737000
  H    -78.550300   53.885300  136.745000
  C    -79.625000   55.556900  137.473000
  H    -78.875800   55.663700  138.264000
  H    -80.537900   55.174400  137.917000
  H    -79.850000   56.560400  137.158000
  H    -86.502600   52.828500  135.725000
  H    -81.058100   57.968500  132.766000

 Total Charge           Charge          ....    0
 Multiplicity           Mult            ....    1
 Number of Electrons    NEL             ....  134
 Basis Dimension        Dim             ....  322

ORBITAL ENERGIES
----------------

  NO   OCC          E(Eh)            E(eV)
   0   2.0000     -88.964518     -2420.8476
   1   2.0000     -88.962101     -2420.7818
   2   2.0000     -10.331687      -281.1395
   3   2.0000     -10.328276      -281.0467
   4   2.0000     -10.318407      -280.7781
   5   2.0000     -10.306100      -280.4433
   6   2.0000     -10.305621      -280.4302
   7   2.0000     -10.299125      -280.2534
   8   2.0000     -10.297551      -280.2106
   9   2.0000     -10.296557      -280.1836
  10   2.0000     -10.296475      -280.1813
  11   2.0000     -10.292133      -280.0632
  12   2.0000     -10.286414      -279.9076
  13   2.0000     -10.282443      -279.7995
  14   2.0000     -10.278779      -279.6998
  15   2.0000     -10.271954      -279.5141
  16   2.0000      -8.079635      -219.8581
  17   2.0000      -8.077651      -219.8041
  18   2.0000      -6.038154      -164.3065
  19   2.0000      -6.036112      -164.2509
  20   2.0000      -6.034031      -164.1943
  21   2.0000      -6.031966      -164.1381
  22   2.0000      -6.030411      -164.0958
  23   2.0000      -6.028497      -164.0437
  24   2.0000      -1.007950       -27.4277
  25   2.0000      -0.984557       -26.7912
  26   2.0000      -0.919540       -25.0219
  27   2.0000      -0.908803       -24.7298
  28   2.0000      -0.873195       -23.7609
  29   2.0000      -0.850647       -23.1473
  30   2.0000      -0.840779       -22.8788
  31   2.0000      -0.811924       -22.0936
  32   2.0000      -0.784432       -21.3455
  33   2.0000      -0.777646       -21.1608
  34   2.0000      -0.715914       -19.4810
  35   2.0000      -0.700204       -19.0535
  36   2.0000      -0.691755       -18.8236
  37   2.0000      -0.661733       -18.0067
  38   2.0000      -0.636510       -17.3203
  39   2.0000      -0.623694       -16.9716
  40   2.0000      -0.596545       -16.2328
  41   2.0000      -0.576999       -15.7010
  42   2.0000      -0.566067       -15.4035
  43   2.0000      -0.553183       -15.0529
  44   2.0000      -0.546750       -14.8778
  45   2.0000      -0.530566       -14.4374
  46   2.0000      -0.515691       -14.0327
  47   2.0000      -0.510790       -13.8993
  48   2.0000      -0.506715       -13.7884
  49   2.0000      -0.497627       -13.5411
  50   2.0000      -0.493221       -13.4212
  51   2.0000      -0.484461       -13.1828
  52   2.0000      -0.474154       -12.9024
  53   2.0000      -0.463768       -12.6198
  54   2.0000      -0.455622       -12.3981
  55   2.0000      -0.452426       -12.3111
  56   2.0000      -0.445937       -12.1346
  57   2.0000      -0.440619       -11.9898
  58   2.0000      -0.436611       -11.8808
  59   2.0000      -0.423679       -11.5289
  60   2.0000      -0.420487       -11.4420
  61   2.0000      -0.409681       -11.1480
  62   2.0000      -0.407092       -11.0775
  63   2.0000      -0.353268        -9.6129
  64   2.0000      -0.331110        -9.0100
  65   2.0000      -0.327667        -8.9163
  66   2.0000      -0.286677        -7.8009
  67   0.0000       0.027293         0.7427
  68   0.0000       0.077817         2.1175
  69   0.0000       0.106745         2.9047
  70   0.0000       0.120297         3.2734
  71   0.0000       0.128389         3.4936

MULLIKEN ATOMIC CHARGES
-----------------------
   0 S :    0.099261
   1 C :   -0.115581
   2 C :   -0.088731
   3 C :    0.000716
   4 C :   -0.108350
   5 H :    0.001718
   6 C :    0.046328
   7 H :    0.040282
   8 H :    0.042670
   9 C :   -0.113132
  10 H :    0.022499
  11 H :    0.034798
  12 C :    0.019611
  13 H :    0.044084
  14 H :   -0.006081
  15 H :    0.045111
  16 S :    0.088138
  17 C :   -0.088058
  18 C :   -0.034616
  19 C :   -0.070827
  20 C :   -0.128751
  21 H :    0.023597
  22 C :    0.044440
  23 H :    0.046804
  24 H :    0.009303
  25 C :   -0.029480
  26 H :    0.020662
  27 H :    0.022907
  28 C :   -0.040503
  29 H :    0.029865
  30 H :    0.021814
  31 H :    0.036902
  32 H :    0.024482
  33 H :    0.058116
Sum of atomic charges:   -0.0000000

LOEWDIN ATOMIC CHARGES
----------------------
   0 S :    0.413148
   1 C :   -0.186382
   2 C :   -0.056388
   3 C :   -0.082543
   4 C :   -0.193628
   5 H :    0.023621
   6 C :   -0.037332
   7 H :    0.034812
   8 H :    0.042543
   9 C :   -0.044817
  10 H :    0.018272
  11 H :    0.029496
  12 C :   -0.054721
  13 H :    0.038426
  14 H :    0.007758
  15 H :    0.033979
  16 S :    0.405651
  17 C :   -0.182050
  18 C :   -0.073558
  19 C :   -0.055060
  20 C :   -0.202355
  21 H :    0.030452
  22 C :   -0.025990
  23 H :    0.035951
  24 H :    0.021035
  25 C :   -0.033842
  26 H :    0.020775
  27 H :    0.018669
  28 C :   -0.061886
  29 H :    0.027740
  30 H :    0.021906
  31 H :    0.027732
  32 H :    0.014257
  33 H :    0.024330

  Mayer bond orders larger than 0.100000
B(  0-S ,  1-C ) :   1.1140 B(  0-S ,  4-C ) :   1.1893 B(  1-C ,  2-C ) :   1.6212
B(  1-C ,  4-C ) :   0.1011 B(  1-C , 32-H ) :   0.9807 B(  2-C ,  3-C ) :   1.2732
B(  2-C ,  6-C ) :   0.9868 B(  3-C ,  4-C ) :   1.5225 B(  3-C ,  5-H ) :   0.9841
B(  4-C , 20-C ) :   1.0397 B(  6-C ,  7-H ) :   0.9378 B(  6-C ,  8-H ) :   0.9427
B(  6-C ,  9-C ) :   1.0865 B(  9-C , 10-H ) :   0.9453 B(  9-C , 11-H ) :   0.9499
B(  9-C , 12-C ) :   1.0755 B( 12-C , 13-H ) :   0.9719 B( 12-C , 14-H ) :   0.9693
B( 12-C , 15-H ) :   0.9728 B( 16-S , 17-C ) :   1.1814 B( 16-S , 20-C ) :   1.1228
B( 17-C , 18-C ) :   1.5755 B( 17-C , 33-H ) :   0.9735 B( 18-C , 19-C ) :   1.2302
B( 18-C , 21-H ) :   0.9998 B( 19-C , 20-C ) :   1.6225 B( 19-C , 22-C ) :   1.0165
B( 22-C , 23-H ) :   0.9430 B( 22-C , 24-H ) :   0.9403 B( 22-C , 25-C ) :   1.0732
B( 25-C , 26-H ) :   0.9512 B( 25-C , 27-H ) :   0.9582 B( 25-C , 28-C ) :   1.0772
B( 28-C , 29-H ) :   0.9713 B( 28-C , 30-H ) :   0.9771 B( 28-C , 31-H ) :   0.9681

Dispersion correction           -0.014494306
FINAL SINGLE POINT ENERGY     -1339.865795148086

DIPOLE MOMENT
-------------
                                X             Y             Z
Electronic contribution:    -13.54503      16.01910     -22.58943
Nuclear contribution   :     14.12310     -16.52664      22.88314
                        -----------------------------------------
Total Dipole Moment    :      0.57807      -0.50754       0.29372
                        -----------------------------------------
Magnitude (a.u.)       :      0.82343
Magnitude (Debye)      :      2.09298

Rotational constants in cm-1:     0.018614     0.009337     0.006571
Rotational constants in MHz :   558.037684   279.917636   197.004633

                             ****ORCA TERMINATED NORMALLY****
TOTAL RUN TIME: 0 days 0 hours 0 minutes 34 seconds 913 msec
