                         Program Version 4.2.1 -  RELEASE  -
|  1> ! wB97X-D3 SP def2-SVP
|  2> %pal
|  3> nprocs 16
|  4> end
|  5>
|  6> * xyz 0 1
|  7> S 	 33.3414 	 4.45548 	 72.2577
|  8> C 	 31.6696 	 3.89369 	 72.1149
|  9> C 	 31.4196 	 2.95864 	 73.1759
| 10> C 	 32.5432 	 2.77355 	 74.0657
| 11> C 	 33.5946 	 3.62686 	 73.7457
| 12> H 	 32.6387 	 2.08176 	 74.9412
| 13> C 	 30.1897 	 2.08512 	 73.2689
| 14> H 	 29.5102 	 2.34435 	 72.4351
| 15> H 	 29.6533 	 2.41513 	 74.2098
| 16> C 	 30.3887 	 0.544531 	 73.2202
| 17> H 	 31.0325 	 0.297613 	 74.0933
| 18> H 	 29.4298 	 0.0665364 	 73.3458
| 19> C 	 31.029 	 0.0641002 	 71.9817
| 20> H 	 31.3426 	 -1.00132 	 72.2109
| 21> H 	 30.3865 	 0.0396927 	 71.1912
| 22> H 	 31.9699 	 0.501176 	 71.6373
| 23> S 	 36.2974 	 3.68166 	 74.0303
| 24> C 	 37.0247 	 3.79044 	 75.596
| 25> C 	 36.1051 	 4.25544 	 76.5199
| 26> C 	 34.7431 	 4.31172 	 76.0056
| 27> C 	 34.7446 	 3.91774 	 74.6597
| 28> H 	 36.4667 	 4.45993 	 77.5097
| 29> C 	 33.5514 	 4.57717 	 76.897
| 30> H 	 32.654 	 4.46115 	 76.2844
| 31> H 	 33.5872 	 5.63142 	 77.1868
| 32> C 	 33.4039 	 3.75646 	 78.2156
| 33> H 	 34.4106 	 3.52588 	 78.5859
| 34> H 	 33.0227 	 2.75689 	 77.9957
| 35> C 	 32.5937 	 4.49248 	 79.356
| 36> H 	 33.133 	 5.28354 	 79.765
| 37> H 	 32.6956 	 3.7122 	 80.1417
| 38> H 	 31.5258 	 4.63939 	 79.0847
| 39> H 	 30.9769 	 4.05884 	 71.3576
| 40> H 	 38.0929 	 3.60472 	 75.8443
| 41> *
| 42>
| 43>                          ****END OF INPUT****

CARTESIAN COORDINATES (ANGSTROEM)
---------------------------------
  S     33.341400    4.455480   72.257700
  C     31.669600    3.893690   72.114900
  C     31.419600    2.958640   73.175900
  C     32.543200    2.773550   74.065700
  C     33.594600    3.626860   73.745700
  H     32.638700    2.081760   74.941200
  C     30.189700    2.085120   73.268900
  H     29.510200    2.344350   72.435100
  H     29.653300    2.415130   74.209800
  C     30.388700    0.544531   73.220200
  H     31.032500    0.297613   74.093300
  H     29.429800    0.066536   73.345800
  C     31.029000    0.064100   71.981700
  H     31.342600   -1.001320   72.210900
  H     30.386500    0.039693   71.191200
  H     31.969900    0.501176   71.637300
  S     36.297400    3.681660   74.030300
  C     37.024700    3.790440   75.596000
  C     36.105100    4.255440   76.519900
  C     34.743100    4.311720   76.005600
  C     34.744600    3.917740   74.659700
  H     36.466700    4.459930   77.509700
  C     33.551400    4.577170   76.897000
  H     32.654000    4.461150   76.284400
  H     33.587200    5.631420   77.186800
  C     33.403900    3.756460   78.215600
  H     34.410600    3.525880   78.585900
  H     33.022700    2.756890   77.995700
  C     32.593700    4.492480   79.356000
  H     33.133000    5.283540   79.765000
  H     32.695600    3.712200   80.141700
  H     31.525800    4.639390   79.084700
  H     30.976900    4.058840   71.357600
  H     38.092900    3.604720   75.844300

 Total Charge           Charge          ....    0
 Multiplicity           Mult            ....    1
 Number of Electrons    NEL             ....  134
 Basis Dimension        Dim             ....  322

ORBITAL ENERGIES
----------------

  NO   OCC          E(Eh)            E(eV)
   0   2.0000     -88.968736     -2420.9624
   1   2.0000     -88.964368     -2420.8435
   2   2.0000     -10.330409      -281.1047
   3   2.0000     -10.325829      -280.9801
   4   2.0000     -10.317892      -280.7641
   5   2.0000     -10.316224      -280.7187
   6   2.0000     -10.308031      -280.4958
   7   2.0000     -10.307585      -280.4837
   8   2.0000     -10.298696      -280.2418
   9   2.0000     -10.294920      -280.1390
  10   2.0000     -10.294633      -280.1312
  11   2.0000     -10.291594      -280.0485
  12   2.0000     -10.288947      -279.9765
  13   2.0000     -10.287238      -279.9300
  14   2.0000     -10.283880      -279.8386
  15   2.0000     -10.267793      -279.4008
  16   2.0000      -8.083226      -219.9558
  17   2.0000      -8.080670      -219.8862
  18   2.0000      -6.041773      -164.4050
  19   2.0000      -6.039066      -164.3313
  20   2.0000      -6.037690      -164.2939
  21   2.0000      -6.034959      -164.2196
  22   2.0000      -6.034042      -164.1946
  23   2.0000      -6.031461      -164.1244
  24   2.0000      -1.008064       -27.4308
  25   2.0000      -0.982510       -26.7354
  26   2.0000      -0.912227       -24.8230
  27   2.0000      -0.902485       -24.5579
  28   2.0000      -0.865498       -23.5514
  29   2.0000      -0.850135       -23.1334
  30   2.0000      -0.845582       -23.0095
  31   2.0000      -0.814834       -22.1728
  32   2.0000      -0.780999       -21.2521
  33   2.0000      -0.771077       -20.9821
  34   2.0000      -0.705619       -19.2009
  35   2.0000      -0.697669       -18.9845
  36   2.0000      -0.692069       -18.8322
  37   2.0000      -0.656157       -17.8549
  38   2.0000      -0.635058       -17.2808
  39   2.0000      -0.618201       -16.8221
  40   2.0000      -0.594067       -16.1654
  41   2.0000      -0.569003       -15.4834
  42   2.0000      -0.557547       -15.1716
  43   2.0000      -0.545854       -14.8534
  44   2.0000      -0.545480       -14.8433
  45   2.0000      -0.525186       -14.2910
  46   2.0000      -0.520946       -14.1757
  47   2.0000      -0.512281       -13.9399
  48   2.0000      -0.506325       -13.7778
  49   2.0000      -0.502078       -13.6622
  50   2.0000      -0.489093       -13.3089
  51   2.0000      -0.480871       -13.0852
  52   2.0000      -0.469724       -12.7818
  53   2.0000      -0.464409       -12.6372
  54   2.0000      -0.459064       -12.4918
  55   2.0000      -0.447827       -12.1860
  56   2.0000      -0.445747       -12.1294
  57   2.0000      -0.434596       -11.8260
  58   2.0000      -0.430169       -11.7055
  59   2.0000      -0.421061       -11.4577
  60   2.0000      -0.419690       -11.4203
  61   2.0000      -0.417677       -11.3656
  62   2.0000      -0.408446       -11.1144
  63   2.0000      -0.342179        -9.3112
  64   2.0000      -0.328978        -8.9519
  65   2.0000      -0.324342        -8.8258
  66   2.0000      -0.294330        -8.0091
  67   0.0000       0.036744         0.9999
  68   0.0000       0.065135         1.7724
  69   0.0000       0.108142         2.9427
  70   0.0000       0.118811         3.2330
  71   0.0000       0.128177         3.4879

MULLIKEN ATOMIC CHARGES
-----------------------
   0 S :    0.119825
   1 C :   -0.082466
   2 C :   -0.121662
   3 C :    0.008895
   4 C :   -0.141827
   5 H :    0.039928
   6 C :    0.029485
   7 H :    0.012610
   8 H :    0.045228
   9 C :   -0.055555
  10 H :    0.028819
  11 H :    0.032087
  12 C :   -0.030497
  13 H :    0.029372
  14 H :    0.009059
  15 H :    0.042705
  16 S :    0.119369
  17 C :   -0.112275
  18 C :   -0.046949
  19 C :   -0.018780
  20 C :   -0.181365
  21 H :    0.015848
  22 C :    0.089457
  23 H :    0.030620
  24 H :    0.028056
  25 C :   -0.107711
  26 H :    0.019201
  27 H :    0.025274
  28 C :   -0.039907
  29 H :    0.029540
  30 H :    0.030565
  31 H :    0.058372
  32 H :    0.023976
  33 H :    0.070703
Sum of atomic charges:   -0.0000000

LOEWDIN ATOMIC CHARGES
----------------------
   0 S :    0.415915
   1 C :   -0.195326
   2 C :   -0.057391
   3 C :   -0.075189
   4 C :   -0.202572
   5 H :    0.041416
   6 C :   -0.043537
   7 H :    0.025558
   8 H :    0.037281
   9 C :   -0.039157
  10 H :    0.024506
  11 H :    0.028025
  12 C :   -0.062883
  13 H :    0.036715
  14 H :    0.009852
  15 H :    0.030758
  16 S :    0.435336
  17 C :   -0.200229
  18 C :   -0.070199
  19 C :   -0.053043
  20 C :   -0.219895
  21 H :    0.027280
  22 C :   -0.039764
  23 H :    0.031254
  24 H :    0.034723
  25 C :   -0.039479
  26 H :    0.020540
  27 H :    0.021012
  28 C :   -0.061876
  29 H :    0.017389
  30 H :    0.034687
  31 H :    0.033383
  32 H :    0.016053
  33 H :    0.038856

  Mayer bond orders larger than 0.100000
B(  0-S ,  1-C ) :   1.1303 B(  0-S ,  4-C ) :   1.1800 B(  1-C ,  2-C ) :   1.5838
B(  1-C ,  4-C ) :   0.1036 B(  1-C , 32-H ) :   0.9774 B(  2-C ,  3-C ) :   1.2331
B(  2-C ,  6-C ) :   1.0351 B(  3-C ,  4-C ) :   1.5620 B(  3-C ,  5-H ) :   0.9884
B(  4-C , 20-C ) :   0.9833 B(  6-C ,  7-H ) :   0.9427 B(  6-C ,  8-H ) :   0.9356
B(  6-C ,  9-C ) :   1.0700 B(  9-C , 10-H ) :   0.9553 B(  9-C , 11-H ) :   0.9511
B(  9-C , 12-C ) :   1.0847 B( 12-C , 13-H ) :   0.9685 B( 12-C , 14-H ) :   0.9746
B( 12-C , 15-H ) :   0.9730 B( 16-S , 17-C ) :   1.1573 B( 16-S , 20-C ) :   1.1689
B( 17-C , 18-C ) :   1.6198 B( 17-C , 33-H ) :   0.9648 B( 18-C , 19-C ) :   1.2149
B( 18-C , 21-H ) :   0.9915 B( 19-C , 20-C ) :   1.5845 B( 19-C , 22-C ) :   1.0566
B( 22-C , 23-H ) :   0.9305 B( 22-C , 24-H ) :   0.9299 B( 22-C , 25-C ) :   1.0443
B( 25-C , 26-H ) :   0.9606 B( 25-C , 27-H ) :   0.9569 B( 25-C , 28-C ) :   1.0751
B( 28-C , 29-H ) :   0.9746 B( 28-C , 30-H ) :   0.9734 B( 28-C , 31-H ) :   0.9774

Dispersion correction           -0.014286539
FINAL SINGLE POINT ENERGY     -1339.868825113740

DIPOLE MOMENT
-------------
                                X             Y             Z
Electronic contribution:     18.43959      11.26025     -15.32657
Nuclear contribution   :    -18.73820     -11.58438      15.86265
                        -----------------------------------------
Total Dipole Moment    :     -0.29861      -0.32413       0.53608
                        -----------------------------------------
Magnitude (a.u.)       :      0.69398
Magnitude (Debye)      :      1.76395

Rotational constants in cm-1:     0.016791     0.008915     0.006919
Rotational constants in MHz :   503.382298   267.266639   207.424612

                             ****ORCA TERMINATED NORMALLY****
TOTAL RUN TIME: 0 days 0 hours 0 minutes 29 seconds 614 msec
