                         Program Version 4.2.1 -  RELEASE  -
|  1> ! wB97X-D3 SP def2-SVP
|  2> %pal
|  3> nprocs 16
|  4> end
|  5>
|  6> * xyz 0 1
|  7> S 	 -10.0484 	 -12.7606 	 85.9282
|  8> C 	 -11.5179 	 -13.1856 	 85.1927
|  9> C 	 -12.5944 	 -13.2689 	 86.0836
| 10> C 	 -12.1264 	 -12.993 	 87.3775
| 11> C 	 -10.7173 	 -12.8531 	 87.4592
| 12> H 	 -12.6779 	 -12.9336 	 88.2831
| 13> C 	 -14.0531 	 -13.5952 	 85.8158
| 14> H 	 -14.1424 	 -14.1754 	 84.8688
| 15> H 	 -14.2969 	 -12.6299 	 85.4338
| 16> C 	 -15.0616 	 -13.7884 	 86.8795
| 17> H 	 -14.8071 	 -14.7417 	 87.3986
| 18> H 	 -15.0252 	 -13.0112 	 87.6191
| 19> C 	 -16.5368 	 -13.8056 	 86.459
| 20> H 	 -17.1932 	 -14.2201 	 87.2646
| 21> H 	 -16.9312 	 -12.8678 	 86.2163
| 22> H 	 -16.6758 	 -14.4373 	 85.5858
| 23> S 	 -8.81273 	 -11.4509 	 88.8628
| 24> C 	 -8.38518 	 -12.0872 	 90.4639
| 25> C 	 -8.86866 	 -13.3704 	 90.6832
| 26> C 	 -9.61927 	 -13.8026 	 89.5694
| 27> C 	 -9.83955 	 -12.8589 	 88.5574
| 28> H 	 -8.621 	 -13.763 	 91.6435
| 29> C 	 -10.4889 	 -15.0701 	 89.8237
| 30> H 	 -11.4618 	 -14.7409 	 89.5587
| 31> H 	 -10.4977 	 -15.2752 	 90.9085
| 32> C 	 -10.1456 	 -16.3676 	 88.9248
| 33> H 	 -10.2774 	 -16.2008 	 87.9195
| 34> H 	 -10.9251 	 -17.088 	 89.2096
| 35> C 	 -8.82789 	 -16.8545 	 89.4673
| 36> H 	 -7.98949 	 -16.1239 	 89.4693
| 37> H 	 -8.56915 	 -17.7826 	 89.057
| 38> H 	 -8.9493 	 -17.055 	 90.5369
| 39> H 	 -11.7097 	 -13.4059 	 84.1107
| 40> H 	 -7.95401 	 -11.54 	 91.3293
| 41> *
| 42>
| 43>                          ****END OF INPUT****

CARTESIAN COORDINATES (ANGSTROEM)
---------------------------------
  S    -10.048400  -12.760600   85.928200
  C    -11.517900  -13.185600   85.192700
  C    -12.594400  -13.268900   86.083600
  C    -12.126400  -12.993000   87.377500
  C    -10.717300  -12.853100   87.459200
  H    -12.677900  -12.933600   88.283100
  C    -14.053100  -13.595200   85.815800
  H    -14.142400  -14.175400   84.868800
  H    -14.296900  -12.629900   85.433800
  C    -15.061600  -13.788400   86.879500
  H    -14.807100  -14.741700   87.398600
  H    -15.025200  -13.011200   87.619100
  C    -16.536800  -13.805600   86.459000
  H    -17.193200  -14.220100   87.264600
  H    -16.931200  -12.867800   86.216300
  H    -16.675800  -14.437300   85.585800
  S     -8.812730  -11.450900   88.862800
  C     -8.385180  -12.087200   90.463900
  C     -8.868660  -13.370400   90.683200
  C     -9.619270  -13.802600   89.569400
  C     -9.839550  -12.858900   88.557400
  H     -8.621000  -13.763000   91.643500
  C    -10.488900  -15.070100   89.823700
  H    -11.461800  -14.740900   89.558700
  H    -10.497700  -15.275200   90.908500
  C    -10.145600  -16.367600   88.924800
  H    -10.277400  -16.200800   87.919500
  H    -10.925100  -17.088000   89.209600
  C     -8.827890  -16.854500   89.467300
  H     -7.989490  -16.123900   89.469300
  H     -8.569150  -17.782600   89.057000
  H     -8.949300  -17.055000   90.536900
  H    -11.709700  -13.405900   84.110700
  H     -7.954010  -11.540000   91.329300

 Total Charge           Charge          ....    0
 Multiplicity           Mult            ....    1
 Number of Electrons    NEL             ....  134
 Basis Dimension        Dim             ....  322

ORBITAL ENERGIES
----------------

  NO   OCC          E(Eh)            E(eV)
   0   2.0000     -88.968003     -2420.9424
   1   2.0000     -88.965453     -2420.8730
   2   2.0000     -10.323381      -280.9135
   3   2.0000     -10.319054      -280.7957
   4   2.0000     -10.318508      -280.7809
   5   2.0000     -10.310409      -280.5605
   6   2.0000     -10.304285      -280.3938
   7   2.0000     -10.303130      -280.3624
   8   2.0000     -10.292696      -280.0785
   9   2.0000     -10.291462      -280.0449
  10   2.0000     -10.290434      -280.0169
  11   2.0000     -10.290195      -280.0104
  12   2.0000     -10.287760      -279.9442
  13   2.0000     -10.281413      -279.7715
  14   2.0000     -10.279382      -279.7162
  15   2.0000     -10.267591      -279.3954
  16   2.0000      -8.084822      -219.9992
  17   2.0000      -8.079490      -219.8541
  18   2.0000      -6.043028      -164.4391
  19   2.0000      -6.038878      -164.3262
  20   2.0000      -6.037996      -164.3022
  21   2.0000      -6.035929      -164.2460
  22   2.0000      -6.034108      -164.1964
  23   2.0000      -6.030277      -164.0922
  24   2.0000      -1.016576       -27.6624
  25   2.0000      -0.983931       -26.7741
  26   2.0000      -0.924813       -25.1654
  27   2.0000      -0.898402       -24.4468
  28   2.0000      -0.877072       -23.8663
  29   2.0000      -0.854130       -23.2421
  30   2.0000      -0.845766       -23.0145
  31   2.0000      -0.812315       -22.1042
  32   2.0000      -0.789776       -21.4909
  33   2.0000      -0.764937       -20.8150
  34   2.0000      -0.720097       -19.5948
  35   2.0000      -0.702791       -19.1239
  36   2.0000      -0.687190       -18.6994
  37   2.0000      -0.658336       -17.9142
  38   2.0000      -0.641123       -17.4458
  39   2.0000      -0.624156       -16.9841
  40   2.0000      -0.581527       -15.8242
  41   2.0000      -0.575965       -15.6728
  42   2.0000      -0.572625       -15.5819
  43   2.0000      -0.549105       -14.9419
  44   2.0000      -0.538360       -14.6495
  45   2.0000      -0.531608       -14.4658
  46   2.0000      -0.521478       -14.1901
  47   2.0000      -0.512091       -13.9347
  48   2.0000      -0.500983       -13.6324
  49   2.0000      -0.499343       -13.5878
  50   2.0000      -0.485812       -13.2196
  51   2.0000      -0.479471       -13.0471
  52   2.0000      -0.473204       -12.8765
  53   2.0000      -0.471620       -12.8334
  54   2.0000      -0.460956       -12.5433
  55   2.0000      -0.454127       -12.3574
  56   2.0000      -0.442084       -12.0297
  57   2.0000      -0.436876       -11.8880
  58   2.0000      -0.430328       -11.7098
  59   2.0000      -0.427728       -11.6391
  60   2.0000      -0.419702       -11.4207
  61   2.0000      -0.414740       -11.2857
  62   2.0000      -0.405515       -11.0346
  63   2.0000      -0.339167        -9.2292
  64   2.0000      -0.330595        -8.9960
  65   2.0000      -0.325740        -8.8638
  66   2.0000      -0.284403        -7.7390
  67   0.0000       0.032368         0.8808
  68   0.0000       0.055286         1.5044
  69   0.0000       0.112438         3.0596
  70   0.0000       0.123809         3.3690
  71   0.0000       0.133101         3.6219

MULLIKEN ATOMIC CHARGES
-----------------------
   0 S :    0.156064
   1 C :   -0.147424
   2 C :   -0.087853
   3 C :    0.026312
   4 C :   -0.181245
   5 H :    0.001986
   6 C :    0.074203
   7 H :    0.025086
   8 H :    0.022628
   9 C :   -0.055289
  10 H :    0.034019
  11 H :    0.030178
  12 C :   -0.040236
  13 H :    0.042310
  14 H :    0.023547
  15 H :    0.025787
  16 S :    0.106282
  17 C :   -0.115179
  18 C :   -0.047334
  19 C :    0.017949
  20 C :   -0.169408
  21 H :    0.016695
  22 C :    0.014448
  23 H :    0.004148
  24 H :    0.028745
  25 C :   -0.021478
  26 H :    0.025196
  27 H :    0.024305
  28 C :   -0.020268
  29 H :    0.042382
  30 H :    0.017439
  31 H :    0.007708
  32 H :    0.051043
  33 H :    0.067254
Sum of atomic charges:   -0.0000000

LOEWDIN ATOMIC CHARGES
----------------------
   0 S :    0.479424
   1 C :   -0.239749
   2 C :   -0.055129
   3 C :   -0.063101
   4 C :   -0.227131
   5 H :    0.023270
   6 C :   -0.046758
   7 H :    0.037239
   8 H :    0.040456
   9 C :   -0.043059
  10 H :    0.026866
  11 H :    0.025443
  12 C :   -0.056570
  13 H :    0.036895
  14 H :    0.016215
  15 H :    0.023589
  16 S :    0.386338
  17 C :   -0.182934
  18 C :   -0.074012
  19 C :   -0.051459
  20 C :   -0.207825
  21 H :    0.032605
  22 C :   -0.022315
  23 H :    0.018006
  24 H :    0.028987
  25 C :   -0.023350
  26 H :    0.013372
  27 H :    0.027655
  28 C :   -0.064761
  29 H :    0.029920
  30 H :    0.014153
  31 H :    0.025074
  32 H :    0.035108
  33 H :    0.037536

  Mayer bond orders larger than 0.100000
B(  0-S ,  1-C ) :   1.1724 B(  0-S ,  4-C ) :   1.2078 B(  1-C ,  2-C ) :   1.5651
B(  1-C ,  4-C ) :   0.1129 B(  1-C , 32-H ) :   0.9614 B(  2-C ,  3-C ) :   1.2925
B(  2-C ,  6-C ) :   0.9944 B(  3-C ,  4-C ) :   1.5071 B(  3-C ,  5-H ) :   0.9971
B(  4-C , 20-C ) :   1.0475 B(  6-C ,  7-H ) :   0.9361 B(  6-C ,  8-H ) :   0.9194
B(  6-C ,  9-C ) :   1.0810 B(  9-C , 10-H ) :   0.9517 B(  9-C , 11-H ) :   0.9388
B(  9-C , 12-C ) :   1.0841 B( 12-C , 13-H ) :   0.9721 B( 12-C , 14-H ) :   0.9769
B( 12-C , 15-H ) :   0.9761 B( 16-S , 17-C ) :   1.1537 B( 16-S , 20-C ) :   1.1239
B( 17-C , 18-C ) :   1.6318 B( 17-C , 20-C ) :   0.1115 B( 17-C , 33-H ) :   0.9584
B( 18-C , 19-C ) :   1.2092 B( 18-C , 21-H ) :   0.9982 B( 19-C , 20-C ) :   1.5906
B( 19-C , 22-C ) :   1.0192 B( 22-C , 23-H ) :   0.9382 B( 22-C , 24-H ) :   0.9544
B( 22-C , 25-C ) :   1.0642 B( 25-C , 26-H ) :   0.9642 B( 25-C , 27-H ) :   0.9537
B( 25-C , 28-C ) :   1.0694 B( 28-C , 29-H ) :   0.9770 B( 28-C , 30-H ) :   0.9727
B( 28-C , 31-H ) :   0.9700

Dispersion correction           -0.014375585
FINAL SINGLE POINT ENERGY     -1339.836098948647

DIPOLE MOMENT
-------------
                                X             Y             Z
Electronic contribution:     20.29507      18.36977      -3.88865
Nuclear contribution   :    -21.01514     -18.66418       4.12929
                        -----------------------------------------
Total Dipole Moment    :     -0.72007      -0.29441       0.24064
                        -----------------------------------------
Magnitude (a.u.)       :      0.81430
Magnitude (Debye)      :      2.06978

Rotational constants in cm-1:     0.018764     0.008300     0.007147
Rotational constants in MHz :   562.537823   248.836327   214.267605

                             ****ORCA TERMINATED NORMALLY****
TOTAL RUN TIME: 0 days 0 hours 0 minutes 34 seconds 539 msec
