                         Program Version 4.2.1 -  RELEASE  -
|  1> ! wB97X-D3 SP def2-SVP
|  2> %pal
|  3> nprocs 16
|  4> end
|  5>
|  6> * xyz 0 1
|  7> S 	 -64.7451 	 47.3474 	 122.562
|  8> C 	 -65.0189 	 48.811 	 123.427
|  9> C 	 -66.3169 	 48.8903 	 123.886
| 10> C 	 -67.1362 	 47.7851 	 123.441
| 11> C 	 -66.4587 	 46.7973 	 122.741
| 12> H 	 -68.1877 	 47.6643 	 123.643
| 13> C 	 -66.8402 	 50.0803 	 124.737
| 14> H 	 -67.8625 	 49.9749 	 125.047
| 15> H 	 -66.7851 	 50.9398 	 124.069
| 16> C 	 -66.1051 	 50.3912 	 126.073
| 17> H 	 -66.0258 	 49.4394 	 126.701
| 18> H 	 -65.0515 	 50.6105 	 125.852
| 19> C 	 -66.8348 	 51.5052 	 126.863
| 20> H 	 -67.8204 	 51.2495 	 127.211
| 21> H 	 -66.1861 	 51.7648 	 127.708
| 22> H 	 -66.9799 	 52.3383 	 126.257
| 23> S 	 -65.6804 	 44.3188 	 121.804
| 24> C 	 -66.898 	 43.0551 	 121.733
| 25> C 	 -68.1265 	 43.5951 	 121.685
| 26> C 	 -68.1913 	 44.9495 	 122.067
| 27> C 	 -66.914 	 45.5006 	 122.234
| 28> H 	 -68.9995 	 42.9478 	 121.536
| 29> C 	 -69.4999 	 45.6686 	 122.134
| 30> H 	 -69.8425 	 45.9321 	 123.175
| 31> H 	 -70.2732 	 44.9112 	 121.919
| 32> C 	 -69.6305 	 46.7344 	 121.123
| 33> H 	 -69.407 	 46.3788 	 120.16
| 34> H 	 -68.8991 	 47.5531 	 121.264
| 35> C 	 -71.0098 	 47.4777 	 120.936
| 36> H 	 -70.9766 	 47.9968 	 120.01
| 37> H 	 -71.3106 	 48.1165 	 121.713
| 38> H 	 -71.833 	 46.7643 	 120.881
| 39> H 	 -64.1383 	 49.5046 	 123.655
| 40> H 	 -66.6644 	 42.0338 	 121.542
| 41> *
| 42>
| 43>                          ****END OF INPUT****

CARTESIAN COORDINATES (ANGSTROEM)
---------------------------------
  S    -64.745100   47.347400  122.562000
  C    -65.018900   48.811000  123.427000
  C    -66.316900   48.890300  123.886000
  C    -67.136200   47.785100  123.441000
  C    -66.458700   46.797300  122.741000
  H    -68.187700   47.664300  123.643000
  C    -66.840200   50.080300  124.737000
  H    -67.862500   49.974900  125.047000
  H    -66.785100   50.939800  124.069000
  C    -66.105100   50.391200  126.073000
  H    -66.025800   49.439400  126.701000
  H    -65.051500   50.610500  125.852000
  C    -66.834800   51.505200  126.863000
  H    -67.820400   51.249500  127.211000
  H    -66.186100   51.764800  127.708000
  H    -66.979900   52.338300  126.257000
  S    -65.680400   44.318800  121.804000
  C    -66.898000   43.055100  121.733000
  C    -68.126500   43.595100  121.685000
  C    -68.191300   44.949500  122.067000
  C    -66.914000   45.500600  122.234000
  H    -68.999500   42.947800  121.536000
  C    -69.499900   45.668600  122.134000
  H    -69.842500   45.932100  123.175000
  H    -70.273200   44.911200  121.919000
  C    -69.630500   46.734400  121.123000
  H    -69.407000   46.378800  120.160000
  H    -68.899100   47.553100  121.264000
  C    -71.009800   47.477700  120.936000
  H    -70.976600   47.996800  120.010000
  H    -71.310600   48.116500  121.713000
  H    -71.833000   46.764300  120.881000
  H    -64.138300   49.504600  123.655000
  H    -66.664400   42.033800  121.542000

 Total Charge           Charge          ....    0
 Multiplicity           Mult            ....    1
 Number of Electrons    NEL             ....  134
 Basis Dimension        Dim             ....  322

ORBITAL ENERGIES
----------------

  NO   OCC          E(Eh)            E(eV)
   0   2.0000     -88.964876     -2420.8573
   1   2.0000     -88.963098     -2420.8090
   2   2.0000     -10.336640      -281.2743
   3   2.0000     -10.332999      -281.1752
   4   2.0000     -10.318511      -280.7810
   5   2.0000     -10.313881      -280.6550
   6   2.0000     -10.305529      -280.4277
   7   2.0000     -10.303457      -280.3713
   8   2.0000     -10.296972      -280.1948
   9   2.0000     -10.294883      -280.1380
  10   2.0000     -10.294127      -280.1174
  11   2.0000     -10.292519      -280.0737
  12   2.0000     -10.291616      -280.0491
  13   2.0000     -10.279915      -279.7307
  14   2.0000     -10.276148      -279.6282
  15   2.0000     -10.271880      -279.5121
  16   2.0000      -8.079736      -219.8608
  17   2.0000      -8.077595      -219.8025
  18   2.0000      -6.038335      -164.3114
  19   2.0000      -6.036279      -164.2555
  20   2.0000      -6.034391      -164.2041
  21   2.0000      -6.032119      -164.1423
  22   2.0000      -6.030237      -164.0911
  23   2.0000      -6.028220      -164.0362
  24   2.0000      -1.007238       -27.4083
  25   2.0000      -0.983925       -26.7740
  26   2.0000      -0.914922       -24.8963
  27   2.0000      -0.904160       -24.6035
  28   2.0000      -0.871456       -23.7135
  29   2.0000      -0.851892       -23.1812
  30   2.0000      -0.843423       -22.9507
  31   2.0000      -0.817543       -22.2465
  32   2.0000      -0.785277       -21.3685
  33   2.0000      -0.770965       -20.9790
  34   2.0000      -0.710919       -19.3451
  35   2.0000      -0.701098       -19.0778
  36   2.0000      -0.693058       -18.8591
  37   2.0000      -0.667290       -18.1579
  38   2.0000      -0.636190       -17.3116
  39   2.0000      -0.617273       -16.7969
  40   2.0000      -0.602003       -16.3813
  41   2.0000      -0.570299       -15.5186
  42   2.0000      -0.560310       -15.2468
  43   2.0000      -0.553144       -15.0518
  44   2.0000      -0.535478       -14.5711
  45   2.0000      -0.521865       -14.2007
  46   2.0000      -0.519786       -14.1441
  47   2.0000      -0.513372       -13.9696
  48   2.0000      -0.504307       -13.7229
  49   2.0000      -0.501835       -13.6556
  50   2.0000      -0.489505       -13.3201
  51   2.0000      -0.483547       -13.1580
  52   2.0000      -0.479412       -13.0455
  53   2.0000      -0.462802       -12.5935
  54   2.0000      -0.459468       -12.5028
  55   2.0000      -0.454034       -12.3549
  56   2.0000      -0.445400       -12.1199
  57   2.0000      -0.439630       -11.9629
  58   2.0000      -0.432757       -11.7759
  59   2.0000      -0.425524       -11.5791
  60   2.0000      -0.417129       -11.3507
  61   2.0000      -0.411804       -11.2058
  62   2.0000      -0.405361       -11.0304
  63   2.0000      -0.365220        -9.9381
  64   2.0000      -0.337119        -9.1735
  65   2.0000      -0.325341        -8.8530
  66   2.0000      -0.280448        -7.6314
  67   0.0000       0.015962         0.4343
  68   0.0000       0.079556         2.1648
  69   0.0000       0.098821         2.6891
  70   0.0000       0.128370         3.4931
  71   0.0000       0.137537         3.7426

MULLIKEN ATOMIC CHARGES
-----------------------
   0 S :    0.086739
   1 C :   -0.154924
   2 C :   -0.071598
   3 C :    0.009336
   4 C :   -0.113809
   5 H :    0.004452
   6 C :    0.059231
   7 H :    0.010746
   8 H :    0.040458
   9 C :   -0.118225
  10 H :    0.043655
  11 H :    0.025643
  12 C :   -0.010868
  13 H :    0.028955
  14 H :    0.039856
  15 H :    0.013319
  16 S :    0.090433
  17 C :   -0.076982
  18 C :   -0.019594
  19 C :   -0.071806
  20 C :   -0.111837
  21 H :    0.024601
  22 C :    0.076011
  23 H :    0.041404
  24 H :    0.001497
  25 C :   -0.076373
  26 H :    0.015205
  27 H :    0.037888
  28 C :   -0.020951
  29 H :    0.031082
  30 H :    0.020085
  31 H :    0.013179
  32 H :    0.085599
  33 H :    0.047596
Sum of atomic charges:    0.0000000

LOEWDIN ATOMIC CHARGES
----------------------
   0 S :    0.383119
   1 C :   -0.213941
   2 C :   -0.066128
   3 C :   -0.066288
   4 C :   -0.168877
   5 H :    0.029274
   6 C :   -0.032551
   7 H :    0.023434
   8 H :    0.032781
   9 C :   -0.043517
  10 H :    0.031619
  11 H :    0.018359
  12 C :   -0.058058
  13 H :    0.024186
  14 H :    0.032761
  15 H :    0.015964
  16 S :    0.392895
  17 C :   -0.169816
  18 C :   -0.071616
  19 C :   -0.056785
  20 C :   -0.182780
  21 H :    0.036351
  22 C :   -0.043103
  23 H :    0.035427
  24 H :    0.031888
  25 C :   -0.040768
  26 H :    0.021492
  27 H :    0.028288
  28 C :   -0.056873
  29 H :    0.025854
  30 H :    0.015316
  31 H :    0.020736
  32 H :    0.046220
  33 H :    0.025137

  Mayer bond orders larger than 0.100000
B(  0-S ,  1-C ) :   1.1429 B(  0-S ,  4-C ) :   1.1319 B(  1-C ,  2-C ) :   1.6050
B(  1-C , 32-H ) :   0.9592 B(  2-C ,  3-C ) :   1.2508 B(  2-C ,  6-C ) :   1.0089
B(  3-C ,  4-C ) :   1.5697 B(  3-C ,  5-H ) :   0.9904 B(  4-C , 20-C ) :   1.0931
B(  6-C ,  7-H ) :   0.9507 B(  6-C ,  8-H ) :   0.9414 B(  6-C ,  9-C ) :   1.0557
B(  9-C , 10-H ) :   0.9590 B(  9-C , 11-H ) :   0.9559 B(  9-C , 12-C ) :   1.0786
B( 12-C , 13-H ) :   0.9741 B( 12-C , 14-H ) :   0.9734 B( 12-C , 15-H ) :   0.9741
B( 16-S , 17-C ) :   1.1463 B( 16-S , 20-C ) :   1.1346 B( 17-C , 18-C ) :   1.6154
B( 17-C , 33-H ) :   0.9702 B( 18-C , 19-C ) :   1.2642 B( 18-C , 21-H ) :   0.9803
B( 19-C , 20-C ) :   1.5620 B( 19-C , 22-C ) :   1.0498 B( 22-C , 23-H ) :   0.9220
B( 22-C , 24-H ) :   0.9180 B( 22-C , 25-C ) :   1.0687 B( 25-C , 26-H ) :   0.9500
B( 25-C , 27-H ) :   0.9523 B( 25-C , 28-C ) :   1.0827 B( 28-C , 29-H ) :   0.9765
B( 28-C , 30-H ) :   0.9766 B( 28-C , 31-H ) :   0.9738

Dispersion correction           -0.013741009
FINAL SINGLE POINT ENERGY     -1339.878519108939

DIPOLE MOMENT
-------------
                                X             Y             Z
Electronic contribution:     20.05748     -19.79874      -9.75968
Nuclear contribution   :    -20.66097      19.99305       9.95815
                        -----------------------------------------
Total Dipole Moment    :     -0.60349       0.19431       0.19847
                        -----------------------------------------
Magnitude (a.u.)       :      0.66434
Magnitude (Debye)      :      1.68861

Rotational constants in cm-1:     0.018939     0.008014     0.006194
Rotational constants in MHz :   567.763974   240.258723   185.695844

                             ****ORCA TERMINATED NORMALLY****
TOTAL RUN TIME: 0 days 0 hours 0 minutes 33 seconds 204 msec
