                         Program Version 4.2.1 -  RELEASE  -
|  1> ! wB97X-D3 SP def2-SVP
|  2> %pal
|  3> nprocs 16
|  4> end
|  5>
|  6> * xyz 0 1
|  7> S 	 -48.4062 	 10.256 	 91.4402
|  8> C 	 -49.1394 	 11.7111 	 92.1005
|  9> C 	 -50.041 	 12.1995 	 91.272
| 10> C 	 -50.2438 	 11.3355 	 90.0728
| 11> C 	 -49.624 	 10.0979 	 90.1642
| 12> H 	 -50.9419 	 11.6821 	 89.3339
| 13> C 	 -50.7531 	 13.4649 	 91.4907
| 14> H 	 -51.2076 	 13.3475 	 92.5018
| 15> H 	 -51.5785 	 13.5256 	 90.717
| 16> C 	 -49.8193 	 14.7009 	 91.4695
| 17> H 	 -50.3824 	 15.5516 	 91.9393
| 18> H 	 -48.9807 	 14.631 	 92.1734
| 19> C 	 -49.1486 	 15.0273 	 90.1519
| 20> H 	 -49.0295 	 14.1679 	 89.5447
| 21> H 	 -49.7613 	 15.7333 	 89.687
| 22> H 	 -48.2009 	 15.4149 	 90.3513
| 23> S 	 -48.1356 	 8.71511 	 88.2021
| 24> C 	 -49.0611 	 7.70711 	 87.1286
| 25> C 	 -50.3914 	 7.55964 	 87.5098
| 26> C 	 -50.6751 	 8.25351 	 88.6831
| 27> C 	 -49.6053 	 9.04007 	 89.1622
| 28> H 	 -50.8986 	 6.80756 	 86.9757
| 29> C 	 -51.925 	 7.96029 	 89.5425
| 30> H 	 -51.6443 	 8.44862 	 90.5515
| 31> H 	 -52.0408 	 6.87687 	 89.6649
| 32> C 	 -53.2047 	 8.6017 	 88.9572
| 33> H 	 -53.6393 	 8.01887 	 88.1572
| 34> H 	 -52.8584 	 9.54936 	 88.5624
| 35> C 	 -54.2269 	 8.90803 	 90.0016
| 36> H 	 -54.6998 	 8.05139 	 90.4328
| 37> H 	 -55.0535 	 9.38627 	 89.5109
| 38> H 	 -53.9643 	 9.62583 	 90.7974
| 39> H 	 -48.655 	 12.2753 	 92.9614
| 40> H 	 -48.6165 	 7.30226 	 86.26
| 41> *
| 42>
| 43>                          ****END OF INPUT****

CARTESIAN COORDINATES (ANGSTROEM)
---------------------------------
  S    -48.406200   10.256000   91.440200
  C    -49.139400   11.711100   92.100500
  C    -50.041000   12.199500   91.272000
  C    -50.243800   11.335500   90.072800
  C    -49.624000   10.097900   90.164200
  H    -50.941900   11.682100   89.333900
  C    -50.753100   13.464900   91.490700
  H    -51.207600   13.347500   92.501800
  H    -51.578500   13.525600   90.717000
  C    -49.819300   14.700900   91.469500
  H    -50.382400   15.551600   91.939300
  H    -48.980700   14.631000   92.173400
  C    -49.148600   15.027300   90.151900
  H    -49.029500   14.167900   89.544700
  H    -49.761300   15.733300   89.687000
  H    -48.200900   15.414900   90.351300
  S    -48.135600    8.715110   88.202100
  C    -49.061100    7.707110   87.128600
  C    -50.391400    7.559640   87.509800
  C    -50.675100    8.253510   88.683100
  C    -49.605300    9.040070   89.162200
  H    -50.898600    6.807560   86.975700
  C    -51.925000    7.960290   89.542500
  H    -51.644300    8.448620   90.551500
  H    -52.040800    6.876870   89.664900
  C    -53.204700    8.601700   88.957200
  H    -53.639300    8.018870   88.157200
  H    -52.858400    9.549360   88.562400
  C    -54.226900    8.908030   90.001600
  H    -54.699800    8.051390   90.432800
  H    -55.053500    9.386270   89.510900
  H    -53.964300    9.625830   90.797400
  H    -48.655000   12.275300   92.961400
  H    -48.616500    7.302260   86.260000

 Total Charge           Charge          ....    0
 Multiplicity           Mult            ....    1
 Number of Electrons    NEL             ....  134
 Basis Dimension        Dim             ....  322

ORBITAL ENERGIES
----------------

  NO   OCC          E(Eh)            E(eV)
   0   2.0000     -88.967026     -2420.9159
   1   2.0000     -88.957493     -2420.6565
   2   2.0000     -10.334587      -281.2184
   3   2.0000     -10.329123      -281.0697
   4   2.0000     -10.316390      -280.7233
   5   2.0000     -10.311749      -280.5969
   6   2.0000     -10.303813      -280.3810
   7   2.0000     -10.300267      -280.2845
   8   2.0000     -10.297400      -280.2065
   9   2.0000     -10.294559      -280.1292
  10   2.0000     -10.293101      -280.0895
  11   2.0000     -10.289262      -279.9851
  12   2.0000     -10.288770      -279.9717
  13   2.0000     -10.280570      -279.7485
  14   2.0000     -10.268444      -279.4186
  15   2.0000     -10.262565      -279.2586
  16   2.0000      -8.081509      -219.9090
  17   2.0000      -8.072463      -219.6629
  18   2.0000      -6.039836      -164.3523
  19   2.0000      -6.036028      -164.2487
  20   2.0000      -6.032507      -164.1529
  21   2.0000      -6.031155      -164.1161
  22   2.0000      -6.027075      -164.0050
  23   2.0000      -6.022862      -163.8904
  24   2.0000      -1.003405       -27.3040
  25   2.0000      -0.984390       -26.7866
  26   2.0000      -0.915445       -24.9105
  27   2.0000      -0.906584       -24.6694
  28   2.0000      -0.871545       -23.7159
  29   2.0000      -0.853865       -23.2349
  30   2.0000      -0.844249       -22.9732
  31   2.0000      -0.815389       -22.1879
  32   2.0000      -0.782904       -21.3039
  33   2.0000      -0.770703       -20.9719
  34   2.0000      -0.706247       -19.2180
  35   2.0000      -0.702154       -19.1066
  36   2.0000      -0.693811       -18.8796
  37   2.0000      -0.659838       -17.9551
  38   2.0000      -0.632187       -17.2027
  39   2.0000      -0.614552       -16.7228
  40   2.0000      -0.591126       -16.0854
  41   2.0000      -0.576657       -15.6916
  42   2.0000      -0.568964       -15.4823
  43   2.0000      -0.556933       -15.1549
  44   2.0000      -0.541805       -14.7433
  45   2.0000      -0.523941       -14.2572
  46   2.0000      -0.518306       -14.1038
  47   2.0000      -0.514564       -14.0020
  48   2.0000      -0.504156       -13.7188
  49   2.0000      -0.499060       -13.5801
  50   2.0000      -0.490397       -13.3444
  51   2.0000      -0.481203       -13.0942
  52   2.0000      -0.470849       -12.8124
  53   2.0000      -0.469602       -12.7785
  54   2.0000      -0.459548       -12.5049
  55   2.0000      -0.444409       -12.0930
  56   2.0000      -0.441320       -12.0089
  57   2.0000      -0.434092       -11.8122
  58   2.0000      -0.427966       -11.6455
  59   2.0000      -0.422168       -11.4878
  60   2.0000      -0.418063       -11.3761
  61   2.0000      -0.417203       -11.3527
  62   2.0000      -0.405978       -11.0472
  63   2.0000      -0.343402        -9.3444
  64   2.0000      -0.332523        -9.0484
  65   2.0000      -0.320418        -8.7190
  66   2.0000      -0.295262        -8.0345
  67   0.0000       0.027257         0.7417
  68   0.0000       0.058989         1.6052
  69   0.0000       0.108183         2.9438
  70   0.0000       0.119910         3.2629
  71   0.0000       0.127792         3.4774

MULLIKEN ATOMIC CHARGES
-----------------------
   0 S :    0.073013
   1 C :   -0.139371
   2 C :   -0.116829
   3 C :    0.058455
   4 C :   -0.147788
   5 H :    0.009687
   6 C :    0.053488
   7 H :    0.046510
   8 H :    0.030296
   9 C :   -0.116671
  10 H :    0.030182
  11 H :    0.015301
  12 C :    0.028550
  13 H :    0.028270
  14 H :    0.021733
  15 H :    0.017780
  16 S :    0.113759
  17 C :   -0.100515
  18 C :   -0.007175
  19 C :   -0.019611
  20 C :   -0.160189
  21 H :    0.007815
  22 C :    0.022564
  23 H :    0.048981
  24 H :    0.041375
  25 C :   -0.048570
  26 H :    0.030028
  27 H :    0.020317
  28 C :   -0.032754
  29 H :    0.019365
  30 H :    0.012607
  31 H :    0.037243
  32 H :    0.075261
  33 H :    0.046894
Sum of atomic charges:    0.0000000

LOEWDIN ATOMIC CHARGES
----------------------
   0 S :    0.374047
   1 C :   -0.192873
   2 C :   -0.080695
   3 C :   -0.050911
   4 C :   -0.189144
   5 H :    0.024666
   6 C :   -0.038963
   7 H :    0.043221
   8 H :    0.033616
   9 C :   -0.044802
  10 H :    0.026411
  11 H :    0.019790
  12 C :   -0.049842
  13 H :    0.025301
  14 H :    0.021151
  15 H :    0.022423
  16 S :    0.401956
  17 C :   -0.170319
  18 C :   -0.072204
  19 C :   -0.050991
  20 C :   -0.200457
  21 H :    0.028838
  22 C :   -0.028908
  23 H :    0.042533
  24 H :    0.030868
  25 C :   -0.040770
  26 H :    0.024393
  27 H :    0.023363
  28 C :   -0.067649
  29 H :    0.020158
  30 H :    0.023657
  31 H :    0.029387
  32 H :    0.043958
  33 H :    0.018790

  Mayer bond orders larger than 0.100000
B(  0-S ,  1-C ) :   1.1160 B(  0-S ,  4-C ) :   1.1258 B(  1-C ,  2-C ) :   1.6656
B(  1-C , 32-H ) :   0.9570 B(  2-C ,  3-C ) :   1.2080 B(  2-C ,  6-C ) :   1.0180
B(  3-C ,  4-C ) :   1.5789 B(  3-C ,  5-H ) :   0.9916 B(  4-C , 20-C ) :   1.0433
B(  6-C ,  7-H ) :   0.9356 B(  6-C ,  8-H ) :   0.9449 B(  6-C ,  9-C ) :   1.0710
B(  9-C , 10-H ) :   0.9585 B(  9-C , 11-H ) :   0.9651 B(  9-C , 12-C ) :   1.0568
B( 12-C , 13-H ) :   0.9771 B( 12-C , 14-H ) :   0.9753 B( 12-C , 15-H ) :   0.9754
B( 16-S , 17-C ) :   1.1808 B( 16-S , 20-C ) :   1.1360 B( 17-C , 18-C ) :   1.5836
B( 17-C , 20-C ) :   0.1091 B( 17-C , 33-H ) :   0.9707 B( 18-C , 19-C ) :   1.2507
B( 18-C , 21-H ) :   1.0023 B( 19-C , 20-C ) :   1.5769 B( 19-C , 22-C ) :   1.0322
B( 22-C , 23-H ) :   0.9429 B( 22-C , 24-H ) :   0.9449 B( 22-C , 25-C ) :   1.0455
B( 25-C , 26-H ) :   0.9509 B( 25-C , 27-H ) :   0.9565 B( 25-C , 28-C ) :   1.1064
B( 28-C , 29-H ) :   0.9691 B( 28-C , 30-H ) :   0.9680 B( 28-C , 31-H ) :   0.9729

Dispersion correction           -0.014444504
FINAL SINGLE POINT ENERGY     -1339.856867299188

DIPOLE MOMENT
-------------
                                X             Y             Z
Electronic contribution:     20.00320     -14.40529      -2.90041
Nuclear contribution   :    -20.49057      14.69897       2.73899
                        -----------------------------------------
Total Dipole Moment    :     -0.48737       0.29367      -0.16142
                        -----------------------------------------
Magnitude (a.u.)       :      0.59146
Magnitude (Debye)      :      1.50338

Rotational constants in cm-1:     0.018050     0.008774     0.007000
Rotational constants in MHz :   541.140247   263.033671   209.853797

                             ****ORCA TERMINATED NORMALLY****
TOTAL RUN TIME: 0 days 0 hours 0 minutes 30 seconds 636 msec
