                         Program Version 4.2.1 -  RELEASE  -
|  1> ! wB97X-D3 SP def2-SVP
|  2> %pal
|  3> nprocs 16
|  4> end
|  5>
|  6> * xyz 0 1
|  7> S 	 -100.892 	 51.9222 	 117.047
|  8> C 	 -99.3455 	 51.2135 	 117.189
|  9> C 	 -98.3803 	 52.1136 	 116.907
| 10> C 	 -98.8808 	 53.4387 	 116.661
| 11> C 	 -100.205 	 53.5385 	 116.86
| 12> H 	 -98.2005 	 54.2554 	 116.526
| 13> C 	 -96.9058 	 51.7338 	 116.998
| 14> H 	 -96.7042 	 51.2344 	 117.953
| 15> H 	 -96.4601 	 52.7005 	 117.11
| 16> C 	 -96.1757 	 50.883 	 115.866
| 17> H 	 -96.0824 	 51.4288 	 114.92
| 18> H 	 -95.1477 	 50.8031 	 116.23
| 19> C 	 -96.815 	 49.5245 	 115.761
| 20> H 	 -97.8515 	 49.6618 	 115.383
| 21> H 	 -96.1508 	 48.8799 	 115.093
| 22> H 	 -96.9548 	 49.0052 	 116.708
| 23> S 	 -102.313 	 54.8347 	 115.956
| 24> C 	 -103.006 	 56.2034 	 116.842
| 25> C 	 -102.071 	 56.6965 	 117.749
| 26> C 	 -100.911 	 55.8735 	 117.874
| 27> C 	 -100.977 	 54.7155 	 117.035
| 28> H 	 -102.286 	 57.6329 	 118.225
| 29> C 	 -99.9506 	 56.0114 	 119.036
| 30> H 	 -99.2609 	 55.1786 	 118.956
| 31> H 	 -100.653 	 55.7271 	 119.871
| 32> C 	 -99.253 	 57.3601 	 119.286
| 33> H 	 -100.059 	 58.0788 	 119.174
| 34> H 	 -98.5523 	 57.6605 	 118.503
| 35> C 	 -98.6999 	 57.2977 	 120.687
| 36> H 	 -98.158 	 58.2255 	 120.797
| 37> H 	 -98.0939 	 56.4114 	 120.94
| 38> H 	 -99.5001 	 57.3281 	 121.484
| 39> H 	 -99.2716 	 50.1679 	 117.362
| 40> H 	 -103.929 	 56.6956 	 116.679
| 41> *
| 42>
| 43>                          ****END OF INPUT****

CARTESIAN COORDINATES (ANGSTROEM)
---------------------------------
  S    -100.892000   51.922200  117.047000
  C    -99.345500   51.213500  117.189000
  C    -98.380300   52.113600  116.907000
  C    -98.880800   53.438700  116.661000
  C    -100.205000   53.538500  116.860000
  H    -98.200500   54.255400  116.526000
  C    -96.905800   51.733800  116.998000
  H    -96.704200   51.234400  117.953000
  H    -96.460100   52.700500  117.110000
  C    -96.175700   50.883000  115.866000
  H    -96.082400   51.428800  114.920000
  H    -95.147700   50.803100  116.230000
  C    -96.815000   49.524500  115.761000
  H    -97.851500   49.661800  115.383000
  H    -96.150800   48.879900  115.093000
  H    -96.954800   49.005200  116.708000
  S    -102.313000   54.834700  115.956000
  C    -103.006000   56.203400  116.842000
  C    -102.071000   56.696500  117.749000
  C    -100.911000   55.873500  117.874000
  C    -100.977000   54.715500  117.035000
  H    -102.286000   57.632900  118.225000
  C    -99.950600   56.011400  119.036000
  H    -99.260900   55.178600  118.956000
  H    -100.653000   55.727100  119.871000
  C    -99.253000   57.360100  119.286000
  H    -100.059000   58.078800  119.174000
  H    -98.552300   57.660500  118.503000
  C    -98.699900   57.297700  120.687000
  H    -98.158000   58.225500  120.797000
  H    -98.093900   56.411400  120.940000
  H    -99.500100   57.328100  121.484000
  H    -99.271600   50.167900  117.362000
  H    -103.929000   56.695600  116.679000

 Total Charge           Charge          ....    0
 Multiplicity           Mult            ....    1
 Number of Electrons    NEL             ....  134
 Basis Dimension        Dim             ....  322

ORBITAL ENERGIES
----------------

  NO   OCC          E(Eh)            E(eV)
   0   2.0000     -88.962211     -2420.7848
   1   2.0000     -88.959041     -2420.6986
   2   2.0000     -10.323630      -280.9203
   3   2.0000     -10.322323      -280.8847
   4   2.0000     -10.315189      -280.6906
   5   2.0000     -10.306111      -280.4435
   6   2.0000     -10.305606      -280.4298
   7   2.0000     -10.295424      -280.1527
   8   2.0000     -10.292896      -280.0839
   9   2.0000     -10.291396      -280.0431
  10   2.0000     -10.290612      -280.0218
  11   2.0000     -10.290204      -280.0107
  12   2.0000     -10.289411      -279.9891
  13   2.0000     -10.288616      -279.9675
  14   2.0000     -10.283786      -279.8360
  15   2.0000     -10.282420      -279.7989
  16   2.0000      -8.077091      -219.7888
  17   2.0000      -8.075105      -219.7348
  18   2.0000      -6.035581      -164.2365
  19   2.0000      -6.033595      -164.1825
  20   2.0000      -6.031467      -164.1246
  21   2.0000      -6.029458      -164.0699
  22   2.0000      -6.027976      -164.0296
  23   2.0000      -6.025741      -163.9688
  24   2.0000      -1.012755       -27.5585
  25   2.0000      -0.984922       -26.8011
  26   2.0000      -0.911855       -24.8128
  27   2.0000      -0.906324       -24.6623
  28   2.0000      -0.875719       -23.8295
  29   2.0000      -0.853725       -23.2310
  30   2.0000      -0.847312       -23.0565
  31   2.0000      -0.818108       -22.2619
  32   2.0000      -0.777245       -21.1499
  33   2.0000      -0.765041       -20.8178
  34   2.0000      -0.712113       -19.3776
  35   2.0000      -0.701982       -19.1019
  36   2.0000      -0.695930       -18.9372
  37   2.0000      -0.659604       -17.9487
  38   2.0000      -0.647521       -17.6200
  39   2.0000      -0.623087       -16.9551
  40   2.0000      -0.591875       -16.1057
  41   2.0000      -0.568948       -15.4819
  42   2.0000      -0.560433       -15.2502
  43   2.0000      -0.544122       -14.8063
  44   2.0000      -0.543699       -14.7948
  45   2.0000      -0.530655       -14.4399
  46   2.0000      -0.521994       -14.2042
  47   2.0000      -0.509000       -13.8506
  48   2.0000      -0.506504       -13.7827
  49   2.0000      -0.503370       -13.6974
  50   2.0000      -0.493406       -13.4263
  51   2.0000      -0.485085       -13.1998
  52   2.0000      -0.476298       -12.9607
  53   2.0000      -0.463909       -12.6236
  54   2.0000      -0.454959       -12.3801
  55   2.0000      -0.447092       -12.1660
  56   2.0000      -0.444769       -12.1028
  57   2.0000      -0.442264       -12.0346
  58   2.0000      -0.428558       -11.6617
  59   2.0000      -0.424106       -11.5405
  60   2.0000      -0.419135       -11.4052
  61   2.0000      -0.409439       -11.1414
  62   2.0000      -0.407629       -11.0922
  63   2.0000      -0.345265        -9.3951
  64   2.0000      -0.328729        -8.9452
  65   2.0000      -0.325608        -8.8602
  66   2.0000      -0.290505        -7.9050
  67   0.0000       0.029126         0.7926
  68   0.0000       0.067104         1.8260
  69   0.0000       0.109583         2.9819
  70   0.0000       0.125717         3.4209
  71   0.0000       0.128300         3.4912

MULLIKEN ATOMIC CHARGES
-----------------------
   0 S :    0.111823
   1 C :   -0.114697
   2 C :   -0.108167
   3 C :    0.067934
   4 C :   -0.153399
   5 H :    0.006591
   6 C :    0.038382
   7 H :    0.034170
   8 H :    0.001152
   9 C :   -0.040151
  10 H :    0.036221
  11 H :    0.028098
  12 C :   -0.080825
  13 H :    0.048952
  14 H :    0.048701
  15 H :    0.026660
  16 S :    0.103196
  17 C :   -0.076395
  18 C :   -0.054189
  19 C :    0.011329
  20 C :   -0.176521
  21 H :    0.019790
  22 C :    0.000153
  23 H :    0.018735
  24 H :    0.051075
  25 C :   -0.042801
  26 H :    0.016264
  27 H :    0.036450
  28 C :   -0.050660
  29 H :    0.030018
  30 H :    0.043489
  31 H :    0.035734
  32 H :    0.040854
  33 H :    0.042032
Sum of atomic charges:    0.0000000

LOEWDIN ATOMIC CHARGES
----------------------
   0 S :    0.409270
   1 C :   -0.192649
   2 C :   -0.073737
   3 C :   -0.052756
   4 C :   -0.197978
   5 H :    0.030621
   6 C :   -0.034627
   7 H :    0.033187
   8 H :    0.022043
   9 C :   -0.037339
  10 H :    0.026095
  11 H :    0.024650
  12 C :   -0.075308
  13 H :    0.030271
  14 H :    0.035189
  15 H :    0.020920
  16 S :    0.412602
  17 C :   -0.175151
  18 C :   -0.072016
  19 C :   -0.055346
  20 C :   -0.211181
  21 H :    0.028912
  22 C :   -0.037925
  23 H :    0.023642
  24 H :    0.044776
  25 C :   -0.040330
  26 H :    0.023093
  27 H :    0.027902
  28 C :   -0.067284
  29 H :    0.024528
  30 H :    0.029580
  31 H :    0.032243
  32 H :    0.021763
  33 H :    0.022340

  Mayer bond orders larger than 0.100000
B(  0-S ,  1-C ) :   1.1419 B(  0-S ,  4-C ) :   1.1373 B(  1-C ,  2-C ) :   1.6125
B(  1-C , 32-H ) :   0.9784 B(  2-C ,  3-C ) :   1.2367 B(  2-C ,  6-C ) :   1.0066
B(  3-C ,  4-C ) :   1.5741 B(  3-C ,  5-H ) :   1.0039 B(  4-C , 20-C ) :   1.0494
B(  6-C ,  7-H ) :   0.9505 B(  6-C ,  8-H ) :   0.9353 B(  6-C ,  9-C ) :   1.0678
B(  9-C , 10-H ) :   0.9572 B(  9-C , 11-H ) :   0.9528 B(  9-C , 12-C ) :   1.0795
B( 12-C , 13-H ) :   0.9695 B( 12-C , 14-H ) :   0.9703 B( 12-C , 15-H ) :   0.9727
B( 16-S , 17-C ) :   1.1492 B( 16-S , 20-C ) :   1.1654 B( 17-C , 18-C ) :   1.6110
B( 17-C , 20-C ) :   0.1083 B( 17-C , 33-H ) :   0.9727 B( 18-C , 19-C ) :   1.2380
B( 18-C , 21-H ) :   0.9891 B( 19-C , 20-C ) :   1.5416 B( 19-C , 22-C ) :   1.0370
B( 22-C , 23-H ) :   0.9353 B( 22-C , 24-H ) :   0.9477 B( 22-C , 25-C ) :   1.0456
B( 25-C , 26-H ) :   0.9547 B( 25-C , 27-H ) :   0.9543 B( 25-C , 28-C ) :   1.0791
B( 28-C , 29-H ) :   0.9721 B( 28-C , 30-H ) :   0.9748 B( 28-C , 31-H ) :   0.9734

Dispersion correction           -0.013804161
FINAL SINGLE POINT ENERGY     -1339.867479787030

DIPOLE MOMENT
-------------
                                X             Y             Z
Electronic contribution:    -22.88534      -1.17741     -10.19258
Nuclear contribution   :     23.42572       1.42233      10.57969
                        -----------------------------------------
Total Dipole Moment    :      0.54039       0.24492       0.38711
                        -----------------------------------------
Magnitude (a.u.)       :      0.70842
Magnitude (Debye)      :      1.80066

Rotational constants in cm-1:     0.019629     0.007989     0.006159
Rotational constants in MHz :   588.455311   239.505141   184.645013

                             ****ORCA TERMINATED NORMALLY****
TOTAL RUN TIME: 0 days 0 hours 0 minutes 35 seconds 246 msec
