                         Program Version 4.2.1 -  RELEASE  -
|  1> ! wB97X-D3 SP def2-SVP
|  2> %pal
|  3> nprocs 16
|  4> end
|  5>
|  6> * xyz 0 1
|  7> S 	 42.401 	 20.5577 	 45.3562
|  8> C 	 41.257 	 19.3278 	 45.1171
|  9> C 	 40.5643 	 19.5304 	 43.9314
| 10> C 	 41.0312 	 20.6272 	 43.2167
| 11> C 	 42.0442 	 21.3344 	 43.835
| 12> H 	 40.6718 	 21.1062 	 42.2837
| 13> C 	 39.6367 	 18.554 	 43.2283
| 14> H 	 39.0851 	 17.9183 	 43.9973
| 15> H 	 40.3831 	 17.9322 	 42.7844
| 16> C 	 38.7019 	 18.9998 	 42.1251
| 17> H 	 39.3339 	 19.4087 	 41.3071
| 18> H 	 38.2541 	 18.0988 	 41.6746
| 19> C 	 37.574 	 20.0024 	 42.6115
| 20> H 	 36.9843 	 20.5167 	 41.7613
| 21> H 	 36.8496 	 19.6159 	 43.3892
| 22> H 	 38.0135 	 20.8252 	 43.1755
| 23> S 	 44.4402 	 22.153 	 42.8898
| 24> C 	 44.6278 	 23.8207 	 42.425
| 25> C 	 43.5722 	 24.5803 	 42.7691
| 26> C 	 42.4641 	 23.761 	 43.2123
| 27> C 	 42.8191 	 22.4646 	 43.3882
| 28> H 	 43.567 	 25.6666 	 42.634
| 29> C 	 41.1403 	 24.3925 	 43.5449
| 30> H 	 41.2395 	 25.0282 	 44.4047
| 31> H 	 40.3777 	 23.6123 	 43.8718
| 32> C 	 40.5385 	 25.1022 	 42.3521
| 33> H 	 41.1355 	 26.0197 	 42.2858
| 34> H 	 39.5832 	 25.5019 	 42.5991
| 35> C 	 40.4142 	 24.4148 	 40.9928
| 36> H 	 39.8615 	 23.524 	 41.1247
| 37> H 	 41.4293 	 24.1516 	 40.5325
| 38> H 	 39.9678 	 25.0067 	 40.2238
| 39> H 	 41.1253 	 18.5143 	 45.8222
| 40> H 	 45.6565 	 24.2169 	 42.1584
| 41> *
| 42>
| 43>                          ****END OF INPUT****

CARTESIAN COORDINATES (ANGSTROEM)
---------------------------------
  S     42.401000   20.557700   45.356200
  C     41.257000   19.327800   45.117100
  C     40.564300   19.530400   43.931400
  C     41.031200   20.627200   43.216700
  C     42.044200   21.334400   43.835000
  H     40.671800   21.106200   42.283700
  C     39.636700   18.554000   43.228300
  H     39.085100   17.918300   43.997300
  H     40.383100   17.932200   42.784400
  C     38.701900   18.999800   42.125100
  H     39.333900   19.408700   41.307100
  H     38.254100   18.098800   41.674600
  C     37.574000   20.002400   42.611500
  H     36.984300   20.516700   41.761300
  H     36.849600   19.615900   43.389200
  H     38.013500   20.825200   43.175500
  S     44.440200   22.153000   42.889800
  C     44.627800   23.820700   42.425000
  C     43.572200   24.580300   42.769100
  C     42.464100   23.761000   43.212300
  C     42.819100   22.464600   43.388200
  H     43.567000   25.666600   42.634000
  C     41.140300   24.392500   43.544900
  H     41.239500   25.028200   44.404700
  H     40.377700   23.612300   43.871800
  C     40.538500   25.102200   42.352100
  H     41.135500   26.019700   42.285800
  H     39.583200   25.501900   42.599100
  C     40.414200   24.414800   40.992800
  H     39.861500   23.524000   41.124700
  H     41.429300   24.151600   40.532500
  H     39.967800   25.006700   40.223800
  H     41.125300   18.514300   45.822200
  H     45.656500   24.216900   42.158400

 Total Charge           Charge          ....    0
 Multiplicity           Mult            ....    1
 Number of Electrons    NEL             ....  134
 Basis Dimension        Dim             ....  322

ORBITAL ENERGIES
----------------

  NO   OCC          E(Eh)            E(eV)
   0   2.0000     -88.961805     -2420.7738
   1   2.0000     -88.960712     -2420.7440
   2   2.0000     -10.321324      -280.8575
   3   2.0000     -10.317825      -280.7623
   4   2.0000     -10.317541      -280.7546
   5   2.0000     -10.309639      -280.5395
   6   2.0000     -10.299435      -280.2619
   7   2.0000     -10.298123      -280.2262
   8   2.0000     -10.297005      -280.1957
   9   2.0000     -10.293622      -280.1037
  10   2.0000     -10.292551      -280.0745
  11   2.0000     -10.290960      -280.0313
  12   2.0000     -10.290763      -280.0259
  13   2.0000     -10.289125      -279.9813
  14   2.0000     -10.281336      -279.7694
  15   2.0000     -10.277007      -279.6516
  16   2.0000      -8.077691      -219.8051
  17   2.0000      -8.076685      -219.7778
  18   2.0000      -6.035935      -164.2462
  19   2.0000      -6.035164      -164.2252
  20   2.0000      -6.031838      -164.1346
  21   2.0000      -6.031124      -164.1152
  22   2.0000      -6.028875      -164.0540
  23   2.0000      -6.027285      -164.0108
  24   2.0000      -1.014927       -27.6176
  25   2.0000      -0.993068       -27.0228
  26   2.0000      -0.912753       -24.8373
  27   2.0000      -0.910011       -24.7627
  28   2.0000      -0.873182       -23.7605
  29   2.0000      -0.847419       -23.0595
  30   2.0000      -0.843014       -22.9396
  31   2.0000      -0.815927       -22.2025
  32   2.0000      -0.786168       -21.3927
  33   2.0000      -0.773750       -21.0548
  34   2.0000      -0.710672       -19.3384
  35   2.0000      -0.696885       -18.9632
  36   2.0000      -0.689345       -18.7580
  37   2.0000      -0.658110       -17.9081
  38   2.0000      -0.642805       -17.4916
  39   2.0000      -0.619809       -16.8659
  40   2.0000      -0.597392       -16.2559
  41   2.0000      -0.563034       -15.3209
  42   2.0000      -0.559016       -15.2116
  43   2.0000      -0.553617       -15.0647
  44   2.0000      -0.543981       -14.8025
  45   2.0000      -0.526807       -14.3352
  46   2.0000      -0.517361       -14.0781
  47   2.0000      -0.508820       -13.8457
  48   2.0000      -0.500239       -13.6122
  49   2.0000      -0.495724       -13.4893
  50   2.0000      -0.489074       -13.3084
  51   2.0000      -0.481559       -13.1039
  52   2.0000      -0.472346       -12.8532
  53   2.0000      -0.463363       -12.6087
  54   2.0000      -0.457761       -12.4563
  55   2.0000      -0.453234       -12.3331
  56   2.0000      -0.443136       -12.0584
  57   2.0000      -0.439217       -11.9517
  58   2.0000      -0.434518       -11.8238
  59   2.0000      -0.426754       -11.6126
  60   2.0000      -0.415580       -11.3085
  61   2.0000      -0.412365       -11.2210
  62   2.0000      -0.404089       -10.9958
  63   2.0000      -0.341835        -9.3018
  64   2.0000      -0.328815        -8.9475
  65   2.0000      -0.326593        -8.8870
  66   2.0000      -0.302810        -8.2399
  67   0.0000       0.045048         1.2258
  68   0.0000       0.066045         1.7972
  69   0.0000       0.118886         3.2351
  70   0.0000       0.127544         3.4706
  71   0.0000       0.130218         3.5434

MULLIKEN ATOMIC CHARGES
-----------------------
   0 S :    0.120816
   1 C :   -0.134963
   2 C :   -0.058032
   3 C :    0.029515
   4 C :   -0.205918
   5 H :    0.018026
   6 C :    0.024412
   7 H :    0.032846
   8 H :    0.044689
   9 C :   -0.053885
  10 H :    0.034811
  11 H :    0.037572
  12 C :   -0.097223
  13 H :    0.051111
  14 H :    0.042482
  15 H :    0.030017
  16 S :    0.112452
  17 C :   -0.112465
  18 C :   -0.030252
  19 C :   -0.031082
  20 C :   -0.169015
  21 H :    0.030666
  22 C :    0.076680
  23 H :    0.035758
  24 H :    0.031255
  25 C :   -0.082489
  26 H :    0.012803
  27 H :    0.015490
  28 C :   -0.032197
  29 H :    0.024432
  30 H :    0.043450
  31 H :    0.031831
  32 H :    0.049888
  33 H :    0.076520
Sum of atomic charges:    0.0000000

LOEWDIN ATOMIC CHARGES
----------------------
   0 S :    0.434974
   1 C :   -0.216780
   2 C :   -0.071651
   3 C :   -0.070894
   4 C :   -0.201789
   5 H :    0.037634
   6 C :   -0.038129
   7 H :    0.033369
   8 H :    0.038018
   9 C :   -0.044762
  10 H :    0.027930
  11 H :    0.031341
  12 C :   -0.085637
  13 H :    0.035576
  14 H :    0.032977
  15 H :    0.022537
  16 S :    0.412839
  17 C :   -0.189904
  18 C :   -0.072024
  19 C :   -0.052510
  20 C :   -0.215263
  21 H :    0.036286
  22 C :   -0.031670
  23 H :    0.033804
  24 H :    0.034558
  25 C :   -0.045510
  26 H :    0.019201
  27 H :    0.020330
  28 C :   -0.063221
  29 H :    0.017645
  30 H :    0.035742
  31 H :    0.026058
  32 H :    0.029095
  33 H :    0.039831

  Mayer bond orders larger than 0.100000
B(  0-S ,  1-C ) :   1.1691 B(  0-S ,  4-C ) :   1.1809 B(  1-C ,  2-C ) :   1.5616
B(  1-C ,  4-C ) :   0.1119 B(  1-C , 32-H ) :   0.9750 B(  2-C ,  3-C ) :   1.2602
B(  2-C ,  6-C ) :   1.0009 B(  3-C ,  4-C ) :   1.5702 B(  3-C ,  5-H ) :   0.9887
B(  4-C , 20-C ) :   0.9997 B(  6-C ,  7-H ) :   0.9428 B(  6-C ,  8-H ) :   0.9372
B(  6-C ,  9-C ) :   1.0930 B(  9-C , 10-H ) :   0.9444 B(  9-C , 11-H ) :   0.9517
B(  9-C , 12-C ) :   1.0570 B( 12-C , 13-H ) :   0.9770 B( 12-C , 14-H ) :   0.9749
B( 12-C , 15-H ) :   0.9763 B( 16-S , 17-C ) :   1.1485 B( 16-S , 20-C ) :   1.1429
B( 17-C , 18-C ) :   1.6466 B( 17-C , 33-H ) :   0.9552 B( 18-C , 19-C ) :   1.1910
B( 18-C , 21-H ) :   0.9877 B( 19-C , 20-C ) :   1.6483 B( 19-C , 22-C ) :   1.0476
B( 22-C , 23-H ) :   0.9380 B( 22-C , 24-H ) :   0.9311 B( 22-C , 25-C ) :   1.0710
B( 25-C , 26-H ) :   0.9511 B( 25-C , 27-H ) :   0.9524 B( 25-C , 28-C ) :   1.0799
B( 28-C , 29-H ) :   0.9732 B( 28-C , 30-H ) :   0.9684 B( 28-C , 31-H ) :   0.9710

Dispersion correction           -0.015425353
FINAL SINGLE POINT ENERGY     -1339.883497842514

DIPOLE MOMENT
-------------
                                X             Y             Z
Electronic contribution:     24.72198      -4.06026      12.20911
Nuclear contribution   :    -25.10150       4.27152     -12.44648
                        -----------------------------------------
Total Dipole Moment    :     -0.37953       0.21126      -0.23737
                        -----------------------------------------
Magnitude (a.u.)       :      0.49499
Magnitude (Debye)      :      1.25816

Rotational constants in cm-1:     0.018158     0.010057     0.007515
Rotational constants in MHz :   544.349426   301.514793   225.293464

                             ****ORCA TERMINATED NORMALLY****
TOTAL RUN TIME: 0 days 0 hours 0 minutes 36 seconds 909 msec
