                         Program Version 4.2.1 -  RELEASE  -
|  1> ! wB97X-D3 SP def2-SVP
|  2> %pal
|  3> nprocs 16
|  4> end
|  5>
|  6> * xyz 0 1
|  7> S 	 -42.155 	 23.9977 	 80.1553
|  8> C 	 -41.4509 	 25.5602 	 80.2912
|  9> C 	 -40.0588 	 25.5123 	 80.1764
| 10> C 	 -39.635 	 24.3043 	 79.5918
| 11> C 	 -40.6741 	 23.4014 	 79.3541
| 12> H 	 -38.61 	 24.0237 	 79.4208
| 13> C 	 -39.0739 	 26.5093 	 80.6409
| 14> H 	 -39.4642 	 27.5512 	 80.5106
| 15> H 	 -38.2329 	 26.4958 	 79.9534
| 16> C 	 -38.5292 	 26.3985 	 82.0024
| 17> H 	 -39.3308 	 26.1806 	 82.7312
| 18> H 	 -37.8308 	 25.599 	 81.936
| 19> C 	 -37.9058 	 27.6753 	 82.5754
| 20> H 	 -37.6178 	 27.4306 	 83.6248
| 21> H 	 -37.0235 	 27.9656 	 82.0613
| 22> H 	 -38.5861 	 28.4671 	 82.644
| 23> S 	 -41.7429 	 20.9517 	 79.5354
| 24> C 	 -40.9085 	 19.5175 	 78.9548
| 25> C 	 -39.8489 	 19.7868 	 78.1549
| 26> C 	 -39.4819 	 21.2066 	 78.3247
| 27> C 	 -40.454 	 21.9857 	 79.0323
| 28> H 	 -39.4044 	 18.9678 	 77.6539
| 29> C 	 -38.2878 	 21.7482 	 77.5776
| 30> H 	 -37.5287 	 20.9804 	 77.8194
| 31> H 	 -38.0332 	 22.6954 	 77.9464
| 32> C 	 -38.4632 	 21.9247 	 76.0839
| 33> H 	 -38.8369 	 20.9715 	 75.7332
| 34> H 	 -37.5082 	 22.129 	 75.5555
| 35> C 	 -39.3023 	 23.1091 	 75.6242
| 36> H 	 -38.7807 	 24.07 	 75.7315
| 37> H 	 -40.2576 	 23.2693 	 76.1514
| 38> H 	 -39.5903 	 22.9994 	 74.5395
| 39> H 	 -41.8536 	 26.5263 	 80.6683
| 40> H 	 -41.3596 	 18.5781 	 78.9826
| 41> *
| 42>
| 43>                          ****END OF INPUT****

CARTESIAN COORDINATES (ANGSTROEM)
---------------------------------
  S    -42.155000   23.997700   80.155300
  C    -41.450900   25.560200   80.291200
  C    -40.058800   25.512300   80.176400
  C    -39.635000   24.304300   79.591800
  C    -40.674100   23.401400   79.354100
  H    -38.610000   24.023700   79.420800
  C    -39.073900   26.509300   80.640900
  H    -39.464200   27.551200   80.510600
  H    -38.232900   26.495800   79.953400
  C    -38.529200   26.398500   82.002400
  H    -39.330800   26.180600   82.731200
  H    -37.830800   25.599000   81.936000
  C    -37.905800   27.675300   82.575400
  H    -37.617800   27.430600   83.624800
  H    -37.023500   27.965600   82.061300
  H    -38.586100   28.467100   82.644000
  S    -41.742900   20.951700   79.535400
  C    -40.908500   19.517500   78.954800
  C    -39.848900   19.786800   78.154900
  C    -39.481900   21.206600   78.324700
  C    -40.454000   21.985700   79.032300
  H    -39.404400   18.967800   77.653900
  C    -38.287800   21.748200   77.577600
  H    -37.528700   20.980400   77.819400
  H    -38.033200   22.695400   77.946400
  C    -38.463200   21.924700   76.083900
  H    -38.836900   20.971500   75.733200
  H    -37.508200   22.129000   75.555500
  C    -39.302300   23.109100   75.624200
  H    -38.780700   24.070000   75.731500
  H    -40.257600   23.269300   76.151400
  H    -39.590300   22.999400   74.539500
  H    -41.853600   26.526300   80.668300
  H    -41.359600   18.578100   78.982600

 Total Charge           Charge          ....    0
 Multiplicity           Mult            ....    1
 Number of Electrons    NEL             ....  134
 Basis Dimension        Dim             ....  322

ORBITAL ENERGIES
----------------

  NO   OCC          E(Eh)            E(eV)
   0   2.0000     -88.974696     -2421.1246
   1   2.0000     -88.961006     -2420.7520
   2   2.0000     -10.335888      -281.2538
   3   2.0000     -10.332974      -281.1745
   4   2.0000     -10.316796      -280.7343
   5   2.0000     -10.311389      -280.5872
   6   2.0000     -10.309924      -280.5473
   7   2.0000     -10.297625      -280.2126
   8   2.0000     -10.295930      -280.1665
   9   2.0000     -10.293190      -280.0919
  10   2.0000     -10.286142      -279.9001
  11   2.0000     -10.285116      -279.8722
  12   2.0000     -10.284023      -279.8425
  13   2.0000     -10.281057      -279.7618
  14   2.0000     -10.276255      -279.6311
  15   2.0000     -10.275287      -279.6048
  16   2.0000      -8.088777      -220.1068
  17   2.0000      -8.076660      -219.7771
  18   2.0000      -6.047453      -164.5596
  19   2.0000      -6.043691      -164.4572
  20   2.0000      -6.039064      -164.3313
  21   2.0000      -6.035230      -164.2269
  22   2.0000      -6.031220      -164.1178
  23   2.0000      -6.027147      -164.0070
  24   2.0000      -1.008631       -27.4462
  25   2.0000      -0.985496       -26.8167
  26   2.0000      -0.923583       -25.1320
  27   2.0000      -0.910940       -24.7879
  28   2.0000      -0.875368       -23.8200
  29   2.0000      -0.857247       -23.3269
  30   2.0000      -0.842397       -22.9228
  31   2.0000      -0.818810       -22.2810
  32   2.0000      -0.784419       -21.3451
  33   2.0000      -0.770970       -20.9792
  34   2.0000      -0.708390       -19.2763
  35   2.0000      -0.700408       -19.0591
  36   2.0000      -0.692004       -18.8304
  37   2.0000      -0.662851       -18.0371
  38   2.0000      -0.633840       -17.2477
  39   2.0000      -0.627991       -17.0885
  40   2.0000      -0.597550       -16.2602
  41   2.0000      -0.583587       -15.8802
  42   2.0000      -0.568702       -15.4752
  43   2.0000      -0.550235       -14.9727
  44   2.0000      -0.543556       -14.7909
  45   2.0000      -0.526022       -14.3138
  46   2.0000      -0.517942       -14.0939
  47   2.0000      -0.514308       -13.9950
  48   2.0000      -0.502345       -13.6695
  49   2.0000      -0.499324       -13.5873
  50   2.0000      -0.495946       -13.4954
  51   2.0000      -0.476677       -12.9711
  52   2.0000      -0.473569       -12.8865
  53   2.0000      -0.466743       -12.7007
  54   2.0000      -0.460646       -12.5348
  55   2.0000      -0.451390       -12.2830
  56   2.0000      -0.441229       -12.0065
  57   2.0000      -0.439742       -11.9660
  58   2.0000      -0.432834       -11.7780
  59   2.0000      -0.424374       -11.5478
  60   2.0000      -0.418998       -11.4015
  61   2.0000      -0.416066       -11.3217
  62   2.0000      -0.403062       -10.9679
  63   2.0000      -0.365693        -9.9510
  64   2.0000      -0.336744        -9.1633
  65   2.0000      -0.321040        -8.7359
  66   2.0000      -0.276820        -7.5327
  67   0.0000       0.014329         0.3899
  68   0.0000       0.072130         1.9627
  69   0.0000       0.095339         2.5943
  70   0.0000       0.108328         2.9478
  71   0.0000       0.141123         3.8401

MULLIKEN ATOMIC CHARGES
-----------------------
   0 S :    0.112402
   1 C :   -0.092051
   2 C :   -0.092061
   3 C :   -0.017830
   4 C :   -0.068331
   5 H :    0.017145
   6 C :    0.048713
   7 H :    0.011290
   8 H :    0.012705
   9 C :   -0.053175
  10 H :    0.028857
  11 H :    0.017472
  12 C :   -0.021744
  13 H :    0.034003
  14 H :    0.023499
  15 H :    0.021646
  16 S :    0.063976
  17 C :   -0.058873
  18 C :   -0.019288
  19 C :   -0.100978
  20 C :   -0.124813
  21 H :    0.019233
  22 C :    0.101026
  23 H :    0.033328
  24 H :   -0.016080
  25 C :   -0.044385
  26 H :    0.015653
  27 H :    0.033747
  28 C :   -0.088543
  29 H :    0.031008
  30 H :    0.043650
  31 H :    0.040672
  32 H :    0.053435
  33 H :    0.034690
Sum of atomic charges:    0.0000000

LOEWDIN ATOMIC CHARGES
----------------------
   0 S :    0.410150
   1 C :   -0.212432
   2 C :   -0.063021
   3 C :   -0.056572
   4 C :   -0.183719
   5 H :    0.027753
   6 C :   -0.043200
   7 H :    0.030369
   8 H :    0.027963
   9 C :   -0.038299
  10 H :    0.028513
  11 H :    0.019932
  12 C :   -0.053039
  13 H :    0.034410
  14 H :    0.018128
  15 H :    0.016552
  16 S :    0.395082
  17 C :   -0.167748
  18 C :   -0.061466
  19 C :   -0.058368
  20 C :   -0.194915
  21 H :    0.032114
  22 C :   -0.033526
  23 H :    0.038129
  24 H :    0.014164
  25 C :   -0.040702
  26 H :    0.018364
  27 H :    0.030606
  28 C :   -0.074800
  29 H :    0.024495
  30 H :    0.027039
  31 H :    0.034220
  32 H :    0.038998
  33 H :    0.014825

  Mayer bond orders larger than 0.100000
B(  0-S ,  1-C ) :   1.1415 B(  0-S ,  4-C ) :   1.1442 B(  1-C ,  2-C ) :   1.5808
B(  1-C , 32-H ) :   0.9588 B(  2-C ,  3-C ) :   1.2855 B(  2-C ,  6-C ) :   1.0459
B(  3-C ,  4-C ) :   1.5204 B(  3-C ,  5-H ) :   0.9926 B(  4-C , 20-C ) :   1.0904
B(  6-C ,  7-H ) :   0.9337 B(  6-C ,  8-H ) :   0.9321 B(  6-C ,  9-C ) :   1.0685
B(  9-C , 10-H ) :   0.9548 B(  9-C , 11-H ) :   0.9507 B(  9-C , 12-C ) :   1.0936
B( 12-C , 13-H ) :   0.9733 B( 12-C , 14-H ) :   0.9748 B( 12-C , 15-H ) :   0.9735
B( 16-S , 17-C ) :   1.1469 B( 16-S , 20-C ) :   1.1301 B( 17-C , 18-C ) :   1.6546
B( 17-C , 33-H ) :   0.9694 B( 18-C , 19-C ) :   1.1990 B( 18-C , 21-H ) :   0.9926
B( 19-C , 20-C ) :   1.5774 B( 19-C , 22-C ) :   1.0520 B( 22-C , 23-H ) :   0.9264
B( 22-C , 24-H ) :   0.9336 B( 22-C , 25-C ) :   1.0791 B( 25-C , 26-H ) :   0.9547
B( 25-C , 27-H ) :   0.9522 B( 25-C , 28-C ) :   1.0741 B( 28-C , 29-H ) :   0.9734
B( 28-C , 30-H ) :   0.9776 B( 28-C , 31-H ) :   0.9717

Dispersion correction           -0.014248734
FINAL SINGLE POINT ENERGY     -1339.851737088042

DIPOLE MOMENT
-------------
                                X             Y             Z
Electronic contribution:    -20.67363     -14.97255       4.15237
Nuclear contribution   :     21.26785      15.12709      -4.16831
                        -----------------------------------------
Total Dipole Moment    :      0.59422       0.15454      -0.01594
                        -----------------------------------------
Magnitude (a.u.)       :      0.61419
Magnitude (Debye)      :      1.56116

Rotational constants in cm-1:     0.020220     0.008118     0.006822
Rotational constants in MHz :   606.191183   243.373525   204.529948

                             ****ORCA TERMINATED NORMALLY****
TOTAL RUN TIME: 0 days 0 hours 0 minutes 30 seconds 137 msec
