                         Program Version 4.2.1 -  RELEASE  -
|  1> ! wB97X-D3 SP def2-SVP
|  2> %pal
|  3> nprocs 16
|  4> end
|  5>
|  6> * xyz 0 1
|  7> S 	 26.7702 	 4.87538 	 75.2882
|  8> C 	 26.6299 	 5.11533 	 77.0113
|  9> C 	 25.3443 	 4.80265 	 77.4191
| 10> C 	 24.4809 	 4.52457 	 76.2891
| 11> C 	 25.0688 	 4.49454 	 75.0182
| 12> H 	 23.5039 	 4.33584 	 76.312
| 13> C 	 24.91 	 4.77298 	 78.8265
| 14> H 	 25.7934 	 5.06681 	 79.4594
| 15> H 	 24.6064 	 3.74115 	 78.9829
| 16> C 	 23.8139 	 5.86528 	 79.1677
| 17> H 	 24.1517 	 6.85865 	 78.7866
| 18> H 	 22.8838 	 5.61181 	 78.5975
| 19> C 	 23.4797 	 5.95606 	 80.676
| 20> H 	 23.3328 	 6.9517 	 81.1526
| 21> H 	 22.6624 	 5.35894 	 80.9433
| 22> H 	 24.2987 	 5.42546 	 81.1729
| 23> S 	 25.372 	 2.66587 	 72.8777
| 24> C 	 24.0329 	 2.28245 	 71.8387
| 25> C 	 22.9956 	 3.17091 	 72.143
| 26> C 	 23.2513 	 4.09878 	 73.2024
| 27> C 	 24.5177 	 4.0091 	 73.7159
| 28> H 	 22.1107 	 3.04439 	 71.5682
| 29> C 	 22.0773 	 4.95267 	 73.6981
| 30> H 	 21.6179 	 4.58578 	 74.588
| 31> H 	 21.2771 	 5.01043 	 72.9859
| 32> C 	 22.4097 	 6.34155 	 73.9933
| 33> H 	 23.1376 	 6.6739 	 73.2455
| 34> H 	 22.8593 	 6.28218 	 74.9409
| 35> C 	 21.185 	 7.30809 	 74.0806
| 36> H 	 20.5932 	 7.09963 	 74.9938
| 37> H 	 20.4285 	 7.25114 	 73.2986
| 38> H 	 21.5661 	 8.37139 	 74.1236
| 39> H 	 27.4441 	 5.29603 	 77.6915
| 40> H 	 24.0412 	 1.4993 	 71.1857
| 41> *
| 42>
| 43>                          ****END OF INPUT****

CARTESIAN COORDINATES (ANGSTROEM)
---------------------------------
  S     26.770200    4.875380   75.288200
  C     26.629900    5.115330   77.011300
  C     25.344300    4.802650   77.419100
  C     24.480900    4.524570   76.289100
  C     25.068800    4.494540   75.018200
  H     23.503900    4.335840   76.312000
  C     24.910000    4.772980   78.826500
  H     25.793400    5.066810   79.459400
  H     24.606400    3.741150   78.982900
  C     23.813900    5.865280   79.167700
  H     24.151700    6.858650   78.786600
  H     22.883800    5.611810   78.597500
  C     23.479700    5.956060   80.676000
  H     23.332800    6.951700   81.152600
  H     22.662400    5.358940   80.943300
  H     24.298700    5.425460   81.172900
  S     25.372000    2.665870   72.877700
  C     24.032900    2.282450   71.838700
  C     22.995600    3.170910   72.143000
  C     23.251300    4.098780   73.202400
  C     24.517700    4.009100   73.715900
  H     22.110700    3.044390   71.568200
  C     22.077300    4.952670   73.698100
  H     21.617900    4.585780   74.588000
  H     21.277100    5.010430   72.985900
  C     22.409700    6.341550   73.993300
  H     23.137600    6.673900   73.245500
  H     22.859300    6.282180   74.940900
  C     21.185000    7.308090   74.080600
  H     20.593200    7.099630   74.993800
  H     20.428500    7.251140   73.298600
  H     21.566100    8.371390   74.123600
  H     27.444100    5.296030   77.691500
  H     24.041200    1.499300   71.185700

 Total Charge           Charge          ....    0
 Multiplicity           Mult            ....    1
 Number of Electrons    NEL             ....  134
 Basis Dimension        Dim             ....  322

ORBITAL ENERGIES
----------------

  NO   OCC          E(Eh)            E(eV)
   0   2.0000     -88.965723     -2420.8804
   1   2.0000     -88.962828     -2420.8016
   2   2.0000     -10.339336      -281.3476
   3   2.0000     -10.337757      -281.3047
   4   2.0000     -10.318792      -280.7886
   5   2.0000     -10.315133      -280.6891
   6   2.0000     -10.309187      -280.5272
   7   2.0000     -10.302368      -280.3417
   8   2.0000     -10.299230      -280.2563
   9   2.0000     -10.298475      -280.2358
  10   2.0000     -10.296046      -280.1697
  11   2.0000     -10.290397      -280.0159
  12   2.0000     -10.284005      -279.8420
  13   2.0000     -10.283128      -279.8182
  14   2.0000     -10.277896      -279.6758
  15   2.0000     -10.272467      -279.5280
  16   2.0000      -8.080088      -219.8704
  17   2.0000      -8.077415      -219.7976
  18   2.0000      -6.038691      -164.3211
  19   2.0000      -6.035990      -164.2476
  20   2.0000      -6.034472      -164.2063
  21   2.0000      -6.031771      -164.1328
  22   2.0000      -6.030898      -164.1091
  23   2.0000      -6.028259      -164.0373
  24   2.0000      -1.004049       -27.3216
  25   2.0000      -0.984936       -26.8015
  26   2.0000      -0.920139       -25.0382
  27   2.0000      -0.909839       -24.7580
  28   2.0000      -0.869093       -23.6492
  29   2.0000      -0.849220       -23.1084
  30   2.0000      -0.843362       -22.9490
  31   2.0000      -0.819579       -22.3019
  32   2.0000      -0.783453       -21.3188
  33   2.0000      -0.773403       -21.0454
  34   2.0000      -0.713490       -19.4150
  35   2.0000      -0.701692       -19.0940
  36   2.0000      -0.689056       -18.7502
  37   2.0000      -0.668504       -18.1909
  38   2.0000      -0.650247       -17.6941
  39   2.0000      -0.623021       -16.9533
  40   2.0000      -0.604095       -16.4383
  41   2.0000      -0.575667       -15.6647
  42   2.0000      -0.570834       -15.5332
  43   2.0000      -0.562597       -15.3091
  44   2.0000      -0.532572       -14.4920
  45   2.0000      -0.526269       -14.3205
  46   2.0000      -0.520695       -14.1688
  47   2.0000      -0.512820       -13.9546
  48   2.0000      -0.506961       -13.7951
  49   2.0000      -0.504824       -13.7370
  50   2.0000      -0.492679       -13.4065
  51   2.0000      -0.486047       -13.2260
  52   2.0000      -0.474860       -12.9216
  53   2.0000      -0.462114       -12.5748
  54   2.0000      -0.458804       -12.4847
  55   2.0000      -0.449391       -12.2285
  56   2.0000      -0.438942       -11.9442
  57   2.0000      -0.435396       -11.8477
  58   2.0000      -0.430706       -11.7201
  59   2.0000      -0.422039       -11.4843
  60   2.0000      -0.416373       -11.3301
  61   2.0000      -0.415567       -11.3082
  62   2.0000      -0.410276       -11.1642
  63   2.0000      -0.352953        -9.6043
  64   2.0000      -0.332363        -9.0441
  65   2.0000      -0.325268        -8.8510
  66   2.0000      -0.295860        -8.0507
  67   0.0000       0.025243         0.6869
  68   0.0000       0.066870         1.8196
  69   0.0000       0.116031         3.1574
  70   0.0000       0.120586         3.2813
  71   0.0000       0.125463         3.4140

MULLIKEN ATOMIC CHARGES
-----------------------
   0 S :    0.092801
   1 C :   -0.104984
   2 C :   -0.103513
   3 C :    0.096807
   4 C :   -0.164531
   5 H :   -0.060380
   6 C :    0.054679
   7 H :    0.028317
   8 H :    0.048648
   9 C :   -0.119686
  10 H :    0.043735
  11 H :    0.038007
  12 C :   -0.023696
  13 H :    0.049953
  14 H :    0.017683
  15 H :    0.017681
  16 S :    0.090166
  17 C :   -0.057985
  18 C :   -0.034110
  19 C :   -0.036151
  20 C :   -0.101780
  21 H :    0.011358
  22 C :    0.099927
  23 H :    0.022465
  24 H :   -0.001083
  25 C :   -0.074903
  26 H :    0.036554
  27 H :    0.018596
  28 C :   -0.068674
  29 H :    0.026341
  30 H :    0.028395
  31 H :    0.049591
  32 H :    0.049693
  33 H :    0.030079
Sum of atomic charges:    0.0000000

LOEWDIN ATOMIC CHARGES
----------------------
   0 S :    0.400031
   1 C :   -0.196578
   2 C :   -0.064741
   3 C :   -0.051148
   4 C :   -0.182193
   5 H :    0.001522
   6 C :   -0.035105
   7 H :    0.035420
   8 H :    0.036079
   9 C :   -0.042092
  10 H :    0.030558
  11 H :    0.024100
  12 C :   -0.073113
  13 H :    0.034044
  14 H :    0.018784
  15 H :    0.026728
  16 S :    0.397546
  17 C :   -0.162998
  18 C :   -0.067002
  19 C :   -0.050354
  20 C :   -0.185878
  21 H :    0.026188
  22 C :   -0.028535
  23 H :    0.026892
  24 H :    0.024377
  25 C :   -0.042004
  26 H :    0.027057
  27 H :    0.018084
  28 C :   -0.070437
  29 H :    0.025625
  30 H :    0.019815
  31 H :    0.036530
  32 H :    0.030078
  33 H :    0.012720

  Mayer bond orders larger than 0.100000
B(  0-S ,  1-C ) :   1.1424 B(  0-S ,  4-C ) :   1.1557 B(  1-C ,  2-C ) :   1.5968
B(  1-C , 32-H ) :   0.9677 B(  2-C ,  3-C ) :   1.2389 B(  2-C ,  6-C ) :   1.0437
B(  3-C ,  4-C ) :   1.5573 B(  3-C ,  5-H ) :   1.0079 B(  4-C , 20-C ) :   1.0270
B(  6-C ,  7-H ) :   0.9363 B(  6-C ,  8-H ) :   0.9332 B(  6-C ,  9-C ) :   1.0563
B(  9-C , 10-H ) :   0.9623 B(  9-C , 11-H ) :   0.9611 B(  9-C , 12-C ) :   1.0637
B( 12-C , 13-H ) :   0.9784 B( 12-C , 14-H ) :   0.9729 B( 12-C , 15-H ) :   0.9742
B( 16-S , 17-C ) :   1.1696 B( 16-S , 20-C ) :   1.1281 B( 17-C , 18-C ) :   1.5787
B( 17-C , 33-H ) :   0.9843 B( 18-C , 19-C ) :   1.2483 B( 18-C , 21-H ) :   1.0014
B( 19-C , 20-C ) :   1.5967 B( 19-C , 22-C ) :   1.0372 B( 22-C , 23-H ) :   0.9245
B( 22-C , 24-H ) :   0.9366 B( 22-C , 25-C ) :   1.0648 B( 25-C , 26-H ) :   0.9619
B( 25-C , 27-H ) :   0.9443 B( 25-C , 28-C ) :   1.0863 B( 28-C , 29-H ) :   0.9728
B( 28-C , 30-H ) :   0.9765 B( 28-C , 31-H ) :   0.9759

Dispersion correction           -0.014082383
FINAL SINGLE POINT ENERGY     -1339.856330069184

DIPOLE MOMENT
-------------
                                X             Y             Z
Electronic contribution:     20.57353     -14.69175     -18.78795
Nuclear contribution   :    -21.24741      14.59720      19.20552
                        -----------------------------------------
Total Dipole Moment    :     -0.67388      -0.09455       0.41757
                        -----------------------------------------
Magnitude (a.u.)       :      0.79839
Magnitude (Debye)      :      2.02933

Rotational constants in cm-1:     0.017772     0.008743     0.006645
Rotational constants in MHz :   532.804846   262.118628   199.224286

                             ****ORCA TERMINATED NORMALLY****
TOTAL RUN TIME: 0 days 0 hours 0 minutes 34 seconds 418 msec
