                         Program Version 4.2.1 -  RELEASE  -
|  1> ! wB97X-D3 SP def2-SVP
|  2> %pal
|  3> nprocs 16
|  4> end
|  5>
|  6> * xyz 0 1
|  7> S 	 32.8196 	 18.145 	 48.5281
|  8> C 	 33.5106 	 19.398 	 49.5342
|  9> C 	 34.4004 	 18.9383 	 50.419
| 10> C 	 34.2588 	 17.4862 	 50.5523
| 11> C 	 33.5474 	 16.874 	 49.545
| 12> H 	 34.6843 	 16.873 	 51.3348
| 13> C 	 35.1368 	 19.7889 	 51.4035
| 14> H 	 34.5039 	 20.2801 	 52.1825
| 15> H 	 35.6417 	 20.5196 	 50.7591
| 16> C 	 36.1909 	 18.9652 	 52.1766
| 17> H 	 35.7033 	 18.288 	 52.8396
| 18> H 	 36.7382 	 18.4163 	 51.4537
| 19> C 	 37.1848 	 19.9064 	 52.8463
| 20> H 	 36.6563 	 20.4742 	 53.6506
| 21> H 	 37.9668 	 19.3317 	 53.3743
| 22> H 	 37.7286 	 20.521 	 52.1201
| 23> S 	 31.6729 	 14.731 	 49.2829
| 24> C 	 32.3307 	 13.1609 	 49.0871
| 25> C 	 33.6553 	 13.1046 	 49.3728
| 26> C 	 34.2613 	 14.4133 	 49.5024
| 27> C 	 33.2965 	 15.4317 	 49.3896
| 28> H 	 34.2739 	 12.2056 	 49.5074
| 29> C 	 35.7657 	 14.589 	 49.5829
| 30> H 	 36.0954 	 13.7219 	 50.0889
| 31> H 	 36.0174 	 15.434 	 50.2106
| 32> C 	 36.6094 	 14.6656 	 48.2929
| 33> H 	 36.4581 	 13.8135 	 47.6553
| 34> H 	 37.6161 	 14.6327 	 48.5014
| 35> C 	 36.2385 	 15.9628 	 47.549
| 36> H 	 36.7457 	 16.1586 	 46.6353
| 37> H 	 36.1759 	 16.7767 	 48.2092
| 38> H 	 35.3068 	 15.615 	 47.2331
| 39> H 	 33.397 	 20.4968 	 49.4096
| 40> H 	 31.7319 	 12.2403 	 48.8601
| 41> *
| 42>
| 43>                          ****END OF INPUT****

CARTESIAN COORDINATES (ANGSTROEM)
---------------------------------
  S     32.819600   18.145000   48.528100
  C     33.510600   19.398000   49.534200
  C     34.400400   18.938300   50.419000
  C     34.258800   17.486200   50.552300
  C     33.547400   16.874000   49.545000
  H     34.684300   16.873000   51.334800
  C     35.136800   19.788900   51.403500
  H     34.503900   20.280100   52.182500
  H     35.641700   20.519600   50.759100
  C     36.190900   18.965200   52.176600
  H     35.703300   18.288000   52.839600
  H     36.738200   18.416300   51.453700
  C     37.184800   19.906400   52.846300
  H     36.656300   20.474200   53.650600
  H     37.966800   19.331700   53.374300
  H     37.728600   20.521000   52.120100
  S     31.672900   14.731000   49.282900
  C     32.330700   13.160900   49.087100
  C     33.655300   13.104600   49.372800
  C     34.261300   14.413300   49.502400
  C     33.296500   15.431700   49.389600
  H     34.273900   12.205600   49.507400
  C     35.765700   14.589000   49.582900
  H     36.095400   13.721900   50.088900
  H     36.017400   15.434000   50.210600
  C     36.609400   14.665600   48.292900
  H     36.458100   13.813500   47.655300
  H     37.616100   14.632700   48.501400
  C     36.238500   15.962800   47.549000
  H     36.745700   16.158600   46.635300
  H     36.175900   16.776700   48.209200
  H     35.306800   15.615000   47.233100
  H     33.397000   20.496800   49.409600
  H     31.731900   12.240300   48.860100

 Total Charge           Charge          ....    0
 Multiplicity           Mult            ....    1
 Number of Electrons    NEL             ....  134
 Basis Dimension        Dim             ....  322

ORBITAL ENERGIES
----------------

  NO   OCC          E(Eh)            E(eV)
   0   2.0000     -88.967773     -2420.9362
   1   2.0000     -88.963031     -2420.8071
   2   2.0000     -10.330102      -281.0964
   3   2.0000     -10.329687      -281.0851
   4   2.0000     -10.318700      -280.7861
   5   2.0000     -10.311059      -280.5782
   6   2.0000     -10.305461      -280.4258
   7   2.0000     -10.295469      -280.1539
   8   2.0000     -10.294815      -280.1362
   9   2.0000     -10.294612      -280.1306
  10   2.0000     -10.294331      -280.1230
  11   2.0000     -10.286367      -279.9063
  12   2.0000     -10.283844      -279.8376
  13   2.0000     -10.282072      -279.7894
  14   2.0000     -10.274967      -279.5961
  15   2.0000     -10.253895      -279.0227
  16   2.0000      -8.082742      -219.9426
  17   2.0000      -8.077313      -219.7949
  18   2.0000      -6.041279      -164.3916
  19   2.0000      -6.037321      -164.2839
  20   2.0000      -6.036065      -164.2497
  21   2.0000      -6.033347      -164.1757
  22   2.0000      -6.031908      -164.1365
  23   2.0000      -6.027823      -164.0254
  24   2.0000      -1.004278       -27.3278
  25   2.0000      -0.986065       -26.8322
  26   2.0000      -0.916483       -24.9388
  27   2.0000      -0.911821       -24.8119
  28   2.0000      -0.871474       -23.7140
  29   2.0000      -0.850507       -23.1435
  30   2.0000      -0.842283       -22.9197
  31   2.0000      -0.813839       -22.1457
  32   2.0000      -0.783541       -21.3212
  33   2.0000      -0.771002       -20.9800
  34   2.0000      -0.714283       -19.4366
  35   2.0000      -0.700931       -19.0733
  36   2.0000      -0.685708       -18.6591
  37   2.0000      -0.654771       -17.8172
  38   2.0000      -0.636364       -17.3163
  39   2.0000      -0.617073       -16.7914
  40   2.0000      -0.597481       -16.2583
  41   2.0000      -0.585896       -15.9430
  42   2.0000      -0.564367       -15.3572
  43   2.0000      -0.553125       -15.0513
  44   2.0000      -0.550502       -14.9799
  45   2.0000      -0.519715       -14.1422
  46   2.0000      -0.511672       -13.9233
  47   2.0000      -0.507337       -13.8054
  48   2.0000      -0.504249       -13.7213
  49   2.0000      -0.496379       -13.5072
  50   2.0000      -0.488900       -13.3037
  51   2.0000      -0.481324       -13.0975
  52   2.0000      -0.471065       -12.8183
  53   2.0000      -0.469011       -12.7624
  54   2.0000      -0.461417       -12.5558
  55   2.0000      -0.448213       -12.1965
  56   2.0000      -0.441489       -12.0135
  57   2.0000      -0.439300       -11.9540
  58   2.0000      -0.433777       -11.8037
  59   2.0000      -0.428050       -11.6478
  60   2.0000      -0.421645       -11.4735
  61   2.0000      -0.414074       -11.2675
  62   2.0000      -0.407129       -11.0785
  63   2.0000      -0.345464        -9.4006
  64   2.0000      -0.331200        -9.0124
  65   2.0000      -0.326704        -8.8901
  66   2.0000      -0.295132        -8.0310
  67   0.0000       0.026757         0.7281
  68   0.0000       0.077564         2.1106
  69   0.0000       0.107867         2.9352
  70   0.0000       0.115465         3.1420
  71   0.0000       0.130471         3.5503

MULLIKEN ATOMIC CHARGES
-----------------------
   0 S :    0.104659
   1 C :   -0.120399
   2 C :   -0.089905
   3 C :    0.004494
   4 C :   -0.156594
   5 H :    0.021839
   6 C :    0.037934
   7 H :    0.054351
   8 H :    0.029076
   9 C :   -0.092821
  10 H :    0.037323
  11 H :    0.018709
  12 C :   -0.036657
  13 H :    0.034781
  14 H :    0.029197
  15 H :    0.038186
  16 S :    0.123254
  17 C :   -0.100417
  18 C :   -0.028217
  19 C :   -0.080423
  20 C :   -0.142379
  21 H :    0.025362
  22 C :    0.079443
  23 H :    0.003692
  24 H :    0.013669
  25 C :   -0.020169
  26 H :    0.011348
  27 H :    0.005811
  28 C :    0.000247
  29 H :    0.020859
  30 H :    0.029537
  31 H :    0.013688
  32 H :    0.054456
  33 H :    0.076065
Sum of atomic charges:    0.0000000

LOEWDIN ATOMIC CHARGES
----------------------
   0 S :    0.383249
   1 C :   -0.189835
   2 C :   -0.078139
   3 C :   -0.057644
   4 C :   -0.184196
   5 H :    0.028084
   6 C :   -0.032560
   7 H :    0.038503
   8 H :    0.033699
   9 C :   -0.039425
  10 H :    0.020269
  11 H :    0.018155
  12 C :   -0.064812
  13 H :    0.028146
  14 H :    0.026275
  15 H :    0.027289
  16 S :    0.413021
  17 C :   -0.199823
  18 C :   -0.076459
  19 C :   -0.049796
  20 C :   -0.200374
  21 H :    0.034904
  22 C :   -0.027470
  23 H :    0.025545
  24 H :    0.027048
  25 C :   -0.020314
  26 H :    0.019825
  27 H :    0.008263
  28 C :   -0.054022
  29 H :    0.020273
  30 H :    0.018017
  31 H :    0.023515
  32 H :    0.038110
  33 H :    0.042679

  Mayer bond orders larger than 0.100000
B(  0-S ,  1-C ) :   1.1275 B(  0-S ,  4-C ) :   1.1146 B(  1-C ,  2-C ) :   1.6751
B(  1-C , 32-H ) :   0.9591 B(  2-C ,  3-C ) :   1.1902 B(  2-C ,  6-C ) :   1.0198
B(  3-C ,  4-C ) :   1.6233 B(  3-C ,  5-H ) :   0.9794 B(  4-C , 20-C ) :   1.0550
B(  6-C ,  7-H ) :   0.9403 B(  6-C ,  8-H ) :   0.9370 B(  6-C ,  9-C ) :   1.0876
B(  9-C , 10-H ) :   0.9448 B(  9-C , 11-H ) :   0.9564 B(  9-C , 12-C ) :   1.0888
B( 12-C , 13-H ) :   0.9722 B( 12-C , 14-H ) :   0.9721 B( 12-C , 15-H ) :   0.9749
B( 16-S , 17-C ) :   1.1570 B( 16-S , 20-C ) :   1.1360 B( 17-C , 18-C ) :   1.6057
B( 17-C , 33-H ) :   0.9585 B( 18-C , 19-C ) :   1.2548 B( 18-C , 21-H ) :   0.9846
B( 19-C , 20-C ) :   1.5738 B( 19-C , 22-C ) :   1.0480 B( 22-C , 23-H ) :   0.9194
B( 22-C , 24-H ) :   0.9295 B( 22-C , 25-C ) :   1.0837 B( 25-C , 26-H ) :   0.9573
B( 25-C , 27-H ) :   0.9517 B( 25-C , 28-C ) :   1.0615 B( 28-C , 29-H ) :   0.9717
B( 28-C , 30-H ) :   0.9759 B( 28-C , 31-H ) :   0.9774

Dispersion correction           -0.015514327
FINAL SINGLE POINT ENERGY     -1339.867990910996

DIPOLE MOMENT
-------------
                                X             Y             Z
Electronic contribution:    -26.04225      -6.65969      -8.49425
Nuclear contribution   :     26.64189       6.56966       8.88626
                        -----------------------------------------
Total Dipole Moment    :      0.59965      -0.09003       0.39201
                        -----------------------------------------
Magnitude (a.u.)       :      0.72205
Magnitude (Debye)      :      1.83531

Rotational constants in cm-1:     0.019607     0.008934     0.007575
Rotational constants in MHz :   587.791398   267.826576   227.091393

                             ****ORCA TERMINATED NORMALLY****
TOTAL RUN TIME: 0 days 0 hours 0 minutes 37 seconds 214 msec
