                         Program Version 4.2.1 -  RELEASE  -
|  1> ! wB97X-D3 SP def2-SVP
|  2> %pal
|  3> nprocs 16
|  4> end
|  5>
|  6> * xyz 0 1
|  7> S 	 32.9762 	 -0.167578 	 69.8863
|  8> C 	 33.415 	 1.15667 	 68.8841
|  9> C 	 33.9459 	 2.18354 	 69.6421
| 10> C 	 33.8827 	 1.88613 	 71.0415
| 11> C 	 33.5531 	 0.574521 	 71.3418
| 12> H 	 34.0947 	 2.51763 	 71.9175
| 13> C 	 34.58 	 3.48593 	 69.1898
| 14> H 	 35.1488 	 3.29097 	 68.2345
| 15> H 	 35.2439 	 3.72265 	 70.0138
| 16> C 	 33.7717 	 4.67977 	 68.9122
| 17> H 	 33.5231 	 5.12903 	 69.8713
| 18> H 	 34.3363 	 5.47145 	 68.3919
| 19> C 	 32.4958 	 4.45449 	 68.1325
| 20> H 	 31.9238 	 3.57349 	 68.4986
| 21> H 	 31.9098 	 5.33881 	 68.1254
| 22> H 	 32.7598 	 4.24716 	 67.0925
| 23> S 	 31.7802 	 -0.810039 	 72.9407
| 24> C 	 32.1628 	 -0.987011 	 74.6418
| 25> C 	 33.4854 	 -0.734454 	 74.8895
| 26> C 	 34.1934 	 -0.110966 	 73.8261
| 27> C 	 33.3604 	 -0.0249173 	 72.6818
| 28> H 	 33.8277 	 -0.945879 	 75.9267
| 29> C 	 35.5672 	 0.428338 	 73.8969
| 30> H 	 35.5723 	 1.1003 	 73.0291
| 31> H 	 36.2007 	 -0.430749 	 73.68
| 32> C 	 35.9579 	 1.15972 	 75.0831
| 33> H 	 36.9831 	 1.52293 	 75.0197
| 34> H 	 35.8937 	 0.622044 	 76.0167
| 35> C 	 35.0646 	 2.39753 	 75.2308
| 36> H 	 34.8804 	 2.69195 	 76.2471
| 37> H 	 34.1515 	 2.32087 	 74.639
| 38> H 	 35.5849 	 3.25946 	 74.7661
| 39> H 	 33.4526 	 1.09612 	 67.8023
| 40> H 	 31.6007 	 -1.54389 	 75.4134
| 41> *
| 42>
| 43>                          ****END OF INPUT****

CARTESIAN COORDINATES (ANGSTROEM)
---------------------------------
  S     32.976200   -0.167578   69.886300
  C     33.415000    1.156670   68.884100
  C     33.945900    2.183540   69.642100
  C     33.882700    1.886130   71.041500
  C     33.553100    0.574521   71.341800
  H     34.094700    2.517630   71.917500
  C     34.580000    3.485930   69.189800
  H     35.148800    3.290970   68.234500
  H     35.243900    3.722650   70.013800
  C     33.771700    4.679770   68.912200
  H     33.523100    5.129030   69.871300
  H     34.336300    5.471450   68.391900
  C     32.495800    4.454490   68.132500
  H     31.923800    3.573490   68.498600
  H     31.909800    5.338810   68.125400
  H     32.759800    4.247160   67.092500
  S     31.780200   -0.810039   72.940700
  C     32.162800   -0.987011   74.641800
  C     33.485400   -0.734454   74.889500
  C     34.193400   -0.110966   73.826100
  C     33.360400   -0.024917   72.681800
  H     33.827700   -0.945879   75.926700
  C     35.567200    0.428338   73.896900
  H     35.572300    1.100300   73.029100
  H     36.200700   -0.430749   73.680000
  C     35.957900    1.159720   75.083100
  H     36.983100    1.522930   75.019700
  H     35.893700    0.622044   76.016700
  C     35.064600    2.397530   75.230800
  H     34.880400    2.691950   76.247100
  H     34.151500    2.320870   74.639000
  H     35.584900    3.259460   74.766100
  H     33.452600    1.096120   67.802300
  H     31.600700   -1.543890   75.413400

 Total Charge           Charge          ....    0
 Multiplicity           Mult            ....    1
 Number of Electrons    NEL             ....  134
 Basis Dimension        Dim             ....  322

ORBITAL ENERGIES
----------------

  NO   OCC          E(Eh)            E(eV)
   0   2.0000     -88.967450     -2420.9274
   1   2.0000     -88.965836     -2420.8835
   2   2.0000     -10.333863      -281.1987
   3   2.0000     -10.330476      -281.1065
   4   2.0000     -10.317119      -280.7431
   5   2.0000     -10.314854      -280.6815
   6   2.0000     -10.307377      -280.4780
   7   2.0000     -10.304198      -280.3915
   8   2.0000     -10.295471      -280.1540
   9   2.0000     -10.294768      -280.1349
  10   2.0000     -10.290345      -280.0145
  11   2.0000     -10.285562      -279.8844
  12   2.0000     -10.280962      -279.7592
  13   2.0000     -10.279395      -279.7166
  14   2.0000     -10.273146      -279.5465
  15   2.0000     -10.270268      -279.4682
  16   2.0000      -8.081536      -219.9098
  17   2.0000      -8.081481      -219.9083
  18   2.0000      -6.040079      -164.3589
  19   2.0000      -6.039948      -164.3553
  20   2.0000      -6.036280      -164.2555
  21   2.0000      -6.035773      -164.2417
  22   2.0000      -6.032317      -164.1477
  23   2.0000      -6.032128      -164.1425
  24   2.0000      -1.009768       -27.4772
  25   2.0000      -0.987444       -26.8697
  26   2.0000      -0.927380       -25.2353
  27   2.0000      -0.919842       -25.0302
  28   2.0000      -0.869935       -23.6721
  29   2.0000      -0.852549       -23.1990
  30   2.0000      -0.845973       -23.0201
  31   2.0000      -0.815202       -22.1828
  32   2.0000      -0.786729       -21.4080
  33   2.0000      -0.777290       -21.1511
  34   2.0000      -0.710699       -19.3391
  35   2.0000      -0.697813       -18.9885
  36   2.0000      -0.695221       -18.9179
  37   2.0000      -0.652195       -17.7471
  38   2.0000      -0.641545       -17.4573
  39   2.0000      -0.617796       -16.8111
  40   2.0000      -0.595420       -16.2022
  41   2.0000      -0.572694       -15.5838
  42   2.0000      -0.566159       -15.4060
  43   2.0000      -0.557482       -15.1698
  44   2.0000      -0.550599       -14.9826
  45   2.0000      -0.543949       -14.8016
  46   2.0000      -0.522137       -14.2081
  47   2.0000      -0.511582       -13.9209
  48   2.0000      -0.501712       -13.6523
  49   2.0000      -0.497086       -13.5264
  50   2.0000      -0.490522       -13.3478
  51   2.0000      -0.477379       -12.9901
  52   2.0000      -0.469953       -12.7881
  53   2.0000      -0.463937       -12.6244
  54   2.0000      -0.459488       -12.5033
  55   2.0000      -0.448280       -12.1983
  56   2.0000      -0.446699       -12.1553
  57   2.0000      -0.443903       -12.0792
  58   2.0000      -0.436584       -11.8801
  59   2.0000      -0.423569       -11.5259
  60   2.0000      -0.415042       -11.2939
  61   2.0000      -0.413050       -11.2397
  62   2.0000      -0.406270       -11.0552
  63   2.0000      -0.351768        -9.5721
  64   2.0000      -0.332577        -9.0499
  65   2.0000      -0.327562        -8.9134
  66   2.0000      -0.290539        -7.9060
  67   0.0000       0.027943         0.7604
  68   0.0000       0.064680         1.7600
  69   0.0000       0.106509         2.8983
  70   0.0000       0.117427         3.1953
  71   0.0000       0.129772         3.5313

MULLIKEN ATOMIC CHARGES
-----------------------
   0 S :    0.104745
   1 C :   -0.115804
   2 C :   -0.102143
   3 C :    0.008217
   4 C :   -0.153116
   5 H :    0.023286
   6 C :    0.080801
   7 H :    0.031253
   8 H :    0.024468
   9 C :   -0.062710
  10 H :    0.012485
  11 H :    0.030550
  12 C :   -0.050901
  13 H :    0.052297
  14 H :    0.029126
  15 H :    0.016104
  16 S :    0.105360
  17 C :   -0.091130
  18 C :   -0.065461
  19 C :   -0.073765
  20 C :   -0.163062
  21 H :    0.030534
  22 C :    0.119512
  23 H :    0.009298
  24 H :    0.042781
  25 C :   -0.041996
  26 H :    0.032115
  27 H :    0.026001
  28 C :   -0.076094
  29 H :    0.030006
  30 H :    0.047666
  31 H :    0.021315
  32 H :    0.054058
  33 H :    0.064203
Sum of atomic charges:    0.0000000

LOEWDIN ATOMIC CHARGES
----------------------
   0 S :    0.424552
   1 C :   -0.205925
   2 C :   -0.064336
   3 C :   -0.071784
   4 C :   -0.202746
   5 H :    0.032774
   6 C :   -0.035827
   7 H :    0.036929
   8 H :    0.033950
   9 C :   -0.048251
  10 H :    0.018827
  11 H :    0.029169
  12 C :   -0.065143
  13 H :    0.030932
  14 H :    0.022201
  15 H :    0.021151
  16 S :    0.391336
  17 C :   -0.191352
  18 C :   -0.077993
  19 C :   -0.051666
  20 C :   -0.188701
  21 H :    0.037469
  22 C :   -0.037006
  23 H :    0.034790
  24 H :    0.040220
  25 C :   -0.043862
  26 H :    0.030626
  27 H :    0.020725
  28 C :   -0.064842
  29 H :    0.022941
  30 H :    0.025754
  31 H :    0.026669
  32 H :    0.030981
  33 H :    0.037437

  Mayer bond orders larger than 0.100000
B(  0-S ,  1-C ) :   1.1531 B(  0-S ,  4-C ) :   1.1626 B(  1-C ,  2-C ) :   1.5838
B(  1-C , 32-H ) :   0.9696 B(  2-C ,  3-C ) :   1.2499 B(  2-C ,  6-C ) :   1.0174
B(  3-C ,  4-C ) :   1.5685 B(  3-C ,  5-H ) :   0.9788 B(  4-C , 20-C ) :   1.0306
B(  6-C ,  7-H ) :   0.9365 B(  6-C ,  8-H ) :   0.9382 B(  6-C ,  9-C ) :   1.0915
B(  9-C , 10-H ) :   0.9484 B(  9-C , 11-H ) :   0.9507 B(  9-C , 12-C ) :   1.0908
B( 12-C , 13-H ) :   0.9685 B( 12-C , 14-H ) :   0.9723 B( 12-C , 15-H ) :   0.9739
B( 16-S , 17-C ) :   1.1418 B( 16-S , 20-C ) :   1.1415 B( 17-C , 18-C ) :   1.6469
B( 17-C , 20-C ) :   0.1012 B( 17-C , 33-H ) :   0.9567 B( 18-C , 19-C ) :   1.2226
B( 18-C , 21-H ) :   0.9816 B( 19-C , 20-C ) :   1.5804 B( 19-C , 22-C ) :   1.0360
B( 22-C , 23-H ) :   0.9268 B( 22-C , 24-H ) :   0.9097 B( 22-C , 25-C ) :   1.0926
B( 25-C , 26-H ) :   0.9524 B( 25-C , 27-H ) :   0.9544 B( 25-C , 28-C ) :   1.0584
B( 28-C , 29-H ) :   0.9749 B( 28-C , 30-H ) :   0.9797 B( 28-C , 31-H ) :   0.9743

Dispersion correction           -0.014795667
FINAL SINGLE POINT ENERGY     -1339.873090185103

DIPOLE MOMENT
-------------
                                X             Y             Z
Electronic contribution:    -11.49598     -22.57196      -1.65633
Nuclear contribution   :     11.96644      22.96239       1.90635
                        -----------------------------------------
Total Dipole Moment    :      0.47046       0.39043       0.25002
                        -----------------------------------------
Magnitude (a.u.)       :      0.66052
Magnitude (Debye)      :      1.67890

Rotational constants in cm-1:     0.020552     0.008555     0.006808
Rotational constants in MHz :   616.129237   256.478964   204.088153

                             ****ORCA TERMINATED NORMALLY****
TOTAL RUN TIME: 0 days 0 hours 0 minutes 31 seconds 295 msec
