                         Program Version 4.2.1 -  RELEASE  -
|  1> ! wB97X-D3 SP def2-SVP
|  2> %pal
|  3> nprocs 16
|  4> end
|  5>
|  6> * xyz 0 1
|  7> S 	 -41.097 	 36.0858 	 78.597
|  8> C 	 -41.2069 	 36.3093 	 76.7733
|  9> C 	 -42.4599 	 36.2457 	 76.289
| 10> C 	 -43.333 	 35.8737 	 77.3674
| 11> C 	 -42.7891 	 35.7287 	 78.6397
| 12> H 	 -44.3536 	 35.6039 	 77.2855
| 13> C 	 -42.8949 	 36.1622 	 74.7678
| 14> H 	 -43.0008 	 35.0826 	 74.5749
| 15> H 	 -42.0053 	 36.5464 	 74.2521
| 16> C 	 -44.1579 	 36.9088 	 74.3035
| 17> H 	 -44.5456 	 36.4941 	 73.3888
| 18> H 	 -44.8836 	 36.6149 	 75.0691
| 19> C 	 -44.1278 	 38.4519 	 74.2056
| 20> H 	 -45.0342 	 38.9244 	 74.1567
| 21> H 	 -43.6055 	 38.819 	 75.0758
| 22> H 	 -43.4347 	 38.7697 	 73.4716
| 23> S 	 -44.976 	 35.9048 	 80.3632
| 24> C 	 -45.025 	 34.9638 	 81.8123
| 25> C 	 -43.8731 	 34.2101 	 81.9506
| 26> C 	 -43.0515 	 34.2564 	 80.7498
| 27> C 	 -43.4487 	 35.2174 	 79.8022
| 28> H 	 -43.7177 	 33.5817 	 82.849
| 29> C 	 -41.7943 	 33.3881 	 80.5724
| 30> H 	 -41.0052 	 34.1119 	 80.5912
| 31> H 	 -41.8114 	 32.9846 	 79.579
| 32> C 	 -41.5823 	 32.3205 	 81.6927
| 33> H 	 -42.3841 	 31.5847 	 81.5278
| 34> H 	 -41.7001 	 32.7515 	 82.658
| 35> C 	 -40.1043 	 31.8404 	 81.6098
| 36> H 	 -39.856 	 31.7133 	 80.5321
| 37> H 	 -39.9583 	 30.8862 	 82.0185
| 38> H 	 -39.3279 	 32.5123 	 81.9956
| 39> H 	 -40.3396 	 36.3441 	 76.1609
| 40> H 	 -45.8217 	 34.9331 	 82.5469
| 41> *
| 42>
| 43>                          ****END OF INPUT****

CARTESIAN COORDINATES (ANGSTROEM)
---------------------------------
  S    -41.097000   36.085800   78.597000
  C    -41.206900   36.309300   76.773300
  C    -42.459900   36.245700   76.289000
  C    -43.333000   35.873700   77.367400
  C    -42.789100   35.728700   78.639700
  H    -44.353600   35.603900   77.285500
  C    -42.894900   36.162200   74.767800
  H    -43.000800   35.082600   74.574900
  H    -42.005300   36.546400   74.252100
  C    -44.157900   36.908800   74.303500
  H    -44.545600   36.494100   73.388800
  H    -44.883600   36.614900   75.069100
  C    -44.127800   38.451900   74.205600
  H    -45.034200   38.924400   74.156700
  H    -43.605500   38.819000   75.075800
  H    -43.434700   38.769700   73.471600
  S    -44.976000   35.904800   80.363200
  C    -45.025000   34.963800   81.812300
  C    -43.873100   34.210100   81.950600
  C    -43.051500   34.256400   80.749800
  C    -43.448700   35.217400   79.802200
  H    -43.717700   33.581700   82.849000
  C    -41.794300   33.388100   80.572400
  H    -41.005200   34.111900   80.591200
  H    -41.811400   32.984600   79.579000
  C    -41.582300   32.320500   81.692700
  H    -42.384100   31.584700   81.527800
  H    -41.700100   32.751500   82.658000
  C    -40.104300   31.840400   81.609800
  H    -39.856000   31.713300   80.532100
  H    -39.958300   30.886200   82.018500
  H    -39.327900   32.512300   81.995600
  H    -40.339600   36.344100   76.160900
  H    -45.821700   34.933100   82.546900

 Total Charge           Charge          ....    0
 Multiplicity           Mult            ....    1
 Number of Electrons    NEL             ....  134
 Basis Dimension        Dim             ....  322

ORBITAL ENERGIES
----------------

  NO   OCC          E(Eh)            E(eV)
   0   2.0000     -88.966379     -2420.8983
   1   2.0000     -88.963437     -2420.8182
   2   2.0000     -10.328125      -281.0426
   3   2.0000     -10.324224      -280.9364
   4   2.0000     -10.317678      -280.7583
   5   2.0000     -10.317035      -280.7408
   6   2.0000     -10.306483      -280.4537
   7   2.0000     -10.306448      -280.4527
   8   2.0000     -10.306338      -280.4497
   9   2.0000     -10.297273      -280.2030
  10   2.0000     -10.291107      -280.0353
  11   2.0000     -10.289941      -280.0035
  12   2.0000     -10.289065      -279.9797
  13   2.0000     -10.285396      -279.8799
  14   2.0000     -10.276820      -279.6465
  15   2.0000     -10.267579      -279.3950
  16   2.0000      -8.080095      -219.8706
  17   2.0000      -8.078105      -219.8164
  18   2.0000      -6.038769      -164.3233
  19   2.0000      -6.036630      -164.2651
  20   2.0000      -6.034921      -164.2186
  21   2.0000      -6.032458      -164.1515
  22   2.0000      -6.030557      -164.0998
  23   2.0000      -6.029003      -164.0575
  24   2.0000      -1.003529       -27.3074
  25   2.0000      -0.979911       -26.6647
  26   2.0000      -0.909341       -24.7444
  27   2.0000      -0.904139       -24.6029
  28   2.0000      -0.874287       -23.7906
  29   2.0000      -0.844676       -22.9848
  30   2.0000      -0.840519       -22.8717
  31   2.0000      -0.811761       -22.0891
  32   2.0000      -0.791398       -21.5350
  33   2.0000      -0.771312       -20.9885
  34   2.0000      -0.713423       -19.4132
  35   2.0000      -0.709556       -19.3080
  36   2.0000      -0.696271       -18.9465
  37   2.0000      -0.654476       -17.8092
  38   2.0000      -0.632739       -17.2177
  39   2.0000      -0.615923       -16.7601
  40   2.0000      -0.593503       -16.1500
  41   2.0000      -0.568686       -15.4747
  42   2.0000      -0.565869       -15.3981
  43   2.0000      -0.558768       -15.2049
  44   2.0000      -0.540166       -14.6987
  45   2.0000      -0.525196       -14.2913
  46   2.0000      -0.523615       -14.2483
  47   2.0000      -0.510026       -13.8785
  48   2.0000      -0.506879       -13.7929
  49   2.0000      -0.494111       -13.4454
  50   2.0000      -0.487210       -13.2577
  51   2.0000      -0.482198       -13.1213
  52   2.0000      -0.472952       -12.8697
  53   2.0000      -0.462380       -12.5820
  54   2.0000      -0.457885       -12.4597
  55   2.0000      -0.450069       -12.2470
  56   2.0000      -0.447780       -12.1847
  57   2.0000      -0.439128       -11.9493
  58   2.0000      -0.432902       -11.7799
  59   2.0000      -0.428761       -11.6672
  60   2.0000      -0.423949       -11.5362
  61   2.0000      -0.412316       -11.2197
  62   2.0000      -0.405697       -11.0396
  63   2.0000      -0.347172        -9.4470
  64   2.0000      -0.333368        -9.0714
  65   2.0000      -0.325841        -8.8666
  66   2.0000      -0.290062        -7.8930
  67   0.0000       0.023520         0.6400
  68   0.0000       0.078234         2.1289
  69   0.0000       0.103446         2.8149
  70   0.0000       0.115839         3.1521
  71   0.0000       0.131236         3.5711

MULLIKEN ATOMIC CHARGES
-----------------------
   0 S :    0.095029
   1 C :   -0.139955
   2 C :   -0.033901
   3 C :    0.008486
   4 C :   -0.153679
   5 H :   -0.004070
   6 C :    0.043650
   7 H :    0.057840
   8 H :    0.020635
   9 C :   -0.073960
  10 H :    0.028253
  11 H :    0.023999
  12 C :    0.010280
  13 H :    0.028199
  14 H :    0.017824
  15 H :    0.015166
  16 S :    0.108577
  17 C :   -0.083041
  18 C :   -0.061312
  19 C :   -0.092171
  20 C :   -0.131022
  21 H :    0.036616
  22 C :    0.063716
  23 H :    0.025809
  24 H :    0.038561
  25 C :   -0.070660
  26 H :    0.042672
  27 H :    0.032495
  28 C :   -0.035023
  29 H :    0.024352
  30 H :    0.019171
  31 H :    0.044228
  32 H :    0.035772
  33 H :    0.057467
Sum of atomic charges:    0.0000000

LOEWDIN ATOMIC CHARGES
----------------------
   0 S :    0.381415
   1 C :   -0.158032
   2 C :   -0.063549
   3 C :   -0.060052
   4 C :   -0.198356
   5 H :    0.018782
   6 C :   -0.020858
   7 H :    0.042488
   8 H :    0.026513
   9 C :   -0.041454
  10 H :    0.023122
  11 H :    0.025369
  12 C :   -0.054570
  13 H :    0.017608
  14 H :    0.029669
  15 H :    0.022020
  16 S :    0.411305
  17 C :   -0.190468
  18 C :   -0.084622
  19 C :   -0.049595
  20 C :   -0.210085
  21 H :    0.037389
  22 C :   -0.033465
  23 H :    0.020432
  24 H :    0.031185
  25 C :   -0.034796
  26 H :    0.029695
  27 H :    0.018446
  28 C :   -0.063500
  29 H :    0.028441
  30 H :    0.016661
  31 H :    0.030804
  32 H :    0.019422
  33 H :    0.032635

  Mayer bond orders larger than 0.100000
B(  0-S ,  1-C ) :   1.1183 B(  0-S ,  4-C ) :   1.1207 B(  1-C ,  2-C ) :   1.6596
B(  1-C , 32-H ) :   0.9662 B(  2-C ,  3-C ) :   1.1909 B(  2-C ,  6-C ) :   1.0003
B(  3-C ,  4-C ) :   1.6129 B(  3-C ,  5-H ) :   0.9920 B(  4-C , 20-C ) :   1.0735
B(  6-C ,  7-H ) :   0.9453 B(  6-C ,  8-H ) :   0.9450 B(  6-C ,  9-C ) :   1.0655
B(  9-C , 10-H ) :   0.9558 B(  9-C , 11-H ) :   0.9562 B(  9-C , 12-C ) :   1.0763
B( 12-C , 13-H ) :   0.9756 B( 12-C , 14-H ) :   0.9724 B( 12-C , 15-H ) :   0.9714
B( 16-S , 17-C ) :   1.1737 B( 16-S , 20-C ) :   1.1246 B( 17-C , 18-C ) :   1.5873
B( 17-C , 33-H ) :   0.9636 B( 18-C , 19-C ) :   1.2609 B( 18-C , 21-H ) :   0.9805
B( 19-C , 20-C ) :   1.5638 B( 19-C , 22-C ) :   1.0159 B( 22-C , 23-H ) :   0.9313
B( 22-C , 24-H ) :   0.9306 B( 22-C , 25-C ) :   1.0793 B( 25-C , 26-H ) :   0.9593
B( 25-C , 27-H ) :   0.9496 B( 25-C , 28-C ) :   1.0735 B( 28-C , 29-H ) :   0.9749
B( 28-C , 30-H ) :   0.9726 B( 28-C , 31-H ) :   0.9759

Dispersion correction           -0.013626100
FINAL SINGLE POINT ENERGY     -1339.863929463127

DIPOLE MOMENT
-------------
                                X             Y             Z
Electronic contribution:     -4.65877       6.95141       9.86439
Nuclear contribution   :      4.70280      -7.37760     -10.10424
                        -----------------------------------------
Total Dipole Moment    :      0.04402      -0.42619      -0.23985
                        -----------------------------------------
Magnitude (a.u.)       :      0.49102
Magnitude (Debye)      :      1.24807

Rotational constants in cm-1:     0.021773     0.007442     0.006017
Rotational constants in MHz :   652.725071   223.115905   180.399026

                             ****ORCA TERMINATED NORMALLY****
TOTAL RUN TIME: 0 days 0 hours 0 minutes 30 seconds 281 msec
