                         Program Version 4.2.1 -  RELEASE  -
|  1> ! wB97X-D3 SP def2-SVP
|  2> %pal
|  3> nprocs 16
|  4> end
|  5>
|  6> * xyz 0 1
|  7> S 	 1.45584 	 -18.0306 	 83.5378
|  8> C 	 0.554375 	 -19.3946 	 84.2507
|  9> C 	 -0.749223 	 -19.0468 	 84.5127
| 10> C 	 -1.03588 	 -17.6523 	 84.0959
| 11> C 	 -0.0217317 	 -17.0449 	 83.4147
| 12> H 	 -2.01728 	 -17.0905 	 84.1816
| 13> C 	 -1.72582 	 -19.9134 	 85.2238
| 14> H 	 -2.006 	 -19.5003 	 86.2141
| 15> H 	 -1.1484 	 -20.8632 	 85.2719
| 16> C 	 -3.10817 	 -20.0412 	 84.4434
| 17> H 	 -3.72477 	 -20.8259 	 84.7815
| 18> H 	 -3.75925 	 -19.2635 	 84.5894
| 19> C 	 -2.92601 	 -20.3003 	 82.916
| 20> H 	 -2.4901 	 -19.4412 	 82.4865
| 21> H 	 -2.24325 	 -21.1341 	 82.596
| 22> H 	 -3.86268 	 -20.5078 	 82.4365
| 23> S 	 0.60564 	 -15.9594 	 81.0593
| 24> C 	 0.57524 	 -14.258 	 80.7703
| 25> C 	 -0.0396458 	 -13.629 	 81.8288
| 26> C 	 -0.282211 	 -14.5198 	 82.8936
| 27> C 	 0.0636319 	 -15.8474 	 82.6794
| 28> H 	 -0.137276 	 -12.5491 	 81.9023
| 29> C 	 -0.735718 	 -14.005 	 84.3311
| 30> H 	 0.0304142 	 -13.3077 	 84.7338
| 31> H 	 -0.814883 	 -14.9078 	 84.8923
| 32> C 	 -2.12557 	 -13.4141 	 84.4519
| 33> H 	 -2.84201 	 -14.1158 	 84.0348
| 34> H 	 -2.26333 	 -12.4912 	 83.857
| 35> C 	 -2.44341 	 -13.1992 	 85.9817
| 36> H 	 -2.15355 	 -14.1498 	 86.5217
| 37> H 	 -3.54438 	 -13.1998 	 86.1154
| 38> H 	 -1.89932 	 -12.2645 	 86.3472
| 39> H 	 1.02221 	 -20.3265 	 84.5851
| 40> H 	 0.964465 	 -13.8129 	 79.8967
| 41> *
| 42>
| 43>                          ****END OF INPUT****

CARTESIAN COORDINATES (ANGSTROEM)
---------------------------------
  S      1.455840  -18.030600   83.537800
  C      0.554375  -19.394600   84.250700
  C     -0.749223  -19.046800   84.512700
  C     -1.035880  -17.652300   84.095900
  C     -0.021732  -17.044900   83.414700
  H     -2.017280  -17.090500   84.181600
  C     -1.725820  -19.913400   85.223800
  H     -2.006000  -19.500300   86.214100
  H     -1.148400  -20.863200   85.271900
  C     -3.108170  -20.041200   84.443400
  H     -3.724770  -20.825900   84.781500
  H     -3.759250  -19.263500   84.589400
  C     -2.926010  -20.300300   82.916000
  H     -2.490100  -19.441200   82.486500
  H     -2.243250  -21.134100   82.596000
  H     -3.862680  -20.507800   82.436500
  S      0.605640  -15.959400   81.059300
  C      0.575240  -14.258000   80.770300
  C     -0.039646  -13.629000   81.828800
  C     -0.282211  -14.519800   82.893600
  C      0.063632  -15.847400   82.679400
  H     -0.137276  -12.549100   81.902300
  C     -0.735718  -14.005000   84.331100
  H      0.030414  -13.307700   84.733800
  H     -0.814883  -14.907800   84.892300
  C     -2.125570  -13.414100   84.451900
  H     -2.842010  -14.115800   84.034800
  H     -2.263330  -12.491200   83.857000
  C     -2.443410  -13.199200   85.981700
  H     -2.153550  -14.149800   86.521700
  H     -3.544380  -13.199800   86.115400
  H     -1.899320  -12.264500   86.347200
  H      1.022210  -20.326500   84.585100
  H      0.964465  -13.812900   79.896700

 Total Charge           Charge          ....    0
 Multiplicity           Mult            ....    1
 Number of Electrons    NEL             ....  134
 Basis Dimension        Dim             ....  322

ORBITAL ENERGIES
----------------

  NO   OCC          E(Eh)            E(eV)
   0   2.0000     -88.962729     -2420.7989
   1   2.0000     -88.961924     -2420.7770
   2   2.0000     -10.331125      -281.1242
   3   2.0000     -10.320974      -280.8480
   4   2.0000     -10.319621      -280.8112
   5   2.0000     -10.315157      -280.6897
   6   2.0000     -10.307179      -280.4726
   7   2.0000     -10.304877      -280.4100
   8   2.0000     -10.303221      -280.3649
   9   2.0000     -10.301861      -280.3279
  10   2.0000     -10.293366      -280.0967
  11   2.0000     -10.292437      -280.0714
  12   2.0000     -10.290206      -280.0107
  13   2.0000     -10.287553      -279.9385
  14   2.0000     -10.281900      -279.7847
  15   2.0000     -10.269974      -279.4602
  16   2.0000      -8.078807      -219.8355
  17   2.0000      -8.076141      -219.7630
  18   2.0000      -6.037187      -164.2802
  19   2.0000      -6.034870      -164.2172
  20   2.0000      -6.032918      -164.1641
  21   2.0000      -6.030840      -164.1075
  22   2.0000      -6.029777      -164.0786
  23   2.0000      -6.026537      -163.9904
  24   2.0000      -1.014649       -27.6100
  25   2.0000      -0.983647       -26.7664
  26   2.0000      -0.911062       -24.7912
  27   2.0000      -0.904576       -24.6148
  28   2.0000      -0.875299       -23.8181
  29   2.0000      -0.845553       -23.0087
  30   2.0000      -0.837612       -22.7926
  31   2.0000      -0.819899       -22.3106
  32   2.0000      -0.778025       -21.1711
  33   2.0000      -0.767320       -20.8798
  34   2.0000      -0.718336       -19.5469
  35   2.0000      -0.701359       -19.0850
  36   2.0000      -0.694268       -18.8920
  37   2.0000      -0.662780       -18.0352
  38   2.0000      -0.641056       -17.4440
  39   2.0000      -0.615150       -16.7391
  40   2.0000      -0.596553       -16.2330
  41   2.0000      -0.570699       -15.5295
  42   2.0000      -0.562936       -15.3183
  43   2.0000      -0.551930       -15.0188
  44   2.0000      -0.543686       -14.7944
  45   2.0000      -0.520614       -14.1666
  46   2.0000      -0.519092       -14.1252
  47   2.0000      -0.516349       -14.0506
  48   2.0000      -0.509146       -13.8546
  49   2.0000      -0.498213       -13.5571
  50   2.0000      -0.489299       -13.3145
  51   2.0000      -0.471363       -12.8264
  52   2.0000      -0.468969       -12.7613
  53   2.0000      -0.462475       -12.5846
  54   2.0000      -0.458743       -12.4830
  55   2.0000      -0.446264       -12.1435
  56   2.0000      -0.442648       -12.0451
  57   2.0000      -0.434693       -11.8286
  58   2.0000      -0.433475       -11.7954
  59   2.0000      -0.426612       -11.6087
  60   2.0000      -0.424804       -11.5595
  61   2.0000      -0.412642       -11.2286
  62   2.0000      -0.403953       -10.9921
  63   2.0000      -0.350629        -9.5411
  64   2.0000      -0.332698        -9.0532
  65   2.0000      -0.323489        -8.8026
  66   2.0000      -0.298181        -8.1139
  67   0.0000       0.028142         0.7658
  68   0.0000       0.071477         1.9450
  69   0.0000       0.105806         2.8791
  70   0.0000       0.121698         3.3116
  71   0.0000       0.127827         3.4783

MULLIKEN ATOMIC CHARGES
-----------------------
   0 S :    0.092924
   1 C :   -0.118352
   2 C :   -0.135455
   3 C :    0.037695
   4 C :   -0.172857
   5 H :    0.037359
   6 C :    0.092992
   7 H :    0.050708
   8 H :    0.024509
   9 C :   -0.047169
  10 H :    0.014170
  11 H :    0.006835
  12 C :   -0.053700
  13 H :    0.028906
  14 H :    0.032985
  15 H :    0.025663
  16 S :    0.115270
  17 C :   -0.082894
  18 C :   -0.017187
  19 C :   -0.041574
  20 C :   -0.147641
  21 H :    0.022118
  22 C :    0.062081
  23 H :    0.045469
  24 H :    0.004393
  25 C :   -0.091663
  26 H :    0.022272
  27 H :    0.032263
  28 C :   -0.081739
  29 H :    0.036290
  30 H :    0.040087
  31 H :    0.059528
  32 H :    0.058013
  33 H :    0.047700
Sum of atomic charges:    0.0000000

LOEWDIN ATOMIC CHARGES
----------------------
   0 S :    0.371857
   1 C :   -0.186341
   2 C :   -0.065426
   3 C :   -0.066803
   4 C :   -0.182027
   5 H :    0.041383
   6 C :   -0.027889
   7 H :    0.039338
   8 H :    0.036268
   9 C :   -0.034291
  10 H :    0.020784
  11 H :    0.012894
  12 C :   -0.064987
  13 H :    0.017948
  14 H :    0.030981
  15 H :    0.021784
  16 S :    0.441597
  17 C :   -0.179667
  18 C :   -0.075058
  19 C :   -0.056406
  20 C :   -0.226106
  21 H :    0.033715
  22 C :   -0.028266
  23 H :    0.033897
  24 H :    0.021281
  25 C :   -0.047141
  26 H :    0.020453
  27 H :    0.020981
  28 C :   -0.074412
  29 H :    0.030093
  30 H :    0.028023
  31 H :    0.036285
  32 H :    0.032870
  33 H :    0.022390

  Mayer bond orders larger than 0.100000
B(  0-S ,  1-C ) :   1.1089 B(  0-S ,  4-C ) :   1.1238 B(  1-C ,  2-C ) :   1.6645
B(  1-C , 32-H ) :   0.9608 B(  2-C ,  3-C ) :   1.1647 B(  2-C ,  6-C ) :   1.0382
B(  3-C ,  4-C ) :   1.6366 B(  3-C ,  5-H ) :   0.9777 B(  4-C , 20-C ) :   1.0494
B(  6-C ,  7-H ) :   0.9401 B(  6-C ,  8-H ) :   0.9382 B(  6-C ,  9-C ) :   1.0504
B(  9-C , 10-H ) :   0.9587 B(  9-C , 11-H ) :   0.9519 B(  9-C , 12-C ) :   1.0778
B( 12-C , 13-H ) :   0.9703 B( 12-C , 14-H ) :   0.9776 B( 12-C , 15-H ) :   0.9747
B( 16-S , 17-C ) :   1.1835 B( 16-S , 20-C ) :   1.1582 B( 17-C , 18-C ) :   1.5495
B( 17-C , 20-C ) :   0.1083 B( 17-C , 33-H ) :   0.9779 B( 18-C , 19-C ) :   1.2813
B( 18-C , 21-H ) :   0.9935 B( 19-C , 20-C ) :   1.5643 B( 19-C , 22-C ) :   1.0252
B( 22-C , 23-H ) :   0.9458 B( 22-C , 24-H ) :   0.9344 B( 22-C , 25-C ) :   1.0654
B( 25-C , 26-H ) :   0.9540 B( 25-C , 27-H ) :   0.9556 B( 25-C , 28-C ) :   1.0741
B( 28-C , 29-H ) :   0.9733 B( 28-C , 30-H ) :   0.9762 B( 28-C , 31-H ) :   0.9746

Dispersion correction           -0.014436887
FINAL SINGLE POINT ENERGY     -1339.866804101952

DIPOLE MOMENT
-------------
                                X             Y             Z
Electronic contribution:     21.33954      -0.63073     -13.51950
Nuclear contribution   :    -21.82849       0.78852      13.82301
                        -----------------------------------------
Total Dipole Moment    :     -0.48895       0.15780       0.30352
                        -----------------------------------------
Magnitude (a.u.)       :      0.59674
Magnitude (Debye)      :      1.51679

Rotational constants in cm-1:     0.016666     0.009398     0.007332
Rotational constants in MHz :   499.629701   281.755811   219.820920

                             ****ORCA TERMINATED NORMALLY****
TOTAL RUN TIME: 0 days 0 hours 0 minutes 33 seconds 680 msec
