                         Program Version 4.2.1 -  RELEASE  -
|  1> ! wB97X-D3 SP def2-SVP
|  2> %pal
|  3> nprocs 16
|  4> end
|  5>
|  6> * xyz 0 1
|  7> S 	 36.7143 	 29.8537 	 92.6589
|  8> C 	 35.6296 	 30.2172 	 91.3263
|  9> C 	 34.3128 	 30.0035 	 91.6743
| 10> C 	 34.2606 	 29.2426 	 92.8935
| 11> C 	 35.4812 	 28.9588 	 93.5004
| 12> H 	 33.4771 	 28.8425 	 93.4531
| 13> C 	 33.1412 	 30.4303 	 90.7951
| 14> H 	 33.4464 	 31.2787 	 90.269
| 15> H 	 32.3949 	 30.6843 	 91.4455
| 16> C 	 32.634 	 29.3703 	 89.8155
| 17> H 	 32.2401 	 28.53 	 90.3547
| 18> H 	 31.7757 	 29.7707 	 89.2593
| 19> C 	 33.6946 	 28.7861 	 88.9536
| 20> H 	 33.2849 	 27.8763 	 88.4557
| 21> H 	 33.9565 	 29.4903 	 88.1768
| 22> H 	 34.5396 	 28.4655 	 89.5651
| 23> S 	 36.7976 	 29.214 	 95.9535
| 24> C 	 37.1228 	 27.7617 	 96.8632
| 25> C 	 36.4972 	 26.7129 	 96.2744
| 26> C 	 35.826 	 27.0392 	 95.066
| 27> C 	 35.7413 	 28.3757 	 94.8188
| 28> H 	 36.6777 	 25.7635 	 96.7546
| 29> C 	 35.1533 	 25.9775 	 94.2751
| 30> H 	 34.8098 	 26.4585 	 93.4063
| 31> H 	 34.3102 	 25.6786 	 94.8596
| 32> C 	 35.9883 	 24.6156 	 93.9984
| 33> H 	 36.7585 	 24.3937 	 94.7888
| 34> H 	 36.7421 	 24.7988 	 93.2076
| 35> C 	 35.1613 	 23.3629 	 93.6233
| 36> H 	 34.8064 	 23.4442 	 92.5786
| 37> H 	 34.3358 	 23.1643 	 94.2851
| 38> H 	 35.8103 	 22.5066 	 93.6101
| 39> H 	 35.9532 	 30.3696 	 90.295
| 40> H 	 37.7706 	 27.6356 	 97.7496
| 41> *
| 42>
| 43>                          ****END OF INPUT****

CARTESIAN COORDINATES (ANGSTROEM)
---------------------------------
  S     36.714300   29.853700   92.658900
  C     35.629600   30.217200   91.326300
  C     34.312800   30.003500   91.674300
  C     34.260600   29.242600   92.893500
  C     35.481200   28.958800   93.500400
  H     33.477100   28.842500   93.453100
  C     33.141200   30.430300   90.795100
  H     33.446400   31.278700   90.269000
  H     32.394900   30.684300   91.445500
  C     32.634000   29.370300   89.815500
  H     32.240100   28.530000   90.354700
  H     31.775700   29.770700   89.259300
  C     33.694600   28.786100   88.953600
  H     33.284900   27.876300   88.455700
  H     33.956500   29.490300   88.176800
  H     34.539600   28.465500   89.565100
  S     36.797600   29.214000   95.953500
  C     37.122800   27.761700   96.863200
  C     36.497200   26.712900   96.274400
  C     35.826000   27.039200   95.066000
  C     35.741300   28.375700   94.818800
  H     36.677700   25.763500   96.754600
  C     35.153300   25.977500   94.275100
  H     34.809800   26.458500   93.406300
  H     34.310200   25.678600   94.859600
  C     35.988300   24.615600   93.998400
  H     36.758500   24.393700   94.788800
  H     36.742100   24.798800   93.207600
  C     35.161300   23.362900   93.623300
  H     34.806400   23.444200   92.578600
  H     34.335800   23.164300   94.285100
  H     35.810300   22.506600   93.610100
  H     35.953200   30.369600   90.295000
  H     37.770600   27.635600   97.749600

 Total Charge           Charge          ....    0
 Multiplicity           Mult            ....    1
 Number of Electrons    NEL             ....  134
 Basis Dimension        Dim             ....  322

ORBITAL ENERGIES
----------------

  NO   OCC          E(Eh)            E(eV)
   0   2.0000     -88.962584     -2420.7950
   1   2.0000     -88.961069     -2420.7538
   2   2.0000     -10.328309      -281.0476
   3   2.0000     -10.322297      -280.8840
   4   2.0000     -10.318032      -280.7679
   5   2.0000     -10.312807      -280.6258
   6   2.0000     -10.304174      -280.3908
   7   2.0000     -10.299301      -280.2582
   8   2.0000     -10.296864      -280.1919
   9   2.0000     -10.292127      -280.0630
  10   2.0000     -10.287166      -279.9280
  11   2.0000     -10.286985      -279.9231
  12   2.0000     -10.281131      -279.7638
  13   2.0000     -10.280304      -279.7413
  14   2.0000     -10.280292      -279.7410
  15   2.0000     -10.273523      -279.5568
  16   2.0000      -8.077429      -219.7980
  17   2.0000      -8.076096      -219.7617
  18   2.0000      -6.036114      -164.2510
  19   2.0000      -6.034593      -164.2096
  20   2.0000      -6.031864      -164.1354
  21   2.0000      -6.030576      -164.1003
  22   2.0000      -6.028027      -164.0310
  23   2.0000      -6.026811      -163.9979
  24   2.0000      -1.011061       -27.5124
  25   2.0000      -0.987313       -26.8662
  26   2.0000      -0.919543       -25.0220
  27   2.0000      -0.901001       -24.5175
  28   2.0000      -0.873312       -23.7640
  29   2.0000      -0.851519       -23.1710
  30   2.0000      -0.843488       -22.9525
  31   2.0000      -0.820130       -22.3169
  32   2.0000      -0.788855       -21.4658
  33   2.0000      -0.774825       -21.0841
  34   2.0000      -0.708455       -19.2780
  35   2.0000      -0.703167       -19.1341
  36   2.0000      -0.691928       -18.8283
  37   2.0000      -0.653876       -17.7929
  38   2.0000      -0.647859       -17.6291
  39   2.0000      -0.616652       -16.7800
  40   2.0000      -0.593742       -16.1565
  41   2.0000      -0.576821       -15.6961
  42   2.0000      -0.558678       -15.2024
  43   2.0000      -0.556315       -15.1381
  44   2.0000      -0.546803       -14.8793
  45   2.0000      -0.530758       -14.4427
  46   2.0000      -0.521828       -14.1997
  47   2.0000      -0.516917       -14.0660
  48   2.0000      -0.505868       -13.7654
  49   2.0000      -0.502426       -13.6717
  50   2.0000      -0.486570       -13.2402
  51   2.0000      -0.479839       -13.0571
  52   2.0000      -0.470589       -12.8054
  53   2.0000      -0.464040       -12.6272
  54   2.0000      -0.459507       -12.5038
  55   2.0000      -0.450318       -12.2538
  56   2.0000      -0.444670       -12.1001
  57   2.0000      -0.435873       -11.8607
  58   2.0000      -0.432140       -11.7591
  59   2.0000      -0.422714       -11.5026
  60   2.0000      -0.420014       -11.4292
  61   2.0000      -0.415754       -11.3132
  62   2.0000      -0.409966       -11.1557
  63   2.0000      -0.346746        -9.4354
  64   2.0000      -0.330328        -8.9887
  65   2.0000      -0.325933        -8.8691
  66   2.0000      -0.294286        -8.0079
  67   0.0000       0.033760         0.9187
  68   0.0000       0.055973         1.5231
  69   0.0000       0.113951         3.1008
  70   0.0000       0.124961         3.4004
  71   0.0000       0.132174         3.5966

MULLIKEN ATOMIC CHARGES
-----------------------
   0 S :    0.107402
   1 C :   -0.138010
   2 C :   -0.118844
   3 C :    0.044947
   4 C :   -0.174865
   5 H :   -0.016110
   6 C :    0.169083
   7 H :    0.008828
   8 H :    0.004817
   9 C :   -0.066579
  10 H :    0.015119
  11 H :    0.030607
  12 C :   -0.068203
  13 H :    0.034497
  14 H :    0.027555
  15 H :    0.050752
  16 S :    0.083110
  17 C :   -0.099275
  18 C :   -0.018812
  19 C :   -0.065583
  20 C :   -0.135394
  21 H :    0.016063
  22 C :    0.140323
  23 H :    0.010681
  24 H :    0.030207
  25 C :   -0.130466
  26 H :    0.030148
  27 H :    0.029615
  28 C :   -0.034120
  29 H :    0.037795
  30 H :    0.034766
  31 H :    0.027613
  32 H :    0.064940
  33 H :    0.067393
Sum of atomic charges:   -0.0000000

LOEWDIN ATOMIC CHARGES
----------------------
   0 S :    0.401298
   1 C :   -0.196121
   2 C :   -0.056789
   3 C :   -0.062026
   4 C :   -0.190678
   5 H :    0.019775
   6 C :   -0.014743
   7 H :    0.024171
   8 H :    0.023229
   9 C :   -0.040577
  10 H :    0.020346
  11 H :    0.025776
  12 C :   -0.067646
  13 H :    0.031519
  14 H :    0.020376
  15 H :    0.028891
  16 S :    0.393476
  17 C :   -0.180286
  18 C :   -0.078850
  19 C :   -0.049010
  20 C :   -0.209444
  21 H :    0.031203
  22 C :   -0.021903
  23 H :    0.022013
  24 H :    0.033490
  25 C :   -0.049291
  26 H :    0.026261
  27 H :    0.028327
  28 C :   -0.064866
  29 H :    0.030469
  30 H :    0.021863
  31 H :    0.026595
  32 H :    0.032026
  33 H :    0.041128

  Mayer bond orders larger than 0.100000
B(  0-S ,  1-C ) :   1.1484 B(  0-S ,  4-C ) :   1.1523 B(  1-C ,  2-C ) :   1.5912
B(  1-C , 32-H ) :   0.9660 B(  2-C ,  3-C ) :   1.2145 B(  2-C ,  6-C ) :   1.0199
B(  3-C ,  4-C ) :   1.5723 B(  3-C ,  5-H ) :   1.0087 B(  4-C , 20-C ) :   1.0346
B(  6-C ,  7-H ) :   0.9363 B(  6-C ,  8-H ) :   0.9274 B(  6-C ,  9-C ) :   1.0759
B(  9-C , 10-H ) :   0.9549 B(  9-C , 11-H ) :   0.9542 B(  9-C , 12-C ) :   1.0882
B( 12-C , 13-H ) :   0.9716 B( 12-C , 14-H ) :   0.9758 B( 12-C , 15-H ) :   0.9665
B( 16-S , 17-C ) :   1.1536 B( 16-S , 20-C ) :   1.1153 B( 17-C , 18-C ) :   1.6341
B( 17-C , 33-H ) :   0.9599 B( 18-C , 19-C ) :   1.2199 B( 18-C , 21-H ) :   0.9936
B( 19-C , 20-C ) :   1.5986 B( 19-C , 22-C ) :   1.0500 B( 22-C , 23-H ) :   0.9252
B( 22-C , 24-H ) :   0.9380 B( 22-C , 25-C ) :   1.0270 B( 25-C , 26-H ) :   0.9646
B( 25-C , 27-H ) :   0.9525 B( 25-C , 28-C ) :   1.0805 B( 28-C , 29-H ) :   0.9757
B( 28-C , 30-H ) :   0.9782 B( 28-C , 31-H ) :   0.9724

Dispersion correction           -0.014024132
FINAL SINGLE POINT ENERGY     -1339.855698114427

DIPOLE MOMENT
-------------
                                X             Y             Z
Electronic contribution:     13.88021      18.10968      16.98402
Nuclear contribution   :    -14.20322     -18.69809     -17.21747
                        -----------------------------------------
Total Dipole Moment    :     -0.32301      -0.58841      -0.23345
                        -----------------------------------------
Magnitude (a.u.)       :      0.71067
Magnitude (Debye)      :      1.80638

Rotational constants in cm-1:     0.018056     0.008817     0.006541
Rotational constants in MHz :   541.292557   264.331744   196.095987

                             ****ORCA TERMINATED NORMALLY****
TOTAL RUN TIME: 0 days 0 hours 0 minutes 29 seconds 483 msec
