                         Program Version 4.2.1 -  RELEASE  -
|  1> ! wB97X-D3 SP def2-SVP
|  2> %pal
|  3> nprocs 16
|  4> end
|  5>
|  6> * xyz 0 1
|  7> S 	 -52.7261 	 59.2003 	 135.423
|  8> C 	 -51.5272 	 59.0278 	 134.149
|  9> C 	 -51.267 	 60.2329 	 133.505
| 10> C 	 -52.2128 	 61.2124 	 133.928
| 11> C 	 -52.8948 	 60.909 	 135.087
| 12> H 	 -52.2213 	 62.1945 	 133.592
| 13> C 	 -50.1893 	 60.5135 	 132.408
| 14> H 	 -49.5446 	 59.6263 	 132.396
| 15> H 	 -49.6397 	 61.3883 	 132.741
| 16> C 	 -50.7421 	 60.8076 	 131.009
| 17> H 	 -51.2895 	 59.9472 	 130.592
| 18> H 	 -51.4247 	 61.6192 	 131.08
| 19> C 	 -49.6009 	 61.2919 	 130.181
| 20> H 	 -49.7693 	 60.8655 	 129.172
| 21> H 	 -49.39 	 62.4269 	 130.176
| 22> H 	 -48.7518 	 60.7269 	 130.439
| 23> S 	 -55.2745 	 61.1412 	 136.542
| 24> C 	 -55.7523 	 62.7071 	 137.239
| 25> C 	 -54.7086 	 63.5735 	 137.141
| 26> C 	 -53.6929 	 63.1286 	 136.247
| 27> C 	 -53.7641 	 61.7793 	 135.89
| 28> H 	 -54.8077 	 64.5351 	 137.565
| 29> C 	 -52.6225 	 64.1295 	 136.022
| 30> H 	 -53.007 	 64.7246 	 135.206
| 31> H 	 -51.7098 	 63.6297 	 135.619
| 32> C 	 -52.1382 	 65.0134 	 137.229
| 33> H 	 -51.698 	 64.3434 	 137.97
| 34> H 	 -52.9876 	 65.598 	 137.642
| 35> C 	 -51.1335 	 66.1759 	 136.867
| 36> H 	 -50.6886 	 66.7613 	 137.651
| 37> H 	 -51.4881 	 66.7816 	 136.062
| 38> H 	 -50.3523 	 65.7135 	 136.297
| 39> H 	 -50.9438 	 58.1375 	 134.013
| 40> H 	 -56.567 	 62.7834 	 137.971
| 41> *
| 42>
| 43>                          ****END OF INPUT****

CARTESIAN COORDINATES (ANGSTROEM)
---------------------------------
  S    -52.726100   59.200300  135.423000
  C    -51.527200   59.027800  134.149000
  C    -51.267000   60.232900  133.505000
  C    -52.212800   61.212400  133.928000
  C    -52.894800   60.909000  135.087000
  H    -52.221300   62.194500  133.592000
  C    -50.189300   60.513500  132.408000
  H    -49.544600   59.626300  132.396000
  H    -49.639700   61.388300  132.741000
  C    -50.742100   60.807600  131.009000
  H    -51.289500   59.947200  130.592000
  H    -51.424700   61.619200  131.080000
  C    -49.600900   61.291900  130.181000
  H    -49.769300   60.865500  129.172000
  H    -49.390000   62.426900  130.176000
  H    -48.751800   60.726900  130.439000
  S    -55.274500   61.141200  136.542000
  C    -55.752300   62.707100  137.239000
  C    -54.708600   63.573500  137.141000
  C    -53.692900   63.128600  136.247000
  C    -53.764100   61.779300  135.890000
  H    -54.807700   64.535100  137.565000
  C    -52.622500   64.129500  136.022000
  H    -53.007000   64.724600  135.206000
  H    -51.709800   63.629700  135.619000
  C    -52.138200   65.013400  137.229000
  H    -51.698000   64.343400  137.970000
  H    -52.987600   65.598000  137.642000
  C    -51.133500   66.175900  136.867000
  H    -50.688600   66.761300  137.651000
  H    -51.488100   66.781600  136.062000
  H    -50.352300   65.713500  136.297000
  H    -50.943800   58.137500  134.013000
  H    -56.567000   62.783400  137.971000

 Total Charge           Charge          ....    0
 Multiplicity           Mult            ....    1
 Number of Electrons    NEL             ....  134
 Basis Dimension        Dim             ....  322

ORBITAL ENERGIES
----------------

  NO   OCC          E(Eh)            E(eV)
   0   2.0000     -88.965840     -2420.8836
   1   2.0000     -88.960975     -2420.7512
   2   2.0000     -10.333486      -281.1884
   3   2.0000     -10.332342      -281.1573
   4   2.0000     -10.318772      -280.7881
   5   2.0000     -10.314376      -280.6684
   6   2.0000     -10.303884      -280.3829
   7   2.0000     -10.303469      -280.3716
   8   2.0000     -10.297926      -280.2208
   9   2.0000     -10.297924      -280.2208
  10   2.0000     -10.294208      -280.1196
  11   2.0000     -10.288383      -279.9611
  12   2.0000     -10.288015      -279.9511
  13   2.0000     -10.283610      -279.8312
  14   2.0000     -10.280254      -279.7399
  15   2.0000     -10.276690      -279.6430
  16   2.0000      -8.080519      -219.8821
  17   2.0000      -8.075434      -219.7437
  18   2.0000      -6.039043      -164.3307
  19   2.0000      -6.035097      -164.2233
  20   2.0000      -6.034092      -164.1960
  21   2.0000      -6.031209      -164.1175
  22   2.0000      -6.029954      -164.0834
  23   2.0000      -6.026065      -163.9776
  24   2.0000      -1.005513       -27.3614
  25   2.0000      -0.984387       -26.7865
  26   2.0000      -0.918344       -24.9894
  27   2.0000      -0.905028       -24.6271
  28   2.0000      -0.872555       -23.7434
  29   2.0000      -0.852118       -23.1873
  30   2.0000      -0.845801       -23.0154
  31   2.0000      -0.817627       -22.2488
  32   2.0000      -0.779861       -21.2211
  33   2.0000      -0.770898       -20.9772
  34   2.0000      -0.712177       -19.3793
  35   2.0000      -0.702212       -19.1082
  36   2.0000      -0.695851       -18.9351
  37   2.0000      -0.660665       -17.9776
  38   2.0000      -0.643644       -17.5144
  39   2.0000      -0.623799       -16.9744
  40   2.0000      -0.596236       -16.2244
  41   2.0000      -0.578373       -15.7383
  42   2.0000      -0.567714       -15.4483
  43   2.0000      -0.564644       -15.3647
  44   2.0000      -0.531896       -14.4736
  45   2.0000      -0.528505       -14.3814
  46   2.0000      -0.515462       -14.0264
  47   2.0000      -0.507938       -13.8217
  48   2.0000      -0.503573       -13.7029
  49   2.0000      -0.502303       -13.6684
  50   2.0000      -0.493212       -13.4210
  51   2.0000      -0.479337       -13.0434
  52   2.0000      -0.469797       -12.7838
  53   2.0000      -0.461585       -12.5604
  54   2.0000      -0.461046       -12.5457
  55   2.0000      -0.453341       -12.3360
  56   2.0000      -0.448551       -12.2057
  57   2.0000      -0.437044       -11.8926
  58   2.0000      -0.432807       -11.7773
  59   2.0000      -0.429601       -11.6900
  60   2.0000      -0.421519       -11.4701
  61   2.0000      -0.412754       -11.2316
  62   2.0000      -0.407204       -11.0806
  63   2.0000      -0.354876        -9.6567
  64   2.0000      -0.331377        -9.0172
  65   2.0000      -0.326144        -8.8748
  66   2.0000      -0.288905        -7.8615
  67   0.0000       0.023944         0.6516
  68   0.0000       0.076581         2.0839
  69   0.0000       0.105298         2.8653
  70   0.0000       0.119973         3.2646
  71   0.0000       0.136093         3.7033

MULLIKEN ATOMIC CHARGES
-----------------------
   0 S :    0.104739
   1 C :   -0.115216
   2 C :   -0.101356
   3 C :    0.049621
   4 C :   -0.144154
   5 H :   -0.017594
   6 C :    0.052462
   7 H :    0.024843
   8 H :    0.033867
   9 C :   -0.064942
  10 H :    0.041424
  11 H :    0.020905
  12 C :   -0.039438
  13 H :    0.025591
  14 H :    0.062652
  15 H :    0.010155
  16 S :    0.074387
  17 C :   -0.085943
  18 C :   -0.030194
  19 C :   -0.047854
  20 C :   -0.110053
  21 H :    0.011397
  22 C :    0.030296
  23 H :    0.034211
  24 H :    0.028313
  25 C :   -0.098938
  26 H :    0.049499
  27 H :    0.041272
  28 C :   -0.017638
  29 H :    0.048153
  30 H :    0.013332
  31 H :    0.003011
  32 H :    0.043357
  33 H :    0.069837
Sum of atomic charges:    0.0000000

LOEWDIN ATOMIC CHARGES
----------------------
   0 S :    0.399160
   1 C :   -0.194843
   2 C :   -0.058749
   3 C :   -0.060601
   4 C :   -0.184294
   5 H :    0.015768
   6 C :   -0.024844
   7 H :    0.028875
   8 H :    0.032060
   9 C :   -0.041454
  10 H :    0.030297
  11 H :    0.020449
  12 C :   -0.072519
  13 H :    0.033374
  14 H :    0.040427
  15 H :    0.016361
  16 S :    0.378583
  17 C :   -0.171991
  18 C :   -0.064757
  19 C :   -0.060591
  20 C :   -0.191410
  21 H :    0.026702
  22 C :   -0.039687
  23 H :    0.032827
  24 H :    0.030678
  25 C :   -0.034307
  26 H :    0.029122
  27 H :    0.023479
  28 C :   -0.068752
  29 H :    0.028553
  30 H :    0.023108
  31 H :    0.021016
  32 H :    0.023579
  33 H :    0.034379

  Mayer bond orders larger than 0.100000
B(  0-S ,  1-C ) :   1.1346 B(  0-S ,  4-C ) :   1.1460 B(  1-C ,  2-C ) :   1.6232
B(  1-C , 32-H ) :   0.9668 B(  2-C ,  3-C ) :   1.2342 B(  2-C ,  6-C ) :   1.0157
B(  3-C ,  4-C ) :   1.5845 B(  3-C ,  5-H ) :   0.9904 B(  4-C , 20-C ) :   1.0524
B(  6-C ,  7-H ) :   0.9387 B(  6-C ,  8-H ) :   0.9414 B(  6-C ,  9-C ) :   1.0736
B(  9-C , 10-H ) :   0.9566 B(  9-C , 11-H ) :   0.9537 B(  9-C , 12-C ) :   1.0784
B( 12-C , 13-H ) :   0.9681 B( 12-C , 14-H ) :   0.9729 B( 12-C , 15-H ) :   0.9685
B( 16-S , 17-C ) :   1.1465 B( 16-S , 20-C ) :   1.1241 B( 17-C , 18-C ) :   1.6242
B( 17-C , 33-H ) :   0.9588 B( 18-C , 19-C ) :   1.2384 B( 18-C , 21-H ) :   0.9917
B( 19-C , 20-C ) :   1.5874 B( 19-C , 22-C ) :   1.0507 B( 22-C , 23-H ) :   0.9194
B( 22-C , 24-H ) :   0.9357 B( 22-C , 25-C ) :   1.0639 B( 25-C , 26-H ) :   0.9614
B( 25-C , 27-H ) :   0.9501 B( 25-C , 28-C ) :   1.0723 B( 28-C , 29-H ) :   0.9770
B( 28-C , 30-H ) :   0.9713 B( 28-C , 31-H ) :   0.9691

Dispersion correction           -0.013136505
FINAL SINGLE POINT ENERGY     -1339.858781176864

DIPOLE MOMENT
-------------
                                X             Y             Z
Electronic contribution:    -20.08695     -19.12785      13.56345
Nuclear contribution   :     20.62288      19.72391     -13.81587
                        -----------------------------------------
Total Dipole Moment    :      0.53593       0.59606      -0.25241
                        -----------------------------------------
Magnitude (a.u.)       :      0.84037
Magnitude (Debye)      :      2.13605

Rotational constants in cm-1:     0.016474     0.008198     0.006036
Rotational constants in MHz :   493.872092   245.769938   180.958580

                             ****ORCA TERMINATED NORMALLY****
TOTAL RUN TIME: 0 days 0 hours 0 minutes 33 seconds 197 msec
