                         Program Version 4.2.1 -  RELEASE  -
|  1> ! wB97X-D3 SP def2-SVP
|  2> %pal
|  3> nprocs 16
|  4> end
|  5>
|  6> * xyz 0 1
|  7> S 	 -95.5382 	 54.1903 	 123.576
|  8> C 	 -94.2705 	 53.9243 	 124.734
|  9> C 	 -94.7451 	 53.6637 	 125.991
| 10> C 	 -96.1709 	 53.556 	 126.01
| 11> C 	 -96.7764 	 53.7444 	 124.74
| 12> H 	 -96.658 	 53.1714 	 126.871
| 13> C 	 -93.8684 	 53.3073 	 127.168
| 14> H 	 -94.4874 	 53.0624 	 128.051
| 15> H 	 -93.3735 	 54.2378 	 127.309
| 16> C 	 -92.8492 	 52.1795 	 126.987
| 17> H 	 -92.2533 	 52.4397 	 126.102
| 18> H 	 -92.0704 	 52.2249 	 127.823
| 19> C 	 -93.4337 	 50.7105 	 126.884
| 20> H 	 -93.3799 	 50.1443 	 127.779
| 21> H 	 -94.4613 	 50.642 	 126.456
| 22> H 	 -92.9011 	 50.0897 	 126.163
| 23> S 	 -99.2586 	 54.8776 	 125.089
| 24> C 	 -100.588 	 54.3858 	 124.08
| 25> C 	 -100.126 	 53.4922 	 123.138
| 26> C 	 -98.8469 	 52.9811 	 123.381
| 27> C 	 -98.2151 	 53.6614 	 124.382
| 28> H 	 -100.836 	 53.1489 	 122.452
| 29> C 	 -98.2271 	 51.9925 	 122.491
| 30> H 	 -97.2506 	 52.2629 	 122.173
| 31> H 	 -98.6894 	 51.976 	 121.479
| 32> C 	 -98.205 	 50.5767 	 123.003
| 33> H 	 -99.2076 	 50.3402 	 123.4
| 34> H 	 -97.6479 	 50.4602 	 123.941
| 35> C 	 -97.5832 	 49.4756 	 122.059
| 36> H 	 -97.409 	 48.6493 	 122.652
| 37> H 	 -96.6403 	 49.8245 	 121.585
| 38> H 	 -98.1878 	 49.2 	 121.172
| 39> H 	 -93.2328 	 54.0563 	 124.535
| 40> H 	 -101.591 	 54.7703 	 124.261
| 41> *
| 42>
| 43>                          ****END OF INPUT****

CARTESIAN COORDINATES (ANGSTROEM)
---------------------------------
  S    -95.538200   54.190300  123.576000
  C    -94.270500   53.924300  124.734000
  C    -94.745100   53.663700  125.991000
  C    -96.170900   53.556000  126.010000
  C    -96.776400   53.744400  124.740000
  H    -96.658000   53.171400  126.871000
  C    -93.868400   53.307300  127.168000
  H    -94.487400   53.062400  128.051000
  H    -93.373500   54.237800  127.309000
  C    -92.849200   52.179500  126.987000
  H    -92.253300   52.439700  126.102000
  H    -92.070400   52.224900  127.823000
  C    -93.433700   50.710500  126.884000
  H    -93.379900   50.144300  127.779000
  H    -94.461300   50.642000  126.456000
  H    -92.901100   50.089700  126.163000
  S    -99.258600   54.877600  125.089000
  C    -100.588000   54.385800  124.080000
  C    -100.126000   53.492200  123.138000
  C    -98.846900   52.981100  123.381000
  C    -98.215100   53.661400  124.382000
  H    -100.836000   53.148900  122.452000
  C    -98.227100   51.992500  122.491000
  H    -97.250600   52.262900  122.173000
  H    -98.689400   51.976000  121.479000
  C    -98.205000   50.576700  123.003000
  H    -99.207600   50.340200  123.400000
  H    -97.647900   50.460200  123.941000
  C    -97.583200   49.475600  122.059000
  H    -97.409000   48.649300  122.652000
  H    -96.640300   49.824500  121.585000
  H    -98.187800   49.200000  121.172000
  H    -93.232800   54.056300  124.535000
  H    -101.591000   54.770300  124.261000

 Total Charge           Charge          ....    0
 Multiplicity           Mult            ....    1
 Number of Electrons    NEL             ....  134
 Basis Dimension        Dim             ....  322

ORBITAL ENERGIES
----------------

  NO   OCC          E(Eh)            E(eV)
   0   2.0000     -88.968394     -2420.9531
   1   2.0000     -88.962123     -2420.7824
   2   2.0000     -10.334507      -281.2162
   3   2.0000     -10.324401      -280.9412
   4   2.0000     -10.316830      -280.7352
   5   2.0000     -10.308628      -280.5120
   6   2.0000     -10.299437      -280.2619
   7   2.0000     -10.296539      -280.1831
   8   2.0000     -10.296363      -280.1783
   9   2.0000     -10.294732      -280.1339
  10   2.0000     -10.290941      -280.0307
  11   2.0000     -10.286837      -279.9191
  12   2.0000     -10.284173      -279.8466
  13   2.0000     -10.281657      -279.7781
  14   2.0000     -10.279772      -279.7268
  15   2.0000     -10.277299      -279.6595
  16   2.0000      -8.082678      -219.9409
  17   2.0000      -8.077317      -219.7950
  18   2.0000      -6.041232      -164.3903
  19   2.0000      -6.037089      -164.2775
  20   2.0000      -6.035701      -164.2398
  21   2.0000      -6.033583      -164.1821
  22   2.0000      -6.031663      -164.1299
  23   2.0000      -6.028268      -164.0375
  24   2.0000      -1.008406       -27.4401
  25   2.0000      -0.987213       -26.8634
  26   2.0000      -0.910355       -24.7720
  27   2.0000      -0.908080       -24.7101
  28   2.0000      -0.863660       -23.5014
  29   2.0000      -0.850366       -23.1396
  30   2.0000      -0.843759       -22.9598
  31   2.0000      -0.812361       -22.1055
  32   2.0000      -0.786562       -21.4034
  33   2.0000      -0.776107       -21.1190
  34   2.0000      -0.707415       -19.2497
  35   2.0000      -0.703899       -19.1541
  36   2.0000      -0.694053       -18.8861
  37   2.0000      -0.667094       -18.1525
  38   2.0000      -0.639513       -17.4020
  39   2.0000      -0.616067       -16.7640
  40   2.0000      -0.600891       -16.3511
  41   2.0000      -0.575101       -15.6493
  42   2.0000      -0.553783       -15.0692
  43   2.0000      -0.552091       -15.0232
  44   2.0000      -0.540117       -14.6973
  45   2.0000      -0.525645       -14.3035
  46   2.0000      -0.518145       -14.0994
  47   2.0000      -0.507335       -13.8053
  48   2.0000      -0.505695       -13.7607
  49   2.0000      -0.493964       -13.4414
  50   2.0000      -0.491120       -13.3640
  51   2.0000      -0.474871       -12.9219
  52   2.0000      -0.472638       -12.8611
  53   2.0000      -0.465404       -12.6643
  54   2.0000      -0.458953       -12.4888
  55   2.0000      -0.447190       -12.1687
  56   2.0000      -0.442386       -12.0379
  57   2.0000      -0.439799       -11.9675
  58   2.0000      -0.437811       -11.9134
  59   2.0000      -0.425184       -11.5699
  60   2.0000      -0.423668       -11.5286
  61   2.0000      -0.413543       -11.2531
  62   2.0000      -0.400217       -10.8905
  63   2.0000      -0.336342        -9.1523
  64   2.0000      -0.333088        -9.0638
  65   2.0000      -0.329395        -8.9633
  66   2.0000      -0.298925        -8.1342
  67   0.0000       0.029784         0.8105
  68   0.0000       0.067484         1.8363
  69   0.0000       0.111986         3.0473
  70   0.0000       0.123625         3.3640
  71   0.0000       0.126526         3.4429

MULLIKEN ATOMIC CHARGES
-----------------------
   0 S :    0.128058
   1 C :   -0.131318
   2 C :   -0.093365
   3 C :    0.043510
   4 C :   -0.161698
   5 H :    0.001137
   6 C :    0.081987
   7 H :    0.025957
   8 H :    0.030955
   9 C :   -0.084642
  10 H :    0.023181
  11 H :    0.040074
  12 C :   -0.054642
  13 H :    0.032213
  14 H :    0.041110
  15 H :    0.025414
  16 S :    0.109198
  17 C :   -0.113138
  18 C :   -0.013583
  19 C :   -0.012598
  20 C :   -0.143967
  21 H :    0.001164
  22 C :    0.099592
  23 H :   -0.004667
  24 H :    0.014570
  25 C :   -0.092654
  26 H :    0.018116
  27 H :    0.024336
  28 C :   -0.025444
  29 H :    0.024434
  30 H :    0.030035
  31 H :    0.033458
  32 H :    0.036592
  33 H :    0.066623
Sum of atomic charges:   -0.0000000

LOEWDIN ATOMIC CHARGES
----------------------
   0 S :    0.421494
   1 C :   -0.199302
   2 C :   -0.066883
   3 C :   -0.057356
   4 C :   -0.194503
   5 H :    0.025278
   6 C :   -0.032681
   7 H :    0.031306
   8 H :    0.033890
   9 C :   -0.042094
  10 H :    0.020887
  11 H :    0.033162
  12 C :   -0.074409
  13 H :    0.021152
  14 H :    0.033390
  15 H :    0.028952
  16 S :    0.414571
  17 C :   -0.182504
  18 C :   -0.063519
  19 C :   -0.060251
  20 C :   -0.197445
  21 H :    0.023012
  22 C :   -0.039175
  23 H :    0.016585
  24 H :    0.035548
  25 C :   -0.041437
  26 H :    0.023092
  27 H :    0.025061
  28 C :   -0.060629
  29 H :    0.016851
  30 H :    0.029607
  31 H :    0.025840
  32 H :    0.020998
  33 H :    0.031510

  Mayer bond orders larger than 0.100000
B(  0-S ,  1-C ) :   1.1495 B(  0-S ,  4-C ) :   1.1636 B(  1-C ,  2-C ) :   1.5986
B(  1-C , 32-H ) :   0.9697 B(  2-C ,  3-C ) :   1.2688 B(  2-C ,  6-C ) :   1.0056
B(  3-C ,  4-C ) :   1.5399 B(  3-C ,  5-H ) :   0.9966 B(  4-C , 20-C ) :   1.0221
B(  6-C ,  7-H ) :   0.9488 B(  6-C ,  8-H ) :   0.9262 B(  6-C ,  9-C ) :   1.0899
B(  9-C , 10-H ) :   0.9583 B(  9-C , 11-H ) :   0.9574 B(  9-C , 12-C ) :   1.0481
B( 12-C , 13-H ) :   0.9792 B( 12-C , 14-H ) :   0.9801 B( 12-C , 15-H ) :   0.9764
B( 16-S , 17-C ) :   1.1693 B( 16-S , 20-C ) :   1.1578 B( 17-C , 18-C ) :   1.5724
B( 17-C , 20-C ) :   0.1007 B( 17-C , 33-H ) :   0.9711 B( 18-C , 19-C ) :   1.2586
B( 18-C , 21-H ) :   1.0004 B( 19-C , 20-C ) :   1.5711 B( 19-C , 22-C ) :   1.0569
B( 22-C , 23-H ) :   0.9154 B( 22-C , 24-H ) :   0.9327 B( 22-C , 25-C ) :   1.0577
B( 25-C , 26-H ) :   0.9519 B( 25-C , 27-H ) :   0.9571 B( 25-C , 28-C ) :   1.0722
B( 28-C , 29-H ) :   0.9770 B( 28-C , 30-H ) :   0.9738 B( 28-C , 31-H ) :   0.9763

Dispersion correction           -0.014399451
FINAL SINGLE POINT ENERGY     -1339.875007937714

DIPOLE MOMENT
-------------
                                X             Y             Z
Electronic contribution:    -11.94543      23.08123      -1.80258
Nuclear contribution   :     12.12035     -23.46878       1.86722
                        -----------------------------------------
Total Dipole Moment    :      0.17492      -0.38755       0.06463
                        -----------------------------------------
Magnitude (a.u.)       :      0.43008
Magnitude (Debye)      :      1.09318

Rotational constants in cm-1:     0.018405     0.008793     0.007054
Rotational constants in MHz :   551.769015   263.606980   211.475020

                             ****ORCA TERMINATED NORMALLY****
TOTAL RUN TIME: 0 days 0 hours 0 minutes 33 seconds 660 msec
