                         Program Version 4.2.1 -  RELEASE  -
|  1> ! wB97X-D3 SP def2-SVP
|  2> %pal
|  3> nprocs 16
|  4> end
|  5>
|  6> * xyz 0 1
|  7> S 	 -7.88358 	 33.6574 	 54.6316
|  8> C 	 -6.12896 	 33.2934 	 54.6834
|  9> C 	 -5.44132 	 34.0854 	 53.788
| 10> C 	 -6.30946 	 34.9443 	 53.131
| 11> C 	 -7.63334 	 34.825 	 53.4205
| 12> H 	 -6.14294 	 35.6741 	 52.4043
| 13> C 	 -3.97022 	 33.9467 	 53.5
| 14> H 	 -3.78314 	 33.3028 	 52.6516
| 15> H 	 -3.4274 	 33.4125 	 54.3139
| 16> C 	 -3.13584 	 35.2346 	 53.3641
| 17> H 	 -2.21547 	 35.0096 	 52.8926
| 18> H 	 -3.68278 	 35.8552 	 52.7153
| 19> C 	 -2.89881 	 35.9714 	 54.6569
| 20> H 	 -3.70803 	 36.7059 	 54.8178
| 21> H 	 -2.65306 	 35.4855 	 55.5682
| 22> H 	 -2.06954 	 36.6739 	 54.5174
| 23> S 	 -9.82853 	 36.4003 	 53.7036
| 24> C 	 -10.8138 	 36.8182 	 52.3066
| 25> C 	 -10.385 	 36.2158 	 51.1703
| 26> C 	 -9.18631 	 35.4723 	 51.3622
| 27> C 	 -8.71571 	 35.4203 	 52.6941
| 28> H 	 -10.7741 	 36.2359 	 50.1247
| 29> C 	 -8.68396 	 34.4945 	 50.2632
| 30> H 	 -9.43717 	 33.7199 	 50.0758
| 31> H 	 -7.88545 	 33.9326 	 50.6531
| 32> C 	 -8.1425 	 35.2108 	 48.9811
| 33> H 	 -7.2627 	 35.7055 	 49.2713
| 34> H 	 -8.85402 	 35.9963 	 48.6157
| 35> C 	 -7.90093 	 34.2532 	 47.8837
| 36> H 	 -7.57564 	 33.2285 	 48.17
| 37> H 	 -7.26001 	 34.6402 	 47.1352
| 38> H 	 -8.85502 	 34.1905 	 47.327
| 39> H 	 -5.55638 	 32.4846 	 55.2202
| 40> H 	 -11.6701 	 37.484 	 52.3714
| 41> *
| 42>
| 43>                          ****END OF INPUT****

CARTESIAN COORDINATES (ANGSTROEM)
---------------------------------
  S     -7.883580   33.657400   54.631600
  C     -6.128960   33.293400   54.683400
  C     -5.441320   34.085400   53.788000
  C     -6.309460   34.944300   53.131000
  C     -7.633340   34.825000   53.420500
  H     -6.142940   35.674100   52.404300
  C     -3.970220   33.946700   53.500000
  H     -3.783140   33.302800   52.651600
  H     -3.427400   33.412500   54.313900
  C     -3.135840   35.234600   53.364100
  H     -2.215470   35.009600   52.892600
  H     -3.682780   35.855200   52.715300
  C     -2.898810   35.971400   54.656900
  H     -3.708030   36.705900   54.817800
  H     -2.653060   35.485500   55.568200
  H     -2.069540   36.673900   54.517400
  S     -9.828530   36.400300   53.703600
  C    -10.813800   36.818200   52.306600
  C    -10.385000   36.215800   51.170300
  C     -9.186310   35.472300   51.362200
  C     -8.715710   35.420300   52.694100
  H    -10.774100   36.235900   50.124700
  C     -8.683960   34.494500   50.263200
  H     -9.437170   33.719900   50.075800
  H     -7.885450   33.932600   50.653100
  C     -8.142500   35.210800   48.981100
  H     -7.262700   35.705500   49.271300
  H     -8.854020   35.996300   48.615700
  C     -7.900930   34.253200   47.883700
  H     -7.575640   33.228500   48.170000
  H     -7.260010   34.640200   47.135200
  H     -8.855020   34.190500   47.327000
  H     -5.556380   32.484600   55.220200
  H    -11.670100   37.484000   52.371400

 Total Charge           Charge          ....    0
 Multiplicity           Mult            ....    1
 Number of Electrons    NEL             ....  134
 Basis Dimension        Dim             ....  322

ORBITAL ENERGIES
----------------

  NO   OCC          E(Eh)            E(eV)
   0   2.0000     -88.967999     -2420.9423
   1   2.0000     -88.962667     -2420.7972
   2   2.0000     -10.330725      -281.1133
   3   2.0000     -10.321430      -280.8604
   4   2.0000     -10.320238      -280.8279
   5   2.0000     -10.318630      -280.7842
   6   2.0000     -10.307167      -280.4723
   7   2.0000     -10.298559      -280.2380
   8   2.0000     -10.295827      -280.1637
   9   2.0000     -10.292264      -280.0667
  10   2.0000     -10.289376      -279.9881
  11   2.0000     -10.283624      -279.8316
  12   2.0000     -10.282606      -279.8039
  13   2.0000     -10.279599      -279.7221
  14   2.0000     -10.274668      -279.5879
  15   2.0000     -10.271630      -279.5053
  16   2.0000      -8.082859      -219.9458
  17   2.0000      -8.077031      -219.7872
  18   2.0000      -6.041303      -164.3922
  19   2.0000      -6.037341      -164.2844
  20   2.0000      -6.035581      -164.2365
  21   2.0000      -6.033642      -164.1837
  22   2.0000      -6.031517      -164.1259
  23   2.0000      -6.027832      -164.0257
  24   2.0000      -1.011868       -27.5343
  25   2.0000      -0.983730       -26.7687
  26   2.0000      -0.917072       -24.9548
  27   2.0000      -0.909354       -24.7448
  28   2.0000      -0.875059       -23.8116
  29   2.0000      -0.852528       -23.1985
  30   2.0000      -0.847726       -23.0678
  31   2.0000      -0.817208       -22.2374
  32   2.0000      -0.786761       -21.4088
  33   2.0000      -0.771382       -20.9904
  34   2.0000      -0.712457       -19.3869
  35   2.0000      -0.698624       -19.0105
  36   2.0000      -0.694491       -18.8981
  37   2.0000      -0.659582       -17.9481
  38   2.0000      -0.647657       -17.6236
  39   2.0000      -0.622461       -16.9380
  40   2.0000      -0.601474       -16.3669
  41   2.0000      -0.569442       -15.4953
  42   2.0000      -0.564525       -15.3615
  43   2.0000      -0.553712       -15.0673
  44   2.0000      -0.541812       -14.7435
  45   2.0000      -0.529896       -14.4192
  46   2.0000      -0.514262       -13.9938
  47   2.0000      -0.512740       -13.9524
  48   2.0000      -0.507626       -13.8132
  49   2.0000      -0.498237       -13.5577
  50   2.0000      -0.489216       -13.3122
  51   2.0000      -0.482560       -13.1311
  52   2.0000      -0.472354       -12.8534
  53   2.0000      -0.469178       -12.7670
  54   2.0000      -0.458582       -12.4787
  55   2.0000      -0.452433       -12.3113
  56   2.0000      -0.438882       -11.9426
  57   2.0000      -0.438267       -11.9258
  58   2.0000      -0.435076       -11.8390
  59   2.0000      -0.422486       -11.4964
  60   2.0000      -0.416478       -11.3329
  61   2.0000      -0.415346       -11.3021
  62   2.0000      -0.411034       -11.1848
  63   2.0000      -0.342513        -9.3202
  64   2.0000      -0.337284        -9.1780
  65   2.0000      -0.329245        -8.9592
  66   2.0000      -0.295519        -8.0415
  67   0.0000       0.032790         0.8923
  68   0.0000       0.062290         1.6950
  69   0.0000       0.108483         2.9520
  70   0.0000       0.125924         3.4266
  71   0.0000       0.129197         3.5156

MULLIKEN ATOMIC CHARGES
-----------------------
   0 S :    0.125639
   1 C :   -0.139751
   2 C :   -0.041255
   3 C :    0.040527
   4 C :   -0.151929
   5 H :   -0.019858
   6 C :    0.047170
   7 H :    0.038680
   8 H :    0.013822
   9 C :   -0.036100
  10 H :    0.018855
  11 H :    0.014412
  12 C :   -0.046549
  13 H :    0.033770
  14 H :    0.029883
  15 H :    0.017927
  16 S :    0.083854
  17 C :   -0.079789
  18 C :   -0.015357
  19 C :   -0.033216
  20 C :   -0.179585
  21 H :    0.034297
  22 C :    0.040164
  23 H :    0.040226
  24 H :    0.010574
  25 C :   -0.071334
  26 H :    0.016042
  27 H :    0.030030
  28 C :   -0.029986
  29 H :    0.038651
  30 H :    0.021297
  31 H :    0.025514
  32 H :    0.060935
  33 H :    0.062442
Sum of atomic charges:   -0.0000000

LOEWDIN ATOMIC CHARGES
----------------------
   0 S :    0.418050
   1 C :   -0.193377
   2 C :   -0.066607
   3 C :   -0.061854
   4 C :   -0.217096
   5 H :    0.022011
   6 C :   -0.031730
   7 H :    0.032505
   8 H :    0.030548
   9 C :   -0.033513
  10 H :    0.020911
  11 H :    0.018026
  12 C :   -0.069772
  13 H :    0.032753
  14 H :    0.020119
  15 H :    0.029307
  16 S :    0.381874
  17 C :   -0.173449
  18 C :   -0.078897
  19 C :   -0.052687
  20 C :   -0.185384
  21 H :    0.041633
  22 C :   -0.024853
  23 H :    0.032777
  24 H :    0.021981
  25 C :   -0.039938
  26 H :    0.015274
  27 H :    0.025878
  28 C :   -0.068798
  29 H :    0.028555
  30 H :    0.021306
  31 H :    0.030923
  32 H :    0.042621
  33 H :    0.030902

  Mayer bond orders larger than 0.100000
B(  0-S ,  1-C ) :   1.1343 B(  0-S ,  4-C ) :   1.1565 B(  1-C ,  2-C ) :   1.6134
B(  1-C , 32-H ) :   0.9590 B(  2-C ,  3-C ) :   1.2202 B(  2-C ,  6-C ) :   1.0195
B(  3-C ,  4-C ) :   1.5822 B(  3-C ,  5-H ) :   1.0173 B(  4-C , 20-C ) :   1.0245
B(  6-C ,  7-H ) :   0.9379 B(  6-C ,  8-H ) :   0.9427 B(  6-C ,  9-C ) :   1.0778
B(  9-C , 10-H ) :   0.9552 B(  9-C , 11-H ) :   0.9541 B(  9-C , 12-C ) :   1.0805
B( 12-C , 13-H ) :   0.9740 B( 12-C , 14-H ) :   0.9789 B( 12-C , 15-H ) :   0.9702
B( 16-S , 17-C ) :   1.1537 B( 16-S , 20-C ) :   1.1272 B( 17-C , 18-C ) :   1.5948
B( 17-C , 20-C ) :   0.1028 B( 17-C , 33-H ) :   0.9673 B( 18-C , 19-C ) :   1.2549
B( 18-C , 21-H ) :   0.9783 B( 19-C , 20-C ) :   1.5956 B( 19-C , 22-C ) :   1.0340
B( 22-C , 23-H ) :   0.9531 B( 22-C , 24-H ) :   0.9359 B( 22-C , 25-C ) :   1.0437
B( 25-C , 26-H ) :   0.9548 B( 25-C , 27-H ) :   0.9640 B( 25-C , 28-C ) :   1.0851
B( 28-C , 29-H ) :   0.9726 B( 28-C , 30-H ) :   0.9694 B( 28-C , 31-H ) :   0.9735

Dispersion correction           -0.013823603
FINAL SINGLE POINT ENERGY     -1339.864277629287

DIPOLE MOMENT
-------------
                                X             Y             Z
Electronic contribution:    -20.24215       0.43643      17.63103
Nuclear contribution   :     20.67059      -0.50454     -18.28072
                        -----------------------------------------
Total Dipole Moment    :      0.42844      -0.06811      -0.64969
                        -----------------------------------------
Magnitude (a.u.)       :      0.78121
Magnitude (Debye)      :      1.98567

Rotational constants in cm-1:     0.016660     0.008753     0.006887
Rotational constants in MHz :   499.461261   262.416266   206.481107

                             ****ORCA TERMINATED NORMALLY****
TOTAL RUN TIME: 0 days 0 hours 0 minutes 35 seconds 341 msec
