                         Program Version 4.2.1 -  RELEASE  -
|  1> ! wB97X-D3 SP def2-SVP
|  2> %pal
|  3> nprocs 16
|  4> end
|  5>
|  6> * xyz 0 1
|  7> S 	 43.7606 	 17.5526 	 86.5751
|  8> C 	 42.4171 	 18.6911 	 86.7036
|  9> C 	 41.776 	 18.8011 	 85.457
| 10> C 	 42.2693 	 17.882 	 84.4916
| 11> C 	 43.2724 	 17.0687 	 84.9876
| 12> H 	 41.9687 	 17.8291 	 83.476
| 13> C 	 40.6361 	 19.7665 	 85.0873
| 14> H 	 40.4775 	 19.7612 	 84.0081
| 15> H 	 40.8631 	 20.7861 	 85.3317
| 16> C 	 39.2105 	 19.4179 	 85.6283
| 17> H 	 39.2813 	 18.3384 	 85.8559
| 18> H 	 39.0099 	 19.9202 	 86.5669
| 19> C 	 37.963 	 19.4575 	 84.7199
| 20> H 	 37.6871 	 20.5269 	 84.5768
| 21> H 	 38.1702 	 19.0077 	 83.7758
| 22> H 	 37.0856 	 18.9197 	 85.0883
| 23> S 	 45.7737 	 16.4016 	 84.1399
| 24> C 	 45.9969 	 15.179 	 82.8808
| 25> C 	 44.7925 	 14.6403 	 82.506
| 26> C 	 43.7371 	 15.2568 	 83.2082
| 27> C 	 44.0574 	 16.2043 	 84.1571
| 28> H 	 44.8636 	 13.9372 	 81.6598
| 29> C 	 42.3539 	 14.8265 	 82.7878
| 30> H 	 42.4341 	 14.4159 	 81.7233
| 31> H 	 41.8159 	 15.8242 	 82.6484
| 32> C 	 41.7005 	 14.0434 	 83.9289
| 33> H 	 41.7303 	 14.5389 	 84.8644
| 34> H 	 42.3329 	 13.203 	 84.1162
| 35> C 	 40.2418 	 13.749 	 83.4784
| 36> H 	 40.1382 	 13.202 	 82.5187
| 37> H 	 39.7032 	 14.7075 	 83.2346
| 38> H 	 39.8405 	 13.1227 	 84.2972
| 39> H 	 42.247 	 19.4254 	 87.4835
| 40> H 	 46.9997 	 14.9701 	 82.629
| 41> *
| 42>
| 43>                          ****END OF INPUT****

CARTESIAN COORDINATES (ANGSTROEM)
---------------------------------
  S     43.760600   17.552600   86.575100
  C     42.417100   18.691100   86.703600
  C     41.776000   18.801100   85.457000
  C     42.269300   17.882000   84.491600
  C     43.272400   17.068700   84.987600
  H     41.968700   17.829100   83.476000
  C     40.636100   19.766500   85.087300
  H     40.477500   19.761200   84.008100
  H     40.863100   20.786100   85.331700
  C     39.210500   19.417900   85.628300
  H     39.281300   18.338400   85.855900
  H     39.009900   19.920200   86.566900
  C     37.963000   19.457500   84.719900
  H     37.687100   20.526900   84.576800
  H     38.170200   19.007700   83.775800
  H     37.085600   18.919700   85.088300
  S     45.773700   16.401600   84.139900
  C     45.996900   15.179000   82.880800
  C     44.792500   14.640300   82.506000
  C     43.737100   15.256800   83.208200
  C     44.057400   16.204300   84.157100
  H     44.863600   13.937200   81.659800
  C     42.353900   14.826500   82.787800
  H     42.434100   14.415900   81.723300
  H     41.815900   15.824200   82.648400
  C     41.700500   14.043400   83.928900
  H     41.730300   14.538900   84.864400
  H     42.332900   13.203000   84.116200
  C     40.241800   13.749000   83.478400
  H     40.138200   13.202000   82.518700
  H     39.703200   14.707500   83.234600
  H     39.840500   13.122700   84.297200
  H     42.247000   19.425400   87.483500
  H     46.999700   14.970100   82.629000

 Total Charge           Charge          ....    0
 Multiplicity           Mult            ....    1
 Number of Electrons    NEL             ....  134
 Basis Dimension        Dim             ....  322

ORBITAL ENERGIES
----------------

  NO   OCC          E(Eh)            E(eV)
   0   2.0000     -88.973100     -2421.0811
   1   2.0000     -88.959410     -2420.7086
   2   2.0000     -10.329321      -281.0751
   3   2.0000     -10.321414      -280.8600
   4   2.0000     -10.319140      -280.7981
   5   2.0000     -10.314311      -280.6667
   6   2.0000     -10.307143      -280.4716
   7   2.0000     -10.296997      -280.1955
   8   2.0000     -10.294720      -280.1336
   9   2.0000     -10.294600      -280.1303
  10   2.0000     -10.294206      -280.1196
  11   2.0000     -10.292430      -280.0713
  12   2.0000     -10.285863      -279.8926
  13   2.0000     -10.282837      -279.8102
  14   2.0000     -10.280495      -279.7465
  15   2.0000     -10.279847      -279.7289
  16   2.0000      -8.087454      -220.0708
  17   2.0000      -8.074806      -219.7266
  18   2.0000      -6.045946      -164.5186
  19   2.0000      -6.041961      -164.4101
  20   2.0000      -6.038304      -164.3106
  21   2.0000      -6.033186      -164.1713
  22   2.0000      -6.029135      -164.0611
  23   2.0000      -6.025753      -163.9691
  24   2.0000      -1.012889       -27.5621
  25   2.0000      -0.986761       -26.8511
  26   2.0000      -0.908270       -24.7153
  27   2.0000      -0.906079       -24.6557
  28   2.0000      -0.873862       -23.7790
  29   2.0000      -0.852467       -23.1968
  30   2.0000      -0.844509       -22.9803
  31   2.0000      -0.815352       -22.1869
  32   2.0000      -0.782453       -21.2916
  33   2.0000      -0.763578       -20.7780
  34   2.0000      -0.711252       -19.3542
  35   2.0000      -0.699982       -19.0475
  36   2.0000      -0.694765       -18.9055
  37   2.0000      -0.668947       -18.2030
  38   2.0000      -0.642769       -17.4906
  39   2.0000      -0.621650       -16.9159
  40   2.0000      -0.593602       -16.1527
  41   2.0000      -0.570157       -15.5148
  42   2.0000      -0.562913       -15.3176
  43   2.0000      -0.554383       -15.0855
  44   2.0000      -0.530748       -14.4424
  45   2.0000      -0.529195       -14.4001
  46   2.0000      -0.514562       -14.0019
  47   2.0000      -0.507518       -13.8103
  48   2.0000      -0.505705       -13.7609
  49   2.0000      -0.500741       -13.6259
  50   2.0000      -0.494762       -13.4632
  51   2.0000      -0.484386       -13.1808
  52   2.0000      -0.473760       -12.8917
  53   2.0000      -0.468855       -12.7582
  54   2.0000      -0.464077       -12.6282
  55   2.0000      -0.449232       -12.2242
  56   2.0000      -0.444857       -12.1052
  57   2.0000      -0.439727       -11.9656
  58   2.0000      -0.428215       -11.6523
  59   2.0000      -0.423577       -11.5261
  60   2.0000      -0.413838       -11.2611
  61   2.0000      -0.403305       -10.9745
  62   2.0000      -0.400311       -10.8930
  63   2.0000      -0.352456        -9.5908
  64   2.0000      -0.334983        -9.1154
  65   2.0000      -0.327232        -8.9044
  66   2.0000      -0.288945        -7.8626
  67   0.0000       0.024287         0.6609
  68   0.0000       0.069680         1.8961
  69   0.0000       0.106049         2.8857
  70   0.0000       0.124546         3.3891
  71   0.0000       0.131735         3.5847

MULLIKEN ATOMIC CHARGES
-----------------------
   0 S :    0.118375
   1 C :   -0.106820
   2 C :   -0.092104
   3 C :    0.018700
   4 C :   -0.136683
   5 H :    0.010807
   6 C :    0.090588
   7 H :    0.008827
   8 H :    0.029021
   9 C :   -0.099987
  10 H :    0.031890
  11 H :    0.029853
  12 C :   -0.054799
  13 H :    0.034754
  14 H :    0.021227
  15 H :    0.041515
  16 S :    0.079154
  17 C :   -0.099769
  18 C :   -0.026678
  19 C :   -0.076090
  20 C :   -0.115137
  21 H :    0.036279
  22 C :    0.019172
  23 H :    0.040452
  24 H :    0.015055
  25 C :   -0.032174
  26 H :    0.036027
  27 H :    0.019462
  28 C :   -0.048515
  29 H :    0.029435
  30 H :    0.035869
  31 H :    0.044503
  32 H :    0.052035
  33 H :    0.045753
Sum of atomic charges:   -0.0000000

LOEWDIN ATOMIC CHARGES
----------------------
   0 S :    0.420366
   1 C :   -0.200225
   2 C :   -0.054879
   3 C :   -0.056136
   4 C :   -0.200156
   5 H :    0.026233
   6 C :   -0.030073
   7 H :    0.029613
   8 H :    0.027142
   9 C :   -0.047744
  10 H :    0.028517
  11 H :    0.019897
  12 C :   -0.066303
  13 H :    0.025711
  14 H :    0.018252
  15 H :    0.031272
  16 S :    0.400084
  17 C :   -0.163219
  18 C :   -0.079135
  19 C :   -0.065311
  20 C :   -0.211174
  21 H :    0.043220
  22 C :   -0.039559
  23 H :    0.038168
  24 H :    0.028286
  25 C :   -0.033389
  26 H :    0.026496
  27 H :    0.022708
  28 C :   -0.071766
  29 H :    0.025474
  30 H :    0.030711
  31 H :    0.028880
  32 H :    0.031610
  33 H :    0.016430

  Mayer bond orders larger than 0.100000
B(  0-S ,  1-C ) :   1.1359 B(  0-S ,  4-C ) :   1.1610 B(  1-C ,  2-C ) :   1.5838
B(  1-C ,  4-C ) :   0.1011 B(  1-C , 32-H ) :   0.9699 B(  2-C ,  3-C ) :   1.2750
B(  2-C ,  6-C ) :   1.0395 B(  3-C ,  4-C ) :   1.5304 B(  3-C ,  5-H ) :   0.9937
B(  4-C , 20-C ) :   1.0593 B(  6-C ,  7-H ) :   0.9444 B(  6-C ,  8-H ) :   0.9394
B(  6-C ,  9-C ) :   1.0383 B(  9-C , 10-H ) :   0.9622 B(  9-C , 11-H ) :   0.9583
B(  9-C , 12-C ) :   1.0890 B( 12-C , 13-H ) :   0.9781 B( 12-C , 14-H ) :   0.9708
B( 12-C , 15-H ) :   0.9754 B( 16-S , 17-C ) :   1.1759 B( 16-S , 20-C ) :   1.1322
B( 17-C , 18-C ) :   1.5736 B( 17-C , 20-C ) :   0.1023 B( 17-C , 33-H ) :   0.9758
B( 18-C , 19-C ) :   1.2476 B( 18-C , 21-H ) :   0.9969 B( 19-C , 20-C ) :   1.5899
B( 19-C , 22-C ) :   1.0313 B( 22-C , 23-H ) :   0.9429 B( 22-C , 24-H ) :   0.9327
B( 22-C , 25-C ) :   1.0502 B( 25-C , 26-H ) :   0.9551 B( 25-C , 27-H ) :   0.9526
B( 25-C , 28-C ) :   1.0703 B( 28-C , 29-H ) :   0.9749 B( 28-C , 30-H ) :   0.9735
B( 28-C , 31-H ) :   0.9748

Dispersion correction           -0.014185776
FINAL SINGLE POINT ENERGY     -1339.860631681668

DIPOLE MOMENT
-------------
                                X             Y             Z
Electronic contribution:     30.49485       0.62016       7.15687
Nuclear contribution   :    -30.88532      -0.56762      -7.56093
                        -----------------------------------------
Total Dipole Moment    :     -0.39047       0.05253      -0.40406
                        -----------------------------------------
Magnitude (a.u.)       :      0.56435
Magnitude (Debye)      :      1.43447

Rotational constants in cm-1:     0.018368     0.009032     0.006810
Rotational constants in MHz :   550.668678   270.783106   204.165019

                             ****ORCA TERMINATED NORMALLY****
TOTAL RUN TIME: 0 days 0 hours 0 minutes 28 seconds 724 msec
