                         Program Version 4.2.1 -  RELEASE  -
|  1> ! wB97X-D3 SP def2-SVP
|  2> %pal
|  3> nprocs 16
|  4> end
|  5>
|  6> * xyz 0 1
|  7> S 	 -65.5788 	 43.6594 	 122.523
|  8> C 	 -66.6186 	 42.6382 	 123.576
|  9> C 	 -67.2746 	 43.5239 	 124.428
| 10> C 	 -67.2811 	 44.8854 	 123.948
| 11> C 	 -66.3668 	 45.1472 	 122.951
| 12> H 	 -67.8793 	 45.7591 	 124.318
| 13> C 	 -68.157 	 42.9475 	 125.569
| 14> H 	 -68.997 	 42.3505 	 125.058
| 15> H 	 -68.7528 	 43.6672 	 126.12
| 16> C 	 -67.4676 	 42.0136 	 126.544
| 17> H 	 -66.8202 	 41.4301 	 125.903
| 18> H 	 -66.7384 	 42.5528 	 127.021
| 19> C 	 -68.3544 	 41.1228 	 127.363
| 20> H 	 -68.9721 	 41.959 	 127.769
| 21> H 	 -68.8765 	 40.3915 	 126.629
| 22> H 	 -67.7117 	 40.6019 	 128.026
| 23> S 	 -66.6447 	 46.4451 	 120.535
| 24> C 	 -66.2566 	 48.131 	 120.379
| 25> C 	 -65.9036 	 48.6188 	 121.589
| 26> C 	 -65.8042 	 47.6727 	 122.672
| 27> C 	 -66.1588 	 46.3824 	 122.232
| 28> H 	 -65.5643 	 49.6574 	 121.626
| 29> C 	 -65.5347 	 48.1343 	 124.112
| 30> H 	 -65.337 	 47.2014 	 124.694
| 31> H 	 -66.484 	 48.6082 	 124.464
| 32> C 	 -64.3613 	 49.0616 	 124.294
| 33> H 	 -64.4997 	 49.9708 	 123.773
| 34> H 	 -63.4278 	 48.7129 	 123.861
| 35> C 	 -64.1363 	 49.5345 	 125.743
| 36> H 	 -64.851 	 50.2454 	 126.031
| 37> H 	 -63.1615 	 50.1069 	 125.84
| 38> H 	 -64.1633 	 48.7693 	 126.552
| 39> H 	 -66.3674 	 41.6439 	 123.852
| 40> H 	 -66.3362 	 48.6626 	 119.48
| 41> *
| 42>
| 43>                          ****END OF INPUT****

CARTESIAN COORDINATES (ANGSTROEM)
---------------------------------
  S    -65.578800   43.659400  122.523000
  C    -66.618600   42.638200  123.576000
  C    -67.274600   43.523900  124.428000
  C    -67.281100   44.885400  123.948000
  C    -66.366800   45.147200  122.951000
  H    -67.879300   45.759100  124.318000
  C    -68.157000   42.947500  125.569000
  H    -68.997000   42.350500  125.058000
  H    -68.752800   43.667200  126.120000
  C    -67.467600   42.013600  126.544000
  H    -66.820200   41.430100  125.903000
  H    -66.738400   42.552800  127.021000
  C    -68.354400   41.122800  127.363000
  H    -68.972100   41.959000  127.769000
  H    -68.876500   40.391500  126.629000
  H    -67.711700   40.601900  128.026000
  S    -66.644700   46.445100  120.535000
  C    -66.256600   48.131000  120.379000
  C    -65.903600   48.618800  121.589000
  C    -65.804200   47.672700  122.672000
  C    -66.158800   46.382400  122.232000
  H    -65.564300   49.657400  121.626000
  C    -65.534700   48.134300  124.112000
  H    -65.337000   47.201400  124.694000
  H    -66.484000   48.608200  124.464000
  C    -64.361300   49.061600  124.294000
  H    -64.499700   49.970800  123.773000
  H    -63.427800   48.712900  123.861000
  C    -64.136300   49.534500  125.743000
  H    -64.851000   50.245400  126.031000
  H    -63.161500   50.106900  125.840000
  H    -64.163300   48.769300  126.552000
  H    -66.367400   41.643900  123.852000
  H    -66.336200   48.662600  119.480000

 Total Charge           Charge          ....    0
 Multiplicity           Mult            ....    1
 Number of Electrons    NEL             ....  134
 Basis Dimension        Dim             ....  322

ORBITAL ENERGIES
----------------

  NO   OCC          E(Eh)            E(eV)
   0   2.0000     -88.962463     -2420.7917
   1   2.0000     -88.962361     -2420.7889
   2   2.0000     -10.330473      -281.1065
   3   2.0000     -10.329823      -281.0888
   4   2.0000     -10.316883      -280.7367
   5   2.0000     -10.313276      -280.6385
   6   2.0000     -10.311822      -280.5989
   7   2.0000     -10.310518      -280.5635
   8   2.0000     -10.300961      -280.3034
   9   2.0000     -10.300428      -280.2889
  10   2.0000     -10.296358      -280.1781
  11   2.0000     -10.291809      -280.0544
  12   2.0000     -10.288114      -279.9538
  13   2.0000     -10.283771      -279.8356
  14   2.0000     -10.280961      -279.7592
  15   2.0000     -10.273244      -279.5492
  16   2.0000      -8.077375      -219.7966
  17   2.0000      -8.076840      -219.7820
  18   2.0000      -6.035878      -164.2446
  19   2.0000      -6.035427      -164.2323
  20   2.0000      -6.031805      -164.1337
  21   2.0000      -6.031296      -164.1199
  22   2.0000      -6.028131      -164.0338
  23   2.0000      -6.027585      -164.0189
  24   2.0000      -1.006129       -27.3782
  25   2.0000      -0.983548       -26.7637
  26   2.0000      -0.919403       -25.0182
  27   2.0000      -0.911284       -24.7973
  28   2.0000      -0.875869       -23.8336
  29   2.0000      -0.849395       -23.1132
  30   2.0000      -0.841081       -22.8870
  31   2.0000      -0.817907       -22.2564
  32   2.0000      -0.782367       -21.2893
  33   2.0000      -0.772458       -21.0197
  34   2.0000      -0.709936       -19.3183
  35   2.0000      -0.705932       -19.2094
  36   2.0000      -0.698952       -19.0194
  37   2.0000      -0.654183       -17.8012
  38   2.0000      -0.644296       -17.5322
  39   2.0000      -0.611162       -16.6306
  40   2.0000      -0.599714       -16.3191
  41   2.0000      -0.580940       -15.8082
  42   2.0000      -0.567400       -15.4397
  43   2.0000      -0.559922       -15.2362
  44   2.0000      -0.534279       -14.5385
  45   2.0000      -0.530492       -14.4354
  46   2.0000      -0.520230       -14.1562
  47   2.0000      -0.514305       -13.9949
  48   2.0000      -0.508363       -13.8333
  49   2.0000      -0.500382       -13.6161
  50   2.0000      -0.494761       -13.4631
  51   2.0000      -0.478854       -13.0303
  52   2.0000      -0.473270       -12.8783
  53   2.0000      -0.461182       -12.5494
  54   2.0000      -0.459906       -12.5147
  55   2.0000      -0.445372       -12.1192
  56   2.0000      -0.439265       -11.9530
  57   2.0000      -0.437177       -11.8962
  58   2.0000      -0.433279       -11.7901
  59   2.0000      -0.420293       -11.4368
  60   2.0000      -0.417431       -11.3589
  61   2.0000      -0.415959       -11.3188
  62   2.0000      -0.406757       -11.0684
  63   2.0000      -0.343686        -9.3522
  64   2.0000      -0.329034        -8.9535
  65   2.0000      -0.324186        -8.8216
  66   2.0000      -0.304520        -8.2864
  67   0.0000       0.027941         0.7603
  68   0.0000       0.062862         1.7106
  69   0.0000       0.112679         3.0662
  70   0.0000       0.119078         3.2403
  71   0.0000       0.127537         3.4705

MULLIKEN ATOMIC CHARGES
-----------------------
   0 S :    0.097208
   1 C :   -0.106292
   2 C :   -0.087684
   3 C :    0.028221
   4 C :   -0.174239
   5 H :    0.032453
   6 C :    0.012980
   7 H :    0.042646
   8 H :    0.011786
   9 C :   -0.056770
  10 H :   -0.013553
  11 H :    0.003309
  12 C :   -0.025985
  13 H :    0.045682
  14 H :    0.053305
  15 H :    0.038872
  16 S :    0.106770
  17 C :   -0.069938
  18 C :   -0.044555
  19 C :   -0.023202
  20 C :   -0.164967
  21 H :    0.025406
  22 C :    0.063162
  23 H :    0.039898
  24 H :    0.049718
  25 C :   -0.064787
  26 H :    0.014573
  27 H :    0.030845
  28 C :   -0.058399
  29 H :    0.016200
  30 H :    0.037984
  31 H :    0.033252
  32 H :    0.063266
  33 H :    0.042834
Sum of atomic charges:   -0.0000000

LOEWDIN ATOMIC CHARGES
----------------------
   0 S :    0.394201
   1 C :   -0.181850
   2 C :   -0.055459
   3 C :   -0.069248
   4 C :   -0.202951
   5 H :    0.041424
   6 C :   -0.038537
   7 H :    0.039777
   8 H :    0.019507
   9 C :   -0.048887
  10 H :    0.013207
  11 H :    0.012513
  12 C :   -0.060288
  13 H :    0.036977
  14 H :    0.040928
  15 H :    0.024670
  16 S :    0.407823
  17 C :   -0.173996
  18 C :   -0.079966
  19 C :   -0.049770
  20 C :   -0.202205
  21 H :    0.031865
  22 C :   -0.032863
  23 H :    0.037106
  24 H :    0.040437
  25 C :   -0.044154
  26 H :    0.018824
  27 H :    0.027467
  28 C :   -0.067377
  29 H :    0.015213
  30 H :    0.035228
  31 H :    0.025372
  32 H :    0.022215
  33 H :    0.022799

  Mayer bond orders larger than 0.100000
B(  0-S ,  1-C ) :   1.1275 B(  0-S ,  4-C ) :   1.1618 B(  1-C ,  2-C ) :   1.6020
B(  1-C ,  4-C ) :   0.1016 B(  1-C , 32-H ) :   0.9640 B(  2-C ,  3-C ) :   1.2266
B(  2-C ,  6-C ) :   1.0160 B(  3-C ,  4-C ) :   1.5825 B(  3-C ,  5-H ) :   0.9863
B(  4-C , 20-C ) :   1.0292 B(  6-C ,  7-H ) :   0.9472 B(  6-C ,  8-H ) :   0.9471
B(  6-C ,  9-C ) :   1.0497 B(  9-C , 10-H ) :   0.9481 B(  9-C , 11-H ) :   0.9498
B(  9-C , 12-C ) :   1.0598 B( 12-C , 13-H ) :   0.9790 B( 12-C , 14-H ) :   0.9721
B( 12-C , 15-H ) :   0.9711 B( 16-S , 17-C ) :   1.1517 B( 16-S , 20-C ) :   1.1511
B( 17-C , 18-C ) :   1.6199 B( 17-C , 33-H ) :   0.9759 B( 18-C , 19-C ) :   1.2304
B( 18-C , 21-H ) :   0.9836 B( 19-C , 20-C ) :   1.5884 B( 19-C , 22-C ) :   1.0414
B( 22-C , 23-H ) :   0.9311 B( 22-C , 24-H ) :   0.9366 B( 22-C , 25-C ) :   1.0677
B( 25-C , 26-H ) :   0.9463 B( 25-C , 27-H ) :   0.9594 B( 25-C , 28-C ) :   1.0829
B( 28-C , 29-H ) :   0.9750 B( 28-C , 30-H ) :   0.9741 B( 28-C , 31-H ) :   0.9765

Dispersion correction           -0.013149914
FINAL SINGLE POINT ENERGY     -1339.853106240640

DIPOLE MOMENT
-------------
                                X             Y             Z
Electronic contribution:      0.90751      -2.14691     -27.24146
Nuclear contribution   :     -0.97164       2.54850      27.82838
                        -----------------------------------------
Total Dipole Moment    :     -0.06414       0.40159       0.58692
                        -----------------------------------------
Magnitude (a.u.)       :      0.71405
Magnitude (Debye)      :      1.81496

Rotational constants in cm-1:     0.018898     0.007311     0.005761
Rotational constants in MHz :   566.554766   219.173358   172.698961

                             ****ORCA TERMINATED NORMALLY****
TOTAL RUN TIME: 0 days 0 hours 0 minutes 31 seconds 369 msec
