                         Program Version 4.2.1 -  RELEASE  -
|  1> ! wB97X-D3 SP def2-SVP
|  2> %pal
|  3> nprocs 16
|  4> end
|  5>
|  6> * xyz 0 1
|  7> S 	 1.1453 	 -18.8975 	 82.4747
|  8> C 	 0.483733 	 -19.5524 	 83.9387
|  9> C 	 -0.887856 	 -19.2746 	 84.0212
| 10> C 	 -1.1928 	 -18.2872 	 83.0465
| 11> C 	 -0.136704 	 -17.7602 	 82.3052
| 12> H 	 -2.13086 	 -17.812 	 82.9249
| 13> C 	 -1.88814 	 -19.8088 	 85.011
| 14> H 	 -2.48654 	 -18.9841 	 85.488
| 15> H 	 -1.34181 	 -20.3578 	 85.7451
| 16> C 	 -3.00445 	 -20.6091 	 84.3611
| 17> H 	 -2.60763 	 -21.0831 	 83.4337
| 18> H 	 -3.27525 	 -21.3206 	 85.1825
| 19> C 	 -4.27667 	 -19.9529 	 83.8713
| 20> H 	 -5.01147 	 -20.7524 	 83.6266
| 21> H 	 -4.57582 	 -19.1422 	 84.6104
| 22> H 	 -4.07965 	 -19.5682 	 82.8736
| 23> S 	 -0.394916 	 -16.8189 	 79.7453
| 24> C 	 -0.191909 	 -15.1401 	 79.5147
| 25> C 	 -0.208384 	 -14.4157 	 80.6772
| 26> C 	 -0.117801 	 -15.2546 	 81.8017
| 27> C 	 -0.072298 	 -16.5903 	 81.4619
| 28> H 	 -0.126484 	 -13.3003 	 80.6038
| 29> C 	 -0.154626 	 -14.692 	 83.2459
| 30> H 	 0.400171 	 -13.7393 	 83.1813
| 31> H 	 0.418543 	 -15.3969 	 83.8688
| 32> C 	 -1.55407 	 -14.4258 	 83.8082
| 33> H 	 -2.07247 	 -15.397 	 83.667
| 34> H 	 -2.08346 	 -13.8862 	 83.0569
| 35> C 	 -1.64244 	 -13.904 	 85.2528
| 36> H 	 -1.90135 	 -14.692 	 85.9165
| 37> H 	 -2.39926 	 -13.0902 	 85.295
| 38> H 	 -0.722439 	 -13.4845 	 85.603
| 39> H 	 0.985917 	 -20.1526 	 84.5807
| 40> H 	 0.035703 	 -14.711 	 78.5649
| 41> *
| 42>
| 43>                          ****END OF INPUT****

CARTESIAN COORDINATES (ANGSTROEM)
---------------------------------
  S      1.145300  -18.897500   82.474700
  C      0.483733  -19.552400   83.938700
  C     -0.887856  -19.274600   84.021200
  C     -1.192800  -18.287200   83.046500
  C     -0.136704  -17.760200   82.305200
  H     -2.130860  -17.812000   82.924900
  C     -1.888140  -19.808800   85.011000
  H     -2.486540  -18.984100   85.488000
  H     -1.341810  -20.357800   85.745100
  C     -3.004450  -20.609100   84.361100
  H     -2.607630  -21.083100   83.433700
  H     -3.275250  -21.320600   85.182500
  C     -4.276670  -19.952900   83.871300
  H     -5.011470  -20.752400   83.626600
  H     -4.575820  -19.142200   84.610400
  H     -4.079650  -19.568200   82.873600
  S     -0.394916  -16.818900   79.745300
  C     -0.191909  -15.140100   79.514700
  C     -0.208384  -14.415700   80.677200
  C     -0.117801  -15.254600   81.801700
  C     -0.072298  -16.590300   81.461900
  H     -0.126484  -13.300300   80.603800
  C     -0.154626  -14.692000   83.245900
  H      0.400171  -13.739300   83.181300
  H      0.418543  -15.396900   83.868800
  C     -1.554070  -14.425800   83.808200
  H     -2.072470  -15.397000   83.667000
  H     -2.083460  -13.886200   83.056900
  C     -1.642440  -13.904000   85.252800
  H     -1.901350  -14.692000   85.916500
  H     -2.399260  -13.090200   85.295000
  H     -0.722439  -13.484500   85.603000
  H      0.985917  -20.152600   84.580700
  H      0.035703  -14.711000   78.564900

 Total Charge           Charge          ....    0
 Multiplicity           Mult            ....    1
 Number of Electrons    NEL             ....  134
 Basis Dimension        Dim             ....  322

ORBITAL ENERGIES
----------------

  NO   OCC          E(Eh)            E(eV)
   0   2.0000     -88.963453     -2420.8186
   1   2.0000     -88.959615     -2420.7142
   2   2.0000     -10.322668      -280.8941
   3   2.0000     -10.322094      -280.8785
   4   2.0000     -10.310495      -280.5628
   5   2.0000     -10.308331      -280.5039
   6   2.0000     -10.303575      -280.3745
   7   2.0000     -10.301204      -280.3100
   8   2.0000     -10.294721      -280.1336
   9   2.0000     -10.292967      -280.0859
  10   2.0000     -10.291991      -280.0593
  11   2.0000     -10.289108      -279.9809
  12   2.0000     -10.287602      -279.9399
  13   2.0000     -10.286112      -279.8993
  14   2.0000     -10.282617      -279.8042
  15   2.0000     -10.277829      -279.6740
  16   2.0000      -8.079285      -219.8485
  17   2.0000      -8.075458      -219.7444
  18   2.0000      -6.037585      -164.2910
  19   2.0000      -6.033861      -164.1897
  20   2.0000      -6.033792      -164.1878
  21   2.0000      -6.029977      -164.0840
  22   2.0000      -6.029945      -164.0832
  23   2.0000      -6.026190      -163.9810
  24   2.0000      -1.012051       -27.5393
  25   2.0000      -0.991160       -26.9708
  26   2.0000      -0.917922       -24.9779
  27   2.0000      -0.905191       -24.6315
  28   2.0000      -0.871743       -23.7213
  29   2.0000      -0.851984       -23.1837
  30   2.0000      -0.845727       -23.0134
  31   2.0000      -0.814381       -22.1604
  32   2.0000      -0.788398       -21.4534
  33   2.0000      -0.776160       -21.1204
  34   2.0000      -0.707550       -19.2534
  35   2.0000      -0.696498       -18.9527
  36   2.0000      -0.686506       -18.6808
  37   2.0000      -0.658837       -17.9279
  38   2.0000      -0.648696       -17.6519
  39   2.0000      -0.620441       -16.8831
  40   2.0000      -0.595320       -16.1995
  41   2.0000      -0.581828       -15.8323
  42   2.0000      -0.560077       -15.2405
  43   2.0000      -0.552485       -15.0339
  44   2.0000      -0.541437       -14.7333
  45   2.0000      -0.520547       -14.1648
  46   2.0000      -0.518321       -14.1042
  47   2.0000      -0.516228       -14.0473
  48   2.0000      -0.508244       -13.8300
  49   2.0000      -0.500831       -13.6283
  50   2.0000      -0.489932       -13.3317
  51   2.0000      -0.485820       -13.2198
  52   2.0000      -0.477544       -12.9946
  53   2.0000      -0.467894       -12.7320
  54   2.0000      -0.462966       -12.5980
  55   2.0000      -0.448794       -12.2123
  56   2.0000      -0.446927       -12.1615
  57   2.0000      -0.434030       -11.8106
  58   2.0000      -0.430276       -11.7084
  59   2.0000      -0.424183       -11.5426
  60   2.0000      -0.416437       -11.3318
  61   2.0000      -0.407807       -11.0970
  62   2.0000      -0.405951       -11.0465
  63   2.0000      -0.335755        -9.1364
  64   2.0000      -0.322329        -8.7710
  65   2.0000      -0.319903        -8.7050
  66   2.0000      -0.305044        -8.3007
  67   0.0000       0.034167         0.9297
  68   0.0000       0.050680         1.3791
  69   0.0000       0.111989         3.0474
  70   0.0000       0.114528         3.1165
  71   0.0000       0.131090         3.5671

MULLIKEN ATOMIC CHARGES
-----------------------
   0 S :    0.114909
   1 C :   -0.083117
   2 C :   -0.092529
   3 C :    0.051908
   4 C :   -0.193702
   5 H :   -0.003503
   6 C :    0.117963
   7 H :    0.027445
   8 H :    0.013898
   9 C :   -0.131110
  10 H :    0.040035
  11 H :    0.039189
  12 C :   -0.051957
  13 H :    0.046096
  14 H :    0.044154
  15 H :    0.031576
  16 S :    0.115738
  17 C :   -0.083011
  18 C :   -0.056579
  19 C :   -0.036515
  20 C :   -0.174462
  21 H :    0.037744
  22 C :    0.069022
  23 H :    0.020097
  24 H :    0.035959
  25 C :   -0.063268
  26 H :    0.010158
  27 H :    0.007958
  28 C :    0.000910
  29 H :    0.034668
  30 H :    0.037902
  31 H :    0.024849
  32 H :   -0.000140
  33 H :    0.047717
Sum of atomic charges:   -0.0000000

LOEWDIN ATOMIC CHARGES
----------------------
   0 S :    0.419787
   1 C :   -0.178647
   2 C :   -0.062382
   3 C :   -0.057510
   4 C :   -0.211656
   5 H :    0.018189
   6 C :   -0.030968
   7 H :    0.035924
   8 H :    0.027131
   9 C :   -0.053125
  10 H :    0.029816
  11 H :    0.030370
  12 C :   -0.073501
  13 H :    0.037725
  14 H :    0.029882
  15 H :    0.023328
  16 S :    0.416102
  17 C :   -0.185707
  18 C :   -0.081832
  19 C :   -0.047765
  20 C :   -0.206669
  21 H :    0.042372
  22 C :   -0.027008
  23 H :    0.027052
  24 H :    0.031291
  25 C :   -0.047937
  26 H :    0.025942
  27 H :    0.018366
  28 C :   -0.058417
  29 H :    0.026263
  30 H :    0.034499
  31 H :    0.023363
  32 H :    0.003019
  33 H :    0.022703

  Mayer bond orders larger than 0.100000
B(  0-S ,  1-C ) :   1.1658 B(  0-S ,  4-C ) :   1.1524 B(  1-C ,  2-C ) :   1.5612
B(  1-C ,  4-C ) :   0.1108 B(  1-C , 32-H ) :   0.9876 B(  2-C ,  3-C ) :   1.2388
B(  2-C ,  6-C ) :   1.0454 B(  3-C ,  4-C ) :   1.5670 B(  3-C ,  5-H ) :   0.9991
B(  4-C , 20-C ) :   1.0238 B(  6-C ,  7-H ) :   0.9350 B(  6-C ,  8-H ) :   0.9347
B(  6-C ,  9-C ) :   1.0485 B(  9-C , 10-H ) :   0.9577 B(  9-C , 11-H ) :   0.9573
B(  9-C , 12-C ) :   1.0833 B( 12-C , 13-H ) :   0.9664 B( 12-C , 14-H ) :   0.9696
B( 12-C , 15-H ) :   0.9733 B( 16-S , 17-C ) :   1.1724 B( 16-S , 20-C ) :   1.1473
B( 17-C , 18-C ) :   1.6065 B( 17-C , 20-C ) :   0.1043 B( 17-C , 33-H ) :   0.9678
B( 18-C , 19-C ) :   1.2438 B( 18-C , 21-H ) :   0.9839 B( 19-C , 20-C ) :   1.6134
B( 19-C , 22-C ) :   1.0389 B( 22-C , 23-H ) :   0.9300 B( 22-C , 24-H ) :   0.9330
B( 22-C , 25-C ) :   1.0723 B( 25-C , 26-H ) :   0.9503 B( 25-C , 27-H ) :   0.9557
B( 25-C , 28-C ) :   1.0557 B( 28-C , 29-H ) :   0.9763 B( 28-C , 30-H ) :   0.9766
B( 28-C , 31-H ) :   0.9787

Dispersion correction           -0.014726284
FINAL SINGLE POINT ENERGY     -1339.848015337678

DIPOLE MOMENT
-------------
                                X             Y             Z
Electronic contribution:     17.94664      -4.13362     -19.97300
Nuclear contribution   :    -18.35796       4.33635      20.37747
                        -----------------------------------------
Total Dipole Moment    :     -0.41133       0.20273       0.40447
                        -----------------------------------------
Magnitude (a.u.)       :      0.61146
Magnitude (Debye)      :      1.55421

Rotational constants in cm-1:     0.016362     0.009433     0.007743
Rotational constants in MHz :   490.530737   282.800675   232.139859

                             ****ORCA TERMINATED NORMALLY****
TOTAL RUN TIME: 0 days 0 hours 0 minutes 35 seconds 387 msec
