                         Program Version 4.2.1 -  RELEASE  -
|  1> ! wB97X-D3 SP def2-SVP
|  2> %pal
|  3> nprocs 16
|  4> end
|  5>
|  6> * xyz 0 1
|  7> S 	 6.83817 	 -15.2082 	 68.0969
|  8> C 	 6.11861 	 -15.2374 	 66.5485
|  9> C 	 6.76425 	 -14.4375 	 65.6242
| 10> C 	 7.79822 	 -13.7203 	 66.2703
| 11> C 	 7.89572 	 -13.9308 	 67.5846
| 12> H 	 8.3836 	 -12.9955 	 65.6883
| 13> C 	 6.43649 	 -14.2467 	 64.1397
| 14> H 	 5.88567 	 -15.1529 	 63.8031
| 15> H 	 7.39668 	 -14.2472 	 63.5896
| 16> C 	 5.59274 	 -13.0357 	 63.7967
| 17> H 	 6.14645 	 -12.2011 	 64.1577
| 18> H 	 5.6705 	 -12.9659 	 62.7473
| 19> C 	 4.2452 	 -13.0002 	 64.3941
| 20> H 	 3.72266 	 -12.008 	 64.2343
| 21> H 	 3.60673 	 -13.8299 	 63.9824
| 22> H 	 4.31749 	 -13.1387 	 65.4434
| 23> S 	 9.7694 	 -14.1732 	 69.7038
| 24> C 	 10.4038 	 -12.7402 	 70.4908
| 25> C 	 9.96153 	 -11.6434 	 69.8093
| 26> C 	 9.06866 	 -11.8604 	 68.7322
| 27> C 	 8.76463 	 -13.2206 	 68.5229
| 28> H 	 10.4356 	 -10.6822 	 69.9991
| 29> C 	 8.60498 	 -10.7711 	 67.8496
| 30> H 	 7.88406 	 -11.2724 	 67.2156
| 31> H 	 9.39638 	 -10.4805 	 67.1592
| 32> C 	 8.00487 	 -9.49185 	 68.5279
| 33> H 	 7.72087 	 -8.81258 	 67.7741
| 34> H 	 8.75894 	 -9.02382 	 69.1134
| 35> C 	 6.7616 	 -9.903 	 69.317
| 36> H 	 6.14968 	 -9.10455 	 69.6546
| 37> H 	 6.99125 	 -10.5079 	 70.2109
| 38> H 	 6.12995 	 -10.5125 	 68.6094
| 39> H 	 5.24356 	 -15.889 	 66.2993
| 40> H 	 11.3018 	 -12.6886 	 71.1502
| 41> *
| 42>
| 43>                          ****END OF INPUT****

CARTESIAN COORDINATES (ANGSTROEM)
---------------------------------
  S      6.838170  -15.208200   68.096900
  C      6.118610  -15.237400   66.548500
  C      6.764250  -14.437500   65.624200
  C      7.798220  -13.720300   66.270300
  C      7.895720  -13.930800   67.584600
  H      8.383600  -12.995500   65.688300
  C      6.436490  -14.246700   64.139700
  H      5.885670  -15.152900   63.803100
  H      7.396680  -14.247200   63.589600
  C      5.592740  -13.035700   63.796700
  H      6.146450  -12.201100   64.157700
  H      5.670500  -12.965900   62.747300
  C      4.245200  -13.000200   64.394100
  H      3.722660  -12.008000   64.234300
  H      3.606730  -13.829900   63.982400
  H      4.317490  -13.138700   65.443400
  S      9.769400  -14.173200   69.703800
  C     10.403800  -12.740200   70.490800
  C      9.961530  -11.643400   69.809300
  C      9.068660  -11.860400   68.732200
  C      8.764630  -13.220600   68.522900
  H     10.435600  -10.682200   69.999100
  C      8.604980  -10.771100   67.849600
  H      7.884060  -11.272400   67.215600
  H      9.396380  -10.480500   67.159200
  C      8.004870   -9.491850   68.527900
  H      7.720870   -8.812580   67.774100
  H      8.758940   -9.023820   69.113400
  C      6.761600   -9.903000   69.317000
  H      6.149680   -9.104550   69.654600
  H      6.991250  -10.507900   70.210900
  H      6.129950  -10.512500   68.609400
  H      5.243560  -15.889000   66.299300
  H     11.301800  -12.688600   71.150200

 Total Charge           Charge          ....    0
 Multiplicity           Mult            ....    1
 Number of Electrons    NEL             ....  134
 Basis Dimension        Dim             ....  322

ORBITAL ENERGIES
----------------

  NO   OCC          E(Eh)            E(eV)
   0   2.0000     -88.968159     -2420.9467
   1   2.0000     -88.961762     -2420.7726
   2   2.0000     -10.333839      -281.1981
   3   2.0000     -10.326582      -281.0006
   4   2.0000     -10.319377      -280.8045
   5   2.0000     -10.315920      -280.7105
   6   2.0000     -10.302000      -280.3317
   7   2.0000     -10.298611      -280.2394
   8   2.0000     -10.296913      -280.1933
   9   2.0000     -10.290954      -280.0311
  10   2.0000     -10.289467      -279.9906
  11   2.0000     -10.286325      -279.9051
  12   2.0000     -10.282076      -279.7895
  13   2.0000     -10.279317      -279.7144
  14   2.0000     -10.277163      -279.6558
  15   2.0000     -10.273402      -279.5535
  16   2.0000      -8.084134      -219.9805
  17   2.0000      -8.075515      -219.7459
  18   2.0000      -6.042498      -164.4247
  19   2.0000      -6.038625      -164.3193
  20   2.0000      -6.034786      -164.2149
  21   2.0000      -6.034206      -164.1991
  22   2.0000      -6.030082      -164.0869
  23   2.0000      -6.026207      -163.9814
  24   2.0000      -1.014037       -27.5933
  25   2.0000      -0.984943       -26.8017
  26   2.0000      -0.921403       -25.0726
  27   2.0000      -0.909215       -24.7410
  28   2.0000      -0.871844       -23.7241
  29   2.0000      -0.857114       -23.3233
  30   2.0000      -0.843235       -22.9456
  31   2.0000      -0.814757       -22.1707
  32   2.0000      -0.784965       -21.3600
  33   2.0000      -0.770822       -20.9751
  34   2.0000      -0.712214       -19.3803
  35   2.0000      -0.701412       -19.0864
  36   2.0000      -0.695827       -18.9344
  37   2.0000      -0.653292       -17.7770
  38   2.0000      -0.639970       -17.4145
  39   2.0000      -0.627964       -17.0878
  40   2.0000      -0.594096       -16.1662
  41   2.0000      -0.572512       -15.5788
  42   2.0000      -0.555299       -15.1104
  43   2.0000      -0.552811       -15.0428
  44   2.0000      -0.549708       -14.9583
  45   2.0000      -0.540054       -14.6956
  46   2.0000      -0.517700       -14.0873
  47   2.0000      -0.517268       -14.0756
  48   2.0000      -0.498031       -13.5521
  49   2.0000      -0.493489       -13.4285
  50   2.0000      -0.489471       -13.3192
  51   2.0000      -0.480308       -13.0698
  52   2.0000      -0.469424       -12.7737
  53   2.0000      -0.460888       -12.5414
  54   2.0000      -0.459768       -12.5109
  55   2.0000      -0.450776       -12.2662
  56   2.0000      -0.440701       -11.9921
  57   2.0000      -0.440029       -11.9738
  58   2.0000      -0.434767       -11.8306
  59   2.0000      -0.425179       -11.5697
  60   2.0000      -0.424237       -11.5441
  61   2.0000      -0.417527       -11.3615
  62   2.0000      -0.413309       -11.2467
  63   2.0000      -0.353162        -9.6100
  64   2.0000      -0.335342        -9.1251
  65   2.0000      -0.326621        -8.8878
  66   2.0000      -0.291418        -7.9299
  67   0.0000       0.029632         0.8063
  68   0.0000       0.067770         1.8441
  69   0.0000       0.109525         2.9803
  70   0.0000       0.123683         3.3656
  71   0.0000       0.128254         3.4900

MULLIKEN ATOMIC CHARGES
-----------------------
   0 S :    0.134803
   1 C :   -0.142667
   2 C :   -0.110892
   3 C :    0.011787
   4 C :   -0.133787
   5 H :    0.018144
   6 C :    0.036546
   7 H :    0.019274
   8 H :    0.035339
   9 C :   -0.002720
  10 H :    0.003356
  11 H :    0.019114
  12 C :   -0.055641
  13 H :    0.045851
  14 H :    0.030627
  15 H :    0.034004
  16 S :    0.074924
  17 C :   -0.091752
  18 C :   -0.050529
  19 C :   -0.029474
  20 C :   -0.153453
  21 H :    0.021016
  22 C :    0.035916
  23 H :    0.006991
  24 H :    0.038751
  25 C :   -0.019635
  26 H :    0.019152
  27 H :    0.022204
  28 C :   -0.063120
  29 H :    0.025225
  30 H :    0.049041
  31 H :    0.031976
  32 H :    0.060456
  33 H :    0.079172
Sum of atomic charges:    0.0000000

LOEWDIN ATOMIC CHARGES
----------------------
   0 S :    0.432986
   1 C :   -0.211320
   2 C :   -0.071382
   3 C :   -0.064014
   4 C :   -0.201681
   5 H :    0.034444
   6 C :   -0.029524
   7 H :    0.029127
   8 H :    0.036114
   9 C :   -0.042453
  10 H :    0.019244
  11 H :    0.020638
  12 C :   -0.065828
  13 H :    0.036065
  14 H :    0.028443
  15 H :    0.022391
  16 S :    0.367828
  17 C :   -0.190922
  18 C :   -0.078748
  19 C :   -0.057783
  20 C :   -0.172351
  21 H :    0.031079
  22 C :   -0.034940
  23 H :    0.026130
  24 H :    0.033250
  25 C :   -0.029594
  26 H :    0.020765
  27 H :    0.016377
  28 C :   -0.065427
  29 H :    0.017459
  30 H :    0.030843
  31 H :    0.031920
  32 H :    0.035676
  33 H :    0.045185

  Mayer bond orders larger than 0.100000
B(  0-S ,  1-C ) :   1.1555 B(  0-S ,  4-C ) :   1.1491 B(  1-C ,  2-C ) :   1.6054
B(  1-C , 32-H ) :   0.9598 B(  2-C ,  3-C ) :   1.2550 B(  2-C ,  6-C ) :   1.0207
B(  3-C ,  4-C ) :   1.5676 B(  3-C ,  5-H ) :   0.9950 B(  4-C , 20-C ) :   1.0368
B(  6-C ,  7-H ) :   0.9392 B(  6-C ,  8-H ) :   0.9383 B(  6-C ,  9-C ) :   1.0770
B(  9-C , 10-H ) :   0.9459 B(  9-C , 11-H ) :   0.9501 B(  9-C , 12-C ) :   1.0812
B( 12-C , 13-H ) :   0.9702 B( 12-C , 14-H ) :   0.9727 B( 12-C , 15-H ) :   0.9710
B( 16-S , 17-C ) :   1.1445 B( 16-S , 20-C ) :   1.1301 B( 17-C , 18-C ) :   1.6162
B( 17-C , 20-C ) :   0.1032 B( 17-C , 33-H ) :   0.9568 B( 18-C , 19-C ) :   1.2479
B( 18-C , 21-H ) :   0.9830 B( 19-C , 20-C ) :   1.5739 B( 19-C , 22-C ) :   1.0503
B( 22-C , 23-H ) :   0.9279 B( 22-C , 24-H ) :   0.9280 B( 22-C , 25-C ) :   1.0767
B( 25-C , 26-H ) :   0.9527 B( 25-C , 27-H ) :   0.9540 B( 25-C , 28-C ) :   1.0739
B( 28-C , 29-H ) :   0.9756 B( 28-C , 30-H ) :   0.9733 B( 28-C , 31-H ) :   0.9750

Dispersion correction           -0.014925285
FINAL SINGLE POINT ENERGY     -1339.887387469464

DIPOLE MOMENT
-------------
                                X             Y             Z
Electronic contribution:     13.22049     -19.05183      15.12079
Nuclear contribution   :    -13.23830      19.63196     -15.70965
                        -----------------------------------------
Total Dipole Moment    :     -0.01781       0.58013      -0.58886
                        -----------------------------------------
Magnitude (a.u.)       :      0.82681
Magnitude (Debye)      :      2.10159

Rotational constants in cm-1:     0.019621     0.009221     0.007137
Rotational constants in MHz :   588.232186   276.441407   213.947558

                             ****ORCA TERMINATED NORMALLY****
TOTAL RUN TIME: 0 days 0 hours 0 minutes 36 seconds 72 msec
