                         Program Version 4.2.1 -  RELEASE  -
|  1> ! wB97X-D3 SP def2-SVP
|  2> %pal
|  3> nprocs 16
|  4> end
|  5>
|  6> * xyz 0 1
|  7> S 	 -32.0186 	 59.0989 	 106.688
|  8> C 	 -30.7202 	 58.4467 	 107.563
|  9> C 	 -29.8523 	 59.3619 	 108.139
| 10> C 	 -30.3525 	 60.6784 	 107.897
| 11> C 	 -31.4931 	 60.7569 	 107.104
| 12> H 	 -30.0254 	 61.5445 	 108.354
| 13> C 	 -28.6345 	 58.9134 	 108.951
| 14> H 	 -28.2671 	 58.0763 	 108.477
| 15> H 	 -28.9684 	 58.5474 	 109.888
| 16> C 	 -27.5589 	 59.9733 	 109.248
| 17> H 	 -27.8404 	 60.754 	 109.921
| 18> H 	 -26.7013 	 59.464 	 109.677
| 19> C 	 -27.0767 	 60.7667 	 108.014
| 20> H 	 -27.7248 	 61.6119 	 107.606
| 21> H 	 -26.1887 	 61.3451 	 108.29
| 22> H 	 -26.8973 	 60.1555 	 107.182
| 23> S 	 -33.9722 	 61.8637 	 107.144
| 24> C 	 -34.1504 	 63.519 	 106.613
| 25> C 	 -32.9419 	 64.1359 	 106.391
| 26> C 	 -31.8034 	 63.3209 	 106.646
| 27> C 	 -32.239 	 61.966 	 106.892
| 28> H 	 -32.8376 	 65.1639 	 106.095
| 29> C 	 -30.4623 	 63.7623 	 106.101
| 30> H 	 -30.5696 	 63.7359 	 104.99
| 31> H 	 -29.7721 	 62.9813 	 106.413
| 32> C 	 -29.8947 	 65.0929 	 106.686
| 33> H 	 -29.8896 	 64.9229 	 107.73
| 34> H 	 -30.5286 	 65.8571 	 106.489
| 35> C 	 -28.4838 	 65.4266 	 106.165
| 36> H 	 -27.9962 	 66.206 	 106.797
| 37> H 	 -28.6445 	 65.792 	 105.173
| 38> H 	 -27.8923 	 64.4947 	 106.032
| 39> H 	 -30.6323 	 57.4038 	 107.671
| 40> H 	 -35.084 	 64.0858 	 106.507
| 41> *
| 42>
| 43>                          ****END OF INPUT****

CARTESIAN COORDINATES (ANGSTROEM)
---------------------------------
  S    -32.018600   59.098900  106.688000
  C    -30.720200   58.446700  107.563000
  C    -29.852300   59.361900  108.139000
  C    -30.352500   60.678400  107.897000
  C    -31.493100   60.756900  107.104000
  H    -30.025400   61.544500  108.354000
  C    -28.634500   58.913400  108.951000
  H    -28.267100   58.076300  108.477000
  H    -28.968400   58.547400  109.888000
  C    -27.558900   59.973300  109.248000
  H    -27.840400   60.754000  109.921000
  H    -26.701300   59.464000  109.677000
  C    -27.076700   60.766700  108.014000
  H    -27.724800   61.611900  107.606000
  H    -26.188700   61.345100  108.290000
  H    -26.897300   60.155500  107.182000
  S    -33.972200   61.863700  107.144000
  C    -34.150400   63.519000  106.613000
  C    -32.941900   64.135900  106.391000
  C    -31.803400   63.320900  106.646000
  C    -32.239000   61.966000  106.892000
  H    -32.837600   65.163900  106.095000
  C    -30.462300   63.762300  106.101000
  H    -30.569600   63.735900  104.990000
  H    -29.772100   62.981300  106.413000
  C    -29.894700   65.092900  106.686000
  H    -29.889600   64.922900  107.730000
  H    -30.528600   65.857100  106.489000
  C    -28.483800   65.426600  106.165000
  H    -27.996200   66.206000  106.797000
  H    -28.644500   65.792000  105.173000
  H    -27.892300   64.494700  106.032000
  H    -30.632300   57.403800  107.671000
  H    -35.084000   64.085800  106.507000

 Total Charge           Charge          ....    0
 Multiplicity           Mult            ....    1
 Number of Electrons    NEL             ....  134
 Basis Dimension        Dim             ....  322

ORBITAL ENERGIES
----------------

  NO   OCC          E(Eh)            E(eV)
   0   2.0000     -88.967827     -2420.9377
   1   2.0000     -88.967665     -2420.9332
   2   2.0000     -10.330423      -281.1051
   3   2.0000     -10.326837      -281.0075
   4   2.0000     -10.314105      -280.6611
   5   2.0000     -10.306371      -280.4506
   6   2.0000     -10.302887      -280.3558
   7   2.0000     -10.301459      -280.3169
   8   2.0000     -10.292727      -280.0793
   9   2.0000     -10.289343      -279.9872
  10   2.0000     -10.288842      -279.9736
  11   2.0000     -10.288131      -279.9543
  12   2.0000     -10.288086      -279.9531
  13   2.0000     -10.281933      -279.7856
  14   2.0000     -10.277403      -279.6624
  15   2.0000     -10.276616      -279.6409
  16   2.0000      -8.082756      -219.9430
  17   2.0000      -8.082209      -219.9281
  18   2.0000      -6.041185      -164.3890
  19   2.0000      -6.040656      -164.3746
  20   2.0000      -6.037228      -164.2813
  21   2.0000      -6.036804      -164.2698
  22   2.0000      -6.033615      -164.1830
  23   2.0000      -6.032987      -164.1659
  24   2.0000      -1.004645       -27.3378
  25   2.0000      -0.982143       -26.7255
  26   2.0000      -0.912430       -24.8285
  27   2.0000      -0.908640       -24.7254
  28   2.0000      -0.871953       -23.7271
  29   2.0000      -0.854068       -23.2404
  30   2.0000      -0.845859       -23.0170
  31   2.0000      -0.816073       -22.2065
  32   2.0000      -0.785621       -21.3778
  33   2.0000      -0.766609       -20.8605
  34   2.0000      -0.712459       -19.3870
  35   2.0000      -0.702906       -19.1270
  36   2.0000      -0.693493       -18.8709
  37   2.0000      -0.659494       -17.9457
  38   2.0000      -0.643895       -17.5213
  39   2.0000      -0.623481       -16.9658
  40   2.0000      -0.592084       -16.1114
  41   2.0000      -0.572512       -15.5789
  42   2.0000      -0.565720       -15.3940
  43   2.0000      -0.555611       -15.1189
  44   2.0000      -0.536631       -14.6025
  45   2.0000      -0.525998       -14.3131
  46   2.0000      -0.522830       -14.2269
  47   2.0000      -0.505251       -13.7486
  48   2.0000      -0.502289       -13.6680
  49   2.0000      -0.495005       -13.4698
  50   2.0000      -0.491824       -13.3832
  51   2.0000      -0.488149       -13.2832
  52   2.0000      -0.469442       -12.7742
  53   2.0000      -0.466049       -12.6818
  54   2.0000      -0.456803       -12.4302
  55   2.0000      -0.453553       -12.3418
  56   2.0000      -0.444164       -12.0863
  57   2.0000      -0.440008       -11.9732
  58   2.0000      -0.432655       -11.7731
  59   2.0000      -0.430166       -11.7054
  60   2.0000      -0.425008       -11.5650
  61   2.0000      -0.421006       -11.4561
  62   2.0000      -0.414145       -11.2694
  63   2.0000      -0.352836        -9.6012
  64   2.0000      -0.331552        -9.0220
  65   2.0000      -0.328744        -8.9456
  66   2.0000      -0.278528        -7.5791
  67   0.0000       0.021281         0.5791
  68   0.0000       0.077758         2.1159
  69   0.0000       0.109602         2.9824
  70   0.0000       0.118018         3.2114
  71   0.0000       0.123577         3.3627

MULLIKEN ATOMIC CHARGES
-----------------------
   0 S :    0.123409
   1 C :   -0.121236
   2 C :   -0.088488
   3 C :    0.030424
   4 C :   -0.148415
   5 H :   -0.013715
   6 C :    0.148362
   7 H :    0.006597
   8 H :    0.026619
   9 C :   -0.060679
  10 H :    0.029199
  11 H :    0.032738
  12 C :   -0.081915
  13 H :    0.034242
  14 H :    0.029376
  15 H :    0.026261
  16 S :    0.114750
  17 C :   -0.086475
  18 C :   -0.032961
  19 C :   -0.030761
  20 C :   -0.165590
  21 H :    0.013629
  22 C :    0.014069
  23 H :    0.054634
  24 H :    0.009491
  25 C :   -0.041787
  26 H :    0.017990
  27 H :    0.005370
  28 C :   -0.041610
  29 H :    0.051130
  30 H :    0.023556
  31 H :    0.035456
  32 H :    0.028404
  33 H :    0.057926
Sum of atomic charges:   -0.0000000

LOEWDIN ATOMIC CHARGES
----------------------
   0 S :    0.413647
   1 C :   -0.201553
   2 C :   -0.058818
   3 C :   -0.047490
   4 C :   -0.195126
   5 H :    0.016103
   6 C :   -0.020459
   7 H :    0.023068
   8 H :    0.033105
   9 C :   -0.036804
  10 H :    0.023791
  11 H :    0.030087
  12 C :   -0.071859
  13 H :    0.029530
  14 H :    0.027192
  15 H :    0.015575
  16 S :    0.410708
  17 C :   -0.195714
  18 C :   -0.068461
  19 C :   -0.063881
  20 C :   -0.189549
  21 H :    0.027861
  22 C :   -0.031454
  23 H :    0.038524
  24 H :    0.024224
  25 C :   -0.028635
  26 H :    0.020297
  27 H :    0.005329
  28 C :   -0.063208
  29 H :    0.033494
  30 H :    0.022417
  31 H :    0.028868
  32 H :    0.015667
  33 H :    0.033524

  Mayer bond orders larger than 0.100000
B(  0-S ,  1-C ) :   1.1669 B(  0-S ,  4-C ) :   1.1328 B(  1-C ,  2-C ) :   1.5928
B(  1-C , 32-H ) :   0.9721 B(  2-C ,  3-C ) :   1.2615 B(  2-C ,  6-C ) :   1.0014
B(  3-C ,  4-C ) :   1.5517 B(  3-C ,  5-H ) :   0.9965 B(  4-C , 20-C ) :   1.0948
B(  6-C ,  7-H ) :   0.9340 B(  6-C ,  8-H ) :   0.9300 B(  6-C ,  9-C ) :   1.0876
B(  9-C , 10-H ) :   0.9529 B(  9-C , 11-H ) :   0.9532 B(  9-C , 12-C ) :   1.0781
B( 12-C , 13-H ) :   0.9714 B( 12-C , 14-H ) :   0.9717 B( 12-C , 15-H ) :   0.9785
B( 16-S , 17-C ) :   1.1374 B( 16-S , 20-C ) :   1.1598 B( 17-C , 18-C ) :   1.6145
B( 17-C , 33-H ) :   0.9646 B( 18-C , 19-C ) :   1.2531 B( 18-C , 21-H ) :   0.9861
B( 19-C , 20-C ) :   1.5268 B( 19-C , 22-C ) :   1.0550 B( 22-C , 23-H ) :   0.9437
B( 22-C , 24-H ) :   0.9322 B( 22-C , 25-C ) :   1.0508 B( 25-C , 26-H ) :   0.9548
B( 25-C , 27-H ) :   0.9609 B( 25-C , 28-C ) :   1.0818 B( 28-C , 29-H ) :   0.9744
B( 28-C , 30-H ) :   0.9743 B( 28-C , 31-H ) :   0.9749

Dispersion correction           -0.014495881
FINAL SINGLE POINT ENERGY     -1339.865590863369

DIPOLE MOMENT
-------------
                                X             Y             Z
Electronic contribution:    -28.88202     -13.28809      -2.94327
Nuclear contribution   :     29.43833      13.49536       3.15430
                        -----------------------------------------
Total Dipole Moment    :      0.55631       0.20727       0.21103
                        -----------------------------------------
Magnitude (a.u.)       :      0.63006
Magnitude (Debye)      :      1.60149

Rotational constants in cm-1:     0.015195     0.010823     0.006745
Rotational constants in MHz :   455.532006   324.467906   202.216979

                             ****ORCA TERMINATED NORMALLY****
TOTAL RUN TIME: 0 days 0 hours 0 minutes 28 seconds 392 msec
