                         Program Version 4.2.1 -  RELEASE  -
|  1> ! wB97X-D3 SP def2-SVP
|  2> %pal
|  3> nprocs 16
|  4> end
|  5>
|  6> * xyz 0 1
|  7> S 	 -98.7808 	 38.0276 	 123.12
|  8> C 	 -99.919 	 38.1835 	 124.396
|  9> C 	 -99.5904 	 39.1857 	 125.271
| 10> C 	 -98.5237 	 40.0258 	 124.743
| 11> C 	 -97.9702 	 39.5426 	 123.577
| 12> H 	 -98.1345 	 40.9128 	 125.192
| 13> C 	 -100.325 	 39.4998 	 126.578
| 14> H 	 -101.071 	 38.7301 	 126.763
| 15> H 	 -100.738 	 40.4999 	 126.206
| 16> C 	 -99.3696 	 39.7718 	 127.799
| 17> H 	 -98.575 	 40.4645 	 127.644
| 18> H 	 -100.035 	 40.1878 	 128.594
| 19> C 	 -98.6946 	 38.5299 	 128.398
| 20> H 	 -98.0946 	 38.8799 	 129.324
| 21> H 	 -99.5668 	 38.0145 	 128.765
| 22> H 	 -98.0797 	 37.8995 	 127.694
| 23> S 	 -95.2386 	 39.4009 	 123.033
| 24> C 	 -94.5584 	 40.6307 	 122.034
| 25> C 	 -95.4204 	 41.6863 	 121.888
| 26> C 	 -96.7469 	 41.3928 	 122.32
| 27> C 	 -96.8394 	 40.1573 	 122.907
| 28> H 	 -94.9824 	 42.5796 	 121.55
| 29> C 	 -97.8156 	 42.5006 	 122.194
| 30> H 	 -98.7573 	 41.9066 	 122.244
| 31> H 	 -97.8231 	 42.8371 	 121.209
| 32> C 	 -97.6481 	 43.5119 	 123.298
| 33> H 	 -96.6166 	 43.6713 	 123.464
| 34> H 	 -97.8999 	 43.1209 	 124.254
| 35> C 	 -98.4197 	 44.8528 	 123.036
| 36> H 	 -98.0514 	 45.2935 	 122.126
| 37> H 	 -98.2927 	 45.5783 	 123.881
| 38> H 	 -99.465 	 44.7459 	 122.984
| 39> H 	 -100.615 	 37.3934 	 124.634
| 40> H 	 -93.5694 	 40.6212 	 121.792
| 41> *
| 42>
| 43>                          ****END OF INPUT****

CARTESIAN COORDINATES (ANGSTROEM)
---------------------------------
  S    -98.780800   38.027600  123.120000
  C    -99.919000   38.183500  124.396000
  C    -99.590400   39.185700  125.271000
  C    -98.523700   40.025800  124.743000
  C    -97.970200   39.542600  123.577000
  H    -98.134500   40.912800  125.192000
  C    -100.325000   39.499800  126.578000
  H    -101.071000   38.730100  126.763000
  H    -100.738000   40.499900  126.206000
  C    -99.369600   39.771800  127.799000
  H    -98.575000   40.464500  127.644000
  H    -100.035000   40.187800  128.594000
  C    -98.694600   38.529900  128.398000
  H    -98.094600   38.879900  129.324000
  H    -99.566800   38.014500  128.765000
  H    -98.079700   37.899500  127.694000
  S    -95.238600   39.400900  123.033000
  C    -94.558400   40.630700  122.034000
  C    -95.420400   41.686300  121.888000
  C    -96.746900   41.392800  122.320000
  C    -96.839400   40.157300  122.907000
  H    -94.982400   42.579600  121.550000
  C    -97.815600   42.500600  122.194000
  H    -98.757300   41.906600  122.244000
  H    -97.823100   42.837100  121.209000
  C    -97.648100   43.511900  123.298000
  H    -96.616600   43.671300  123.464000
  H    -97.899900   43.120900  124.254000
  C    -98.419700   44.852800  123.036000
  H    -98.051400   45.293500  122.126000
  H    -98.292700   45.578300  123.881000
  H    -99.465000   44.745900  122.984000
  H    -100.615000   37.393400  124.634000
  H    -93.569400   40.621200  121.792000

 Total Charge           Charge          ....    0
 Multiplicity           Mult            ....    1
 Number of Electrons    NEL             ....  134
 Basis Dimension        Dim             ....  322

ORBITAL ENERGIES
----------------

  NO   OCC          E(Eh)            E(eV)
   0   2.0000     -88.961992     -2420.7789
   1   2.0000     -88.960833     -2420.7473
   2   2.0000     -10.327763      -281.0327
   3   2.0000     -10.323435      -280.9150
   4   2.0000     -10.308354      -280.5046
   5   2.0000     -10.306705      -280.4597
   6   2.0000     -10.304622      -280.4030
   7   2.0000     -10.301766      -280.3253
   8   2.0000     -10.301203      -280.3100
   9   2.0000     -10.294290      -280.1219
  10   2.0000     -10.291808      -280.0543
  11   2.0000     -10.287511      -279.9374
  12   2.0000     -10.285751      -279.8895
  13   2.0000     -10.285374      -279.8793
  14   2.0000     -10.283227      -279.8208
  15   2.0000     -10.278920      -279.7036
  16   2.0000      -8.076997      -219.7863
  17   2.0000      -8.076098      -219.7618
  18   2.0000      -6.035540      -164.2354
  19   2.0000      -6.034548      -164.2084
  20   2.0000      -6.031484      -164.1250
  21   2.0000      -6.030699      -164.1037
  22   2.0000      -6.027689      -164.0217
  23   2.0000      -6.026728      -163.9956
  24   2.0000      -1.005867       -27.3710
  25   2.0000      -0.985390       -26.8138
  26   2.0000      -0.910825       -24.7848
  27   2.0000      -0.906551       -24.6685
  28   2.0000      -0.872973       -23.7548
  29   2.0000      -0.848030       -23.0761
  30   2.0000      -0.845123       -22.9970
  31   2.0000      -0.815262       -22.1844
  32   2.0000      -0.783352       -21.3161
  33   2.0000      -0.769881       -20.9495
  34   2.0000      -0.714935       -19.4544
  35   2.0000      -0.705139       -19.1878
  36   2.0000      -0.688956       -18.7474
  37   2.0000      -0.663557       -18.0563
  38   2.0000      -0.642635       -17.4870
  39   2.0000      -0.620302       -16.8793
  40   2.0000      -0.597041       -16.2463
  41   2.0000      -0.569585       -15.4992
  42   2.0000      -0.560714       -15.2578
  43   2.0000      -0.544640       -14.8204
  44   2.0000      -0.541877       -14.7452
  45   2.0000      -0.527740       -14.3605
  46   2.0000      -0.520947       -14.1757
  47   2.0000      -0.516925       -14.0663
  48   2.0000      -0.509391       -13.8612
  49   2.0000      -0.498807       -13.5732
  50   2.0000      -0.488382       -13.2896
  51   2.0000      -0.476878       -12.9765
  52   2.0000      -0.473741       -12.8911
  53   2.0000      -0.467826       -12.7302
  54   2.0000      -0.458837       -12.4856
  55   2.0000      -0.449523       -12.2322
  56   2.0000      -0.446012       -12.1366
  57   2.0000      -0.440554       -11.9881
  58   2.0000      -0.433709       -11.8018
  59   2.0000      -0.422879       -11.5071
  60   2.0000      -0.417797       -11.3688
  61   2.0000      -0.413580       -11.2541
  62   2.0000      -0.410662       -11.1747
  63   2.0000      -0.337665        -9.1883
  64   2.0000      -0.329747        -8.9729
  65   2.0000      -0.320260        -8.7147
  66   2.0000      -0.303704        -8.2642
  67   0.0000       0.039567         1.0767
  68   0.0000       0.064790         1.7630
  69   0.0000       0.113675         3.0932
  70   0.0000       0.118682         3.2295
  71   0.0000       0.129572         3.5258

MULLIKEN ATOMIC CHARGES
-----------------------
   0 S :    0.111027
   1 C :   -0.120541
   2 C :   -0.102642
   3 C :    0.042161
   4 C :   -0.171251
   5 H :    0.004046
   6 C :    0.058336
   7 H :    0.025631
   8 H :    0.058721
   9 C :   -0.088376
  10 H :    0.028992
  11 H :    0.036623
  12 C :   -0.083694
  13 H :    0.048657
  14 H :    0.023254
  15 H :    0.064323
  16 S :    0.102159
  17 C :   -0.055580
  18 C :   -0.026324
  19 C :   -0.061692
  20 C :   -0.175105
  21 H :    0.002859
  22 C :    0.125612
  23 H :    0.029614
  24 H :    0.009402
  25 C :   -0.026397
  26 H :    0.011845
  27 H :    0.002494
  28 C :   -0.032601
  29 H :    0.030420
  30 H :    0.034207
  31 H :    0.025550
  32 H :    0.047727
  33 H :    0.020543
Sum of atomic charges:   -0.0000000

LOEWDIN ATOMIC CHARGES
----------------------
   0 S :    0.400852
   1 C :   -0.211844
   2 C :   -0.067780
   3 C :   -0.052341
   4 C :   -0.191131
   5 H :    0.024115
   6 C :   -0.031132
   7 H :    0.028716
   8 H :    0.050413
   9 C :   -0.045107
  10 H :    0.016708
  11 H :    0.030305
  12 C :   -0.074707
  13 H :    0.037611
  14 H :    0.020027
  15 H :    0.033605
  16 S :    0.399739
  17 C :   -0.167973
  18 C :   -0.068702
  19 C :   -0.048445
  20 C :   -0.197486
  21 H :    0.024242
  22 C :   -0.021907
  23 H :    0.036787
  24 H :    0.021332
  25 C :   -0.033541
  26 H :    0.020391
  27 H :    0.019590
  28 C :   -0.059263
  29 H :    0.022369
  30 H :    0.031632
  31 H :    0.018702
  32 H :    0.026705
  33 H :    0.007520

  Mayer bond orders larger than 0.100000
B(  0-S ,  1-C ) :   1.1377 B(  0-S ,  4-C ) :   1.1357 B(  1-C ,  2-C ) :   1.6330
B(  1-C , 32-H ) :   0.9631 B(  2-C ,  3-C ) :   1.2097 B(  2-C ,  6-C ) :   1.0040
B(  3-C ,  4-C ) :   1.6018 B(  3-C ,  5-H ) :   0.9944 B(  4-C , 20-C ) :   1.0390
B(  6-C ,  7-H ) :   0.9475 B(  6-C ,  8-H ) :   0.9389 B(  6-C ,  9-C ) :   1.0601
B(  9-C , 10-H ) :   0.9610 B(  9-C , 11-H ) :   0.9587 B(  9-C , 12-C ) :   1.0609
B( 12-C , 13-H ) :   0.9724 B( 12-C , 14-H ) :   0.9789 B( 12-C , 15-H ) :   0.9758
B( 16-S , 17-C ) :   1.1600 B( 16-S , 20-C ) :   1.1396 B( 17-C , 18-C ) :   1.6170
B( 17-C , 33-H ) :   0.9787 B( 18-C , 19-C ) :   1.2128 B( 18-C , 21-H ) :   1.0002
B( 19-C , 20-C ) :   1.6279 B( 19-C , 22-C ) :   1.0303 B( 22-C , 23-H ) :   0.9226
B( 22-C , 24-H ) :   0.9397 B( 22-C , 25-C ) :   1.0549 B( 25-C , 26-H ) :   0.9589
B( 25-C , 27-H ) :   0.9425 B( 25-C , 28-C ) :   1.0754 B( 28-C , 29-H ) :   0.9791
B( 28-C , 30-H ) :   0.9749 B( 28-C , 31-H ) :   0.9763

Dispersion correction           -0.014612705
FINAL SINGLE POINT ENERGY     -1339.863441552101

DIPOLE MOMENT
-------------
                                X             Y             Z
Electronic contribution:      9.85926     -17.68644     -15.81134
Nuclear contribution   :     -9.99545      18.28274      16.26972
                        -----------------------------------------
Total Dipole Moment    :     -0.13619       0.59631       0.45838
                        -----------------------------------------
Magnitude (a.u.)       :      0.76435
Magnitude (Debye)      :      1.94283

Rotational constants in cm-1:     0.016636     0.009024     0.007403
Rotational constants in MHz :   498.728076   270.524671   221.947597

                             ****ORCA TERMINATED NORMALLY****
TOTAL RUN TIME: 0 days 0 hours 0 minutes 33 seconds 965 msec
