                         Program Version 4.2.1 -  RELEASE  -
|  1> ! wB97X-D3 SP def2-SVP
|  2> %pal
|  3> nprocs 16
|  4> end
|  5>
|  6> * xyz 0 1
|  7> S 	 44.741 	 13.088 	 49.6034
|  8> C 	 43.3661 	 12.9082 	 48.4983
|  9> C 	 42.532 	 14.0394 	 48.4312
| 10> C 	 43.1198 	 15.1023 	 49.2125
| 11> C 	 44.32 	 14.7282 	 49.8051
| 12> H 	 42.8371 	 16.0342 	 49.4468
| 13> C 	 41.3291 	 14.2523 	 47.5566
| 14> H 	 41.6063 	 13.8591 	 46.5202
| 15> H 	 41.2016 	 15.3731 	 47.512
| 16> C 	 39.9391 	 13.5997 	 48.0106
| 17> H 	 39.5561 	 14.1639 	 48.8806
| 18> H 	 39.1402 	 13.7286 	 47.193
| 19> C 	 40.0713 	 12.0659 	 48.1826
| 20> H 	 38.997 	 11.7274 	 48.3743
| 21> H 	 40.3713 	 11.5618 	 47.2449
| 22> H 	 40.7771 	 11.7198 	 48.9578
| 23> S 	 46.9492 	 15.5413 	 50.3507
| 24> C 	 47.2769 	 16.7126 	 51.5459
| 25> C 	 46.0537 	 17.2053 	 52.0671
| 26> C 	 44.9323 	 16.5941 	 51.523
| 27> C 	 45.2093 	 15.5651 	 50.6248
| 28> H 	 46.102 	 18.0411 	 52.7054
| 29> C 	 43.5705 	 17.0827 	 52.0081
| 30> H 	 43.5293 	 16.6531 	 52.9984
| 31> H 	 42.7798 	 16.5933 	 51.5352
| 32> C 	 43.34 	 18.6108 	 52.0034
| 33> H 	 44.0488 	 19.1605 	 52.7587
| 34> H 	 42.3254 	 18.7793 	 52.4576
| 35> C 	 43.3967 	 19.2132 	 50.5671
| 36> H 	 42.6073 	 18.7278 	 49.9106
| 37> H 	 44.3749 	 19.1594 	 50.1603
| 38> H 	 43.0688 	 20.2764 	 50.4275
| 39> H 	 43.1359 	 12.0859 	 47.9293
| 40> H 	 48.3009 	 17.1246 	 51.7307
| 41> *
| 42>
| 43>                          ****END OF INPUT****

CARTESIAN COORDINATES (ANGSTROEM)
---------------------------------
  S     44.741000   13.088000   49.603400
  C     43.366100   12.908200   48.498300
  C     42.532000   14.039400   48.431200
  C     43.119800   15.102300   49.212500
  C     44.320000   14.728200   49.805100
  H     42.837100   16.034200   49.446800
  C     41.329100   14.252300   47.556600
  H     41.606300   13.859100   46.520200
  H     41.201600   15.373100   47.512000
  C     39.939100   13.599700   48.010600
  H     39.556100   14.163900   48.880600
  H     39.140200   13.728600   47.193000
  C     40.071300   12.065900   48.182600
  H     38.997000   11.727400   48.374300
  H     40.371300   11.561800   47.244900
  H     40.777100   11.719800   48.957800
  S     46.949200   15.541300   50.350700
  C     47.276900   16.712600   51.545900
  C     46.053700   17.205300   52.067100
  C     44.932300   16.594100   51.523000
  C     45.209300   15.565100   50.624800
  H     46.102000   18.041100   52.705400
  C     43.570500   17.082700   52.008100
  H     43.529300   16.653100   52.998400
  H     42.779800   16.593300   51.535200
  C     43.340000   18.610800   52.003400
  H     44.048800   19.160500   52.758700
  H     42.325400   18.779300   52.457600
  C     43.396700   19.213200   50.567100
  H     42.607300   18.727800   49.910600
  H     44.374900   19.159400   50.160300
  H     43.068800   20.276400   50.427500
  H     43.135900   12.085900   47.929300
  H     48.300900   17.124600   51.730700

 Total Charge           Charge          ....    0
 Multiplicity           Mult            ....    1
 Number of Electrons    NEL             ....  134
 Basis Dimension        Dim             ....  322

ORBITAL ENERGIES
----------------

  NO   OCC          E(Eh)            E(eV)
   0   2.0000     -88.969446     -2420.9817
   1   2.0000     -88.965957     -2420.8868
   2   2.0000     -10.325711      -280.9769
   3   2.0000     -10.325570      -280.9731
   4   2.0000     -10.321507      -280.8625
   5   2.0000     -10.308782      -280.5162
   6   2.0000     -10.306343      -280.4498
   7   2.0000     -10.305910      -280.4381
   8   2.0000     -10.305078      -280.4154
   9   2.0000     -10.303121      -280.3622
  10   2.0000     -10.300305      -280.2856
  11   2.0000     -10.288590      -279.9668
  12   2.0000     -10.287829      -279.9461
  13   2.0000     -10.287624      -279.9405
  14   2.0000     -10.286189      -279.9014
  15   2.0000     -10.285278      -279.8766
  16   2.0000      -8.084354      -219.9865
  17   2.0000      -8.081137      -219.8989
  18   2.0000      -6.042697      -164.4301
  19   2.0000      -6.039459      -164.3420
  20   2.0000      -6.038951      -164.3282
  21   2.0000      -6.035397      -164.2315
  22   2.0000      -6.035172      -164.2254
  23   2.0000      -6.032251      -164.1459
  24   2.0000      -1.008667       -27.4472
  25   2.0000      -0.985141       -26.8071
  26   2.0000      -0.908725       -24.7277
  27   2.0000      -0.903857       -24.5952
  28   2.0000      -0.862021       -23.4568
  29   2.0000      -0.851666       -23.1750
  30   2.0000      -0.844603       -22.9828
  31   2.0000      -0.809138       -22.0178
  32   2.0000      -0.785217       -21.3668
  33   2.0000      -0.774285       -21.0694
  34   2.0000      -0.706430       -19.2229
  35   2.0000      -0.696124       -18.9425
  36   2.0000      -0.693998       -18.8847
  37   2.0000      -0.659526       -17.9466
  38   2.0000      -0.646552       -17.5936
  39   2.0000      -0.616421       -16.7737
  40   2.0000      -0.596181       -16.2229
  41   2.0000      -0.565785       -15.3958
  42   2.0000      -0.551933       -15.0189
  43   2.0000      -0.546287       -14.8652
  44   2.0000      -0.542041       -14.7497
  45   2.0000      -0.535530       -14.5725
  46   2.0000      -0.516471       -14.0539
  47   2.0000      -0.510072       -13.8798
  48   2.0000      -0.496033       -13.4977
  49   2.0000      -0.492096       -13.3906
  50   2.0000      -0.485654       -13.2153
  51   2.0000      -0.480691       -13.0803
  52   2.0000      -0.469620       -12.7790
  53   2.0000      -0.465784       -12.6746
  54   2.0000      -0.462926       -12.5969
  55   2.0000      -0.455059       -12.3828
  56   2.0000      -0.442570       -12.0429
  57   2.0000      -0.441074       -12.0022
  58   2.0000      -0.431930       -11.7534
  59   2.0000      -0.424028       -11.5384
  60   2.0000      -0.419385       -11.4120
  61   2.0000      -0.417083       -11.3494
  62   2.0000      -0.412519       -11.2252
  63   2.0000      -0.344566        -9.3761
  64   2.0000      -0.332607        -9.0507
  65   2.0000      -0.330349        -8.9892
  66   2.0000      -0.285118        -7.7585
  67   0.0000       0.027580         0.7505
  68   0.0000       0.071815         1.9542
  69   0.0000       0.110343         3.0026
  70   0.0000       0.114459         3.1146
  71   0.0000       0.126538         3.4433

MULLIKEN ATOMIC CHARGES
-----------------------
   0 S :    0.126337
   1 C :   -0.080717
   2 C :   -0.060985
   3 C :    0.086487
   4 C :   -0.167751
   5 H :   -0.073406
   6 C :    0.009351
   7 H :    0.048722
   8 H :    0.038697
   9 C :   -0.083009
  10 H :    0.041365
  11 H :    0.044146
  12 C :   -0.093992
  13 H :    0.044996
  14 H :    0.032723
  15 H :    0.058558
  16 S :    0.114716
  17 C :   -0.119079
  18 C :   -0.036262
  19 C :   -0.045713
  20 C :   -0.142543
  21 H :    0.000845
  22 C :    0.112238
  23 H :    0.036413
  24 H :   -0.006997
  25 C :   -0.109965
  26 H :    0.046714
  27 H :    0.038774
  28 C :   -0.069411
  29 H :    0.038484
  30 H :    0.047152
  31 H :    0.037846
  32 H :    0.004264
  33 H :    0.081001
Sum of atomic charges:   -0.0000000

LOEWDIN ATOMIC CHARGES
----------------------
   0 S :    0.422836
   1 C :   -0.185580
   2 C :   -0.053483
   3 C :   -0.053248
   4 C :   -0.195835
   5 H :    0.004684
   6 C :   -0.043675
   7 H :    0.040509
   8 H :    0.036385
   9 C :   -0.043971
  10 H :    0.025505
  11 H :    0.033723
  12 C :   -0.079534
  13 H :    0.035649
  14 H :    0.024882
  15 H :    0.027421
  16 S :    0.427968
  17 C :   -0.205559
  18 C :   -0.072345
  19 C :   -0.058958
  20 C :   -0.210825
  21 H :    0.022408
  22 C :   -0.028746
  23 H :    0.039736
  24 H :    0.017551
  25 C :   -0.045934
  26 H :    0.030419
  27 H :    0.030304
  28 C :   -0.075770
  29 H :    0.031723
  30 H :    0.023085
  31 H :    0.032142
  32 H :    0.005372
  33 H :    0.041158

  Mayer bond orders larger than 0.100000
B(  0-S ,  1-C ) :   1.1320 B(  0-S ,  4-C ) :   1.1664 B(  1-C ,  2-C ) :   1.6054
B(  1-C , 32-H ) :   0.9751 B(  2-C ,  3-C ) :   1.2112 B(  2-C ,  6-C ) :   1.0140
B(  3-C ,  4-C ) :   1.5853 B(  3-C ,  5-H ) :   1.0079 B(  4-C , 20-C ) :   1.0224
B(  6-C ,  7-H ) :   0.9452 B(  6-C ,  8-H ) :   0.9474 B(  6-C ,  9-C ) :   1.0568
B(  9-C , 10-H ) :   0.9583 B(  9-C , 11-H ) :   0.9582 B(  9-C , 12-C ) :   1.0668
B( 12-C , 13-H ) :   0.9734 B( 12-C , 14-H ) :   0.9741 B( 12-C , 15-H ) :   0.9717
B( 16-S , 17-C ) :   1.1981 B( 16-S , 20-C ) :   1.1560 B( 17-C , 18-C ) :   1.5300
B( 17-C , 20-C ) :   0.1135 B( 17-C , 33-H ) :   0.9633 B( 18-C , 19-C ) :   1.2969
B( 18-C , 21-H ) :   1.0042 B( 19-C , 20-C ) :   1.5450 B( 19-C , 22-C ) :   1.0235
B( 22-C , 23-H ) :   0.9289 B( 22-C , 24-H ) :   0.9330 B( 22-C , 25-C ) :   1.0711
B( 25-C , 26-H ) :   0.9528 B( 25-C , 27-H ) :   0.9548 B( 25-C , 28-C ) :   1.0610
B( 28-C , 29-H ) :   0.9702 B( 28-C , 30-H ) :   0.9766 B( 28-C , 31-H ) :   0.9743

Dispersion correction           -0.014762998
FINAL SINGLE POINT ENERGY     -1339.864082877737

DIPOLE MOMENT
-------------
                                X             Y             Z
Electronic contribution:     25.17318      -9.19528       2.78485
Nuclear contribution   :    -25.67963       9.64957      -2.76382
                        -----------------------------------------
Total Dipole Moment    :     -0.50645       0.45428       0.02103
                        -----------------------------------------
Magnitude (a.u.)       :      0.68066
Magnitude (Debye)      :      1.73011

Rotational constants in cm-1:     0.020999     0.008412     0.006467
Rotational constants in MHz :   629.531785   252.196283   193.868526

                             ****ORCA TERMINATED NORMALLY****
TOTAL RUN TIME: 0 days 0 hours 0 minutes 34 seconds 221 msec
