                         Program Version 4.2.1 -  RELEASE  -
|  1> ! wB97X-D3 SP def2-SVP
|  2> %pal
|  3> nprocs 16
|  4> end
|  5>
|  6> * xyz 0 1
|  7> S 	 -112.388 	 55.3931 	 112.226
|  8> C 	 -112.729 	 54.1698 	 111.047
|  9> C 	 -112.024 	 52.9741 	 111.373
| 10> C 	 -111.428 	 53.0248 	 112.696
| 11> C 	 -111.594 	 54.2465 	 113.329
| 12> H 	 -110.812 	 52.2252 	 113.186
| 13> C 	 -112.014 	 51.7302 	 110.499
| 14> H 	 -110.992 	 51.6782 	 110.074
| 15> H 	 -112.656 	 51.9124 	 109.689
| 16> C 	 -112.472 	 50.3866 	 111.053
| 17> H 	 -111.907 	 50.1635 	 111.954
| 18> H 	 -113.514 	 50.3943 	 111.408
| 19> C 	 -112.288 	 49.1697 	 110.108
| 20> H 	 -111.411 	 49.3575 	 109.472
| 21> H 	 -112.147 	 48.2116 	 110.504
| 22> H 	 -113.176 	 49.0328 	 109.479
| 23> S 	 -109.781 	 55.6821 	 114.869
| 24> C 	 -109.919 	 55.6643 	 116.552
| 25> C 	 -110.873 	 54.734 	 116.998
| 26> C 	 -111.593 	 54.1063 	 115.928
| 27> C 	 -111.173 	 54.5136 	 114.702
| 28> H 	 -111.03 	 54.6446 	 118.006
| 29> C 	 -112.669 	 53.0122 	 116.172
| 30> H 	 -112.937 	 52.7506 	 115.161
| 31> H 	 -113.493 	 53.5231 	 116.78
| 32> C 	 -112.055 	 51.7916 	 116.873
| 33> H 	 -111.613 	 52.1298 	 117.832
| 34> H 	 -111.289 	 51.4146 	 116.178
| 35> C 	 -113.068 	 50.6914 	 117.248
| 36> H 	 -113.311 	 49.9725 	 116.474
| 37> H 	 -113.971 	 51.0614 	 117.654
| 38> H 	 -112.6 	 50.0365 	 118.112
| 39> H 	 -113.272 	 54.2676 	 110.099
| 40> H 	 -109.345 	 56.2055 	 117.28
| 41> *
| 42>
| 43>                          ****END OF INPUT****

CARTESIAN COORDINATES (ANGSTROEM)
---------------------------------
  S    -112.388000   55.393100  112.226000
  C    -112.729000   54.169800  111.047000
  C    -112.024000   52.974100  111.373000
  C    -111.428000   53.024800  112.696000
  C    -111.594000   54.246500  113.329000
  H    -110.812000   52.225200  113.186000
  C    -112.014000   51.730200  110.499000
  H    -110.992000   51.678200  110.074000
  H    -112.656000   51.912400  109.689000
  C    -112.472000   50.386600  111.053000
  H    -111.907000   50.163500  111.954000
  H    -113.514000   50.394300  111.408000
  C    -112.288000   49.169700  110.108000
  H    -111.411000   49.357500  109.472000
  H    -112.147000   48.211600  110.504000
  H    -113.176000   49.032800  109.479000
  S    -109.781000   55.682100  114.869000
  C    -109.919000   55.664300  116.552000
  C    -110.873000   54.734000  116.998000
  C    -111.593000   54.106300  115.928000
  C    -111.173000   54.513600  114.702000
  H    -111.030000   54.644600  118.006000
  C    -112.669000   53.012200  116.172000
  H    -112.937000   52.750600  115.161000
  H    -113.493000   53.523100  116.780000
  C    -112.055000   51.791600  116.873000
  H    -111.613000   52.129800  117.832000
  H    -111.289000   51.414600  116.178000
  C    -113.068000   50.691400  117.248000
  H    -113.311000   49.972500  116.474000
  H    -113.971000   51.061400  117.654000
  H    -112.600000   50.036500  118.112000
  H    -113.272000   54.267600  110.099000
  H    -109.345000   56.205500  117.280000

 Total Charge           Charge          ....    0
 Multiplicity           Mult            ....    1
 Number of Electrons    NEL             ....  134
 Basis Dimension        Dim             ....  322

ORBITAL ENERGIES
----------------

  NO   OCC          E(Eh)            E(eV)
   0   2.0000     -88.969546     -2420.9844
   1   2.0000     -88.962076     -2420.7812
   2   2.0000     -10.332288      -281.1558
   3   2.0000     -10.326561      -281.0000
   4   2.0000     -10.321892      -280.8730
   5   2.0000     -10.314574      -280.6738
   6   2.0000     -10.308805      -280.5169
   7   2.0000     -10.304068      -280.3879
   8   2.0000     -10.302359      -280.3414
   9   2.0000     -10.296500      -280.1820
  10   2.0000     -10.292368      -280.0696
  11   2.0000     -10.291461      -280.0449
  12   2.0000     -10.289027      -279.9787
  13   2.0000     -10.286177      -279.9011
  14   2.0000     -10.282889      -279.8116
  15   2.0000     -10.277493      -279.6648
  16   2.0000      -8.083720      -219.9692
  17   2.0000      -8.077085      -219.7887
  18   2.0000      -6.042296      -164.4192
  19   2.0000      -6.038237      -164.3088
  20   2.0000      -6.035483      -164.2338
  21   2.0000      -6.034482      -164.2066
  22   2.0000      -6.031566      -164.1273
  23   2.0000      -6.027933      -164.0284
  24   2.0000      -1.001636       -27.2559
  25   2.0000      -0.980762       -26.6879
  26   2.0000      -0.909841       -24.7580
  27   2.0000      -0.906736       -24.6735
  28   2.0000      -0.869118       -23.6499
  29   2.0000      -0.848913       -23.1001
  30   2.0000      -0.845429       -23.0053
  31   2.0000      -0.812306       -22.1040
  32   2.0000      -0.782764       -21.3001
  33   2.0000      -0.771279       -20.9876
  34   2.0000      -0.709395       -19.3036
  35   2.0000      -0.696406       -18.9502
  36   2.0000      -0.693616       -18.8743
  37   2.0000      -0.660419       -17.9709
  38   2.0000      -0.640331       -17.4243
  39   2.0000      -0.617134       -16.7931
  40   2.0000      -0.586968       -15.9722
  41   2.0000      -0.573138       -15.5959
  42   2.0000      -0.568275       -15.4635
  43   2.0000      -0.560750       -15.2588
  44   2.0000      -0.525485       -14.2992
  45   2.0000      -0.523416       -14.2429
  46   2.0000      -0.512866       -13.9558
  47   2.0000      -0.509634       -13.8678
  48   2.0000      -0.504034       -13.7154
  49   2.0000      -0.502221       -13.6661
  50   2.0000      -0.498147       -13.5553
  51   2.0000      -0.478497       -13.0206
  52   2.0000      -0.473032       -12.8718
  53   2.0000      -0.462189       -12.5768
  54   2.0000      -0.459888       -12.5142
  55   2.0000      -0.453758       -12.3474
  56   2.0000      -0.442344       -12.0368
  57   2.0000      -0.436926       -11.8894
  58   2.0000      -0.434808       -11.8317
  59   2.0000      -0.421234       -11.4624
  60   2.0000      -0.418513       -11.3883
  61   2.0000      -0.415026       -11.2934
  62   2.0000      -0.410977       -11.1833
  63   2.0000      -0.338185        -9.2025
  64   2.0000      -0.334672        -9.1069
  65   2.0000      -0.321619        -8.7517
  66   2.0000      -0.300683        -8.1820
  67   0.0000       0.036703         0.9987
  68   0.0000       0.056769         1.5448
  69   0.0000       0.116872         3.1803
  70   0.0000       0.117543         3.1985
  71   0.0000       0.124373         3.3844

MULLIKEN ATOMIC CHARGES
-----------------------
   0 S :    0.131484
   1 C :   -0.119830
   2 C :   -0.116703
   3 C :    0.019209
   4 C :   -0.160024
   5 H :    0.042922
   6 C :    0.093155
   7 H :    0.042122
   8 H :   -0.001582
   9 C :   -0.079067
  10 H :    0.019634
  11 H :    0.034060
  12 C :   -0.041892
  13 H :    0.026197
  14 H :    0.021907
  15 H :    0.031674
  16 S :    0.102785
  17 C :   -0.070020
  18 C :   -0.037903
  19 C :   -0.014896
  20 C :   -0.208114
  21 H :   -0.015475
  22 C :    0.087422
  23 H :    0.024909
  24 H :    0.047546
  25 C :   -0.094201
  26 H :    0.035900
  27 H :    0.037735
  28 C :   -0.049820
  29 H :    0.036888
  30 H :    0.022779
  31 H :    0.038580
  32 H :    0.061764
  33 H :    0.050856
Sum of atomic charges:    0.0000000

LOEWDIN ATOMIC CHARGES
----------------------
   0 S :    0.410414
   1 C :   -0.208227
   2 C :   -0.062172
   3 C :   -0.062990
   4 C :   -0.199725
   5 H :    0.042082
   6 C :   -0.034613
   7 H :    0.039132
   8 H :    0.021568
   9 C :   -0.043205
  10 H :    0.018539
  11 H :    0.028222
  12 C :   -0.064841
  13 H :    0.027175
  14 H :    0.019586
  15 H :    0.026998
  16 S :    0.396953
  17 C :   -0.192068
  18 C :   -0.072047
  19 C :   -0.046517
  20 C :   -0.184710
  21 H :    0.013327
  22 C :   -0.026408
  23 H :    0.026774
  24 H :    0.039730
  25 C :   -0.042510
  26 H :    0.026509
  27 H :    0.029641
  28 C :   -0.070902
  29 H :    0.023259
  30 H :    0.017147
  31 H :    0.038309
  32 H :    0.036599
  33 H :    0.028971

  Mayer bond orders larger than 0.100000
B(  0-S ,  1-C ) :   1.1489 B(  0-S ,  4-C ) :   1.1419 B(  1-C ,  2-C ) :   1.5953
B(  1-C , 32-H ) :   0.9630 B(  2-C ,  3-C ) :   1.2322 B(  2-C ,  6-C ) :   1.0384
B(  3-C ,  4-C ) :   1.5735 B(  3-C ,  5-H ) :   0.9843 B(  4-C , 20-C ) :   1.0315
B(  6-C ,  7-H ) :   0.9265 B(  6-C ,  8-H ) :   0.9387 B(  6-C ,  9-C ) :   1.0656
B(  9-C , 10-H ) :   0.9559 B(  9-C , 11-H ) :   0.9583 B(  9-C , 12-C ) :   1.0709
B( 12-C , 13-H ) :   0.9762 B( 12-C , 14-H ) :   0.9767 B( 12-C , 15-H ) :   0.9780
B( 16-S , 17-C ) :   1.1732 B( 16-S , 20-C ) :   1.1176 B( 17-C , 18-C ) :   1.6138
B( 17-C , 33-H ) :   0.9651 B( 18-C , 19-C ) :   1.2073 B( 18-C , 21-H ) :   1.0022
B( 19-C , 20-C ) :   1.6484 B( 19-C , 22-C ) :   1.0266 B( 22-C , 23-H ) :   0.9334
B( 22-C , 24-H ) :   0.9316 B( 22-C , 25-C ) :   1.0704 B( 25-C , 26-H ) :   0.9588
B( 25-C , 27-H ) :   0.9536 B( 25-C , 28-C ) :   1.0783 B( 28-C , 29-H ) :   0.9767
B( 28-C , 30-H ) :   0.9736 B( 28-C , 31-H ) :   0.9764

Dispersion correction           -0.013750422
FINAL SINGLE POINT ENERGY     -1339.871013454906

DIPOLE MOMENT
-------------
                                X             Y             Z
Electronic contribution:      8.57303      30.76593      -0.71239
Nuclear contribution   :     -8.71960     -31.41788       0.81032
                        -----------------------------------------
Total Dipole Moment    :     -0.14657      -0.65196       0.09793
                        -----------------------------------------
Magnitude (a.u.)       :      0.67537
Magnitude (Debye)      :      1.71665

Rotational constants in cm-1:     0.016097     0.008847     0.006395
Rotational constants in MHz :   482.579146   265.222032   191.724494

                             ****ORCA TERMINATED NORMALLY****
TOTAL RUN TIME: 0 days 0 hours 0 minutes 31 seconds 688 msec
