                         Program Version 4.2.1 -  RELEASE  -
|  1> ! wB97X-D3 SP def2-SVP
|  2> %pal
|  3> nprocs 16
|  4> end
|  5>
|  6> * xyz 0 1
|  7> S 	 -34.0304 	 31.0338 	 48.1633
|  8> C 	 -32.921 	 30.1194 	 49.0692
|  9> C 	 -32.3626 	 30.934 	 50.0187
| 10> C 	 -32.9239 	 32.2676 	 50.0213
| 11> C 	 -33.7487 	 32.4998 	 48.9692
| 12> H 	 -32.7301 	 33.1499 	 50.7135
| 13> C 	 -31.4038 	 30.5045 	 51.1113
| 14> H 	 -30.9728 	 29.5737 	 50.7571
| 15> H 	 -31.8997 	 30.4854 	 52.0375
| 16> C 	 -30.2577 	 31.5566 	 51.3545
| 17> H 	 -30.4937 	 32.6063 	 51.4403
| 18> H 	 -29.9096 	 31.2081 	 52.3408
| 19> C 	 -29.0454 	 31.4219 	 50.341
| 20> H 	 -28.764 	 30.4449 	 50.1938
| 21> H 	 -29.2177 	 31.8963 	 49.2676
| 22> H 	 -28.1559 	 31.9434 	 50.7781
| 23> S 	 -34.8945 	 34.7753 	 49.8988
| 24> C 	 -35.7249 	 35.9112 	 48.8876
| 25> C 	 -35.6505 	 35.493 	 47.6505
| 26> C 	 -34.8999 	 34.3021 	 47.3817
| 27> C 	 -34.4513 	 33.708 	 48.6084
| 28> H 	 -35.9584 	 36.2753 	 47.0019
| 29> C 	 -34.5254 	 33.8853 	 45.9822
| 30> H 	 -33.7497 	 33.1497 	 46.1886
| 31> H 	 -34.2065 	 34.7767 	 45.4457
| 32> C 	 -35.6707 	 33.2877 	 45.0725
| 33> H 	 -36.4427 	 33.9998 	 45.2416
| 34> H 	 -35.908 	 32.2913 	 45.394
| 35> C 	 -35.0536 	 33.2077 	 43.6216
| 36> H 	 -34.4714 	 34.1422 	 43.4319
| 37> H 	 -35.6974 	 32.8767 	 42.8245
| 38> H 	 -34.37 	 32.3495 	 43.7279
| 39> H 	 -32.6527 	 29.0809 	 48.8668
| 40> H 	 -36.2135 	 36.8852 	 49.1333
| 41> *
| 42>
| 43>                          ****END OF INPUT****

CARTESIAN COORDINATES (ANGSTROEM)
---------------------------------
  S    -34.030400   31.033800   48.163300
  C    -32.921000   30.119400   49.069200
  C    -32.362600   30.934000   50.018700
  C    -32.923900   32.267600   50.021300
  C    -33.748700   32.499800   48.969200
  H    -32.730100   33.149900   50.713500
  C    -31.403800   30.504500   51.111300
  H    -30.972800   29.573700   50.757100
  H    -31.899700   30.485400   52.037500
  C    -30.257700   31.556600   51.354500
  H    -30.493700   32.606300   51.440300
  H    -29.909600   31.208100   52.340800
  C    -29.045400   31.421900   50.341000
  H    -28.764000   30.444900   50.193800
  H    -29.217700   31.896300   49.267600
  H    -28.155900   31.943400   50.778100
  S    -34.894500   34.775300   49.898800
  C    -35.724900   35.911200   48.887600
  C    -35.650500   35.493000   47.650500
  C    -34.899900   34.302100   47.381700
  C    -34.451300   33.708000   48.608400
  H    -35.958400   36.275300   47.001900
  C    -34.525400   33.885300   45.982200
  H    -33.749700   33.149700   46.188600
  H    -34.206500   34.776700   45.445700
  C    -35.670700   33.287700   45.072500
  H    -36.442700   33.999800   45.241600
  H    -35.908000   32.291300   45.394000
  C    -35.053600   33.207700   43.621600
  H    -34.471400   34.142200   43.431900
  H    -35.697400   32.876700   42.824500
  H    -34.370000   32.349500   43.727900
  H    -32.652700   29.080900   48.866800
  H    -36.213500   36.885200   49.133300

 Total Charge           Charge          ....    0
 Multiplicity           Mult            ....    1
 Number of Electrons    NEL             ....  134
 Basis Dimension        Dim             ....  322

ORBITAL ENERGIES
----------------

  NO   OCC          E(Eh)            E(eV)
   0   2.0000     -88.962973     -2420.8056
   1   2.0000     -88.961592     -2420.7680
   2   2.0000     -10.332261      -281.1551
   3   2.0000     -10.325326      -280.9664
   4   2.0000     -10.312190      -280.6090
   5   2.0000     -10.312066      -280.6056
   6   2.0000     -10.307685      -280.4864
   7   2.0000     -10.300990      -280.3042
   8   2.0000     -10.295228      -280.1474
   9   2.0000     -10.291778      -280.0535
  10   2.0000     -10.291091      -280.0348
  11   2.0000     -10.288952      -279.9766
  12   2.0000     -10.284620      -279.8588
  13   2.0000     -10.282941      -279.8130
  14   2.0000     -10.281491      -279.7736
  15   2.0000     -10.281160      -279.7646
  16   2.0000      -8.079536      -219.8553
  17   2.0000      -8.077073      -219.7883
  18   2.0000      -6.037973      -164.3016
  19   2.0000      -6.035642      -164.2382
  20   2.0000      -6.033615      -164.1830
  21   2.0000      -6.031345      -164.1212
  22   2.0000      -6.030422      -164.0961
  23   2.0000      -6.027847      -164.0261
  24   2.0000      -1.019824       -27.7508
  25   2.0000      -0.996395       -27.1133
  26   2.0000      -0.909452       -24.7475
  27   2.0000      -0.904671       -24.6173
  28   2.0000      -0.881298       -23.9813
  29   2.0000      -0.846241       -23.0274
  30   2.0000      -0.838262       -22.8103
  31   2.0000      -0.824634       -22.4394
  32   2.0000      -0.781944       -21.2778
  33   2.0000      -0.765427       -20.8283
  34   2.0000      -0.715277       -19.4637
  35   2.0000      -0.699517       -19.0348
  36   2.0000      -0.691872       -18.8268
  37   2.0000      -0.662751       -18.0344
  38   2.0000      -0.632432       -17.2094
  39   2.0000      -0.620965       -16.8973
  40   2.0000      -0.592003       -16.1092
  41   2.0000      -0.579429       -15.7671
  42   2.0000      -0.573659       -15.6101
  43   2.0000      -0.555423       -15.1138
  44   2.0000      -0.528507       -14.3814
  45   2.0000      -0.522308       -14.2127
  46   2.0000      -0.520943       -14.1756
  47   2.0000      -0.516721       -14.0607
  48   2.0000      -0.511929       -13.9303
  49   2.0000      -0.501643       -13.6504
  50   2.0000      -0.485341       -13.2068
  51   2.0000      -0.477189       -12.9850
  52   2.0000      -0.474036       -12.8992
  53   2.0000      -0.459543       -12.5048
  54   2.0000      -0.455524       -12.3954
  55   2.0000      -0.442358       -12.0372
  56   2.0000      -0.441409       -12.0113
  57   2.0000      -0.435979       -11.8636
  58   2.0000      -0.434606       -11.8262
  59   2.0000      -0.432115       -11.7584
  60   2.0000      -0.419828       -11.4241
  61   2.0000      -0.412938       -11.2366
  62   2.0000      -0.403369       -10.9762
  63   2.0000      -0.365713        -9.9516
  64   2.0000      -0.327284        -8.9058
  65   2.0000      -0.325330        -8.8527
  66   2.0000      -0.290981        -7.9180
  67   0.0000       0.026290         0.7154
  68   0.0000       0.092411         2.5146
  69   0.0000       0.111197         3.0258
  70   0.0000       0.124953         3.4001
  71   0.0000       0.140198         3.8150

MULLIKEN ATOMIC CHARGES
-----------------------
   0 S :    0.109558
   1 C :   -0.126152
   2 C :   -0.090899
   3 C :   -0.034791
   4 C :   -0.125195
   5 H :    0.044076
   6 C :    0.113406
   7 H :    0.017058
   8 H :    0.035858
   9 C :   -0.103604
  10 H :    0.043588
  11 H :    0.025477
  12 C :   -0.076606
  13 H :    0.011342
  14 H :    0.055602
  15 H :    0.038779
  16 S :    0.080941
  17 C :   -0.101208
  18 C :   -0.020796
  19 C :   -0.039814
  20 C :   -0.132649
  21 H :    0.006493
  22 C :    0.028646
  23 H :    0.021020
  24 H :    0.027116
  25 C :   -0.042428
  26 H :    0.025669
  27 H :    0.029467
  28 C :   -0.053106
  29 H :    0.039642
  30 H :    0.038628
  31 H :    0.029339
  32 H :    0.054963
  33 H :    0.070579
Sum of atomic charges:    0.0000000

LOEWDIN ATOMIC CHARGES
----------------------
   0 S :    0.449294
   1 C :   -0.218102
   2 C :   -0.064788
   3 C :   -0.082171
   4 C :   -0.211662
   5 H :    0.038701
   6 C :   -0.019147
   7 H :    0.029668
   8 H :    0.030024
   9 C :   -0.037515
  10 H :    0.023017
  11 H :    0.024871
  12 C :   -0.072536
  13 H :    0.005979
  14 H :    0.039396
  15 H :    0.030230
  16 S :    0.415622
  17 C :   -0.193817
  18 C :   -0.085756
  19 C :   -0.057896
  20 C :   -0.198924
  21 H :    0.029509
  22 C :   -0.032250
  23 H :    0.021955
  24 H :    0.031105
  25 C :   -0.025753
  26 H :    0.014995
  27 H :    0.020449
  28 C :   -0.069318
  29 H :    0.028318
  30 H :    0.022471
  31 H :    0.031177
  32 H :    0.035165
  33 H :    0.047691

  Mayer bond orders larger than 0.100000
B(  0-S ,  1-C ) :   1.1417 B(  0-S ,  4-C ) :   1.1668 B(  1-C ,  2-C ) :   1.5996
B(  1-C , 32-H ) :   0.9720 B(  2-C ,  3-C ) :   1.2362 B(  2-C ,  6-C ) :   1.0299
B(  3-C ,  4-C ) :   1.5769 B(  3-C ,  5-H ) :   0.9746 B(  4-C , 20-C ) :   1.0541
B(  6-C ,  7-H ) :   0.9423 B(  6-C ,  8-H ) :   0.9405 B(  6-C ,  9-C ) :   1.0620
B(  9-C , 10-H ) :   0.9608 B(  9-C , 11-H ) :   0.9600 B(  9-C , 12-C ) :   1.0676
B( 12-C , 13-H ) :   0.9773 B( 12-C , 14-H ) :   0.9765 B( 12-C , 15-H ) :   0.9765
B( 16-S , 17-C ) :   1.1350 B( 16-S , 20-C ) :   1.1545 B( 17-C , 18-C ) :   1.6611
B( 17-C , 33-H ) :   0.9574 B( 18-C , 19-C ) :   1.2236 B( 18-C , 21-H ) :   0.9823
B( 19-C , 20-C ) :   1.5404 B( 19-C , 22-C ) :   1.0528 B( 22-C , 23-H ) :   0.9282
B( 22-C , 24-H ) :   0.9382 B( 22-C , 25-C ) :   1.0528 B( 25-C , 26-H ) :   0.9641
B( 25-C , 27-H ) :   0.9568 B( 25-C , 28-C ) :   1.0648 B( 28-C , 29-H ) :   0.9759
B( 28-C , 30-H ) :   0.9755 B( 28-C , 31-H ) :   0.9755

Dispersion correction           -0.013671189
FINAL SINGLE POINT ENERGY     -1339.850959699743

DIPOLE MOMENT
-------------
                                X             Y             Z
Electronic contribution:    -13.37306       3.27366       8.71134
Nuclear contribution   :     13.64886      -3.21659      -8.73504
                        -----------------------------------------
Total Dipole Moment    :      0.27580       0.05707      -0.02370
                        -----------------------------------------
Magnitude (a.u.)       :      0.28264
Magnitude (Debye)      :      0.71841

Rotational constants in cm-1:     0.019777     0.008138     0.006600
Rotational constants in MHz :   592.912147   243.957449   197.870071

                             ****ORCA TERMINATED NORMALLY****
TOTAL RUN TIME: 0 days 0 hours 0 minutes 32 seconds 808 msec
