                         Program Version 4.2.1 -  RELEASE  -
|  1> ! wB97X-D3 SP def2-SVP
|  2> %pal
|  3> nprocs 16
|  4> end
|  5>
|  6> * xyz 0 1
|  7> S 	 -37.7066 	 22.0907 	 78.1508
|  8> C 	 -39.1396 	 22.5717 	 77.2424
|  9> C 	 -39.7706 	 21.4971 	 76.6374
| 10> C 	 -39.067 	 20.2782 	 76.9143
| 11> C 	 -38.0151 	 20.425 	 77.8421
| 12> H 	 -39.1864 	 19.3411 	 76.3804
| 13> C 	 -40.9894 	 21.6565 	 75.7375
| 14> H 	 -40.6063 	 21.7407 	 74.7834
| 15> H 	 -41.5497 	 22.5316 	 76.0056
| 16> C 	 -41.9341 	 20.4096 	 75.774
| 17> H 	 -42.6842 	 20.5367 	 75.0473
| 18> H 	 -41.4306 	 19.4551 	 75.4987
| 19> C 	 -42.5985 	 20.3626 	 77.2065
| 20> H 	 -43.0385 	 21.3506 	 77.414
| 21> H 	 -43.3597 	 19.5712 	 77.1383
| 22> H 	 -41.8859 	 20.2103 	 78.0053
| 23> S 	 -35.4656 	 19.6674 	 78.7598
| 24> C 	 -35.2923 	 17.9726 	 79.2732
| 25> C 	 -36.3836 	 17.2396 	 78.9885
| 26> C 	 -37.4783 	 17.9269 	 78.4354
| 27> C 	 -37.1818 	 19.3472 	 78.3916
| 28> H 	 -36.44 	 16.1562 	 79.1331
| 29> C 	 -38.7616 	 17.2886 	 78.1424
| 30> H 	 -38.6712 	 16.2042 	 78.2021
| 31> H 	 -39.0312 	 17.3537 	 77.0928
| 32> C 	 -39.952 	 17.8417 	 78.985
| 33> H 	 -40.2423 	 18.8266 	 78.8006
| 34> H 	 -39.6889 	 17.8329 	 80.014
| 35> C 	 -41.1637 	 16.8684 	 78.7728
| 36> H 	 -41.0105 	 15.9026 	 79.1296
| 37> H 	 -41.3913 	 16.6465 	 77.7484
| 38> H 	 -42.1417 	 17.1467 	 79.1993
| 39> H 	 -39.372 	 23.6105 	 77.2405
| 40> H 	 -34.4495 	 17.5338 	 79.6781
| 41> *
| 42>
| 43>                          ****END OF INPUT****

CARTESIAN COORDINATES (ANGSTROEM)
---------------------------------
  S    -37.706600   22.090700   78.150800
  C    -39.139600   22.571700   77.242400
  C    -39.770600   21.497100   76.637400
  C    -39.067000   20.278200   76.914300
  C    -38.015100   20.425000   77.842100
  H    -39.186400   19.341100   76.380400
  C    -40.989400   21.656500   75.737500
  H    -40.606300   21.740700   74.783400
  H    -41.549700   22.531600   76.005600
  C    -41.934100   20.409600   75.774000
  H    -42.684200   20.536700   75.047300
  H    -41.430600   19.455100   75.498700
  C    -42.598500   20.362600   77.206500
  H    -43.038500   21.350600   77.414000
  H    -43.359700   19.571200   77.138300
  H    -41.885900   20.210300   78.005300
  S    -35.465600   19.667400   78.759800
  C    -35.292300   17.972600   79.273200
  C    -36.383600   17.239600   78.988500
  C    -37.478300   17.926900   78.435400
  C    -37.181800   19.347200   78.391600
  H    -36.440000   16.156200   79.133100
  C    -38.761600   17.288600   78.142400
  H    -38.671200   16.204200   78.202100
  H    -39.031200   17.353700   77.092800
  C    -39.952000   17.841700   78.985000
  H    -40.242300   18.826600   78.800600
  H    -39.688900   17.832900   80.014000
  C    -41.163700   16.868400   78.772800
  H    -41.010500   15.902600   79.129600
  H    -41.391300   16.646500   77.748400
  H    -42.141700   17.146700   79.199300
  H    -39.372000   23.610500   77.240500
  H    -34.449500   17.533800   79.678100

 Total Charge           Charge          ....    0
 Multiplicity           Mult            ....    1
 Number of Electrons    NEL             ....  134
 Basis Dimension        Dim             ....  322

ORBITAL ENERGIES
----------------

  NO   OCC          E(Eh)            E(eV)
   0   2.0000     -88.969906     -2420.9942
   1   2.0000     -88.963896     -2420.8307
   2   2.0000     -10.334760      -281.2231
   3   2.0000     -10.330376      -281.1038
   4   2.0000     -10.311195      -280.5819
   5   2.0000     -10.310800      -280.5711
   6   2.0000     -10.304318      -280.3948
   7   2.0000     -10.303532      -280.3734
   8   2.0000     -10.294755      -280.1345
   9   2.0000     -10.292779      -280.0808
  10   2.0000     -10.289969      -280.0043
  11   2.0000     -10.289576      -279.9936
  12   2.0000     -10.288389      -279.9613
  13   2.0000     -10.282364      -279.7974
  14   2.0000     -10.279897      -279.7302
  15   2.0000     -10.270826      -279.4834
  16   2.0000      -8.083406      -219.9607
  17   2.0000      -8.079122      -219.8441
  18   2.0000      -6.041977      -164.4106
  19   2.0000      -6.038281      -164.3100
  20   2.0000      -6.037542      -164.2899
  21   2.0000      -6.033997      -164.1934
  22   2.0000      -6.033609      -164.1829
  23   2.0000      -6.029940      -164.0830
  24   2.0000      -1.002555       -27.2809
  25   2.0000      -0.981094       -26.6969
  26   2.0000      -0.911885       -24.8137
  27   2.0000      -0.909461       -24.7477
  28   2.0000      -0.866269       -23.5724
  29   2.0000      -0.850252       -23.1365
  30   2.0000      -0.840175       -22.8623
  31   2.0000      -0.813806       -22.1448
  32   2.0000      -0.783655       -21.3243
  33   2.0000      -0.770269       -20.9601
  34   2.0000      -0.722549       -19.6616
  35   2.0000      -0.706987       -19.2381
  36   2.0000      -0.694575       -18.9003
  37   2.0000      -0.658248       -17.9118
  38   2.0000      -0.640355       -17.4250
  39   2.0000      -0.623658       -16.9706
  40   2.0000      -0.603728       -16.4283
  41   2.0000      -0.560880       -15.2623
  42   2.0000      -0.559954       -15.2371
  43   2.0000      -0.558569       -15.1994
  44   2.0000      -0.537822       -14.6349
  45   2.0000      -0.522667       -14.2225
  46   2.0000      -0.517758       -14.0889
  47   2.0000      -0.512828       -13.9548
  48   2.0000      -0.499047       -13.5798
  49   2.0000      -0.496212       -13.5026
  50   2.0000      -0.493647       -13.4328
  51   2.0000      -0.480960       -13.0876
  52   2.0000      -0.470128       -12.7928
  53   2.0000      -0.460618       -12.5341
  54   2.0000      -0.458164       -12.4673
  55   2.0000      -0.452173       -12.3043
  56   2.0000      -0.448228       -12.1969
  57   2.0000      -0.436935       -11.8896
  58   2.0000      -0.435547       -11.8518
  59   2.0000      -0.431787       -11.7495
  60   2.0000      -0.424021       -11.5382
  61   2.0000      -0.419806       -11.4235
  62   2.0000      -0.418164       -11.3788
  63   2.0000      -0.354994        -9.6599
  64   2.0000      -0.332673        -9.0525
  65   2.0000      -0.328000        -8.9253
  66   2.0000      -0.276584        -7.5262
  67   0.0000       0.013529         0.3682
  68   0.0000       0.083011         2.2588
  69   0.0000       0.096548         2.6272
  70   0.0000       0.123428         3.3587
  71   0.0000       0.129932         3.5356

MULLIKEN ATOMIC CHARGES
-----------------------
   0 S :    0.096271
   1 C :   -0.137639
   2 C :   -0.081833
   3 C :   -0.017892
   4 C :   -0.135749
   5 H :    0.014080
   6 C :    0.120095
   7 H :    0.024801
   8 H :    0.021073
   9 C :   -0.084153
  10 H :    0.017707
  11 H :    0.033640
  12 C :   -0.059025
  13 H :    0.026594
  14 H :    0.041661
  15 H :    0.047603
  16 S :    0.098674
  17 C :   -0.046007
  18 C :   -0.025510
  19 C :   -0.035773
  20 C :   -0.124113
  21 H :    0.017090
  22 C :    0.039293
  23 H :    0.007770
  24 H :    0.021682
  25 C :    0.000356
  26 H :    0.025081
  27 H :    0.026182
  28 C :   -0.034329
  29 H :    0.004802
  30 H :    0.005723
  31 H :    0.028837
  32 H :    0.040211
  33 H :    0.022794
Sum of atomic charges:    0.0000000

LOEWDIN ATOMIC CHARGES
----------------------
   0 S :    0.406207
   1 C :   -0.191068
   2 C :   -0.057084
   3 C :   -0.070854
   4 C :   -0.199298
   5 H :    0.029269
   6 C :   -0.017526
   7 H :    0.024305
   8 H :    0.029133
   9 C :   -0.034340
  10 H :    0.016097
  11 H :    0.024255
  12 C :   -0.060922
  13 H :    0.026304
  14 H :    0.026741
  15 H :    0.023169
  16 S :    0.381946
  17 C :   -0.165739
  18 C :   -0.068748
  19 C :   -0.052985
  20 C :   -0.183230
  21 H :    0.034924
  22 C :   -0.035092
  23 H :    0.032006
  24 H :    0.028914
  25 C :   -0.015062
  26 H :    0.014933
  27 H :    0.024546
  28 C :   -0.066707
  29 H :    0.014657
  30 H :    0.019060
  31 H :    0.027350
  32 H :    0.018702
  33 H :    0.016136

  Mayer bond orders larger than 0.100000
B(  0-S ,  1-C ) :   1.1381 B(  0-S ,  4-C ) :   1.1687 B(  1-C ,  2-C ) :   1.5879
B(  1-C , 32-H ) :   0.9798 B(  2-C ,  3-C ) :   1.2570 B(  2-C ,  6-C ) :   1.0081
B(  3-C ,  4-C ) :   1.5278 B(  3-C ,  5-H ) :   0.9866 B(  4-C , 20-C ) :   1.0894
B(  6-C ,  7-H ) :   0.9291 B(  6-C ,  8-H ) :   0.9461 B(  6-C ,  9-C ) :   1.0877
B(  9-C , 10-H ) :   0.9557 B(  9-C , 11-H ) :   0.9523 B(  9-C , 12-C ) :   1.0622
B( 12-C , 13-H ) :   0.9717 B( 12-C , 14-H ) :   0.9770 B( 12-C , 15-H ) :   0.9747
B( 16-S , 17-C ) :   1.1287 B( 16-S , 20-C ) :   1.1436 B( 17-C , 18-C ) :   1.6105
B( 17-C , 20-C ) :   0.1018 B( 17-C , 33-H ) :   0.9728 B( 18-C , 19-C ) :   1.2836
B( 18-C , 21-H ) :   0.9807 B( 19-C , 20-C ) :   1.5211 B( 19-C , 22-C ) :   1.0619
B( 22-C , 23-H ) :   0.9320 B( 22-C , 24-H ) :   0.9166 B( 22-C , 25-C ) :   1.0469
B( 25-C , 26-H ) :   0.9551 B( 25-C , 27-H ) :   0.9510 B( 25-C , 28-C ) :   1.0739
B( 28-C , 29-H ) :   0.9737 B( 28-C , 30-H ) :   0.9725 B( 28-C , 31-H ) :   0.9747

Dispersion correction           -0.016271530
FINAL SINGLE POINT ENERGY     -1339.870829525511

DIPOLE MOMENT
-------------
                                X             Y             Z
Electronic contribution:     29.65329      12.41792       5.21471
Nuclear contribution   :    -30.19416     -12.83806      -5.55474
                        -----------------------------------------
Total Dipole Moment    :     -0.54087      -0.42014      -0.34003
                        -----------------------------------------
Magnitude (a.u.)       :      0.76464
Magnitude (Debye)      :      1.94356

Rotational constants in cm-1:     0.018724     0.010844     0.007364
Rotational constants in MHz :   561.317065   325.089752   220.771852

                             ****ORCA TERMINATED NORMALLY****
TOTAL RUN TIME: 0 days 0 hours 0 minutes 34 seconds 176 msec
