                         Program Version 4.2.1 -  RELEASE  -
|  1> ! wB97X-D3 SP def2-SVP
|  2> %pal
|  3> nprocs 16
|  4> end
|  5>
|  6> * xyz 0 1
|  7> S 	 -51.9085 	 57.7814 	 129.82
|  8> C 	 -51.5858 	 56.7426 	 131.103
|  9> C 	 -51.201 	 57.4172 	 132.24
| 10> C 	 -51.2495 	 58.854 	 131.985
| 11> C 	 -51.7692 	 59.192 	 130.804
| 12> H 	 -50.9124 	 59.5912 	 132.715
| 13> C 	 -50.6951 	 56.7798 	 133.51
| 14> H 	 -50.9784 	 55.6807 	 133.374
| 15> H 	 -51.2963 	 57.2342 	 134.324
| 16> C 	 -49.2069 	 56.8686 	 133.822
| 17> H 	 -48.6403 	 56.3978 	 133.135
| 18> H 	 -49.0547 	 57.9494 	 133.708
| 19> C 	 -48.8846 	 56.2901 	 135.254
| 20> H 	 -49.7784 	 56.5162 	 135.856
| 21> H 	 -48.9294 	 55.2376 	 135.116
| 22> H 	 -47.9527 	 56.55 	 135.76
| 23> S 	 -50.9398 	 60.7819 	 128.735
| 24> C 	 -51.307 	 62.5628 	 128.77
| 25> C 	 -51.8927 	 62.8867 	 129.934
| 26> C 	 -52.2234 	 61.7425 	 130.719
| 27> C 	 -51.8788 	 60.5165 	 130.193
| 28> H 	 -52.2081 	 63.9594 	 130.031
| 29> C 	 -52.6636 	 61.9105 	 132.136
| 30> H 	 -53.0497 	 60.9569 	 132.417
| 31> H 	 -53.504 	 62.6757 	 132.019
| 32> C 	 -51.4811 	 62.4102 	 132.983
| 33> H 	 -51.086 	 63.3611 	 132.535
| 34> H 	 -50.6678 	 61.6992 	 133.078
| 35> C 	 -52.0727 	 62.8781 	 134.374
| 36> H 	 -51.239 	 63.224 	 134.987
| 37> H 	 -52.5158 	 62.0723 	 134.979
| 38> H 	 -52.8533 	 63.6313 	 134.259
| 39> H 	 -51.7411 	 55.6698 	 131.225
| 40> H 	 -50.802 	 63.3857 	 128.377
| 41> *
| 42>
| 43>                          ****END OF INPUT****

CARTESIAN COORDINATES (ANGSTROEM)
---------------------------------
  S    -51.908500   57.781400  129.820000
  C    -51.585800   56.742600  131.103000
  C    -51.201000   57.417200  132.240000
  C    -51.249500   58.854000  131.985000
  C    -51.769200   59.192000  130.804000
  H    -50.912400   59.591200  132.715000
  C    -50.695100   56.779800  133.510000
  H    -50.978400   55.680700  133.374000
  H    -51.296300   57.234200  134.324000
  C    -49.206900   56.868600  133.822000
  H    -48.640300   56.397800  133.135000
  H    -49.054700   57.949400  133.708000
  C    -48.884600   56.290100  135.254000
  H    -49.778400   56.516200  135.856000
  H    -48.929400   55.237600  135.116000
  H    -47.952700   56.550000  135.760000
  S    -50.939800   60.781900  128.735000
  C    -51.307000   62.562800  128.770000
  C    -51.892700   62.886700  129.934000
  C    -52.223400   61.742500  130.719000
  C    -51.878800   60.516500  130.193000
  H    -52.208100   63.959400  130.031000
  C    -52.663600   61.910500  132.136000
  H    -53.049700   60.956900  132.417000
  H    -53.504000   62.675700  132.019000
  C    -51.481100   62.410200  132.983000
  H    -51.086000   63.361100  132.535000
  H    -50.667800   61.699200  133.078000
  C    -52.072700   62.878100  134.374000
  H    -51.239000   63.224000  134.987000
  H    -52.515800   62.072300  134.979000
  H    -52.853300   63.631300  134.259000
  H    -51.741100   55.669800  131.225000
  H    -50.802000   63.385700  128.377000

 Total Charge           Charge          ....    0
 Multiplicity           Mult            ....    1
 Number of Electrons    NEL             ....  134
 Basis Dimension        Dim             ....  322

ORBITAL ENERGIES
----------------

  NO   OCC          E(Eh)            E(eV)
   0   2.0000     -88.965229     -2420.8670
   1   2.0000     -88.962953     -2420.8050
   2   2.0000     -10.326924      -281.0099
   3   2.0000     -10.326211      -280.9905
   4   2.0000     -10.311498      -280.5901
   5   2.0000     -10.310560      -280.5646
   6   2.0000     -10.300551      -280.2922
   7   2.0000     -10.300336      -280.2864
   8   2.0000     -10.298176      -280.2276
   9   2.0000     -10.297447      -280.2078
  10   2.0000     -10.294433      -280.1258
  11   2.0000     -10.294228      -280.1202
  12   2.0000     -10.290610      -280.0217
  13   2.0000     -10.283812      -279.8368
  14   2.0000     -10.282398      -279.7983
  15   2.0000     -10.282214      -279.7933
  16   2.0000      -8.081854      -219.9184
  17   2.0000      -8.076677      -219.7775
  18   2.0000      -6.040366      -164.3667
  19   2.0000      -6.036155      -164.2521
  20   2.0000      -6.035500      -164.2343
  21   2.0000      -6.032411      -164.1503
  22   2.0000      -6.031459      -164.1243
  23   2.0000      -6.026986      -164.0026
  24   2.0000      -1.018585       -27.7171
  25   2.0000      -0.990195       -26.9446
  26   2.0000      -0.916482       -24.9387
  27   2.0000      -0.908493       -24.7214
  28   2.0000      -0.880203       -23.9515
  29   2.0000      -0.851742       -23.1771
  30   2.0000      -0.841710       -22.9041
  31   2.0000      -0.828266       -22.5383
  32   2.0000      -0.779666       -21.2158
  33   2.0000      -0.765562       -20.8320
  34   2.0000      -0.715964       -19.4824
  35   2.0000      -0.703598       -19.1459
  36   2.0000      -0.700791       -19.0695
  37   2.0000      -0.663381       -18.0515
  38   2.0000      -0.641958       -17.4686
  39   2.0000      -0.624781       -17.0012
  40   2.0000      -0.584446       -15.9036
  41   2.0000      -0.579408       -15.7665
  42   2.0000      -0.568110       -15.4591
  43   2.0000      -0.562406       -15.3039
  44   2.0000      -0.531993       -14.4763
  45   2.0000      -0.531385       -14.4597
  46   2.0000      -0.517837       -14.0911
  47   2.0000      -0.510491       -13.8912
  48   2.0000      -0.508206       -13.8290
  49   2.0000      -0.498145       -13.5552
  50   2.0000      -0.494660       -13.4604
  51   2.0000      -0.473559       -12.8862
  52   2.0000      -0.471738       -12.8366
  53   2.0000      -0.463384       -12.6093
  54   2.0000      -0.460707       -12.5365
  55   2.0000      -0.455717       -12.4007
  56   2.0000      -0.445504       -12.1228
  57   2.0000      -0.442967       -12.0537
  58   2.0000      -0.438531       -11.9330
  59   2.0000      -0.428179       -11.6514
  60   2.0000      -0.423909       -11.5352
  61   2.0000      -0.415943       -11.3184
  62   2.0000      -0.404404       -11.0044
  63   2.0000      -0.361555        -9.8384
  64   2.0000      -0.330418        -8.9911
  65   2.0000      -0.323714        -8.8087
  66   2.0000      -0.295316        -8.0360
  67   0.0000       0.032456         0.8832
  68   0.0000       0.067904         1.8478
  69   0.0000       0.100861         2.7446
  70   0.0000       0.122217         3.3257
  71   0.0000       0.131063         3.5664

MULLIKEN ATOMIC CHARGES
-----------------------
   0 S :    0.118564
   1 C :   -0.087567
   2 C :   -0.134253
   3 C :    0.019050
   4 C :   -0.140420
   5 H :   -0.001029
   6 C :    0.011558
   7 H :    0.019970
   8 H :    0.039739
   9 C :   -0.015856
  10 H :    0.007112
  11 H :    0.021365
  12 C :   -0.036999
  13 H :    0.025563
  14 H :    0.022323
  15 H :    0.052156
  16 S :    0.070670
  17 C :   -0.041902
  18 C :   -0.092508
  19 C :   -0.077891
  20 C :   -0.081517
  21 H :    0.049780
  22 C :    0.051292
  23 H :    0.024381
  24 H :    0.038365
  25 C :   -0.085724
  26 H :    0.038629
  27 H :    0.042247
  28 C :   -0.044795
  29 H :    0.033224
  30 H :    0.028090
  31 H :    0.035320
  32 H :    0.047744
  33 H :    0.043320
Sum of atomic charges:    0.0000000

LOEWDIN ATOMIC CHARGES
----------------------
   0 S :    0.439148
   1 C :   -0.217439
   2 C :   -0.069084
   3 C :   -0.064006
   4 C :   -0.201228
   5 H :    0.028566
   6 C :   -0.036907
   7 H :    0.031403
   8 H :    0.033585
   9 C :   -0.026952
  10 H :    0.008293
  11 H :    0.023804
  12 C :   -0.062333
  13 H :    0.027222
  14 H :    0.022721
  15 H :    0.029741
  16 S :    0.368484
  17 C :   -0.165234
  18 C :   -0.074049
  19 C :   -0.064369
  20 C :   -0.195189
  21 H :    0.046027
  22 C :   -0.033416
  23 H :    0.023774
  24 H :    0.039415
  25 C :   -0.032036
  26 H :    0.031890
  27 H :    0.021436
  28 C :   -0.068231
  29 H :    0.023969
  30 H :    0.023711
  31 H :    0.024952
  32 H :    0.035504
  33 H :    0.026827

  Mayer bond orders larger than 0.100000
B(  0-S ,  1-C ) :   1.1475 B(  0-S ,  4-C ) :   1.1469 B(  1-C ,  2-C ) :   1.6347
B(  1-C , 32-H ) :   0.9543 B(  2-C ,  3-C ) :   1.2260 B(  2-C ,  6-C ) :   1.0341
B(  3-C ,  4-C ) :   1.5896 B(  3-C ,  5-H ) :   0.9908 B(  4-C , 20-C ) :   1.0041
B(  6-C ,  7-H ) :   0.9372 B(  6-C ,  8-H ) :   0.9322 B(  6-C ,  9-C ) :   1.0622
B(  9-C , 10-H ) :   0.9579 B(  9-C , 11-H ) :   0.9576 B(  9-C , 12-C ) :   1.0607
B( 12-C , 13-H ) :   0.9765 B( 12-C , 14-H ) :   0.9757 B( 12-C , 15-H ) :   0.9769
B( 16-S , 17-C ) :   1.1216 B( 16-S , 20-C ) :   1.1161 B( 17-C , 18-C ) :   1.6847
B( 17-C , 33-H ) :   0.9546 B( 18-C , 19-C ) :   1.2081 B( 18-C , 21-H ) :   0.9734
B( 19-C , 20-C ) :   1.6476 B( 19-C , 22-C ) :   1.0578 B( 22-C , 23-H ) :   0.9299
B( 22-C , 24-H ) :   0.9381 B( 22-C , 25-C ) :   1.0561 B( 25-C , 26-H ) :   0.9530
B( 25-C , 27-H ) :   0.9535 B( 25-C , 28-C ) :   1.0707 B( 28-C , 29-H ) :   0.9754
B( 28-C , 30-H ) :   0.9755 B( 28-C , 31-H ) :   0.9776

Dispersion correction           -0.014098318
FINAL SINGLE POINT ENERGY     -1339.844176351490

DIPOLE MOMENT
-------------
                                X             Y             Z
Electronic contribution:     -5.61352      -1.63022     -30.27331
Nuclear contribution   :      5.85916       1.85467      31.08714
                        -----------------------------------------
Total Dipole Moment    :      0.24564       0.22445       0.81382
                        -----------------------------------------
Magnitude (a.u.)       :      0.87922
Magnitude (Debye)      :      2.23480

Rotational constants in cm-1:     0.017572     0.009049     0.006661
Rotational constants in MHz :   526.803175   271.284047   199.693509

                             ****ORCA TERMINATED NORMALLY****
TOTAL RUN TIME: 0 days 0 hours 0 minutes 35 seconds 787 msec
