                         Program Version 4.2.1 -  RELEASE  -
|  1> ! wB97X-D3 SP def2-SVP
|  2> %pal
|  3> nprocs 16
|  4> end
|  5>
|  6> * xyz 0 1
|  7> S 	 3.67711 	 -4.66207 	 69.9088
|  8> C 	 2.05868 	 -5.05304 	 69.7091
|  9> C 	 1.34247 	 -4.83654 	 70.8883
| 10> C 	 2.16957 	 -4.64252 	 72.0449
| 11> C 	 3.50933 	 -4.53371 	 71.6696
| 12> H 	 1.88009 	 -4.61118 	 73.1157
| 13> C 	 -0.119269 	 -4.95096 	 71.0504
| 14> H 	 -0.628604 	 -4.80537 	 70.1076
| 15> H 	 -0.478555 	 -4.18648 	 71.6852
| 16> C 	 -0.792001 	 -6.29383 	 71.4794
| 17> H 	 -0.336673 	 -6.65072 	 72.4986
| 18> H 	 -1.81706 	 -5.84782 	 71.7168
| 19> C 	 -0.954821 	 -7.37077 	 70.391
| 20> H 	 -1.48885 	 -8.21237 	 70.6793
| 21> H 	 -1.49322 	 -6.98503 	 69.5481
| 22> H 	 0.0172401 	 -7.72805 	 70.1139
| 23> S 	 5.03655 	 -5.63221 	 73.6786
| 24> C 	 6.49429 	 -4.96449 	 74.149
| 25> C 	 6.82683 	 -3.99899 	 73.2359
| 26> C 	 5.84515 	 -3.58751 	 72.3383
| 27> C 	 4.68847 	 -4.40319 	 72.4728
| 28> H 	 7.79597 	 -3.55597 	 73.3401
| 29> C 	 5.93637 	 -2.46179 	 71.2771
| 30> H 	 4.91213 	 -2.36906 	 70.9204
| 31> H 	 6.26498 	 -3.0361 	 70.428
| 32> C 	 6.69719 	 -1.2603 	 71.5169
| 33> H 	 6.81394 	 -0.639761 	 70.6165
| 34> H 	 7.66122 	 -1.59431 	 71.7924
| 35> C 	 6.14913 	 -0.309357 	 72.5675
| 36> H 	 6.09302 	 -0.516748 	 73.6255
| 37> H 	 5.16122 	 -0.0431464 	 72.2307
| 38> H 	 6.71217 	 0.571629 	 72.6528
| 39> H 	 1.50297 	 -5.26233 	 68.7987
| 40> H 	 7.32047 	 -5.31422 	 74.707
| 41> *
| 42>
| 43>                          ****END OF INPUT****

CARTESIAN COORDINATES (ANGSTROEM)
---------------------------------
  S      3.677110   -4.662070   69.908800
  C      2.058680   -5.053040   69.709100
  C      1.342470   -4.836540   70.888300
  C      2.169570   -4.642520   72.044900
  C      3.509330   -4.533710   71.669600
  H      1.880090   -4.611180   73.115700
  C     -0.119269   -4.950960   71.050400
  H     -0.628604   -4.805370   70.107600
  H     -0.478555   -4.186480   71.685200
  C     -0.792001   -6.293830   71.479400
  H     -0.336673   -6.650720   72.498600
  H     -1.817060   -5.847820   71.716800
  C     -0.954821   -7.370770   70.391000
  H     -1.488850   -8.212370   70.679300
  H     -1.493220   -6.985030   69.548100
  H      0.017240   -7.728050   70.113900
  S      5.036550   -5.632210   73.678600
  C      6.494290   -4.964490   74.149000
  C      6.826830   -3.998990   73.235900
  C      5.845150   -3.587510   72.338300
  C      4.688470   -4.403190   72.472800
  H      7.795970   -3.555970   73.340100
  C      5.936370   -2.461790   71.277100
  H      4.912130   -2.369060   70.920400
  H      6.264980   -3.036100   70.428000
  C      6.697190   -1.260300   71.516900
  H      6.813940   -0.639761   70.616500
  H      7.661220   -1.594310   71.792400
  C      6.149130   -0.309357   72.567500
  H      6.093020   -0.516748   73.625500
  H      5.161220   -0.043146   72.230700
  H      6.712170    0.571629   72.652800
  H      1.502970   -5.262330   68.798700
  H      7.320470   -5.314220   74.707000

 Total Charge           Charge          ....    0
 Multiplicity           Mult            ....    1
 Number of Electrons    NEL             ....  134
 Basis Dimension        Dim             ....  322

ORBITAL ENERGIES
----------------

  NO   OCC          E(Eh)            E(eV)
   0   2.0000     -88.968609     -2420.9589
   1   2.0000     -88.963907     -2420.8310
   2   2.0000     -10.329667      -281.0845
   3   2.0000     -10.322206      -280.8815
   4   2.0000     -10.311675      -280.5949
   5   2.0000     -10.303328      -280.3678
   6   2.0000     -10.301561      -280.3197
   7   2.0000     -10.300390      -280.2879
   8   2.0000     -10.300096      -280.2799
   9   2.0000     -10.298132      -280.2264
  10   2.0000     -10.283582      -279.8305
  11   2.0000     -10.283488      -279.8279
  12   2.0000     -10.281344      -279.7696
  13   2.0000     -10.280407      -279.7441
  14   2.0000     -10.271864      -279.5116
  15   2.0000     -10.264724      -279.3173
  16   2.0000      -8.083794      -219.9712
  17   2.0000      -8.079488      -219.8541
  18   2.0000      -6.042172      -164.4158
  19   2.0000      -6.038222      -164.3084
  20   2.0000      -6.037743      -164.2954
  21   2.0000      -6.034682      -164.2121
  22   2.0000      -6.033749      -164.1867
  23   2.0000      -6.030563      -164.1000
  24   2.0000      -1.012494       -27.5514
  25   2.0000      -0.992473       -27.0066
  26   2.0000      -0.920045       -25.0357
  27   2.0000      -0.910494       -24.7758
  28   2.0000      -0.874245       -23.7894
  29   2.0000      -0.854611       -23.2552
  30   2.0000      -0.848432       -23.0870
  31   2.0000      -0.816000       -22.2045
  32   2.0000      -0.792131       -21.5550
  33   2.0000      -0.779091       -21.2001
  34   2.0000      -0.713194       -19.4070
  35   2.0000      -0.707244       -19.2451
  36   2.0000      -0.691226       -18.8092
  37   2.0000      -0.651796       -17.7363
  38   2.0000      -0.636096       -17.3091
  39   2.0000      -0.618518       -16.8307
  40   2.0000      -0.597670       -16.2634
  41   2.0000      -0.575311       -15.6550
  42   2.0000      -0.560748       -15.2587
  43   2.0000      -0.551623       -15.0104
  44   2.0000      -0.550439       -14.9782
  45   2.0000      -0.537820       -14.6348
  46   2.0000      -0.522075       -14.2064
  47   2.0000      -0.510839       -13.9006
  48   2.0000      -0.506012       -13.7693
  49   2.0000      -0.496284       -13.5046
  50   2.0000      -0.492362       -13.3979
  51   2.0000      -0.482981       -13.1426
  52   2.0000      -0.472951       -12.8696
  53   2.0000      -0.467902       -12.7323
  54   2.0000      -0.465135       -12.6570
  55   2.0000      -0.450756       -12.2657
  56   2.0000      -0.444111       -12.0849
  57   2.0000      -0.435500       -11.8506
  58   2.0000      -0.432688       -11.7740
  59   2.0000      -0.420482       -11.4419
  60   2.0000      -0.414067       -11.2673
  61   2.0000      -0.410368       -11.1667
  62   2.0000      -0.409002       -11.1295
  63   2.0000      -0.349054        -9.4982
  64   2.0000      -0.330195        -8.9851
  65   2.0000      -0.324834        -8.8392
  66   2.0000      -0.286219        -7.7884
  67   0.0000       0.029589         0.8052
  68   0.0000       0.067054         1.8246
  69   0.0000       0.108374         2.9490
  70   0.0000       0.120920         3.2904
  71   0.0000       0.139007         3.7826

MULLIKEN ATOMIC CHARGES
-----------------------
   0 S :    0.122958
   1 C :   -0.092951
   2 C :   -0.094835
   3 C :    0.021328
   4 C :   -0.179333
   5 H :    0.035353
   6 C :    0.073428
   7 H :   -0.002528
   8 H :    0.019906
   9 C :   -0.132265
  10 H :    0.042644
  11 H :    0.033327
  12 C :    0.011454
  13 H :    0.021553
  14 H :    0.019154
  15 H :    0.030114
  16 S :    0.123174
  17 C :   -0.045435
  18 C :   -0.104849
  19 C :   -0.042377
  20 C :   -0.163360
  21 H :    0.005614
  22 C :    0.102160
  23 H :    0.003680
  24 H :    0.026266
  25 C :    0.002013
  26 H :    0.031936
  27 H :    0.011176
  28 C :   -0.030412
  29 H :    0.029038
  30 H :    0.019205
  31 H :    0.010356
  32 H :    0.047279
  33 H :    0.045231
Sum of atomic charges:   -0.0000000

LOEWDIN ATOMIC CHARGES
----------------------
   0 S :    0.437930
   1 C :   -0.221535
   2 C :   -0.069349
   3 C :   -0.054974
   4 C :   -0.191732
   5 H :    0.042886
   6 C :   -0.040896
   7 H :    0.026819
   8 H :    0.028428
   9 C :   -0.043068
  10 H :    0.028609
  11 H :    0.029473
  12 C :   -0.059708
  13 H :    0.021089
  14 H :    0.023961
  15 H :    0.025521
  16 S :    0.448212
  17 C :   -0.217918
  18 C :   -0.080641
  19 C :   -0.050432
  20 C :   -0.212230
  21 H :    0.023093
  22 C :   -0.041080
  23 H :    0.022029
  24 H :    0.035338
  25 C :   -0.038656
  26 H :    0.037261
  27 H :    0.019201
  28 C :   -0.064240
  29 H :    0.026601
  30 H :    0.024782
  31 H :    0.020155
  32 H :    0.033046
  33 H :    0.032027

  Mayer bond orders larger than 0.100000
B(  0-S ,  1-C ) :   1.1580 B(  0-S ,  4-C ) :   1.1449 B(  1-C ,  2-C ) :   1.5847
B(  1-C , 32-H ) :   0.9640 B(  2-C ,  3-C ) :   1.2283 B(  2-C ,  6-C ) :   1.0578
B(  3-C ,  4-C ) :   1.5570 B(  3-C ,  5-H ) :   0.9938 B(  4-C , 20-C ) :   1.0611
B(  6-C ,  7-H ) :   0.9296 B(  6-C ,  8-H ) :   0.9367 B(  6-C ,  9-C ) :   1.0564
B(  9-C , 10-H ) :   0.9561 B(  9-C , 11-H ) :   0.9567 B(  9-C , 12-C ) :   1.0745
B( 12-C , 13-H ) :   0.9724 B( 12-C , 14-H ) :   0.9690 B( 12-C , 15-H ) :   0.9746
B( 16-S , 17-C ) :   1.1789 B( 16-S , 20-C ) :   1.1701 B( 17-C , 18-C ) :   1.5674
B( 17-C , 20-C ) :   0.1112 B( 17-C , 33-H ) :   0.9629 B( 18-C , 19-C ) :   1.3105
B( 18-C , 21-H ) :   0.9851 B( 19-C , 20-C ) :   1.5027 B( 19-C , 22-C ) :   1.0156
B( 22-C , 23-H ) :   0.9156 B( 22-C , 24-H ) :   0.9172 B( 22-C , 25-C ) :   1.0917
B( 25-C , 26-H ) :   0.9418 B( 25-C , 27-H ) :   0.9443 B( 25-C , 28-C ) :   1.0839
B( 28-C , 29-H ) :   0.9747 B( 28-C , 30-H ) :   0.9724 B( 28-C , 31-H ) :   0.9704

Dispersion correction           -0.014088026
FINAL SINGLE POINT ENERGY     -1339.847702290298

DIPOLE MOMENT
-------------
                                X             Y             Z
Electronic contribution:     10.48799      -8.04320       2.78630
Nuclear contribution   :    -10.61572       8.21823      -2.96911
                        -----------------------------------------
Total Dipole Moment    :     -0.12773       0.17503      -0.18281
                        -----------------------------------------
Magnitude (a.u.)       :      0.28349
Magnitude (Debye)      :      0.72058

Rotational constants in cm-1:     0.024346     0.007333     0.006374
Rotational constants in MHz :   729.866436   219.835184   191.083808

                             ****ORCA TERMINATED NORMALLY****
TOTAL RUN TIME: 0 days 0 hours 0 minutes 32 seconds 535 msec
