                         Program Version 4.2.1 -  RELEASE  -
|  1> ! wB97X-D3 SP def2-SVP
|  2> %pal
|  3> nprocs 16
|  4> end
|  5>
|  6> * xyz 0 1
|  7> S 	 -67.8327 	 52.3314 	 135.074
|  8> C 	 -68.7136 	 53.8005 	 135.671
|  9> C 	 -69.9279 	 53.4579 	 136.24
| 10> C 	 -70.2481 	 52.0518 	 136.17
| 11> C 	 -69.2095 	 51.3355 	 135.496
| 12> H 	 -71.0942 	 51.5423 	 136.557
| 13> C 	 -70.8852 	 54.4577 	 136.969
| 14> H 	 -70.4342 	 55.3846 	 137.032
| 15> H 	 -71.0797 	 54.096 	 137.978
| 16> C 	 -72.2396 	 54.6254 	 136.236
| 17> H 	 -72.1047 	 54.9303 	 135.22
| 18> H 	 -72.6851 	 53.6017 	 136.191
| 19> C 	 -73.143 	 55.43 	 137.15
| 20> H 	 -73.2912 	 54.9141 	 138.126
| 21> H 	 -72.9173 	 56.4661 	 137.305
| 22> H 	 -74.098 	 55.3645 	 136.629
| 23> S 	 -68.1033 	 48.9338 	 136.325
| 24> C 	 -68.7989 	 47.4346 	 135.856
| 25> C 	 -69.8652 	 47.6552 	 135
| 26> C 	 -70.1326 	 49.0071 	 134.699
| 27> C 	 -69.3043 	 49.8721 	 135.407
| 28> H 	 -70.3271 	 46.8396 	 134.563
| 29> C 	 -71.1311 	 49.3708 	 133.633
| 30> H 	 -71.1039 	 48.6122 	 132.817
| 31> H 	 -70.5842 	 50.1712 	 133.164
| 32> C 	 -72.5073 	 49.8776 	 133.969
| 33> H 	 -72.3914 	 50.8435 	 134.415
| 34> H 	 -72.8125 	 49.1593 	 134.782
| 35> C 	 -73.5754 	 50.0342 	 132.871
| 36> H 	 -73.8957 	 49.0569 	 132.47
| 37> H 	 -73.1441 	 50.6407 	 132.042
| 38> H 	 -74.4702 	 50.4782 	 133.292
| 39> H 	 -68.1926 	 54.7341 	 135.595
| 40> H 	 -68.4616 	 46.4425 	 136.075
| 41> *
| 42>
| 43>                          ****END OF INPUT****

CARTESIAN COORDINATES (ANGSTROEM)
---------------------------------
  S    -67.832700   52.331400  135.074000
  C    -68.713600   53.800500  135.671000
  C    -69.927900   53.457900  136.240000
  C    -70.248100   52.051800  136.170000
  C    -69.209500   51.335500  135.496000
  H    -71.094200   51.542300  136.557000
  C    -70.885200   54.457700  136.969000
  H    -70.434200   55.384600  137.032000
  H    -71.079700   54.096000  137.978000
  C    -72.239600   54.625400  136.236000
  H    -72.104700   54.930300  135.220000
  H    -72.685100   53.601700  136.191000
  C    -73.143000   55.430000  137.150000
  H    -73.291200   54.914100  138.126000
  H    -72.917300   56.466100  137.305000
  H    -74.098000   55.364500  136.629000
  S    -68.103300   48.933800  136.325000
  C    -68.798900   47.434600  135.856000
  C    -69.865200   47.655200  135.000000
  C    -70.132600   49.007100  134.699000
  C    -69.304300   49.872100  135.407000
  H    -70.327100   46.839600  134.563000
  C    -71.131100   49.370800  133.633000
  H    -71.103900   48.612200  132.817000
  H    -70.584200   50.171200  133.164000
  C    -72.507300   49.877600  133.969000
  H    -72.391400   50.843500  134.415000
  H    -72.812500   49.159300  134.782000
  C    -73.575400   50.034200  132.871000
  H    -73.895700   49.056900  132.470000
  H    -73.144100   50.640700  132.042000
  H    -74.470200   50.478200  133.292000
  H    -68.192600   54.734100  135.595000
  H    -68.461600   46.442500  136.075000

 Total Charge           Charge          ....    0
 Multiplicity           Mult            ....    1
 Number of Electrons    NEL             ....  134
 Basis Dimension        Dim             ....  322

ORBITAL ENERGIES
----------------

  NO   OCC          E(Eh)            E(eV)
   0   2.0000     -88.970412     -2421.0080
   1   2.0000     -88.963035     -2420.8072
   2   2.0000     -10.335718      -281.2492
   3   2.0000     -10.327025      -281.0126
   4   2.0000     -10.320952      -280.8474
   5   2.0000     -10.311806      -280.5985
   6   2.0000     -10.308963      -280.5212
   7   2.0000     -10.300866      -280.3008
   8   2.0000     -10.299526      -280.2644
   9   2.0000     -10.288625      -279.9677
  10   2.0000     -10.288060      -279.9524
  11   2.0000     -10.285236      -279.8755
  12   2.0000     -10.284392      -279.8525
  13   2.0000     -10.283649      -279.8323
  14   2.0000     -10.281892      -279.7845
  15   2.0000     -10.279543      -279.7206
  16   2.0000      -8.084023      -219.9774
  17   2.0000      -8.077860      -219.8097
  18   2.0000      -6.042541      -164.4259
  19   2.0000      -6.038771      -164.3233
  20   2.0000      -6.036310      -164.2563
  21   2.0000      -6.034760      -164.2142
  22   2.0000      -6.032229      -164.1453
  23   2.0000      -6.028800      -164.0520
  24   2.0000      -1.001254       -27.2455
  25   2.0000      -0.977274       -26.5930
  26   2.0000      -0.912368       -24.8268
  27   2.0000      -0.909389       -24.7457
  28   2.0000      -0.866705       -23.5843
  29   2.0000      -0.852229       -23.1903
  30   2.0000      -0.845945       -23.0193
  31   2.0000      -0.809935       -22.0395
  32   2.0000      -0.783194       -21.3118
  33   2.0000      -0.772993       -21.0342
  34   2.0000      -0.707025       -19.2391
  35   2.0000      -0.699621       -19.0377
  36   2.0000      -0.690448       -18.7880
  37   2.0000      -0.662485       -18.0271
  38   2.0000      -0.648107       -17.6359
  39   2.0000      -0.616694       -16.7811
  40   2.0000      -0.592621       -16.1260
  41   2.0000      -0.574477       -15.6323
  42   2.0000      -0.565126       -15.3778
  43   2.0000      -0.557971       -15.1832
  44   2.0000      -0.526133       -14.3168
  45   2.0000      -0.522965       -14.2306
  46   2.0000      -0.518671       -14.1137
  47   2.0000      -0.515761       -14.0346
  48   2.0000      -0.507761       -13.8169
  49   2.0000      -0.498639       -13.5687
  50   2.0000      -0.494455       -13.4548
  51   2.0000      -0.478193       -13.0123
  52   2.0000      -0.471717       -12.8361
  53   2.0000      -0.466512       -12.6944
  54   2.0000      -0.459303       -12.4983
  55   2.0000      -0.451784       -12.2937
  56   2.0000      -0.449723       -12.2376
  57   2.0000      -0.439563       -11.9611
  58   2.0000      -0.431480       -11.7412
  59   2.0000      -0.426266       -11.5993
  60   2.0000      -0.417427       -11.3588
  61   2.0000      -0.408843       -11.1252
  62   2.0000      -0.404259       -11.0004
  63   2.0000      -0.335332        -9.1249
  64   2.0000      -0.332741        -9.0543
  65   2.0000      -0.328586        -8.9413
  66   2.0000      -0.296819        -8.0769
  67   0.0000       0.030745         0.8366
  68   0.0000       0.062769         1.7080
  69   0.0000       0.108417         2.9502
  70   0.0000       0.123678         3.3655
  71   0.0000       0.127617         3.4726

MULLIKEN ATOMIC CHARGES
-----------------------
   0 S :    0.105744
   1 C :   -0.143859
   2 C :   -0.046211
   3 C :    0.033528
   4 C :   -0.154798
   5 H :    0.018359
   6 C :    0.101859
   7 H :   -0.003296
   8 H :    0.028720
   9 C :   -0.103962
  10 H :    0.034002
  11 H :    0.029788
  12 C :   -0.032454
  13 H :    0.035285
  14 H :    0.036534
  15 H :    0.029337
  16 S :    0.108378
  17 C :   -0.076245
  18 C :   -0.025726
  19 C :   -0.021593
  20 C :   -0.191192
  21 H :   -0.014479
  22 C :    0.068237
  23 H :    0.021786
  24 H :    0.015831
  25 C :   -0.073386
  26 H :    0.021933
  27 H :    0.027886
  28 C :   -0.037576
  29 H :    0.030180
  30 H :    0.041445
  31 H :    0.038037
  32 H :    0.050110
  33 H :    0.047797
Sum of atomic charges:   -0.0000000

LOEWDIN ATOMIC CHARGES
----------------------
   0 S :    0.383015
   1 C :   -0.177781
   2 C :   -0.054645
   3 C :   -0.050558
   4 C :   -0.197258
   5 H :    0.027602
   6 C :   -0.019360
   7 H :    0.014660
   8 H :    0.031215
   9 C :   -0.037462
  10 H :    0.022248
  11 H :    0.026897
  12 C :   -0.065206
  13 H :    0.031729
  14 H :    0.020770
  15 H :    0.028753
  16 S :    0.410098
  17 C :   -0.192339
  18 C :   -0.068142
  19 C :   -0.055623
  20 C :   -0.192145
  21 H :    0.017629
  22 C :   -0.041722
  23 H :    0.033086
  24 H :    0.031455
  25 C :   -0.047342
  26 H :    0.019762
  27 H :    0.026521
  28 C :   -0.062718
  29 H :    0.024807
  30 H :    0.031277
  31 H :    0.028672
  32 H :    0.023794
  33 H :    0.028312

  Mayer bond orders larger than 0.100000
B(  0-S ,  1-C ) :   1.1152 B(  0-S ,  4-C ) :   1.1622 B(  1-C ,  2-C ) :   1.6119
B(  1-C , 32-H ) :   0.9773 B(  2-C ,  3-C ) :   1.2225 B(  2-C ,  6-C ) :   1.0182
B(  3-C ,  4-C ) :   1.5554 B(  3-C ,  5-H ) :   0.9924 B(  4-C , 20-C ) :   1.0376
B(  6-C ,  7-H ) :   0.9425 B(  6-C ,  8-H ) :   0.9436 B(  6-C ,  9-C ) :   1.0596
B(  9-C , 10-H ) :   0.9589 B(  9-C , 11-H ) :   0.9568 B(  9-C , 12-C ) :   1.0779
B( 12-C , 13-H ) :   0.9709 B( 12-C , 14-H ) :   0.9769 B( 12-C , 15-H ) :   0.9724
B( 16-S , 17-C ) :   1.1647 B( 16-S , 20-C ) :   1.1463 B( 17-C , 18-C ) :   1.5883
B( 17-C , 20-C ) :   0.1021 B( 17-C , 33-H ) :   0.9696 B( 18-C , 19-C ) :   1.2585
B( 18-C , 21-H ) :   1.0010 B( 19-C , 20-C ) :   1.5852 B( 19-C , 22-C ) :   1.0310
B( 22-C , 23-H ) :   0.9403 B( 22-C , 24-H ) :   0.9172 B( 22-C , 25-C ) :   1.0590
B( 25-C , 26-H ) :   0.9470 B( 25-C , 27-H ) :   0.9583 B( 25-C , 28-C ) :   1.0856
B( 28-C , 29-H ) :   0.9746 B( 28-C , 30-H ) :   0.9736 B( 28-C , 31-H ) :   0.9728

Dispersion correction           -0.014118897
FINAL SINGLE POINT ENERGY     -1339.872588784234

DIPOLE MOMENT
-------------
                                X             Y             Z
Electronic contribution:     29.27376     -11.12536       3.64237
Nuclear contribution   :    -29.85951      11.34272      -3.68503
                        -----------------------------------------
Total Dipole Moment    :     -0.58574       0.21736      -0.04266
                        -----------------------------------------
Magnitude (a.u.)       :      0.62623
Magnitude (Debye)      :      1.59175

Rotational constants in cm-1:     0.016340     0.009109     0.006721
Rotational constants in MHz :   489.866792   273.081124   201.488783

                             ****ORCA TERMINATED NORMALLY****
TOTAL RUN TIME: 0 days 0 hours 0 minutes 34 seconds 587 msec
