                         Program Version 4.2.1 -  RELEASE  -
|  1> ! wB97X-D3 SP def2-SVP
|  2> %pal
|  3> nprocs 16
|  4> end
|  5>
|  6> * xyz 0 1
|  7> S 	 -0.718654 	 -23.8375 	 86.4917
|  8> C 	 0.611761 	 -23.8541 	 85.3509
|  9> C 	 1.686 	 -23.122 	 85.7732
| 10> C 	 1.37791 	 -22.4145 	 86.9647
| 11> C 	 0.0784738 	 -22.6158 	 87.5065
| 12> H 	 1.88061 	 -21.7152 	 87.5362
| 13> C 	 3.0723 	 -22.9782 	 85.1006
| 14> H 	 3.05983 	 -21.9879 	 84.6624
| 15> H 	 3.14392 	 -23.5918 	 84.2616
| 16> C 	 4.25549 	 -23.0978 	 86.0264
| 17> H 	 5.2104 	 -23.255 	 85.465
| 18> H 	 4.431 	 -22.141 	 86.5321
| 19> C 	 4.03537 	 -24.2759 	 87.0491
| 20> H 	 3.03597 	 -24.2226 	 87.4277
| 21> H 	 4.34052 	 -25.1815 	 86.4917
| 22> H 	 4.777 	 -24.1846 	 87.8613
| 23> S 	 -1.18008 	 -23.3234 	 89.773
| 24> C 	 -1.34323 	 -22.0406 	 90.9896
| 25> C 	 -1.06172 	 -20.7675 	 90.5441
| 26> C 	 -0.633189 	 -20.8144 	 89.2179
| 27> C 	 -0.562951 	 -22.0875 	 88.7085
| 28> H 	 -1.10425 	 -19.8181 	 91.1588
| 29> C 	 -0.135507 	 -19.6274 	 88.4605
| 30> H 	 0.150079 	 -19.9062 	 87.4427
| 31> H 	 0.861364 	 -19.4083 	 88.9492
| 32> C 	 -1.06241 	 -18.457 	 88.3017
| 33> H 	 -0.482338 	 -17.6651 	 87.8163
| 34> H 	 -1.20445 	 -17.986 	 89.3035
| 35> C 	 -2.31858 	 -18.6932 	 87.4605
| 36> H 	 -2.84307 	 -17.7753 	 87.4442
| 37> H 	 -2.82036 	 -19.5161 	 87.9583
| 38> H 	 -2.04695 	 -18.9814 	 86.4432
| 39> H 	 0.826275 	 -24.4315 	 84.4865
| 40> H 	 -1.76616 	 -22.157 	 91.9882
| 41> *
| 42>
| 43>                          ****END OF INPUT****

CARTESIAN COORDINATES (ANGSTROEM)
---------------------------------
  S     -0.718654  -23.837500   86.491700
  C      0.611761  -23.854100   85.350900
  C      1.686000  -23.122000   85.773200
  C      1.377910  -22.414500   86.964700
  C      0.078474  -22.615800   87.506500
  H      1.880610  -21.715200   87.536200
  C      3.072300  -22.978200   85.100600
  H      3.059830  -21.987900   84.662400
  H      3.143920  -23.591800   84.261600
  C      4.255490  -23.097800   86.026400
  H      5.210400  -23.255000   85.465000
  H      4.431000  -22.141000   86.532100
  C      4.035370  -24.275900   87.049100
  H      3.035970  -24.222600   87.427700
  H      4.340520  -25.181500   86.491700
  H      4.777000  -24.184600   87.861300
  S     -1.180080  -23.323400   89.773000
  C     -1.343230  -22.040600   90.989600
  C     -1.061720  -20.767500   90.544100
  C     -0.633189  -20.814400   89.217900
  C     -0.562951  -22.087500   88.708500
  H     -1.104250  -19.818100   91.158800
  C     -0.135507  -19.627400   88.460500
  H      0.150079  -19.906200   87.442700
  H      0.861364  -19.408300   88.949200
  C     -1.062410  -18.457000   88.301700
  H     -0.482338  -17.665100   87.816300
  H     -1.204450  -17.986000   89.303500
  C     -2.318580  -18.693200   87.460500
  H     -2.843070  -17.775300   87.444200
  H     -2.820360  -19.516100   87.958300
  H     -2.046950  -18.981400   86.443200
  H      0.826275  -24.431500   84.486500
  H     -1.766160  -22.157000   91.988200

 Total Charge           Charge          ....    0
 Multiplicity           Mult            ....    1
 Number of Electrons    NEL             ....  134
 Basis Dimension        Dim             ....  322

ORBITAL ENERGIES
----------------

  NO   OCC          E(Eh)            E(eV)
   0   2.0000     -88.971358     -2421.0337
   1   2.0000     -88.966445     -2420.9000
   2   2.0000     -10.333388      -281.1858
   3   2.0000     -10.324523      -280.9445
   4   2.0000     -10.321792      -280.8702
   5   2.0000     -10.309014      -280.5225
   6   2.0000     -10.300978      -280.3039
   7   2.0000     -10.299246      -280.2567
   8   2.0000     -10.298445      -280.2349
   9   2.0000     -10.290476      -280.0181
  10   2.0000     -10.289548      -279.9928
  11   2.0000     -10.288714      -279.9701
  12   2.0000     -10.287538      -279.9381
  13   2.0000     -10.285329      -279.8780
  14   2.0000     -10.274171      -279.5744
  15   2.0000     -10.273568      -279.5580
  16   2.0000      -8.085846      -220.0270
  17   2.0000      -8.080385      -219.8785
  18   2.0000      -6.044294      -164.4736
  19   2.0000      -6.040625      -164.3738
  20   2.0000      -6.039044      -164.3307
  21   2.0000      -6.036430      -164.2596
  22   2.0000      -6.034919      -164.2185
  23   2.0000      -6.031135      -164.1155
  24   2.0000      -1.009505       -27.4700
  25   2.0000      -0.984509       -26.7898
  26   2.0000      -0.915341       -24.9077
  27   2.0000      -0.911000       -24.7896
  28   2.0000      -0.870603       -23.6903
  29   2.0000      -0.855313       -23.2743
  30   2.0000      -0.837156       -22.7802
  31   2.0000      -0.815155       -22.1815
  32   2.0000      -0.786843       -21.4111
  33   2.0000      -0.776510       -21.1299
  34   2.0000      -0.709244       -19.2995
  35   2.0000      -0.695685       -18.9306
  36   2.0000      -0.692838       -18.8531
  37   2.0000      -0.661990       -18.0137
  38   2.0000      -0.644220       -17.5301
  39   2.0000      -0.616724       -16.7819
  40   2.0000      -0.596405       -16.2290
  41   2.0000      -0.563686       -15.3387
  42   2.0000      -0.562935       -15.3182
  43   2.0000      -0.553877       -15.0718
  44   2.0000      -0.544000       -14.8030
  45   2.0000      -0.540496       -14.7076
  46   2.0000      -0.513508       -13.9733
  47   2.0000      -0.505761       -13.7625
  48   2.0000      -0.502370       -13.6702
  49   2.0000      -0.492618       -13.4048
  50   2.0000      -0.489168       -13.3109
  51   2.0000      -0.473269       -12.8783
  52   2.0000      -0.471933       -12.8419
  53   2.0000      -0.468689       -12.7537
  54   2.0000      -0.461049       -12.5458
  55   2.0000      -0.457895       -12.4600
  56   2.0000      -0.446946       -12.1620
  57   2.0000      -0.440088       -11.9754
  58   2.0000      -0.427150       -11.6233
  59   2.0000      -0.418454       -11.3867
  60   2.0000      -0.417259       -11.3542
  61   2.0000      -0.415870       -11.3164
  62   2.0000      -0.408761       -11.1230
  63   2.0000      -0.350192        -9.5292
  64   2.0000      -0.334557        -9.1038
  65   2.0000      -0.329598        -8.9688
  66   2.0000      -0.289111        -7.8671
  67   0.0000       0.027989         0.7616
  68   0.0000       0.066075         1.7980
  69   0.0000       0.100224         2.7272
  70   0.0000       0.122653         3.3376
  71   0.0000       0.133482         3.6322

MULLIKEN ATOMIC CHARGES
-----------------------
   0 S :    0.102296
   1 C :   -0.069397
   2 C :   -0.156848
   3 C :    0.061060
   4 C :   -0.182855
   5 H :   -0.025622
   6 C :    0.161298
   7 H :    0.032491
   8 H :   -0.006885
   9 C :   -0.121327
  10 H :    0.035267
  11 H :    0.028940
  12 C :   -0.051602
  13 H :    0.066112
  14 H :    0.036512
  15 H :    0.030361
  16 S :    0.120940
  17 C :   -0.084247
  18 C :   -0.061305
  19 C :   -0.035846
  20 C :   -0.155190
  21 H :    0.046594
  22 C :    0.031150
  23 H :    0.018542
  24 H :    0.045702
  25 C :   -0.090400
  26 H :    0.018299
  27 H :    0.019543
  28 C :   -0.003852
  29 H :    0.035093
  30 H :    0.045214
  31 H :    0.033646
  32 H :    0.021858
  33 H :    0.054460
Sum of atomic charges:   -0.0000000

LOEWDIN ATOMIC CHARGES
----------------------
   0 S :    0.388692
   1 C :   -0.197947
   2 C :   -0.063697
   3 C :   -0.061634
   4 C :   -0.182518
   5 H :    0.015645
   6 C :   -0.025537
   7 H :    0.037042
   8 H :    0.017779
   9 C :   -0.046904
  10 H :    0.030232
  11 H :    0.019859
  12 C :   -0.062362
  13 H :    0.026530
  14 H :    0.029746
  15 H :    0.025882
  16 S :    0.404474
  17 C :   -0.171514
  18 C :   -0.073873
  19 C :   -0.062457
  20 C :   -0.205010
  21 H :    0.047460
  22 C :   -0.041072
  23 H :    0.028510
  24 H :    0.040686
  25 C :   -0.049177
  26 H :    0.024131
  27 H :    0.020295
  28 C :   -0.051770
  29 H :    0.024791
  30 H :    0.029497
  31 H :    0.029292
  32 H :    0.026324
  33 H :    0.028603

  Mayer bond orders larger than 0.100000
B(  0-S ,  1-C ) :   1.1292 B(  0-S ,  4-C ) :   1.1407 B(  1-C ,  2-C ) :   1.6506
B(  1-C ,  4-C ) :   0.1019 B(  1-C , 32-H ) :   0.9569 B(  2-C ,  3-C ) :   1.2047
B(  2-C ,  6-C ) :   1.0091 B(  3-C ,  4-C ) :   1.5745 B(  3-C ,  5-H ) :   1.0084
B(  4-C , 20-C ) :   1.0342 B(  6-C ,  7-H ) :   0.9342 B(  6-C ,  8-H ) :   0.9333
B(  6-C ,  9-C ) :   1.0669 B(  9-C , 10-H ) :   0.9586 B(  9-C , 11-H ) :   0.9530
B(  9-C , 12-C ) :   1.0746 B( 12-C , 13-H ) :   0.9689 B( 12-C , 14-H ) :   0.9781
B( 12-C , 15-H ) :   0.9758 B( 16-S , 17-C ) :   1.1494 B( 16-S , 20-C ) :   1.1318
B( 17-C , 18-C ) :   1.6218 B( 17-C , 20-C ) :   0.1000 B( 17-C , 33-H ) :   0.9619
B( 18-C , 19-C ) :   1.2364 B( 18-C , 21-H ) :   0.9798 B( 19-C , 20-C ) :   1.6060
B( 19-C , 22-C ) :   1.0440 B( 22-C , 23-H ) :   0.9287 B( 22-C , 24-H ) :   0.9287
B( 22-C , 25-C ) :   1.0836 B( 25-C , 26-H ) :   0.9479 B( 25-C , 27-H ) :   0.9522
B( 25-C , 28-C ) :   1.0649 B( 28-C , 29-H ) :   0.9722 B( 28-C , 30-H ) :   0.9779
B( 28-C , 31-H ) :   0.9708

Dispersion correction           -0.014942664
FINAL SINGLE POINT ENERGY     -1339.863827758771

DIPOLE MOMENT
-------------
                                X             Y             Z
Electronic contribution:    -14.14266     -14.28861       6.29666
Nuclear contribution   :     14.61802      14.86679      -6.28416
                        -----------------------------------------
Total Dipole Moment    :      0.47535       0.57818       0.01250
                        -----------------------------------------
Magnitude (a.u.)       :      0.74860
Magnitude (Debye)      :      1.90280

Rotational constants in cm-1:     0.019352     0.008662     0.007797
Rotational constants in MHz :   580.170692   259.674939   233.737381

                             ****ORCA TERMINATED NORMALLY****
TOTAL RUN TIME: 0 days 0 hours 0 minutes 35 seconds 616 msec
