                         Program Version 4.2.1 -  RELEASE  -
|  1> ! wB97X-D3 SP def2-SVP
|  2> %pal
|  3> nprocs 16
|  4> end
|  5>
|  6> * xyz 0 1
|  7> S 	 -0.493535 	 -5.88584 	 77.0543
|  8> C 	 -0.438396 	 -6.31719 	 78.7504
|  9> C 	 0.622453 	 -5.74875 	 79.3376
| 10> C 	 1.50259 	 -4.97018 	 78.5029
| 11> C 	 0.954685 	 -4.89121 	 77.246
| 12> H 	 2.34768 	 -4.34406 	 78.7042
| 13> C 	 0.984093 	 -6.00004 	 80.8112
| 14> H 	 0.0380531 	 -6.07074 	 81.3948
| 15> H 	 1.44257 	 -5.2059 	 81.2903
| 16> C 	 1.88041 	 -7.21187 	 81.0409
| 17> H 	 1.7109 	 -7.51972 	 82.0973
| 18> H 	 1.62961 	 -8.08668 	 80.4402
| 19> C 	 3.41116 	 -6.98535 	 80.8317
| 20> H 	 4.074 	 -7.83239 	 81.0375
| 21> H 	 3.66373 	 -6.82899 	 79.7789
| 22> H 	 3.78265 	 -6.22985 	 81.4498
| 23> S 	 2.11185 	 -5.01606 	 74.7073
| 24> C 	 3.16751 	 -3.72208 	 74.1756
| 25> C 	 3.09507 	 -2.6845 	 75.0486
| 26> C 	 2.25157 	 -2.91851 	 76.1338
| 27> C 	 1.61089 	 -4.1468 	 76.1445
| 28> H 	 3.63512 	 -1.82791 	 74.8105
| 29> C 	 2.04209 	 -1.88972 	 77.2359
| 30> H 	 2.64247 	 -0.995627 	 77.02
| 31> H 	 2.42388 	 -2.27679 	 78.2272
| 32> C 	 0.540425 	 -1.42711 	 77.4911
| 33> H 	 -0.0327342 	 -2.23527 	 77.8317
| 34> H 	 0.0709245 	 -1.15072 	 76.5582
| 35> C 	 0.327878 	 -0.372799 	 78.5887
| 36> H 	 0.189301 	 0.520791 	 78.0525
| 37> H 	 1.22514 	 -0.178922 	 79.2314
| 38> H 	 -0.549485 	 -0.744534 	 79.178
| 39> H 	 -1.18864 	 -6.96905 	 79.2879
| 40> H 	 3.78937 	 -3.83455 	 73.3557
| 41> *
| 42>
| 43>                          ****END OF INPUT****

CARTESIAN COORDINATES (ANGSTROEM)
---------------------------------
  S     -0.493535   -5.885840   77.054300
  C     -0.438396   -6.317190   78.750400
  C      0.622453   -5.748750   79.337600
  C      1.502590   -4.970180   78.502900
  C      0.954685   -4.891210   77.246000
  H      2.347680   -4.344060   78.704200
  C      0.984093   -6.000040   80.811200
  H      0.038053   -6.070740   81.394800
  H      1.442570   -5.205900   81.290300
  C      1.880410   -7.211870   81.040900
  H      1.710900   -7.519720   82.097300
  H      1.629610   -8.086680   80.440200
  C      3.411160   -6.985350   80.831700
  H      4.074000   -7.832390   81.037500
  H      3.663730   -6.828990   79.778900
  H      3.782650   -6.229850   81.449800
  S      2.111850   -5.016060   74.707300
  C      3.167510   -3.722080   74.175600
  C      3.095070   -2.684500   75.048600
  C      2.251570   -2.918510   76.133800
  C      1.610890   -4.146800   76.144500
  H      3.635120   -1.827910   74.810500
  C      2.042090   -1.889720   77.235900
  H      2.642470   -0.995627   77.020000
  H      2.423880   -2.276790   78.227200
  C      0.540425   -1.427110   77.491100
  H     -0.032734   -2.235270   77.831700
  H      0.070925   -1.150720   76.558200
  C      0.327878   -0.372799   78.588700
  H      0.189301    0.520791   78.052500
  H      1.225140   -0.178922   79.231400
  H     -0.549485   -0.744534   79.178000
  H     -1.188640   -6.969050   79.287900
  H      3.789370   -3.834550   73.355700

 Total Charge           Charge          ....    0
 Multiplicity           Mult            ....    1
 Number of Electrons    NEL             ....  134
 Basis Dimension        Dim             ....  322

ORBITAL ENERGIES
----------------

  NO   OCC          E(Eh)            E(eV)
   0   2.0000     -88.967295     -2420.9232
   1   2.0000     -88.961566     -2420.7673
   2   2.0000     -10.333217      -281.1811
   3   2.0000     -10.326165      -280.9892
   4   2.0000     -10.315263      -280.6926
   5   2.0000     -10.312348      -280.6133
   6   2.0000     -10.300461      -280.2898
   7   2.0000     -10.299823      -280.2724
   8   2.0000     -10.297639      -280.2130
   9   2.0000     -10.294052      -280.1154
  10   2.0000     -10.288142      -279.9546
  11   2.0000     -10.287611      -279.9401
  12   2.0000     -10.286757      -279.9169
  13   2.0000     -10.276447      -279.6363
  14   2.0000     -10.276053      -279.6256
  15   2.0000     -10.272662      -279.5333
  16   2.0000      -8.081766      -219.9160
  17   2.0000      -8.076651      -219.7768
  18   2.0000      -6.040353      -164.3664
  19   2.0000      -6.036409      -164.2591
  20   2.0000      -6.035026      -164.2214
  21   2.0000      -6.032359      -164.1488
  22   2.0000      -6.030973      -164.1111
  23   2.0000      -6.027659      -164.0209
  24   2.0000      -1.009280       -27.4639
  25   2.0000      -0.989293       -26.9200
  26   2.0000      -0.907508       -24.6945
  27   2.0000      -0.899295       -24.4711
  28   2.0000      -0.872177       -23.7331
  29   2.0000      -0.852360       -23.1939
  30   2.0000      -0.843515       -22.9532
  31   2.0000      -0.820537       -22.3279
  32   2.0000      -0.783503       -21.3202
  33   2.0000      -0.769837       -20.9483
  34   2.0000      -0.706592       -19.2273
  35   2.0000      -0.699888       -19.0449
  36   2.0000      -0.690047       -18.7771
  37   2.0000      -0.668998       -18.2043
  38   2.0000      -0.644340       -17.5334
  39   2.0000      -0.616031       -16.7631
  40   2.0000      -0.596956       -16.2440
  41   2.0000      -0.579498       -15.7690
  42   2.0000      -0.564405       -15.3582
  43   2.0000      -0.542323       -14.7573
  44   2.0000      -0.537508       -14.6263
  45   2.0000      -0.525015       -14.2864
  46   2.0000      -0.519600       -14.1390
  47   2.0000      -0.511630       -13.9222
  48   2.0000      -0.503683       -13.7059
  49   2.0000      -0.498642       -13.5687
  50   2.0000      -0.491480       -13.3739
  51   2.0000      -0.486472       -13.2376
  52   2.0000      -0.473342       -12.8803
  53   2.0000      -0.465360       -12.6631
  54   2.0000      -0.459214       -12.4959
  55   2.0000      -0.445773       -12.1301
  56   2.0000      -0.440199       -11.9784
  57   2.0000      -0.438478       -11.9316
  58   2.0000      -0.425105       -11.5677
  59   2.0000      -0.421517       -11.4700
  60   2.0000      -0.419721       -11.4212
  61   2.0000      -0.410392       -11.1673
  62   2.0000      -0.407313       -11.0835
  63   2.0000      -0.351574        -9.5668
  64   2.0000      -0.333646        -9.0790
  65   2.0000      -0.329189        -8.9577
  66   2.0000      -0.296163        -8.0590
  67   0.0000       0.030639         0.8337
  68   0.0000       0.070283         1.9125
  69   0.0000       0.114684         3.1207
  70   0.0000       0.124383         3.3846
  71   0.0000       0.140192         3.8148

MULLIKEN ATOMIC CHARGES
-----------------------
   0 S :    0.106188
   1 C :   -0.137578
   2 C :   -0.075034
   3 C :    0.043425
   4 C :   -0.156061
   5 H :    0.013779
   6 C :    0.093383
   7 H :    0.022035
   8 H :   -0.004507
   9 C :   -0.067615
  10 H :    0.029837
  11 H :    0.028764
  12 C :   -0.051589
  13 H :    0.027013
  14 H :    0.035558
  15 H :    0.016191
  16 S :    0.089746
  17 C :   -0.073545
  18 C :   -0.006068
  19 C :   -0.034880
  20 C :   -0.123064
  21 H :   -0.005972
  22 C :    0.037848
  23 H :    0.016395
  24 H :    0.030102
  25 C :   -0.066017
  26 H :    0.021271
  27 H :    0.027492
  28 C :   -0.056592
  29 H :    0.028381
  30 H :    0.035568
  31 H :    0.050712
  32 H :    0.070269
  33 H :    0.034564
Sum of atomic charges:    0.0000000

LOEWDIN ATOMIC CHARGES
----------------------
   0 S :    0.390549
   1 C :   -0.204421
   2 C :   -0.062967
   3 C :   -0.056703
   4 C :   -0.178003
   5 H :    0.033263
   6 C :   -0.029727
   7 H :    0.034156
   8 H :    0.017712
   9 C :   -0.038078
  10 H :    0.027027
  11 H :    0.023732
  12 C :   -0.069884
  13 H :    0.029807
  14 H :    0.027741
  15 H :    0.013233
  16 S :    0.404573
  17 C :   -0.162348
  18 C :   -0.067278
  19 C :   -0.064603
  20 C :   -0.197214
  21 H :    0.025091
  22 C :   -0.032747
  23 H :    0.025476
  24 H :    0.030118
  25 C :   -0.037953
  26 H :    0.015924
  27 H :    0.022138
  28 C :   -0.067998
  29 H :    0.020277
  30 H :    0.029167
  31 H :    0.037784
  32 H :    0.046099
  33 H :    0.016057

  Mayer bond orders larger than 0.100000
B(  0-S ,  1-C ) :   1.1057 B(  0-S ,  4-C ) :   1.1477 B(  1-C ,  2-C ) :   1.6691
B(  1-C , 32-H ) :   0.9600 B(  2-C ,  3-C ) :   1.1895 B(  2-C ,  6-C ) :   1.0283
B(  3-C ,  4-C ) :   1.5994 B(  3-C ,  5-H ) :   0.9964 B(  4-C , 20-C ) :   1.0149
B(  6-C ,  7-H ) :   0.9420 B(  6-C ,  8-H ) :   0.9374 B(  6-C ,  9-C ) :   1.0599
B(  9-C , 10-H ) :   0.9556 B(  9-C , 11-H ) :   0.9599 B(  9-C , 12-C ) :   1.0798
B( 12-C , 13-H ) :   0.9725 B( 12-C , 14-H ) :   0.9736 B( 12-C , 15-H ) :   0.9768
B( 16-S , 17-C ) :   1.1756 B( 16-S , 20-C ) :   1.1462 B( 17-C , 18-C ) :   1.5696
B( 17-C , 33-H ) :   0.9786 B( 18-C , 19-C ) :   1.2648 B( 18-C , 21-H ) :   1.0117
B( 19-C , 20-C ) :   1.5729 B( 19-C , 22-C ) :   1.0424 B( 22-C , 23-H ) :   0.9408
B( 22-C , 24-H ) :   0.9308 B( 22-C , 25-C ) :   1.0557 B( 25-C , 26-H ) :   0.9633
B( 25-C , 27-H ) :   0.9623 B( 25-C , 28-C ) :   1.0626 B( 28-C , 29-H ) :   0.9798
B( 28-C , 30-H ) :   0.9766 B( 28-C , 31-H ) :   0.9819

Dispersion correction           -0.014791065
FINAL SINGLE POINT ENERGY     -1339.867484838534

DIPOLE MOMENT
-------------
                                X             Y             Z
Electronic contribution:     -5.31299      -8.86943     -23.01390
Nuclear contribution   :      5.63810       9.15352      23.49427
                        -----------------------------------------
Total Dipole Moment    :      0.32511       0.28409       0.48037
                        -----------------------------------------
Magnitude (a.u.)       :      0.64588
Magnitude (Debye)      :      1.64169

Rotational constants in cm-1:     0.016647     0.009188     0.007942
Rotational constants in MHz :   499.060483   275.448285   238.101398

                             ****ORCA TERMINATED NORMALLY****
TOTAL RUN TIME: 0 days 0 hours 0 minutes 35 seconds 617 msec
