                         Program Version 4.2.1 -  RELEASE  -
|  1> ! wB97X-D3 SP def2-SVP
|  2> %pal
|  3> nprocs 16
|  4> end
|  5>
|  6> * xyz 0 1
|  7> S 	 12.8318 	 -5.38197 	 93.3034
|  8> C 	 12.0363 	 -3.86945 	 93.67
|  9> C 	 10.6839 	 -4.14404 	 93.6567
| 10> C 	 10.2816 	 -5.475 	 93.3165
| 11> C 	 11.3154 	 -6.27507 	 92.8763
| 12> H 	 9.34898 	 -6.01145 	 93.328
| 13> C 	 9.68135 	 -3.14568 	 94.1078
| 14> H 	 9.6735 	 -2.36327 	 93.3548
| 15> H 	 10.0028 	 -2.68618 	 95.0656
| 16> C 	 8.27998 	 -3.6742 	 94.3349
| 17> H 	 7.55942 	 -2.83705 	 94.506
| 18> H 	 7.9117 	 -4.04566 	 93.3001
| 19> C 	 7.95233 	 -4.73476 	 95.4655
| 20> H 	 8.59887 	 -5.66303 	 95.3917
| 21> H 	 8.11358 	 -4.32143 	 96.4859
| 22> H 	 6.96193 	 -5.09023 	 95.3202
| 23> S 	 12.8965 	 -8.53216 	 92.2804
| 24> C 	 12.226 	 -10.1395 	 92.0207
| 25> C 	 10.8711 	 -9.96738 	 91.8427
| 26> C 	 10.3614 	 -8.67635 	 92.1572
| 27> C 	 11.3191 	 -7.72514 	 92.5445
| 28> H 	 10.3239 	 -10.8037 	 91.4156
| 29> C 	 8.92209 	 -8.46407 	 91.9584
| 30> H 	 8.546 	 -9.08367 	 91.1163
| 31> H 	 8.60942 	 -7.48763 	 91.664
| 32> C 	 8.10461 	 -8.87223 	 93.1786
| 33> H 	 8.55423 	 -8.45662 	 94.1003
| 34> H 	 7.97932 	 -9.90633 	 93.4264
| 35> C 	 6.69849 	 -8.34701 	 93.0625
| 36> H 	 6.10078 	 -8.6239 	 93.8803
| 37> H 	 6.17665 	 -8.62674 	 92.1388
| 38> H 	 6.78033 	 -7.26952 	 93.0748
| 39> H 	 12.4122 	 -2.93156 	 93.9726
| 40> H 	 12.7347 	 -11.0625 	 91.6288
| 41> *
| 42>
| 43>                          ****END OF INPUT****

CARTESIAN COORDINATES (ANGSTROEM)
---------------------------------
  S     12.831800   -5.381970   93.303400
  C     12.036300   -3.869450   93.670000
  C     10.683900   -4.144040   93.656700
  C     10.281600   -5.475000   93.316500
  C     11.315400   -6.275070   92.876300
  H      9.348980   -6.011450   93.328000
  C      9.681350   -3.145680   94.107800
  H      9.673500   -2.363270   93.354800
  H     10.002800   -2.686180   95.065600
  C      8.279980   -3.674200   94.334900
  H      7.559420   -2.837050   94.506000
  H      7.911700   -4.045660   93.300100
  C      7.952330   -4.734760   95.465500
  H      8.598870   -5.663030   95.391700
  H      8.113580   -4.321430   96.485900
  H      6.961930   -5.090230   95.320200
  S     12.896500   -8.532160   92.280400
  C     12.226000  -10.139500   92.020700
  C     10.871100   -9.967380   91.842700
  C     10.361400   -8.676350   92.157200
  C     11.319100   -7.725140   92.544500
  H     10.323900  -10.803700   91.415600
  C      8.922090   -8.464070   91.958400
  H      8.546000   -9.083670   91.116300
  H      8.609420   -7.487630   91.664000
  C      8.104610   -8.872230   93.178600
  H      8.554230   -8.456620   94.100300
  H      7.979320   -9.906330   93.426400
  C      6.698490   -8.347010   93.062500
  H      6.100780   -8.623900   93.880300
  H      6.176650   -8.626740   92.138800
  H      6.780330   -7.269520   93.074800
  H     12.412200   -2.931560   93.972600
  H     12.734700  -11.062500   91.628800

 Total Charge           Charge          ....    0
 Multiplicity           Mult            ....    1
 Number of Electrons    NEL             ....  134
 Basis Dimension        Dim             ....  322

ORBITAL ENERGIES
----------------

  NO   OCC          E(Eh)            E(eV)
   0   2.0000     -88.964606     -2420.8500
   1   2.0000     -88.964083     -2420.8358
   2   2.0000     -10.342114      -281.4232
   3   2.0000     -10.341820      -281.4152
   4   2.0000     -10.324049      -280.9317
   5   2.0000     -10.314791      -280.6797
   6   2.0000     -10.307094      -280.4703
   7   2.0000     -10.301339      -280.3137
   8   2.0000     -10.299553      -280.2651
   9   2.0000     -10.296985      -280.1952
  10   2.0000     -10.294862      -280.1374
  11   2.0000     -10.290835      -280.0279
  12   2.0000     -10.290728      -280.0249
  13   2.0000     -10.288173      -279.9554
  14   2.0000     -10.283206      -279.8203
  15   2.0000     -10.272420      -279.5268
  16   2.0000      -8.078242      -219.8201
  17   2.0000      -8.078005      -219.8137
  18   2.0000      -6.037039      -164.2762
  19   2.0000      -6.036783      -164.2692
  20   2.0000      -6.032908      -164.1638
  21   2.0000      -6.032640      -164.1565
  22   2.0000      -6.028696      -164.0492
  23   2.0000      -6.028470      -164.0430
  24   2.0000      -1.004501       -27.3339
  25   2.0000      -0.986458       -26.8429
  26   2.0000      -0.920859       -25.0579
  27   2.0000      -0.910014       -24.7627
  28   2.0000      -0.873107       -23.7584
  29   2.0000      -0.855257       -23.2727
  30   2.0000      -0.836315       -22.7573
  31   2.0000      -0.825714       -22.4688
  32   2.0000      -0.781677       -21.2705
  33   2.0000      -0.774217       -21.0675
  34   2.0000      -0.713290       -19.4096
  35   2.0000      -0.700947       -19.0737
  36   2.0000      -0.692261       -18.8374
  37   2.0000      -0.659865       -17.9558
  38   2.0000      -0.645438       -17.5633
  39   2.0000      -0.624465       -16.9926
  40   2.0000      -0.603171       -16.4131
  41   2.0000      -0.569880       -15.5072
  42   2.0000      -0.568173       -15.4608
  43   2.0000      -0.557807       -15.1787
  44   2.0000      -0.532466       -14.4891
  45   2.0000      -0.529439       -14.4068
  46   2.0000      -0.522802       -14.2262
  47   2.0000      -0.515823       -14.0363
  48   2.0000      -0.510488       -13.8911
  49   2.0000      -0.507524       -13.8104
  50   2.0000      -0.496928       -13.5221
  51   2.0000      -0.486777       -13.2459
  52   2.0000      -0.475464       -12.9380
  53   2.0000      -0.463046       -12.6001
  54   2.0000      -0.456569       -12.4239
  55   2.0000      -0.447122       -12.1668
  56   2.0000      -0.444998       -12.1090
  57   2.0000      -0.442978       -12.0541
  58   2.0000      -0.430590       -11.7170
  59   2.0000      -0.421683       -11.4746
  60   2.0000      -0.416655       -11.3378
  61   2.0000      -0.409995       -11.1565
  62   2.0000      -0.401059       -10.9134
  63   2.0000      -0.367057        -9.9881
  64   2.0000      -0.329434        -8.9643
  65   2.0000      -0.322018        -8.7626
  66   2.0000      -0.285224        -7.7613
  67   0.0000       0.010334         0.2812
  68   0.0000       0.082790         2.2528
  69   0.0000       0.097392         2.6502
  70   0.0000       0.108374         2.9490
  71   0.0000       0.121742         3.3128

MULLIKEN ATOMIC CHARGES
-----------------------
   0 S :    0.082664
   1 C :   -0.071625
   2 C :   -0.096874
   3 C :   -0.005162
   4 C :   -0.079800
   5 H :   -0.004282
   6 C :    0.092840
   7 H :    0.039647
   8 H :    0.031662
   9 C :   -0.143508
  10 H :    0.035155
  11 H :    0.028815
  12 C :   -0.057740
  13 H :    0.040554
  14 H :    0.045712
  15 H :    0.036004
  16 S :    0.074733
  17 C :   -0.091125
  18 C :   -0.050272
  19 C :   -0.040047
  20 C :   -0.108443
  21 H :    0.024913
  22 C :    0.045348
  23 H :    0.025734
  24 H :    0.012256
  25 C :   -0.077138
  26 H :    0.027389
  27 H :    0.024209
  28 C :   -0.026527
  29 H :    0.023818
  30 H :    0.028737
  31 H :    0.015996
  32 H :    0.031674
  33 H :    0.084681
Sum of atomic charges:   -0.0000000

LOEWDIN ATOMIC CHARGES
----------------------
   0 S :    0.382407
   1 C :   -0.186949
   2 C :   -0.066330
   3 C :   -0.071399
   4 C :   -0.162282
   5 H :    0.030436
   6 C :   -0.040774
   7 H :    0.037792
   8 H :    0.033133
   9 C :   -0.055529
  10 H :    0.029679
  11 H :    0.026747
  12 C :   -0.070105
  13 H :    0.028698
  14 H :    0.030671
  15 H :    0.023639
  16 S :    0.385555
  17 C :   -0.191895
  18 C :   -0.073041
  19 C :   -0.061783
  20 C :   -0.177107
  21 H :    0.033535
  22 C :   -0.034720
  23 H :    0.038554
  24 H :    0.022488
  25 C :   -0.039802
  26 H :    0.024776
  27 H :    0.021337
  28 C :   -0.060308
  29 H :    0.019570
  30 H :    0.025431
  31 H :    0.019171
  32 H :    0.028621
  33 H :    0.049784

  Mayer bond orders larger than 0.100000
B(  0-S ,  1-C ) :   1.1242 B(  0-S ,  4-C ) :   1.1377 B(  1-C ,  2-C ) :   1.6020
B(  1-C ,  4-C ) :   0.1017 B(  1-C , 32-H ) :   0.9831 B(  2-C ,  3-C ) :   1.2311
B(  2-C ,  6-C ) :   1.0119 B(  3-C ,  4-C ) :   1.5688 B(  3-C ,  5-H ) :   0.9911
B(  4-C , 20-C ) :   1.0789 B(  6-C ,  7-H ) :   0.9266 B(  6-C ,  8-H ) :   0.9388
B(  6-C ,  9-C ) :   1.1021 B(  9-C , 10-H ) :   0.9524 B(  9-C , 11-H ) :   0.9438
B(  9-C , 12-C ) :   1.0641 B( 12-C , 13-H ) :   0.9746 B( 12-C , 14-H ) :   0.9725
B( 12-C , 15-H ) :   0.9729 B( 16-S , 17-C ) :   1.1518 B( 16-S , 20-C ) :   1.1248
B( 17-C , 18-C ) :   1.6020 B( 17-C , 33-H ) :   0.9568 B( 18-C , 19-C ) :   1.2675
B( 18-C , 21-H ) :   0.9857 B( 19-C , 20-C ) :   1.5482 B( 19-C , 22-C ) :   1.0636
B( 22-C , 23-H ) :   0.9237 B( 22-C , 24-H ) :   0.9428 B( 22-C , 25-C ) :   1.0510
B( 25-C , 26-H ) :   0.9543 B( 25-C , 27-H ) :   0.9530 B( 25-C , 28-C ) :   1.0939
B( 28-C , 29-H ) :   0.9702 B( 28-C , 30-H ) :   0.9689 B( 28-C , 31-H ) :   0.9746

Dispersion correction           -0.015121427
FINAL SINGLE POINT ENERGY     -1339.852725059591

DIPOLE MOMENT
-------------
                                X             Y             Z
Electronic contribution:     31.18873      -3.79705      -7.11571
Nuclear contribution   :    -32.03816       3.78657       7.12122
                        -----------------------------------------
Total Dipole Moment    :     -0.84943      -0.01048       0.00551
                        -----------------------------------------
Magnitude (a.u.)       :      0.84951
Magnitude (Debye)      :      2.15929

Rotational constants in cm-1:     0.016693     0.011083     0.006948
Rotational constants in MHz :   500.447686   332.255535   208.291804

                             ****ORCA TERMINATED NORMALLY****
TOTAL RUN TIME: 0 days 0 hours 0 minutes 36 seconds 32 msec
