                         Program Version 4.2.1 -  RELEASE  -
|  1> ! wB97X-D3 SP def2-SVP
|  2> %pal
|  3> nprocs 16
|  4> end
|  5>
|  6> * xyz 0 1
|  7> S 	 -41.1786 	 -4.30161 	 97.0312
|  8> C 	 -40.9272 	 -4.05065 	 95.3522
|  9> C 	 -41.9639 	 -3.44785 	 94.6884
| 10> C 	 -42.9293 	 -2.97534 	 95.5727
| 11> C 	 -42.6508 	 -3.35533 	 96.887
| 12> H 	 -43.7568 	 -2.35868 	 95.3543
| 13> C 	 -41.8918 	 -3.04044 	 93.2362
| 14> H 	 -40.8635 	 -3.01146 	 92.8984
| 15> H 	 -42.3319 	 -1.9663 	 93.2652
| 16> C 	 -42.6637 	 -3.85698 	 92.1737
| 17> H 	 -42.2887 	 -3.60847 	 91.1342
| 18> H 	 -42.4014 	 -4.92355 	 92.2636
| 19> C 	 -44.229 	 -3.67518 	 92.1287
| 20> H 	 -44.4094 	 -2.74029 	 91.7275
| 21> H 	 -44.7122 	 -4.53451 	 91.6248
| 22> H 	 -44.6781 	 -3.64424 	 93.0439
| 23> S 	 -42.9724 	 -1.53362 	 98.964
| 24> C 	 -44.502 	 -1.44733 	 99.8383
| 25> C 	 -45.3288 	 -2.45817 	 99.4797
| 26> C 	 -44.792 	 -3.26623 	 98.3961
| 27> C 	 -43.4994 	 -2.91444 	 98.0109
| 28> H 	 -46.2603 	 -2.52786 	 100.021
| 29> C 	 -45.5926 	 -4.34756 	 97.6201
| 30> H 	 -46.3857 	 -4.63397 	 98.3352
| 31> H 	 -44.9731 	 -5.24028 	 97.5027
| 32> C 	 -46.2029 	 -4.04515 	 96.292
| 33> H 	 -45.412 	 -4.10164 	 95.4938
| 34> H 	 -46.5767 	 -3.03088 	 96.2843
| 35> C 	 -47.3151 	 -5.0278 	 95.8666
| 36> H 	 -46.7819 	 -5.9789 	 95.533
| 37> H 	 -48.0328 	 -4.70564 	 95.0198
| 38> H 	 -47.9833 	 -5.21927 	 96.7043
| 39> H 	 -40.1592 	 -4.6531 	 94.9182
| 40> H 	 -44.7515 	 -0.846484 	 100.764
| 41> *
| 42>
| 43>                          ****END OF INPUT****

CARTESIAN COORDINATES (ANGSTROEM)
---------------------------------
  S    -41.178600   -4.301610   97.031200
  C    -40.927200   -4.050650   95.352200
  C    -41.963900   -3.447850   94.688400
  C    -42.929300   -2.975340   95.572700
  C    -42.650800   -3.355330   96.887000
  H    -43.756800   -2.358680   95.354300
  C    -41.891800   -3.040440   93.236200
  H    -40.863500   -3.011460   92.898400
  H    -42.331900   -1.966300   93.265200
  C    -42.663700   -3.856980   92.173700
  H    -42.288700   -3.608470   91.134200
  H    -42.401400   -4.923550   92.263600
  C    -44.229000   -3.675180   92.128700
  H    -44.409400   -2.740290   91.727500
  H    -44.712200   -4.534510   91.624800
  H    -44.678100   -3.644240   93.043900
  S    -42.972400   -1.533620   98.964000
  C    -44.502000   -1.447330   99.838300
  C    -45.328800   -2.458170   99.479700
  C    -44.792000   -3.266230   98.396100
  C    -43.499400   -2.914440   98.010900
  H    -46.260300   -2.527860  100.021000
  C    -45.592600   -4.347560   97.620100
  H    -46.385700   -4.633970   98.335200
  H    -44.973100   -5.240280   97.502700
  C    -46.202900   -4.045150   96.292000
  H    -45.412000   -4.101640   95.493800
  H    -46.576700   -3.030880   96.284300
  C    -47.315100   -5.027800   95.866600
  H    -46.781900   -5.978900   95.533000
  H    -48.032800   -4.705640   95.019800
  H    -47.983300   -5.219270   96.704300
  H    -40.159200   -4.653100   94.918200
  H    -44.751500   -0.846484  100.764000

 Total Charge           Charge          ....    0
 Multiplicity           Mult            ....    1
 Number of Electrons    NEL             ....  134
 Basis Dimension        Dim             ....  322

ORBITAL ENERGIES
----------------

  NO   OCC          E(Eh)            E(eV)
   0   2.0000     -88.972045     -2421.0524
   1   2.0000     -88.961037     -2420.7529
   2   2.0000     -10.330781      -281.1148
   3   2.0000     -10.326018      -280.9852
   4   2.0000     -10.318442      -280.7791
   5   2.0000     -10.309794      -280.5438
   6   2.0000     -10.307786      -280.4891
   7   2.0000     -10.300502      -280.2909
   8   2.0000     -10.298364      -280.2327
   9   2.0000     -10.295351      -280.1507
  10   2.0000     -10.293655      -280.1046
  11   2.0000     -10.292806      -280.0815
  12   2.0000     -10.289498      -279.9915
  13   2.0000     -10.288822      -279.9731
  14   2.0000     -10.284739      -279.8620
  15   2.0000     -10.270031      -279.4617
  16   2.0000      -8.087282      -220.0661
  17   2.0000      -8.075607      -219.7484
  18   2.0000      -6.045440      -164.5048
  19   2.0000      -6.041806      -164.4059
  20   2.0000      -6.038297      -164.3104
  21   2.0000      -6.034236      -164.1999
  22   2.0000      -6.030052      -164.0860
  23   2.0000      -6.026315      -163.9844
  24   2.0000      -1.009227       -27.4625
  25   2.0000      -0.985208       -26.8089
  26   2.0000      -0.907029       -24.6815
  27   2.0000      -0.906144       -24.6574
  28   2.0000      -0.869654       -23.6645
  29   2.0000      -0.856829       -23.3155
  30   2.0000      -0.840460       -22.8701
  31   2.0000      -0.818203       -22.2644
  32   2.0000      -0.784802       -21.3555
  33   2.0000      -0.766194       -20.8492
  34   2.0000      -0.704142       -19.1607
  35   2.0000      -0.702977       -19.1290
  36   2.0000      -0.687469       -18.7070
  37   2.0000      -0.656390       -17.8613
  38   2.0000      -0.649188       -17.6653
  39   2.0000      -0.617573       -16.8050
  40   2.0000      -0.588568       -16.0157
  41   2.0000      -0.571239       -15.5442
  42   2.0000      -0.565096       -15.3770
  43   2.0000      -0.545649       -14.8479
  44   2.0000      -0.541372       -14.7315
  45   2.0000      -0.519491       -14.1361
  46   2.0000      -0.514016       -13.9871
  47   2.0000      -0.511352       -13.9146
  48   2.0000      -0.509430       -13.8623
  49   2.0000      -0.489994       -13.3334
  50   2.0000      -0.486474       -13.2376
  51   2.0000      -0.485722       -13.2172
  52   2.0000      -0.472533       -12.8583
  53   2.0000      -0.464531       -12.6405
  54   2.0000      -0.458612       -12.4795
  55   2.0000      -0.450961       -12.2713
  56   2.0000      -0.447734       -12.1835
  57   2.0000      -0.438254       -11.9255
  58   2.0000      -0.429253       -11.6806
  59   2.0000      -0.427402       -11.6302
  60   2.0000      -0.416559       -11.3352
  61   2.0000      -0.413249       -11.2451
  62   2.0000      -0.407382       -11.0854
  63   2.0000      -0.343342        -9.3428
  64   2.0000      -0.332886        -9.0583
  65   2.0000      -0.320932        -8.7330
  66   2.0000      -0.307917        -8.3788
  67   0.0000       0.037329         1.0158
  68   0.0000       0.057581         1.5669
  69   0.0000       0.115892         3.1536
  70   0.0000       0.118176         3.2157
  71   0.0000       0.125779         3.4226

MULLIKEN ATOMIC CHARGES
-----------------------
   0 S :    0.134478
   1 C :   -0.123660
   2 C :   -0.031773
   3 C :    0.053073
   4 C :   -0.182277
   5 H :    0.008524
   6 C :    0.022968
   7 H :    0.029790
   8 H :    0.041271
   9 C :   -0.089507
  10 H :    0.035357
  11 H :    0.026059
  12 C :    0.001654
  13 H :    0.016290
  14 H :    0.042278
  15 H :   -0.006630
  16 S :    0.096770
  17 C :   -0.111892
  18 C :   -0.038407
  19 C :   -0.043308
  20 C :   -0.166986
  21 H :    0.020513
  22 C :    0.069389
  23 H :    0.011910
  24 H :    0.028225
  25 C :   -0.071222
  26 H :    0.050463
  27 H :    0.023496
  28 C :   -0.093835
  29 H :    0.043471
  30 H :    0.050079
  31 H :    0.030910
  32 H :    0.045489
  33 H :    0.077038
Sum of atomic charges:   -0.0000000

LOEWDIN ATOMIC CHARGES
----------------------
   0 S :    0.428794
   1 C :   -0.197433
   2 C :   -0.070563
   3 C :   -0.042121
   4 C :   -0.199637
   5 H :    0.028134
   6 C :   -0.033388
   7 H :    0.032425
   8 H :    0.041541
   9 C :   -0.043443
  10 H :    0.029107
  11 H :    0.021725
  12 C :   -0.057735
  13 H :    0.017405
  14 H :    0.036200
  15 H :    0.008770
  16 S :    0.390757
  17 C :   -0.193296
  18 C :   -0.078957
  19 C :   -0.055551
  20 C :   -0.198489
  21 H :    0.033836
  22 C :   -0.035272
  23 H :    0.028451
  24 H :    0.032517
  25 C :   -0.051069
  26 H :    0.027909
  27 H :    0.019618
  28 C :   -0.075588
  29 H :    0.032831
  30 H :    0.036435
  31 H :    0.019719
  32 H :    0.019377
  33 H :    0.046993

  Mayer bond orders larger than 0.100000
B(  0-S ,  1-C ) :   1.1631 B(  0-S ,  4-C ) :   1.1690 B(  1-C ,  2-C ) :   1.5919
B(  1-C , 32-H ) :   0.9635 B(  2-C ,  3-C ) :   1.2601 B(  2-C ,  6-C ) :   1.0107
B(  3-C ,  4-C ) :   1.5587 B(  3-C ,  5-H ) :   0.9941 B(  4-C , 20-C ) :   1.0167
B(  6-C ,  7-H ) :   0.9439 B(  6-C ,  8-H ) :   0.9495 B(  6-C ,  9-C ) :   1.0647
B(  9-C , 10-H ) :   0.9602 B(  9-C , 11-H ) :   0.9575 B(  9-C , 12-C ) :   1.0647
B( 12-C , 13-H ) :   0.9716 B( 12-C , 14-H ) :   0.9733 B( 12-C , 15-H ) :   0.9801
B( 16-S , 17-C ) :   1.1441 B( 16-S , 20-C ) :   1.1363 B( 17-C , 18-C ) :   1.6553
B( 17-C , 33-H ) :   0.9509 B( 18-C , 19-C ) :   1.2138 B( 18-C , 21-H ) :   0.9901
B( 19-C , 20-C ) :   1.6255 B( 19-C , 22-C ) :   1.0429 B( 22-C , 23-H ) :   0.9346
B( 22-C , 24-H ) :   0.9276 B( 22-C , 25-C ) :   1.0728 B( 25-C , 26-H ) :   0.9427
B( 25-C , 27-H ) :   0.9536 B( 25-C , 28-C ) :   1.0719 B( 28-C , 29-H ) :   0.9770
B( 28-C , 30-H ) :   0.9748 B( 28-C , 31-H ) :   0.9760

Dispersion correction           -0.015249081
FINAL SINGLE POINT ENERGY     -1339.869200151598

DIPOLE MOMENT
-------------
                                X             Y             Z
Electronic contribution:     18.61907       7.40143      23.59553
Nuclear contribution   :    -18.98906      -7.53767     -23.99309
                        -----------------------------------------
Total Dipole Moment    :     -0.36999      -0.13624      -0.39756
                        -----------------------------------------
Magnitude (a.u.)       :      0.55992
Magnitude (Debye)      :      1.42321

Rotational constants in cm-1:     0.016924     0.009980     0.007326
Rotational constants in MHz :   507.376962   299.184695   219.617794

                             ****ORCA TERMINATED NORMALLY****
TOTAL RUN TIME: 0 days 0 hours 0 minutes 31 seconds 553 msec
