                         Program Version 4.2.1 -  RELEASE  -
|  1> ! wB97X-D3 SP def2-SVP
|  2> %pal
|  3> nprocs 16
|  4> end
|  5>
|  6> * xyz 0 1
|  7> S 	 -42.5615 	 48.5723 	 104.749
|  8> C 	 -42.0555 	 47.6072 	 106.165
|  9> C 	 -42.5025 	 46.2792 	 106.077
| 10> C 	 -43.3293 	 46.0903 	 104.941
| 11> C 	 -43.6321 	 47.209 	 104.155
| 12> H 	 -43.8959 	 45.1816 	 104.713
| 13> C 	 -42.1494 	 45.1127 	 106.967
| 14> H 	 -43.0882 	 44.4821 	 107.064
| 15> H 	 -41.9987 	 45.5655 	 107.98
| 16> C 	 -40.8696 	 44.3105 	 106.793
| 17> H 	 -39.9448 	 44.818 	 106.941
| 18> H 	 -40.8811 	 43.5649 	 107.591
| 19> C 	 -40.732 	 43.6308 	 105.425
| 20> H 	 -39.9061 	 42.9148 	 105.435
| 21> H 	 -41.769 	 43.2219 	 105.378
| 22> H 	 -40.4987 	 44.1837 	 104.512
| 23> S 	 -43.6495 	 47.5558 	 101.352
| 24> C 	 -45.115 	 47.3167 	 100.491
| 25> C 	 -46.1127 	 46.8352 	 101.377
| 26> C 	 -45.7487 	 46.7981 	 102.77
| 27> C 	 -44.431 	 47.2412 	 102.929
| 28> H 	 -47.0858 	 46.5926 	 100.984
| 29> C 	 -46.6757 	 46.2826 	 103.838
| 30> H 	 -47.527 	 46.9387 	 103.759
| 31> H 	 -46.224 	 46.4302 	 104.782
| 32> C 	 -47.1754 	 44.7435 	 103.721
| 33> H 	 -47.861 	 44.6363 	 102.905
| 34> H 	 -47.7606 	 44.4194 	 104.526
| 35> C 	 -46.0553 	 43.7499 	 103.594
| 36> H 	 -45.6251 	 43.8463 	 102.585
| 37> H 	 -46.4339 	 42.7216 	 103.583
| 38> H 	 -45.3037 	 43.7354 	 104.383
| 39> H 	 -41.4614 	 47.9904 	 106.917
| 40> H 	 -45.1815 	 47.3317 	 99.4146
| 41> *
| 42>
| 43>                          ****END OF INPUT****

CARTESIAN COORDINATES (ANGSTROEM)
---------------------------------
  S    -42.561500   48.572300  104.749000
  C    -42.055500   47.607200  106.165000
  C    -42.502500   46.279200  106.077000
  C    -43.329300   46.090300  104.941000
  C    -43.632100   47.209000  104.155000
  H    -43.895900   45.181600  104.713000
  C    -42.149400   45.112700  106.967000
  H    -43.088200   44.482100  107.064000
  H    -41.998700   45.565500  107.980000
  C    -40.869600   44.310500  106.793000
  H    -39.944800   44.818000  106.941000
  H    -40.881100   43.564900  107.591000
  C    -40.732000   43.630800  105.425000
  H    -39.906100   42.914800  105.435000
  H    -41.769000   43.221900  105.378000
  H    -40.498700   44.183700  104.512000
  S    -43.649500   47.555800  101.352000
  C    -45.115000   47.316700  100.491000
  C    -46.112700   46.835200  101.377000
  C    -45.748700   46.798100  102.770000
  C    -44.431000   47.241200  102.929000
  H    -47.085800   46.592600  100.984000
  C    -46.675700   46.282600  103.838000
  H    -47.527000   46.938700  103.759000
  H    -46.224000   46.430200  104.782000
  C    -47.175400   44.743500  103.721000
  H    -47.861000   44.636300  102.905000
  H    -47.760600   44.419400  104.526000
  C    -46.055300   43.749900  103.594000
  H    -45.625100   43.846300  102.585000
  H    -46.433900   42.721600  103.583000
  H    -45.303700   43.735400  104.383000
  H    -41.461400   47.990400  106.917000
  H    -45.181500   47.331700   99.414600

 Total Charge           Charge          ....    0
 Multiplicity           Mult            ....    1
 Number of Electrons    NEL             ....  134
 Basis Dimension        Dim             ....  322

ORBITAL ENERGIES
----------------

  NO   OCC          E(Eh)            E(eV)
   0   2.0000     -88.967192     -2420.9204
   1   2.0000     -88.965764     -2420.8815
   2   2.0000     -10.335200      -281.2351
   3   2.0000     -10.330291      -281.1015
   4   2.0000     -10.320318      -280.8301
   5   2.0000     -10.317260      -280.7469
   6   2.0000     -10.307758      -280.4884
   7   2.0000     -10.303673      -280.3772
   8   2.0000     -10.301009      -280.3047
   9   2.0000     -10.296839      -280.1912
  10   2.0000     -10.295224      -280.1473
  11   2.0000     -10.293045      -280.0880
  12   2.0000     -10.287487      -279.9367
  13   2.0000     -10.286540      -279.9110
  14   2.0000     -10.277947      -279.6772
  15   2.0000     -10.276195      -279.6295
  16   2.0000      -8.081738      -219.9153
  17   2.0000      -8.078580      -219.8293
  18   2.0000      -6.040239      -164.3633
  19   2.0000      -6.037191      -164.2803
  20   2.0000      -6.036236      -164.2543
  21   2.0000      -6.033385      -164.1768
  22   2.0000      -6.032552      -164.1541
  23   2.0000      -6.029327      -164.0663
  24   2.0000      -0.996613       -27.1192
  25   2.0000      -0.974562       -26.5192
  26   2.0000      -0.910481       -24.7754
  27   2.0000      -0.907017       -24.6812
  28   2.0000      -0.866529       -23.5794
  29   2.0000      -0.853669       -23.2295
  30   2.0000      -0.842743       -22.9322
  31   2.0000      -0.808401       -21.9977
  32   2.0000      -0.784926       -21.3589
  33   2.0000      -0.771763       -21.0007
  34   2.0000      -0.711690       -19.3661
  35   2.0000      -0.703994       -19.1567
  36   2.0000      -0.696540       -18.9538
  37   2.0000      -0.656606       -17.8672
  38   2.0000      -0.641700       -17.4615
  39   2.0000      -0.611869       -16.6498
  40   2.0000      -0.592309       -16.1175
  41   2.0000      -0.574264       -15.6265
  42   2.0000      -0.555091       -15.1048
  43   2.0000      -0.550367       -14.9762
  44   2.0000      -0.548984       -14.9386
  45   2.0000      -0.538928       -14.6650
  46   2.0000      -0.523620       -14.2484
  47   2.0000      -0.510469       -13.8906
  48   2.0000      -0.498618       -13.5681
  49   2.0000      -0.495907       -13.4943
  50   2.0000      -0.490090       -13.3360
  51   2.0000      -0.474268       -12.9055
  52   2.0000      -0.469953       -12.7881
  53   2.0000      -0.467834       -12.7304
  54   2.0000      -0.459310       -12.4985
  55   2.0000      -0.445607       -12.1256
  56   2.0000      -0.441299       -12.0083
  57   2.0000      -0.437383       -11.9018
  58   2.0000      -0.432155       -11.7595
  59   2.0000      -0.425268       -11.5721
  60   2.0000      -0.421278       -11.4635
  61   2.0000      -0.417782       -11.3684
  62   2.0000      -0.398760       -10.8508
  63   2.0000      -0.341329        -9.2880
  64   2.0000      -0.330300        -8.9879
  65   2.0000      -0.327005        -8.8983
  66   2.0000      -0.291261        -7.9256
  67   0.0000       0.025894         0.7046
  68   0.0000       0.057446         1.5632
  69   0.0000       0.107360         2.9214
  70   0.0000       0.115819         3.1516
  71   0.0000       0.121592         3.3087

MULLIKEN ATOMIC CHARGES
-----------------------
   0 S :    0.090126
   1 C :   -0.091493
   2 C :   -0.054333
   3 C :    0.052877
   4 C :   -0.183330
   5 H :   -0.020808
   6 C :    0.007713
   7 H :    0.044335
   8 H :    0.027623
   9 C :   -0.019092
  10 H :    0.017278
  11 H :    0.029925
  12 C :   -0.079282
  13 H :    0.030901
  14 H :    0.027833
  15 H :    0.048832
  16 S :    0.116666
  17 C :   -0.094007
  18 C :   -0.049100
  19 C :   -0.045707
  20 C :   -0.152502
  21 H :    0.013180
  22 C :    0.101537
  23 H :    0.034244
  24 H :    0.020841
  25 C :   -0.039269
  26 H :    0.018273
  27 H :    0.017688
  28 C :   -0.069860
  29 H :    0.043569
  30 H :    0.023415
  31 H :    0.046920
  32 H :    0.021219
  33 H :    0.063788
Sum of atomic charges:    0.0000000

LOEWDIN ATOMIC CHARGES
----------------------
   0 S :    0.359436
   1 C :   -0.163593
   2 C :   -0.068570
   3 C :   -0.057719
   4 C :   -0.175307
   5 H :    0.028073
   6 C :   -0.043921
   7 H :    0.038489
   8 H :    0.039757
   9 C :   -0.037830
  10 H :    0.018690
  11 H :    0.029998
  12 C :   -0.074689
  13 H :    0.025636
  14 H :    0.027593
  15 H :    0.029066
  16 S :    0.412207
  17 C :   -0.195041
  18 C :   -0.072625
  19 C :   -0.050194
  20 C :   -0.196607
  21 H :    0.025062
  22 C :   -0.021254
  23 H :    0.035392
  24 H :    0.024808
  25 C :   -0.030622
  26 H :    0.021489
  27 H :    0.019174
  28 C :   -0.070632
  29 H :    0.031873
  30 H :    0.029054
  31 H :    0.020756
  32 H :    0.011806
  33 H :    0.030246

  Mayer bond orders larger than 0.100000
B(  0-S ,  1-C ) :   1.1445 B(  0-S ,  4-C ) :   1.1216 B(  1-C ,  2-C ) :   1.5875
B(  1-C ,  4-C ) :   0.1068 B(  1-C , 32-H ) :   0.9790 B(  2-C ,  3-C ) :   1.2474
B(  2-C ,  6-C ) :   1.0187 B(  3-C ,  4-C ) :   1.5741 B(  3-C ,  5-H ) :   0.9822
B(  4-C , 20-C ) :   1.0562 B(  6-C ,  7-H ) :   0.9421 B(  6-C ,  8-H ) :   0.9305
B(  6-C ,  9-C ) :   1.0853 B(  9-C , 10-H ) :   0.9526 B(  9-C , 11-H ) :   0.9492
B(  9-C , 12-C ) :   1.0668 B( 12-C , 13-H ) :   0.9735 B( 12-C , 14-H ) :   0.9791
B( 12-C , 15-H ) :   0.9755 B( 16-S , 17-C ) :   1.1707 B( 16-S , 20-C ) :   1.1458
B( 17-C , 18-C ) :   1.5781 B( 17-C , 33-H ) :   0.9709 B( 18-C , 19-C ) :   1.2453
B( 18-C , 21-H ) :   0.9928 B( 19-C , 20-C ) :   1.5656 B( 19-C , 22-C ) :   1.0473
B( 22-C , 23-H ) :   0.9322 B( 22-C , 24-H ) :   0.9316 B( 22-C , 25-C ) :   1.0575
B( 25-C , 26-H ) :   0.9527 B( 25-C , 27-H ) :   0.9593 B( 25-C , 28-C ) :   1.0903
B( 28-C , 29-H ) :   0.9714 B( 28-C , 30-H ) :   0.9639 B( 28-C , 31-H ) :   0.9647

Dispersion correction           -0.015387551
FINAL SINGLE POINT ENERGY     -1339.862920595670

DIPOLE MOMENT
-------------
                                X             Y             Z
Electronic contribution:      3.55685      24.57282     -11.25281
Nuclear contribution   :     -3.82343     -25.28175      11.49753
                        -----------------------------------------
Total Dipole Moment    :     -0.26658      -0.70893       0.24471
                        -----------------------------------------
Magnitude (a.u.)       :      0.79595
Magnitude (Debye)      :      2.02314

Rotational constants in cm-1:     0.017995     0.009329     0.007564
Rotational constants in MHz :   539.485657   279.691142   226.753448

                             ****ORCA TERMINATED NORMALLY****
TOTAL RUN TIME: 0 days 0 hours 0 minutes 30 seconds 83 msec
