                         Program Version 4.2.1 -  RELEASE  -
|  1> ! wB97X-D3 SP def2-SVP
|  2> %pal
|  3> nprocs 16
|  4> end
|  5>
|  6> * xyz 0 1
|  7> S 	 28.0381 	 31.66 	 53.7756
|  8> C 	 29.0909 	 31.2442 	 52.4295
|  9> C 	 30.3455 	 30.965 	 52.8973
| 10> C 	 30.5209 	 31.2243 	 54.2665
| 11> C 	 29.3612 	 31.4485 	 54.9506
| 12> H 	 31.4478 	 30.9831 	 54.852
| 13> C 	 31.4443 	 30.383 	 52.0197
| 14> H 	 32.2158 	 31.1422 	 51.9838
| 15> H 	 31.0272 	 30.3576 	 51.0162
| 16> C 	 32.0048 	 28.9341 	 52.2703
| 17> H 	 32.0459 	 28.6829 	 53.3564
| 18> H 	 31.2973 	 28.228 	 51.903
| 19> C 	 33.4336 	 28.8442 	 51.7458
| 20> H 	 34.1001 	 29.5157 	 52.3041
| 21> H 	 33.8757 	 27.9325 	 51.9535
| 22> H 	 33.5548 	 29.2497 	 50.7431
| 23> S 	 27.7639 	 30.9915 	 57.2015
| 24> C 	 28.493 	 31.2168 	 58.7352
| 25> C 	 29.6585 	 32.0066 	 58.6426
| 26> C 	 30.0901 	 32.2234 	 57.3027
| 27> C 	 29.2054 	 31.5799 	 56.3861
| 28> H 	 30.1729 	 32.4314 	 59.4683
| 29> C 	 31.3633 	 32.9162 	 56.9203
| 30> H 	 31.5263 	 33.8353 	 57.5078
| 31> H 	 31.3379 	 33.1829 	 55.789
| 32> C 	 32.6154 	 32.0243 	 57.0718
| 33> H 	 32.5247 	 31.0251 	 56.7238
| 34> H 	 32.815 	 31.8246 	 58.1034
| 35> C 	 33.7888 	 32.7278 	 56.4121
| 36> H 	 34.7171 	 32.1211 	 56.4576
| 37> H 	 34.1185 	 33.6571 	 56.974
| 38> H 	 33.5491 	 32.8952 	 55.3558
| 39> H 	 28.7261 	 30.8974 	 51.45
| 40> H 	 27.8704 	 31.1753 	 59.7153
| 41> *
| 42>
| 43>                          ****END OF INPUT****

CARTESIAN COORDINATES (ANGSTROEM)
---------------------------------
  S     28.038100   31.660000   53.775600
  C     29.090900   31.244200   52.429500
  C     30.345500   30.965000   52.897300
  C     30.520900   31.224300   54.266500
  C     29.361200   31.448500   54.950600
  H     31.447800   30.983100   54.852000
  C     31.444300   30.383000   52.019700
  H     32.215800   31.142200   51.983800
  H     31.027200   30.357600   51.016200
  C     32.004800   28.934100   52.270300
  H     32.045900   28.682900   53.356400
  H     31.297300   28.228000   51.903000
  C     33.433600   28.844200   51.745800
  H     34.100100   29.515700   52.304100
  H     33.875700   27.932500   51.953500
  H     33.554800   29.249700   50.743100
  S     27.763900   30.991500   57.201500
  C     28.493000   31.216800   58.735200
  C     29.658500   32.006600   58.642600
  C     30.090100   32.223400   57.302700
  C     29.205400   31.579900   56.386100
  H     30.172900   32.431400   59.468300
  C     31.363300   32.916200   56.920300
  H     31.526300   33.835300   57.507800
  H     31.337900   33.182900   55.789000
  C     32.615400   32.024300   57.071800
  H     32.524700   31.025100   56.723800
  H     32.815000   31.824600   58.103400
  C     33.788800   32.727800   56.412100
  H     34.717100   32.121100   56.457600
  H     34.118500   33.657100   56.974000
  H     33.549100   32.895200   55.355800
  H     28.726100   30.897400   51.450000
  H     27.870400   31.175300   59.715300

 Total Charge           Charge          ....    0
 Multiplicity           Mult            ....    1
 Number of Electrons    NEL             ....  134
 Basis Dimension        Dim             ....  322

ORBITAL ENERGIES
----------------

  NO   OCC          E(Eh)            E(eV)
   0   2.0000     -88.971676     -2421.0424
   1   2.0000     -88.962743     -2420.7993
   2   2.0000     -10.331191      -281.1260
   3   2.0000     -10.330593      -281.1097
   4   2.0000     -10.325945      -280.9833
   5   2.0000     -10.311814      -280.5987
   6   2.0000     -10.307814      -280.4899
   7   2.0000     -10.300658      -280.2952
   8   2.0000     -10.297321      -280.2044
   9   2.0000     -10.297029      -280.1964
  10   2.0000     -10.291768      -280.0532
  11   2.0000     -10.291426      -280.0439
  12   2.0000     -10.290524      -280.0194
  13   2.0000     -10.285866      -279.8927
  14   2.0000     -10.283471      -279.8275
  15   2.0000     -10.275143      -279.6008
  16   2.0000      -8.086618      -220.0481
  17   2.0000      -8.077044      -219.7875
  18   2.0000      -6.045040      -164.4939
  19   2.0000      -6.041128      -164.3874
  20   2.0000      -6.037430      -164.2868
  21   2.0000      -6.035761      -164.2414
  22   2.0000      -6.031641      -164.1293
  23   2.0000      -6.027582      -164.0188
  24   2.0000      -1.007241       -27.4084
  25   2.0000      -0.985672       -26.8215
  26   2.0000      -0.915210       -24.9041
  27   2.0000      -0.907231       -24.6870
  28   2.0000      -0.870544       -23.6887
  29   2.0000      -0.856971       -23.3194
  30   2.0000      -0.846323       -23.0296
  31   2.0000      -0.813277       -22.1304
  32   2.0000      -0.780998       -21.2520
  33   2.0000      -0.766167       -20.8485
  34   2.0000      -0.710617       -19.3369
  35   2.0000      -0.705025       -19.1847
  36   2.0000      -0.694977       -18.9113
  37   2.0000      -0.662879       -18.0379
  38   2.0000      -0.636166       -17.3110
  39   2.0000      -0.620501       -16.8847
  40   2.0000      -0.598673       -16.2907
  41   2.0000      -0.570124       -15.5139
  42   2.0000      -0.565569       -15.3899
  43   2.0000      -0.550790       -14.9878
  44   2.0000      -0.532611       -14.4931
  45   2.0000      -0.521134       -14.1808
  46   2.0000      -0.517653       -14.0860
  47   2.0000      -0.510883       -13.9018
  48   2.0000      -0.506430       -13.7807
  49   2.0000      -0.499209       -13.5842
  50   2.0000      -0.492718       -13.4075
  51   2.0000      -0.475890       -12.9496
  52   2.0000      -0.470423       -12.8009
  53   2.0000      -0.465817       -12.6755
  54   2.0000      -0.460315       -12.5258
  55   2.0000      -0.454308       -12.3623
  56   2.0000      -0.443627       -12.0717
  57   2.0000      -0.438575       -11.9342
  58   2.0000      -0.435214       -11.8428
  59   2.0000      -0.431228       -11.7343
  60   2.0000      -0.421216       -11.4619
  61   2.0000      -0.417338       -11.3563
  62   2.0000      -0.410932       -11.1820
  63   2.0000      -0.352555        -9.5935
  64   2.0000      -0.333023        -9.0620
  65   2.0000      -0.329995        -8.9796
  66   2.0000      -0.285879        -7.7792
  67   0.0000       0.018024         0.4905
  68   0.0000       0.072108         1.9621
  69   0.0000       0.112651         3.0654
  70   0.0000       0.118454         3.2233
  71   0.0000       0.125769         3.4223

MULLIKEN ATOMIC CHARGES
-----------------------
   0 S :    0.086827
   1 C :   -0.120008
   2 C :   -0.100984
   3 C :   -0.012716
   4 C :   -0.116170
   5 H :    0.020387
   6 C :    0.055016
   7 H :    0.029506
   8 H :    0.011064
   9 C :   -0.053900
  10 H :    0.030410
  11 H :    0.028312
  12 C :   -0.021924
  13 H :    0.016284
  14 H :    0.020044
  15 H :    0.033892
  16 S :    0.131038
  17 C :   -0.114639
  18 C :   -0.029961
  19 C :   -0.010599
  20 C :   -0.168881
  21 H :    0.006720
  22 C :    0.007405
  23 H :    0.036974
  24 H :    0.050346
  25 C :   -0.055178
  26 H :    0.025648
  27 H :    0.011490
  28 C :   -0.061618
  29 H :    0.032572
  30 H :    0.041459
  31 H :    0.036726
  32 H :    0.060757
  33 H :    0.093702
Sum of atomic charges:    0.0000000

LOEWDIN ATOMIC CHARGES
----------------------
   0 S :    0.376011
   1 C :   -0.203516
   2 C :   -0.066107
   3 C :   -0.079649
   4 C :   -0.171729
   5 H :    0.039531
   6 C :   -0.029711
   7 H :    0.029567
   8 H :    0.029116
   9 C :   -0.035760
  10 H :    0.026763
  11 H :    0.020765
  12 C :   -0.061969
  13 H :    0.028398
  14 H :    0.017342
  15 H :    0.026463
  16 S :    0.430469
  17 C :   -0.218657
  18 C :   -0.067512
  19 C :   -0.048329
  20 C :   -0.201599
  21 H :    0.025165
  22 C :   -0.037809
  23 H :    0.035648
  24 H :    0.042278
  25 C :   -0.043473
  26 H :    0.018043
  27 H :    0.020501
  28 C :   -0.070034
  29 H :    0.027207
  30 H :    0.033187
  31 H :    0.024750
  32 H :    0.034688
  33 H :    0.049964

  Mayer bond orders larger than 0.100000
B(  0-S ,  1-C ) :   1.1162 B(  0-S ,  4-C ) :   1.1344 B(  1-C ,  2-C ) :   1.6397
B(  1-C , 32-H ) :   0.9549 B(  2-C ,  3-C ) :   1.2375 B(  2-C ,  6-C ) :   1.0273
B(  3-C ,  4-C ) :   1.5796 B(  3-C ,  5-H ) :   0.9791 B(  4-C , 20-C ) :   1.0887
B(  6-C ,  7-H ) :   0.9462 B(  6-C ,  8-H ) :   0.9355 B(  6-C ,  9-C ) :   1.0401
B(  9-C , 10-H ) :   0.9629 B(  9-C , 11-H ) :   0.9584 B(  9-C , 12-C ) :   1.0747
B( 12-C , 13-H ) :   0.9709 B( 12-C , 14-H ) :   0.9713 B( 12-C , 15-H ) :   0.9761
B( 16-S , 17-C ) :   1.1788 B( 16-S , 20-C ) :   1.1544 B( 17-C , 18-C ) :   1.5498
B( 17-C , 20-C ) :   0.1078 B( 17-C , 33-H ) :   0.9523 B( 18-C , 19-C ) :   1.2927
B( 18-C , 21-H ) :   0.9936 B( 19-C , 20-C ) :   1.5087 B( 19-C , 22-C ) :   1.0575
B( 22-C , 23-H ) :   0.9299 B( 22-C , 24-H ) :   0.9333 B( 22-C , 25-C ) :   1.0519
B( 25-C , 26-H ) :   0.9506 B( 25-C , 27-H ) :   0.9424 B( 25-C , 28-C ) :   1.0879
B( 28-C , 29-H ) :   0.9724 B( 28-C , 30-H ) :   0.9721 B( 28-C , 31-H ) :   0.9728

Dispersion correction           -0.014401138
FINAL SINGLE POINT ENERGY     -1339.872556491610

DIPOLE MOMENT
-------------
                                X             Y             Z
Electronic contribution:    -31.37087       3.35595       7.72674
Nuclear contribution   :     32.09045      -3.45034      -7.56889
                        -----------------------------------------
Total Dipole Moment    :      0.71958      -0.09439       0.15784
                        -----------------------------------------
Magnitude (a.u.)       :      0.74271
Magnitude (Debye)      :      1.88783

Rotational constants in cm-1:     0.016939     0.009513     0.006940
Rotational constants in MHz :   507.810160   285.190926   208.053382

                             ****ORCA TERMINATED NORMALLY****
TOTAL RUN TIME: 0 days 0 hours 0 minutes 34 seconds 186 msec
