                         Program Version 4.2.1 -  RELEASE  -
|  1> ! wB97X-D3 SP def2-SVP
|  2> %pal
|  3> nprocs 16
|  4> end
|  5>
|  6> * xyz 0 1
|  7> S 	 43.475 	 12.9106 	 78.202
|  8> C 	 44.6234 	 12.508 	 79.4756
|  9> C 	 45.8666 	 12.1657 	 78.9607
| 10> C 	 45.83 	 12.217 	 77.5184
| 11> C 	 44.6962 	 12.5969 	 76.9962
| 12> H 	 46.6273 	 12.0613 	 76.8364
| 13> C 	 47.0263 	 11.4704 	 79.736
| 14> H 	 47.2384 	 12.1491 	 80.5558
| 15> H 	 47.9945 	 11.3232 	 79.2464
| 16> C 	 46.6922 	 10.0312 	 80.2398
| 17> H 	 45.9778 	 9.51052 	 79.5768
| 18> H 	 47.5759 	 9.37498 	 80.3351
| 19> C 	 46.0394 	 10.1178 	 81.6757
| 20> H 	 44.9517 	 10.3477 	 81.5316
| 21> H 	 46.2238 	 9.147 	 82.1
| 22> H 	 46.432 	 10.8452 	 82.4017
| 23> S 	 43.0286 	 11.4573 	 75.1349
| 24> C 	 43.2135 	 11.8781 	 73.3445
| 25> C 	 44.3012 	 12.7544 	 73.145
| 26> C 	 45.0056 	 12.9812 	 74.4075
| 27> C 	 44.3671 	 12.5088 	 75.5537
| 28> H 	 44.6263 	 13.1814 	 72.2483
| 29> C 	 46.2327 	 13.9316 	 74.4253
| 30> H 	 46.6448 	 14.0648 	 75.4954
| 31> H 	 45.9332 	 14.9122 	 74.1173
| 32> C 	 47.3234 	 13.5218 	 73.3873
| 33> H 	 48.0486 	 14.3097 	 73.2554
| 34> H 	 46.9157 	 13.4779 	 72.406
| 35> C 	 48.2008 	 12.2756 	 73.7189
| 36> H 	 49.1315 	 12.4884 	 74.3419
| 37> H 	 48.5205 	 11.7287 	 72.7817
| 38> H 	 47.6302 	 11.4924 	 74.2485
| 39> H 	 44.4729 	 12.6732 	 80.5072
| 40> H 	 42.5989 	 11.4855 	 72.5216
| 41> *
| 42>
| 43>                          ****END OF INPUT****

CARTESIAN COORDINATES (ANGSTROEM)
---------------------------------
  S     43.475000   12.910600   78.202000
  C     44.623400   12.508000   79.475600
  C     45.866600   12.165700   78.960700
  C     45.830000   12.217000   77.518400
  C     44.696200   12.596900   76.996200
  H     46.627300   12.061300   76.836400
  C     47.026300   11.470400   79.736000
  H     47.238400   12.149100   80.555800
  H     47.994500   11.323200   79.246400
  C     46.692200   10.031200   80.239800
  H     45.977800    9.510520   79.576800
  H     47.575900    9.374980   80.335100
  C     46.039400   10.117800   81.675700
  H     44.951700   10.347700   81.531600
  H     46.223800    9.147000   82.100000
  H     46.432000   10.845200   82.401700
  S     43.028600   11.457300   75.134900
  C     43.213500   11.878100   73.344500
  C     44.301200   12.754400   73.145000
  C     45.005600   12.981200   74.407500
  C     44.367100   12.508800   75.553700
  H     44.626300   13.181400   72.248300
  C     46.232700   13.931600   74.425300
  H     46.644800   14.064800   75.495400
  H     45.933200   14.912200   74.117300
  C     47.323400   13.521800   73.387300
  H     48.048600   14.309700   73.255400
  H     46.915700   13.477900   72.406000
  C     48.200800   12.275600   73.718900
  H     49.131500   12.488400   74.341900
  H     48.520500   11.728700   72.781700
  H     47.630200   11.492400   74.248500
  H     44.472900   12.673200   80.507200
  H     42.598900   11.485500   72.521600

 Total Charge           Charge          ....    0
 Multiplicity           Mult            ....    1
 Number of Electrons    NEL             ....  134
 Basis Dimension        Dim             ....  322

ORBITAL ENERGIES
----------------

  NO   OCC          E(Eh)            E(eV)
   0   2.0000     -88.967192     -2420.9204
   1   2.0000     -88.966944     -2420.9136
   2   2.0000     -10.331632      -281.1380
   3   2.0000     -10.331038      -281.1218
   4   2.0000     -10.323041      -280.9042
   5   2.0000     -10.315999      -280.7126
   6   2.0000     -10.308451      -280.5072
   7   2.0000     -10.308022      -280.4955
   8   2.0000     -10.302326      -280.3405
   9   2.0000     -10.299828      -280.2726
  10   2.0000     -10.297312      -280.2041
  11   2.0000     -10.293660      -280.1047
  12   2.0000     -10.287923      -279.9486
  13   2.0000     -10.287562      -279.9388
  14   2.0000     -10.283859      -279.8380
  15   2.0000     -10.279774      -279.7269
  16   2.0000      -8.081808      -219.9172
  17   2.0000      -8.080341      -219.8773
  18   2.0000      -6.040492      -164.3701
  19   2.0000      -6.039167      -164.3341
  20   2.0000      -6.036355      -164.2576
  21   2.0000      -6.035074      -164.2227
  22   2.0000      -6.032298      -164.1472
  23   2.0000      -6.030839      -164.1075
  24   2.0000      -1.008180       -27.4340
  25   2.0000      -0.974653       -26.5217
  26   2.0000      -0.903681       -24.5904
  27   2.0000      -0.897655       -24.4264
  28   2.0000      -0.867601       -23.6086
  29   2.0000      -0.848246       -23.0820
  30   2.0000      -0.836796       -22.7704
  31   2.0000      -0.815370       -22.1873
  32   2.0000      -0.779201       -21.2031
  33   2.0000      -0.769344       -20.9349
  34   2.0000      -0.703941       -19.1552
  35   2.0000      -0.696385       -18.9496
  36   2.0000      -0.693523       -18.8717
  37   2.0000      -0.664514       -18.0824
  38   2.0000      -0.650718       -17.7069
  39   2.0000      -0.617047       -16.7907
  40   2.0000      -0.589557       -16.0427
  41   2.0000      -0.572683       -15.5835
  42   2.0000      -0.548670       -14.9301
  43   2.0000      -0.543743       -14.7960
  44   2.0000      -0.538786       -14.6611
  45   2.0000      -0.528432       -14.3794
  46   2.0000      -0.516380       -14.0514
  47   2.0000      -0.510576       -13.8935
  48   2.0000      -0.505250       -13.7485
  49   2.0000      -0.493166       -13.4197
  50   2.0000      -0.487363       -13.2618
  51   2.0000      -0.477340       -12.9891
  52   2.0000      -0.468039       -12.7360
  53   2.0000      -0.460801       -12.5390
  54   2.0000      -0.458279       -12.4704
  55   2.0000      -0.450038       -12.2462
  56   2.0000      -0.444054       -12.0833
  57   2.0000      -0.440874       -11.9968
  58   2.0000      -0.430822       -11.7233
  59   2.0000      -0.426233       -11.5984
  60   2.0000      -0.419529       -11.4160
  61   2.0000      -0.410327       -11.1656
  62   2.0000      -0.399792       -10.8789
  63   2.0000      -0.352534        -9.5929
  64   2.0000      -0.331069        -9.0089
  65   2.0000      -0.329031        -8.9534
  66   2.0000      -0.295451        -8.0396
  67   0.0000       0.033541         0.9127
  68   0.0000       0.064672         1.7598
  69   0.0000       0.103550         2.8178
  70   0.0000       0.116798         3.1782
  71   0.0000       0.120297         3.2734

MULLIKEN ATOMIC CHARGES
-----------------------
   0 S :    0.108412
   1 C :   -0.111824
   2 C :   -0.073160
   3 C :    0.043473
   4 C :   -0.141247
   5 H :   -0.005077
   6 C :    0.057908
   7 H :    0.030068
   8 H :    0.027791
   9 C :   -0.089941
  10 H :    0.050019
  11 H :    0.036266
  12 C :   -0.089526
  13 H :    0.046542
  14 H :    0.031185
  15 H :    0.035001
  16 S :    0.092349
  17 C :   -0.105756
  18 C :    0.008092
  19 C :   -0.051146
  20 C :   -0.135247
  21 H :    0.007513
  22 C :    0.038386
  23 H :    0.043899
  24 H :    0.030205
  25 C :   -0.057789
  26 H :    0.021992
  27 H :    0.015255
  28 C :   -0.107049
  29 H :    0.049191
  30 H :    0.039910
  31 H :    0.041211
  32 H :    0.041350
  33 H :    0.071742
Sum of atomic charges:   -0.0000000

LOEWDIN ATOMIC CHARGES
----------------------
   0 S :    0.397136
   1 C :   -0.184280
   2 C :   -0.053179
   3 C :   -0.059246
   4 C :   -0.193976
   5 H :    0.028316
   6 C :   -0.034132
   7 H :    0.029201
   8 H :    0.032555
   9 C :   -0.037407
  10 H :    0.032009
  11 H :    0.023834
  12 C :   -0.074585
  13 H :    0.029335
  14 H :    0.022384
  15 H :    0.022631
  16 S :    0.369003
  17 C :   -0.161348
  18 C :   -0.052876
  19 C :   -0.062707
  20 C :   -0.190337
  21 H :    0.022382
  22 C :   -0.032256
  23 H :    0.038573
  24 H :    0.029134
  25 C :   -0.044543
  26 H :    0.025026
  27 H :    0.017799
  28 C :   -0.083046
  29 H :    0.032157
  30 H :    0.033541
  31 H :    0.023740
  32 H :    0.020532
  33 H :    0.034632

  Mayer bond orders larger than 0.100000
B(  0-S ,  1-C ) :   1.1306 B(  0-S ,  4-C ) :   1.1253 B(  1-C ,  2-C ) :   1.6369
B(  1-C , 32-H ) :   0.9662 B(  2-C ,  3-C ) :   1.2020 B(  2-C ,  6-C ) :   1.0213
B(  3-C ,  4-C ) :   1.6457 B(  3-C ,  5-H ) :   0.9994 B(  4-C , 20-C ) :   0.9933
B(  6-C ,  7-H ) :   0.9462 B(  6-C ,  8-H ) :   0.9536 B(  6-C ,  9-C ) :   1.0417
B(  9-C , 10-H ) :   0.9600 B(  9-C , 11-H ) :   0.9683 B(  9-C , 12-C ) :   1.0632
B( 12-C , 13-H ) :   0.9761 B( 12-C , 14-H ) :   0.9777 B( 12-C , 15-H ) :   0.9807
B( 16-S , 17-C ) :   1.1258 B( 16-S , 20-C ) :   1.1318 B( 17-C , 18-C ) :   1.6238
B( 17-C , 33-H ) :   0.9661 B( 18-C , 19-C ) :   1.2158 B( 18-C , 21-H ) :   0.9924
B( 19-C , 20-C ) :   1.6330 B( 19-C , 22-C ) :   1.0341 B( 22-C , 23-H ) :   0.9471
B( 22-C , 24-H ) :   0.9390 B( 22-C , 25-C ) :   1.0641 B( 25-C , 26-H ) :   0.9550
B( 25-C , 27-H ) :   0.9595 B( 25-C , 28-C ) :   1.0584 B( 28-C , 29-H ) :   0.9791
B( 28-C , 30-H ) :   0.9742 B( 28-C , 31-H ) :   0.9775

Dispersion correction           -0.014515525
FINAL SINGLE POINT ENERGY     -1339.855790965319

DIPOLE MOMENT
-------------
                                X             Y             Z
Electronic contribution:    -23.34736       4.43950      -4.64249
Nuclear contribution   :     24.00724      -4.43335       4.51972
                        -----------------------------------------
Total Dipole Moment    :      0.65988       0.00615      -0.12277
                        -----------------------------------------
Magnitude (a.u.)       :      0.67123
Magnitude (Debye)      :      1.70613

Rotational constants in cm-1:     0.020342     0.008143     0.006668
Rotational constants in MHz :   609.829719   244.115909   199.915626

                             ****ORCA TERMINATED NORMALLY****
TOTAL RUN TIME: 0 days 0 hours 0 minutes 30 seconds 125 msec
