                         Program Version 4.2.1 -  RELEASE  -
|  1> ! wB97X-D3 SP def2-SVP
|  2> %pal
|  3> nprocs 16
|  4> end
|  5>
|  6> * xyz 0 1
|  7> S 	 22.7161 	 3.08973 	 79.9852
|  8> C 	 23.4027 	 2.898 	 81.604
|  9> C 	 23.165 	 4.05578 	 82.3742
| 10> C 	 22.3061 	 4.97044 	 81.6324
| 11> C 	 21.969 	 4.64932 	 80.3186
| 12> H 	 22.0063 	 5.95364 	 81.95
| 13> C 	 23.6665 	 4.30003 	 83.8066
| 14> H 	 22.8586 	 4.77377 	 84.372
| 15> H 	 24.4412 	 5.0869 	 83.7476
| 16> C 	 24.0847 	 3.1033 	 84.7638
| 17> H 	 23.2708 	 2.36926 	 85.0021
| 18> H 	 24.7889 	 2.41977 	 84.378
| 19> C 	 24.6657 	 3.52681 	 86.1342
| 20> H 	 24.0168 	 4.13959 	 86.7219
| 21> H 	 24.8485 	 2.65314 	 86.7272
| 22> H 	 25.5597 	 4.11831 	 86.0259
| 23> S 	 21.7846 	 5.39798 	 77.6856
| 24> C 	 20.4803 	 6.29594 	 77.086
| 25> C 	 19.6066 	 6.50927 	 78.1073
| 26> C 	 19.9897 	 5.94147 	 79.3895
| 27> C 	 21.1918 	 5.34646 	 79.3143
| 28> H 	 18.6231 	 6.97371 	 77.9185
| 29> C 	 19.0834 	 6.10822 	 80.6219
| 30> H 	 18.3377 	 6.79084 	 80.2507
| 31> H 	 19.5846 	 6.48351 	 81.5139
| 32> C 	 18.4394 	 4.76703 	 81.0023
| 33> H 	 19.2139 	 3.96016 	 80.9222
| 34> H 	 17.7279 	 4.37561 	 80.236
| 35> C 	 17.785 	 4.71383 	 82.3796
| 36> H 	 16.769 	 5.10048 	 82.3411
| 37> H 	 18.3478 	 5.30669 	 83.1315
| 38> H 	 17.6621 	 3.66321 	 82.6813
| 39> H 	 24.0614 	 2.12282 	 81.9285
| 40> H 	 20.2912 	 6.68087 	 76.0965
| 41> *
| 42>
| 43>                          ****END OF INPUT****

CARTESIAN COORDINATES (ANGSTROEM)
---------------------------------
  S     22.716100    3.089730   79.985200
  C     23.402700    2.898000   81.604000
  C     23.165000    4.055780   82.374200
  C     22.306100    4.970440   81.632400
  C     21.969000    4.649320   80.318600
  H     22.006300    5.953640   81.950000
  C     23.666500    4.300030   83.806600
  H     22.858600    4.773770   84.372000
  H     24.441200    5.086900   83.747600
  C     24.084700    3.103300   84.763800
  H     23.270800    2.369260   85.002100
  H     24.788900    2.419770   84.378000
  C     24.665700    3.526810   86.134200
  H     24.016800    4.139590   86.721900
  H     24.848500    2.653140   86.727200
  H     25.559700    4.118310   86.025900
  S     21.784600    5.397980   77.685600
  C     20.480300    6.295940   77.086000
  C     19.606600    6.509270   78.107300
  C     19.989700    5.941470   79.389500
  C     21.191800    5.346460   79.314300
  H     18.623100    6.973710   77.918500
  C     19.083400    6.108220   80.621900
  H     18.337700    6.790840   80.250700
  H     19.584600    6.483510   81.513900
  C     18.439400    4.767030   81.002300
  H     19.213900    3.960160   80.922200
  H     17.727900    4.375610   80.236000
  C     17.785000    4.713830   82.379600
  H     16.769000    5.100480   82.341100
  H     18.347800    5.306690   83.131500
  H     17.662100    3.663210   82.681300
  H     24.061400    2.122820   81.928500
  H     20.291200    6.680870   76.096500

 Total Charge           Charge          ....    0
 Multiplicity           Mult            ....    1
 Number of Electrons    NEL             ....  134
 Basis Dimension        Dim             ....  322

ORBITAL ENERGIES
----------------

  NO   OCC          E(Eh)            E(eV)
   0   2.0000     -88.964349     -2420.8430
   1   2.0000     -88.964129     -2420.8370
   2   2.0000     -10.333872      -281.1989
   3   2.0000     -10.324006      -280.9305
   4   2.0000     -10.317659      -280.7578
   5   2.0000     -10.313969      -280.6574
   6   2.0000     -10.312880      -280.6277
   7   2.0000     -10.306134      -280.4442
   8   2.0000     -10.301573      -280.3200
   9   2.0000     -10.298323      -280.2316
  10   2.0000     -10.295381      -280.1516
  11   2.0000     -10.293535      -280.1013
  12   2.0000     -10.293255      -280.0937
  13   2.0000     -10.284953      -279.8678
  14   2.0000     -10.277485      -279.6646
  15   2.0000     -10.276841      -279.6471
  16   2.0000      -8.080370      -219.8780
  17   2.0000      -8.078428      -219.8252
  18   2.0000      -6.038938      -164.3279
  19   2.0000      -6.037058      -164.2767
  20   2.0000      -6.034547      -164.2084
  21   2.0000      -6.032881      -164.1630
  22   2.0000      -6.031052      -164.1133
  23   2.0000      -6.029227      -164.0636
  24   2.0000      -1.015218       -27.6255
  25   2.0000      -0.982514       -26.7356
  26   2.0000      -0.908709       -24.7272
  27   2.0000      -0.903832       -24.5945
  28   2.0000      -0.873136       -23.7592
  29   2.0000      -0.851102       -23.1597
  30   2.0000      -0.842905       -22.9366
  31   2.0000      -0.816890       -22.2287
  32   2.0000      -0.782807       -21.3013
  33   2.0000      -0.775578       -21.1045
  34   2.0000      -0.713746       -19.4220
  35   2.0000      -0.704764       -19.1776
  36   2.0000      -0.688508       -18.7353
  37   2.0000      -0.666450       -18.1350
  38   2.0000      -0.641728       -17.4623
  39   2.0000      -0.613571       -16.6961
  40   2.0000      -0.598071       -16.2744
  41   2.0000      -0.570494       -15.5239
  42   2.0000      -0.558638       -15.2013
  43   2.0000      -0.556703       -15.1486
  44   2.0000      -0.526722       -14.3328
  45   2.0000      -0.524395       -14.2695
  46   2.0000      -0.520105       -14.1528
  47   2.0000      -0.514901       -14.0112
  48   2.0000      -0.506470       -13.7817
  49   2.0000      -0.501653       -13.6507
  50   2.0000      -0.493107       -13.4181
  51   2.0000      -0.487981       -13.2786
  52   2.0000      -0.478004       -13.0071
  53   2.0000      -0.463073       -12.6009
  54   2.0000      -0.459230       -12.4963
  55   2.0000      -0.445639       -12.1265
  56   2.0000      -0.443386       -12.0652
  57   2.0000      -0.439587       -11.9618
  58   2.0000      -0.437981       -11.9181
  59   2.0000      -0.421506       -11.4698
  60   2.0000      -0.419652       -11.4193
  61   2.0000      -0.414017       -11.2660
  62   2.0000      -0.403249       -10.9730
  63   2.0000      -0.354350        -9.6423
  64   2.0000      -0.329842        -8.9755
  65   2.0000      -0.326743        -8.8911
  66   2.0000      -0.295955        -8.0533
  67   0.0000       0.030495         0.8298
  68   0.0000       0.074942         2.0393
  69   0.0000       0.119561         3.2534
  70   0.0000       0.121038         3.2936
  71   0.0000       0.133864         3.6426

MULLIKEN ATOMIC CHARGES
-----------------------
   0 S :    0.096886
   1 C :   -0.113769
   2 C :   -0.079432
   3 C :    0.023462
   4 C :   -0.151696
   5 H :    0.000589
   6 C :    0.056337
   7 H :    0.033661
   8 H :    0.046890
   9 C :   -0.084644
  10 H :    0.035334
  11 H :    0.017397
  12 C :   -0.041417
  13 H :    0.019410
  14 H :    0.031320
  15 H :    0.028875
  16 S :    0.115323
  17 C :   -0.067574
  18 C :   -0.061741
  19 C :   -0.062581
  20 C :   -0.150567
  21 H :    0.025163
  22 C :    0.132865
  23 H :    0.013787
  24 H :    0.027127
  25 C :   -0.129456
  26 H :    0.043751
  27 H :    0.025769
  28 C :   -0.030968
  29 H :    0.028115
  30 H :    0.032390
  31 H :    0.037600
  32 H :    0.046184
  33 H :    0.055610
Sum of atomic charges:    0.0000000

LOEWDIN ATOMIC CHARGES
----------------------
   0 S :    0.392696
   1 C :   -0.192508
   2 C :   -0.059065
   3 C :   -0.067611
   4 C :   -0.186937
   5 H :    0.024094
   6 C :   -0.034535
   7 H :    0.035601
   8 H :    0.038327
   9 C :   -0.042986
  10 H :    0.032252
  11 H :    0.013881
  12 C :   -0.058710
  13 H :    0.018694
  14 H :    0.027718
  15 H :    0.022789
  16 S :    0.434397
  17 C :   -0.201400
  18 C :   -0.080003
  19 C :   -0.054870
  20 C :   -0.207338
  21 H :    0.031990
  22 C :   -0.022519
  23 H :    0.028457
  24 H :    0.029109
  25 C :   -0.052437
  26 H :    0.029014
  27 H :    0.027558
  28 C :   -0.068636
  29 H :    0.023182
  30 H :    0.025472
  31 H :    0.031612
  32 H :    0.025638
  33 H :    0.037074

  Mayer bond orders larger than 0.100000
B(  0-S ,  1-C ) :   1.1393 B(  0-S ,  4-C ) :   1.1357 B(  1-C ,  2-C ) :   1.6076
B(  1-C ,  4-C ) :   0.1029 B(  1-C , 32-H ) :   0.9695 B(  2-C ,  3-C ) :   1.2404
B(  2-C ,  6-C ) :   1.0120 B(  3-C ,  4-C ) :   1.5899 B(  3-C ,  5-H ) :   0.9933
B(  4-C , 20-C ) :   1.0451 B(  6-C ,  7-H ) :   0.9487 B(  6-C ,  8-H ) :   0.9397
B(  6-C ,  9-C ) :   1.0469 B(  9-C , 10-H ) :   0.9586 B(  9-C , 11-H ) :   0.9558
B(  9-C , 12-C ) :   1.0883 B( 12-C , 13-H ) :   0.9772 B( 12-C , 14-H ) :   0.9729
B( 12-C , 15-H ) :   0.9764 B( 16-S , 17-C ) :   1.1575 B( 16-S , 20-C ) :   1.1385
B( 17-C , 18-C ) :   1.6138 B( 17-C , 33-H ) :   0.9682 B( 18-C , 19-C ) :   1.2504
B( 18-C , 21-H ) :   0.9791 B( 19-C , 20-C ) :   1.6141 B( 19-C , 22-C ) :   1.0375
B( 22-C , 23-H ) :   0.9246 B( 22-C , 24-H ) :   0.9393 B( 22-C , 25-C ) :   1.0555
B( 25-C , 26-H ) :   0.9652 B( 25-C , 27-H ) :   0.9476 B( 25-C , 28-C ) :   1.0810
B( 28-C , 29-H ) :   0.9742 B( 28-C , 30-H ) :   0.9746 B( 28-C , 31-H ) :   0.9725

Dispersion correction           -0.013823397
FINAL SINGLE POINT ENERGY     -1339.881923849968

DIPOLE MOMENT
-------------
                                X             Y             Z
Electronic contribution:      6.09198       0.76967     -29.57715
Nuclear contribution   :     -6.33290      -0.54350      30.11675
                        -----------------------------------------
Total Dipole Moment    :     -0.24092       0.22617       0.53960
                        -----------------------------------------
Magnitude (a.u.)       :      0.63275
Magnitude (Debye)      :      1.60831

Rotational constants in cm-1:     0.020952     0.007589     0.006155
Rotational constants in MHz :   628.139411   227.511110   184.532265

                             ****ORCA TERMINATED NORMALLY****
TOTAL RUN TIME: 0 days 0 hours 0 minutes 33 seconds 696 msec
