                         Program Version 4.2.1 -  RELEASE  -
|  1> ! wB97X-D3 SP def2-SVP
|  2> %pal
|  3> nprocs 16
|  4> end
|  5>
|  6> * xyz 0 1
|  7> S 	 -55.6457 	 40.0595 	 112.036
|  8> C 	 -54.6823 	 41.3048 	 111.246
|  9> C 	 -55.3059 	 41.8268 	 110.091
| 10> C 	 -56.5001 	 41.0426 	 109.755
| 11> C 	 -56.8741 	 40.1721 	 110.8
| 12> H 	 -57.1685 	 41.3102 	 108.9
| 13> C 	 -54.9304 	 43.0289 	 109.306
| 14> H 	 -54.6657 	 43.7161 	 110.125
| 15> H 	 -55.8724 	 43.314 	 108.878
| 16> C 	 -53.7757 	 42.7343 	 108.304
| 17> H 	 -52.9519 	 43.3501 	 108.602
| 18> H 	 -53.3195 	 41.727 	 108.402
| 19> C 	 -54.2277 	 43.0187 	 106.886
| 20> H 	 -54.6459 	 44.0821 	 106.796
| 21> H 	 -53.3893 	 42.967 	 106.227
| 22> H 	 -54.776 	 42.1565 	 106.447
| 23> S 	 -58.2135 	 37.7717 	 111.331
| 24> C 	 -59.9405 	 37.8232 	 111.363
| 25> C 	 -60.4115 	 39.0767 	 111.086
| 26> C 	 -59.3975 	 40.0342 	 111.011
| 27> C 	 -58.1513 	 39.4519 	 111.006
| 28> H 	 -61.469 	 39.3017 	 111.284
| 29> C 	 -59.7727 	 41.4544 	 110.929
| 30> H 	 -60.2893 	 41.7312 	 110.054
| 31> H 	 -58.8575 	 42.1416 	 110.895
| 32> C 	 -60.6604 	 41.8701 	 112.126
| 33> H 	 -60.0412 	 41.7963 	 112.999
| 34> H 	 -61.5662 	 41.2974 	 112.353
| 35> C 	 -61.0892 	 43.2692 	 111.949
| 36> H 	 -60.4568 	 43.9594 	 111.425
| 37> H 	 -61.2238 	 43.6391 	 112.981
| 38> H 	 -61.9702 	 43.2387 	 111.315
| 39> H 	 -53.8587 	 41.7399 	 111.8
| 40> H 	 -60.6569 	 37.0886 	 111.668
| 41> *
| 42>
| 43>                          ****END OF INPUT****

CARTESIAN COORDINATES (ANGSTROEM)
---------------------------------
  S    -55.645700   40.059500  112.036000
  C    -54.682300   41.304800  111.246000
  C    -55.305900   41.826800  110.091000
  C    -56.500100   41.042600  109.755000
  C    -56.874100   40.172100  110.800000
  H    -57.168500   41.310200  108.900000
  C    -54.930400   43.028900  109.306000
  H    -54.665700   43.716100  110.125000
  H    -55.872400   43.314000  108.878000
  C    -53.775700   42.734300  108.304000
  H    -52.951900   43.350100  108.602000
  H    -53.319500   41.727000  108.402000
  C    -54.227700   43.018700  106.886000
  H    -54.645900   44.082100  106.796000
  H    -53.389300   42.967000  106.227000
  H    -54.776000   42.156500  106.447000
  S    -58.213500   37.771700  111.331000
  C    -59.940500   37.823200  111.363000
  C    -60.411500   39.076700  111.086000
  C    -59.397500   40.034200  111.011000
  C    -58.151300   39.451900  111.006000
  H    -61.469000   39.301700  111.284000
  C    -59.772700   41.454400  110.929000
  H    -60.289300   41.731200  110.054000
  H    -58.857500   42.141600  110.895000
  C    -60.660400   41.870100  112.126000
  H    -60.041200   41.796300  112.999000
  H    -61.566200   41.297400  112.353000
  C    -61.089200   43.269200  111.949000
  H    -60.456800   43.959400  111.425000
  H    -61.223800   43.639100  112.981000
  H    -61.970200   43.238700  111.315000
  H    -53.858700   41.739900  111.800000
  H    -60.656900   37.088600  111.668000

 Total Charge           Charge          ....    0
 Multiplicity           Mult            ....    1
 Number of Electrons    NEL             ....  134
 Basis Dimension        Dim             ....  322

ORBITAL ENERGIES
----------------

  NO   OCC          E(Eh)            E(eV)
   0   2.0000     -88.966808     -2420.9099
   1   2.0000     -88.963490     -2420.8196
   2   2.0000     -10.331376      -281.1310
   3   2.0000     -10.319255      -280.8012
   4   2.0000     -10.312499      -280.6174
   5   2.0000     -10.310120      -280.5526
   6   2.0000     -10.304157      -280.3904
   7   2.0000     -10.300796      -280.2989
   8   2.0000     -10.290904      -280.0297
   9   2.0000     -10.290253      -280.0120
  10   2.0000     -10.287506      -279.9373
  11   2.0000     -10.286329      -279.9052
  12   2.0000     -10.283916      -279.8396
  13   2.0000     -10.283642      -279.8321
  14   2.0000     -10.277908      -279.6761
  15   2.0000     -10.269938      -279.4592
  16   2.0000      -8.082358      -219.9322
  17   2.0000      -8.078152      -219.8177
  18   2.0000      -6.040789      -164.3782
  19   2.0000      -6.036801      -164.2697
  20   2.0000      -6.036601      -164.2643
  21   2.0000      -6.033118      -164.1695
  22   2.0000      -6.032599      -164.1554
  23   2.0000      -6.029083      -164.0597
  24   2.0000      -1.010486       -27.4967
  25   2.0000      -0.980272       -26.6746
  26   2.0000      -0.919190       -25.0124
  27   2.0000      -0.913810       -24.8660
  28   2.0000      -0.864761       -23.5314
  29   2.0000      -0.860076       -23.4039
  30   2.0000      -0.846461       -23.0334
  31   2.0000      -0.811297       -22.0765
  32   2.0000      -0.780409       -21.2360
  33   2.0000      -0.766707       -20.8631
  34   2.0000      -0.707269       -19.2458
  35   2.0000      -0.699533       -19.0353
  36   2.0000      -0.694559       -18.8999
  37   2.0000      -0.656800       -17.8724
  38   2.0000      -0.635841       -17.3021
  39   2.0000      -0.615904       -16.7596
  40   2.0000      -0.600813       -16.3489
  41   2.0000      -0.570540       -15.5252
  42   2.0000      -0.567354       -15.4385
  43   2.0000      -0.554713       -15.0945
  44   2.0000      -0.535108       -14.5610
  45   2.0000      -0.530390       -14.4326
  46   2.0000      -0.518918       -14.1205
  47   2.0000      -0.513037       -13.9605
  48   2.0000      -0.501851       -13.6561
  49   2.0000      -0.495493       -13.4830
  50   2.0000      -0.489615       -13.3231
  51   2.0000      -0.473327       -12.8799
  52   2.0000      -0.468010       -12.7352
  53   2.0000      -0.463294       -12.6069
  54   2.0000      -0.459218       -12.4959
  55   2.0000      -0.450060       -12.2467
  56   2.0000      -0.441173       -12.0049
  57   2.0000      -0.440213       -11.9788
  58   2.0000      -0.436356       -11.8739
  59   2.0000      -0.426184       -11.5971
  60   2.0000      -0.415205       -11.2983
  61   2.0000      -0.413772       -11.2593
  62   2.0000      -0.409235       -11.1359
  63   2.0000      -0.340303        -9.2601
  64   2.0000      -0.327825        -8.9206
  65   2.0000      -0.324570        -8.8320
  66   2.0000      -0.290851        -7.9145
  67   0.0000       0.034848         0.9483
  68   0.0000       0.071575         1.9477
  69   0.0000       0.109032         2.9669
  70   0.0000       0.124610         3.3908
  71   0.0000       0.134888         3.6705

MULLIKEN ATOMIC CHARGES
-----------------------
   0 S :    0.102837
   1 C :   -0.121568
   2 C :   -0.163705
   3 C :    0.027955
   4 C :   -0.170661
   5 H :    0.033990
   6 C :    0.086076
   7 H :    0.038780
   8 H :    0.020857
   9 C :   -0.043669
  10 H :    0.019482
  11 H :    0.044105
  12 C :   -0.069595
  13 H :    0.054973
  14 H :    0.015611
  15 H :    0.042634
  16 S :    0.129951
  17 C :   -0.084614
  18 C :   -0.040402
  19 C :   -0.013917
  20 C :   -0.157034
  21 H :    0.025706
  22 C :    0.064089
  23 H :    0.012983
  24 H :    0.036375
  25 C :   -0.104184
  26 H :    0.024802
  27 H :    0.035206
  28 C :   -0.021689
  29 H :    0.016942
  30 H :    0.037912
  31 H :    0.023966
  32 H :    0.050168
  33 H :    0.045640
Sum of atomic charges:    0.0000000

LOEWDIN ATOMIC CHARGES
----------------------
   0 S :    0.401333
   1 C :   -0.210893
   2 C :   -0.053824
   3 C :   -0.072958
   4 C :   -0.188109
   5 H :    0.037810
   6 C :   -0.032333
   7 H :    0.040392
   8 H :    0.028653
   9 C :   -0.040342
  10 H :    0.021521
  11 H :    0.032909
  12 C :   -0.076851
  13 H :    0.038156
  14 H :    0.020675
  15 H :    0.034728
  16 S :    0.431695
  17 C :   -0.190582
  18 C :   -0.072848
  19 C :   -0.060447
  20 C :   -0.223010
  21 H :    0.033625
  22 C :   -0.031496
  23 H :    0.021502
  24 H :    0.039391
  25 C :   -0.039553
  26 H :    0.021042
  27 H :    0.025707
  28 C :   -0.064871
  29 H :    0.018483
  30 H :    0.033608
  31 H :    0.025018
  32 H :    0.022594
  33 H :    0.029271

  Mayer bond orders larger than 0.100000
B(  0-S ,  1-C ) :   1.1335 B(  0-S ,  4-C ) :   1.1759 B(  1-C ,  2-C ) :   1.6015
B(  1-C , 32-H ) :   0.9701 B(  2-C ,  3-C ) :   1.2352 B(  2-C ,  6-C ) :   1.0178
B(  3-C ,  4-C ) :   1.5719 B(  3-C ,  5-H ) :   0.9798 B(  4-C , 20-C ) :   1.0119
B(  6-C ,  7-H ) :   0.9395 B(  6-C ,  8-H ) :   0.9458 B(  6-C ,  9-C ) :   1.0203
B(  9-C , 10-H ) :   0.9528 B(  9-C , 11-H ) :   0.9623 B(  9-C , 12-C ) :   1.0929
B( 12-C , 13-H ) :   0.9741 B( 12-C , 14-H ) :   0.9679 B( 12-C , 15-H ) :   0.9706
B( 16-S , 17-C ) :   1.1594 B( 16-S , 20-C ) :   1.1450 B( 17-C , 18-C ) :   1.6198
B( 17-C , 33-H ) :   0.9644 B( 18-C , 19-C ) :   1.2657 B( 18-C , 21-H ) :   0.9759
B( 19-C , 20-C ) :   1.5810 B( 19-C , 22-C ) :   1.0552 B( 22-C , 23-H ) :   0.9344
B( 22-C , 24-H ) :   0.9248 B( 22-C , 25-C ) :   1.0549 B( 25-C , 26-H ) :   0.9598
B( 25-C , 27-H ) :   0.9554 B( 25-C , 28-C ) :   1.0823 B( 28-C , 29-H ) :   0.9704
B( 28-C , 30-H ) :   0.9732 B( 28-C , 31-H ) :   0.9742

Dispersion correction           -0.013879874
FINAL SINGLE POINT ENERGY     -1339.855700651644

DIPOLE MOMENT
-------------
                                X             Y             Z
Electronic contribution:      3.60747     -24.61092      10.94554
Nuclear contribution   :     -3.80686      25.29465     -11.07864
                        -----------------------------------------
Total Dipole Moment    :     -0.19939       0.68373      -0.13310
                        -----------------------------------------
Magnitude (a.u.)       :      0.72454
Magnitude (Debye)      :      1.84164

Rotational constants in cm-1:     0.018356     0.008105     0.006686
Rotational constants in MHz :   550.292937   242.982707   200.449265

                             ****ORCA TERMINATED NORMALLY****
TOTAL RUN TIME: 0 days 0 hours 0 minutes 29 seconds 710 msec
