                         Program Version 4.2.1 -  RELEASE  -
|  1> ! wB97X-D3 SP def2-SVP
|  2> %pal
|  3> nprocs 16
|  4> end
|  5>
|  6> * xyz 0 1
|  7> S 	 -71.3108 	 48.6523 	 136.032
|  8> C 	 -72.5546 	 49.8653 	 135.677
|  9> C 	 -73.7159 	 49.6227 	 136.363
| 10> C 	 -73.5919 	 48.4111 	 137.111
| 11> C 	 -72.4293 	 47.644 	 136.911
| 12> H 	 -74.4336 	 48.0852 	 137.746
| 13> C 	 -74.9031 	 50.6037 	 136.413
| 14> H 	 -75.8811 	 50.0804 	 136.213
| 15> H 	 -74.8747 	 51.27 	 135.563
| 16> C 	 -74.916 	 51.3202 	 137.717
| 17> H 	 -75.2227 	 50.6118 	 138.495
| 18> H 	 -73.93 	 51.5923 	 138.01
| 19> C 	 -75.8855 	 52.6402 	 137.763
| 20> H 	 -76.9217 	 52.3373 	 137.501
| 21> H 	 -75.7678 	 53.0244 	 138.79
| 22> H 	 -75.502 	 53.2942 	 137.031
| 23> S 	 -73.162 	 45.0931 	 137.142
| 24> C 	 -72.0959 	 43.8997 	 137.86
| 25> C 	 -70.9026 	 44.4468 	 138.198
| 26> C 	 -70.8304 	 45.888 	 137.984
| 27> C 	 -72.0177 	 46.3873 	 137.453
| 28> H 	 -70.0959 	 43.797 	 138.657
| 29> C 	 -69.5246 	 46.6672 	 138.255
| 30> H 	 -69.6794 	 47.203 	 139.14
| 31> H 	 -69.4361 	 47.4799 	 137.527
| 32> C 	 -68.1693 	 45.9158 	 138.391
| 33> H 	 -67.742 	 45.4393 	 137.525
| 34> H 	 -68.4307 	 45.0031 	 138.927
| 35> C 	 -67.0176 	 46.7088 	 139.017
| 36> H 	 -67.2357 	 46.8953 	 140.057
| 37> H 	 -66.8826 	 47.6947 	 138.55
| 38> H 	 -66.0128 	 46.1906 	 138.902
| 39> H 	 -72.3836 	 50.6944 	 135
| 40> H 	 -72.3222 	 42.8525 	 138.039
| 41> *
| 42>
| 43>                          ****END OF INPUT****

CARTESIAN COORDINATES (ANGSTROEM)
---------------------------------
  S    -71.310800   48.652300  136.032000
  C    -72.554600   49.865300  135.677000
  C    -73.715900   49.622700  136.363000
  C    -73.591900   48.411100  137.111000
  C    -72.429300   47.644000  136.911000
  H    -74.433600   48.085200  137.746000
  C    -74.903100   50.603700  136.413000
  H    -75.881100   50.080400  136.213000
  H    -74.874700   51.270000  135.563000
  C    -74.916000   51.320200  137.717000
  H    -75.222700   50.611800  138.495000
  H    -73.930000   51.592300  138.010000
  C    -75.885500   52.640200  137.763000
  H    -76.921700   52.337300  137.501000
  H    -75.767800   53.024400  138.790000
  H    -75.502000   53.294200  137.031000
  S    -73.162000   45.093100  137.142000
  C    -72.095900   43.899700  137.860000
  C    -70.902600   44.446800  138.198000
  C    -70.830400   45.888000  137.984000
  C    -72.017700   46.387300  137.453000
  H    -70.095900   43.797000  138.657000
  C    -69.524600   46.667200  138.255000
  H    -69.679400   47.203000  139.140000
  H    -69.436100   47.479900  137.527000
  C    -68.169300   45.915800  138.391000
  H    -67.742000   45.439300  137.525000
  H    -68.430700   45.003100  138.927000
  C    -67.017600   46.708800  139.017000
  H    -67.235700   46.895300  140.057000
  H    -66.882600   47.694700  138.550000
  H    -66.012800   46.190600  138.902000
  H    -72.383600   50.694400  135.000000
  H    -72.322200   42.852500  138.039000

 Total Charge           Charge          ....    0
 Multiplicity           Mult            ....    1
 Number of Electrons    NEL             ....  134
 Basis Dimension        Dim             ....  322

ORBITAL ENERGIES
----------------

  NO   OCC          E(Eh)            E(eV)
   0   2.0000     -88.964101     -2420.8363
   1   2.0000     -88.963938     -2420.8318
   2   2.0000     -10.332436      -281.1599
   3   2.0000     -10.328119      -281.0424
   4   2.0000     -10.315383      -280.6958
   5   2.0000     -10.315259      -280.6925
   6   2.0000     -10.311466      -280.5892
   7   2.0000     -10.302384      -280.3421
   8   2.0000     -10.299329      -280.2590
   9   2.0000     -10.298203      -280.2284
  10   2.0000     -10.296561      -280.1837
  11   2.0000     -10.291932      -280.0577
  12   2.0000     -10.287124      -279.9269
  13   2.0000     -10.286451      -279.9086
  14   2.0000     -10.285937      -279.8946
  15   2.0000     -10.284058      -279.8434
  16   2.0000      -8.078793      -219.8351
  17   2.0000      -8.078363      -219.8234
  18   2.0000      -6.037524      -164.2894
  19   2.0000      -6.036893      -164.2722
  20   2.0000      -6.033239      -164.1728
  21   2.0000      -6.032938      -164.1646
  22   2.0000      -6.029367      -164.0674
  23   2.0000      -6.029091      -164.0599
  24   2.0000      -1.006677       -27.3931
  25   2.0000      -0.982469       -26.7343
  26   2.0000      -0.912282       -24.8245
  27   2.0000      -0.904542       -24.6138
  28   2.0000      -0.871713       -23.7205
  29   2.0000      -0.848407       -23.0863
  30   2.0000      -0.837842       -22.7988
  31   2.0000      -0.811599       -22.0847
  32   2.0000      -0.784397       -21.3445
  33   2.0000      -0.773194       -21.0397
  34   2.0000      -0.713061       -19.4034
  35   2.0000      -0.706364       -19.2212
  36   2.0000      -0.694934       -18.9101
  37   2.0000      -0.658524       -17.9193
  38   2.0000      -0.633065       -17.2266
  39   2.0000      -0.619847       -16.8669
  40   2.0000      -0.598265       -16.2796
  41   2.0000      -0.570810       -15.5325
  42   2.0000      -0.559103       -15.2140
  43   2.0000      -0.556338       -15.1387
  44   2.0000      -0.527792       -14.3619
  45   2.0000      -0.524295       -14.2668
  46   2.0000      -0.514843       -14.0096
  47   2.0000      -0.512758       -13.9528
  48   2.0000      -0.502557       -13.6753
  49   2.0000      -0.499630       -13.5956
  50   2.0000      -0.493453       -13.4276
  51   2.0000      -0.476818       -12.9749
  52   2.0000      -0.473440       -12.8829
  53   2.0000      -0.464726       -12.6458
  54   2.0000      -0.462437       -12.5836
  55   2.0000      -0.456052       -12.4098
  56   2.0000      -0.449964       -12.2441
  57   2.0000      -0.439696       -11.9647
  58   2.0000      -0.433434       -11.7943
  59   2.0000      -0.422466       -11.4959
  60   2.0000      -0.417234       -11.3535
  61   2.0000      -0.413633       -11.2555
  62   2.0000      -0.402665       -10.9571
  63   2.0000      -0.351788        -9.5726
  64   2.0000      -0.330044        -8.9809
  65   2.0000      -0.328391        -8.9360
  66   2.0000      -0.290285        -7.8991
  67   0.0000       0.025165         0.6848
  68   0.0000       0.075473         2.0537
  69   0.0000       0.110484         3.0064
  70   0.0000       0.117494         3.1972
  71   0.0000       0.129973         3.5367

MULLIKEN ATOMIC CHARGES
-----------------------
   0 S :    0.091202
   1 C :   -0.127426
   2 C :   -0.088329
   3 C :    0.013116
   4 C :   -0.143709
   5 H :    0.019431
   6 C :    0.084315
   7 H :    0.034049
   8 H :    0.008070
   9 C :   -0.095393
  10 H :    0.028905
  11 H :    0.025354
  12 C :   -0.047520
  13 H :    0.042089
  14 H :    0.050829
  15 H :    0.031912
  16 S :    0.105556
  17 C :   -0.080238
  18 C :   -0.080972
  19 C :   -0.041056
  20 C :   -0.145530
  21 H :    0.048530
  22 C :    0.107383
  23 H :    0.019453
  24 H :    0.021686
  25 C :   -0.073831
  26 H :    0.023071
  27 H :    0.015479
  28 C :   -0.067205
  29 H :    0.032308
  30 H :    0.036270
  31 H :    0.047313
  32 H :    0.049730
  33 H :    0.055158
Sum of atomic charges:    0.0000000

LOEWDIN ATOMIC CHARGES
----------------------
   0 S :    0.405526
   1 C :   -0.184188
   2 C :   -0.064013
   3 C :   -0.066247
   4 C :   -0.200172
   5 H :    0.031426
   6 C :   -0.032664
   7 H :    0.035518
   8 H :    0.024290
   9 C :   -0.038746
  10 H :    0.023920
  11 H :    0.018989
  12 C :   -0.057739
  13 H :    0.028401
  14 H :    0.032343
  15 H :    0.016891
  16 S :    0.408481
  17 C :   -0.185852
  18 C :   -0.083172
  19 C :   -0.051718
  20 C :   -0.198867
  21 H :    0.042791
  22 C :   -0.031418
  23 H :    0.029837
  24 H :    0.019753
  25 C :   -0.046694
  26 H :    0.023355
  27 H :    0.019976
  28 C :   -0.066708
  29 H :    0.021710
  30 H :    0.027661
  31 H :    0.037028
  32 H :    0.027343
  33 H :    0.032959

  Mayer bond orders larger than 0.100000
B(  0-S ,  1-C ) :   1.1433 B(  0-S ,  4-C ) :   1.1432 B(  1-C ,  2-C ) :   1.6084
B(  1-C , 32-H ) :   0.9682 B(  2-C ,  3-C ) :   1.2574 B(  2-C ,  6-C ) :   1.0243
B(  3-C ,  4-C ) :   1.5437 B(  3-C ,  5-H ) :   0.9868 B(  4-C , 20-C ) :   1.0698
B(  6-C ,  7-H ) :   0.9354 B(  6-C ,  8-H ) :   0.9432 B(  6-C ,  9-C ) :   1.0556
B(  9-C , 10-H ) :   0.9551 B(  9-C , 11-H ) :   0.9592 B(  9-C , 12-C ) :   1.0671
B( 12-C , 13-H ) :   0.9780 B( 12-C , 14-H ) :   0.9778 B( 12-C , 15-H ) :   0.9803
B( 16-S , 17-C ) :   1.1408 B( 16-S , 20-C ) :   1.1390 B( 17-C , 18-C ) :   1.6468
B( 17-C , 33-H ) :   0.9621 B( 18-C , 19-C ) :   1.2248 B( 18-C , 21-H ) :   0.9719
B( 19-C , 20-C ) :   1.5989 B( 19-C , 22-C ) :   1.0206 B( 22-C , 23-H ) :   0.9254
B( 22-C , 24-H ) :   0.9307 B( 22-C , 25-C ) :   1.0520 B( 25-C , 26-H ) :   0.9576
B( 25-C , 27-H ) :   0.9484 B( 25-C , 28-C ) :   1.0838 B( 28-C , 29-H ) :   0.9759
B( 28-C , 30-H ) :   0.9756 B( 28-C , 31-H ) :   0.9740

Dispersion correction           -0.013297409
FINAL SINGLE POINT ENERGY     -1339.874311761361

DIPOLE MOMENT
-------------
                                X             Y             Z
Electronic contribution:     -4.23224     -14.59351      -9.44631
Nuclear contribution   :      4.30479      14.82924       9.70432
                        -----------------------------------------
Total Dipole Moment    :      0.07255       0.23573       0.25801
                        -----------------------------------------
Magnitude (a.u.)       :      0.35694
Magnitude (Debye)      :      0.90726

Rotational constants in cm-1:     0.021213     0.006928     0.005821
Rotational constants in MHz :   635.958380   207.686285   174.509917

                             ****ORCA TERMINATED NORMALLY****
TOTAL RUN TIME: 0 days 0 hours 0 minutes 32 seconds 236 msec
