                         Program Version 4.2.1 -  RELEASE  -
|  1> ! wB97X-D3 SP def2-SVP
|  2> %pal
|  3> nprocs 16
|  4> end
|  5>
|  6> * xyz 0 1
|  7> S 	 -36.2275 	 34.2681 	 43.5825
|  8> C 	 -35.674 	 32.6761 	 44.1069
|  9> C 	 -34.2865 	 32.714 	 44.3979
| 10> C 	 -33.7405 	 34.0288 	 44.1574
| 11> C 	 -34.6242 	 34.9265 	 43.6176
| 12> H 	 -32.7084 	 34.2963 	 44.3217
| 13> C 	 -33.4386 	 31.5679 	 45.0529
| 14> H 	 -33.8751 	 30.6351 	 44.7184
| 15> H 	 -33.7681 	 31.7224 	 46.1088
| 16> C 	 -31.925 	 31.5728 	 44.9506
| 17> H 	 -31.5905 	 32.5044 	 45.424
| 18> H 	 -31.4793 	 30.7124 	 45.4381
| 19> C 	 -31.4877 	 31.5406 	 43.4462
| 20> H 	 -31.4328 	 32.6097 	 43.1472
| 21> H 	 -30.5427 	 30.9711 	 43.2945
| 22> H 	 -32.1463 	 30.9366 	 42.7704
| 23> S 	 -35.203 	 37.6262 	 43.8283
| 24> C 	 -34.1441 	 38.7316 	 42.9735
| 25> C 	 -33.1291 	 38.1036 	 42.2551
| 26> C 	 -33.2333 	 36.6849 	 42.3726
| 27> C 	 -34.2499 	 36.2648 	 43.2304
| 28> H 	 -32.3132 	 38.711 	 41.7739
| 29> C 	 -32.3341 	 35.7852 	 41.5472
| 30> H 	 -32.5613 	 35.8764 	 40.486
| 31> H 	 -32.6353 	 34.6947 	 41.6573
| 32> C 	 -30.8244 	 36.0204 	 41.5782
| 33> H 	 -30.6233 	 37.0059 	 41.1483
| 34> H 	 -30.4167 	 35.3124 	 40.8878
| 35> C 	 -30.0009 	 35.921 	 42.8994
| 36> H 	 -30.1001 	 36.8434 	 43.4853
| 37> H 	 -28.9686 	 35.7109 	 42.6166
| 38> H 	 -30.2911 	 35.1058 	 43.5607
| 39> H 	 -36.2358 	 31.7626 	 44.3268
| 40> H 	 -34.1938 	 39.8284 	 43.1174
| 41> *
| 42>
| 43>                          ****END OF INPUT****

CARTESIAN COORDINATES (ANGSTROEM)
---------------------------------
  S    -36.227500   34.268100   43.582500
  C    -35.674000   32.676100   44.106900
  C    -34.286500   32.714000   44.397900
  C    -33.740500   34.028800   44.157400
  C    -34.624200   34.926500   43.617600
  H    -32.708400   34.296300   44.321700
  C    -33.438600   31.567900   45.052900
  H    -33.875100   30.635100   44.718400
  H    -33.768100   31.722400   46.108800
  C    -31.925000   31.572800   44.950600
  H    -31.590500   32.504400   45.424000
  H    -31.479300   30.712400   45.438100
  C    -31.487700   31.540600   43.446200
  H    -31.432800   32.609700   43.147200
  H    -30.542700   30.971100   43.294500
  H    -32.146300   30.936600   42.770400
  S    -35.203000   37.626200   43.828300
  C    -34.144100   38.731600   42.973500
  C    -33.129100   38.103600   42.255100
  C    -33.233300   36.684900   42.372600
  C    -34.249900   36.264800   43.230400
  H    -32.313200   38.711000   41.773900
  C    -32.334100   35.785200   41.547200
  H    -32.561300   35.876400   40.486000
  H    -32.635300   34.694700   41.657300
  C    -30.824400   36.020400   41.578200
  H    -30.623300   37.005900   41.148300
  H    -30.416700   35.312400   40.887800
  C    -30.000900   35.921000   42.899400
  H    -30.100100   36.843400   43.485300
  H    -28.968600   35.710900   42.616600
  H    -30.291100   35.105800   43.560700
  H    -36.235800   31.762600   44.326800
  H    -34.193800   39.828400   43.117400

 Total Charge           Charge          ....    0
 Multiplicity           Mult            ....    1
 Number of Electrons    NEL             ....  134
 Basis Dimension        Dim             ....  322

ORBITAL ENERGIES
----------------

  NO   OCC          E(Eh)            E(eV)
   0   2.0000     -88.968717     -2420.9619
   1   2.0000     -88.968034     -2420.9433
   2   2.0000     -10.327245      -281.0186
   3   2.0000     -10.324625      -280.9473
   4   2.0000     -10.322653      -280.8937
   5   2.0000     -10.317467      -280.7525
   6   2.0000     -10.307937      -280.4932
   7   2.0000     -10.306084      -280.4428
   8   2.0000     -10.300915      -280.3021
   9   2.0000     -10.297761      -280.2163
  10   2.0000     -10.293316      -280.0954
  11   2.0000     -10.292646      -280.0771
  12   2.0000     -10.290000      -280.0051
  13   2.0000     -10.287645      -279.9411
  14   2.0000     -10.286481      -279.9094
  15   2.0000     -10.279952      -279.7317
  16   2.0000      -8.082961      -219.9486
  17   2.0000      -8.082558      -219.9376
  18   2.0000      -6.041624      -164.4009
  19   2.0000      -6.041055      -164.3855
  20   2.0000      -6.037521      -164.2893
  21   2.0000      -6.037131      -164.2787
  22   2.0000      -6.033603      -164.1827
  23   2.0000      -6.033320      -164.1750
  24   2.0000      -1.004881       -27.3442
  25   2.0000      -0.979829       -26.6625
  26   2.0000      -0.909437       -24.7470
  27   2.0000      -0.905277       -24.6338
  28   2.0000      -0.868014       -23.6199
  29   2.0000      -0.849263       -23.1096
  30   2.0000      -0.839257       -22.8373
  31   2.0000      -0.811269       -22.0757
  32   2.0000      -0.785406       -21.3720
  33   2.0000      -0.772322       -21.0159
  34   2.0000      -0.709078       -19.2950
  35   2.0000      -0.695853       -18.9351
  36   2.0000      -0.690861       -18.7993
  37   2.0000      -0.654012       -17.7966
  38   2.0000      -0.633117       -17.2280
  39   2.0000      -0.622070       -16.9274
  40   2.0000      -0.597156       -16.2494
  41   2.0000      -0.566083       -15.4039
  42   2.0000      -0.547181       -14.8896
  43   2.0000      -0.546606       -14.8739
  44   2.0000      -0.542925       -14.7737
  45   2.0000      -0.538558       -14.6549
  46   2.0000      -0.517163       -14.0727
  47   2.0000      -0.509579       -13.8663
  48   2.0000      -0.500472       -13.6185
  49   2.0000      -0.496235       -13.5033
  50   2.0000      -0.491400       -13.3717
  51   2.0000      -0.475580       -12.9412
  52   2.0000      -0.467642       -12.7252
  53   2.0000      -0.464918       -12.6511
  54   2.0000      -0.461006       -12.5446
  55   2.0000      -0.450207       -12.2507
  56   2.0000      -0.441748       -12.0206
  57   2.0000      -0.437329       -11.9003
  58   2.0000      -0.435190       -11.8421
  59   2.0000      -0.425637       -11.5822
  60   2.0000      -0.419757       -11.4222
  61   2.0000      -0.414699       -11.2845
  62   2.0000      -0.409861       -11.1529
  63   2.0000      -0.344852        -9.3839
  64   2.0000      -0.333049        -9.0627
  65   2.0000      -0.326341        -8.8802
  66   2.0000      -0.289312        -7.8726
  67   0.0000       0.030580         0.8321
  68   0.0000       0.068521         1.8646
  69   0.0000       0.108711         2.9582
  70   0.0000       0.117197         3.1891
  71   0.0000       0.124693         3.3931

MULLIKEN ATOMIC CHARGES
-----------------------
   0 S :    0.122431
   1 C :   -0.127282
   2 C :   -0.115486
   3 C :    0.022912
   4 C :   -0.141594
   5 H :   -0.004563
   6 C :    0.043034
   7 H :    0.023435
   8 H :    0.053357
   9 C :   -0.053701
  10 H :    0.038729
  11 H :    0.038673
  12 C :   -0.092852
  13 H :    0.047595
  14 H :    0.036041
  15 H :    0.040041
  16 S :    0.110749
  17 C :   -0.108672
  18 C :   -0.058849
  19 C :   -0.001558
  20 C :   -0.167491
  21 H :    0.048692
  22 C :    0.033695
  23 H :    0.031967
  24 H :    0.038133
  25 C :   -0.078658
  26 H :    0.024497
  27 H :    0.024176
  28 C :   -0.050793
  29 H :    0.042810
  30 H :    0.035862
  31 H :    0.025718
  32 H :    0.050001
  33 H :    0.068948
Sum of atomic charges:    0.0000000

LOEWDIN ATOMIC CHARGES
----------------------
   0 S :    0.410528
   1 C :   -0.212786
   2 C :   -0.054961
   3 C :   -0.067509
   4 C :   -0.202933
   5 H :    0.025024
   6 C :   -0.035091
   7 H :    0.025116
   8 H :    0.041963
   9 C :   -0.041976
  10 H :    0.026220
  11 H :    0.028998
  12 C :   -0.076072
  13 H :    0.028218
  14 H :    0.028262
  15 H :    0.030399
  16 S :    0.398030
  17 C :   -0.183844
  18 C :   -0.078410
  19 C :   -0.054362
  20 C :   -0.194224
  21 H :    0.044676
  22 C :   -0.043951
  23 H :    0.038154
  24 H :    0.037096
  25 C :   -0.041027
  26 H :    0.022478
  27 H :    0.024423
  28 C :   -0.068786
  29 H :    0.028542
  30 H :    0.029912
  31 H :    0.020256
  32 H :    0.033934
  33 H :    0.033701

  Mayer bond orders larger than 0.100000
B(  0-S ,  1-C ) :   1.1291 B(  0-S ,  4-C ) :   1.1486 B(  1-C ,  2-C ) :   1.6141
B(  1-C , 32-H ) :   0.9666 B(  2-C ,  3-C ) :   1.2456 B(  2-C ,  6-C ) :   0.9873
B(  3-C ,  4-C ) :   1.5658 B(  3-C ,  5-H ) :   0.9920 B(  4-C , 20-C ) :   1.0521
B(  6-C ,  7-H ) :   0.9448 B(  6-C ,  8-H ) :   0.9408 B(  6-C ,  9-C ) :   1.0841
B(  9-C , 10-H ) :   0.9530 B(  9-C , 11-H ) :   0.9561 B(  9-C , 12-C ) :   1.0608
B( 12-C , 13-H ) :   0.9735 B( 12-C , 14-H ) :   0.9772 B( 12-C , 15-H ) :   0.9778
B( 16-S , 17-C ) :   1.1585 B( 16-S , 20-C ) :   1.1289 B( 17-C , 18-C ) :   1.6216
B( 17-C , 33-H ) :   0.9608 B( 18-C , 19-C ) :   1.2266 B( 18-C , 21-H ) :   0.9799
B( 19-C , 20-C ) :   1.6013 B( 19-C , 22-C ) :   1.0420 B( 22-C , 23-H ) :   0.9294
B( 22-C , 24-H ) :   0.9334 B( 22-C , 25-C ) :   1.0795 B( 25-C , 26-H ) :   0.9520
B( 25-C , 27-H ) :   0.9546 B( 25-C , 28-C ) :   1.0699 B( 28-C , 29-H ) :   0.9751
B( 28-C , 30-H ) :   0.9741 B( 28-C , 31-H ) :   0.9752

Dispersion correction           -0.015755237
FINAL SINGLE POINT ENERGY     -1339.882126585851

DIPOLE MOMENT
-------------
                                X             Y             Z
Electronic contribution:    -27.78429      13.93472       3.01736
Nuclear contribution   :     28.50955     -14.18996      -3.05401
                        -----------------------------------------
Total Dipole Moment    :      0.72527      -0.25524      -0.03665
                        -----------------------------------------
Magnitude (a.u.)       :      0.76974
Magnitude (Debye)      :      1.95653

Rotational constants in cm-1:     0.016884     0.011011     0.007312
Rotational constants in MHz :   506.171532   330.100133   219.199364

                             ****ORCA TERMINATED NORMALLY****
TOTAL RUN TIME: 0 days 0 hours 0 minutes 35 seconds 851 msec
