                         Program Version 4.2.1 -  RELEASE  -
|  1> ! wB97X-D3 SP def2-SVP
|  2> %pal
|  3> nprocs 16
|  4> end
|  5>
|  6> * xyz 0 1
|  7> S 	 22.6395 	 -0.497808 	 82.0651
|  8> C 	 23.843 	 0.126345 	 80.9912
|  9> C 	 23.5754 	 1.48798 	 80.7944
| 10> C 	 22.3329 	 1.95993 	 81.2564
| 11> C 	 21.591 	 0.921803 	 81.8312
| 12> H 	 21.8768 	 2.91226 	 81.2811
| 13> C 	 24.5318 	 2.4237 	 80.1307
| 14> H 	 24.5185 	 2.41034 	 79.0377
| 15> H 	 25.4748 	 1.97303 	 80.4749
| 16> C 	 24.5558 	 3.90193 	 80.6231
| 17> H 	 23.6067 	 4.52995 	 80.5411
| 18> H 	 24.5434 	 3.75038 	 81.6872
| 19> C 	 25.8254 	 4.61704 	 80.0704
| 20> H 	 26.7695 	 4.06874 	 80.2186
| 21> H 	 25.8618 	 4.64815 	 78.9644
| 22> H 	 25.8542 	 5.61974 	 80.5219
| 23> S 	 19.9442 	 1.00669 	 84.1017
| 24> C 	 18.2264 	 0.926472 	 83.8535
| 25> C 	 17.8775 	 1.0101 	 82.5286
| 26> C 	 18.9857 	 1.04689 	 81.6564
| 27> C 	 20.1945 	 0.97042 	 82.3751
| 28> H 	 16.7952 	 1.00099 	 82.2412
| 29> C 	 18.8872 	 0.995145 	 80.1641
| 30> H 	 19.6218 	 1.70253 	 79.7945
| 31> H 	 17.9435 	 1.41052 	 79.8482
| 32> C 	 19.0546 	 -0.319962 	 79.4038
| 33> H 	 18.2595 	 -0.928695 	 79.9563
| 34> H 	 20.0196 	 -0.759574 	 79.6368
| 35> C 	 18.8231 	 -0.319478 	 77.9207
| 36> H 	 19.1588 	 -1.33998 	 77.5466
| 37> H 	 19.3264 	 0.463255 	 77.4429
| 38> H 	 17.7717 	 -0.283678 	 77.6123
| 39> H 	 24.7649 	 -0.353674 	 80.7488
| 40> H 	 17.4586 	 0.769938 	 84.5987
| 41> *
| 42>
| 43>                          ****END OF INPUT****

CARTESIAN COORDINATES (ANGSTROEM)
---------------------------------
  S     22.639500   -0.497808   82.065100
  C     23.843000    0.126345   80.991200
  C     23.575400    1.487980   80.794400
  C     22.332900    1.959930   81.256400
  C     21.591000    0.921803   81.831200
  H     21.876800    2.912260   81.281100
  C     24.531800    2.423700   80.130700
  H     24.518500    2.410340   79.037700
  H     25.474800    1.973030   80.474900
  C     24.555800    3.901930   80.623100
  H     23.606700    4.529950   80.541100
  H     24.543400    3.750380   81.687200
  C     25.825400    4.617040   80.070400
  H     26.769500    4.068740   80.218600
  H     25.861800    4.648150   78.964400
  H     25.854200    5.619740   80.521900
  S     19.944200    1.006690   84.101700
  C     18.226400    0.926472   83.853500
  C     17.877500    1.010100   82.528600
  C     18.985700    1.046890   81.656400
  C     20.194500    0.970420   82.375100
  H     16.795200    1.000990   82.241200
  C     18.887200    0.995145   80.164100
  H     19.621800    1.702530   79.794500
  H     17.943500    1.410520   79.848200
  C     19.054600   -0.319962   79.403800
  H     18.259500   -0.928695   79.956300
  H     20.019600   -0.759574   79.636800
  C     18.823100   -0.319478   77.920700
  H     19.158800   -1.339980   77.546600
  H     19.326400    0.463255   77.442900
  H     17.771700   -0.283678   77.612300
  H     24.764900   -0.353674   80.748800
  H     17.458600    0.769938   84.598700

 Total Charge           Charge          ....    0
 Multiplicity           Mult            ....    1
 Number of Electrons    NEL             ....  134
 Basis Dimension        Dim             ....  322

ORBITAL ENERGIES
----------------

  NO   OCC          E(Eh)            E(eV)
   0   2.0000     -88.969770     -2420.9905
   1   2.0000     -88.966901     -2420.9125
   2   2.0000     -10.333650      -281.1929
   3   2.0000     -10.327842      -281.0349
   4   2.0000     -10.313969      -280.6574
   5   2.0000     -10.313825      -280.6534
   6   2.0000     -10.302718      -280.3512
   7   2.0000     -10.300639      -280.2946
   8   2.0000     -10.294482      -280.1271
   9   2.0000     -10.294168      -280.1185
  10   2.0000     -10.293260      -280.0938
  11   2.0000     -10.289655      -279.9957
  12   2.0000     -10.286725      -279.9160
  13   2.0000     -10.282727      -279.8072
  14   2.0000     -10.282380      -279.7978
  15   2.0000     -10.276291      -279.6321
  16   2.0000      -8.084490      -219.9901
  17   2.0000      -8.081206      -219.9008
  18   2.0000      -6.042884      -164.4352
  19   2.0000      -6.039587      -164.3455
  20   2.0000      -6.039014      -164.3299
  21   2.0000      -6.035787      -164.2421
  22   2.0000      -6.035367      -164.2307
  23   2.0000      -6.032105      -164.1419
  24   2.0000      -1.005109       -27.3504
  25   2.0000      -0.987053       -26.8591
  26   2.0000      -0.909202       -24.7407
  27   2.0000      -0.907720       -24.7003
  28   2.0000      -0.865046       -23.5391
  29   2.0000      -0.854475       -23.2514
  30   2.0000      -0.846935       -23.0463
  31   2.0000      -0.817413       -22.2429
  32   2.0000      -0.781510       -21.2660
  33   2.0000      -0.765706       -20.8359
  34   2.0000      -0.712410       -19.3857
  35   2.0000      -0.695301       -18.9201
  36   2.0000      -0.687413       -18.7055
  37   2.0000      -0.655305       -17.8318
  38   2.0000      -0.647827       -17.6283
  39   2.0000      -0.617836       -16.8122
  40   2.0000      -0.594884       -16.1876
  41   2.0000      -0.571393       -15.5484
  42   2.0000      -0.562800       -15.3146
  43   2.0000      -0.557266       -15.1640
  44   2.0000      -0.531180       -14.4541
  45   2.0000      -0.522431       -14.2161
  46   2.0000      -0.514806       -14.0086
  47   2.0000      -0.511443       -13.9171
  48   2.0000      -0.505467       -13.7545
  49   2.0000      -0.495342       -13.4789
  50   2.0000      -0.492350       -13.3975
  51   2.0000      -0.480847       -13.0845
  52   2.0000      -0.474366       -12.9082
  53   2.0000      -0.463854       -12.6221
  54   2.0000      -0.457093       -12.4381
  55   2.0000      -0.452092       -12.3020
  56   2.0000      -0.447456       -12.1759
  57   2.0000      -0.435536       -11.8515
  58   2.0000      -0.431460       -11.7406
  59   2.0000      -0.420955       -11.4548
  60   2.0000      -0.419395       -11.4123
  61   2.0000      -0.407970       -11.1014
  62   2.0000      -0.405934       -11.0460
  63   2.0000      -0.339623        -9.2416
  64   2.0000      -0.333636        -9.0787
  65   2.0000      -0.321938        -8.7604
  66   2.0000      -0.297660        -8.0997
  67   0.0000       0.032116         0.8739
  68   0.0000       0.053642         1.4597
  69   0.0000       0.113808         3.0969
  70   0.0000       0.120442         3.2774
  71   0.0000       0.136644         3.7183

MULLIKEN ATOMIC CHARGES
-----------------------
   0 S :    0.115835
   1 C :   -0.101389
   2 C :   -0.095290
   3 C :    0.075266
   4 C :   -0.190836
   5 H :    0.005156
   6 C :    0.044932
   7 H :    0.046135
   8 H :    0.018834
   9 C :   -0.109166
  10 H :    0.045756
  11 H :    0.023677
  12 C :   -0.042573
  13 H :    0.028306
  14 H :    0.031434
  15 H :    0.047821
  16 S :    0.130390
  17 C :   -0.089943
  18 C :   -0.060520
  19 C :   -0.017974
  20 C :   -0.192676
  21 H :    0.033349
  22 C :    0.100496
  23 H :    0.008148
  24 H :    0.001094
  25 C :   -0.079809
  26 H :    0.026034
  27 H :    0.033179
  28 C :   -0.026067
  29 H :    0.042332
  30 H :    0.025304
  31 H :    0.028328
  32 H :    0.043019
  33 H :    0.051419
Sum of atomic charges:    0.0000000

LOEWDIN ATOMIC CHARGES
----------------------
   0 S :    0.409911
   1 C :   -0.204920
   2 C :   -0.066827
   3 C :   -0.056419
   4 C :   -0.182840
   5 H :    0.030831
   6 C :   -0.038224
   7 H :    0.029051
   8 H :    0.033303
   9 C :   -0.050139
  10 H :    0.030119
  11 H :    0.021674
  12 C :   -0.069402
  13 H :    0.027734
  14 H :    0.028581
  15 H :    0.031216
  16 S :    0.420300
  17 C :   -0.193137
  18 C :   -0.076400
  19 C :   -0.053289
  20 C :   -0.209756
  21 H :    0.040955
  22 C :   -0.038503
  23 H :    0.026014
  24 H :    0.024824
  25 C :   -0.043449
  26 H :    0.030186
  27 H :    0.023043
  28 C :   -0.063466
  29 H :    0.040011
  30 H :    0.017201
  31 H :    0.025966
  32 H :    0.025859
  33 H :    0.029991

  Mayer bond orders larger than 0.100000
B(  0-S ,  1-C ) :   1.1478 B(  0-S ,  4-C ) :   1.1700 B(  1-C ,  2-C ) :   1.5765
B(  1-C ,  4-C ) :   0.1124 B(  1-C , 32-H ) :   0.9762 B(  2-C ,  3-C ) :   1.2439
B(  2-C ,  6-C ) :   1.0085 B(  3-C ,  4-C ) :   1.5490 B(  3-C ,  5-H ) :   1.0034
B(  4-C , 20-C ) :   1.0108 B(  6-C ,  7-H ) :   0.9401 B(  6-C ,  8-H ) :   0.9442
B(  6-C ,  9-C ) :   1.0662 B(  9-C , 10-H ) :   0.9495 B(  9-C , 11-H ) :   0.9570
B(  9-C , 12-C ) :   1.0720 B( 12-C , 13-H ) :   0.9740 B( 12-C , 14-H ) :   0.9745
B( 12-C , 15-H ) :   0.9739 B( 16-S , 17-C ) :   1.1558 B( 16-S , 20-C ) :   1.1645
B( 17-C , 18-C ) :   1.6119 B( 17-C , 33-H ) :   0.9635 B( 18-C , 19-C ) :   1.2619
B( 18-C , 21-H ) :   0.9816 B( 19-C , 20-C ) :   1.5681 B( 19-C , 22-C ) :   1.0617
B( 22-C , 23-H ) :   0.9077 B( 22-C , 24-H ) :   0.9294 B( 22-C , 25-C ) :   1.0644
B( 25-C , 26-H ) :   0.9534 B( 25-C , 27-H ) :   0.9544 B( 25-C , 28-C ) :   1.0845
B( 28-C , 29-H ) :   0.9718 B( 28-C , 30-H ) :   0.9749 B( 28-C , 31-H ) :   0.9725

Dispersion correction           -0.014139954
FINAL SINGLE POINT ENERGY     -1339.866090655946

DIPOLE MOMENT
-------------
                                X             Y             Z
Electronic contribution:     -5.35677     -10.16429      22.20744
Nuclear contribution   :      5.37046      10.44876     -22.56874
                        -----------------------------------------
Total Dipole Moment    :      0.01369       0.28447      -0.36130
                        -----------------------------------------
Magnitude (a.u.)       :      0.46005
Magnitude (Debye)      :      1.16936

Rotational constants in cm-1:     0.017570     0.008129     0.007021
Rotational constants in MHz :   526.739734   243.701696   210.478722

                             ****ORCA TERMINATED NORMALLY****
TOTAL RUN TIME: 0 days 0 hours 0 minutes 34 seconds 748 msec
