                         Program Version 4.2.1 -  RELEASE  -
|  1> ! wB97X-D3 SP def2-SVP
|  2> %pal
|  3> nprocs 16
|  4> end
|  5>
|  6> * xyz 0 1
|  7> S 	 -48.1904 	 63.739 	 132.056
|  8> C 	 -46.785 	 64.7754 	 132.179
|  9> C 	 -46.0617 	 64.7536 	 130.987
| 10> C 	 -46.6559 	 63.8129 	 130.049
| 11> C 	 -47.7124 	 63.1368 	 130.472
| 12> H 	 -46.2954 	 63.6376 	 129.107
| 13> C 	 -44.8844 	 65.5921 	 130.734
| 14> H 	 -44.9871 	 66.3828 	 131.521
| 15> H 	 -45.0109 	 65.9698 	 129.709
| 16> C 	 -43.5178 	 64.7634 	 130.946
| 17> H 	 -43.5141 	 64.2269 	 131.902
| 18> H 	 -43.3618 	 64.0145 	 130.13
| 19> C 	 -42.2749 	 65.6362 	 130.953
| 20> H 	 -42.1027 	 65.8895 	 129.96
| 21> H 	 -42.3545 	 66.6104 	 131.506
| 22> H 	 -41.4737 	 65.0208 	 131.367
| 23> S 	 -50.1281 	 62.0349 	 129.847
| 24> C 	 -50.1976 	 60.5153 	 128.972
| 25> C 	 -48.8893 	 60.227 	 128.551
| 26> C 	 -47.8598 	 61.0673 	 128.994
| 27> C 	 -48.3916 	 62.0646 	 129.783
| 28> H 	 -48.6751 	 59.3435 	 127.998
| 29> C 	 -46.412 	 60.7737 	 128.605
| 30> H 	 -46.2806 	 61.6098 	 127.889
| 31> H 	 -46.5012 	 59.8612 	 128.004
| 32> C 	 -45.3432 	 60.5859 	 129.677
| 33> H 	 -45.4814 	 59.6246 	 130.254
| 34> H 	 -45.4182 	 61.3838 	 130.365
| 35> C 	 -43.9301 	 60.6194 	 129.196
| 36> H 	 -43.2387 	 60.3865 	 129.893
| 37> H 	 -43.7002 	 61.6446 	 128.915
| 38> H 	 -43.8072 	 59.9254 	 128.374
| 39> H 	 -46.649 	 65.3842 	 133.034
| 40> H 	 -51.1203 	 60.0355 	 128.604
| 41> *
| 42>
| 43>                          ****END OF INPUT****

CARTESIAN COORDINATES (ANGSTROEM)
---------------------------------
  S    -48.190400   63.739000  132.056000
  C    -46.785000   64.775400  132.179000
  C    -46.061700   64.753600  130.987000
  C    -46.655900   63.812900  130.049000
  C    -47.712400   63.136800  130.472000
  H    -46.295400   63.637600  129.107000
  C    -44.884400   65.592100  130.734000
  H    -44.987100   66.382800  131.521000
  H    -45.010900   65.969800  129.709000
  C    -43.517800   64.763400  130.946000
  H    -43.514100   64.226900  131.902000
  H    -43.361800   64.014500  130.130000
  C    -42.274900   65.636200  130.953000
  H    -42.102700   65.889500  129.960000
  H    -42.354500   66.610400  131.506000
  H    -41.473700   65.020800  131.367000
  S    -50.128100   62.034900  129.847000
  C    -50.197600   60.515300  128.972000
  C    -48.889300   60.227000  128.551000
  C    -47.859800   61.067300  128.994000
  C    -48.391600   62.064600  129.783000
  H    -48.675100   59.343500  127.998000
  C    -46.412000   60.773700  128.605000
  H    -46.280600   61.609800  127.889000
  H    -46.501200   59.861200  128.004000
  C    -45.343200   60.585900  129.677000
  H    -45.481400   59.624600  130.254000
  H    -45.418200   61.383800  130.365000
  C    -43.930100   60.619400  129.196000
  H    -43.238700   60.386500  129.893000
  H    -43.700200   61.644600  128.915000
  H    -43.807200   59.925400  128.374000
  H    -46.649000   65.384200  133.034000
  H    -51.120300   60.035500  128.604000

 Total Charge           Charge          ....    0
 Multiplicity           Mult            ....    1
 Number of Electrons    NEL             ....  134
 Basis Dimension        Dim             ....  322

ORBITAL ENERGIES
----------------

  NO   OCC          E(Eh)            E(eV)
   0   2.0000     -88.966381     -2420.8983
   1   2.0000     -88.958318     -2420.6789
   2   2.0000     -10.323704      -280.9223
   3   2.0000     -10.321596      -280.8649
   4   2.0000     -10.321113      -280.8518
   5   2.0000     -10.311598      -280.5929
   6   2.0000     -10.300692      -280.2961
   7   2.0000     -10.300088      -280.2796
   8   2.0000     -10.299976      -280.2766
   9   2.0000     -10.298923      -280.2479
  10   2.0000     -10.295997      -280.1683
  11   2.0000     -10.290538      -280.0198
  12   2.0000     -10.282805      -279.8094
  13   2.0000     -10.281721      -279.7799
  14   2.0000     -10.275090      -279.5994
  15   2.0000     -10.266799      -279.3738
  16   2.0000      -8.081177      -219.9000
  17   2.0000      -8.073377      -219.6877
  18   2.0000      -6.039645      -164.3471
  19   2.0000      -6.035600      -164.2370
  20   2.0000      -6.032058      -164.1406
  21   2.0000      -6.031985      -164.1387
  22   2.0000      -6.027825      -164.0255
  23   2.0000      -6.024026      -163.9221
  24   2.0000      -1.010763       -27.5042
  25   2.0000      -0.985554       -26.8183
  26   2.0000      -0.914488       -24.8845
  27   2.0000      -0.909823       -24.7576
  28   2.0000      -0.872163       -23.7328
  29   2.0000      -0.863129       -23.4869
  30   2.0000      -0.850313       -23.1382
  31   2.0000      -0.818968       -22.2852
  32   2.0000      -0.786580       -21.4039
  33   2.0000      -0.767260       -20.8782
  34   2.0000      -0.710070       -19.3220
  35   2.0000      -0.698639       -19.0109
  36   2.0000      -0.692317       -18.8389
  37   2.0000      -0.668263       -18.1844
  38   2.0000      -0.648145       -17.6369
  39   2.0000      -0.621766       -16.9191
  40   2.0000      -0.592285       -16.1169
  41   2.0000      -0.574335       -15.6284
  42   2.0000      -0.571378       -15.5480
  43   2.0000      -0.552309       -15.0291
  44   2.0000      -0.533071       -14.5056
  45   2.0000      -0.531938       -14.4748
  46   2.0000      -0.523492       -14.2449
  47   2.0000      -0.519689       -14.1415
  48   2.0000      -0.511692       -13.9239
  49   2.0000      -0.501316       -13.6415
  50   2.0000      -0.498344       -13.5606
  51   2.0000      -0.487877       -13.2758
  52   2.0000      -0.472588       -12.8598
  53   2.0000      -0.463157       -12.6031
  54   2.0000      -0.457714       -12.4550
  55   2.0000      -0.446392       -12.1469
  56   2.0000      -0.441647       -12.0178
  57   2.0000      -0.436512       -11.8781
  58   2.0000      -0.434484       -11.8229
  59   2.0000      -0.428736       -11.6665
  60   2.0000      -0.420171       -11.4334
  61   2.0000      -0.418132       -11.3780
  62   2.0000      -0.413090       -11.2407
  63   2.0000      -0.353667        -9.6238
  64   2.0000      -0.333595        -9.0776
  65   2.0000      -0.323228        -8.7955
  66   2.0000      -0.287667        -7.8278
  67   0.0000       0.026844         0.7305
  68   0.0000       0.077877         2.1192
  69   0.0000       0.108294         2.9468
  70   0.0000       0.122391         3.3304
  71   0.0000       0.132228         3.5981

MULLIKEN ATOMIC CHARGES
-----------------------
   0 S :    0.090595
   1 C :   -0.121196
   2 C :   -0.088479
   3 C :    0.036991
   4 C :   -0.105059
   5 H :   -0.046355
   6 C :    0.065260
   7 H :    0.030335
   8 H :    0.039963
   9 C :   -0.114131
  10 H :    0.035839
  11 H :    0.039572
  12 C :   -0.020302
  13 H :    0.013908
  14 H :    0.035744
  15 H :    0.038072
  16 S :    0.111363
  17 C :   -0.100189
  18 C :   -0.044153
  19 C :   -0.040984
  20 C :   -0.165732
  21 H :    0.003099
  22 C :    0.066745
  23 H :    0.044829
  24 H :    0.012517
  25 C :   -0.052544
  26 H :    0.038037
  27 H :    0.029339
  28 C :    0.009205
  29 H :    0.007817
  30 H :    0.016490
  31 H :    0.021075
  32 H :    0.038772
  33 H :    0.073557
Sum of atomic charges:    0.0000000

LOEWDIN ATOMIC CHARGES
----------------------
   0 S :    0.385230
   1 C :   -0.190256
   2 C :   -0.060539
   3 C :   -0.061161
   4 C :   -0.183379
   5 H :    0.012626
   6 C :   -0.033873
   7 H :    0.037790
   8 H :    0.036298
   9 C :   -0.038653
  10 H :    0.024790
  11 H :    0.027514
  12 C :   -0.065773
  13 H :    0.014045
  14 H :    0.029045
  15 H :    0.029574
  16 S :    0.415145
  17 C :   -0.195740
  18 C :   -0.068105
  19 C :   -0.060141
  20 C :   -0.197532
  21 H :    0.022526
  22 C :   -0.029287
  23 H :    0.038119
  24 H :    0.031061
  25 C :   -0.039692
  26 H :    0.033819
  27 H :    0.020037
  28 C :   -0.050562
  29 H :    0.013048
  30 H :    0.022757
  31 H :    0.023315
  32 H :    0.019619
  33 H :    0.038337

  Mayer bond orders larger than 0.100000
B(  0-S ,  1-C ) :   1.1312 B(  0-S ,  4-C ) :   1.1268 B(  1-C ,  2-C ) :   1.6070
B(  1-C , 32-H ) :   0.9774 B(  2-C ,  3-C ) :   1.2005 B(  2-C ,  6-C ) :   1.0405
B(  3-C ,  4-C ) :   1.6015 B(  3-C ,  5-H ) :   1.0177 B(  4-C , 20-C ) :   1.0464
B(  6-C ,  7-H ) :   0.9396 B(  6-C ,  8-H ) :   0.9349 B(  6-C ,  9-C ) :   1.0496
B(  9-C , 10-H ) :   0.9637 B(  9-C , 11-H ) :   0.9542 B(  9-C , 12-C ) :   1.0818
B( 12-C , 13-H ) :   0.9748 B( 12-C , 14-H ) :   0.9746 B( 12-C , 15-H ) :   0.9748
B( 16-S , 17-C ) :   1.1522 B( 16-S , 20-C ) :   1.1651 B( 17-C , 18-C ) :   1.5674
B( 17-C , 20-C ) :   0.1103 B( 17-C , 33-H ) :   0.9675 B( 18-C , 19-C ) :   1.2975
B( 18-C , 21-H ) :   0.9838 B( 19-C , 20-C ) :   1.5632 B( 19-C , 22-C ) :   1.0112
B( 22-C , 23-H ) :   0.9326 B( 22-C , 24-H ) :   0.9242 B( 22-C , 25-C ) :   1.0621
B( 25-C , 26-H ) :   0.9496 B( 25-C , 27-H ) :   0.9556 B( 25-C , 28-C ) :   1.0974
B( 28-C , 29-H ) :   0.9679 B( 28-C , 30-H ) :   0.9704 B( 28-C , 31-H ) :   0.9713

Dispersion correction           -0.015053504
FINAL SINGLE POINT ENERGY     -1339.870172043915

DIPOLE MOMENT
-------------
                                X             Y             Z
Electronic contribution:    -32.75772      -0.86343       5.16603
Nuclear contribution   :     33.45669       0.80767      -5.51217
                        -----------------------------------------
Total Dipole Moment    :      0.69896      -0.05576      -0.34613
                        -----------------------------------------
Magnitude (a.u.)       :      0.78196
Magnitude (Debye)      :      1.98759

Rotational constants in cm-1:     0.020195     0.009268     0.006784
Rotational constants in MHz :   605.422906   277.837214   203.384616

                             ****ORCA TERMINATED NORMALLY****
TOTAL RUN TIME: 0 days 0 hours 0 minutes 37 seconds 64 msec
