                         Program Version 4.2.1 -  RELEASE  -
|  1> ! wB97X-D3 SP def2-SVP
|  2> %pal
|  3> nprocs 16
|  4> end
|  5>
|  6> * xyz 0 1
|  7> S 	 8.36164 	 27.6642 	 39.7707
|  8> C 	 6.70989 	 27.8037 	 40.1935
|  9> C 	 6.24085 	 26.7178 	 40.8927
| 10> C 	 7.27839 	 25.8065 	 41.098
| 11> C 	 8.49204 	 26.1237 	 40.4734
| 12> H 	 7.11355 	 24.9057 	 41.4794
| 13> C 	 4.80705 	 26.494 	 41.3918
| 14> H 	 4.64607 	 25.4594 	 41.1595
| 15> H 	 4.17013 	 27.0972 	 40.7543
| 16> C 	 4.50922 	 26.5731 	 42.856
| 17> H 	 3.44696 	 26.3089 	 43.0094
| 18> H 	 5.16699 	 25.8418 	 43.4468
| 19> C 	 4.86251 	 27.8796 	 43.4474
| 20> H 	 4.30603 	 28.6112 	 42.8881
| 21> H 	 4.53813 	 27.99 	 44.523
| 22> H 	 5.94704 	 28.1685 	 43.3798
| 23> S 	 10.9644 	 25.9248 	 41.6135
| 24> C 	 11.8758 	 24.4671 	 41.5675
| 25> C 	 11.2736 	 23.6024 	 40.7355
| 26> C 	 10.1176 	 24.0852 	 40.0514
| 27> C 	 9.75097 	 25.3895 	 40.4199
| 28> H 	 11.6998 	 22.6751 	 40.6243
| 29> C 	 9.38094 	 23.2013 	 39.0285
| 30> H 	 10.1793 	 22.6142 	 38.6181
| 31> H 	 8.99922 	 23.9036 	 38.2231
| 32> C 	 8.28301 	 22.2778 	 39.6815
| 33> H 	 7.96526 	 22.7515 	 40.583
| 34> H 	 8.53934 	 21.2837 	 39.9288
| 35> C 	 7.18999 	 22.173 	 38.7279
| 36> H 	 6.5919 	 23.0696 	 38.7424
| 37> H 	 6.65263 	 21.2809 	 38.9329
| 38> H 	 7.63361 	 22.1387 	 37.6606
| 39> H 	 6.21092 	 28.7127 	 40.1416
| 40> H 	 12.8196 	 24.2821 	 42.0598
| 41> *
| 42>
| 43>                          ****END OF INPUT****

CARTESIAN COORDINATES (ANGSTROEM)
---------------------------------
  S      8.361640   27.664200   39.770700
  C      6.709890   27.803700   40.193500
  C      6.240850   26.717800   40.892700
  C      7.278390   25.806500   41.098000
  C      8.492040   26.123700   40.473400
  H      7.113550   24.905700   41.479400
  C      4.807050   26.494000   41.391800
  H      4.646070   25.459400   41.159500
  H      4.170130   27.097200   40.754300
  C      4.509220   26.573100   42.856000
  H      3.446960   26.308900   43.009400
  H      5.166990   25.841800   43.446800
  C      4.862510   27.879600   43.447400
  H      4.306030   28.611200   42.888100
  H      4.538130   27.990000   44.523000
  H      5.947040   28.168500   43.379800
  S     10.964400   25.924800   41.613500
  C     11.875800   24.467100   41.567500
  C     11.273600   23.602400   40.735500
  C     10.117600   24.085200   40.051400
  C      9.750970   25.389500   40.419900
  H     11.699800   22.675100   40.624300
  C      9.380940   23.201300   39.028500
  H     10.179300   22.614200   38.618100
  H      8.999220   23.903600   38.223100
  C      8.283010   22.277800   39.681500
  H      7.965260   22.751500   40.583000
  H      8.539340   21.283700   39.928800
  C      7.189990   22.173000   38.727900
  H      6.591900   23.069600   38.742400
  H      6.652630   21.280900   38.932900
  H      7.633610   22.138700   37.660600
  H      6.210920   28.712700   40.141600
  H     12.819600   24.282100   42.059800

 Total Charge           Charge          ....    0
 Multiplicity           Mult            ....    1
 Number of Electrons    NEL             ....  134
 Basis Dimension        Dim             ....  322

ORBITAL ENERGIES
----------------

  NO   OCC          E(Eh)            E(eV)
   0   2.0000     -88.964855     -2420.8568
   1   2.0000     -88.956589     -2420.6319
   2   2.0000     -10.327484      -281.0251
   3   2.0000     -10.326538      -280.9994
   4   2.0000     -10.313310      -280.6394
   5   2.0000     -10.306040      -280.4416
   6   2.0000     -10.303242      -280.3655
   7   2.0000     -10.296271      -280.1758
   8   2.0000     -10.295655      -280.1590
   9   2.0000     -10.290362      -280.0150
  10   2.0000     -10.289615      -279.9947
  11   2.0000     -10.282384      -279.7979
  12   2.0000     -10.281671      -279.7785
  13   2.0000     -10.276147      -279.6282
  14   2.0000     -10.275304      -279.6052
  15   2.0000     -10.271155      -279.4923
  16   2.0000      -8.081308      -219.9036
  17   2.0000      -8.071908      -219.6478
  18   2.0000      -6.039432      -164.3413
  19   2.0000      -6.035432      -164.2325
  20   2.0000      -6.032512      -164.1530
  21   2.0000      -6.030369      -164.0947
  22   2.0000      -6.026176      -163.9806
  23   2.0000      -6.022793      -163.8885
  24   2.0000      -1.013320       -27.5738
  25   2.0000      -0.990528       -26.9536
  26   2.0000      -0.922189       -25.0940
  27   2.0000      -0.914844       -24.8942
  28   2.0000      -0.874566       -23.7981
  29   2.0000      -0.855716       -23.2852
  30   2.0000      -0.852049       -23.1854
  31   2.0000      -0.816902       -22.2290
  32   2.0000      -0.787452       -21.4277
  33   2.0000      -0.768458       -20.9108
  34   2.0000      -0.708282       -19.2733
  35   2.0000      -0.696998       -18.9663
  36   2.0000      -0.689436       -18.7605
  37   2.0000      -0.661928       -18.0120
  38   2.0000      -0.650263       -17.6946
  39   2.0000      -0.627501       -17.0752
  40   2.0000      -0.594854       -16.1868
  41   2.0000      -0.577905       -15.7256
  42   2.0000      -0.573529       -15.6065
  43   2.0000      -0.555138       -15.1061
  44   2.0000      -0.552267       -15.0280
  45   2.0000      -0.528634       -14.3848
  46   2.0000      -0.526303       -14.3214
  47   2.0000      -0.517237       -14.0747
  48   2.0000      -0.513638       -13.9768
  49   2.0000      -0.497926       -13.5493
  50   2.0000      -0.488002       -13.2792
  51   2.0000      -0.482107       -13.1188
  52   2.0000      -0.469698       -12.7811
  53   2.0000      -0.466598       -12.6968
  54   2.0000      -0.460124       -12.5206
  55   2.0000      -0.446802       -12.1581
  56   2.0000      -0.445681       -12.1276
  57   2.0000      -0.436901       -11.8887
  58   2.0000      -0.434139       -11.8135
  59   2.0000      -0.423063       -11.5121
  60   2.0000      -0.411421       -11.1953
  61   2.0000      -0.410871       -11.1804
  62   2.0000      -0.408144       -11.1062
  63   2.0000      -0.337593        -9.1864
  64   2.0000      -0.332754        -9.0547
  65   2.0000      -0.321376        -8.7451
  66   2.0000      -0.306167        -8.3312
  67   0.0000       0.037464         1.0195
  68   0.0000       0.060247         1.6394
  69   0.0000       0.118947         3.2367
  70   0.0000       0.127719         3.4754
  71   0.0000       0.137425         3.7395

MULLIKEN ATOMIC CHARGES
-----------------------
   0 S :    0.129681
   1 C :   -0.103964
   2 C :   -0.123682
   3 C :    0.110211
   4 C :   -0.176824
   5 H :   -0.064648
   6 C :    0.108727
   7 H :    0.018295
   8 H :    0.022382
   9 C :   -0.074675
  10 H :    0.040327
  11 H :    0.035256
  12 C :   -0.070457
  13 H :    0.009273
  14 H :    0.040689
  15 H :    0.055414
  16 S :    0.084447
  17 C :   -0.071891
  18 C :   -0.008740
  19 C :   -0.077111
  20 C :   -0.131780
  21 H :   -0.019115
  22 C :    0.046650
  23 H :    0.020447
  24 H :    0.053636
  25 C :    0.002465
  26 H :    0.017562
  27 H :    0.015238
  28 C :   -0.065101
  29 H :    0.035162
  30 H :    0.023963
  31 H :    0.035975
  32 H :    0.023693
  33 H :    0.058493
Sum of atomic charges:    0.0000000

LOEWDIN ATOMIC CHARGES
----------------------
   0 S :    0.456539
   1 C :   -0.203029
   2 C :   -0.062175
   3 C :   -0.045622
   4 C :   -0.217927
   5 H :    0.002463
   6 C :   -0.026459
   7 H :    0.033344
   8 H :    0.029586
   9 C :   -0.049872
  10 H :    0.031165
  11 H :    0.031503
  12 C :   -0.075857
  13 H :    0.015618
  14 H :    0.031194
  15 H :    0.034380
  16 S :    0.401571
  17 C :   -0.180534
  18 C :   -0.077329
  19 C :   -0.047303
  20 C :   -0.206682
  21 H :    0.016577
  22 C :   -0.026809
  23 H :    0.029110
  24 H :    0.042553
  25 C :   -0.034820
  26 H :    0.017916
  27 H :    0.020074
  28 C :   -0.061076
  29 H :    0.023111
  30 H :    0.018305
  31 H :    0.033015
  32 H :    0.012626
  33 H :    0.034842

  Mayer bond orders larger than 0.100000
B(  0-S ,  1-C ) :   1.1774 B(  0-S ,  4-C ) :   1.1962 B(  1-C ,  2-C ) :   1.5634
B(  1-C ,  4-C ) :   0.1024 B(  1-C , 32-H ) :   0.9734 B(  2-C ,  3-C ) :   1.3025
B(  2-C ,  6-C ) :   1.0074 B(  3-C ,  4-C ) :   1.5196 B(  3-C ,  5-H ) :   1.0180
B(  4-C , 20-C ) :   0.9929 B(  6-C ,  7-H ) :   0.9284 B(  6-C ,  8-H ) :   0.9414
B(  6-C ,  9-C ) :   1.0836 B(  9-C , 10-H ) :   0.9497 B(  9-C , 11-H ) :   0.9499
B(  9-C , 12-C ) :   1.0823 B( 12-C , 13-H ) :   0.9726 B( 12-C , 14-H ) :   0.9712
B( 12-C , 15-H ) :   0.9702 B( 16-S , 17-C ) :   1.1723 B( 16-S , 20-C ) :   1.1353
B( 17-C , 18-C ) :   1.5936 B( 17-C , 33-H ) :   0.9663 B( 18-C , 19-C ) :   1.2553
B( 18-C , 21-H ) :   1.0062 B( 19-C , 20-C ) :   1.5902 B( 19-C , 22-C ) :   1.0320
B( 22-C , 23-H ) :   0.9256 B( 22-C , 24-H ) :   0.9546 B( 22-C , 25-C ) :   1.0351
B( 25-C , 26-H ) :   0.9617 B( 25-C , 27-H ) :   0.9504 B( 25-C , 28-C ) :   1.0895
B( 28-C , 29-H ) :   0.9771 B( 28-C , 30-H ) :   0.9730 B( 28-C , 31-H ) :   0.9721

Dispersion correction           -0.014788891
FINAL SINGLE POINT ENERGY     -1339.852168216534

DIPOLE MOMENT
-------------
                                X             Y             Z
Electronic contribution:     21.02933      11.87887      -2.38724
Nuclear contribution   :    -21.39367     -12.45992       2.51130
                        -----------------------------------------
Total Dipole Moment    :     -0.36434      -0.58105       0.12406
                        -----------------------------------------
Magnitude (a.u.)       :      0.69696
Magnitude (Debye)      :      1.77152

Rotational constants in cm-1:     0.018234     0.009013     0.007435
Rotational constants in MHz :   546.656042   270.195324   222.892285

                             ****ORCA TERMINATED NORMALLY****
TOTAL RUN TIME: 0 days 0 hours 0 minutes 36 seconds 278 msec
