                         Program Version 4.2.1 -  RELEASE  -
|  1> ! wB97X-D3 SP def2-SVP
|  2> %pal
|  3> nprocs 16
|  4> end
|  5>
|  6> * xyz 0 1
|  7> S 	 -52.8124 	 38.3713 	 87.088
|  8> C 	 -53.8507 	 37.8535 	 85.724
|  9> C 	 -55.1192 	 37.5401 	 86.2048
| 10> C 	 -55.2781 	 37.8432 	 87.5976
| 11> C 	 -54.1198 	 38.3218 	 88.2363
| 12> H 	 -56.1526 	 37.547 	 88.1538
| 13> C 	 -56.199 	 36.8587 	 85.3439
| 14> H 	 -57.07 	 36.6507 	 85.9523
| 15> H 	 -55.9139 	 35.9339 	 84.9004
| 16> C 	 -56.6995 	 37.6709 	 84.2042
| 17> H 	 -55.845 	 37.973 	 83.5623
| 18> H 	 -57.3354 	 37.0833 	 83.4535
| 19> C 	 -57.5454 	 38.9734 	 84.4576
| 20> H 	 -56.9502 	 39.7602 	 84.8911
| 21> H 	 -58.0056 	 39.2822 	 83.5065
| 22> H 	 -58.4053 	 38.8074 	 85.1316
| 23> S 	 -52.3255 	 39.1343 	 90.0815
| 24> C 	 -52.5156 	 38.9265 	 91.7568
| 25> C 	 -53.8289 	 38.6503 	 91.9415
| 26> C 	 -54.5441 	 38.2497 	 90.8055
| 27> C 	 -53.8422 	 38.4803 	 89.6526
| 28> H 	 -54.1289 	 38.7478 	 92.9851
| 29> C 	 -55.9917 	 37.7557 	 90.9642
| 30> H 	 -56.5685 	 37.9518 	 90.0538
| 31> H 	 -56.5084 	 38.4797 	 91.6651
| 32> C 	 -56.1333 	 36.2597 	 91.387
| 33> H 	 -55.881 	 36.1498 	 92.463
| 34> H 	 -55.4683 	 35.5488 	 90.839
| 35> C 	 -57.5747 	 35.7752 	 91.4151
| 36> H 	 -58.2638 	 36.5029 	 91.8079
| 37> H 	 -57.7214 	 34.9245 	 92.0927
| 38> H 	 -58.0826 	 35.5005 	 90.4782
| 39> H 	 -53.4908 	 37.7099 	 84.7125
| 40> H 	 -51.8248 	 39.3142 	 92.4168
| 41> *
| 42>
| 43>                          ****END OF INPUT****

CARTESIAN COORDINATES (ANGSTROEM)
---------------------------------
  S    -52.812400   38.371300   87.088000
  C    -53.850700   37.853500   85.724000
  C    -55.119200   37.540100   86.204800
  C    -55.278100   37.843200   87.597600
  C    -54.119800   38.321800   88.236300
  H    -56.152600   37.547000   88.153800
  C    -56.199000   36.858700   85.343900
  H    -57.070000   36.650700   85.952300
  H    -55.913900   35.933900   84.900400
  C    -56.699500   37.670900   84.204200
  H    -55.845000   37.973000   83.562300
  H    -57.335400   37.083300   83.453500
  C    -57.545400   38.973400   84.457600
  H    -56.950200   39.760200   84.891100
  H    -58.005600   39.282200   83.506500
  H    -58.405300   38.807400   85.131600
  S    -52.325500   39.134300   90.081500
  C    -52.515600   38.926500   91.756800
  C    -53.828900   38.650300   91.941500
  C    -54.544100   38.249700   90.805500
  C    -53.842200   38.480300   89.652600
  H    -54.128900   38.747800   92.985100
  C    -55.991700   37.755700   90.964200
  H    -56.568500   37.951800   90.053800
  H    -56.508400   38.479700   91.665100
  C    -56.133300   36.259700   91.387000
  H    -55.881000   36.149800   92.463000
  H    -55.468300   35.548800   90.839000
  C    -57.574700   35.775200   91.415100
  H    -58.263800   36.502900   91.807900
  H    -57.721400   34.924500   92.092700
  H    -58.082600   35.500500   90.478200
  H    -53.490800   37.709900   84.712500
  H    -51.824800   39.314200   92.416800

 Total Charge           Charge          ....    0
 Multiplicity           Mult            ....    1
 Number of Electrons    NEL             ....  134
 Basis Dimension        Dim             ....  322

ORBITAL ENERGIES
----------------

  NO   OCC          E(Eh)            E(eV)
   0   2.0000     -88.967702     -2420.9343
   1   2.0000     -88.958580     -2420.6860
   2   2.0000     -10.336072      -281.2588
   3   2.0000     -10.326765      -281.0056
   4   2.0000     -10.319715      -280.8137
   5   2.0000     -10.307271      -280.4751
   6   2.0000     -10.306391      -280.4512
   7   2.0000     -10.302386      -280.3422
   8   2.0000     -10.301935      -280.3299
   9   2.0000     -10.297773      -280.2166
  10   2.0000     -10.295737      -280.1612
  11   2.0000     -10.291796      -280.0540
  12   2.0000     -10.290550      -280.0201
  13   2.0000     -10.289556      -279.9931
  14   2.0000     -10.277489      -279.6647
  15   2.0000     -10.277470      -279.6642
  16   2.0000      -8.081789      -219.9167
  17   2.0000      -8.075814      -219.7541
  18   2.0000      -6.040461      -164.3693
  19   2.0000      -6.036286      -164.2557
  20   2.0000      -6.034103      -164.1963
  21   2.0000      -6.032498      -164.1526
  22   2.0000      -6.029962      -164.0836
  23   2.0000      -6.026636      -163.9931
  24   2.0000      -1.022025       -27.8107
  25   2.0000      -0.987121       -26.8609
  26   2.0000      -0.913639       -24.8614
  27   2.0000      -0.906153       -24.6577
  28   2.0000      -0.873420       -23.7670
  29   2.0000      -0.856176       -23.2977
  30   2.0000      -0.838876       -22.8270
  31   2.0000      -0.816272       -22.2119
  32   2.0000      -0.786113       -21.3912
  33   2.0000      -0.779029       -21.1984
  34   2.0000      -0.709004       -19.2930
  35   2.0000      -0.702409       -19.1135
  36   2.0000      -0.693819       -18.8798
  37   2.0000      -0.667702       -18.1691
  38   2.0000      -0.637157       -17.3379
  39   2.0000      -0.621726       -16.9180
  40   2.0000      -0.601989       -16.3810
  41   2.0000      -0.575197       -15.6519
  42   2.0000      -0.558012       -15.1843
  43   2.0000      -0.550999       -14.9934
  44   2.0000      -0.543670       -14.7940
  45   2.0000      -0.528398       -14.3784
  46   2.0000      -0.522300       -14.2125
  47   2.0000      -0.510153       -13.8820
  48   2.0000      -0.507793       -13.8177
  49   2.0000      -0.503184       -13.6923
  50   2.0000      -0.495598       -13.4859
  51   2.0000      -0.478572       -13.0226
  52   2.0000      -0.477630       -12.9970
  53   2.0000      -0.470199       -12.7948
  54   2.0000      -0.455182       -12.3861
  55   2.0000      -0.447516       -12.1775
  56   2.0000      -0.443120       -12.0579
  57   2.0000      -0.438504       -11.9323
  58   2.0000      -0.433621       -11.7994
  59   2.0000      -0.420626       -11.4458
  60   2.0000      -0.415587       -11.3087
  61   2.0000      -0.410719       -11.1762
  62   2.0000      -0.403375       -10.9764
  63   2.0000      -0.365356        -9.9419
  64   2.0000      -0.335202        -9.1213
  65   2.0000      -0.326640        -8.8883
  66   2.0000      -0.285513        -7.7692
  67   0.0000       0.015825         0.4306
  68   0.0000       0.089047         2.4231
  69   0.0000       0.099439         2.7059
  70   0.0000       0.112062         3.0494
  71   0.0000       0.139257         3.7894

MULLIKEN ATOMIC CHARGES
-----------------------
   0 S :    0.095413
   1 C :   -0.124019
   2 C :   -0.092186
   3 C :   -0.001815
   4 C :   -0.085419
   5 H :    0.002747
   6 C :    0.141939
   7 H :    0.009635
   8 H :    0.031080
   9 C :   -0.149052
  10 H :    0.024827
  11 H :    0.031927
  12 C :   -0.054499
  13 H :    0.044384
  14 H :    0.034654
  15 H :    0.024275
  16 S :    0.076872
  17 C :   -0.060577
  18 C :   -0.045867
  19 C :   -0.058451
  20 C :   -0.089827
  21 H :    0.020923
  22 C :    0.029335
  23 H :    0.017290
  24 H :    0.037336
  25 C :   -0.057074
  26 H :    0.033404
  27 H :    0.050995
  28 C :   -0.056686
  29 H :    0.015223
  30 H :    0.030941
  31 H :    0.028089
  32 H :    0.055937
  33 H :    0.038245
Sum of atomic charges:   -0.0000000

LOEWDIN ATOMIC CHARGES
----------------------
   0 S :    0.399056
   1 C :   -0.184364
   2 C :   -0.057331
   3 C :   -0.070564
   4 C :   -0.186029
   5 H :    0.025584
   6 C :   -0.029593
   7 H :    0.028002
   8 H :    0.033924
   9 C :   -0.051201
  10 H :    0.021221
  11 H :    0.028595
  12 C :   -0.068762
  13 H :    0.023708
  14 H :    0.028958
  15 H :    0.022711
  16 S :    0.435242
  17 C :   -0.186993
  18 C :   -0.070849
  19 C :   -0.069092
  20 C :   -0.201628
  21 H :    0.033612
  22 C :   -0.033749
  23 H :    0.023268
  24 H :    0.040993
  25 C :   -0.043353
  26 H :    0.031886
  27 H :    0.034008
  28 C :   -0.076082
  29 H :    0.022307
  30 H :    0.028434
  31 H :    0.022139
  32 H :    0.029368
  33 H :    0.016575

  Mayer bond orders larger than 0.100000
B(  0-S ,  1-C ) :   1.1307 B(  0-S ,  4-C ) :   1.1633 B(  1-C ,  2-C ) :   1.5881
B(  1-C ,  4-C ) :   0.1042 B(  1-C , 32-H ) :   0.9724 B(  2-C ,  3-C ) :   1.2785
B(  2-C ,  6-C ) :   1.0128 B(  3-C ,  4-C ) :   1.5349 B(  3-C ,  5-H ) :   0.9871
B(  4-C , 20-C ) :   1.0808 B(  6-C ,  7-H ) :   0.9387 B(  6-C ,  8-H ) :   0.9357
B(  6-C ,  9-C ) :   1.0758 B(  9-C , 10-H ) :   0.9549 B(  9-C , 11-H ) :   0.9577
B(  9-C , 12-C ) :   1.0707 B( 12-C , 13-H ) :   0.9775 B( 12-C , 14-H ) :   0.9760
B( 12-C , 15-H ) :   0.9753 B( 16-S , 17-C ) :   1.1689 B( 16-S , 20-C ) :   1.1646
B( 17-C , 18-C ) :   1.5806 B( 17-C , 33-H ) :   0.9785 B( 18-C , 19-C ) :   1.2650
B( 18-C , 21-H ) :   0.9921 B( 19-C , 20-C ) :   1.5616 B( 19-C , 22-C ) :   1.0288
B( 22-C , 23-H ) :   0.9461 B( 22-C , 24-H ) :   0.9327 B( 22-C , 25-C ) :   1.0538
B( 25-C , 26-H ) :   0.9541 B( 25-C , 27-H ) :   0.9590 B( 25-C , 28-C ) :   1.0764
B( 28-C , 29-H ) :   0.9689 B( 28-C , 30-H ) :   0.9765 B( 28-C , 31-H ) :   0.9747

Dispersion correction           -0.013629975
FINAL SINGLE POINT ENERGY     -1339.870672840147

DIPOLE MOMENT
-------------
                                X             Y             Z
Electronic contribution:     27.98522       9.54301       4.53317
Nuclear contribution   :    -28.55607      -9.81387      -4.35260
                        -----------------------------------------
Total Dipole Moment    :     -0.57086      -0.27086       0.18057
                        -----------------------------------------
Magnitude (a.u.)       :      0.65715
Magnitude (Debye)      :      1.67035

Rotational constants in cm-1:     0.017806     0.008845     0.006392
Rotational constants in MHz :   533.804785   265.152828   191.635366

                             ****ORCA TERMINATED NORMALLY****
TOTAL RUN TIME: 0 days 0 hours 0 minutes 29 seconds 594 msec
