                         Program Version 4.2.1 -  RELEASE  -
|  1> ! wB97X-D3 SP def2-SVP
|  2> %pal
|  3> nprocs 16
|  4> end
|  5>
|  6> * xyz 0 1
|  7> S 	 -13.2684 	 33.4076 	 35.0168
|  8> C 	 -12.2826 	 33.7301 	 33.6665
|  9> C 	 -12.9176 	 34.4967 	 32.7004
| 10> C 	 -14.2803 	 34.8119 	 33.0512
| 11> C 	 -14.5757 	 34.3181 	 34.2863
| 12> H 	 -14.9738 	 35.3347 	 32.3554
| 13> C 	 -12.2451 	 35.0954 	 31.4966
| 14> H 	 -11.9947 	 34.1959 	 30.9277
| 15> H 	 -11.3018 	 35.5991 	 31.9058
| 16> C 	 -13.0149 	 36.1389 	 30.6351
| 17> H 	 -13.906 	 35.7761 	 30.121
| 18> H 	 -13.2989 	 36.9277 	 31.3348
| 19> C 	 -12.058 	 36.8579 	 29.6373
| 20> H 	 -12.3236 	 37.9533 	 29.6176
| 21> H 	 -11.0129 	 36.8421 	 29.7872
| 22> H 	 -12.2285 	 36.3788 	 28.6685
| 23> S 	 -15.9647 	 35.5281 	 36.2274
| 24> C 	 -17.6211 	 35.0387 	 36.5471
| 25> C 	 -18.023 	 34.0291 	 35.6823
| 26> C 	 -17.0376 	 33.6201 	 34.7213
| 27> C 	 -15.8696 	 34.3676 	 34.9235
| 28> H 	 -19.0001 	 33.6652 	 35.6521
| 29> C 	 -17.3759 	 32.5224 	 33.7318
| 30> H 	 -17.4949 	 31.5449 	 34.2336
| 31> H 	 -16.4486 	 32.4877 	 33.0856
| 32> C 	 -18.6004 	 32.7833 	 32.798
| 33> H 	 -18.4944 	 33.7391 	 32.2691
| 34> H 	 -19.4477 	 33.1322 	 33.4294
| 35> C 	 -18.99 	 31.7944 	 31.7847
| 36> H 	 -18.3002 	 31.8797 	 30.8881
| 37> H 	 -19.9528 	 32.0225 	 31.3516
| 38> H 	 -19.0661 	 30.7726 	 32.1294
| 39> H 	 -11.2154 	 33.4186 	 33.502
| 40> H 	 -18.3577 	 35.576 	 37.2091
| 41> *
| 42>
| 43>                          ****END OF INPUT****

CARTESIAN COORDINATES (ANGSTROEM)
---------------------------------
  S    -13.268400   33.407600   35.016800
  C    -12.282600   33.730100   33.666500
  C    -12.917600   34.496700   32.700400
  C    -14.280300   34.811900   33.051200
  C    -14.575700   34.318100   34.286300
  H    -14.973800   35.334700   32.355400
  C    -12.245100   35.095400   31.496600
  H    -11.994700   34.195900   30.927700
  H    -11.301800   35.599100   31.905800
  C    -13.014900   36.138900   30.635100
  H    -13.906000   35.776100   30.121000
  H    -13.298900   36.927700   31.334800
  C    -12.058000   36.857900   29.637300
  H    -12.323600   37.953300   29.617600
  H    -11.012900   36.842100   29.787200
  H    -12.228500   36.378800   28.668500
  S    -15.964700   35.528100   36.227400
  C    -17.621100   35.038700   36.547100
  C    -18.023000   34.029100   35.682300
  C    -17.037600   33.620100   34.721300
  C    -15.869600   34.367600   34.923500
  H    -19.000100   33.665200   35.652100
  C    -17.375900   32.522400   33.731800
  H    -17.494900   31.544900   34.233600
  H    -16.448600   32.487700   33.085600
  C    -18.600400   32.783300   32.798000
  H    -18.494400   33.739100   32.269100
  H    -19.447700   33.132200   33.429400
  C    -18.990000   31.794400   31.784700
  H    -18.300200   31.879700   30.888100
  H    -19.952800   32.022500   31.351600
  H    -19.066100   30.772600   32.129400
  H    -11.215400   33.418600   33.502000
  H    -18.357700   35.576000   37.209100

 Total Charge           Charge          ....    0
 Multiplicity           Mult            ....    1
 Number of Electrons    NEL             ....  134
 Basis Dimension        Dim             ....  322

ORBITAL ENERGIES
----------------

  NO   OCC          E(Eh)            E(eV)
   0   2.0000     -88.966324     -2420.8968
   1   2.0000     -88.964941     -2420.8591
   2   2.0000     -10.322843      -280.8988
   3   2.0000     -10.320437      -280.8334
   4   2.0000     -10.318414      -280.7783
   5   2.0000     -10.308663      -280.5130
   6   2.0000     -10.303525      -280.3732
   7   2.0000     -10.299035      -280.2510
   8   2.0000     -10.296313      -280.1769
   9   2.0000     -10.294724      -280.1337
  10   2.0000     -10.293470      -280.0996
  11   2.0000     -10.293453      -280.0991
  12   2.0000     -10.286931      -279.9216
  13   2.0000     -10.285924      -279.8942
  14   2.0000     -10.280579      -279.7488
  15   2.0000     -10.279167      -279.7103
  16   2.0000      -8.081595      -219.9114
  17   2.0000      -8.079545      -219.8556
  18   2.0000      -6.040024      -164.3574
  19   2.0000      -6.038016      -164.3028
  20   2.0000      -6.036089      -164.2503
  21   2.0000      -6.034038      -164.1945
  22   2.0000      -6.032352      -164.1486
  23   2.0000      -6.030400      -164.0955
  24   2.0000      -1.006761       -27.3953
  25   2.0000      -0.981254       -26.7013
  26   2.0000      -0.908634       -24.7252
  27   2.0000      -0.906538       -24.6682
  28   2.0000      -0.867604       -23.6087
  29   2.0000      -0.855398       -23.2766
  30   2.0000      -0.849379       -23.1128
  31   2.0000      -0.811909       -22.0932
  32   2.0000      -0.780988       -21.2518
  33   2.0000      -0.764334       -20.7986
  34   2.0000      -0.711105       -19.3501
  35   2.0000      -0.697222       -18.9724
  36   2.0000      -0.683738       -18.6055
  37   2.0000      -0.658859       -17.9285
  38   2.0000      -0.632837       -17.2204
  39   2.0000      -0.617286       -16.7972
  40   2.0000      -0.592982       -16.1359
  41   2.0000      -0.574571       -15.6349
  42   2.0000      -0.561055       -15.2671
  43   2.0000      -0.553607       -15.0644
  44   2.0000      -0.525989       -14.3129
  45   2.0000      -0.518922       -14.1206
  46   2.0000      -0.518014       -14.0959
  47   2.0000      -0.509844       -13.8736
  48   2.0000      -0.505675       -13.7601
  49   2.0000      -0.497128       -13.5275
  50   2.0000      -0.488418       -13.2905
  51   2.0000      -0.479168       -13.0388
  52   2.0000      -0.473761       -12.8917
  53   2.0000      -0.468094       -12.7375
  54   2.0000      -0.453531       -12.3412
  55   2.0000      -0.452136       -12.3033
  56   2.0000      -0.443333       -12.0637
  57   2.0000      -0.437326       -11.9003
  58   2.0000      -0.432952       -11.7812
  59   2.0000      -0.429349       -11.6832
  60   2.0000      -0.421068       -11.4578
  61   2.0000      -0.411260       -11.1909
  62   2.0000      -0.398696       -10.8491
  63   2.0000      -0.338298        -9.2055
  64   2.0000      -0.328917        -8.9503
  65   2.0000      -0.319429        -8.6921
  66   2.0000      -0.299623        -8.1532
  67   0.0000       0.048574         1.3218
  68   0.0000       0.057368         1.5611
  69   0.0000       0.118989         3.2379
  70   0.0000       0.121291         3.3005
  71   0.0000       0.130425         3.5490

MULLIKEN ATOMIC CHARGES
-----------------------
   0 S :    0.143655
   1 C :   -0.143095
   2 C :   -0.112171
   3 C :    0.030015
   4 C :   -0.163780
   5 H :    0.033416
   6 C :    0.021238
   7 H :    0.041527
   8 H :    0.052773
   9 C :   -0.095091
  10 H :    0.044414
  11 H :    0.036901
  12 C :   -0.047860
  13 H :    0.040478
  14 H :    0.026110
  15 H :    0.035347
  16 S :    0.117235
  17 C :   -0.104584
  18 C :   -0.027043
  19 C :    0.001310
  20 C :   -0.219523
  21 H :   -0.003404
  22 C :    0.080018
  23 H :    0.045349
  24 H :    0.034191
  25 C :   -0.107035
  26 H :    0.017901
  27 H :    0.017245
  28 C :   -0.020713
  29 H :    0.037636
  30 H :    0.025500
  31 H :    0.030615
  32 H :    0.056548
  33 H :    0.074877
Sum of atomic charges:   -0.0000000

LOEWDIN ATOMIC CHARGES
----------------------
   0 S :    0.430740
   1 C :   -0.230712
   2 C :   -0.071837
   3 C :   -0.062303
   4 C :   -0.208486
   5 H :    0.042025
   6 C :   -0.042681
   7 H :    0.034159
   8 H :    0.044502
   9 C :   -0.044205
  10 H :    0.025451
  11 H :    0.026453
  12 C :   -0.065959
  13 H :    0.034344
  14 H :    0.018239
  15 H :    0.027779
  16 S :    0.410987
  17 C :   -0.198006
  18 C :   -0.065143
  19 C :   -0.053100
  20 C :   -0.203076
  21 H :    0.017744
  22 C :   -0.032851
  23 H :    0.036519
  24 H :    0.037334
  25 C :   -0.057694
  26 H :    0.028655
  27 H :    0.022214
  28 C :   -0.067178
  29 H :    0.034126
  30 H :    0.029494
  31 H :    0.022858
  32 H :    0.038562
  33 H :    0.041046

  Mayer bond orders larger than 0.100000
B(  0-S ,  1-C ) :   1.1406 B(  0-S ,  4-C ) :   1.1615 B(  1-C ,  2-C ) :   1.6307
B(  1-C , 32-H ) :   0.9619 B(  2-C ,  3-C ) :   1.2535 B(  2-C ,  6-C ) :   0.9921
B(  3-C ,  4-C ) :   1.5765 B(  3-C ,  5-H ) :   0.9871 B(  4-C , 20-C ) :   0.9952
B(  6-C ,  7-H ) :   0.9307 B(  6-C ,  8-H ) :   0.9489 B(  6-C ,  9-C ) :   1.0877
B(  9-C , 10-H ) :   0.9549 B(  9-C , 11-H ) :   0.9577 B(  9-C , 12-C ) :   1.0632
B( 12-C , 13-H ) :   0.9806 B( 12-C , 14-H ) :   0.9788 B( 12-C , 15-H ) :   0.9790
B( 16-S , 17-C ) :   1.1417 B( 16-S , 20-C ) :   1.1675 B( 17-C , 18-C ) :   1.6185
B( 17-C , 20-C ) :   0.1002 B( 17-C , 33-H ) :   0.9592 B( 18-C , 19-C ) :   1.2313
B( 18-C , 21-H ) :   0.9902 B( 19-C , 20-C ) :   1.5993 B( 19-C , 22-C ) :   1.0455
B( 22-C , 23-H ) :   0.9344 B( 22-C , 24-H ) :   0.9319 B( 22-C , 25-C ) :   1.0505
B( 25-C , 26-H ) :   0.9450 B( 25-C , 27-H ) :   0.9535 B( 25-C , 28-C ) :   1.1028
B( 28-C , 29-H ) :   0.9720 B( 28-C , 30-H ) :   0.9653 B( 28-C , 31-H ) :   0.9723

Dispersion correction           -0.013530589
FINAL SINGLE POINT ENERGY     -1339.871576151081

DIPOLE MOMENT
-------------
                                X             Y             Z
Electronic contribution:      5.18685       0.43087      27.24962
Nuclear contribution   :     -5.40148      -0.38628     -27.92650
                        -----------------------------------------
Total Dipole Moment    :     -0.21464       0.04459      -0.67687
                        -----------------------------------------
Magnitude (a.u.)       :      0.71149
Magnitude (Debye)      :      1.80846

Rotational constants in cm-1:     0.016235     0.008167     0.006702
Rotational constants in MHz :   486.703932   244.837200   200.908147

                             ****ORCA TERMINATED NORMALLY****
TOTAL RUN TIME: 0 days 0 hours 0 minutes 31 seconds 312 msec
