                         Program Version 4.2.1 -  RELEASE  -
|  1> ! wB97X-D3 SP def2-SVP
|  2> %pal
|  3> nprocs 16
|  4> end
|  5>
|  6> * xyz 0 1
|  7> S 	 48.3786 	 24.3275 	 42.7901
|  8> C 	 47.0316 	 23.4109 	 42.1794
|  9> C 	 45.9842 	 23.1136 	 43.0787
| 10> C 	 46.4098 	 23.5852 	 44.3853
| 11> C 	 47.7141 	 24.0149 	 44.4513
| 12> H 	 45.9107 	 23.3498 	 45.2984
| 13> C 	 44.7554 	 22.2727 	 42.8583
| 14> H 	 44.3899 	 22.4212 	 41.8252
| 15> H 	 43.901 	 22.6294 	 43.5002
| 16> C 	 44.9802 	 20.8114 	 43.1047
| 17> H 	 45.9045 	 20.4703 	 42.5715
| 18> H 	 45.2369 	 20.5933 	 44.174
| 19> C 	 43.8965 	 19.7752 	 42.6723
| 20> H 	 43.872 	 18.8838 	 43.2574
| 21> H 	 42.9199 	 20.2222 	 42.7381
| 22> H 	 44.0629 	 19.5004 	 41.6548
| 23> S 	 49.3001 	 26.1625 	 45.42
| 24> C 	 49.5913 	 26.1772 	 47.12
| 25> C 	 49.1933 	 24.9758 	 47.6745
| 26> C 	 48.5042 	 24.0892 	 46.8927
| 27> C 	 48.4466 	 24.5433 	 45.5916
| 28> H 	 49.1809 	 25.0272 	 48.7122
| 29> C 	 47.8667 	 22.8558 	 47.5153
| 30> H 	 46.7989 	 22.9667 	 47.2187
| 31> H 	 47.8957 	 22.9535 	 48.5962
| 32> C 	 48.3315 	 21.4628 	 47.1208
| 33> H 	 48.07 	 21.2183 	 46.0895
| 34> H 	 47.8035 	 20.7864 	 47.7925
| 35> C 	 49.8598 	 21.2497 	 47.2997
| 36> H 	 50.499 	 22.1062 	 47.0373
| 37> H 	 50.1171 	 20.246 	 46.904
| 38> H 	 50.0699 	 21.156 	 48.3777
| 39> H 	 47.1127 	 22.9997 	 41.1957
| 40> H 	 49.9344 	 27.129 	 47.6661
| 41> *
| 42>
| 43>                          ****END OF INPUT****

CARTESIAN COORDINATES (ANGSTROEM)
---------------------------------
  S     48.378600   24.327500   42.790100
  C     47.031600   23.410900   42.179400
  C     45.984200   23.113600   43.078700
  C     46.409800   23.585200   44.385300
  C     47.714100   24.014900   44.451300
  H     45.910700   23.349800   45.298400
  C     44.755400   22.272700   42.858300
  H     44.389900   22.421200   41.825200
  H     43.901000   22.629400   43.500200
  C     44.980200   20.811400   43.104700
  H     45.904500   20.470300   42.571500
  H     45.236900   20.593300   44.174000
  C     43.896500   19.775200   42.672300
  H     43.872000   18.883800   43.257400
  H     42.919900   20.222200   42.738100
  H     44.062900   19.500400   41.654800
  S     49.300100   26.162500   45.420000
  C     49.591300   26.177200   47.120000
  C     49.193300   24.975800   47.674500
  C     48.504200   24.089200   46.892700
  C     48.446600   24.543300   45.591600
  H     49.180900   25.027200   48.712200
  C     47.866700   22.855800   47.515300
  H     46.798900   22.966700   47.218700
  H     47.895700   22.953500   48.596200
  C     48.331500   21.462800   47.120800
  H     48.070000   21.218300   46.089500
  H     47.803500   20.786400   47.792500
  C     49.859800   21.249700   47.299700
  H     50.499000   22.106200   47.037300
  H     50.117100   20.246000   46.904000
  H     50.069900   21.156000   48.377700
  H     47.112700   22.999700   41.195700
  H     49.934400   27.129000   47.666100

 Total Charge           Charge          ....    0
 Multiplicity           Mult            ....    1
 Number of Electrons    NEL             ....  134
 Basis Dimension        Dim             ....  322

ORBITAL ENERGIES
----------------

  NO   OCC          E(Eh)            E(eV)
   0   2.0000     -88.965867     -2420.8843
   1   2.0000     -88.965343     -2420.8700
   2   2.0000     -10.331708      -281.1401
   3   2.0000     -10.329788      -281.0878
   4   2.0000     -10.321310      -280.8571
   5   2.0000     -10.315114      -280.6885
   6   2.0000     -10.309161      -280.5265
   7   2.0000     -10.301400      -280.3153
   8   2.0000     -10.299698      -280.2690
   9   2.0000     -10.296446      -280.1805
  10   2.0000     -10.295713      -280.1606
  11   2.0000     -10.291722      -280.0520
  12   2.0000     -10.287050      -279.9249
  13   2.0000     -10.281345      -279.7696
  14   2.0000     -10.277572      -279.6670
  15   2.0000     -10.275128      -279.6004
  16   2.0000      -8.079950      -219.8666
  17   2.0000      -8.079679      -219.8592
  18   2.0000      -6.038393      -164.3130
  19   2.0000      -6.038148      -164.3064
  20   2.0000      -6.034629      -164.2106
  21   2.0000      -6.034592      -164.2096
  22   2.0000      -6.030739      -164.1047
  23   2.0000      -6.030172      -164.0893
  24   2.0000      -1.003212       -27.2988
  25   2.0000      -0.980702       -26.6863
  26   2.0000      -0.912431       -24.8285
  27   2.0000      -0.909767       -24.7560
  28   2.0000      -0.865175       -23.5426
  29   2.0000      -0.854478       -23.2515
  30   2.0000      -0.847422       -23.0595
  31   2.0000      -0.811140       -22.0722
  32   2.0000      -0.787256       -21.4223
  33   2.0000      -0.772977       -21.0338
  34   2.0000      -0.708481       -19.2788
  35   2.0000      -0.698793       -19.0151
  36   2.0000      -0.686963       -18.6932
  37   2.0000      -0.662708       -18.0332
  38   2.0000      -0.641048       -17.4438
  39   2.0000      -0.620811       -16.8931
  40   2.0000      -0.591358       -16.0917
  41   2.0000      -0.568749       -15.4765
  42   2.0000      -0.561272       -15.2730
  43   2.0000      -0.550819       -14.9885
  44   2.0000      -0.548697       -14.9308
  45   2.0000      -0.525363       -14.2958
  46   2.0000      -0.517724       -14.0880
  47   2.0000      -0.509538       -13.8652
  48   2.0000      -0.498946       -13.5770
  49   2.0000      -0.493983       -13.4420
  50   2.0000      -0.490040       -13.3347
  51   2.0000      -0.482483       -13.1290
  52   2.0000      -0.470670       -12.8076
  53   2.0000      -0.465578       -12.6690
  54   2.0000      -0.462287       -12.5795
  55   2.0000      -0.446803       -12.1581
  56   2.0000      -0.441221       -12.0062
  57   2.0000      -0.437561       -11.9066
  58   2.0000      -0.427989       -11.6462
  59   2.0000      -0.425815       -11.5870
  60   2.0000      -0.420401       -11.4397
  61   2.0000      -0.413855       -11.2616
  62   2.0000      -0.410089       -11.1591
  63   2.0000      -0.353609        -9.6222
  64   2.0000      -0.337422        -9.1817
  65   2.0000      -0.330613        -8.9964
  66   2.0000      -0.278095        -7.5674
  67   0.0000       0.022229         0.6049
  68   0.0000       0.056033         1.5247
  69   0.0000       0.094865         2.5814
  70   0.0000       0.118301         3.2191
  71   0.0000       0.124273         3.3816

MULLIKEN ATOMIC CHARGES
-----------------------
   0 S :    0.088669
   1 C :   -0.105504
   2 C :   -0.086550
   3 C :    0.042004
   4 C :   -0.156230
   5 H :    0.000040
   6 C :    0.072372
   7 H :    0.028036
   8 H :    0.038424
   9 C :   -0.119528
  10 H :    0.029676
  11 H :    0.029222
  12 C :   -0.010911
  13 H :    0.030958
  14 H :    0.020211
  15 H :    0.027730
  16 S :    0.094771
  17 C :   -0.145688
  18 C :   -0.018830
  19 C :   -0.025389
  20 C :   -0.140643
  21 H :   -0.004397
  22 C :    0.062278
  23 H :    0.031335
  24 H :    0.017146
  25 C :   -0.044093
  26 H :    0.039224
  27 H :    0.029745
  28 C :   -0.071580
  29 H :    0.057008
  30 H :    0.041186
  31 H :    0.013307
  32 H :    0.042120
  33 H :    0.093882
Sum of atomic charges:   -0.0000000

LOEWDIN ATOMIC CHARGES
----------------------
   0 S :    0.371808
   1 C :   -0.185649
   2 C :   -0.055370
   3 C :   -0.055152
   4 C :   -0.163504
   5 H :    0.024013
   6 C :   -0.039904
   7 H :    0.034295
   8 H :    0.038894
   9 C :   -0.050909
  10 H :    0.027517
  11 H :    0.025190
  12 C :   -0.060028
  13 H :    0.025730
  14 H :    0.021548
  15 H :    0.022511
  16 S :    0.378157
  17 C :   -0.199503
  18 C :   -0.079919
  19 C :   -0.060106
  20 C :   -0.170739
  21 H :    0.020141
  22 C :   -0.028441
  23 H :    0.035766
  24 H :    0.029971
  25 C :   -0.037298
  26 H :    0.023914
  27 H :    0.027402
  28 C :   -0.073757
  29 H :    0.031997
  30 H :    0.030979
  31 H :    0.022581
  32 H :    0.017752
  33 H :    0.050114

  Mayer bond orders larger than 0.100000
B(  0-S ,  1-C ) :   1.1453 B(  0-S ,  4-C ) :   1.1112 B(  1-C ,  2-C ) :   1.6274
B(  1-C , 32-H ) :   0.9657 B(  2-C ,  3-C ) :   1.2096 B(  2-C ,  6-C ) :   1.0399
B(  3-C ,  4-C ) :   1.6194 B(  3-C ,  5-H ) :   0.9809 B(  4-C , 20-C ) :   1.0697
B(  6-C ,  7-H ) :   0.9365 B(  6-C ,  8-H ) :   0.9314 B(  6-C ,  9-C ) :   1.0634
B(  9-C , 10-H ) :   0.9604 B(  9-C , 11-H ) :   0.9574 B(  9-C , 12-C ) :   1.0685
B( 12-C , 13-H ) :   0.9762 B( 12-C , 14-H ) :   0.9763 B( 12-C , 15-H ) :   0.9785
B( 16-S , 17-C ) :   1.1633 B( 16-S , 20-C ) :   1.1274 B( 17-C , 18-C ) :   1.5941
B( 17-C , 20-C ) :   0.1089 B( 17-C , 33-H ) :   0.9554 B( 18-C , 19-C ) :   1.2610
B( 18-C , 21-H ) :   0.9901 B( 19-C , 20-C ) :   1.5886 B( 19-C , 22-C ) :   1.0247
B( 22-C , 23-H ) :   0.9268 B( 22-C , 24-H ) :   0.9337 B( 22-C , 25-C ) :   1.0823
B( 25-C , 26-H ) :   0.9557 B( 25-C , 27-H ) :   0.9529 B( 25-C , 28-C ) :   1.0700
B( 28-C , 29-H ) :   0.9763 B( 28-C , 30-H ) :   0.9747 B( 28-C , 31-H ) :   0.9739

Dispersion correction           -0.014529036
FINAL SINGLE POINT ENERGY     -1339.861781787730

DIPOLE MOMENT
-------------
                                X             Y             Z
Electronic contribution:     13.23682      26.40729      -5.93955
Nuclear contribution   :    -13.73707     -26.91137       6.35090
                        -----------------------------------------
Total Dipole Moment    :     -0.50025      -0.50408       0.41135
                        -----------------------------------------
Magnitude (a.u.)       :      0.82070
Magnitude (Debye)      :      2.08606

Rotational constants in cm-1:     0.019546     0.008720     0.006759
Rotational constants in MHz :   585.982177   261.422714   202.615785

                             ****ORCA TERMINATED NORMALLY****
TOTAL RUN TIME: 0 days 0 hours 0 minutes 34 seconds 186 msec
