                         Program Version 4.2.1 -  RELEASE  -
|  1> ! wB97X-D3 SP def2-SVP
|  2> %pal
|  3> nprocs 16
|  4> end
|  5>
|  6> * xyz 0 1
|  7> S 	 25.086 	 -12.965 	 76.6007
|  8> C 	 25.8696 	 -13.0985 	 75.0156
|  9> C 	 25.7059 	 -11.8491 	 74.3189
| 10> C 	 25.0996 	 -10.84 	 75.1598
| 11> C 	 24.8157 	 -11.2408 	 76.4419
| 12> H 	 24.92 	 -9.79024 	 74.7851
| 13> C 	 25.9586 	 -11.5913 	 72.822
| 14> H 	 26.9049 	 -11.0074 	 72.6332
| 15> H 	 25.2001 	 -10.9179 	 72.5161
| 16> C 	 26.1401 	 -12.7999 	 71.9311
| 17> H 	 26.2571 	 -12.4188 	 70.9323
| 18> H 	 27.0679 	 -13.2749 	 72.2627
| 19> C 	 24.8413 	 -13.7155 	 71.8017
| 20> H 	 24.6923 	 -14.197 	 72.8379
| 21> H 	 23.946 	 -13.0687 	 71.5198
| 22> H 	 25.007 	 -14.4731 	 71.0675
| 23> S 	 23.8023 	 -11.2522 	 78.9952
| 24> C 	 23.344 	 -9.78114 	 79.7733
| 25> C 	 23.7509 	 -8.7285 	 78.9823
| 26> C 	 24.3074 	 -9.03605 	 77.7335
| 27> C 	 24.399 	 -10.424 	 77.5639
| 28> H 	 23.7524 	 -7.78947 	 79.5141
| 29> C 	 24.8127 	 -7.92532 	 76.8105
| 30> H 	 25.7563 	 -8.23703 	 76.4824
| 31> H 	 25.0378 	 -7.11971 	 77.4627
| 32> C 	 23.8219 	 -7.43053 	 75.7371
| 33> H 	 22.8847 	 -7.01973 	 76.2693
| 34> H 	 23.4222 	 -8.30527 	 75.2801
| 35> C 	 24.4564 	 -6.58359 	 74.6233
| 36> H 	 25.1202 	 -5.81164 	 74.9426
| 37> H 	 23.6773 	 -6.12085 	 74.0443
| 38> H 	 25.0075 	 -7.12339 	 73.8667
| 39> H 	 26.1794 	 -14.0538 	 74.6343
| 40> H 	 23.1217 	 -9.72071 	 80.8147
| 41> *
| 42>
| 43>                          ****END OF INPUT****

CARTESIAN COORDINATES (ANGSTROEM)
---------------------------------
  S     25.086000  -12.965000   76.600700
  C     25.869600  -13.098500   75.015600
  C     25.705900  -11.849100   74.318900
  C     25.099600  -10.840000   75.159800
  C     24.815700  -11.240800   76.441900
  H     24.920000   -9.790240   74.785100
  C     25.958600  -11.591300   72.822000
  H     26.904900  -11.007400   72.633200
  H     25.200100  -10.917900   72.516100
  C     26.140100  -12.799900   71.931100
  H     26.257100  -12.418800   70.932300
  H     27.067900  -13.274900   72.262700
  C     24.841300  -13.715500   71.801700
  H     24.692300  -14.197000   72.837900
  H     23.946000  -13.068700   71.519800
  H     25.007000  -14.473100   71.067500
  S     23.802300  -11.252200   78.995200
  C     23.344000   -9.781140   79.773300
  C     23.750900   -8.728500   78.982300
  C     24.307400   -9.036050   77.733500
  C     24.399000  -10.424000   77.563900
  H     23.752400   -7.789470   79.514100
  C     24.812700   -7.925320   76.810500
  H     25.756300   -8.237030   76.482400
  H     25.037800   -7.119710   77.462700
  C     23.821900   -7.430530   75.737100
  H     22.884700   -7.019730   76.269300
  H     23.422200   -8.305270   75.280100
  C     24.456400   -6.583590   74.623300
  H     25.120200   -5.811640   74.942600
  H     23.677300   -6.120850   74.044300
  H     25.007500   -7.123390   73.866700
  H     26.179400  -14.053800   74.634300
  H     23.121700   -9.720710   80.814700

 Total Charge           Charge          ....    0
 Multiplicity           Mult            ....    1
 Number of Electrons    NEL             ....  134
 Basis Dimension        Dim             ....  322

ORBITAL ENERGIES
----------------

  NO   OCC          E(Eh)            E(eV)
   0   2.0000     -88.965757     -2420.8813
   1   2.0000     -88.964736     -2420.8535
   2   2.0000     -10.332490      -281.1614
   3   2.0000     -10.331710      -281.1401
   4   2.0000     -10.322610      -280.8925
   5   2.0000     -10.312744      -280.6240
   6   2.0000     -10.312712      -280.6232
   7   2.0000     -10.304602      -280.4025
   8   2.0000     -10.299067      -280.2518
   9   2.0000     -10.294893      -280.1383
  10   2.0000     -10.293992      -280.1138
  11   2.0000     -10.289890      -280.0021
  12   2.0000     -10.289091      -279.9804
  13   2.0000     -10.288105      -279.9536
  14   2.0000     -10.287218      -279.9294
  15   2.0000     -10.278789      -279.7001
  16   2.0000      -8.080084      -219.8703
  17   2.0000      -8.079911      -219.8655
  18   2.0000      -6.038782      -164.3236
  19   2.0000      -6.038353      -164.3119
  20   2.0000      -6.034655      -164.2113
  21   2.0000      -6.034284      -164.2012
  22   2.0000      -6.030807      -164.1066
  23   2.0000      -6.030658      -164.1025
  24   2.0000      -1.008540       -27.4438
  25   2.0000      -0.981713       -26.7138
  26   2.0000      -0.911349       -24.7991
  27   2.0000      -0.909714       -24.7546
  28   2.0000      -0.866617       -23.5818
  29   2.0000      -0.855954       -23.2917
  30   2.0000      -0.841456       -22.8972
  31   2.0000      -0.809899       -22.0385
  32   2.0000      -0.787225       -21.4215
  33   2.0000      -0.776538       -21.1307
  34   2.0000      -0.713004       -19.4018
  35   2.0000      -0.704704       -19.1760
  36   2.0000      -0.696330       -18.9481
  37   2.0000      -0.664840       -18.0912
  38   2.0000      -0.635349       -17.2887
  39   2.0000      -0.613874       -16.7044
  40   2.0000      -0.595786       -16.2122
  41   2.0000      -0.575293       -15.6545
  42   2.0000      -0.561722       -15.2852
  43   2.0000      -0.548095       -14.9144
  44   2.0000      -0.537074       -14.6145
  45   2.0000      -0.528869       -14.3913
  46   2.0000      -0.519773       -14.1438
  47   2.0000      -0.513218       -13.9654
  48   2.0000      -0.508393       -13.8341
  49   2.0000      -0.499611       -13.5951
  50   2.0000      -0.494842       -13.4653
  51   2.0000      -0.483445       -13.1552
  52   2.0000      -0.478841       -13.0299
  53   2.0000      -0.462807       -12.5936
  54   2.0000      -0.457986       -12.4624
  55   2.0000      -0.447474       -12.1764
  56   2.0000      -0.443801       -12.0764
  57   2.0000      -0.437236       -11.8978
  58   2.0000      -0.435930       -11.8623
  59   2.0000      -0.430631       -11.7181
  60   2.0000      -0.419832       -11.4242
  61   2.0000      -0.411896       -11.2083
  62   2.0000      -0.407932       -11.1004
  63   2.0000      -0.361808        -9.8453
  64   2.0000      -0.335794        -9.1374
  65   2.0000      -0.325389        -8.8543
  66   2.0000      -0.280186        -7.6243
  67   0.0000       0.013914         0.3786
  68   0.0000       0.081605         2.2206
  69   0.0000       0.097715         2.6590
  70   0.0000       0.116973         3.1830
  71   0.0000       0.132114         3.5950

MULLIKEN ATOMIC CHARGES
-----------------------
   0 S :    0.093101
   1 C :   -0.130986
   2 C :   -0.082563
   3 C :   -0.044243
   4 C :   -0.079735
   5 H :    0.022326
   6 C :    0.054327
   7 H :    0.044393
   8 H :    0.013657
   9 C :   -0.085788
  10 H :    0.025876
  11 H :    0.039825
  12 C :   -0.081323
  13 H :    0.045917
  14 H :    0.047924
  15 H :    0.038935
  16 S :    0.091395
  17 C :   -0.087823
  18 C :   -0.045138
  19 C :   -0.079452
  20 C :   -0.114821
  21 H :    0.017413
  22 C :    0.105442
  23 H :    0.014791
  24 H :    0.004738
  25 C :   -0.072567
  26 H :    0.041212
  27 H :    0.020532
  28 C :   -0.011858
  29 H :    0.026804
  30 H :    0.027829
  31 H :    0.024447
  32 H :    0.057660
  33 H :    0.057751
Sum of atomic charges:    0.0000000

LOEWDIN ATOMIC CHARGES
----------------------
   0 S :    0.392186
   1 C :   -0.195887
   2 C :   -0.052100
   3 C :   -0.078618
   4 C :   -0.185615
   5 H :    0.040361
   6 C :   -0.037435
   7 H :    0.041968
   8 H :    0.023138
   9 C :   -0.045078
  10 H :    0.024832
  11 H :    0.025973
  12 C :   -0.072116
  13 H :    0.031336
  14 H :    0.035408
  15 H :    0.018818
  16 S :    0.411150
  17 C :   -0.193025
  18 C :   -0.074461
  19 C :   -0.056742
  20 C :   -0.185760
  21 H :    0.031346
  22 C :   -0.025653
  23 H :    0.022983
  24 H :    0.026879
  25 C :   -0.042418
  26 H :    0.038283
  27 H :    0.016992
  28 C :   -0.063698
  29 H :    0.021927
  30 H :    0.029246
  31 H :    0.024974
  32 H :    0.023023
  33 H :    0.027781

  Mayer bond orders larger than 0.100000
B(  0-S ,  1-C ) :   1.1311 B(  0-S ,  4-C ) :   1.1392 B(  1-C ,  2-C ) :   1.5775
B(  1-C ,  4-C ) :   0.1003 B(  1-C , 32-H ) :   0.9686 B(  2-C ,  3-C ) :   1.2627
B(  2-C ,  6-C ) :   1.0100 B(  3-C ,  4-C ) :   1.5615 B(  3-C ,  5-H ) :   0.9772
B(  4-C , 20-C ) :   1.0940 B(  6-C ,  7-H ) :   0.9328 B(  6-C ,  8-H ) :   0.9428
B(  6-C ,  9-C ) :   1.0890 B(  9-C , 10-H ) :   0.9520 B(  9-C , 11-H ) :   0.9518
B(  9-C , 12-C ) :   1.0666 B( 12-C , 13-H ) :   0.9751 B( 12-C , 14-H ) :   0.9735
B( 12-C , 15-H ) :   0.9779 B( 16-S , 17-C ) :   1.1642 B( 16-S , 20-C ) :   1.1490
B( 17-C , 18-C ) :   1.5896 B( 17-C , 20-C ) :   0.1066 B( 17-C , 33-H ) :   0.9675
B( 18-C , 19-C ) :   1.2819 B( 18-C , 21-H ) :   0.9853 B( 19-C , 20-C ) :   1.5501
B( 19-C , 22-C ) :   1.0280 B( 22-C , 23-H ) :   0.9364 B( 22-C , 24-H ) :   0.9226
B( 22-C , 25-C ) :   1.0546 B( 25-C , 26-H ) :   0.9501 B( 25-C , 27-H ) :   0.9571
B( 25-C , 28-C ) :   1.0722 B( 28-C , 29-H ) :   0.9757 B( 28-C , 30-H ) :   0.9702
B( 28-C , 31-H ) :   0.9729

Dispersion correction           -0.014313353
FINAL SINGLE POINT ENERGY     -1339.870102700740

DIPOLE MOMENT
-------------
                                X             Y             Z
Electronic contribution:     -2.64031     -12.30206      25.84997
Nuclear contribution   :      2.80801      12.88870     -26.33375
                        -----------------------------------------
Total Dipole Moment    :      0.16769       0.58664      -0.48379
                        -----------------------------------------
Magnitude (a.u.)       :      0.77866
Magnitude (Debye)      :      1.97921

Rotational constants in cm-1:     0.018941     0.008939     0.006342
Rotational constants in MHz :   567.844331   267.987918   190.122097

                             ****ORCA TERMINATED NORMALLY****
TOTAL RUN TIME: 0 days 0 hours 0 minutes 28 seconds 632 msec
