                         Program Version 4.2.1 -  RELEASE  -
|  1> ! wB97X-D3 SP def2-SVP
|  2> %pal
|  3> nprocs 16
|  4> end
|  5>
|  6> * xyz 0 1
|  7> S 	 -65.6261 	 46.0272 	 121.952
|  8> C 	 -66.4952 	 44.6217 	 122.495
|  9> C 	 -67.5617 	 45.0148 	 123.276
| 10> C 	 -67.7494 	 46.4088 	 123.397
| 11> C 	 -66.7484 	 47.1184 	 122.773
| 12> H 	 -68.5809 	 46.9324 	 123.863
| 13> C 	 -68.4858 	 44.0444 	 123.979
| 14> H 	 -68.7492 	 43.3709 	 123.221
| 15> H 	 -69.4015 	 44.5991 	 124.309
| 16> C 	 -67.9036 	 43.3687 	 125.291
| 17> H 	 -66.874 	 43.1 	 125.095
| 18> H 	 -67.7217 	 43.9935 	 126.13
| 19> C 	 -68.637 	 42.1425 	 125.735
| 20> H 	 -68.0045 	 41.5074 	 126.31
| 21> H 	 -69.4166 	 42.5494 	 126.447
| 22> H 	 -69.3178 	 41.6528 	 125.021
| 23> S 	 -66.7342 	 49.5587 	 121.449
| 24> C 	 -66.2665 	 51.0756 	 122.315
| 25> C 	 -66.0966 	 50.7604 	 123.672
| 26> C 	 -66.3527 	 49.374 	 123.95
| 27> C 	 -66.5878 	 48.5896 	 122.889
| 28> H 	 -65.9549 	 51.5361 	 124.451
| 29> C 	 -66.1865 	 48.8406 	 125.417
| 30> H 	 -66.6697 	 47.8844 	 125.468
| 31> H 	 -66.7808 	 49.6064 	 125.955
| 32> C 	 -64.6693 	 48.7746 	 125.891
| 33> H 	 -64.198 	 49.8126 	 125.659
| 34> H 	 -64.0585 	 48.0466 	 125.298
| 35> C 	 -64.5454 	 48.6681 	 127.445
| 36> H 	 -65.2567 	 49.308 	 127.863
| 37> H 	 -63.5832 	 48.845 	 127.793
| 38> H 	 -64.7587 	 47.6064 	 127.696
| 39> H 	 -66.1363 	 43.5874 	 122.366
| 40> H 	 -66.1602 	 52.0624 	 121.79
| 41> *
| 42>
| 43>                          ****END OF INPUT****

CARTESIAN COORDINATES (ANGSTROEM)
---------------------------------
  S    -65.626100   46.027200  121.952000
  C    -66.495200   44.621700  122.495000
  C    -67.561700   45.014800  123.276000
  C    -67.749400   46.408800  123.397000
  C    -66.748400   47.118400  122.773000
  H    -68.580900   46.932400  123.863000
  C    -68.485800   44.044400  123.979000
  H    -68.749200   43.370900  123.221000
  H    -69.401500   44.599100  124.309000
  C    -67.903600   43.368700  125.291000
  H    -66.874000   43.100000  125.095000
  H    -67.721700   43.993500  126.130000
  C    -68.637000   42.142500  125.735000
  H    -68.004500   41.507400  126.310000
  H    -69.416600   42.549400  126.447000
  H    -69.317800   41.652800  125.021000
  S    -66.734200   49.558700  121.449000
  C    -66.266500   51.075600  122.315000
  C    -66.096600   50.760400  123.672000
  C    -66.352700   49.374000  123.950000
  C    -66.587800   48.589600  122.889000
  H    -65.954900   51.536100  124.451000
  C    -66.186500   48.840600  125.417000
  H    -66.669700   47.884400  125.468000
  H    -66.780800   49.606400  125.955000
  C    -64.669300   48.774600  125.891000
  H    -64.198000   49.812600  125.659000
  H    -64.058500   48.046600  125.298000
  C    -64.545400   48.668100  127.445000
  H    -65.256700   49.308000  127.863000
  H    -63.583200   48.845000  127.793000
  H    -64.758700   47.606400  127.696000
  H    -66.136300   43.587400  122.366000
  H    -66.160200   52.062400  121.790000

 Total Charge           Charge          ....    0
 Multiplicity           Mult            ....    1
 Number of Electrons    NEL             ....  134
 Basis Dimension        Dim             ....  322

ORBITAL ENERGIES
----------------

  NO   OCC          E(Eh)            E(eV)
   0   2.0000     -88.969066     -2420.9714
   1   2.0000     -88.960188     -2420.7298
   2   2.0000     -10.331879      -281.1447
   3   2.0000     -10.330211      -281.0993
   4   2.0000     -10.322721      -280.8955
   5   2.0000     -10.315884      -280.7095
   6   2.0000     -10.302139      -280.3355
   7   2.0000     -10.299786      -280.2714
   8   2.0000     -10.298752      -280.2433
   9   2.0000     -10.298439      -280.2348
  10   2.0000     -10.295957      -280.1672
  11   2.0000     -10.293392      -280.0974
  12   2.0000     -10.292698      -280.0786
  13   2.0000     -10.283214      -279.8205
  14   2.0000     -10.278306      -279.6869
  15   2.0000     -10.271480      -279.5012
  16   2.0000      -8.083394      -219.9603
  17   2.0000      -8.074549      -219.7196
  18   2.0000      -6.041940      -164.4096
  19   2.0000      -6.037830      -164.2977
  20   2.0000      -6.034261      -164.2006
  21   2.0000      -6.033191      -164.1715
  22   2.0000      -6.029071      -164.0594
  23   2.0000      -6.025215      -163.9544
  24   2.0000      -1.005761       -27.3681
  25   2.0000      -0.983615       -26.7655
  26   2.0000      -0.908223       -24.7140
  27   2.0000      -0.893033       -24.3007
  28   2.0000      -0.868325       -23.6283
  29   2.0000      -0.855149       -23.2698
  30   2.0000      -0.843096       -22.9418
  31   2.0000      -0.816477       -22.2175
  32   2.0000      -0.776441       -21.1280
  33   2.0000      -0.767347       -20.8806
  34   2.0000      -0.705863       -19.2075
  35   2.0000      -0.698703       -19.0127
  36   2.0000      -0.690843       -18.7988
  37   2.0000      -0.663652       -18.0589
  38   2.0000      -0.644617       -17.5409
  39   2.0000      -0.614968       -16.7341
  40   2.0000      -0.586208       -15.9515
  41   2.0000      -0.569026       -15.4840
  42   2.0000      -0.557914       -15.1816
  43   2.0000      -0.550908       -14.9910
  44   2.0000      -0.533855       -14.5269
  45   2.0000      -0.525274       -14.2934
  46   2.0000      -0.519289       -14.1306
  47   2.0000      -0.514332       -13.9957
  48   2.0000      -0.509314       -13.8591
  49   2.0000      -0.500500       -13.6193
  50   2.0000      -0.486540       -13.2394
  51   2.0000      -0.479800       -13.0560
  52   2.0000      -0.474506       -12.9120
  53   2.0000      -0.466391       -12.6912
  54   2.0000      -0.461715       -12.5639
  55   2.0000      -0.452156       -12.3038
  56   2.0000      -0.442793       -12.0490
  57   2.0000      -0.439827       -11.9683
  58   2.0000      -0.431428       -11.7397
  59   2.0000      -0.421979       -11.4826
  60   2.0000      -0.413423       -11.2498
  61   2.0000      -0.402471       -10.9518
  62   2.0000      -0.400907       -10.9092
  63   2.0000      -0.341437        -9.2910
  64   2.0000      -0.330938        -9.0053
  65   2.0000      -0.327649        -8.9158
  66   2.0000      -0.303284        -8.2528
  67   0.0000       0.036349         0.9891
  68   0.0000       0.061726         1.6796
  69   0.0000       0.113465         3.0875
  70   0.0000       0.123509         3.3609
  71   0.0000       0.132666         3.6100

MULLIKEN ATOMIC CHARGES
-----------------------
   0 S :    0.120578
   1 C :   -0.132919
   2 C :   -0.101146
   3 C :    0.041128
   4 C :   -0.151523
   5 H :    0.025687
   6 C :    0.080877
   7 H :    0.023991
   8 H :    0.025519
   9 C :   -0.055637
  10 H :    0.006814
  11 H :    0.017691
  12 C :   -0.043808
  13 H :    0.034872
  14 H :    0.022433
  15 H :    0.037237
  16 S :    0.084074
  17 C :   -0.124168
  18 C :   -0.034079
  19 C :   -0.056261
  20 C :   -0.171953
  21 H :    0.037911
  22 C :    0.081958
  23 H :    0.020717
  24 H :    0.029953
  25 C :   -0.133830
  26 H :    0.031988
  27 H :    0.049752
  28 C :    0.010482
  29 H :    0.019895
  30 H :    0.023479
  31 H :    0.028689
  32 H :    0.063678
  33 H :    0.085922
Sum of atomic charges:    0.0000000

LOEWDIN ATOMIC CHARGES
----------------------
   0 S :    0.411062
   1 C :   -0.206383
   2 C :   -0.068326
   3 C :   -0.061057
   4 C :   -0.188172
   5 H :    0.037803
   6 C :   -0.023583
   7 H :    0.025291
   8 H :    0.032496
   9 C :   -0.043257
  10 H :    0.017082
  11 H :    0.022483
  12 C :   -0.070704
  13 H :    0.024334
  14 H :    0.031539
  15 H :    0.028764
  16 S :    0.378713
  17 C :   -0.172423
  18 C :   -0.075549
  19 C :   -0.063494
  20 C :   -0.204857
  21 H :    0.037771
  22 C :   -0.024710
  23 H :    0.022310
  24 H :    0.032254
  25 C :   -0.043824
  26 H :    0.027303
  27 H :    0.029815
  28 C :   -0.055163
  29 H :    0.017460
  30 H :    0.016607
  31 H :    0.028610
  32 H :    0.037305
  33 H :    0.042499

  Mayer bond orders larger than 0.100000
B(  0-S ,  1-C ) :   1.1383 B(  0-S ,  4-C ) :   1.1652 B(  1-C ,  2-C ) :   1.5977
B(  1-C , 32-H ) :   0.9682 B(  2-C ,  3-C ) :   1.2547 B(  2-C ,  6-C ) :   1.0203
B(  3-C ,  4-C ) :   1.5680 B(  3-C ,  5-H ) :   0.9927 B(  4-C , 20-C ) :   0.9961
B(  6-C ,  7-H ) :   0.9415 B(  6-C ,  8-H ) :   0.9450 B(  6-C ,  9-C ) :   1.0486
B(  9-C , 10-H ) :   0.9623 B(  9-C , 11-H ) :   0.9546 B(  9-C , 12-C ) :   1.0747
B( 12-C , 13-H ) :   0.9736 B( 12-C , 14-H ) :   0.9750 B( 12-C , 15-H ) :   0.9774
B( 16-S , 17-C ) :   1.1471 B( 16-S , 20-C ) :   1.1291 B( 17-C , 18-C ) :   1.6043
B( 17-C , 33-H ) :   0.9645 B( 18-C , 19-C ) :   1.2308 B( 18-C , 21-H ) :   0.9809
B( 19-C , 20-C ) :   1.6573 B( 19-C , 22-C ) :   1.0270 B( 22-C , 23-H ) :   0.9354
B( 22-C , 24-H ) :   0.9370 B( 22-C , 25-C ) :   1.0509 B( 25-C , 26-H ) :   0.9607
B( 25-C , 27-H ) :   0.9596 B( 25-C , 28-C ) :   1.0650 B( 28-C , 29-H ) :   0.9761
B( 28-C , 30-H ) :   0.9766 B( 28-C , 31-H ) :   0.9766

Dispersion correction           -0.013980950
FINAL SINGLE POINT ENERGY     -1339.863963334612

DIPOLE MOMENT
-------------
                                X             Y             Z
Electronic contribution:      2.64967      12.68682     -27.09504
Nuclear contribution   :     -2.76863     -12.81404      27.79322
                        -----------------------------------------
Total Dipole Moment    :     -0.11896      -0.12723       0.69818
                        -----------------------------------------
Magnitude (a.u.)       :      0.71958
Magnitude (Debye)      :      1.82903

Rotational constants in cm-1:     0.018104     0.008289     0.006497
Rotational constants in MHz :   542.739251   248.503852   194.765994

                             ****ORCA TERMINATED NORMALLY****
TOTAL RUN TIME: 0 days 0 hours 0 minutes 31 seconds 641 msec
