                         Program Version 4.2.1 -  RELEASE  -
|  1> ! wB97X-D3 SP def2-SVP
|  2> %pal
|  3> nprocs 16
|  4> end
|  5>
|  6> * xyz 0 1
|  7> S 	 -10.3181 	 48.878 	 43.2892
|  8> C 	 -11.7325 	 49.8908 	 43.6113
|  9> C 	 -11.58 	 51.0918 	 42.9019
| 10> C 	 -10.3577 	 51.1829 	 42.2382
| 11> C 	 -9.6187 	 49.9799 	 42.182
| 12> H 	 -10.0495 	 52.0369 	 41.6104
| 13> C 	 -12.5961 	 52.1508 	 42.679
| 14> H 	 -12.1706 	 53.1014 	 43.0888
| 15> H 	 -13.4816 	 51.8221 	 43.231
| 16> C 	 -13.0985 	 52.135 	 41.1537
| 17> H 	 -13.9748 	 52.6985 	 40.9113
| 18> H 	 -12.3849 	 52.6533 	 40.5243
| 19> C 	 -13.1868 	 50.6872 	 40.6094
| 20> H 	 -12.211 	 50.1799 	 40.6129
| 21> H 	 -13.9359 	 50.0908 	 41.158
| 22> H 	 -13.5008 	 50.6246 	 39.5749
| 23> S 	 -7.3704 	 48.4344 	 42.322
| 24> C 	 -6.0602 	 48.5107 	 41.1323
| 25> C 	 -6.25754 	 49.6629 	 40.3759
| 26> C 	 -7.57143 	 50.3103 	 40.531
| 27> C 	 -8.34222 	 49.6938 	 41.5367
| 28> H 	 -5.43179 	 49.9982 	 39.7357
| 29> C 	 -7.94628 	 51.4735 	 39.674
| 30> H 	 -7.04461 	 51.9527 	 39.2586
| 31> H 	 -8.39335 	 52.2664 	 40.2103
| 32> C 	 -8.7689 	 51.136 	 38.4411
| 33> H 	 -9.80387 	 50.8453 	 38.7446
| 34> H 	 -8.37083 	 50.2001 	 38.0846
| 35> C 	 -8.7333 	 52.2883 	 37.4792
| 36> H 	 -8.96013 	 53.3386 	 37.9011
| 37> H 	 -9.35553 	 52.0182 	 36.6579
| 38> H 	 -7.69089 	 52.3073 	 37.0814
| 39> H 	 -12.7146 	 49.737 	 44.1178
| 40> H 	 -5.07738 	 47.9835 	 41.194
| 41> *
| 42>
| 43>                          ****END OF INPUT****

CARTESIAN COORDINATES (ANGSTROEM)
---------------------------------
  S    -10.318100   48.878000   43.289200
  C    -11.732500   49.890800   43.611300
  C    -11.580000   51.091800   42.901900
  C    -10.357700   51.182900   42.238200
  C     -9.618700   49.979900   42.182000
  H    -10.049500   52.036900   41.610400
  C    -12.596100   52.150800   42.679000
  H    -12.170600   53.101400   43.088800
  H    -13.481600   51.822100   43.231000
  C    -13.098500   52.135000   41.153700
  H    -13.974800   52.698500   40.911300
  H    -12.384900   52.653300   40.524300
  C    -13.186800   50.687200   40.609400
  H    -12.211000   50.179900   40.612900
  H    -13.935900   50.090800   41.158000
  H    -13.500800   50.624600   39.574900
  S     -7.370400   48.434400   42.322000
  C     -6.060200   48.510700   41.132300
  C     -6.257540   49.662900   40.375900
  C     -7.571430   50.310300   40.531000
  C     -8.342220   49.693800   41.536700
  H     -5.431790   49.998200   39.735700
  C     -7.946280   51.473500   39.674000
  H     -7.044610   51.952700   39.258600
  H     -8.393350   52.266400   40.210300
  C     -8.768900   51.136000   38.441100
  H     -9.803870   50.845300   38.744600
  H     -8.370830   50.200100   38.084600
  C     -8.733300   52.288300   37.479200
  H     -8.960130   53.338600   37.901100
  H     -9.355530   52.018200   36.657900
  H     -7.690890   52.307300   37.081400
  H    -12.714600   49.737000   44.117800
  H     -5.077380   47.983500   41.194000

 Total Charge           Charge          ....    0
 Multiplicity           Mult            ....    1
 Number of Electrons    NEL             ....  134
 Basis Dimension        Dim             ....  322

ORBITAL ENERGIES
----------------

  NO   OCC          E(Eh)            E(eV)
   0   2.0000     -88.972229     -2421.0574
   1   2.0000     -88.964511     -2420.8474
   2   2.0000     -10.337785      -281.3054
   3   2.0000     -10.335235      -281.2360
   4   2.0000     -10.325639      -280.9749
   5   2.0000     -10.319824      -280.8167
   6   2.0000     -10.312660      -280.6217
   7   2.0000     -10.303381      -280.3693
   8   2.0000     -10.299997      -280.2772
   9   2.0000     -10.296594      -280.1846
  10   2.0000     -10.293085      -280.0891
  11   2.0000     -10.291327      -280.0412
  12   2.0000     -10.287302      -279.9317
  13   2.0000     -10.286473      -279.9092
  14   2.0000     -10.284479      -279.8549
  15   2.0000     -10.275245      -279.6036
  16   2.0000      -8.086542      -220.0460
  17   2.0000      -8.078710      -219.8329
  18   2.0000      -6.045143      -164.4967
  19   2.0000      -6.040927      -164.3820
  20   2.0000      -6.037479      -164.2881
  21   2.0000      -6.037373      -164.2853
  22   2.0000      -6.033251      -164.1731
  23   2.0000      -6.029245      -164.0641
  24   2.0000      -1.009034       -27.4572
  25   2.0000      -0.981629       -26.7115
  26   2.0000      -0.919512       -25.0212
  27   2.0000      -0.911848       -24.8127
  28   2.0000      -0.865934       -23.5633
  29   2.0000      -0.851820       -23.1792
  30   2.0000      -0.840193       -22.8628
  31   2.0000      -0.812989       -22.1225
  32   2.0000      -0.780189       -21.2300
  33   2.0000      -0.772189       -21.0123
  34   2.0000      -0.712208       -19.3802
  35   2.0000      -0.702716       -19.1219
  36   2.0000      -0.694914       -18.9096
  37   2.0000      -0.660851       -17.9827
  38   2.0000      -0.630179       -17.1481
  39   2.0000      -0.622777       -16.9466
  40   2.0000      -0.599389       -16.3102
  41   2.0000      -0.567558       -15.4440
  42   2.0000      -0.562796       -15.3145
  43   2.0000      -0.553924       -15.0730
  44   2.0000      -0.542073       -14.7506
  45   2.0000      -0.525496       -14.2995
  46   2.0000      -0.519575       -14.1383
  47   2.0000      -0.510171       -13.8825
  48   2.0000      -0.507543       -13.8110
  49   2.0000      -0.495546       -13.4845
  50   2.0000      -0.494835       -13.4652
  51   2.0000      -0.476677       -12.9710
  52   2.0000      -0.467434       -12.7195
  53   2.0000      -0.462261       -12.5788
  54   2.0000      -0.456535       -12.4230
  55   2.0000      -0.450527       -12.2595
  56   2.0000      -0.443953       -12.0806
  57   2.0000      -0.441875       -12.0240
  58   2.0000      -0.436066       -11.8660
  59   2.0000      -0.426996       -11.6191
  60   2.0000      -0.416871       -11.3437
  61   2.0000      -0.412482       -11.2242
  62   2.0000      -0.406856       -11.0711
  63   2.0000      -0.359542        -9.7836
  64   2.0000      -0.333030        -9.0622
  65   2.0000      -0.324754        -8.8370
  66   2.0000      -0.283823        -7.7232
  67   0.0000       0.011960         0.3254
  68   0.0000       0.082472         2.2442
  69   0.0000       0.091354         2.4859
  70   0.0000       0.112968         3.0740
  71   0.0000       0.125405         3.4125

MULLIKEN ATOMIC CHARGES
-----------------------
   0 S :    0.116295
   1 C :   -0.100268
   2 C :   -0.166410
   3 C :    0.011856
   4 C :   -0.131918
   5 H :    0.007977
   6 C :    0.090759
   7 H :    0.057634
   8 H :    0.015013
   9 C :   -0.075474
  10 H :    0.029125
  11 H :    0.016589
  12 C :   -0.056834
  13 H :    0.055089
  14 H :    0.027555
  15 H :    0.026467
  16 S :    0.074973
  17 C :   -0.099597
  18 C :   -0.051846
  19 C :   -0.047463
  20 C :   -0.098196
  21 H :    0.031503
  22 C :    0.048154
  23 H :    0.005177
  24 H :    0.013104
  25 C :   -0.060465
  26 H :    0.028132
  27 H :    0.022480
  28 C :   -0.049552
  29 H :    0.051346
  30 H :    0.033901
  31 H :    0.033737
  32 H :    0.058479
  33 H :    0.082680
Sum of atomic charges:   -0.0000000

LOEWDIN ATOMIC CHARGES
----------------------
   0 S :    0.428555
   1 C :   -0.212392
   2 C :   -0.072610
   3 C :   -0.071249
   4 C :   -0.203503
   5 H :    0.030037
   6 C :   -0.029980
   7 H :    0.041430
   8 H :    0.027646
   9 C :   -0.037846
  10 H :    0.021823
  11 H :    0.018624
  12 C :   -0.067982
  13 H :    0.031680
  14 H :    0.023656
  15 H :    0.023958
  16 S :    0.381365
  17 C :   -0.192093
  18 C :   -0.070506
  19 C :   -0.055518
  20 C :   -0.181402
  21 H :    0.033898
  22 C :   -0.035833
  23 H :    0.031747
  24 H :    0.018469
  25 C :   -0.041033
  26 H :    0.023760
  27 H :    0.024518
  28 C :   -0.069054
  29 H :    0.037211
  30 H :    0.024076
  31 H :    0.030034
  32 H :    0.043481
  33 H :    0.045032

  Mayer bond orders larger than 0.100000
B(  0-S ,  1-C ) :   1.1354 B(  0-S ,  4-C ) :   1.1725 B(  1-C ,  2-C ) :   1.5757
B(  1-C ,  4-C ) :   0.1099 B(  1-C , 32-H ) :   0.9555 B(  2-C ,  3-C ) :   1.2896
B(  2-C ,  6-C ) :   1.0322 B(  3-C ,  4-C ) :   1.5097 B(  3-C ,  5-H ) :   0.9853
B(  4-C , 20-C ) :   1.0880 B(  6-C ,  7-H ) :   0.9445 B(  6-C ,  8-H ) :   0.9372
B(  6-C ,  9-C ) :   1.0374 B(  9-C , 10-H ) :   0.9646 B(  9-C , 11-H ) :   0.9533
B(  9-C , 12-C ) :   1.0825 B( 12-C , 13-H ) :   0.9625 B( 12-C , 14-H ) :   0.9767
B( 12-C , 15-H ) :   0.9719 B( 16-S , 17-C ) :   1.1336 B( 16-S , 20-C ) :   1.1348
B( 17-C , 18-C ) :   1.6240 B( 17-C , 33-H ) :   0.9608 B( 18-C , 19-C ) :   1.2312
B( 18-C , 21-H ) :   0.9820 B( 19-C , 20-C ) :   1.5731 B( 19-C , 22-C ) :   1.0609
B( 22-C , 23-H ) :   0.9296 B( 22-C , 24-H ) :   0.9275 B( 22-C , 25-C ) :   1.0595
B( 25-C , 26-H ) :   0.9484 B( 25-C , 27-H ) :   0.9504 B( 25-C , 28-C ) :   1.0802
B( 28-C , 29-H ) :   0.9721 B( 28-C , 30-H ) :   0.9710 B( 28-C , 31-H ) :   0.9705

Dispersion correction           -0.015422269
FINAL SINGLE POINT ENERGY     -1339.863509892887

DIPOLE MOMENT
-------------
                                X             Y             Z
Electronic contribution:     12.31106     -17.82434      20.22613
Nuclear contribution   :    -12.35925      18.40402     -20.77496
                        -----------------------------------------
Total Dipole Moment    :     -0.04819       0.57968      -0.54883
                        -----------------------------------------
Magnitude (a.u.)       :      0.79973
Magnitude (Debye)      :      2.03274

Rotational constants in cm-1:     0.017159     0.011024     0.007241
Rotational constants in MHz :   514.428858   330.485203   217.090616

                             ****ORCA TERMINATED NORMALLY****
TOTAL RUN TIME: 0 days 0 hours 0 minutes 36 seconds 974 msec
