                         Program Version 4.2.1 -  RELEASE  -
|  1> ! wB97X-D3 SP def2-SVP
|  2> %pal
|  3> nprocs 16
|  4> end
|  5>
|  6> * xyz 0 1
|  7> S 	 -47.3451 	 62.7534 	 140.474
|  8> C 	 -45.9531 	 63.0739 	 141.508
|  9> C 	 -45.5861 	 64.4178 	 141.456
| 10> C 	 -46.561 	 65.1791 	 140.739
| 11> C 	 -47.601 	 64.462 	 140.245
| 12> H 	 -46.6493 	 66.2739 	 140.567
| 13> C 	 -44.3634 	 65.0646 	 142.145
| 14> H 	 -43.5027 	 64.5514 	 141.874
| 15> H 	 -44.5924 	 64.7642 	 143.199
| 16> C 	 -44.0952 	 66.6094 	 142.415
| 17> H 	 -43.6077 	 67.1477 	 141.55
| 18> H 	 -45.0662 	 67.1518 	 142.478
| 19> C 	 -43.3429 	 67.051 	 143.708
| 20> H 	 -43.542 	 68.0873 	 143.804
| 21> H 	 -43.7272 	 66.5418 	 144.626
| 22> H 	 -42.2119 	 66.9473 	 143.704
| 23> S 	 -50.2963 	 64.5743 	 140.251
| 24> C 	 -51.1739 	 65.2219 	 138.89
| 25> C 	 -50.2851 	 65.9142 	 138.085
| 26> C 	 -48.9339 	 65.6927 	 138.441
| 27> C 	 -48.8014 	 64.8707 	 139.55
| 28> H 	 -50.6671 	 66.4275 	 137.234
| 29> C 	 -47.8637 	 66.2855 	 137.663
| 30> H 	 -48.2829 	 66.3129 	 136.638
| 31> H 	 -47.0199 	 65.6397 	 137.686
| 32> C 	 -47.483 	 67.7721 	 137.945
| 33> H 	 -47.1384 	 68.0785 	 138.915
| 34> H 	 -48.3879 	 68.3429 	 137.797
| 35> C 	 -46.4264 	 68.2723 	 136.937
| 36> H 	 -45.452 	 67.6802 	 136.939
| 37> H 	 -46.1169 	 69.2043 	 137.38
| 38> H 	 -46.7059 	 68.3682 	 135.894
| 39> H 	 -45.4303 	 62.3159 	 142.083
| 40> H 	 -52.2157 	 64.9909 	 138.612
| 41> *
| 42>
| 43>                          ****END OF INPUT****

CARTESIAN COORDINATES (ANGSTROEM)
---------------------------------
  S    -47.345100   62.753400  140.474000
  C    -45.953100   63.073900  141.508000
  C    -45.586100   64.417800  141.456000
  C    -46.561000   65.179100  140.739000
  C    -47.601000   64.462000  140.245000
  H    -46.649300   66.273900  140.567000
  C    -44.363400   65.064600  142.145000
  H    -43.502700   64.551400  141.874000
  H    -44.592400   64.764200  143.199000
  C    -44.095200   66.609400  142.415000
  H    -43.607700   67.147700  141.550000
  H    -45.066200   67.151800  142.478000
  C    -43.342900   67.051000  143.708000
  H    -43.542000   68.087300  143.804000
  H    -43.727200   66.541800  144.626000
  H    -42.211900   66.947300  143.704000
  S    -50.296300   64.574300  140.251000
  C    -51.173900   65.221900  138.890000
  C    -50.285100   65.914200  138.085000
  C    -48.933900   65.692700  138.441000
  C    -48.801400   64.870700  139.550000
  H    -50.667100   66.427500  137.234000
  C    -47.863700   66.285500  137.663000
  H    -48.282900   66.312900  136.638000
  H    -47.019900   65.639700  137.686000
  C    -47.483000   67.772100  137.945000
  H    -47.138400   68.078500  138.915000
  H    -48.387900   68.342900  137.797000
  C    -46.426400   68.272300  136.937000
  H    -45.452000   67.680200  136.939000
  H    -46.116900   69.204300  137.380000
  H    -46.705900   68.368200  135.894000
  H    -45.430300   62.315900  142.083000
  H    -52.215700   64.990900  138.612000

 Total Charge           Charge          ....    0
 Multiplicity           Mult            ....    1
 Number of Electrons    NEL             ....  134
 Basis Dimension        Dim             ....  322

ORBITAL ENERGIES
----------------

  NO   OCC          E(Eh)            E(eV)
   0   2.0000     -88.963220     -2420.8123
   1   2.0000     -88.961990     -2420.7788
   2   2.0000     -10.321683      -280.8673
   3   2.0000     -10.315669      -280.7036
   4   2.0000     -10.315510      -280.6993
   5   2.0000     -10.315246      -280.6921
   6   2.0000     -10.310615      -280.5661
   7   2.0000     -10.304421      -280.3975
   8   2.0000     -10.297719      -280.2152
   9   2.0000     -10.293216      -280.0926
  10   2.0000     -10.292678      -280.0780
  11   2.0000     -10.289734      -279.9979
  12   2.0000     -10.288223      -279.9568
  13   2.0000     -10.288069      -279.9526
  14   2.0000     -10.283544      -279.8295
  15   2.0000     -10.280068      -279.7349
  16   2.0000      -8.078207      -219.8192
  17   2.0000      -8.078019      -219.8141
  18   2.0000      -6.036609      -164.2645
  19   2.0000      -6.036445      -164.2600
  20   2.0000      -6.032594      -164.1552
  21   2.0000      -6.032407      -164.1501
  22   2.0000      -6.029074      -164.0594
  23   2.0000      -6.028775      -164.0513
  24   2.0000      -1.015082       -27.6218
  25   2.0000      -0.987387       -26.8682
  26   2.0000      -0.912001       -24.8168
  27   2.0000      -0.901371       -24.5276
  28   2.0000      -0.870985       -23.7007
  29   2.0000      -0.854860       -23.2619
  30   2.0000      -0.845741       -23.0138
  31   2.0000      -0.818743       -22.2791
  32   2.0000      -0.783310       -21.3149
  33   2.0000      -0.768189       -20.9035
  34   2.0000      -0.708817       -19.2879
  35   2.0000      -0.701532       -19.0896
  36   2.0000      -0.689614       -18.7653
  37   2.0000      -0.665147       -18.0996
  38   2.0000      -0.645258       -17.5584
  39   2.0000      -0.615388       -16.7456
  40   2.0000      -0.595278       -16.1983
  41   2.0000      -0.570331       -15.5195
  42   2.0000      -0.562308       -15.3012
  43   2.0000      -0.562036       -15.2938
  44   2.0000      -0.531084       -14.4515
  45   2.0000      -0.520171       -14.1546
  46   2.0000      -0.517366       -14.0782
  47   2.0000      -0.509918       -13.8756
  48   2.0000      -0.502763       -13.6809
  49   2.0000      -0.500571       -13.6212
  50   2.0000      -0.493351       -13.4248
  51   2.0000      -0.477257       -12.9868
  52   2.0000      -0.474316       -12.9068
  53   2.0000      -0.468800       -12.7567
  54   2.0000      -0.457309       -12.4440
  55   2.0000      -0.451405       -12.2834
  56   2.0000      -0.444611       -12.0985
  57   2.0000      -0.436147       -11.8682
  58   2.0000      -0.429740       -11.6938
  59   2.0000      -0.426403       -11.6030
  60   2.0000      -0.420047       -11.4301
  61   2.0000      -0.414804       -11.2874
  62   2.0000      -0.414099       -11.2682
  63   2.0000      -0.341753        -9.2996
  64   2.0000      -0.326637        -8.8883
  65   2.0000      -0.322455        -8.7745
  66   2.0000      -0.297084        -8.0841
  67   0.0000       0.029634         0.8064
  68   0.0000       0.072821         1.9816
  69   0.0000       0.116685         3.1752
  70   0.0000       0.122161         3.3242
  71   0.0000       0.130297         3.5456

MULLIKEN ATOMIC CHARGES
-----------------------
   0 S :    0.115360
   1 C :   -0.134945
   2 C :   -0.060781
   3 C :    0.023989
   4 C :   -0.188391
   5 H :    0.015587
   6 C :    0.064595
   7 H :    0.029761
   8 H :    0.037571
   9 C :   -0.101198
  10 H :    0.038194
  11 H :    0.033044
  12 C :   -0.069323
  13 H :    0.031642
  14 H :    0.040437
  15 H :    0.047795
  16 S :    0.125485
  17 C :   -0.117987
  18 C :   -0.032898
  19 C :   -0.008571
  20 C :   -0.149094
  21 H :    0.008826
  22 C :    0.065209
  23 H :    0.017418
  24 H :    0.022328
  25 C :   -0.051648
  26 H :    0.023910
  27 H :    0.018472
  28 C :   -0.060605
  29 H :    0.034047
  30 H :    0.023871
  31 H :    0.039491
  32 H :    0.046984
  33 H :    0.071425
Sum of atomic charges:   -0.0000000

LOEWDIN ATOMIC CHARGES
----------------------
   0 S :    0.405466
   1 C :   -0.195958
   2 C :   -0.055809
   3 C :   -0.070895
   4 C :   -0.197350
   5 H :    0.038269
   6 C :   -0.038967
   7 H :    0.022149
   8 H :    0.046019
   9 C :   -0.049275
  10 H :    0.027230
  11 H :    0.028567
  12 C :   -0.068867
  13 H :    0.024670
  14 H :    0.028520
  15 H :    0.030750
  16 S :    0.444041
  17 C :   -0.195481
  18 C :   -0.067965
  19 C :   -0.063095
  20 C :   -0.233682
  21 H :    0.026689
  22 C :   -0.033553
  23 H :    0.037645
  24 H :    0.026165
  25 C :   -0.031408
  26 H :    0.017980
  27 H :    0.023741
  28 C :   -0.069439
  29 H :    0.031252
  30 H :    0.024656
  31 H :    0.022582
  32 H :    0.027848
  33 H :    0.037503

  Mayer bond orders larger than 0.100000
B(  0-S ,  1-C ) :   1.1400 B(  0-S ,  4-C ) :   1.1526 B(  1-C ,  2-C ) :   1.6122
B(  1-C ,  4-C ) :   0.1028 B(  1-C , 32-H ) :   0.9751 B(  2-C ,  3-C ) :   1.2168
B(  2-C ,  6-C ) :   0.9911 B(  3-C ,  4-C ) :   1.6134 B(  3-C ,  5-H ) :   0.9895
B(  4-C , 20-C ) :   1.0086 B(  6-C ,  7-H ) :   0.9474 B(  6-C ,  8-H ) :   0.9452
B(  6-C ,  9-C ) :   1.0475 B(  9-C , 10-H ) :   0.9533 B(  9-C , 11-H ) :   0.9551
B(  9-C , 12-C ) :   1.0840 B( 12-C , 13-H ) :   0.9742 B( 12-C , 14-H ) :   0.9721
B( 12-C , 15-H ) :   0.9771 B( 16-S , 17-C ) :   1.1698 B( 16-S , 20-C ) :   1.1751
B( 17-C , 18-C ) :   1.5714 B( 17-C , 20-C ) :   0.1029 B( 17-C , 33-H ) :   0.9664
B( 18-C , 19-C ) :   1.2613 B( 18-C , 21-H ) :   0.9960 B( 19-C , 20-C ) :   1.5423
B( 19-C , 22-C ) :   1.0761 B( 22-C , 23-H ) :   0.9279 B( 22-C , 24-H ) :   0.9268
B( 22-C , 25-C ) :   1.0592 B( 25-C , 26-H ) :   0.9586 B( 25-C , 27-H ) :   0.9487
B( 25-C , 28-C ) :   1.0812 B( 28-C , 29-H ) :   0.9739 B( 28-C , 30-H ) :   0.9748
B( 28-C , 31-H ) :   0.9772

Dispersion correction           -0.013823682
FINAL SINGLE POINT ENERGY     -1339.855497257796

DIPOLE MOMENT
-------------
                                X             Y             Z
Electronic contribution:    -21.62456     -22.38407       0.44514
Nuclear contribution   :     21.98212      22.94563      -0.50967
                        -----------------------------------------
Total Dipole Moment    :      0.35756       0.56156      -0.06453
                        -----------------------------------------
Magnitude (a.u.)       :      0.66885
Magnitude (Debye)      :      1.70008

Rotational constants in cm-1:     0.016493     0.008902     0.006654
Rotational constants in MHz :   494.459415   266.888304   199.471095

                             ****ORCA TERMINATED NORMALLY****
TOTAL RUN TIME: 0 days 0 hours 0 minutes 32 seconds 159 msec
