                         Program Version 4.2.1 -  RELEASE  -
|  1> ! wB97X-D3 SP def2-SVP
|  2> %pal
|  3> nprocs 16
|  4> end
|  5>
|  6> * xyz 0 1
|  7> S 	 6.89084 	 25.3601 	 67.9656
|  8> C 	 6.38975 	 24.9115 	 66.3461
|  9> C 	 6.71176 	 25.9616 	 65.4804
| 10> C 	 7.06664 	 27.205 	 66.1742
| 11> C 	 7.0685 	 27.0205 	 67.5767
| 12> H 	 7.37246 	 28.2029 	 65.7511
| 13> C 	 6.5496 	 25.7879 	 63.9843
| 14> H 	 6.39495 	 26.7198 	 63.5155
| 15> H 	 5.70265 	 25.0596 	 63.811
| 16> C 	 7.74028 	 25.1226 	 63.2972
| 17> H 	 7.45021 	 25.1703 	 62.2853
| 18> H 	 8.60248 	 25.7317 	 63.3285
| 19> C 	 8.06589 	 23.6977 	 63.6239
| 20> H 	 7.17408 	 23.0621 	 63.7803
| 21> H 	 8.72366 	 23.286 	 62.8669
| 22> H 	 8.51039 	 23.6287 	 64.5435
| 23> S 	 8.72205 	 27.4325 	 69.7428
| 24> C 	 8.94663 	 29.0198 	 70.4254
| 25> C 	 8.03558 	 29.8791 	 69.8156
| 26> C 	 7.23924 	 29.3212 	 68.7994
| 27> C 	 7.58692 	 27.9784 	 68.537
| 28> H 	 8.01347 	 30.9185 	 70.1
| 29> C 	 6.15894 	 30.0923 	 68.1227
| 30> H 	 5.25516 	 29.424 	 68.319
| 31> H 	 6.2993 	 30.016 	 67.0643
| 32> C 	 5.91573 	 31.5451 	 68.4827
| 33> H 	 6.77143 	 32.2026 	 68.2971
| 34> H 	 5.90329 	 31.4976 	 69.612
| 35> C 	 4.57504 	 32.1097 	 67.9978
| 36> H 	 4.49158 	 33.1096 	 68.4401
| 37> H 	 3.7568 	 31.4371 	 68.3658
| 38> H 	 4.58363 	 32.1001 	 66.8858
| 39> H 	 5.9224 	 23.9684 	 66.0514
| 40> H 	 9.50244 	 29.383 	 71.2435
| 41> *
| 42>
| 43>                          ****END OF INPUT****

CARTESIAN COORDINATES (ANGSTROEM)
---------------------------------
  S      6.890840   25.360100   67.965600
  C      6.389750   24.911500   66.346100
  C      6.711760   25.961600   65.480400
  C      7.066640   27.205000   66.174200
  C      7.068500   27.020500   67.576700
  H      7.372460   28.202900   65.751100
  C      6.549600   25.787900   63.984300
  H      6.394950   26.719800   63.515500
  H      5.702650   25.059600   63.811000
  C      7.740280   25.122600   63.297200
  H      7.450210   25.170300   62.285300
  H      8.602480   25.731700   63.328500
  C      8.065890   23.697700   63.623900
  H      7.174080   23.062100   63.780300
  H      8.723660   23.286000   62.866900
  H      8.510390   23.628700   64.543500
  S      8.722050   27.432500   69.742800
  C      8.946630   29.019800   70.425400
  C      8.035580   29.879100   69.815600
  C      7.239240   29.321200   68.799400
  C      7.586920   27.978400   68.537000
  H      8.013470   30.918500   70.100000
  C      6.158940   30.092300   68.122700
  H      5.255160   29.424000   68.319000
  H      6.299300   30.016000   67.064300
  C      5.915730   31.545100   68.482700
  H      6.771430   32.202600   68.297100
  H      5.903290   31.497600   69.612000
  C      4.575040   32.109700   67.997800
  H      4.491580   33.109600   68.440100
  H      3.756800   31.437100   68.365800
  H      4.583630   32.100100   66.885800
  H      5.922400   23.968400   66.051400
  H      9.502440   29.383000   71.243500

 Total Charge           Charge          ....    0
 Multiplicity           Mult            ....    1
 Number of Electrons    NEL             ....  134
 Basis Dimension        Dim             ....  322

ORBITAL ENERGIES
----------------

  NO   OCC          E(Eh)            E(eV)
   0   2.0000     -88.967334     -2420.9242
   1   2.0000     -88.966651     -2420.9057
   2   2.0000     -10.332104      -281.1508
   3   2.0000     -10.326302      -280.9929
   4   2.0000     -10.317739      -280.7600
   5   2.0000     -10.312573      -280.6194
   6   2.0000     -10.308187      -280.5000
   7   2.0000     -10.306881      -280.4645
   8   2.0000     -10.300526      -280.2915
   9   2.0000     -10.291686      -280.0510
  10   2.0000     -10.291050      -280.0337
  11   2.0000     -10.290127      -280.0086
  12   2.0000     -10.288177      -279.9555
  13   2.0000     -10.287659      -279.9414
  14   2.0000     -10.273419      -279.5539
  15   2.0000     -10.267932      -279.4046
  16   2.0000      -8.081837      -219.9180
  17   2.0000      -8.081750      -219.9156
  18   2.0000      -6.040339      -164.3660
  19   2.0000      -6.040275      -164.3642
  20   2.0000      -6.036286      -164.2557
  21   2.0000      -6.036188      -164.2530
  22   2.0000      -6.032624      -164.1560
  23   2.0000      -6.032563      -164.1544
  24   2.0000      -1.008341       -27.4384
  25   2.0000      -0.984068       -26.7779
  26   2.0000      -0.918379       -24.9904
  27   2.0000      -0.912748       -24.8371
  28   2.0000      -0.870625       -23.6909
  29   2.0000      -0.853214       -23.2171
  30   2.0000      -0.843725       -22.9589
  31   2.0000      -0.813989       -22.1498
  32   2.0000      -0.786470       -21.4009
  33   2.0000      -0.773075       -21.0364
  34   2.0000      -0.709732       -19.3128
  35   2.0000      -0.704029       -19.1576
  36   2.0000      -0.695774       -18.9330
  37   2.0000      -0.648866       -17.6565
  38   2.0000      -0.638610       -17.3775
  39   2.0000      -0.614202       -16.7133
  40   2.0000      -0.597053       -16.2466
  41   2.0000      -0.570608       -15.5270
  42   2.0000      -0.567985       -15.4557
  43   2.0000      -0.557126       -15.1602
  44   2.0000      -0.546872       -14.8811
  45   2.0000      -0.532706       -14.4957
  46   2.0000      -0.520478       -14.1629
  47   2.0000      -0.513219       -13.9654
  48   2.0000      -0.508543       -13.8382
  49   2.0000      -0.496940       -13.5224
  50   2.0000      -0.487863       -13.2754
  51   2.0000      -0.484675       -13.1887
  52   2.0000      -0.474172       -12.9029
  53   2.0000      -0.464634       -12.6433
  54   2.0000      -0.457918       -12.4606
  55   2.0000      -0.450157       -12.2494
  56   2.0000      -0.447861       -12.1869
  57   2.0000      -0.441056       -12.0017
  58   2.0000      -0.435026       -11.8377
  59   2.0000      -0.427791       -11.6408
  60   2.0000      -0.415679       -11.3112
  61   2.0000      -0.411240       -11.1904
  62   2.0000      -0.408600       -11.1186
  63   2.0000      -0.350717        -9.5435
  64   2.0000      -0.329887        -8.9767
  65   2.0000      -0.324840        -8.8393
  66   2.0000      -0.283066        -7.7026
  67   0.0000       0.022444         0.6107
  68   0.0000       0.067173         1.8279
  69   0.0000       0.107959         2.9377
  70   0.0000       0.117612         3.2004
  71   0.0000       0.140013         3.8099

MULLIKEN ATOMIC CHARGES
-----------------------
   0 S :    0.106497
   1 C :   -0.127727
   2 C :   -0.086394
   3 C :    0.000566
   4 C :   -0.145324
   5 H :    0.045403
   6 C :    0.060922
   7 H :    0.010563
   8 H :    0.032047
   9 C :   -0.041412
  10 H :    0.010814
  11 H :    0.013934
  12 C :   -0.013923
  13 H :    0.011931
  14 H :    0.038161
  15 H :    0.017480
  16 S :    0.110415
  17 C :   -0.053400
  18 C :   -0.078627
  19 C :   -0.043936
  20 C :   -0.152454
  21 H :    0.014481
  22 C :    0.070805
  23 H :    0.047867
  24 H :    0.012617
  25 C :   -0.127114
  26 H :    0.037541
  27 H :    0.030848
  28 C :   -0.026561
  29 H :    0.044762
  30 H :    0.041867
  31 H :    0.040717
  32 H :    0.059476
  33 H :    0.037160
Sum of atomic charges:   -0.0000000

LOEWDIN ATOMIC CHARGES
----------------------
   0 S :    0.418431
   1 C :   -0.203957
   2 C :   -0.057317
   3 C :   -0.071054
   4 C :   -0.205578
   5 H :    0.041592
   6 C :   -0.026410
   7 H :    0.023452
   8 H :    0.037893
   9 C :   -0.035931
  10 H :    0.019441
  11 H :    0.018888
  12 C :   -0.058950
  13 H :    0.024292
  14 H :    0.031521
  15 H :    0.013876
  16 S :    0.419863
  17 C :   -0.192416
  18 C :   -0.076448
  19 C :   -0.060169
  20 C :   -0.205837
  21 H :    0.027261
  22 C :   -0.042448
  23 H :    0.048525
  24 H :    0.023863
  25 C :   -0.053755
  26 H :    0.023893
  27 H :    0.026442
  28 C :   -0.061104
  29 H :    0.031159
  30 H :    0.032790
  31 H :    0.028210
  32 H :    0.033246
  33 H :    0.026738

  Mayer bond orders larger than 0.100000
B(  0-S ,  1-C ) :   1.1308 B(  0-S ,  4-C ) :   1.1702 B(  1-C ,  2-C ) :   1.5798
B(  1-C , 32-H ) :   0.9723 B(  2-C ,  3-C ) :   1.2499 B(  2-C ,  6-C ) :   1.0334
B(  3-C ,  4-C ) :   1.5276 B(  3-C ,  5-H ) :   0.9818 B(  4-C , 20-C ) :   1.0714
B(  6-C ,  7-H ) :   0.9374 B(  6-C ,  8-H ) :   0.9439 B(  6-C ,  9-C ) :   1.0843
B(  9-C , 10-H ) :   0.9523 B(  9-C , 11-H ) :   0.9475 B(  9-C , 12-C ) :   1.0873
B( 12-C , 13-H ) :   0.9692 B( 12-C , 14-H ) :   0.9700 B( 12-C , 15-H ) :   0.9687
B( 16-S , 17-C ) :   1.1624 B( 16-S , 20-C ) :   1.1500 B( 17-C , 18-C ) :   1.5672
B( 17-C , 20-C ) :   0.1094 B( 17-C , 33-H ) :   0.9685 B( 18-C , 19-C ) :   1.3063
B( 18-C , 21-H ) :   0.9807 B( 19-C , 20-C ) :   1.5372 B( 19-C , 22-C ) :   1.0324
B( 22-C , 23-H ) :   0.9220 B( 22-C , 24-H ) :   0.9187 B( 22-C , 25-C ) :   1.0806
B( 25-C , 26-H ) :   0.9490 B( 25-C , 27-H ) :   0.9461 B( 25-C , 28-C ) :   1.0786
B( 28-C , 29-H ) :   0.9715 B( 28-C , 30-H ) :   0.9739 B( 28-C , 31-H ) :   0.9750

Dispersion correction           -0.013668938
FINAL SINGLE POINT ENERGY     -1339.866850971812

DIPOLE MOMENT
-------------
                                X             Y             Z
Electronic contribution:      8.25454      -9.30340      18.37493
Nuclear contribution   :     -8.41055       9.69750     -18.85085
                        -----------------------------------------
Total Dipole Moment    :     -0.15601       0.39410      -0.47592
                        -----------------------------------------
Magnitude (a.u.)       :      0.63730
Magnitude (Debye)      :      1.61988

Rotational constants in cm-1:     0.020523     0.007558     0.006105
Rotational constants in MHz :   615.256863   226.577307   183.014525

                             ****ORCA TERMINATED NORMALLY****
TOTAL RUN TIME: 0 days 0 hours 0 minutes 34 seconds 399 msec
