                         Program Version 4.2.1 -  RELEASE  -
|  1> ! wB97X-D3 SP def2-SVP
|  2> %pal
|  3> nprocs 16
|  4> end
|  5>
|  6> * xyz 0 1
|  7> S 	 9.98207 	 21.5044 	 40.9761
|  8> C 	 10.3482 	 22.6069 	 39.6196
|  9> C 	 9.91412 	 22.0887 	 38.4318
| 10> C 	 9.27263 	 20.8202 	 38.6036
| 11> C 	 9.30005 	 20.3017 	 39.8825
| 12> H 	 8.72009 	 20.3359 	 37.8491
| 13> C 	 9.91891 	 22.8184 	 37.0931
| 14> H 	 10.6533 	 22.285 	 36.4585
| 15> H 	 10.1196 	 23.8568 	 37.2375
| 16> C 	 8.66643 	 22.8318 	 36.1687
| 17> H 	 8.79144 	 23.4283 	 35.2265
| 18> H 	 8.51855 	 21.8648 	 35.7498
| 19> C 	 7.32637 	 23.2734 	 36.863
| 20> H 	 7.10894 	 22.4953 	 37.6534
| 21> H 	 7.53555 	 24.1839 	 37.3943
| 22> H 	 6.47257 	 23.3921 	 36.0928
| 23> S 	 9.50579 	 17.5955 	 39.8998
| 24> C 	 8.13552 	 16.7014 	 40.5051
| 25> C 	 7.12408 	 17.4638 	 40.9833
| 26> C 	 7.39548 	 18.8596 	 40.9361
| 27> C 	 8.64827 	 19.0938 	 40.344
| 28> H 	 6.1849 	 16.9571 	 41.2093
| 29> C 	 6.36826 	 19.9203 	 41.1432
| 30> H 	 6.98623 	 20.8306 	 40.9698
| 31> H 	 6.0139 	 20.0078 	 42.1841
| 32> C 	 5.23815 	 19.8837 	 40.1126
| 33> H 	 4.6116 	 19.0797 	 40.4263
| 34> H 	 5.5138 	 19.5941 	 39.1047
| 35> C 	 4.33446 	 21.1705 	 40.0547
| 36> H 	 3.48108 	 21.0817 	 39.3481
| 37> H 	 4.9807 	 21.8567 	 39.6124
| 38> H 	 3.97233 	 21.5152 	 41.0506
| 39> H 	 11.0426 	 23.4005 	 39.696
| 40> H 	 8.1308 	 15.6462 	 40.6522
| 41> *
| 42>
| 43>                          ****END OF INPUT****

CARTESIAN COORDINATES (ANGSTROEM)
---------------------------------
  S      9.982070   21.504400   40.976100
  C     10.348200   22.606900   39.619600
  C      9.914120   22.088700   38.431800
  C      9.272630   20.820200   38.603600
  C      9.300050   20.301700   39.882500
  H      8.720090   20.335900   37.849100
  C      9.918910   22.818400   37.093100
  H     10.653300   22.285000   36.458500
  H     10.119600   23.856800   37.237500
  C      8.666430   22.831800   36.168700
  H      8.791440   23.428300   35.226500
  H      8.518550   21.864800   35.749800
  C      7.326370   23.273400   36.863000
  H      7.108940   22.495300   37.653400
  H      7.535550   24.183900   37.394300
  H      6.472570   23.392100   36.092800
  S      9.505790   17.595500   39.899800
  C      8.135520   16.701400   40.505100
  C      7.124080   17.463800   40.983300
  C      7.395480   18.859600   40.936100
  C      8.648270   19.093800   40.344000
  H      6.184900   16.957100   41.209300
  C      6.368260   19.920300   41.143200
  H      6.986230   20.830600   40.969800
  H      6.013900   20.007800   42.184100
  C      5.238150   19.883700   40.112600
  H      4.611600   19.079700   40.426300
  H      5.513800   19.594100   39.104700
  C      4.334460   21.170500   40.054700
  H      3.481080   21.081700   39.348100
  H      4.980700   21.856700   39.612400
  H      3.972330   21.515200   41.050600
  H     11.042600   23.400500   39.696000
  H      8.130800   15.646200   40.652200

 Total Charge           Charge          ....    0
 Multiplicity           Mult            ....    1
 Number of Electrons    NEL             ....  134
 Basis Dimension        Dim             ....  322

ORBITAL ENERGIES
----------------

  NO   OCC          E(Eh)            E(eV)
   0   2.0000     -88.967126     -2420.9186
   1   2.0000     -88.965576     -2420.8764
   2   2.0000     -10.330485      -281.1068
   3   2.0000     -10.328525      -281.0535
   4   2.0000     -10.314263      -280.6654
   5   2.0000     -10.311137      -280.5803
   6   2.0000     -10.305852      -280.4365
   7   2.0000     -10.303723      -280.3786
   8   2.0000     -10.296725      -280.1881
   9   2.0000     -10.291959      -280.0584
  10   2.0000     -10.291852      -280.0555
  11   2.0000     -10.291716      -280.0518
  12   2.0000     -10.290000      -280.0051
  13   2.0000     -10.287691      -279.9423
  14   2.0000     -10.284813      -279.8640
  15   2.0000     -10.278821      -279.7009
  16   2.0000      -8.081593      -219.9113
  17   2.0000      -8.079441      -219.8528
  18   2.0000      -6.040026      -164.3575
  19   2.0000      -6.038041      -164.3035
  20   2.0000      -6.036243      -164.2545
  21   2.0000      -6.034031      -164.1943
  22   2.0000      -6.032345      -164.1485
  23   2.0000      -6.030176      -164.0894
  24   2.0000      -1.005245       -27.3541
  25   2.0000      -0.983030       -26.7496
  26   2.0000      -0.908720       -24.7275
  27   2.0000      -0.907377       -24.6910
  28   2.0000      -0.871047       -23.7024
  29   2.0000      -0.849847       -23.1255
  30   2.0000      -0.840815       -22.8797
  31   2.0000      -0.816406       -22.2155
  32   2.0000      -0.783442       -21.3185
  33   2.0000      -0.771246       -20.9867
  34   2.0000      -0.710481       -19.3332
  35   2.0000      -0.701905       -19.0998
  36   2.0000      -0.694076       -18.8868
  37   2.0000      -0.658171       -17.9097
  38   2.0000      -0.641643       -17.4600
  39   2.0000      -0.622420       -16.9369
  40   2.0000      -0.595972       -16.2172
  41   2.0000      -0.568600       -15.4724
  42   2.0000      -0.560239       -15.2449
  43   2.0000      -0.552823       -15.0431
  44   2.0000      -0.536023       -14.5859
  45   2.0000      -0.523046       -14.2328
  46   2.0000      -0.519247       -14.1294
  47   2.0000      -0.515209       -14.0196
  48   2.0000      -0.509978       -13.8772
  49   2.0000      -0.499143       -13.5824
  50   2.0000      -0.485718       -13.2171
  51   2.0000      -0.478673       -13.0254
  52   2.0000      -0.469809       -12.7841
  53   2.0000      -0.461231       -12.5507
  54   2.0000      -0.454316       -12.3626
  55   2.0000      -0.448394       -12.2014
  56   2.0000      -0.445447       -12.1212
  57   2.0000      -0.442306       -12.0357
  58   2.0000      -0.432012       -11.7556
  59   2.0000      -0.426170       -11.5967
  60   2.0000      -0.424294       -11.5456
  61   2.0000      -0.410457       -11.1691
  62   2.0000      -0.406156       -11.0521
  63   2.0000      -0.337432        -9.1820
  64   2.0000      -0.335669        -9.1340
  65   2.0000      -0.327670        -8.9164
  66   2.0000      -0.302367        -8.2278
  67   0.0000       0.038572         1.0496
  68   0.0000       0.053835         1.4649
  69   0.0000       0.107440         2.9236
  70   0.0000       0.114342         3.1114
  71   0.0000       0.126363         3.4385

MULLIKEN ATOMIC CHARGES
-----------------------
   0 S :    0.103696
   1 C :   -0.120167
   2 C :   -0.078301
   3 C :    0.058846
   4 C :   -0.171858
   5 H :   -0.002052
   6 C :    0.080695
   7 H :    0.047769
   8 H :    0.023441
   9 C :   -0.109387
  10 H :    0.036765
  11 H :    0.015774
  12 C :   -0.083324
  13 H :    0.048023
  14 H :    0.031055
  15 H :    0.056248
  16 S :    0.114710
  17 C :   -0.076518
  18 C :   -0.053585
  19 C :    0.000347
  20 C :   -0.200715
  21 H :    0.026548
  22 C :    0.079528
  23 H :    0.019218
  24 H :    0.039012
  25 C :   -0.077035
  26 H :    0.015831
  27 H :    0.028933
  28 C :   -0.043086
  29 H :    0.037739
  30 H :    0.023235
  31 H :    0.040130
  32 H :    0.042991
  33 H :    0.045493
Sum of atomic charges:   -0.0000000

LOEWDIN ATOMIC CHARGES
----------------------
   0 S :    0.387736
   1 C :   -0.178991
   2 C :   -0.063003
   3 C :   -0.056247
   4 C :   -0.196756
   5 H :    0.023143
   6 C :   -0.029195
   7 H :    0.042534
   8 H :    0.026015
   9 C :   -0.048105
  10 H :    0.031757
  11 H :    0.012062
  12 C :   -0.075144
  13 H :    0.030331
  14 H :    0.019962
  15 H :    0.037164
  16 S :    0.401134
  17 C :   -0.179585
  18 C :   -0.075191
  19 C :   -0.048260
  20 C :   -0.191625
  21 H :    0.036381
  22 C :   -0.035794
  23 H :    0.029579
  24 H :    0.035813
  25 C :   -0.036488
  26 H :    0.015725
  27 H :    0.025285
  28 C :   -0.061590
  29 H :    0.030788
  30 H :    0.016096
  31 H :    0.028990
  32 H :    0.022172
  33 H :    0.023309

  Mayer bond orders larger than 0.100000
B(  0-S ,  1-C ) :   1.1292 B(  0-S ,  4-C ) :   1.1380 B(  1-C ,  2-C ) :   1.6344
B(  1-C , 32-H ) :   0.9674 B(  2-C ,  3-C ) :   1.2232 B(  2-C ,  6-C ) :   1.0185
B(  3-C ,  4-C ) :   1.5954 B(  3-C ,  5-H ) :   0.9956 B(  4-C , 20-C ) :   1.0138
B(  6-C ,  7-H ) :   0.9318 B(  6-C ,  8-H ) :   0.9513 B(  6-C ,  9-C ) :   1.0719
B(  9-C , 10-H ) :   0.9563 B(  9-C , 11-H ) :   0.9510 B(  9-C , 12-C ) :   1.0684
B( 12-C , 13-H ) :   0.9711 B( 12-C , 14-H ) :   0.9777 B( 12-C , 15-H ) :   0.9741
B( 16-S , 17-C ) :   1.1440 B( 16-S , 20-C ) :   1.1497 B( 17-C , 18-C ) :   1.6544
B( 17-C , 33-H ) :   0.9630 B( 18-C , 19-C ) :   1.2098 B( 18-C , 21-H ) :   0.9867
B( 19-C , 20-C ) :   1.6007 B( 19-C , 22-C ) :   1.0551 B( 22-C , 23-H ) :   0.9274
B( 22-C , 24-H ) :   0.9270 B( 22-C , 25-C ) :   1.0521 B( 25-C , 26-H ) :   0.9517
B( 25-C , 27-H ) :   0.9587 B( 25-C , 28-C ) :   1.0782 B( 28-C , 29-H ) :   0.9741
B( 28-C , 30-H ) :   0.9807 B( 28-C , 31-H ) :   0.9743

Dispersion correction           -0.015467657
FINAL SINGLE POINT ENERGY     -1339.870915707824

DIPOLE MOMENT
-------------
                                X             Y             Z
Electronic contribution:     20.36293     -14.51590      13.22398
Nuclear contribution   :    -20.80608      14.62731     -13.66216
                        -----------------------------------------
Total Dipole Moment    :     -0.44315       0.11141      -0.43818
                        -----------------------------------------
Magnitude (a.u.)       :      0.63308
Magnitude (Debye)      :      1.60916

Rotational constants in cm-1:     0.016613     0.009973     0.007941
Rotational constants in MHz :   498.057583   298.975791   238.060560

                             ****ORCA TERMINATED NORMALLY****
TOTAL RUN TIME: 0 days 0 hours 0 minutes 36 seconds 407 msec
