                         Program Version 4.2.1 -  RELEASE  -
|  1> ! wB97X-D3 SP def2-SVP
|  2> %pal
|  3> nprocs 16
|  4> end
|  5>
|  6> * xyz 0 1
|  7> S 	 -19.175 	 -7.82419 	 86.1165
|  8> C 	 -18.2358 	 -8.70096 	 84.9206
|  9> C 	 -17.0828 	 -9.16473 	 85.5652
| 10> C 	 -17.2225 	 -9.2063 	 86.9681
| 11> C 	 -18.3864 	 -8.65674 	 87.4404
| 12> H 	 -16.4838 	 -9.62318 	 87.6612
| 13> C 	 -15.8475 	 -9.65171 	 84.8336
| 14> H 	 -14.9033 	 -9.37129 	 85.3052
| 15> H 	 -15.875 	 -9.1707 	 83.8601
| 16> C 	 -15.7334 	 -11.1624 	 84.6629
| 17> H 	 -14.7734 	 -11.4735 	 84.6219
| 18> H 	 -16.1612 	 -11.6933 	 85.5495
| 19> C 	 -16.3849 	 -11.6482 	 83.3881
| 20> H 	 -15.9266 	 -11.2675 	 82.4474
| 21> H 	 -16.2653 	 -12.6947 	 83.2845
| 22> H 	 -17.4831 	 -11.5413 	 83.4004
| 23> S 	 -20.5013 	 -8.95207 	 89.3189
| 24> C 	 -20.2748 	 -8.45414 	 90.9866
| 25> C 	 -18.9351 	 -8.4204 	 91.241
| 26> C 	 -18.1494 	 -8.29562 	 90.0369
| 27> C 	 -18.8436 	 -8.5491 	 88.8581
| 28> H 	 -18.407 	 -8.35915 	 92.1907
| 29> C 	 -16.6816 	 -8.12837 	 90.1504
| 30> H 	 -16.4791 	 -7.23349 	 90.7262
| 31> H 	 -16.3308 	 -7.83846 	 89.1775
| 32> C 	 -15.8011 	 -9.35733 	 90.632
| 33> H 	 -15.7422 	 -10.0801 	 89.8041
| 34> H 	 -16.3454 	 -9.79705 	 91.433
| 35> C 	 -14.4143 	 -8.97267 	 91.088
| 36> H 	 -13.6924 	 -9.85543 	 91.0437
| 37> H 	 -14.5445 	 -8.65371 	 92.1216
| 38> H 	 -14.092 	 -8.23364 	 90.3663
| 39> H 	 -18.5112 	 -8.76139 	 83.8578
| 40> H 	 -21.0122 	 -8.61402 	 91.7548
| 41> *
| 42>
| 43>                          ****END OF INPUT****

CARTESIAN COORDINATES (ANGSTROEM)
---------------------------------
  S    -19.175000   -7.824190   86.116500
  C    -18.235800   -8.700960   84.920600
  C    -17.082800   -9.164730   85.565200
  C    -17.222500   -9.206300   86.968100
  C    -18.386400   -8.656740   87.440400
  H    -16.483800   -9.623180   87.661200
  C    -15.847500   -9.651710   84.833600
  H    -14.903300   -9.371290   85.305200
  H    -15.875000   -9.170700   83.860100
  C    -15.733400  -11.162400   84.662900
  H    -14.773400  -11.473500   84.621900
  H    -16.161200  -11.693300   85.549500
  C    -16.384900  -11.648200   83.388100
  H    -15.926600  -11.267500   82.447400
  H    -16.265300  -12.694700   83.284500
  H    -17.483100  -11.541300   83.400400
  S    -20.501300   -8.952070   89.318900
  C    -20.274800   -8.454140   90.986600
  C    -18.935100   -8.420400   91.241000
  C    -18.149400   -8.295620   90.036900
  C    -18.843600   -8.549100   88.858100
  H    -18.407000   -8.359150   92.190700
  C    -16.681600   -8.128370   90.150400
  H    -16.479100   -7.233490   90.726200
  H    -16.330800   -7.838460   89.177500
  C    -15.801100   -9.357330   90.632000
  H    -15.742200  -10.080100   89.804100
  H    -16.345400   -9.797050   91.433000
  C    -14.414300   -8.972670   91.088000
  H    -13.692400   -9.855430   91.043700
  H    -14.544500   -8.653710   92.121600
  H    -14.092000   -8.233640   90.366300
  H    -18.511200   -8.761390   83.857800
  H    -21.012200   -8.614020   91.754800

 Total Charge           Charge          ....    0
 Multiplicity           Mult            ....    1
 Number of Electrons    NEL             ....  134
 Basis Dimension        Dim             ....  322

ORBITAL ENERGIES
----------------

  NO   OCC          E(Eh)            E(eV)
   0   2.0000     -88.962773     -2420.8001
   1   2.0000     -88.962033     -2420.7800
   2   2.0000     -10.332371      -281.1581
   3   2.0000     -10.331698      -281.1398
   4   2.0000     -10.319354      -280.8039
   5   2.0000     -10.318867      -280.7906
   6   2.0000     -10.303325      -280.3677
   7   2.0000     -10.300382      -280.2877
   8   2.0000     -10.295175      -280.1460
   9   2.0000     -10.294356      -280.1237
  10   2.0000     -10.289181      -279.9829
  11   2.0000     -10.288680      -279.9692
  12   2.0000     -10.285890      -279.8933
  13   2.0000     -10.284983      -279.8686
  14   2.0000     -10.277873      -279.6751
  15   2.0000     -10.274466      -279.5824
  16   2.0000      -8.077656      -219.8042
  17   2.0000      -8.076643      -219.7766
  18   2.0000      -6.036239      -164.2544
  19   2.0000      -6.035321      -164.2294
  20   2.0000      -6.032308      -164.1474
  21   2.0000      -6.031230      -164.1181
  22   2.0000      -6.028148      -164.0342
  23   2.0000      -6.027133      -164.0066
  24   2.0000      -1.006380       -27.3850
  25   2.0000      -0.987666       -26.8757
  26   2.0000      -0.915008       -24.8986
  27   2.0000      -0.910369       -24.7724
  28   2.0000      -0.868476       -23.6324
  29   2.0000      -0.854496       -23.2520
  30   2.0000      -0.846092       -23.0233
  31   2.0000      -0.817800       -22.2535
  32   2.0000      -0.781754       -21.2726
  33   2.0000      -0.769539       -20.9402
  34   2.0000      -0.707394       -19.2492
  35   2.0000      -0.699563       -19.0361
  36   2.0000      -0.694656       -18.9026
  37   2.0000      -0.661676       -18.0051
  38   2.0000      -0.642433       -17.4815
  39   2.0000      -0.621667       -16.9164
  40   2.0000      -0.600280       -16.3344
  41   2.0000      -0.575711       -15.6659
  42   2.0000      -0.569857       -15.5066
  43   2.0000      -0.551015       -14.9939
  44   2.0000      -0.540388       -14.7047
  45   2.0000      -0.528662       -14.3856
  46   2.0000      -0.526004       -14.3133
  47   2.0000      -0.513050       -13.9608
  48   2.0000      -0.505294       -13.7498
  49   2.0000      -0.501055       -13.6344
  50   2.0000      -0.485274       -13.2050
  51   2.0000      -0.483753       -13.1636
  52   2.0000      -0.470178       -12.7942
  53   2.0000      -0.465573       -12.6689
  54   2.0000      -0.459632       -12.5072
  55   2.0000      -0.456814       -12.4305
  56   2.0000      -0.440002       -11.9731
  57   2.0000      -0.433342       -11.7918
  58   2.0000      -0.428741       -11.6666
  59   2.0000      -0.425913       -11.5897
  60   2.0000      -0.421222       -11.4620
  61   2.0000      -0.416968       -11.3463
  62   2.0000      -0.414778       -11.2867
  63   2.0000      -0.343633        -9.3507
  64   2.0000      -0.326394        -8.8816
  65   2.0000      -0.322839        -8.7849
  66   2.0000      -0.296561        -8.0698
  67   0.0000       0.019506         0.5308
  68   0.0000       0.068844         1.8733
  69   0.0000       0.099795         2.7155
  70   0.0000       0.109661         2.9840
  71   0.0000       0.131485         3.5779

MULLIKEN ATOMIC CHARGES
-----------------------
   0 S :    0.110252
   1 C :   -0.143858
   2 C :   -0.081133
   3 C :    0.026539
   4 C :   -0.134180
   5 H :    0.002023
   6 C :    0.073643
   7 H :    0.026443
   8 H :    0.018559
   9 C :   -0.024436
  10 H :   -0.001986
  11 H :    0.032063
  12 C :   -0.065545
  13 H :    0.033613
  14 H :    0.015216
  15 H :    0.033300
  16 S :    0.092700
  17 C :   -0.068171
  18 C :   -0.021788
  19 C :   -0.075920
  20 C :   -0.130333
  21 H :    0.024391
  22 C :    0.038455
  23 H :    0.019247
  24 H :    0.008350
  25 C :   -0.060916
  26 H :    0.030498
  27 H :    0.014237
  28 C :   -0.049773
  29 H :    0.046712
  30 H :    0.042449
  31 H :    0.037675
  32 H :    0.068106
  33 H :    0.063569
Sum of atomic charges:   -0.0000000

LOEWDIN ATOMIC CHARGES
----------------------
   0 S :    0.402319
   1 C :   -0.193801
   2 C :   -0.061375
   3 C :   -0.065667
   4 C :   -0.189666
   5 H :    0.032519
   6 C :   -0.030239
   7 H :    0.034111
   8 H :    0.029631
   9 C :   -0.035815
  10 H :    0.007886
  11 H :    0.032107
  12 C :   -0.069172
  13 H :    0.027835
  14 H :    0.019702
  15 H :    0.026376
  16 S :    0.395533
  17 C :   -0.176914
  18 C :   -0.066103
  19 C :   -0.058976
  20 C :   -0.195006
  21 H :    0.031521
  22 C :   -0.040833
  23 H :    0.028421
  24 H :    0.023887
  25 C :   -0.033983
  26 H :    0.020313
  27 H :    0.014668
  28 C :   -0.065018
  29 H :    0.035804
  30 H :    0.029059
  31 H :    0.025673
  32 H :    0.035170
  33 H :    0.030032

  Mayer bond orders larger than 0.100000
B(  0-S ,  1-C ) :   1.1453 B(  0-S ,  4-C ) :   1.1606 B(  1-C ,  2-C ) :   1.5608
B(  1-C ,  4-C ) :   0.1046 B(  1-C , 32-H ) :   0.9732 B(  2-C ,  3-C ) :   1.2540
B(  2-C ,  6-C ) :   1.0385 B(  3-C ,  4-C ) :   1.5519 B(  3-C ,  5-H ) :   0.9964
B(  4-C , 20-C ) :   1.0355 B(  6-C ,  7-H ) :   0.9417 B(  6-C ,  8-H ) :   0.9415
B(  6-C ,  9-C ) :   1.0613 B(  9-C , 10-H ) :   0.9521 B(  9-C , 11-H ) :   0.9534
B(  9-C , 12-C ) :   1.0963 B( 12-C , 13-H ) :   0.9724 B( 12-C , 14-H ) :   0.9700
B( 12-C , 15-H ) :   0.9741 B( 16-S , 17-C ) :   1.1525 B( 16-S , 20-C ) :   1.1331
B( 17-C , 18-C ) :   1.5925 B( 17-C , 33-H ) :   0.9664 B( 18-C , 19-C ) :   1.2504
B( 18-C , 21-H ) :   0.9829 B( 19-C , 20-C ) :   1.5848 B( 19-C , 22-C ) :   1.0731
B( 22-C , 23-H ) :   0.9295 B( 22-C , 24-H ) :   0.9200 B( 22-C , 25-C ) :   1.0443
B( 25-C , 26-H ) :   0.9526 B( 25-C , 27-H ) :   0.9604 B( 25-C , 28-C ) :   1.0730
B( 28-C , 29-H ) :   0.9741 B( 28-C , 30-H ) :   0.9772 B( 28-C , 31-H ) :   0.9756

Dispersion correction           -0.014182919
FINAL SINGLE POINT ENERGY     -1339.857017582611

DIPOLE MOMENT
-------------
                                X             Y             Z
Electronic contribution:    -26.11667      11.09575       2.62531
Nuclear contribution   :     26.90852     -11.43328      -2.47107
                        -----------------------------------------
Total Dipole Moment    :      0.79185      -0.33753       0.15424
                        -----------------------------------------
Magnitude (a.u.)       :      0.87449
Magnitude (Debye)      :      2.22278

Rotational constants in cm-1:     0.017766     0.008696     0.006498
Rotational constants in MHz :   532.603819   260.687972   194.793666

                             ****ORCA TERMINATED NORMALLY****
TOTAL RUN TIME: 0 days 0 hours 0 minutes 33 seconds 937 msec
