                         Program Version 4.2.1 -  RELEASE  -
|  1> ! wB97X-D3 SP def2-SVP
|  2> %pal
|  3> nprocs 16
|  4> end
|  5>
|  6> * xyz 0 1
|  7> S 	 63.7483 	 18.8846 	 71.397
|  8> C 	 63.5695 	 17.4864 	 70.3643
|  9> C 	 63.1744 	 16.335 	 71.0386
| 10> C 	 62.9283 	 16.6132 	 72.4339
| 11> C 	 63.126 	 17.9431 	 72.7541
| 12> H 	 62.6073 	 15.907 	 73.2107
| 13> C 	 62.9335 	 14.9317 	 70.4231
| 14> H 	 62.979 	 15.037 	 69.4074
| 15> H 	 61.9313 	 14.542 	 70.6935
| 16> C 	 63.9956 	 13.9603 	 70.8682
| 17> H 	 63.8471 	 13.9898 	 71.9161
| 18> H 	 63.81 	 12.9287 	 70.5284
| 19> C 	 65.4846 	 14.2928 	 70.4672
| 20> H 	 65.5936 	 14.2636 	 69.3904
| 21> H 	 65.714 	 15.2599 	 70.7518
| 22> H 	 66.1766 	 13.5841 	 70.9755
| 23> S 	 61.7291 	 19.5975 	 74.3496
| 24> C 	 62.2196 	 19.8585 	 76.0329
| 25> C 	 63.395 	 19.1291 	 76.3222
| 26> C 	 63.7915 	 18.24 	 75.2477
| 27> C 	 63.0081 	 18.4585 	 74.1148
| 28> H 	 63.9424 	 19.1629 	 77.2901
| 29> C 	 64.9918 	 17.276 	 75.3165
| 30> H 	 65.8784 	 17.9024 	 75.3404
| 31> H 	 65.1727 	 16.6586 	 74.4163
| 32> C 	 65.0121 	 16.3902 	 76.5336
| 33> H 	 64.2104 	 15.678 	 76.5776
| 34> H 	 64.9438 	 16.9074 	 77.4489
| 35> C 	 66.3942 	 15.6465 	 76.5635
| 36> H 	 67.1585 	 16.4309 	 76.4837
| 37> H 	 66.4953 	 14.8923 	 75.77
| 38> H 	 66.6443 	 15.1277 	 77.4853
| 39> H 	 63.7761 	 17.5113 	 69.3486
| 40> H 	 61.7438 	 20.3946 	 76.8173
| 41> *
| 42>
| 43>                          ****END OF INPUT****

CARTESIAN COORDINATES (ANGSTROEM)
---------------------------------
  S     63.748300   18.884600   71.397000
  C     63.569500   17.486400   70.364300
  C     63.174400   16.335000   71.038600
  C     62.928300   16.613200   72.433900
  C     63.126000   17.943100   72.754100
  H     62.607300   15.907000   73.210700
  C     62.933500   14.931700   70.423100
  H     62.979000   15.037000   69.407400
  H     61.931300   14.542000   70.693500
  C     63.995600   13.960300   70.868200
  H     63.847100   13.989800   71.916100
  H     63.810000   12.928700   70.528400
  C     65.484600   14.292800   70.467200
  H     65.593600   14.263600   69.390400
  H     65.714000   15.259900   70.751800
  H     66.176600   13.584100   70.975500
  S     61.729100   19.597500   74.349600
  C     62.219600   19.858500   76.032900
  C     63.395000   19.129100   76.322200
  C     63.791500   18.240000   75.247700
  C     63.008100   18.458500   74.114800
  H     63.942400   19.162900   77.290100
  C     64.991800   17.276000   75.316500
  H     65.878400   17.902400   75.340400
  H     65.172700   16.658600   74.416300
  C     65.012100   16.390200   76.533600
  H     64.210400   15.678000   76.577600
  H     64.943800   16.907400   77.448900
  C     66.394200   15.646500   76.563500
  H     67.158500   16.430900   76.483700
  H     66.495300   14.892300   75.770000
  H     66.644300   15.127700   77.485300
  H     63.776100   17.511300   69.348600
  H     61.743800   20.394600   76.817300

 Total Charge           Charge          ....    0
 Multiplicity           Mult            ....    1
 Number of Electrons    NEL             ....  134
 Basis Dimension        Dim             ....  322

ORBITAL ENERGIES
----------------

  NO   OCC          E(Eh)            E(eV)
   0   2.0000     -88.969232     -2420.9759
   1   2.0000     -88.967480     -2420.9282
   2   2.0000     -10.327204      -281.0175
   3   2.0000     -10.322616      -280.8927
   4   2.0000     -10.320443      -280.8335
   5   2.0000     -10.311722      -280.5962
   6   2.0000     -10.307303      -280.4760
   7   2.0000     -10.305004      -280.4134
   8   2.0000     -10.302610      -280.3483
   9   2.0000     -10.296191      -280.1736
  10   2.0000     -10.293388      -280.0973
  11   2.0000     -10.288835      -279.9734
  12   2.0000     -10.283398      -279.8255
  13   2.0000     -10.282546      -279.8023
  14   2.0000     -10.280655      -279.7509
  15   2.0000     -10.274145      -279.5737
  16   2.0000      -8.083631      -219.9668
  17   2.0000      -8.081946      -219.9209
  18   2.0000      -6.042112      -164.4142
  19   2.0000      -6.040477      -164.3697
  20   2.0000      -6.038305      -164.3106
  21   2.0000      -6.036408      -164.2590
  22   2.0000      -6.034326      -164.2024
  23   2.0000      -6.032779      -164.1603
  24   2.0000      -1.003144       -27.2969
  25   2.0000      -0.978933       -26.6381
  26   2.0000      -0.912837       -24.8396
  27   2.0000      -0.910797       -24.7841
  28   2.0000      -0.865488       -23.5511
  29   2.0000      -0.846981       -23.0475
  30   2.0000      -0.842253       -22.9189
  31   2.0000      -0.810105       -22.0441
  32   2.0000      -0.785254       -21.3678
  33   2.0000      -0.770975       -20.9793
  34   2.0000      -0.708682       -19.2842
  35   2.0000      -0.702946       -19.1281
  36   2.0000      -0.693862       -18.8809
  37   2.0000      -0.658029       -17.9059
  38   2.0000      -0.644807       -17.5461
  39   2.0000      -0.620248       -16.8778
  40   2.0000      -0.597777       -16.2663
  41   2.0000      -0.567513       -15.4428
  42   2.0000      -0.564974       -15.3737
  43   2.0000      -0.549140       -14.9429
  44   2.0000      -0.543859       -14.7992
  45   2.0000      -0.522838       -14.2272
  46   2.0000      -0.515288       -14.0217
  47   2.0000      -0.512857       -13.9556
  48   2.0000      -0.501140       -13.6367
  49   2.0000      -0.494531       -13.4569
  50   2.0000      -0.484818       -13.1926
  51   2.0000      -0.479559       -13.0495
  52   2.0000      -0.467724       -12.7274
  53   2.0000      -0.464036       -12.6271
  54   2.0000      -0.458738       -12.4829
  55   2.0000      -0.451125       -12.2757
  56   2.0000      -0.446011       -12.1366
  57   2.0000      -0.439970       -11.9722
  58   2.0000      -0.438093       -11.9211
  59   2.0000      -0.426800       -11.6138
  60   2.0000      -0.424095       -11.5402
  61   2.0000      -0.418592       -11.3905
  62   2.0000      -0.417243       -11.3538
  63   2.0000      -0.338535        -9.2120
  64   2.0000      -0.329972        -8.9790
  65   2.0000      -0.328210        -8.9310
  66   2.0000      -0.299939        -8.1617
  67   0.0000       0.039880         1.0852
  68   0.0000       0.059818         1.6277
  69   0.0000       0.112826         3.0702
  70   0.0000       0.120039         3.2664
  71   0.0000       0.125590         3.4175

MULLIKEN ATOMIC CHARGES
-----------------------
   0 S :    0.124967
   1 C :   -0.099305
   2 C :   -0.115280
   3 C :    0.023793
   4 C :   -0.157004
   5 H :    0.028593
   6 C :    0.138587
   7 H :   -0.014130
   8 H :    0.040691
   9 C :   -0.087197
  10 H :    0.011187
  11 H :    0.032809
  12 C :   -0.032638
  13 H :    0.026665
  14 H :    0.021439
  15 H :    0.042645
  16 S :    0.121368
  17 C :   -0.079480
  18 C :   -0.061983
  19 C :    0.001987
  20 C :   -0.208066
  21 H :    0.036043
  22 C :    0.066409
  23 H :    0.026475
  24 H :    0.032845
  25 C :   -0.055957
  26 H :    0.025340
  27 H :    0.015496
  28 C :   -0.065914
  29 H :    0.024154
  30 H :    0.037170
  31 H :    0.029492
  32 H :    0.019761
  33 H :    0.049042
Sum of atomic charges:   -0.0000000

LOEWDIN ATOMIC CHARGES
----------------------
   0 S :    0.403260
   1 C :   -0.188308
   2 C :   -0.055921
   3 C :   -0.059963
   4 C :   -0.198280
   5 H :    0.036917
   6 C :   -0.019044
   7 H :    0.011243
   8 H :    0.038241
   9 C :   -0.038735
  10 H :    0.014599
  11 H :    0.024548
  12 C :   -0.056644
  13 H :    0.023477
  14 H :    0.012639
  15 H :    0.033122
  16 S :    0.416094
  17 C :   -0.183962
  18 C :   -0.069967
  19 C :   -0.052539
  20 C :   -0.212322
  21 H :    0.035925
  22 C :   -0.031581
  23 H :    0.033080
  24 H :    0.035799
  25 C :   -0.034317
  26 H :    0.021050
  27 H :    0.016133
  28 C :   -0.064828
  29 H :    0.024243
  30 H :    0.024973
  31 H :    0.023167
  32 H :    0.012020
  33 H :    0.025878

  Mayer bond orders larger than 0.100000
B(  0-S ,  1-C ) :   1.1377 B(  0-S ,  4-C ) :   1.1450 B(  1-C ,  2-C ) :   1.6231
B(  1-C , 32-H ) :   0.9731 B(  2-C ,  3-C ) :   1.2137 B(  2-C ,  6-C ) :   1.0193
B(  3-C ,  4-C ) :   1.6021 B(  3-C ,  5-H ) :   0.9903 B(  4-C , 20-C ) :   1.0134
B(  6-C ,  7-H ) :   0.9331 B(  6-C ,  8-H ) :   0.9454 B(  6-C ,  9-C ) :   1.0613
B(  9-C , 10-H ) :   0.9608 B(  9-C , 11-H ) :   0.9577 B(  9-C , 12-C ) :   1.0705
B( 12-C , 13-H ) :   0.9762 B( 12-C , 14-H ) :   0.9766 B( 12-C , 15-H ) :   0.9749
B( 16-S , 17-C ) :   1.1468 B( 16-S , 20-C ) :   1.1559 B( 17-C , 18-C ) :   1.6083
B( 17-C , 20-C ) :   0.1011 B( 17-C , 33-H ) :   0.9721 B( 18-C , 19-C ) :   1.2457
B( 18-C , 21-H ) :   0.9755 B( 19-C , 20-C ) :   1.6005 B( 19-C , 22-C ) :   1.0253
B( 22-C , 23-H ) :   0.9328 B( 22-C , 24-H ) :   0.9423 B( 22-C , 25-C ) :   1.0581
B( 25-C , 26-H ) :   0.9568 B( 25-C , 27-H ) :   0.9550 B( 25-C , 28-C ) :   1.0763
B( 28-C , 29-H ) :   0.9756 B( 28-C , 30-H ) :   0.9775 B( 28-C , 31-H ) :   0.9759

Dispersion correction           -0.014484032
FINAL SINGLE POINT ENERGY     -1339.879976407830

DIPOLE MOMENT
-------------
                                X             Y             Z
Electronic contribution:    -16.06792      25.34247      -3.67597
Nuclear contribution   :     16.35105     -25.87907       3.89771
                        -----------------------------------------
Total Dipole Moment    :      0.28313      -0.53660       0.22174
                        -----------------------------------------
Magnitude (a.u.)       :      0.64597
Magnitude (Debye)      :      1.64191

Rotational constants in cm-1:     0.016705     0.009703     0.006901
Rotational constants in MHz :   500.810100   290.888484   206.882493

                             ****ORCA TERMINATED NORMALLY****
TOTAL RUN TIME: 0 days 0 hours 0 minutes 30 seconds 720 msec
