                         Program Version 4.2.1 -  RELEASE  -
|  1> ! wB97X-D3 SP def2-SVP
|  2> %pal
|  3> nprocs 16
|  4> end
|  5>
|  6> * xyz 0 1
|  7> S 	 12.5997 	 -6.75447 	 91.1679
|  8> C 	 14.323 	 -6.84857 	 90.9318
|  9> C 	 14.7667 	 -5.74805 	 90.1466
| 10> C 	 13.737 	 -4.86822 	 89.8299
| 11> C 	 12.4802 	 -5.3303 	 90.1604
| 12> H 	 13.8051 	 -3.93676 	 89.345
| 13> C 	 16.234 	 -5.48732 	 89.9205
| 14> H 	 16.4548 	 -5.35585 	 88.8189
| 15> H 	 16.7748 	 -6.43107 	 90.2279
| 16> C 	 16.9053 	 -4.3064 	 90.6494
| 17> H 	 17.9799 	 -4.29899 	 90.4042
| 18> H 	 16.5105 	 -3.40979 	 90.1875
| 19> C 	 16.8454 	 -4.35304 	 92.1194
| 20> H 	 15.7644 	 -4.50166 	 92.3781
| 21> H 	 17.3909 	 -5.24525 	 92.3876
| 22> H 	 17.2484 	 -3.51902 	 92.6558
| 23> S 	 10.1981 	 -5.83255 	 88.6707
| 24> C 	 9.14956 	 -4.50976 	 88.2358
| 25> C 	 9.49766 	 -3.3477 	 88.8758
| 26> C 	 10.7409 	 -3.42524 	 89.6591
| 27> C 	 11.2414 	 -4.74239 	 89.6549
| 28> H 	 8.75423 	 -2.59859 	 88.7
| 29> C 	 11.3385 	 -2.24833 	 90.3832
| 30> H 	 10.6311 	 -1.39456 	 90.3093
| 31> H 	 12.1814 	 -1.73751 	 89.8229
| 32> C 	 11.8148 	 -2.56837 	 91.8221
| 33> H 	 12.6515 	 -3.26068 	 91.9459
| 34> H 	 10.8769 	 -2.94597 	 92.3794
| 35> C 	 12.2745 	 -1.29578 	 92.5808
| 36> H 	 12.2197 	 -1.41606 	 93.6755
| 37> H 	 11.7031 	 -0.408687 	 92.3445
| 38> H 	 13.2564 	 -0.964848 	 92.3869
| 39> H 	 15.0035 	 -7.51519 	 91.5005
| 40> H 	 8.18051 	 -4.6004 	 87.7135
| 41> *
| 42>
| 43>                          ****END OF INPUT****

CARTESIAN COORDINATES (ANGSTROEM)
---------------------------------
  S     12.599700   -6.754470   91.167900
  C     14.323000   -6.848570   90.931800
  C     14.766700   -5.748050   90.146600
  C     13.737000   -4.868220   89.829900
  C     12.480200   -5.330300   90.160400
  H     13.805100   -3.936760   89.345000
  C     16.234000   -5.487320   89.920500
  H     16.454800   -5.355850   88.818900
  H     16.774800   -6.431070   90.227900
  C     16.905300   -4.306400   90.649400
  H     17.979900   -4.298990   90.404200
  H     16.510500   -3.409790   90.187500
  C     16.845400   -4.353040   92.119400
  H     15.764400   -4.501660   92.378100
  H     17.390900   -5.245250   92.387600
  H     17.248400   -3.519020   92.655800
  S     10.198100   -5.832550   88.670700
  C      9.149560   -4.509760   88.235800
  C      9.497660   -3.347700   88.875800
  C     10.740900   -3.425240   89.659100
  C     11.241400   -4.742390   89.654900
  H      8.754230   -2.598590   88.700000
  C     11.338500   -2.248330   90.383200
  H     10.631100   -1.394560   90.309300
  H     12.181400   -1.737510   89.822900
  C     11.814800   -2.568370   91.822100
  H     12.651500   -3.260680   91.945900
  H     10.876900   -2.945970   92.379400
  C     12.274500   -1.295780   92.580800
  H     12.219700   -1.416060   93.675500
  H     11.703100   -0.408687   92.344500
  H     13.256400   -0.964848   92.386900
  H     15.003500   -7.515190   91.500500
  H      8.180510   -4.600400   87.713500

 Total Charge           Charge          ....    0
 Multiplicity           Mult            ....    1
 Number of Electrons    NEL             ....  134
 Basis Dimension        Dim             ....  322

ORBITAL ENERGIES
----------------

  NO   OCC          E(Eh)            E(eV)
   0   2.0000     -88.972181     -2421.0561
   1   2.0000     -88.963586     -2420.8222
   2   2.0000     -10.333987      -281.2021
   3   2.0000     -10.329976      -281.0929
   4   2.0000     -10.321374      -280.8589
   5   2.0000     -10.315960      -280.7115
   6   2.0000     -10.314803      -280.6801
   7   2.0000     -10.303441      -280.3709
   8   2.0000     -10.302736      -280.3517
   9   2.0000     -10.298606      -280.2393
  10   2.0000     -10.295173      -280.1459
  11   2.0000     -10.294139      -280.1178
  12   2.0000     -10.288977      -279.9773
  13   2.0000     -10.283093      -279.8172
  14   2.0000     -10.272254      -279.5223
  15   2.0000     -10.271855      -279.5114
  16   2.0000      -8.086552      -220.0463
  17   2.0000      -8.077796      -219.8080
  18   2.0000      -6.044911      -164.4904
  19   2.0000      -6.040991      -164.3837
  20   2.0000      -6.037607      -164.2916
  21   2.0000      -6.036380      -164.2582
  22   2.0000      -6.032386      -164.1496
  23   2.0000      -6.028474      -164.0431
  24   2.0000      -1.005775       -27.3685
  25   2.0000      -0.979959       -26.6660
  26   2.0000      -0.916033       -24.9265
  27   2.0000      -0.903915       -24.5968
  28   2.0000      -0.869175       -23.6514
  29   2.0000      -0.855899       -23.2902
  30   2.0000      -0.845093       -22.9961
  31   2.0000      -0.816445       -22.2166
  32   2.0000      -0.782504       -21.2930
  33   2.0000      -0.769407       -20.9366
  34   2.0000      -0.712052       -19.3759
  35   2.0000      -0.695754       -18.9324
  36   2.0000      -0.687083       -18.6965
  37   2.0000      -0.654931       -17.8216
  38   2.0000      -0.639820       -17.4104
  39   2.0000      -0.623315       -16.9613
  40   2.0000      -0.591375       -16.0921
  41   2.0000      -0.569156       -15.4875
  42   2.0000      -0.559240       -15.2177
  43   2.0000      -0.556128       -15.1330
  44   2.0000      -0.548900       -14.9363
  45   2.0000      -0.526821       -14.3355
  46   2.0000      -0.516913       -14.0659
  47   2.0000      -0.509722       -13.8703
  48   2.0000      -0.501893       -13.6572
  49   2.0000      -0.493803       -13.4371
  50   2.0000      -0.492480       -13.4011
  51   2.0000      -0.480227       -13.0676
  52   2.0000      -0.468715       -12.7544
  53   2.0000      -0.464873       -12.6498
  54   2.0000      -0.454494       -12.3674
  55   2.0000      -0.447428       -12.1751
  56   2.0000      -0.442667       -12.0456
  57   2.0000      -0.437957       -11.9174
  58   2.0000      -0.433759       -11.8032
  59   2.0000      -0.424653       -11.5554
  60   2.0000      -0.416802       -11.3418
  61   2.0000      -0.413100       -11.2410
  62   2.0000      -0.412577       -11.2268
  63   2.0000      -0.346308        -9.4235
  64   2.0000      -0.332812        -9.0563
  65   2.0000      -0.326687        -8.8896
  66   2.0000      -0.292173        -7.9504
  67   0.0000       0.026856         0.7308
  68   0.0000       0.063789         1.7358
  69   0.0000       0.114402         3.1130
  70   0.0000       0.119964         3.2644
  71   0.0000       0.123091         3.3495

MULLIKEN ATOMIC CHARGES
-----------------------
   0 S :    0.130461
   1 C :   -0.136139
   2 C :   -0.076214
   3 C :    0.055522
   4 C :   -0.175278
   5 H :   -0.005206
   6 C :    0.013202
   7 H :    0.047082
   8 H :    0.019628
   9 C :   -0.062373
  10 H :    0.025880
  11 H :    0.018881
  12 C :   -0.030840
  13 H :    0.040820
  14 H :    0.016256
  15 H :    0.037364
  16 S :    0.102214
  17 C :   -0.112058
  18 C :   -0.040163
  19 C :    0.009118
  20 C :   -0.158673
  21 H :    0.013217
  22 C :    0.035147
  23 H :    0.018878
  24 H :    0.039528
  25 C :   -0.103231
  26 H :    0.064086
  27 H :    0.050711
  28 C :   -0.037964
  29 H :    0.035976
  30 H :    0.012267
  31 H :    0.014516
  32 H :    0.068782
  33 H :    0.068606
Sum of atomic charges:    0.0000000

LOEWDIN ATOMIC CHARGES
----------------------
   0 S :    0.422773
   1 C :   -0.209439
   2 C :   -0.067229
   3 C :   -0.053688
   4 C :   -0.198647
   5 H :    0.026529
   6 C :   -0.037778
   7 H :    0.039650
   8 H :    0.030156
   9 C :   -0.046483
  10 H :    0.027035
  11 H :    0.016635
  12 C :   -0.065084
  13 H :    0.030559
  14 H :    0.023883
  15 H :    0.024538
  16 S :    0.386141
  17 C :   -0.194219
  18 C :   -0.075633
  19 C :   -0.052496
  20 C :   -0.178559
  21 H :    0.030925
  22 C :   -0.046445
  23 H :    0.035245
  24 H :    0.036985
  25 C :   -0.042545
  26 H :    0.030316
  27 H :    0.037298
  28 C :   -0.070270
  29 H :    0.030506
  30 H :    0.019618
  31 H :    0.015363
  32 H :    0.036398
  33 H :    0.037961

  Mayer bond orders larger than 0.100000
B(  0-S ,  1-C ) :   1.1582 B(  0-S ,  4-C ) :   1.1681 B(  1-C ,  2-C ) :   1.5426
B(  1-C ,  4-C ) :   0.1092 B(  1-C , 32-H ) :   0.9630 B(  2-C ,  3-C ) :   1.2803
B(  2-C ,  6-C ) :   1.0358 B(  3-C ,  4-C ) :   1.5278 B(  3-C ,  5-H ) :   1.0063
B(  4-C , 20-C ) :   1.0480 B(  6-C ,  7-H ) :   0.9369 B(  6-C ,  8-H ) :   0.9417
B(  6-C ,  9-C ) :   1.0739 B(  9-C , 10-H ) :   0.9522 B(  9-C , 11-H ) :   0.9521
B(  9-C , 12-C ) :   1.0751 B( 12-C , 13-H ) :   0.9742 B( 12-C , 14-H ) :   0.9707
B( 12-C , 15-H ) :   0.9721 B( 16-S , 17-C ) :   1.1413 B( 16-S , 20-C ) :   1.1306
B( 17-C , 18-C ) :   1.6686 B( 17-C , 33-H ) :   0.9568 B( 18-C , 19-C ) :   1.1858
B( 18-C , 21-H ) :   0.9911 B( 19-C , 20-C ) :   1.6026 B( 19-C , 22-C ) :   1.0510
B( 22-C , 23-H ) :   0.9328 B( 22-C , 24-H ) :   0.9252 B( 22-C , 25-C ) :   1.0536
B( 25-C , 26-H ) :   0.9507 B( 25-C , 27-H ) :   0.9604 B( 25-C , 28-C ) :   1.0770
B( 28-C , 29-H ) :   0.9759 B( 28-C , 30-H ) :   0.9731 B( 28-C , 31-H ) :   0.9747

Dispersion correction           -0.015212631
FINAL SINGLE POINT ENERGY     -1339.874732631728

DIPOLE MOMENT
-------------
                                X             Y             Z
Electronic contribution:    -18.84967     -19.26841     -11.18813
Nuclear contribution   :     19.17028      19.86475      11.29792
                        -----------------------------------------
Total Dipole Moment    :      0.32061       0.59634       0.10978
                        -----------------------------------------
Magnitude (a.u.)       :      0.68590
Magnitude (Debye)      :      1.74342

Rotational constants in cm-1:     0.018760     0.009560     0.007386
Rotational constants in MHz :   562.425196   286.608086   221.430241

                             ****ORCA TERMINATED NORMALLY****
TOTAL RUN TIME: 0 days 0 hours 0 minutes 33 seconds 209 msec
