                         Program Version 4.2.1 -  RELEASE  -
|  1> ! wB97X-D3 SP def2-SVP
|  2> %pal
|  3> nprocs 16
|  4> end
|  5>
|  6> * xyz 0 1
|  7> S 	 44.981 	 5.79248 	 85.9744
|  8> C 	 44.2724 	 6.37692 	 84.4479
|  9> C 	 45.1677 	 7.30282 	 83.8669
| 10> C 	 46.2085 	 7.73047 	 84.7492
| 11> C 	 46.3109 	 6.91338 	 85.8613
| 12> H 	 46.917 	 8.52142 	 84.6525
| 13> C 	 45.0813 	 7.88494 	 82.4169
| 14> H 	 45.0966 	 7.04605 	 81.636
| 15> H 	 46.0103 	 8.34754 	 82.1581
| 16> C 	 43.7459 	 8.61515 	 82.1929
| 17> H 	 42.8753 	 8.06998 	 82.509
| 18> H 	 43.6295 	 9.54248 	 82.7611
| 19> C 	 43.5525 	 9.20671 	 80.7545
| 20> H 	 42.6365 	 9.75907 	 80.5665
| 21> H 	 44.3447 	 9.78427 	 80.3947
| 22> H 	 43.4598 	 8.36493 	 79.9714
| 23> S 	 46.4919 	 7.55544 	 88.566
| 24> C 	 48.0418 	 7.68428 	 89.3459
| 25> C 	 49.0346 	 7.35682 	 88.4264
| 26> C 	 48.5453 	 7.0419 	 87.1051
| 27> C 	 47.2006 	 7.15766 	 86.9833
| 28> H 	 50.0048 	 7.40972 	 88.8904
| 29> C 	 49.5495 	 6.71351 	 85.9957
| 30> H 	 50.4402 	 7.31174 	 86.1677
| 31> H 	 49.1237 	 7.04947 	 85.0074
| 32> C 	 50.0893 	 5.30473 	 85.8229
| 33> H 	 49.1784 	 4.72656 	 85.6483
| 34> H 	 50.5333 	 4.90351 	 86.7363
| 35> C 	 50.9799 	 5.19195 	 84.5698
| 36> H 	 52.0008 	 5.34554 	 84.7333
| 37> H 	 50.6836 	 5.82428 	 83.7238
| 38> H 	 50.8679 	 4.14794 	 84.2318
| 39> H 	 43.4048 	 5.93441 	 83.9837
| 40> H 	 48.2581 	 7.7491 	 90.427
| 41> *
| 42>
| 43>                          ****END OF INPUT****

CARTESIAN COORDINATES (ANGSTROEM)
---------------------------------
  S     44.981000    5.792480   85.974400
  C     44.272400    6.376920   84.447900
  C     45.167700    7.302820   83.866900
  C     46.208500    7.730470   84.749200
  C     46.310900    6.913380   85.861300
  H     46.917000    8.521420   84.652500
  C     45.081300    7.884940   82.416900
  H     45.096600    7.046050   81.636000
  H     46.010300    8.347540   82.158100
  C     43.745900    8.615150   82.192900
  H     42.875300    8.069980   82.509000
  H     43.629500    9.542480   82.761100
  C     43.552500    9.206710   80.754500
  H     42.636500    9.759070   80.566500
  H     44.344700    9.784270   80.394700
  H     43.459800    8.364930   79.971400
  S     46.491900    7.555440   88.566000
  C     48.041800    7.684280   89.345900
  C     49.034600    7.356820   88.426400
  C     48.545300    7.041900   87.105100
  C     47.200600    7.157660   86.983300
  H     50.004800    7.409720   88.890400
  C     49.549500    6.713510   85.995700
  H     50.440200    7.311740   86.167700
  H     49.123700    7.049470   85.007400
  C     50.089300    5.304730   85.822900
  H     49.178400    4.726560   85.648300
  H     50.533300    4.903510   86.736300
  C     50.979900    5.191950   84.569800
  H     52.000800    5.345540   84.733300
  H     50.683600    5.824280   83.723800
  H     50.867900    4.147940   84.231800
  H     43.404800    5.934410   83.983700
  H     48.258100    7.749100   90.427000

 Total Charge           Charge          ....    0
 Multiplicity           Mult            ....    1
 Number of Electrons    NEL             ....  134
 Basis Dimension        Dim             ....  322

ORBITAL ENERGIES
----------------

  NO   OCC          E(Eh)            E(eV)
   0   2.0000     -88.969586     -2420.9855
   1   2.0000     -88.961329     -2420.7608
   2   2.0000     -10.329209      -281.0721
   3   2.0000     -10.325532      -280.9720
   4   2.0000     -10.322408      -280.8870
   5   2.0000     -10.318053      -280.7685
   6   2.0000     -10.312107      -280.6067
   7   2.0000     -10.304783      -280.4074
   8   2.0000     -10.303489      -280.3722
   9   2.0000     -10.295520      -280.1554
  10   2.0000     -10.292708      -280.0788
  11   2.0000     -10.291056      -280.0339
  12   2.0000     -10.290061      -280.0068
  13   2.0000     -10.283703      -279.8338
  14   2.0000     -10.279981      -279.7325
  15   2.0000     -10.275140      -279.6008
  16   2.0000      -8.083698      -219.9686
  17   2.0000      -8.075944      -219.7576
  18   2.0000      -6.042248      -164.4179
  19   2.0000      -6.038153      -164.3065
  20   2.0000      -6.034577      -164.2092
  21   2.0000      -6.034543      -164.2083
  22   2.0000      -6.030399      -164.0955
  23   2.0000      -6.026650      -163.9935
  24   2.0000      -1.005621       -27.3643
  25   2.0000      -0.980981       -26.6938
  26   2.0000      -0.906970       -24.6799
  27   2.0000      -0.904559       -24.6143
  28   2.0000      -0.868190       -23.6246
  29   2.0000      -0.850077       -23.1318
  30   2.0000      -0.844031       -22.9672
  31   2.0000      -0.813194       -22.1281
  32   2.0000      -0.781075       -21.2541
  33   2.0000      -0.772903       -21.0317
  34   2.0000      -0.710903       -19.3446
  35   2.0000      -0.704103       -19.1596
  36   2.0000      -0.691534       -18.8176
  37   2.0000      -0.658656       -17.9229
  38   2.0000      -0.648129       -17.6365
  39   2.0000      -0.616379       -16.7725
  40   2.0000      -0.591290       -16.0898
  41   2.0000      -0.569153       -15.4874
  42   2.0000      -0.563931       -15.3453
  43   2.0000      -0.550956       -14.9923
  44   2.0000      -0.531431       -14.4610
  45   2.0000      -0.521806       -14.1991
  46   2.0000      -0.515821       -14.0362
  47   2.0000      -0.510268       -13.8851
  48   2.0000      -0.507420       -13.8076
  49   2.0000      -0.499261       -13.5856
  50   2.0000      -0.492306       -13.3963
  51   2.0000      -0.479053       -13.0357
  52   2.0000      -0.473341       -12.8803
  53   2.0000      -0.466277       -12.6880
  54   2.0000      -0.455297       -12.3893
  55   2.0000      -0.452670       -12.3178
  56   2.0000      -0.443771       -12.0756
  57   2.0000      -0.440780       -11.9942
  58   2.0000      -0.434236       -11.8162
  59   2.0000      -0.423612       -11.5271
  60   2.0000      -0.414288       -11.2734
  61   2.0000      -0.408392       -11.1129
  62   2.0000      -0.403792       -10.9877
  63   2.0000      -0.342580        -9.3221
  64   2.0000      -0.331230        -9.0132
  65   2.0000      -0.324072        -8.8184
  66   2.0000      -0.301440        -8.2026
  67   0.0000       0.030489         0.8296
  68   0.0000       0.063061         1.7160
  69   0.0000       0.109329         2.9750
  70   0.0000       0.123769         3.3679
  71   0.0000       0.130802         3.5593

MULLIKEN ATOMIC CHARGES
-----------------------
   0 S :    0.114524
   1 C :   -0.130482
   2 C :   -0.069954
   3 C :    0.041475
   4 C :   -0.163866
   5 H :    0.015840
   6 C :    0.073489
   7 H :    0.038243
   8 H :    0.015868
   9 C :   -0.063800
  10 H :    0.029502
  11 H :    0.031282
  12 C :   -0.069676
  13 H :    0.035324
  14 H :    0.024108
  15 H :    0.020549
  16 S :    0.100614
  17 C :   -0.113357
  18 C :   -0.051609
  19 C :    0.010214
  20 C :   -0.168229
  21 H :    0.016700
  22 C :    0.038442
  23 H :    0.018125
  24 H :    0.019953
  25 C :   -0.057580
  26 H :    0.027000
  27 H :    0.030407
  28 C :   -0.035650
  29 H :    0.026959
  30 H :    0.029942
  31 H :    0.034269
  32 H :    0.058199
  33 H :    0.073175
Sum of atomic charges:   -0.0000000

LOEWDIN ATOMIC CHARGES
----------------------
   0 S :    0.406249
   1 C :   -0.190939
   2 C :   -0.052719
   3 C :   -0.055262
   4 C :   -0.197057
   5 H :    0.031218
   6 C :   -0.031252
   7 H :    0.040364
   8 H :    0.025616
   9 C :   -0.041583
  10 H :    0.024248
  11 H :    0.028256
  12 C :   -0.072345
  13 H :    0.026549
  14 H :    0.015234
  15 H :    0.025379
  16 S :    0.392935
  17 C :   -0.194772
  18 C :   -0.076407
  19 C :   -0.056831
  20 C :   -0.193374
  21 H :    0.030964
  22 C :   -0.036720
  23 H :    0.026544
  24 H :    0.030546
  25 C :   -0.039705
  26 H :    0.025164
  27 H :    0.024911
  28 C :   -0.062235
  29 H :    0.016676
  30 H :    0.028146
  31 H :    0.033505
  32 H :    0.027957
  33 H :    0.040739

  Mayer bond orders larger than 0.100000
B(  0-S ,  1-C ) :   1.1379 B(  0-S ,  4-C ) :   1.1576 B(  1-C ,  2-C ) :   1.5892
B(  1-C ,  4-C ) :   0.1032 B(  1-C , 32-H ) :   0.9726 B(  2-C ,  3-C ) :   1.2417
B(  2-C ,  6-C ) :   1.0127 B(  3-C ,  4-C ) :   1.5777 B(  3-C ,  5-H ) :   0.9903
B(  4-C , 20-C ) :   1.0306 B(  6-C ,  7-H ) :   0.9435 B(  6-C ,  8-H ) :   0.9505
B(  6-C ,  9-C ) :   1.0429 B(  9-C , 10-H ) :   0.9609 B(  9-C , 11-H ) :   0.9571
B(  9-C , 12-C ) :   1.0722 B( 12-C , 13-H ) :   0.9768 B( 12-C , 14-H ) :   0.9780
B( 12-C , 15-H ) :   0.9739 B( 16-S , 17-C ) :   1.1527 B( 16-S , 20-C ) :   1.1241
B( 17-C , 18-C ) :   1.6382 B( 17-C , 33-H ) :   0.9602 B( 18-C , 19-C ) :   1.2044
B( 18-C , 21-H ) :   0.9954 B( 19-C , 20-C ) :   1.6330 B( 19-C , 22-C ) :   1.0361
B( 22-C , 23-H ) :   0.9356 B( 22-C , 24-H ) :   0.9330 B( 22-C , 25-C ) :   1.0752
B( 25-C , 26-H ) :   0.9570 B( 25-C , 27-H ) :   0.9528 B( 25-C , 28-C ) :   1.0730
B( 28-C , 29-H ) :   0.9776 B( 28-C , 30-H ) :   0.9737 B( 28-C , 31-H ) :   0.9758

Dispersion correction           -0.013432007
FINAL SINGLE POINT ENERGY     -1339.864727783007

DIPOLE MOMENT
-------------
                                X             Y             Z
Electronic contribution:     -8.33675      -2.68778      25.28428
Nuclear contribution   :      8.71174       2.76173     -25.71707
                        -----------------------------------------
Total Dipole Moment    :      0.37499       0.07395      -0.43280
                        -----------------------------------------
Magnitude (a.u.)       :      0.57741
Magnitude (Debye)      :      1.46765

Rotational constants in cm-1:     0.018551     0.007549     0.006206
Rotational constants in MHz :   556.151999   226.309450   186.065231

                             ****ORCA TERMINATED NORMALLY****
TOTAL RUN TIME: 0 days 0 hours 0 minutes 26 seconds 980 msec
