                         Program Version 4.2.1 -  RELEASE  -
|  1> ! wB97X-D3 SP def2-SVP
|  2> %pal
|  3> nprocs 16
|  4> end
|  5>
|  6> * xyz 0 1
|  7> S 	 29.9795 	 -7.12392 	 81.9911
|  8> C 	 31.18 	 -6.61027 	 80.8126
|  9> C 	 30.5797 	 -5.87019 	 79.7609
| 10> C 	 29.1383 	 -5.89436 	 79.8738
| 11> C 	 28.6816 	 -6.60255 	 81.0105
| 12> H 	 28.4228 	 -5.48897 	 79.2308
| 13> C 	 31.2622 	 -5.2194 	 78.6247
| 14> H 	 30.4745 	 -4.64933 	 78.0892
| 15> H 	 31.5821 	 -5.94984 	 77.8369
| 16> C 	 32.4338 	 -4.42653 	 79.0287
| 17> H 	 33.2351 	 -4.99347 	 79.3562
| 18> H 	 32.692 	 -4.03025 	 78.0524
| 19> C 	 32.0812 	 -3.16593 	 79.9324
| 20> H 	 32.9065 	 -2.46988 	 80.0969
| 21> H 	 31.3428 	 -2.57164 	 79.4636
| 22> H 	 31.7394 	 -3.57764 	 80.849
| 23> S 	 26.6015 	 -8.42882 	 81.4941
| 24> C 	 24.9773 	 -7.86943 	 81.9436
| 25> C 	 24.9986 	 -6.51795 	 82.1645
| 26> C 	 26.2725 	 -5.94444 	 81.8814
| 27> C 	 27.2766 	 -6.80442 	 81.4418
| 28> H 	 24.1216 	 -6.02172 	 82.4952
| 29> C 	 26.5203 	 -4.48854 	 82.0241
| 30> H 	 25.5892 	 -3.90573 	 82.2096
| 31> H 	 26.7503 	 -4.14219 	 81.0414
| 32> C 	 27.4778 	 -4.21935 	 83.184
| 33> H 	 27.4557 	 -3.15995 	 83.3223
| 34> H 	 28.411 	 -4.56292 	 82.7535
| 35> C 	 27.1206 	 -4.90671 	 84.5278
| 36> H 	 27.2231 	 -5.96121 	 84.5128
| 37> H 	 26.0848 	 -4.69416 	 84.7867
| 38> H 	 27.6085 	 -4.41425 	 85.4011
| 39> H 	 32.2134 	 -6.8903 	 80.8481
| 40> H 	 24.0524 	 -8.39094 	 82.0087
| 41> *
| 42>
| 43>                          ****END OF INPUT****

CARTESIAN COORDINATES (ANGSTROEM)
---------------------------------
  S     29.979500   -7.123920   81.991100
  C     31.180000   -6.610270   80.812600
  C     30.579700   -5.870190   79.760900
  C     29.138300   -5.894360   79.873800
  C     28.681600   -6.602550   81.010500
  H     28.422800   -5.488970   79.230800
  C     31.262200   -5.219400   78.624700
  H     30.474500   -4.649330   78.089200
  H     31.582100   -5.949840   77.836900
  C     32.433800   -4.426530   79.028700
  H     33.235100   -4.993470   79.356200
  H     32.692000   -4.030250   78.052400
  C     32.081200   -3.165930   79.932400
  H     32.906500   -2.469880   80.096900
  H     31.342800   -2.571640   79.463600
  H     31.739400   -3.577640   80.849000
  S     26.601500   -8.428820   81.494100
  C     24.977300   -7.869430   81.943600
  C     24.998600   -6.517950   82.164500
  C     26.272500   -5.944440   81.881400
  C     27.276600   -6.804420   81.441800
  H     24.121600   -6.021720   82.495200
  C     26.520300   -4.488540   82.024100
  H     25.589200   -3.905730   82.209600
  H     26.750300   -4.142190   81.041400
  C     27.477800   -4.219350   83.184000
  H     27.455700   -3.159950   83.322300
  H     28.411000   -4.562920   82.753500
  C     27.120600   -4.906710   84.527800
  H     27.223100   -5.961210   84.512800
  H     26.084800   -4.694160   84.786700
  H     27.608500   -4.414250   85.401100
  H     32.213400   -6.890300   80.848100
  H     24.052400   -8.390940   82.008700

 Total Charge           Charge          ....    0
 Multiplicity           Mult            ....    1
 Number of Electrons    NEL             ....  134
 Basis Dimension        Dim             ....  322

ORBITAL ENERGIES
----------------

  NO   OCC          E(Eh)            E(eV)
   0   2.0000     -88.970708     -2421.0160
   1   2.0000     -88.963082     -2420.8085
   2   2.0000     -10.333035      -281.1762
   3   2.0000     -10.326726      -281.0045
   4   2.0000     -10.316871      -280.7363
   5   2.0000     -10.316843      -280.7356
   6   2.0000     -10.305205      -280.4189
   7   2.0000     -10.298741      -280.2430
   8   2.0000     -10.295816      -280.1634
   9   2.0000     -10.292193      -280.0648
  10   2.0000     -10.288994      -279.9777
  11   2.0000     -10.280040      -279.7341
  12   2.0000     -10.279915      -279.7307
  13   2.0000     -10.277581      -279.6672
  14   2.0000     -10.272585      -279.5313
  15   2.0000     -10.272216      -279.5212
  16   2.0000      -8.085372      -220.0142
  17   2.0000      -8.077106      -219.7892
  18   2.0000      -6.043826      -164.4609
  19   2.0000      -6.039686      -164.3482
  20   2.0000      -6.036391      -164.2586
  21   2.0000      -6.035760      -164.2414
  22   2.0000      -6.031579      -164.1276
  23   2.0000      -6.027870      -164.0267
  24   2.0000      -1.004295       -27.3282
  25   2.0000      -0.983184       -26.7538
  26   2.0000      -0.923431       -25.1278
  27   2.0000      -0.908090       -24.7104
  28   2.0000      -0.865296       -23.5459
  29   2.0000      -0.847659       -23.0660
  30   2.0000      -0.837871       -22.7996
  31   2.0000      -0.813737       -22.1429
  32   2.0000      -0.786755       -21.4087
  33   2.0000      -0.772620       -21.0240
  34   2.0000      -0.713246       -19.4084
  35   2.0000      -0.707576       -19.2541
  36   2.0000      -0.686052       -18.6684
  37   2.0000      -0.662997       -18.0411
  38   2.0000      -0.646742       -17.5987
  39   2.0000      -0.609237       -16.5782
  40   2.0000      -0.591936       -16.1074
  41   2.0000      -0.585564       -15.9340
  42   2.0000      -0.556215       -15.1354
  43   2.0000      -0.554735       -15.0951
  44   2.0000      -0.549703       -14.9582
  45   2.0000      -0.536647       -14.6029
  46   2.0000      -0.517447       -14.0804
  47   2.0000      -0.509449       -13.8628
  48   2.0000      -0.504723       -13.7342
  49   2.0000      -0.493672       -13.4335
  50   2.0000      -0.487729       -13.2718
  51   2.0000      -0.474611       -12.9148
  52   2.0000      -0.471175       -12.8213
  53   2.0000      -0.468521       -12.7491
  54   2.0000      -0.463828       -12.6214
  55   2.0000      -0.451361       -12.2822
  56   2.0000      -0.444628       -12.0989
  57   2.0000      -0.441987       -12.0271
  58   2.0000      -0.434865       -11.8333
  59   2.0000      -0.423522       -11.5246
  60   2.0000      -0.411012       -11.1842
  61   2.0000      -0.409622       -11.1464
  62   2.0000      -0.397562       -10.8182
  63   2.0000      -0.338069        -9.1993
  64   2.0000      -0.329533        -8.9670
  65   2.0000      -0.323200        -8.7947
  66   2.0000      -0.300455        -8.1758
  67   0.0000       0.033049         0.8993
  68   0.0000       0.057896         1.5754
  69   0.0000       0.111152         3.0246
  70   0.0000       0.121250         3.2994
  71   0.0000       0.128903         3.5076

MULLIKEN ATOMIC CHARGES
-----------------------
   0 S :    0.137065
   1 C :   -0.124306
   2 C :   -0.095992
   3 C :    0.070599
   4 C :   -0.189651
   5 H :   -0.009324
   6 C :    0.048327
   7 H :    0.018571
   8 H :    0.050185
   9 C :   -0.049512
  10 H :    0.020844
  11 H :    0.016358
  12 C :   -0.030309
  13 H :    0.034487
  14 H :    0.016890
  15 H :    0.040315
  16 S :    0.099425
  17 C :   -0.071970
  18 C :   -0.024151
  19 C :   -0.060942
  20 C :   -0.166117
  21 H :    0.007898
  22 C :    0.083175
  23 H :    0.001347
  24 H :    0.018401
  25 C :   -0.048512
  26 H :    0.021332
  27 H :    0.038602
  28 C :   -0.033406
  29 H :    0.042772
  30 H :    0.008426
  31 H :    0.037200
  32 H :    0.046811
  33 H :    0.045162
Sum of atomic charges:   -0.0000000

LOEWDIN ATOMIC CHARGES
----------------------
   0 S :    0.437632
   1 C :   -0.201949
   2 C :   -0.056248
   3 C :   -0.053947
   4 C :   -0.210899
   5 H :    0.021411
   6 C :   -0.041693
   7 H :    0.033472
   8 H :    0.043552
   9 C :   -0.033303
  10 H :    0.013674
  11 H :    0.026318
  12 C :   -0.054237
  13 H :    0.027290
  14 H :    0.019559
  15 H :    0.021155
  16 S :    0.393972
  17 C :   -0.169070
  18 C :   -0.070880
  19 C :   -0.052584
  20 C :   -0.212272
  21 H :    0.028180
  22 C :   -0.037845
  23 H :    0.024793
  24 H :    0.027143
  25 C :   -0.031892
  26 H :    0.020318
  27 H :    0.020893
  28 C :   -0.063416
  29 H :    0.021778
  30 H :    0.022449
  31 H :    0.033967
  32 H :    0.023613
  33 H :    0.029064

  Mayer bond orders larger than 0.100000
B(  0-S ,  1-C ) :   1.1491 B(  0-S ,  4-C ) :   1.1893 B(  1-C ,  2-C ) :   1.5588
B(  1-C ,  4-C ) :   0.1033 B(  1-C , 32-H ) :   0.9750 B(  2-C ,  3-C ) :   1.2523
B(  2-C ,  6-C ) :   1.0279 B(  3-C ,  4-C ) :   1.5496 B(  3-C ,  5-H ) :   1.0024
B(  4-C , 20-C ) :   1.0132 B(  6-C ,  7-H ) :   0.9391 B(  6-C ,  8-H ) :   0.9267
B(  6-C ,  9-C ) :   1.0837 B(  9-C , 10-H ) :   0.9568 B(  9-C , 11-H ) :   0.9516
B(  9-C , 12-C ) :   1.0637 B( 12-C , 13-H ) :   0.9779 B( 12-C , 14-H ) :   0.9754
B( 12-C , 15-H ) :   0.9778 B( 16-S , 17-C ) :   1.1611 B( 16-S , 20-C ) :   1.1254
B( 17-C , 18-C ) :   1.6023 B( 17-C , 20-C ) :   0.1012 B( 17-C , 33-H ) :   0.9672
B( 18-C , 19-C ) :   1.2520 B( 18-C , 21-H ) :   0.9975 B( 19-C , 20-C ) :   1.5795
B( 19-C , 22-C ) :   1.0414 B( 22-C , 23-H ) :   0.9299 B( 22-C , 24-H ) :   0.9358
B( 22-C , 25-C ) :   1.0575 B( 25-C , 26-H ) :   0.9564 B( 25-C , 27-H ) :   0.9592
B( 25-C , 28-C ) :   1.0760 B( 28-C , 29-H ) :   0.9717 B( 28-C , 30-H ) :   0.9716
B( 28-C , 31-H ) :   0.9737

Dispersion correction           -0.015959026
FINAL SINGLE POINT ENERGY     -1339.864658903581

DIPOLE MOMENT
-------------
                                X             Y             Z
Electronic contribution:     -7.89273     -22.05058       0.95530
Nuclear contribution   :      7.85869      22.60918      -1.23731
                        -----------------------------------------
Total Dipole Moment    :     -0.03404       0.55860      -0.28202
                        -----------------------------------------
Magnitude (a.u.)       :      0.62668
Magnitude (Debye)      :      1.59289

Rotational constants in cm-1:     0.023820     0.008439     0.007456
Rotational constants in MHz :   714.093494   252.989443   223.515888

                             ****ORCA TERMINATED NORMALLY****
TOTAL RUN TIME: 0 days 0 hours 0 minutes 32 seconds 337 msec
