                         Program Version 4.2.1 -  RELEASE  -
|  1> ! wB97X-D3 SP def2-SVP
|  2> %pal
|  3> nprocs 16
|  4> end
|  5>
|  6> * xyz 0 1
|  7> S 	 -51.5971 	 44.6434 	 108.454
|  8> C 	 -50.9071 	 46.2292 	 108.492
|  9> C 	 -51.8297 	 47.1729 	 108.833
| 10> C 	 -53.1126 	 46.6311 	 109.078
| 11> C 	 -53.1393 	 45.2533 	 108.905
| 12> H 	 -53.9994 	 47.0693 	 109.393
| 13> C 	 -51.4951 	 48.6191 	 109.084
| 14> H 	 -52.4178 	 49.1472 	 109.098
| 15> H 	 -50.8365 	 48.9868 	 108.343
| 16> C 	 -50.8613 	 48.8884 	 110.482
| 17> H 	 -51.3446 	 48.354 	 111.276
| 18> H 	 -49.8961 	 48.6227 	 110.196
| 19> C 	 -50.87 	 50.3505 	 110.716
| 20> H 	 -51.8737 	 50.7914 	 110.553
| 21> H 	 -50.6904 	 50.4842 	 111.743
| 22> H 	 -50.0862 	 50.8596 	 110.115
| 23> S 	 -55.0046 	 43.467 	 107.795
| 24> C 	 -56.0872 	 42.6228 	 108.957
| 25> C 	 -56.0261 	 43.2392 	 110.188
| 26> C 	 -55.0473 	 44.2651 	 110.338
| 27> C 	 -54.2835 	 44.3791 	 109.188
| 28> H 	 -56.7368 	 42.9305 	 110.946
| 29> C 	 -54.7699 	 45.0437 	 111.546
| 30> H 	 -55.623 	 45.026 	 112.151
| 31> H 	 -54.6847 	 46.0892 	 111.36
| 32> C 	 -53.6176 	 44.5492 	 112.425
| 33> H 	 -52.729 	 44.5777 	 111.83
| 34> H 	 -53.7535 	 43.4817 	 112.665
| 35> C 	 -53.3722 	 45.3989 	 113.681
| 36> H 	 -52.4551 	 45.2009 	 114.187
| 37> H 	 -54.1645 	 45.3123 	 114.455
| 38> H 	 -53.3494 	 46.4439 	 113.533
| 39> H 	 -49.8578 	 46.3799 	 108.403
| 40> H 	 -56.8553 	 41.8865 	 108.575
| 41> *
| 42>
| 43>                          ****END OF INPUT****

CARTESIAN COORDINATES (ANGSTROEM)
---------------------------------
  S    -51.597100   44.643400  108.454000
  C    -50.907100   46.229200  108.492000
  C    -51.829700   47.172900  108.833000
  C    -53.112600   46.631100  109.078000
  C    -53.139300   45.253300  108.905000
  H    -53.999400   47.069300  109.393000
  C    -51.495100   48.619100  109.084000
  H    -52.417800   49.147200  109.098000
  H    -50.836500   48.986800  108.343000
  C    -50.861300   48.888400  110.482000
  H    -51.344600   48.354000  111.276000
  H    -49.896100   48.622700  110.196000
  C    -50.870000   50.350500  110.716000
  H    -51.873700   50.791400  110.553000
  H    -50.690400   50.484200  111.743000
  H    -50.086200   50.859600  110.115000
  S    -55.004600   43.467000  107.795000
  C    -56.087200   42.622800  108.957000
  C    -56.026100   43.239200  110.188000
  C    -55.047300   44.265100  110.338000
  C    -54.283500   44.379100  109.188000
  H    -56.736800   42.930500  110.946000
  C    -54.769900   45.043700  111.546000
  H    -55.623000   45.026000  112.151000
  H    -54.684700   46.089200  111.360000
  C    -53.617600   44.549200  112.425000
  H    -52.729000   44.577700  111.830000
  H    -53.753500   43.481700  112.665000
  C    -53.372200   45.398900  113.681000
  H    -52.455100   45.200900  114.187000
  H    -54.164500   45.312300  114.455000
  H    -53.349400   46.443900  113.533000
  H    -49.857800   46.379900  108.403000
  H    -56.855300   41.886500  108.575000

 Total Charge           Charge          ....    0
 Multiplicity           Mult            ....    1
 Number of Electrons    NEL             ....  134
 Basis Dimension        Dim             ....  322

ORBITAL ENERGIES
----------------

  NO   OCC          E(Eh)            E(eV)
   0   2.0000     -88.965107     -2420.8636
   1   2.0000     -88.961669     -2420.7701
   2   2.0000     -10.328354      -281.0488
   3   2.0000     -10.324780      -280.9515
   4   2.0000     -10.324171      -280.9350
   5   2.0000     -10.306556      -280.4556
   6   2.0000     -10.302156      -280.3359
   7   2.0000     -10.296363      -280.1783
   8   2.0000     -10.295768      -280.1621
   9   2.0000     -10.287737      -279.9436
  10   2.0000     -10.284353      -279.8515
  11   2.0000     -10.281614      -279.7769
  12   2.0000     -10.281299      -279.7684
  13   2.0000     -10.276561      -279.6394
  14   2.0000     -10.274660      -279.5877
  15   2.0000     -10.274161      -279.5741
  16   2.0000      -8.080693      -219.8868
  17   2.0000      -8.075051      -219.7333
  18   2.0000      -6.038989      -164.3292
  19   2.0000      -6.035010      -164.2210
  20   2.0000      -6.033569      -164.1818
  21   2.0000      -6.031701      -164.1309
  22   2.0000      -6.029972      -164.0839
  23   2.0000      -6.025662      -163.9666
  24   2.0000      -1.008127       -27.4325
  25   2.0000      -0.981479       -26.7074
  26   2.0000      -0.922667       -25.1070
  27   2.0000      -0.911762       -24.8103
  28   2.0000      -0.870283       -23.6816
  29   2.0000      -0.855908       -23.2904
  30   2.0000      -0.848054       -23.0767
  31   2.0000      -0.814064       -22.1518
  32   2.0000      -0.785907       -21.3856
  33   2.0000      -0.772269       -21.0145
  34   2.0000      -0.712167       -19.3791
  35   2.0000      -0.701001       -19.0752
  36   2.0000      -0.693789       -18.8790
  37   2.0000      -0.662003       -18.0140
  38   2.0000      -0.650732       -17.7073
  39   2.0000      -0.621247       -16.9050
  40   2.0000      -0.600823       -16.3492
  41   2.0000      -0.583262       -15.8714
  42   2.0000      -0.568525       -15.4704
  43   2.0000      -0.560311       -15.2468
  44   2.0000      -0.531680       -14.4677
  45   2.0000      -0.523126       -14.2350
  46   2.0000      -0.518515       -14.1095
  47   2.0000      -0.516108       -14.0440
  48   2.0000      -0.511663       -13.9231
  49   2.0000      -0.494155       -13.4466
  50   2.0000      -0.489590       -13.3224
  51   2.0000      -0.485606       -13.2140
  52   2.0000      -0.470612       -12.8060
  53   2.0000      -0.462660       -12.5896
  54   2.0000      -0.460370       -12.5273
  55   2.0000      -0.451176       -12.2771
  56   2.0000      -0.446807       -12.1582
  57   2.0000      -0.445250       -12.1159
  58   2.0000      -0.436772       -11.8852
  59   2.0000      -0.428534       -11.6610
  60   2.0000      -0.421826       -11.4785
  61   2.0000      -0.415676       -11.3111
  62   2.0000      -0.409856       -11.1527
  63   2.0000      -0.338193        -9.2027
  64   2.0000      -0.331137        -9.0107
  65   2.0000      -0.328360        -8.9351
  66   2.0000      -0.296285        -8.0623
  67   0.0000       0.031436         0.8554
  68   0.0000       0.064152         1.7457
  69   0.0000       0.102545         2.7904
  70   0.0000       0.124291         3.3821
  71   0.0000       0.131191         3.5699

MULLIKEN ATOMIC CHARGES
-----------------------
   0 S :    0.126525
   1 C :   -0.126209
   2 C :   -0.055182
   3 C :    0.055754
   4 C :   -0.174475
   5 H :   -0.015050
   6 C :    0.072507
   7 H :   -0.000483
   8 H :    0.018292
   9 C :   -0.042496
  10 H :    0.035249
  11 H :    0.008068
  12 C :   -0.023485
  13 H :    0.026381
  14 H :    0.018740
  15 H :    0.036479
  16 S :    0.082247
  17 C :   -0.112540
  18 C :   -0.035505
  19 C :   -0.003733
  20 C :   -0.181156
  21 H :    0.018466
  22 C :    0.120682
  23 H :   -0.011597
  24 H :    0.000239
  25 C :   -0.047906
  26 H :    0.026018
  27 H :    0.030408
  28 C :   -0.027081
  29 H :    0.027566
  30 H :    0.022918
  31 H :    0.010008
  32 H :    0.037458
  33 H :    0.082893
Sum of atomic charges:   -0.0000000

LOEWDIN ATOMIC CHARGES
----------------------
   0 S :    0.433508
   1 C :   -0.200733
   2 C :   -0.061486
   3 C :   -0.053773
   4 C :   -0.206455
   5 H :    0.020162
   6 C :   -0.019957
   7 H :    0.018705
   8 H :    0.024578
   9 C :   -0.029469
  10 H :    0.023845
  11 H :    0.018205
  12 C :   -0.061819
  13 H :    0.024857
  14 H :    0.019879
  15 H :    0.031337
  16 S :    0.352195
  17 C :   -0.176787
  18 C :   -0.070252
  19 C :   -0.053671
  20 C :   -0.172137
  21 H :    0.032356
  22 C :   -0.031078
  23 H :    0.023457
  24 H :    0.025911
  25 C :   -0.028671
  26 H :    0.021607
  27 H :    0.028770
  28 C :   -0.066662
  29 H :    0.025280
  30 H :    0.026561
  31 H :    0.018009
  32 H :    0.021325
  33 H :    0.042405

  Mayer bond orders larger than 0.100000
B(  0-S ,  1-C ) :   1.1453 B(  0-S ,  4-C ) :   1.1789 B(  1-C ,  2-C ) :   1.5880
B(  1-C , 32-H ) :   0.9776 B(  2-C ,  3-C ) :   1.2421 B(  2-C ,  6-C ) :   1.0356
B(  3-C ,  4-C ) :   1.5527 B(  3-C ,  5-H ) :   1.0114 B(  4-C , 20-C ) :   1.0267
B(  6-C ,  7-H ) :   0.9390 B(  6-C ,  8-H ) :   0.9422 B(  6-C ,  9-C ) :   1.0533
B(  9-C , 10-H ) :   0.9603 B(  9-C , 11-H ) :   0.9537 B(  9-C , 12-C ) :   1.1020
B( 12-C , 13-H ) :   0.9723 B( 12-C , 14-H ) :   0.9710 B( 12-C , 15-H ) :   0.9706
B( 16-S , 17-C ) :   1.1285 B( 16-S , 20-C ) :   1.1393 B( 17-C , 18-C ) :   1.6242
B( 17-C , 20-C ) :   0.1017 B( 17-C , 33-H ) :   0.9605 B( 18-C , 19-C ) :   1.2196
B( 18-C , 21-H ) :   0.9885 B( 19-C , 20-C ) :   1.5962 B( 19-C , 22-C ) :   1.0700
B( 22-C , 23-H ) :   0.9106 B( 22-C , 24-H ) :   0.9177 B( 22-C , 25-C ) :   1.0622
B( 25-C , 26-H ) :   0.9560 B( 25-C , 27-H ) :   0.9532 B( 25-C , 28-C ) :   1.0803
B( 28-C , 29-H ) :   0.9736 B( 28-C , 30-H ) :   0.9739 B( 28-C , 31-H ) :   0.9715

Dispersion correction           -0.014745427
FINAL SINGLE POINT ENERGY     -1339.869120213584

DIPOLE MOMENT
-------------
                                X             Y             Z
Electronic contribution:     -6.39657     -20.95491     -22.40152
Nuclear contribution   :      6.37690      21.46487      23.02958
                        -----------------------------------------
Total Dipole Moment    :     -0.01968       0.50996       0.62805
                        -----------------------------------------
Magnitude (a.u.)       :      0.80926
Magnitude (Debye)      :      2.05696

Rotational constants in cm-1:     0.019650     0.008872     0.007001
Rotational constants in MHz :   589.096408   265.976216   209.879554

                             ****ORCA TERMINATED NORMALLY****
TOTAL RUN TIME: 0 days 0 hours 0 minutes 31 seconds 419 msec
