                         Program Version 4.2.1 -  RELEASE  -
|  1> ! wB97X-D3 SP def2-SVP
|  2> %pal
|  3> nprocs 16
|  4> end
|  5>
|  6> * xyz 0 1
|  7> S 	 -3.28143 	 -10.4676 	 71.1169
|  8> C 	 -3.94272 	 -12.0699 	 71.2643
|  9> C 	 -2.94636 	 -12.9706 	 71.2124
| 10> C 	 -1.68203 	 -12.4713 	 70.8547
| 11> C 	 -1.66665 	 -11.1002 	 70.7584
| 12> H 	 -0.751009 	 -13.0363 	 70.7644
| 13> C 	 -3.16334 	 -14.5072 	 71.313
| 14> H 	 -2.48039 	 -15.0032 	 70.6686
| 15> H 	 -4.13287 	 -14.7166 	 70.8671
| 16> C 	 -2.93574 	 -15.155 	 72.6877
| 17> H 	 -3.72243 	 -14.9527 	 73.343
| 18> H 	 -2.81147 	 -16.2272 	 72.4298
| 19> C 	 -1.66437 	 -14.8023 	 73.4406
| 20> H 	 -0.810668 	 -14.9542 	 72.8083
| 21> H 	 -1.65697 	 -13.7335 	 73.7007
| 22> H 	 -1.50458 	 -15.4612 	 74.3781
| 23> S 	 -0.123499 	 -9.14704 	 71.8855
| 24> C 	 1.26127 	 -8.58505 	 70.9719
| 25> C 	 1.38877 	 -9.20279 	 69.734
| 26> C 	 0.404587 	 -10.2012 	 69.4885
| 27> C 	 -0.47928 	 -10.2671 	 70.5509
| 28> H 	 2.20541 	 -8.90826 	 69.1461
| 29> C 	 0.518201 	 -11.1599 	 68.3312
| 30> H 	 0.846973 	 -10.7167 	 67.4248
| 31> H 	 -0.455627 	 -11.4612 	 67.993
| 32> C 	 1.46753 	 -12.3614 	 68.6315
| 33> H 	 1.63522 	 -12.4118 	 69.6651
| 34> H 	 2.42952 	 -11.9904 	 68.2425
| 35> C 	 0.959988 	 -13.7957 	 68.1956
| 36> H 	 0.323136 	 -14.1363 	 68.9724
| 37> H 	 1.71823 	 -14.477 	 67.9406
| 38> H 	 0.419552 	 -13.64 	 67.2191
| 39> H 	 -4.97241 	 -12.2442 	 71.6359
| 40> H 	 1.90732 	 -7.81693 	 71.2821
| 41> *
| 42>
| 43>                          ****END OF INPUT****

CARTESIAN COORDINATES (ANGSTROEM)
---------------------------------
  S     -3.281430  -10.467600   71.116900
  C     -3.942720  -12.069900   71.264300
  C     -2.946360  -12.970600   71.212400
  C     -1.682030  -12.471300   70.854700
  C     -1.666650  -11.100200   70.758400
  H     -0.751009  -13.036300   70.764400
  C     -3.163340  -14.507200   71.313000
  H     -2.480390  -15.003200   70.668600
  H     -4.132870  -14.716600   70.867100
  C     -2.935740  -15.155000   72.687700
  H     -3.722430  -14.952700   73.343000
  H     -2.811470  -16.227200   72.429800
  C     -1.664370  -14.802300   73.440600
  H     -0.810668  -14.954200   72.808300
  H     -1.656970  -13.733500   73.700700
  H     -1.504580  -15.461200   74.378100
  S     -0.123499   -9.147040   71.885500
  C      1.261270   -8.585050   70.971900
  C      1.388770   -9.202790   69.734000
  C      0.404587  -10.201200   69.488500
  C     -0.479280  -10.267100   70.550900
  H      2.205410   -8.908260   69.146100
  C      0.518201  -11.159900   68.331200
  H      0.846973  -10.716700   67.424800
  H     -0.455627  -11.461200   67.993000
  C      1.467530  -12.361400   68.631500
  H      1.635220  -12.411800   69.665100
  H      2.429520  -11.990400   68.242500
  C      0.959988  -13.795700   68.195600
  H      0.323136  -14.136300   68.972400
  H      1.718230  -14.477000   67.940600
  H      0.419552  -13.640000   67.219100
  H     -4.972410  -12.244200   71.635900
  H      1.907320   -7.816930   71.282100

 Total Charge           Charge          ....    0
 Multiplicity           Mult            ....    1
 Number of Electrons    NEL             ....  134
 Basis Dimension        Dim             ....  322

ORBITAL ENERGIES
----------------

  NO   OCC          E(Eh)            E(eV)
   0   2.0000     -88.967967     -2420.9415
   1   2.0000     -88.963421     -2420.8178
   2   2.0000     -10.328067      -281.0410
   3   2.0000     -10.327318      -281.0206
   4   2.0000     -10.313137      -280.6347
   5   2.0000     -10.311380      -280.5869
   6   2.0000     -10.305302      -280.4215
   7   2.0000     -10.294797      -280.1357
   8   2.0000     -10.290728      -280.0249
   9   2.0000     -10.289573      -279.9935
  10   2.0000     -10.288108      -279.9537
  11   2.0000     -10.287428      -279.9351
  12   2.0000     -10.286452      -279.9086
  13   2.0000     -10.282592      -279.8036
  14   2.0000     -10.280932      -279.7584
  15   2.0000     -10.279379      -279.7161
  16   2.0000      -8.082224      -219.9285
  17   2.0000      -8.078161      -219.8179
  18   2.0000      -6.040619      -164.3736
  19   2.0000      -6.036934      -164.2733
  20   2.0000      -6.036690      -164.2667
  21   2.0000      -6.032998      -164.1662
  22   2.0000      -6.032669      -164.1573
  23   2.0000      -6.028895      -164.0546
  24   2.0000      -1.007017       -27.4023
  25   2.0000      -0.985195       -26.8085
  26   2.0000      -0.908739       -24.7280
  27   2.0000      -0.906383       -24.6639
  28   2.0000      -0.869144       -23.6506
  29   2.0000      -0.850548       -23.1446
  30   2.0000      -0.844910       -22.9912
  31   2.0000      -0.814925       -22.1752
  32   2.0000      -0.787174       -21.4201
  33   2.0000      -0.774936       -21.0871
  34   2.0000      -0.709278       -19.3004
  35   2.0000      -0.699002       -19.0208
  36   2.0000      -0.693393       -18.8682
  37   2.0000      -0.665222       -18.1016
  38   2.0000      -0.642043       -17.4709
  39   2.0000      -0.615510       -16.7489
  40   2.0000      -0.600849       -16.3499
  41   2.0000      -0.579343       -15.7647
  42   2.0000      -0.563441       -15.3320
  43   2.0000      -0.546773       -14.8785
  44   2.0000      -0.539011       -14.6672
  45   2.0000      -0.522335       -14.2135
  46   2.0000      -0.516581       -14.0569
  47   2.0000      -0.512452       -13.9445
  48   2.0000      -0.509612       -13.8673
  49   2.0000      -0.499301       -13.5867
  50   2.0000      -0.485983       -13.2243
  51   2.0000      -0.481153       -13.0928
  52   2.0000      -0.473813       -12.8931
  53   2.0000      -0.467213       -12.7135
  54   2.0000      -0.458908       -12.4875
  55   2.0000      -0.446352       -12.1459
  56   2.0000      -0.442551       -12.0424
  57   2.0000      -0.437197       -11.8967
  58   2.0000      -0.434139       -11.8135
  59   2.0000      -0.428281       -11.6541
  60   2.0000      -0.421088       -11.4584
  61   2.0000      -0.417688       -11.3659
  62   2.0000      -0.403603       -10.9826
  63   2.0000      -0.343282        -9.3412
  64   2.0000      -0.334528        -9.1030
  65   2.0000      -0.329723        -8.9722
  66   2.0000      -0.296502        -8.0682
  67   0.0000       0.033858         0.9213
  68   0.0000       0.064266         1.7488
  69   0.0000       0.112658         3.0656
  70   0.0000       0.116586         3.1725
  71   0.0000       0.130981         3.5642

MULLIKEN ATOMIC CHARGES
-----------------------
   0 S :    0.102355
   1 C :   -0.140506
   2 C :   -0.078390
   3 C :    0.024150
   4 C :   -0.142256
   5 H :    0.012653
   6 C :    0.078799
   7 H :    0.004707
   8 H :    0.024736
   9 C :   -0.049301
  10 H :    0.022592
  11 H :    0.033298
  12 C :   -0.086560
  13 H :    0.015262
  14 H :    0.048250
  15 H :    0.051796
  16 S :    0.114400
  17 C :   -0.075022
  18 C :   -0.024685
  19 C :   -0.014720
  20 C :   -0.193192
  21 H :   -0.001343
  22 C :    0.093359
  23 H :    0.011003
  24 H :    0.015957
  25 C :   -0.071801
  26 H :    0.025854
  27 H :    0.025199
  28 C :   -0.033243
  29 H :    0.032252
  30 H :    0.032287
  31 H :    0.038237
  32 H :    0.066758
  33 H :    0.037116
Sum of atomic charges:   -0.0000000

LOEWDIN ATOMIC CHARGES
----------------------
   0 S :    0.396551
   1 C :   -0.204150
   2 C :   -0.071910
   3 C :   -0.065968
   4 C :   -0.186567
   5 H :    0.033136
   6 C :   -0.025377
   7 H :    0.022437
   8 H :    0.031465
   9 C :   -0.038777
  10 H :    0.014124
  11 H :    0.030656
  12 C :   -0.071356
  13 H :    0.015062
  14 H :    0.027554
  15 H :    0.039027
  16 S :    0.397567
  17 C :   -0.174432
  18 C :   -0.063057
  19 C :   -0.047548
  20 C :   -0.187629
  21 H :    0.023930
  22 C :   -0.030508
  23 H :    0.027191
  24 H :    0.027394
  25 C :   -0.034965
  26 H :    0.013966
  27 H :    0.025844
  28 C :   -0.055110
  29 H :    0.020139
  30 H :    0.021463
  31 H :    0.033162
  32 H :    0.038772
  33 H :    0.017916

  Mayer bond orders larger than 0.100000
B(  0-S ,  1-C ) :   1.1290 B(  0-S ,  4-C ) :   1.1542 B(  1-C ,  2-C ) :   1.6314
B(  1-C , 32-H ) :   0.9630 B(  2-C ,  3-C ) :   1.2418 B(  2-C ,  6-C ) :   1.0043
B(  3-C ,  4-C ) :   1.5741 B(  3-C ,  5-H ) :   0.9914 B(  4-C , 20-C ) :   1.0302
B(  6-C ,  7-H ) :   0.9431 B(  6-C ,  8-H ) :   0.9484 B(  6-C ,  9-C ) :   1.0688
B(  9-C , 10-H ) :   0.9586 B(  9-C , 11-H ) :   0.9568 B(  9-C , 12-C ) :   1.0886
B( 12-C , 13-H ) :   0.9735 B( 12-C , 14-H ) :   0.9690 B( 12-C , 15-H ) :   0.9721
B( 16-S , 17-C ) :   1.1448 B( 16-S , 20-C ) :   1.1452 B( 17-C , 18-C ) :   1.6300
B( 17-C , 20-C ) :   0.1006 B( 17-C , 33-H ) :   0.9713 B( 18-C , 19-C ) :   1.2106
B( 18-C , 21-H ) :   0.9993 B( 19-C , 20-C ) :   1.6105 B( 19-C , 22-C ) :   1.0698
B( 22-C , 23-H ) :   0.9330 B( 22-C , 24-H ) :   0.9304 B( 22-C , 25-C ) :   1.0249
B( 25-C , 26-H ) :   0.9697 B( 25-C , 27-H ) :   0.9581 B( 25-C , 28-C ) :   1.0623
B( 28-C , 29-H ) :   0.9795 B( 28-C , 30-H ) :   0.9748 B( 28-C , 31-H ) :   0.9798

Dispersion correction           -0.015407798
FINAL SINGLE POINT ENERGY     -1339.869436748765

DIPOLE MOMENT
-------------
                                X             Y             Z
Electronic contribution:     -6.87644      25.85664       4.95804
Nuclear contribution   :      7.22621     -26.36211      -5.17443
                        -----------------------------------------
Total Dipole Moment    :      0.34977      -0.50548      -0.21639
                        -----------------------------------------
Magnitude (a.u.)       :      0.65167
Magnitude (Debye)      :      1.65641

Rotational constants in cm-1:     0.017471     0.009794     0.007736
Rotational constants in MHz :   523.769905   293.630091   231.915160

                             ****ORCA TERMINATED NORMALLY****
TOTAL RUN TIME: 0 days 0 hours 0 minutes 35 seconds 33 msec
