                         Program Version 4.2.1 -  RELEASE  -
|  1> ! wB97X-D3 SP def2-SVP
|  2> %pal
|  3> nprocs 16
|  4> end
|  5>
|  6> * xyz 0 1
|  7> S 	 -34.8318 	 68.3097 	 146.087
|  8> C 	 -36.177 	 68.9154 	 145.242
|  9> C 	 -36.156 	 68.6554 	 143.88
| 10> C 	 -35.0295 	 67.8231 	 143.536
| 11> C 	 -34.1744 	 67.5986 	 144.612
| 12> H 	 -34.7308 	 67.3289 	 142.576
| 13> C 	 -37.0585 	 69.1266 	 142.792
| 14> H 	 -36.503 	 69.2711 	 141.817
| 15> H 	 -37.3874 	 70.1518 	 143.094
| 16> C 	 -38.3406 	 68.2159 	 142.603
| 17> H 	 -38.8189 	 68.0597 	 143.584
| 18> H 	 -39.0074 	 68.7064 	 141.963
| 19> C 	 -38.111 	 66.9245 	 141.847
| 20> H 	 -37.6161 	 66.1898 	 142.507
| 21> H 	 -38.9978 	 66.4581 	 141.448
| 22> H 	 -37.4266 	 66.9546 	 141.021
| 23> S 	 -31.7939 	 66.939 	 143.182
| 24> C 	 -30.6582 	 65.846 	 143.851
| 25> C 	 -31.0816 	 65.3648 	 145.076
| 26> C 	 -32.296 	 65.929 	 145.484
| 27> C 	 -32.9707 	 66.7626 	 144.566
| 28> H 	 -30.5564 	 64.534 	 145.609
| 29> C 	 -32.8265 	 65.4786 	 146.801
| 30> H 	 -33.0859 	 66.3014 	 147.475
| 31> H 	 -31.99 	 64.9895 	 147.337
| 32> C 	 -33.8598 	 64.342 	 146.649
| 33> H 	 -33.9141 	 63.9112 	 147.607
| 34> H 	 -33.4899 	 63.6302 	 145.861
| 35> C 	 -35.3209 	 64.6719 	 146.387
| 36> H 	 -36.0528 	 63.8474 	 146.454
| 37> H 	 -35.247 	 64.9129 	 145.352
| 38> H 	 -35.7077 	 65.462 	 146.984
| 39> H 	 -36.9536 	 69.4793 	 145.735
| 40> H 	 -29.7606 	 65.4297 	 143.352
| 41> *
| 42>
| 43>                          ****END OF INPUT****

CARTESIAN COORDINATES (ANGSTROEM)
---------------------------------
  S    -34.831800   68.309700  146.087000
  C    -36.177000   68.915400  145.242000
  C    -36.156000   68.655400  143.880000
  C    -35.029500   67.823100  143.536000
  C    -34.174400   67.598600  144.612000
  H    -34.730800   67.328900  142.576000
  C    -37.058500   69.126600  142.792000
  H    -36.503000   69.271100  141.817000
  H    -37.387400   70.151800  143.094000
  C    -38.340600   68.215900  142.603000
  H    -38.818900   68.059700  143.584000
  H    -39.007400   68.706400  141.963000
  C    -38.111000   66.924500  141.847000
  H    -37.616100   66.189800  142.507000
  H    -38.997800   66.458100  141.448000
  H    -37.426600   66.954600  141.021000
  S    -31.793900   66.939000  143.182000
  C    -30.658200   65.846000  143.851000
  C    -31.081600   65.364800  145.076000
  C    -32.296000   65.929000  145.484000
  C    -32.970700   66.762600  144.566000
  H    -30.556400   64.534000  145.609000
  C    -32.826500   65.478600  146.801000
  H    -33.085900   66.301400  147.475000
  H    -31.990000   64.989500  147.337000
  C    -33.859800   64.342000  146.649000
  H    -33.914100   63.911200  147.607000
  H    -33.489900   63.630200  145.861000
  C    -35.320900   64.671900  146.387000
  H    -36.052800   63.847400  146.454000
  H    -35.247000   64.912900  145.352000
  H    -35.707700   65.462000  146.984000
  H    -36.953600   69.479300  145.735000
  H    -29.760600   65.429700  143.352000

 Total Charge           Charge          ....    0
 Multiplicity           Mult            ....    1
 Number of Electrons    NEL             ....  134
 Basis Dimension        Dim             ....  322

ORBITAL ENERGIES
----------------

  NO   OCC          E(Eh)            E(eV)
   0   2.0000     -88.970568     -2421.0122
   1   2.0000     -88.966071     -2420.8899
   2   2.0000     -10.334381      -281.2128
   3   2.0000     -10.332810      -281.1700
   4   2.0000     -10.319234      -280.8006
   5   2.0000     -10.314005      -280.6583
   6   2.0000     -10.303260      -280.3660
   7   2.0000     -10.300571      -280.2928
   8   2.0000     -10.300473      -280.2901
   9   2.0000     -10.298371      -280.2329
  10   2.0000     -10.292877      -280.0834
  11   2.0000     -10.288074      -279.9527
  12   2.0000     -10.286048      -279.8976
  13   2.0000     -10.279346      -279.7152
  14   2.0000     -10.271877      -279.5120
  15   2.0000     -10.261127      -279.2195
  16   2.0000      -8.085314      -220.0126
  17   2.0000      -8.080111      -219.8710
  18   2.0000      -6.043776      -164.4595
  19   2.0000      -6.039825      -164.3520
  20   2.0000      -6.038695      -164.3212
  21   2.0000      -6.036124      -164.2513
  22   2.0000      -6.034533      -164.2080
  23   2.0000      -6.031012      -164.1122
  24   2.0000      -1.005280       -27.3551
  25   2.0000      -0.986854       -26.8537
  26   2.0000      -0.909993       -24.7622
  27   2.0000      -0.907654       -24.6985
  28   2.0000      -0.869703       -23.6658
  29   2.0000      -0.853018       -23.2118
  30   2.0000      -0.848461       -23.0878
  31   2.0000      -0.810620       -22.0581
  32   2.0000      -0.783514       -21.3205
  33   2.0000      -0.769675       -20.9439
  34   2.0000      -0.705306       -19.1924
  35   2.0000      -0.702181       -19.1073
  36   2.0000      -0.683940       -18.6110
  37   2.0000      -0.663188       -18.0463
  38   2.0000      -0.639317       -17.3967
  39   2.0000      -0.610113       -16.6020
  40   2.0000      -0.597060       -16.2468
  41   2.0000      -0.574997       -15.6465
  42   2.0000      -0.549994       -14.9661
  43   2.0000      -0.545227       -14.8364
  44   2.0000      -0.542380       -14.7589
  45   2.0000      -0.532695       -14.4954
  46   2.0000      -0.518421       -14.1069
  47   2.0000      -0.512161       -13.9366
  48   2.0000      -0.500792       -13.6273
  49   2.0000      -0.495611       -13.4863
  50   2.0000      -0.486440       -13.2367
  51   2.0000      -0.482931       -13.1412
  52   2.0000      -0.479406       -13.0453
  53   2.0000      -0.468407       -12.7460
  54   2.0000      -0.461927       -12.5697
  55   2.0000      -0.449432       -12.2297
  56   2.0000      -0.438355       -11.9282
  57   2.0000      -0.432528       -11.7697
  58   2.0000      -0.428932       -11.6718
  59   2.0000      -0.424608       -11.5542
  60   2.0000      -0.419182       -11.4065
  61   2.0000      -0.411828       -11.2064
  62   2.0000      -0.391164       -10.6441
  63   2.0000      -0.355617        -9.6768
  64   2.0000      -0.330849        -9.0029
  65   2.0000      -0.328768        -8.9462
  66   2.0000      -0.284666        -7.7462
  67   0.0000       0.021746         0.5917
  68   0.0000       0.075938         2.0664
  69   0.0000       0.104488         2.8433
  70   0.0000       0.118396         3.2217
  71   0.0000       0.123576         3.3627

MULLIKEN ATOMIC CHARGES
-----------------------
   0 S :    0.123494
   1 C :   -0.118486
   2 C :   -0.054702
   3 C :   -0.018326
   4 C :   -0.131254
   5 H :    0.035860
   6 C :    0.018195
   7 H :    0.045108
   8 H :    0.029983
   9 C :   -0.030991
  10 H :    0.035982
  11 H :    0.017885
  12 C :   -0.055977
  13 H :    0.031241
  14 H :    0.032609
  15 H :    0.015540
  16 S :    0.091443
  17 C :   -0.087854
  18 C :   -0.057619
  19 C :   -0.076823
  20 C :   -0.132564
  21 H :    0.039005
  22 C :    0.045689
  23 H :    0.034334
  24 H :    0.014624
  25 C :   -0.064856
  26 H :    0.014456
  27 H :    0.035399
  28 C :   -0.025474
  29 H :    0.030489
  30 H :    0.024960
  31 H :    0.023651
  32 H :    0.044569
  33 H :    0.070412
Sum of atomic charges:    0.0000000

LOEWDIN ATOMIC CHARGES
----------------------
   0 S :    0.433468
   1 C :   -0.209125
   2 C :   -0.066447
   3 C :   -0.064968
   4 C :   -0.192875
   5 H :    0.039211
   6 C :   -0.034692
   7 H :    0.038834
   8 H :    0.034506
   9 C :   -0.032549
  10 H :    0.029265
  11 H :    0.016444
  12 C :   -0.070724
  13 H :    0.027292
  14 H :    0.025606
  15 H :    0.020511
  16 S :    0.398197
  17 C :   -0.198180
  18 C :   -0.086201
  19 C :   -0.063413
  20 C :   -0.184374
  21 H :    0.041353
  22 C :   -0.037857
  23 H :    0.026457
  24 H :    0.034672
  25 C :   -0.034052
  26 H :    0.013964
  27 H :    0.031865
  28 C :   -0.068054
  29 H :    0.027755
  30 H :    0.022585
  31 H :    0.014215
  32 H :    0.026660
  33 H :    0.040653

  Mayer bond orders larger than 0.100000
B(  0-S ,  1-C ) :   1.1539 B(  0-S ,  4-C ) :   1.1439 B(  1-C ,  2-C ) :   1.6006
B(  1-C , 32-H ) :   0.9666 B(  2-C ,  3-C ) :   1.2336 B(  2-C ,  6-C ) :   1.0227
B(  3-C ,  4-C ) :   1.5607 B(  3-C ,  5-H ) :   0.9849 B(  4-C , 20-C ) :   1.0770
B(  6-C ,  7-H ) :   0.9491 B(  6-C ,  8-H ) :   0.9384 B(  6-C ,  9-C ) :   1.0685
B(  9-C , 10-H ) :   0.9567 B(  9-C , 11-H ) :   0.9583 B(  9-C , 12-C ) :   1.0754
B( 12-C , 13-H ) :   0.9732 B( 12-C , 14-H ) :   0.9750 B( 12-C , 15-H ) :   0.9722
B( 16-S , 17-C ) :   1.1828 B( 16-S , 20-C ) :   1.1126 B( 17-C , 18-C ) :   1.5705
B( 17-C , 20-C ) :   0.1060 B( 17-C , 33-H ) :   0.9571 B( 18-C , 19-C ) :   1.2943
B( 18-C , 21-H ) :   0.9794 B( 19-C , 20-C ) :   1.5369 B( 19-C , 22-C ) :   1.0510
B( 22-C , 23-H ) :   0.9341 B( 22-C , 24-H ) :   0.9296 B( 22-C , 25-C ) :   1.0666
B( 25-C , 26-H ) :   0.9563 B( 25-C , 27-H ) :   0.9550 B( 25-C , 28-C ) :   1.0794
B( 28-C , 29-H ) :   0.9715 B( 28-C , 30-H ) :   0.9748 B( 28-C , 31-H ) :   0.9718

Dispersion correction           -0.015789649
FINAL SINGLE POINT ENERGY     -1339.871994090273

DIPOLE MOMENT
-------------
                                X             Y             Z
Electronic contribution:     18.20494       9.64780       1.90580
Nuclear contribution   :    -18.46924      -9.87006      -1.91593
                        -----------------------------------------
Total Dipole Moment    :     -0.26430      -0.22226      -0.01012
                        -----------------------------------------
Magnitude (a.u.)       :      0.34549
Magnitude (Debye)      :      0.87816

Rotational constants in cm-1:     0.020387     0.008868     0.007826
Rotational constants in MHz :   611.180269   265.854833   234.607988

                             ****ORCA TERMINATED NORMALLY****
TOTAL RUN TIME: 0 days 0 hours 0 minutes 36 seconds 714 msec
