                         Program Version 4.2.1 -  RELEASE  -
|  1> ! wB97X-D3 SP def2-SVP
|  2> %pal
|  3> nprocs 16
|  4> end
|  5>
|  6> * xyz 0 1
|  7> S 	 34.7266 	 0.269637 	 66.9436
|  8> C 	 35.3414 	 1.67322 	 67.7273
|  9> C 	 34.3751 	 2.15579 	 68.6023
| 10> C 	 33.0851 	 1.50735 	 68.4679
| 11> C 	 33.0563 	 0.549057 	 67.4803
| 12> H 	 32.0581 	 1.65972 	 68.9738
| 13> C 	 34.644 	 3.26155 	 69.6253
| 14> H 	 35.6977 	 3.34686 	 69.9104
| 15> H 	 34.1185 	 3.04055 	 70.554
| 16> C 	 34.3323 	 4.67424 	 69.1518
| 17> H 	 33.3251 	 4.84435 	 69.2741
| 18> H 	 34.7908 	 5.2952 	 69.8777
| 19> C 	 34.7186 	 5.03941 	 67.7853
| 20> H 	 34.0271 	 4.52847 	 67.1087
| 21> H 	 34.4306 	 6.09101 	 67.5239
| 22> H 	 35.842 	 5.03854 	 67.5155
| 23> S 	 32.1635 	 -2.01731 	 67.2284
| 24> C 	 30.5364 	 -2.2525 	 66.5953
| 25> C 	 29.8984 	 -1.09862 	 66.2943
| 26> C 	 30.5842 	 0.0252508 	 66.7474
| 27> C 	 31.9195 	 -0.276189 	 67.0816
| 28> H 	 28.8473 	 -0.986116 	 65.8484
| 29> C 	 30.0899 	 1.4521 	 66.6891
| 30> H 	 29.7083 	 1.56737 	 65.6473
| 31> H 	 30.7886 	 2.19935 	 66.8992
| 32> C 	 28.9539 	 1.62654 	 67.7259
| 33> H 	 29.3566 	 1.27392 	 68.694
| 34> H 	 28.2375 	 0.806354 	 67.4909
| 35> C 	 28.3867 	 3.01494 	 67.7863
| 36> H 	 29.1333 	 3.76191 	 68.0512
| 37> H 	 27.6347 	 2.9496 	 68.6382
| 38> H 	 27.9738 	 3.324 	 66.7638
| 39> H 	 36.3303 	 2.0364 	 67.5802
| 40> H 	 29.9756 	 -3.17807 	 66.335
| 41> *
| 42>
| 43>                          ****END OF INPUT****

CARTESIAN COORDINATES (ANGSTROEM)
---------------------------------
  S     34.726600    0.269637   66.943600
  C     35.341400    1.673220   67.727300
  C     34.375100    2.155790   68.602300
  C     33.085100    1.507350   68.467900
  C     33.056300    0.549057   67.480300
  H     32.058100    1.659720   68.973800
  C     34.644000    3.261550   69.625300
  H     35.697700    3.346860   69.910400
  H     34.118500    3.040550   70.554000
  C     34.332300    4.674240   69.151800
  H     33.325100    4.844350   69.274100
  H     34.790800    5.295200   69.877700
  C     34.718600    5.039410   67.785300
  H     34.027100    4.528470   67.108700
  H     34.430600    6.091010   67.523900
  H     35.842000    5.038540   67.515500
  S     32.163500   -2.017310   67.228400
  C     30.536400   -2.252500   66.595300
  C     29.898400   -1.098620   66.294300
  C     30.584200    0.025251   66.747400
  C     31.919500   -0.276189   67.081600
  H     28.847300   -0.986116   65.848400
  C     30.089900    1.452100   66.689100
  H     29.708300    1.567370   65.647300
  H     30.788600    2.199350   66.899200
  C     28.953900    1.626540   67.725900
  H     29.356600    1.273920   68.694000
  H     28.237500    0.806354   67.490900
  C     28.386700    3.014940   67.786300
  H     29.133300    3.761910   68.051200
  H     27.634700    2.949600   68.638200
  H     27.973800    3.324000   66.763800
  H     36.330300    2.036400   67.580200
  H     29.975600   -3.178070   66.335000

 Total Charge           Charge          ....    0
 Multiplicity           Mult            ....    1
 Number of Electrons    NEL             ....  134
 Basis Dimension        Dim             ....  322

ORBITAL ENERGIES
----------------

  NO   OCC          E(Eh)            E(eV)
   0   2.0000     -88.969389     -2420.9802
   1   2.0000     -88.962043     -2420.7803
   2   2.0000     -10.329734      -281.0864
   3   2.0000     -10.327877      -281.0358
   4   2.0000     -10.318089      -280.7695
   5   2.0000     -10.313477      -280.6440
   6   2.0000     -10.306107      -280.4434
   7   2.0000     -10.302500      -280.3453
   8   2.0000     -10.302041      -280.3328
   9   2.0000     -10.295897      -280.1656
  10   2.0000     -10.291369      -280.0424
  11   2.0000     -10.289361      -279.9877
  12   2.0000     -10.288681      -279.9692
  13   2.0000     -10.287721      -279.9431
  14   2.0000     -10.281115      -279.7634
  15   2.0000     -10.269781      -279.4550
  16   2.0000      -8.083520      -219.9638
  17   2.0000      -8.077073      -219.7883
  18   2.0000      -6.042087      -164.4135
  19   2.0000      -6.038251      -164.3092
  20   2.0000      -6.035627      -164.2378
  21   2.0000      -6.034102      -164.1963
  22   2.0000      -6.031540      -164.1265
  23   2.0000      -6.027761      -164.0237
  24   2.0000      -1.007385       -27.4123
  25   2.0000      -0.986268       -26.8377
  26   2.0000      -0.917585       -24.9688
  27   2.0000      -0.913673       -24.8623
  28   2.0000      -0.873326       -23.7644
  29   2.0000      -0.853780       -23.2325
  30   2.0000      -0.842953       -22.9379
  31   2.0000      -0.816354       -22.2141
  32   2.0000      -0.783354       -21.3161
  33   2.0000      -0.770774       -20.9738
  34   2.0000      -0.703803       -19.1514
  35   2.0000      -0.695872       -18.9356
  36   2.0000      -0.693336       -18.8666
  37   2.0000      -0.656400       -17.8615
  38   2.0000      -0.644113       -17.5272
  39   2.0000      -0.613117       -16.6838
  40   2.0000      -0.597510       -16.2591
  41   2.0000      -0.570442       -15.5225
  42   2.0000      -0.563460       -15.3325
  43   2.0000      -0.556578       -15.1453
  44   2.0000      -0.538793       -14.6613
  45   2.0000      -0.528859       -14.3910
  46   2.0000      -0.518166       -14.1000
  47   2.0000      -0.513021       -13.9600
  48   2.0000      -0.503506       -13.7011
  49   2.0000      -0.499053       -13.5799
  50   2.0000      -0.488773       -13.3002
  51   2.0000      -0.482872       -13.1396
  52   2.0000      -0.472450       -12.8560
  53   2.0000      -0.466726       -12.7003
  54   2.0000      -0.458256       -12.4698
  55   2.0000      -0.454765       -12.3748
  56   2.0000      -0.446634       -12.1535
  57   2.0000      -0.439654       -11.9636
  58   2.0000      -0.428228       -11.6527
  59   2.0000      -0.421211       -11.4617
  60   2.0000      -0.417116       -11.3503
  61   2.0000      -0.406782       -11.0691
  62   2.0000      -0.406016       -11.0483
  63   2.0000      -0.352093        -9.5810
  64   2.0000      -0.334018        -9.0891
  65   2.0000      -0.324399        -8.8274
  66   2.0000      -0.287607        -7.8262
  67   0.0000       0.028924         0.7871
  68   0.0000       0.065359         1.7785
  69   0.0000       0.109940         2.9916
  70   0.0000       0.119633         3.2554
  71   0.0000       0.125712         3.4208

MULLIKEN ATOMIC CHARGES
-----------------------
   0 S :    0.100913
   1 C :   -0.099639
   2 C :   -0.094541
   3 C :    0.008134
   4 C :   -0.162181
   5 H :    0.045699
   6 C :    0.066125
   7 H :    0.017296
   8 H :    0.027769
   9 C :   -0.014712
  10 H :   -0.000850
  11 H :    0.011071
  12 C :   -0.072087
  13 H :    0.039864
  14 H :    0.024464
  15 H :    0.043929
  16 S :    0.115827
  17 C :   -0.080159
  18 C :   -0.061279
  19 C :   -0.051102
  20 C :   -0.164184
  21 H :    0.047063
  22 C :    0.085790
  23 H :    0.033602
  24 H :    0.004448
  25 C :   -0.130423
  26 H :    0.025940
  27 H :    0.023418
  28 C :   -0.027113
  29 H :    0.033303
  30 H :    0.050877
  31 H :    0.044982
  32 H :    0.045234
  33 H :    0.062522
Sum of atomic charges:    0.0000000

LOEWDIN ATOMIC CHARGES
----------------------
   0 S :    0.399516
   1 C :   -0.192704
   2 C :   -0.063666
   3 C :   -0.078300
   4 C :   -0.192103
   5 H :    0.048558
   6 C :   -0.030336
   7 H :    0.028739
   8 H :    0.032816
   9 C :   -0.042987
  10 H :    0.013567
  11 H :    0.019722
  12 C :   -0.077026
  13 H :    0.030649
  14 H :    0.030859
  15 H :    0.033062
  16 S :    0.400583
  17 C :   -0.189804
  18 C :   -0.083540
  19 C :   -0.054082
  20 C :   -0.193399
  21 H :    0.047031
  22 C :   -0.026407
  23 H :    0.034261
  24 H :    0.015779
  25 C :   -0.050997
  26 H :    0.022764
  27 H :    0.023521
  28 C :   -0.072058
  29 H :    0.024299
  30 H :    0.039049
  31 H :    0.035406
  32 H :    0.026207
  33 H :    0.041021

  Mayer bond orders larger than 0.100000
B(  0-S ,  1-C ) :   1.1441 B(  0-S ,  4-C ) :   1.1451 B(  1-C ,  2-C ) :   1.5890
B(  1-C , 32-H ) :   0.9801 B(  2-C ,  3-C ) :   1.2147 B(  2-C ,  6-C ) :   1.0304
B(  3-C ,  4-C ) :   1.5783 B(  3-C ,  5-H ) :   0.9801 B(  4-C , 20-C ) :   1.0501
B(  6-C ,  7-H ) :   0.9461 B(  6-C ,  8-H ) :   0.9431 B(  6-C ,  9-C ) :   1.0701
B(  9-C , 10-H ) :   0.9455 B(  9-C , 11-H ) :   0.9516 B(  9-C , 12-C ) :   1.1061
B( 12-C , 13-H ) :   0.9612 B( 12-C , 14-H ) :   0.9648 B( 12-C , 15-H ) :   0.9715
B( 16-S , 17-C ) :   1.1401 B( 16-S , 20-C ) :   1.1391 B( 17-C , 18-C ) :   1.6317
B( 17-C , 20-C ) :   0.1035 B( 17-C , 33-H ) :   0.9555 B( 18-C , 19-C ) :   1.2577
B( 18-C , 21-H ) :   0.9647 B( 19-C , 20-C ) :   1.5826 B( 19-C , 22-C ) :   1.0508
B( 22-C , 23-H ) :   0.9346 B( 22-C , 24-H ) :   0.9381 B( 22-C , 25-C ) :   1.0424
B( 25-C , 26-H ) :   0.9518 B( 25-C , 27-H ) :   0.9554 B( 25-C , 28-C ) :   1.0800
B( 28-C , 29-H ) :   0.9696 B( 28-C , 30-H ) :   0.9714 B( 28-C , 31-H ) :   0.9697

Dispersion correction           -0.014569357
FINAL SINGLE POINT ENERGY     -1339.856545720225

DIPOLE MOMENT
-------------
                                X             Y             Z
Electronic contribution:     10.68442     -27.42700      -6.06067
Nuclear contribution   :    -11.10348      28.01289       6.27044
                        -----------------------------------------
Total Dipole Moment    :     -0.41906       0.58589       0.20977
                        -----------------------------------------
Magnitude (a.u.)       :      0.75026
Magnitude (Debye)      :      1.90700

Rotational constants in cm-1:     0.017688     0.009651     0.006732
Rotational constants in MHz :   530.258557   289.337495   201.831827

                             ****ORCA TERMINATED NORMALLY****
TOTAL RUN TIME: 0 days 0 hours 0 minutes 30 seconds 848 msec
