                         Program Version 4.2.1 -  RELEASE  -
|  1> ! wB97X-D3 SP def2-SVP
|  2> %pal
|  3> nprocs 16
|  4> end
|  5>
|  6> * xyz 0 1
|  7> S 	 -44.0598 	 64.5943 	 146.737
|  8> C 	 -43.8055 	 64.41 	 144.994
|  9> C 	 -44.3007 	 65.4895 	 144.27
| 10> C 	 -44.9961 	 66.392 	 145.128
| 11> C 	 -44.9229 	 66.1015 	 146.47
| 12> H 	 -45.5253 	 67.2905 	 144.708
| 13> C 	 -44.261 	 65.5242 	 142.757
| 14> H 	 -44.8392 	 66.3716 	 142.371
| 15> H 	 -44.8307 	 64.6242 	 142.389
| 16> C 	 -42.8744 	 65.6732 	 142.041
| 17> H 	 -42.1943 	 64.9102 	 142.383
| 18> H 	 -42.9979 	 65.6766 	 140.87
| 19> C 	 -42.2926 	 67.0086 	 142.438
| 20> H 	 -41.3009 	 67.1604 	 141.994
| 21> H 	 -42.8023 	 67.8338 	 142.039
| 22> H 	 -42.1055 	 67.2828 	 143.459
| 23> S 	 -46.7335 	 65.905 	 148.511
| 24> C 	 -47.1998 	 67.3186 	 149.326
| 25> C 	 -46.6071 	 68.4911 	 148.772
| 26> C 	 -45.6836 	 68.1912 	 147.764
| 27> C 	 -45.5602 	 66.8359 	 147.538
| 28> H 	 -46.882 	 69.3969 	 149.171
| 29> C 	 -44.7138 	 69.2235 	 147.232
| 30> H 	 -45.151 	 70.205 	 147.371
| 31> H 	 -44.4338 	 69.1135 	 146.223
| 32> C 	 -43.4433 	 69.2115 	 148.03
| 33> H 	 -42.8125 	 68.3581 	 147.854
| 34> H 	 -43.7716 	 69.2362 	 149.104
| 35> C 	 -42.6673 	 70.5186 	 147.712
| 36> H 	 -41.6345 	 70.3157 	 148.001
| 37> H 	 -43.0043 	 71.3502 	 148.297
| 38> H 	 -42.695 	 70.8807 	 146.665
| 39> H 	 -43.2223 	 63.7154 	 144.601
| 40> H 	 -47.9856 	 67.3497 	 150.118
| 41> *
| 42>
| 43>                          ****END OF INPUT****

CARTESIAN COORDINATES (ANGSTROEM)
---------------------------------
  S    -44.059800   64.594300  146.737000
  C    -43.805500   64.410000  144.994000
  C    -44.300700   65.489500  144.270000
  C    -44.996100   66.392000  145.128000
  C    -44.922900   66.101500  146.470000
  H    -45.525300   67.290500  144.708000
  C    -44.261000   65.524200  142.757000
  H    -44.839200   66.371600  142.371000
  H    -44.830700   64.624200  142.389000
  C    -42.874400   65.673200  142.041000
  H    -42.194300   64.910200  142.383000
  H    -42.997900   65.676600  140.870000
  C    -42.292600   67.008600  142.438000
  H    -41.300900   67.160400  141.994000
  H    -42.802300   67.833800  142.039000
  H    -42.105500   67.282800  143.459000
  S    -46.733500   65.905000  148.511000
  C    -47.199800   67.318600  149.326000
  C    -46.607100   68.491100  148.772000
  C    -45.683600   68.191200  147.764000
  C    -45.560200   66.835900  147.538000
  H    -46.882000   69.396900  149.171000
  C    -44.713800   69.223500  147.232000
  H    -45.151000   70.205000  147.371000
  H    -44.433800   69.113500  146.223000
  C    -43.443300   69.211500  148.030000
  H    -42.812500   68.358100  147.854000
  H    -43.771600   69.236200  149.104000
  C    -42.667300   70.518600  147.712000
  H    -41.634500   70.315700  148.001000
  H    -43.004300   71.350200  148.297000
  H    -42.695000   70.880700  146.665000
  H    -43.222300   63.715400  144.601000
  H    -47.985600   67.349700  150.118000

 Total Charge           Charge          ....    0
 Multiplicity           Mult            ....    1
 Number of Electrons    NEL             ....  134
 Basis Dimension        Dim             ....  322

ORBITAL ENERGIES
----------------

  NO   OCC          E(Eh)            E(eV)
   0   2.0000     -88.967189     -2420.9203
   1   2.0000     -88.966849     -2420.9110
   2   2.0000     -10.327611      -281.0286
   3   2.0000     -10.321945      -280.8744
   4   2.0000     -10.319866      -280.8178
   5   2.0000     -10.305045      -280.4145
   6   2.0000     -10.301823      -280.3269
   7   2.0000     -10.300236      -280.2837
   8   2.0000     -10.299787      -280.2715
   9   2.0000     -10.297649      -280.2133
  10   2.0000     -10.295959      -280.1673
  11   2.0000     -10.288895      -279.9751
  12   2.0000     -10.282503      -279.8011
  13   2.0000     -10.282335      -279.7966
  14   2.0000     -10.275209      -279.6027
  15   2.0000     -10.267735      -279.3993
  16   2.0000      -8.081914      -219.9201
  17   2.0000      -8.081393      -219.9059
  18   2.0000      -6.040160      -164.3611
  19   2.0000      -6.039842      -164.3525
  20   2.0000      -6.036274      -164.2554
  21   2.0000      -6.036031      -164.2487
  22   2.0000      -6.033035      -164.1672
  23   2.0000      -6.032211      -164.1448
  24   2.0000      -1.006752       -27.3951
  25   2.0000      -0.983179       -26.7537
  26   2.0000      -0.916733       -24.9456
  27   2.0000      -0.910115       -24.7655
  28   2.0000      -0.867794       -23.6139
  29   2.0000      -0.853993       -23.2383
  30   2.0000      -0.845272       -23.0010
  31   2.0000      -0.809764       -22.0348
  32   2.0000      -0.783597       -21.3228
  33   2.0000      -0.771986       -21.0068
  34   2.0000      -0.707160       -19.2428
  35   2.0000      -0.702572       -19.1180
  36   2.0000      -0.691461       -18.8156
  37   2.0000      -0.666846       -18.1458
  38   2.0000      -0.640897       -17.4397
  39   2.0000      -0.616117       -16.7654
  40   2.0000      -0.599018       -16.3001
  41   2.0000      -0.576935       -15.6992
  42   2.0000      -0.571121       -15.5410
  43   2.0000      -0.547698       -14.9036
  44   2.0000      -0.542313       -14.7571
  45   2.0000      -0.523288       -14.2394
  46   2.0000      -0.510848       -13.9009
  47   2.0000      -0.509265       -13.8578
  48   2.0000      -0.500852       -13.6289
  49   2.0000      -0.496252       -13.5037
  50   2.0000      -0.493892       -13.4395
  51   2.0000      -0.478135       -13.0107
  52   2.0000      -0.470290       -12.7972
  53   2.0000      -0.462630       -12.5888
  54   2.0000      -0.457701       -12.4547
  55   2.0000      -0.449785       -12.2393
  56   2.0000      -0.441108       -12.0032
  57   2.0000      -0.436754       -11.8847
  58   2.0000      -0.433137       -11.7862
  59   2.0000      -0.424725       -11.5573
  60   2.0000      -0.422077       -11.4853
  61   2.0000      -0.420760       -11.4495
  62   2.0000      -0.415261       -11.2998
  63   2.0000      -0.343443        -9.3456
  64   2.0000      -0.335511        -9.1297
  65   2.0000      -0.330176        -8.9845
  66   2.0000      -0.286730        -7.8023
  67   0.0000       0.027506         0.7485
  68   0.0000       0.065079         1.7709
  69   0.0000       0.110831         3.0159
  70   0.0000       0.121193         3.2978
  71   0.0000       0.125347         3.4109

MULLIKEN ATOMIC CHARGES
-----------------------
   0 S :    0.106990
   1 C :   -0.064786
   2 C :   -0.088339
   3 C :    0.019986
   4 C :   -0.157896
   5 H :    0.032414
   6 C :    0.026900
   7 H :    0.015837
   8 H :    0.053751
   9 C :   -0.064877
  10 H :    0.033306
  11 H :    0.055533
  12 C :   -0.050086
  13 H :    0.018870
  14 H :    0.006608
  15 H :    0.035444
  16 S :    0.119678
  17 C :   -0.106721
  18 C :   -0.029868
  19 C :    0.001457
  20 C :   -0.156798
  21 H :   -0.017837
  22 C :    0.091679
  23 H :    0.012266
  24 H :    0.009377
  25 C :   -0.077271
  26 H :    0.038387
  27 H :    0.035210
  28 C :   -0.056086
  29 H :    0.032191
  30 H :    0.028247
  31 H :    0.034067
  32 H :   -0.008318
  33 H :    0.070686
Sum of atomic charges:   -0.0000000

LOEWDIN ATOMIC CHARGES
----------------------
   0 S :    0.395963
   1 C :   -0.165962
   2 C :   -0.060676
   3 C :   -0.066392
   4 C :   -0.198242
   5 H :    0.039941
   6 C :   -0.040014
   7 H :    0.027809
   8 H :    0.039348
   9 C :   -0.038074
  10 H :    0.019827
  11 H :    0.042892
  12 C :   -0.074891
  13 H :    0.027919
  14 H :    0.016149
  15 H :    0.025770
  16 S :    0.424489
  17 C :   -0.202606
  18 C :   -0.065804
  19 C :   -0.049447
  20 C :   -0.196047
  21 H :    0.016003
  22 C :   -0.025717
  23 H :    0.028652
  24 H :    0.020619
  25 C :   -0.031898
  26 H :    0.022898
  27 H :    0.031236
  28 C :   -0.069040
  29 H :    0.027080
  30 H :    0.021262
  31 H :    0.026412
  32 H :   -0.005283
  33 H :    0.035822

  Mayer bond orders larger than 0.100000
B(  0-S ,  1-C ) :   1.1358 B(  0-S ,  4-C ) :   1.1476 B(  1-C ,  2-C ) :   1.5975
B(  1-C , 32-H ) :   0.9851 B(  2-C ,  3-C ) :   1.2580 B(  2-C ,  6-C ) :   1.0126
B(  3-C ,  4-C ) :   1.5729 B(  3-C ,  5-H ) :   0.9800 B(  4-C , 20-C ) :   1.0393
B(  6-C ,  7-H ) :   0.9460 B(  6-C ,  8-H ) :   0.9454 B(  6-C ,  9-C ) :   1.0609
B(  9-C , 10-H ) :   0.9597 B(  9-C , 11-H ) :   0.9543 B(  9-C , 12-C ) :   1.0728
B( 12-C , 13-H ) :   0.9684 B( 12-C , 14-H ) :   0.9728 B( 12-C , 15-H ) :   0.9750
B( 16-S , 17-C ) :   1.1956 B( 16-S , 20-C ) :   1.1449 B( 17-C , 18-C ) :   1.5534
B( 17-C , 20-C ) :   0.1097 B( 17-C , 33-H ) :   0.9624 B( 18-C , 19-C ) :   1.2596
B( 18-C , 21-H ) :   1.0114 B( 19-C , 20-C ) :   1.5604 B( 19-C , 22-C ) :   1.0584
B( 22-C , 23-H ) :   0.9358 B( 22-C , 24-H ) :   0.9251 B( 22-C , 25-C ) :   1.0716
B( 25-C , 26-H ) :   0.9598 B( 25-C , 27-H ) :   0.9538 B( 25-C , 28-C ) :   1.0720
B( 28-C , 29-H ) :   0.9749 B( 28-C , 30-H ) :   0.9763 B( 28-C , 31-H ) :   0.9747

Dispersion correction           -0.014409262
FINAL SINGLE POINT ENERGY     -1339.868660738451

DIPOLE MOMENT
-------------
                                X             Y             Z
Electronic contribution:    -15.23862     -18.31269      16.14650
Nuclear contribution   :     15.33212      18.83393     -16.50996
                        -----------------------------------------
Total Dipole Moment    :      0.09351       0.52124      -0.36346
                        -----------------------------------------
Magnitude (a.u.)       :      0.64229
Magnitude (Debye)      :      1.63257

Rotational constants in cm-1:     0.018369     0.009126     0.006951
Rotational constants in MHz :   550.690861   273.590194   208.400559

                             ****ORCA TERMINATED NORMALLY****
TOTAL RUN TIME: 0 days 0 hours 0 minutes 33 seconds 280 msec
