                         Program Version 4.2.1 -  RELEASE  -
|  1> ! wB97X-D3 SP def2-SVP
|  2> %pal
|  3> nprocs 16
|  4> end
|  5>
|  6> * xyz 0 1
|  7> S 	 -48.0623 	 53.8089 	 99.5967
|  8> C 	 -47.3865 	 52.3151 	 99.1163
|  9> C 	 -47.1417 	 52.2114 	 97.7116
| 10> C 	 -47.3187 	 53.5063 	 97.1068
| 11> C 	 -47.6286 	 54.4784 	 98.021
| 12> H 	 -47.2805 	 53.7638 	 96.0636
| 13> C 	 -46.5165 	 51.0912 	 96.9525
| 14> H 	 -47.1332 	 50.8273 	 96.1441
| 15> H 	 -46.5348 	 50.282 	 97.6801
| 16> C 	 -45.1252 	 51.2527 	 96.5373
| 17> H 	 -44.8243 	 50.5315 	 95.7885
| 18> H 	 -45.0743 	 52.2049 	 96.0295
| 19> C 	 -44.154 	 51.4401 	 97.7151
| 20> H 	 -43.2622 	 51.7824 	 97.272
| 21> H 	 -44.3544 	 52.2011 	 98.4789
| 22> H 	 -43.8693 	 50.4214 	 98.1327
| 23> S 	 -49.2217 	 56.7019 	 98.1346
| 24> C 	 -48.8274 	 58.1082 	 97.2751
| 25> C 	 -47.568 	 57.9925 	 96.7177
| 26> C 	 -46.9292 	 56.7721 	 97.0425
| 27> C 	 -47.7081 	 55.9238 	 97.7858
| 28> H 	 -47.1789 	 58.8158 	 96.1608
| 29> C 	 -45.4423 	 56.7068 	 96.7521
| 30> H 	 -45.2596 	 57.0513 	 95.7598
| 31> H 	 -45.0358 	 55.6677 	 96.7425
| 32> C 	 -44.6691 	 57.4908 	 97.8376
| 33> H 	 -45.0072 	 58.4738 	 97.9952
| 34> H 	 -43.6277 	 57.544 	 97.4645
| 35> C 	 -44.4361 	 56.7402 	 99.1324
| 36> H 	 -45.3207 	 56.919 	 99.8078
| 37> H 	 -43.4562 	 57.1441 	 99.5725
| 38> H 	 -44.3718 	 55.655 	 99.0262
| 39> H 	 -47.1554 	 51.4993 	 99.8087
| 40> H 	 -49.4907 	 58.8994 	 96.9893
| 41> *
| 42>
| 43>                          ****END OF INPUT****

CARTESIAN COORDINATES (ANGSTROEM)
---------------------------------
  S    -48.062300   53.808900   99.596700
  C    -47.386500   52.315100   99.116300
  C    -47.141700   52.211400   97.711600
  C    -47.318700   53.506300   97.106800
  C    -47.628600   54.478400   98.021000
  H    -47.280500   53.763800   96.063600
  C    -46.516500   51.091200   96.952500
  H    -47.133200   50.827300   96.144100
  H    -46.534800   50.282000   97.680100
  C    -45.125200   51.252700   96.537300
  H    -44.824300   50.531500   95.788500
  H    -45.074300   52.204900   96.029500
  C    -44.154000   51.440100   97.715100
  H    -43.262200   51.782400   97.272000
  H    -44.354400   52.201100   98.478900
  H    -43.869300   50.421400   98.132700
  S    -49.221700   56.701900   98.134600
  C    -48.827400   58.108200   97.275100
  C    -47.568000   57.992500   96.717700
  C    -46.929200   56.772100   97.042500
  C    -47.708100   55.923800   97.785800
  H    -47.178900   58.815800   96.160800
  C    -45.442300   56.706800   96.752100
  H    -45.259600   57.051300   95.759800
  H    -45.035800   55.667700   96.742500
  C    -44.669100   57.490800   97.837600
  H    -45.007200   58.473800   97.995200
  H    -43.627700   57.544000   97.464500
  C    -44.436100   56.740200   99.132400
  H    -45.320700   56.919000   99.807800
  H    -43.456200   57.144100   99.572500
  H    -44.371800   55.655000   99.026200
  H    -47.155400   51.499300   99.808700
  H    -49.490700   58.899400   96.989300

 Total Charge           Charge          ....    0
 Multiplicity           Mult            ....    1
 Number of Electrons    NEL             ....  134
 Basis Dimension        Dim             ....  322

ORBITAL ENERGIES
----------------

  NO   OCC          E(Eh)            E(eV)
   0   2.0000     -88.967105     -2420.9180
   1   2.0000     -88.962274     -2420.7866
   2   2.0000     -10.328300      -281.0473
   3   2.0000     -10.322065      -280.8777
   4   2.0000     -10.316217      -280.7185
   5   2.0000     -10.311481      -280.5897
   6   2.0000     -10.302836      -280.3544
   7   2.0000     -10.298661      -280.2408
   8   2.0000     -10.292206      -280.0652
   9   2.0000     -10.290413      -280.0164
  10   2.0000     -10.287135      -279.9272
  11   2.0000     -10.280688      -279.7517
  12   2.0000     -10.279920      -279.7309
  13   2.0000     -10.279787      -279.7272
  14   2.0000     -10.279627      -279.7229
  15   2.0000     -10.276631      -279.6413
  16   2.0000      -8.082455      -219.9348
  17   2.0000      -8.078533      -219.8281
  18   2.0000      -6.040855      -164.3800
  19   2.0000      -6.037051      -164.2765
  20   2.0000      -6.036922      -164.2730
  21   2.0000      -6.033147      -164.1703
  22   2.0000      -6.032664      -164.1571
  23   2.0000      -6.029494      -164.0709
  24   2.0000      -1.012564       -27.5533
  25   2.0000      -0.989094       -26.9146
  26   2.0000      -0.924360       -25.1531
  27   2.0000      -0.910247       -24.7691
  28   2.0000      -0.868380       -23.6298
  29   2.0000      -0.852723       -23.2038
  30   2.0000      -0.846726       -23.0406
  31   2.0000      -0.813962       -22.1490
  32   2.0000      -0.783607       -21.3230
  33   2.0000      -0.773199       -21.0398
  34   2.0000      -0.707806       -19.2604
  35   2.0000      -0.692431       -18.8420
  36   2.0000      -0.690066       -18.7777
  37   2.0000      -0.661594       -18.0029
  38   2.0000      -0.641597       -17.4588
  39   2.0000      -0.624296       -16.9880
  40   2.0000      -0.601051       -16.3554
  41   2.0000      -0.573280       -15.5998
  42   2.0000      -0.558799       -15.2057
  43   2.0000      -0.552378       -15.0310
  44   2.0000      -0.548430       -14.9235
  45   2.0000      -0.537170       -14.6171
  46   2.0000      -0.517348       -14.0778
  47   2.0000      -0.513304       -13.9677
  48   2.0000      -0.498911       -13.5761
  49   2.0000      -0.496599       -13.5131
  50   2.0000      -0.491592       -13.3769
  51   2.0000      -0.481846       -13.1117
  52   2.0000      -0.469830       -12.7847
  53   2.0000      -0.461881       -12.5684
  54   2.0000      -0.454763       -12.3747
  55   2.0000      -0.453058       -12.3283
  56   2.0000      -0.439198       -11.9512
  57   2.0000      -0.438348       -11.9281
  58   2.0000      -0.432281       -11.7630
  59   2.0000      -0.428638       -11.6638
  60   2.0000      -0.426335       -11.6012
  61   2.0000      -0.405660       -11.0386
  62   2.0000      -0.400868       -10.9082
  63   2.0000      -0.349310        -9.5052
  64   2.0000      -0.330637        -8.9971
  65   2.0000      -0.328966        -8.9516
  66   2.0000      -0.285568        -7.7707
  67   0.0000       0.032359         0.8805
  68   0.0000       0.063774         1.7354
  69   0.0000       0.106611         2.9010
  70   0.0000       0.118269         3.2183
  71   0.0000       0.130015         3.5379

MULLIKEN ATOMIC CHARGES
-----------------------
   0 S :    0.120140
   1 C :   -0.115430
   2 C :   -0.128753
   3 C :    0.022020
   4 C :   -0.153460
   5 H :    0.018449
   6 C :    0.132955
   7 H :    0.019680
   8 H :   -0.000121
   9 C :   -0.056379
  10 H :    0.030475
  11 H :    0.009320
  12 C :   -0.060505
  13 H :    0.011062
  14 H :    0.055175
  15 H :    0.034617
  16 S :    0.104529
  17 C :   -0.078031
  18 C :   -0.056512
  19 C :   -0.048997
  20 C :   -0.127556
  21 H :    0.011838
  22 C :    0.078263
  23 H :    0.014867
  24 H :    0.018300
  25 C :   -0.055728
  26 H :    0.023765
  27 H :    0.024092
  28 C :   -0.084817
  29 H :    0.047807
  30 H :    0.046278
  31 H :    0.034805
  32 H :    0.053017
  33 H :    0.054834
Sum of atomic charges:   -0.0000000

LOEWDIN ATOMIC CHARGES
----------------------
   0 S :    0.410329
   1 C :   -0.211395
   2 C :   -0.056351
   3 C :   -0.057969
   4 C :   -0.184359
   5 H :    0.033317
   6 C :   -0.034817
   7 H :    0.028253
   8 H :    0.027479
   9 C :   -0.040754
  10 H :    0.028472
  11 H :    0.019858
  12 C :   -0.067421
  13 H :    0.019507
  14 H :    0.032628
  15 H :    0.029879
  16 S :    0.430883
  17 C :   -0.199328
  18 C :   -0.072336
  19 C :   -0.062054
  20 C :   -0.210852
  21 H :    0.027605
  22 C :   -0.027111
  23 H :    0.024020
  24 H :    0.029844
  25 C :   -0.038490
  26 H :    0.017146
  27 H :    0.027043
  28 C :   -0.071454
  29 H :    0.030286
  30 H :    0.035413
  31 H :    0.023999
  32 H :    0.028559
  33 H :    0.030173

  Mayer bond orders larger than 0.100000
B(  0-S ,  1-C ) :   1.1512 B(  0-S ,  4-C ) :   1.1435 B(  1-C ,  2-C ) :   1.6010
B(  1-C , 32-H ) :   0.9631 B(  2-C ,  3-C ) :   1.2036 B(  2-C ,  6-C ) :   1.0416
B(  3-C ,  4-C ) :   1.6060 B(  3-C ,  5-H ) :   0.9994 B(  4-C , 20-C ) :   1.0048
B(  6-C ,  7-H ) :   0.9239 B(  6-C ,  8-H ) :   0.9293 B(  6-C ,  9-C ) :   1.0869
B(  9-C , 10-H ) :   0.9499 B(  9-C , 11-H ) :   0.9509 B(  9-C , 12-C ) :   1.0759
B( 12-C , 13-H ) :   0.9708 B( 12-C , 14-H ) :   0.9727 B( 12-C , 15-H ) :   0.9733
B( 16-S , 17-C ) :   1.1801 B( 16-S , 20-C ) :   1.1431 B( 17-C , 18-C ) :   1.5842
B( 17-C , 33-H ) :   0.9684 B( 18-C , 19-C ) :   1.2529 B( 18-C , 21-H ) :   0.9977
B( 19-C , 20-C ) :   1.6043 B( 19-C , 22-C ) :   1.0510 B( 22-C , 23-H ) :   0.9315
B( 22-C , 24-H ) :   0.9373 B( 22-C , 25-C ) :   1.0737 B( 25-C , 26-H ) :   0.9574
B( 25-C , 27-H ) :   0.9578 B( 25-C , 28-C ) :   1.0689 B( 28-C , 29-H ) :   0.9741
B( 28-C , 30-H ) :   0.9778 B( 28-C , 31-H ) :   0.9739

Dispersion correction           -0.015681191
FINAL SINGLE POINT ENERGY     -1339.863714413409

DIPOLE MOMENT
-------------
                                X             Y             Z
Electronic contribution:    -25.04963       6.88520       6.05952
Nuclear contribution   :     25.56626      -6.89003      -6.60450
                        -----------------------------------------
Total Dipole Moment    :      0.51664      -0.00483      -0.54497
                        -----------------------------------------
Magnitude (a.u.)       :      0.75095
Magnitude (Debye)      :      1.90877

Rotational constants in cm-1:     0.020020     0.009630     0.007920
Rotational constants in MHz :   600.190114   288.695076   237.436897

                             ****ORCA TERMINATED NORMALLY****
TOTAL RUN TIME: 0 days 0 hours 0 minutes 32 seconds 538 msec
