                         Program Version 4.2.1 -  RELEASE  -
|  1> ! wB97X-D3 SP def2-SVP
|  2> %pal
|  3> nprocs 16
|  4> end
|  5>
|  6> * xyz 0 1
|  7> S 	 -32.5073 	 32.9545 	 41.2615
|  8> C 	 -31.8645 	 31.3634 	 41.1432
|  9> C 	 -32.1382 	 30.5712 	 42.2322
| 10> C 	 -33.0354 	 31.2054 	 43.0822
| 11> C 	 -33.4049 	 32.4839 	 42.668
| 12> H 	 -33.3667 	 30.6637 	 43.9456
| 13> C 	 -31.7366 	 29.1131 	 42.3931
| 14> H 	 -31.804 	 28.5123 	 41.4662
| 15> H 	 -32.497 	 28.6129 	 43.0093
| 16> C 	 -30.3656 	 28.93 	 43.128
| 17> H 	 -30.265 	 29.5086 	 44.0357
| 18> H 	 -30.1428 	 27.9133 	 43.3396
| 19> C 	 -29.1417 	 29.3925 	 42.2902
| 20> H 	 -29.3234 	 29.3084 	 41.2179
| 21> H 	 -28.9362 	 30.4705 	 42.3965
| 22> H 	 -28.2091 	 28.936 	 42.5609
| 23> S 	 -35.9317 	 32.8162 	 43.531
| 24> C 	 -36.3245 	 34.1187 	 44.6147
| 25> C 	 -35.21 	 34.7326 	 45.0336
| 26> C 	 -34.0195 	 34.2958 	 44.3408
| 27> C 	 -34.3072 	 33.333 	 43.395
| 28> H 	 -35.2842 	 35.4521 	 45.8123
| 29> C 	 -32.6065 	 34.8222 	 44.7313
| 30> H 	 -32.5159 	 35.8316 	 44.2846
| 31> H 	 -31.7758 	 34.1599 	 44.417
| 32> C 	 -32.4253 	 34.8675 	 46.2337
| 33> H 	 -33.184 	 35.4906 	 46.7399
| 34> H 	 -31.5066 	 35.3637 	 46.6007
| 35> C 	 -32.4776 	 33.461 	 46.9129
| 36> H 	 -31.9028 	 32.6452 	 46.3789
| 37> H 	 -33.4823 	 33.0142 	 46.8735
| 38> H 	 -32.144 	 33.6103 	 47.9651
| 39> H 	 -31.1619 	 31.1278 	 40.3954
| 40> H 	 -37.2934 	 34.372 	 44.9996
| 41> *
| 42>
| 43>                          ****END OF INPUT****

CARTESIAN COORDINATES (ANGSTROEM)
---------------------------------
  S    -32.507300   32.954500   41.261500
  C    -31.864500   31.363400   41.143200
  C    -32.138200   30.571200   42.232200
  C    -33.035400   31.205400   43.082200
  C    -33.404900   32.483900   42.668000
  H    -33.366700   30.663700   43.945600
  C    -31.736600   29.113100   42.393100
  H    -31.804000   28.512300   41.466200
  H    -32.497000   28.612900   43.009300
  C    -30.365600   28.930000   43.128000
  H    -30.265000   29.508600   44.035700
  H    -30.142800   27.913300   43.339600
  C    -29.141700   29.392500   42.290200
  H    -29.323400   29.308400   41.217900
  H    -28.936200   30.470500   42.396500
  H    -28.209100   28.936000   42.560900
  S    -35.931700   32.816200   43.531000
  C    -36.324500   34.118700   44.614700
  C    -35.210000   34.732600   45.033600
  C    -34.019500   34.295800   44.340800
  C    -34.307200   33.333000   43.395000
  H    -35.284200   35.452100   45.812300
  C    -32.606500   34.822200   44.731300
  H    -32.515900   35.831600   44.284600
  H    -31.775800   34.159900   44.417000
  C    -32.425300   34.867500   46.233700
  H    -33.184000   35.490600   46.739900
  H    -31.506600   35.363700   46.600700
  C    -32.477600   33.461000   46.912900
  H    -31.902800   32.645200   46.378900
  H    -33.482300   33.014200   46.873500
  H    -32.144000   33.610300   47.965100
  H    -31.161900   31.127800   40.395400
  H    -37.293400   34.372000   44.999600

 Total Charge           Charge          ....    0
 Multiplicity           Mult            ....    1
 Number of Electrons    NEL             ....  134
 Basis Dimension        Dim             ....  322

ORBITAL ENERGIES
----------------

  NO   OCC          E(Eh)            E(eV)
   0   2.0000     -88.969606     -2420.9861
   1   2.0000     -88.960851     -2420.7478
   2   2.0000     -10.324545      -280.9451
   3   2.0000     -10.317620      -280.7567
   4   2.0000     -10.309970      -280.5485
   5   2.0000     -10.306074      -280.4425
   6   2.0000     -10.303509      -280.3727
   7   2.0000     -10.299351      -280.2596
   8   2.0000     -10.295900      -280.1657
   9   2.0000     -10.294212      -280.1197
  10   2.0000     -10.288752      -279.9712
  11   2.0000     -10.288622      -279.9676
  12   2.0000     -10.287414      -279.9348
  13   2.0000     -10.286350      -279.9058
  14   2.0000     -10.282054      -279.7889
  15   2.0000     -10.273523      -279.5568
  16   2.0000      -8.084895      -220.0012
  17   2.0000      -8.076752      -219.7796
  18   2.0000      -6.043112      -164.4414
  19   2.0000      -6.039352      -164.3391
  20   2.0000      -6.035920      -164.2457
  21   2.0000      -6.035249      -164.2275
  22   2.0000      -6.031189      -164.1170
  23   2.0000      -6.027343      -164.0123
  24   2.0000      -1.014902       -27.6169
  25   2.0000      -0.992723       -27.0134
  26   2.0000      -0.908143       -24.7118
  27   2.0000      -0.905250       -24.6331
  28   2.0000      -0.874466       -23.7954
  29   2.0000      -0.854458       -23.2510
  30   2.0000      -0.837924       -22.8011
  31   2.0000      -0.812783       -22.1170
  32   2.0000      -0.783608       -21.3230
  33   2.0000      -0.771880       -21.0039
  34   2.0000      -0.709096       -19.2955
  35   2.0000      -0.699452       -19.0331
  36   2.0000      -0.691576       -18.8187
  37   2.0000      -0.657255       -17.8848
  38   2.0000      -0.644492       -17.5375
  39   2.0000      -0.623871       -16.9764
  40   2.0000      -0.599267       -16.3069
  41   2.0000      -0.574309       -15.6278
  42   2.0000      -0.555194       -15.1076
  43   2.0000      -0.546692       -14.8762
  44   2.0000      -0.541376       -14.7316
  45   2.0000      -0.534448       -14.5431
  46   2.0000      -0.515015       -14.0143
  47   2.0000      -0.511945       -13.9307
  48   2.0000      -0.498295       -13.5593
  49   2.0000      -0.493932       -13.4406
  50   2.0000      -0.488241       -13.2857
  51   2.0000      -0.477222       -12.9859
  52   2.0000      -0.472451       -12.8560
  53   2.0000      -0.463248       -12.6056
  54   2.0000      -0.460107       -12.5201
  55   2.0000      -0.449500       -12.2315
  56   2.0000      -0.444729       -12.1017
  57   2.0000      -0.437862       -11.9148
  58   2.0000      -0.429412       -11.6849
  59   2.0000      -0.424434       -11.5494
  60   2.0000      -0.422004       -11.4833
  61   2.0000      -0.418479       -11.3874
  62   2.0000      -0.405768       -11.0415
  63   2.0000      -0.340127        -9.2553
  64   2.0000      -0.336259        -9.1501
  65   2.0000      -0.325251        -8.8505
  66   2.0000      -0.300369        -8.1735
  67   0.0000       0.044311         1.2058
  68   0.0000       0.060580         1.6485
  69   0.0000       0.109314         2.9746
  70   0.0000       0.122859         3.3432
  71   0.0000       0.137293         3.7359

MULLIKEN ATOMIC CHARGES
-----------------------
   0 S :    0.134219
   1 C :   -0.117269
   2 C :   -0.057109
   3 C :    0.040077
   4 C :   -0.176233
   5 H :    0.000616
   6 C :    0.035641
   7 H :    0.041818
   8 H :    0.022707
   9 C :   -0.039225
  10 H :    0.030857
  11 H :    0.026512
  12 C :   -0.078860
  13 H :    0.021568
  14 H :    0.028860
  15 H :    0.030884
  16 S :    0.108544
  17 C :   -0.074823
  18 C :   -0.025147
  19 C :   -0.043612
  20 C :   -0.162877
  21 H :    0.005573
  22 C :    0.111424
  23 H :    0.046392
  24 H :    0.039499
  25 C :   -0.113453
  26 H :    0.022851
  27 H :    0.031977
  28 C :   -0.086166
  29 H :    0.034753
  30 H :    0.040066
  31 H :    0.045961
  32 H :    0.029256
  33 H :    0.044718
Sum of atomic charges:    0.0000000

LOEWDIN ATOMIC CHARGES
----------------------
   0 S :    0.438138
   1 C :   -0.194293
   2 C :   -0.068420
   3 C :   -0.055985
   4 C :   -0.208173
   5 H :    0.028611
   6 C :   -0.029222
   7 H :    0.036393
   8 H :    0.031679
   9 C :   -0.034412
  10 H :    0.026312
  11 H :    0.019753
  12 C :   -0.072703
  13 H :    0.019208
  14 H :    0.025055
  15 H :    0.022506
  16 S :    0.424709
  17 C :   -0.182004
  18 C :   -0.069731
  19 C :   -0.052897
  20 C :   -0.218538
  21 H :    0.025850
  22 C :   -0.030932
  23 H :    0.037353
  24 H :    0.034796
  25 C :   -0.051471
  26 H :    0.020082
  27 H :    0.026501
  28 C :   -0.075880
  29 H :    0.028301
  30 H :    0.025656
  31 H :    0.030700
  32 H :    0.014473
  33 H :    0.028585

  Mayer bond orders larger than 0.100000
B(  0-S ,  1-C ) :   1.1682 B(  0-S ,  4-C ) :   1.1666 B(  1-C ,  2-C ) :   1.5753
B(  1-C ,  4-C ) :   0.1022 B(  1-C , 32-H ) :   0.9715 B(  2-C ,  3-C ) :   1.3071
B(  2-C ,  6-C ) :   1.0068 B(  3-C ,  4-C ) :   1.5321 B(  3-C ,  5-H ) :   0.9963
B(  4-C , 20-C ) :   1.0174 B(  6-C ,  7-H ) :   0.9515 B(  6-C ,  8-H ) :   0.9441
B(  6-C ,  9-C ) :   1.0705 B(  9-C , 10-H ) :   0.9593 B(  9-C , 11-H ) :   0.9622
B(  9-C , 12-C ) :   1.0653 B( 12-C , 13-H ) :   0.9773 B( 12-C , 14-H ) :   0.9763
B( 12-C , 15-H ) :   0.9771 B( 16-S , 17-C ) :   1.1478 B( 16-S , 20-C ) :   1.1499
B( 17-C , 18-C ) :   1.6350 B( 17-C , 33-H ) :   0.9683 B( 18-C , 19-C ) :   1.2232
B( 18-C , 21-H ) :   0.9967 B( 19-C , 20-C ) :   1.6109 B( 19-C , 22-C ) :   1.0198
B( 22-C , 23-H ) :   0.9353 B( 22-C , 24-H ) :   0.9409 B( 22-C , 25-C ) :   1.0727
B( 25-C , 26-H ) :   0.9496 B( 25-C , 27-H ) :   0.9596 B( 25-C , 28-C ) :   1.0635
B( 28-C , 29-H ) :   0.9746 B( 28-C , 30-H ) :   0.9730 B( 28-C , 31-H ) :   0.9753

Dispersion correction           -0.015437293
FINAL SINGLE POINT ENERGY     -1339.881239818672

DIPOLE MOMENT
-------------
                                X             Y             Z
Electronic contribution:    -19.34920       8.39246     -13.47192
Nuclear contribution   :     19.66706      -8.52881      13.93551
                        -----------------------------------------
Total Dipole Moment    :      0.31786      -0.13636       0.46359
                        -----------------------------------------
Magnitude (a.u.)       :      0.57840
Magnitude (Debye)      :      1.47018

Rotational constants in cm-1:     0.020782     0.008516     0.007464
Rotational constants in MHz :   623.032782   255.308966   223.778977

                             ****ORCA TERMINATED NORMALLY****
TOTAL RUN TIME: 0 days 0 hours 0 minutes 35 seconds 185 msec
