                         Program Version 4.2.1 -  RELEASE  -
|  1> ! wB97X-D3 SP def2-SVP
|  2> %pal
|  3> nprocs 16
|  4> end
|  5>
|  6> * xyz 0 1
|  7> S 	 47.2228 	 1.53303 	 85.6886
|  8> C 	 48.8166 	 1.60655 	 85.0157
|  9> C 	 49.7985 	 1.4493 	 86.0246
| 10> C 	 49.1705 	 1.43114 	 87.3001
| 11> C 	 47.7888 	 1.35024 	 87.2698
| 12> H 	 49.6592 	 1.48066 	 88.2909
| 13> C 	 51.2942 	 1.25767 	 85.8591
| 14> H 	 51.7011 	 1.91284 	 86.6762
| 15> H 	 51.5504 	 1.51183 	 84.8244
| 16> C 	 51.9233 	 -0.147058 	 86.2189
| 17> H 	 51.9184 	 -0.200979 	 87.3444
| 18> H 	 51.206 	 -1.03179 	 86.0061
| 19> C 	 53.3328 	 -0.295285 	 85.6319
| 20> H 	 53.8142 	 0.570909 	 85.9935
| 21> H 	 53.7573 	 -1.26057 	 85.939
| 22> H 	 53.2996 	 -0.382455 	 84.5713
| 23> S 	 46.083 	 3.04417 	 88.6511
| 24> C 	 45.6165 	 2.69338 	 90.3296
| 25> C 	 46.127 	 1.46352 	 90.6898
| 26> C 	 46.8815 	 0.855477 	 89.6794
| 27> C 	 46.961 	 1.53525 	 88.4485
| 28> H 	 46.1033 	 1.17487 	 91.781
| 29> C 	 47.727 	 -0.352719 	 90.1175
| 30> H 	 48.0845 	 -0.933297 	 89.3046
| 31> H 	 47.1469 	 -1.17869 	 90.5664
| 32> C 	 48.9444 	 -0.0959279 	 91.0699
| 33> H 	 48.6546 	 0.410524 	 91.9645
| 34> H 	 49.6616 	 0.542551 	 90.5558
| 35> C 	 49.6984 	 -1.35742 	 91.4394
| 36> H 	 49.0213 	 -1.9695 	 91.9978
| 37> H 	 50.4735 	 -1.1706 	 92.2482
| 38> H 	 50.2405 	 -1.75377 	 90.6083
| 39> H 	 49.1643 	 1.77345 	 83.9948
| 40> H 	 45.3293 	 3.50926 	 91.0401
| 41> *
| 42>
| 43>                          ****END OF INPUT****

CARTESIAN COORDINATES (ANGSTROEM)
---------------------------------
  S     47.222800    1.533030   85.688600
  C     48.816600    1.606550   85.015700
  C     49.798500    1.449300   86.024600
  C     49.170500    1.431140   87.300100
  C     47.788800    1.350240   87.269800
  H     49.659200    1.480660   88.290900
  C     51.294200    1.257670   85.859100
  H     51.701100    1.912840   86.676200
  H     51.550400    1.511830   84.824400
  C     51.923300   -0.147058   86.218900
  H     51.918400   -0.200979   87.344400
  H     51.206000   -1.031790   86.006100
  C     53.332800   -0.295285   85.631900
  H     53.814200    0.570909   85.993500
  H     53.757300   -1.260570   85.939000
  H     53.299600   -0.382455   84.571300
  S     46.083000    3.044170   88.651100
  C     45.616500    2.693380   90.329600
  C     46.127000    1.463520   90.689800
  C     46.881500    0.855477   89.679400
  C     46.961000    1.535250   88.448500
  H     46.103300    1.174870   91.781000
  C     47.727000   -0.352719   90.117500
  H     48.084500   -0.933297   89.304600
  H     47.146900   -1.178690   90.566400
  C     48.944400   -0.095928   91.069900
  H     48.654600    0.410524   91.964500
  H     49.661600    0.542551   90.555800
  C     49.698400   -1.357420   91.439400
  H     49.021300   -1.969500   91.997800
  H     50.473500   -1.170600   92.248200
  H     50.240500   -1.753770   90.608300
  H     49.164300    1.773450   83.994800
  H     45.329300    3.509260   91.040100

 Total Charge           Charge          ....    0
 Multiplicity           Mult            ....    1
 Number of Electrons    NEL             ....  134
 Basis Dimension        Dim             ....  322

ORBITAL ENERGIES
----------------

  NO   OCC          E(Eh)            E(eV)
   0   2.0000     -88.971828     -2421.0465
   1   2.0000     -88.963793     -2420.8279
   2   2.0000     -10.331913      -281.1456
   3   2.0000     -10.324895      -280.9547
   4   2.0000     -10.322920      -280.9009
   5   2.0000     -10.317678      -280.7583
   6   2.0000     -10.305897      -280.4377
   7   2.0000     -10.304370      -280.3962
   8   2.0000     -10.302325      -280.3405
   9   2.0000     -10.299915      -280.2749
  10   2.0000     -10.297131      -280.1992
  11   2.0000     -10.294143      -280.1179
  12   2.0000     -10.288729      -279.9705
  13   2.0000     -10.284887      -279.8660
  14   2.0000     -10.279447      -279.7180
  15   2.0000     -10.279004      -279.7059
  16   2.0000      -8.087362      -220.0683
  17   2.0000      -8.078145      -219.8175
  18   2.0000      -6.045779      -164.5140
  19   2.0000      -6.041623      -164.4009
  20   2.0000      -6.038287      -164.3102
  21   2.0000      -6.036660      -164.2659
  22   2.0000      -6.032559      -164.1543
  23   2.0000      -6.029023      -164.0580
  24   2.0000      -1.012477       -27.5509
  25   2.0000      -0.986128       -26.8339
  26   2.0000      -0.910152       -24.7665
  27   2.0000      -0.905163       -24.6308
  28   2.0000      -0.872071       -23.7303
  29   2.0000      -0.854072       -23.2405
  30   2.0000      -0.849082       -23.1047
  31   2.0000      -0.812811       -22.1177
  32   2.0000      -0.782119       -21.2825
  33   2.0000      -0.770612       -20.9694
  34   2.0000      -0.705961       -19.2102
  35   2.0000      -0.697312       -18.9748
  36   2.0000      -0.693570       -18.8730
  37   2.0000      -0.656440       -17.8626
  38   2.0000      -0.639671       -17.4063
  39   2.0000      -0.619205       -16.8494
  40   2.0000      -0.598582       -16.2882
  41   2.0000      -0.574828       -15.6419
  42   2.0000      -0.571181       -15.5426
  43   2.0000      -0.561381       -15.2759
  44   2.0000      -0.530491       -14.4354
  45   2.0000      -0.521636       -14.1944
  46   2.0000      -0.514501       -14.0003
  47   2.0000      -0.510975       -13.9043
  48   2.0000      -0.508697       -13.8424
  49   2.0000      -0.501230       -13.6392
  50   2.0000      -0.491420       -13.3722
  51   2.0000      -0.478755       -13.0276
  52   2.0000      -0.471556       -12.8317
  53   2.0000      -0.468146       -12.7389
  54   2.0000      -0.463080       -12.6010
  55   2.0000      -0.445344       -12.1184
  56   2.0000      -0.443220       -12.0606
  57   2.0000      -0.434790       -11.8312
  58   2.0000      -0.432974       -11.7818
  59   2.0000      -0.425054       -11.5663
  60   2.0000      -0.418425       -11.3859
  61   2.0000      -0.414618       -11.2823
  62   2.0000      -0.410249       -11.1634
  63   2.0000      -0.347141        -9.4462
  64   2.0000      -0.328252        -8.9322
  65   2.0000      -0.326542        -8.8857
  66   2.0000      -0.295938        -8.0529
  67   0.0000       0.031575         0.8592
  68   0.0000       0.059681         1.6240
  69   0.0000       0.114683         3.1207
  70   0.0000       0.120341         3.2747
  71   0.0000       0.124245         3.3809

MULLIKEN ATOMIC CHARGES
-----------------------
   0 S :    0.135711
   1 C :   -0.112814
   2 C :   -0.099563
   3 C :    0.006660
   4 C :   -0.154581
   5 H :    0.021580
   6 C :    0.052390
   7 H :    0.046248
   8 H :    0.022458
   9 C :   -0.130703
  10 H :    0.026811
  11 H :    0.041477
  12 C :   -0.006704
  13 H :    0.034243
  14 H :    0.037637
  15 H :    0.032392
  16 S :    0.092891
  17 C :   -0.126010
  18 C :   -0.045103
  19 C :   -0.015759
  20 C :   -0.131059
  21 H :    0.049174
  22 C :    0.046211
  23 H :    0.001687
  24 H :    0.016526
  25 C :   -0.058381
  26 H :    0.016739
  27 H :    0.019698
  28 C :   -0.052041
  29 H :    0.024876
  30 H :    0.031718
  31 H :    0.041049
  32 H :    0.047409
  33 H :    0.087132
Sum of atomic charges:    0.0000000

LOEWDIN ATOMIC CHARGES
----------------------
   0 S :    0.453383
   1 C :   -0.213433
   2 C :   -0.064556
   3 C :   -0.061367
   4 C :   -0.227385
   5 H :    0.033837
   6 C :   -0.037098
   7 H :    0.042844
   8 H :    0.027443
   9 C :   -0.050385
  10 H :    0.021951
  11 H :    0.027415
  12 C :   -0.056906
  13 H :    0.023973
  14 H :    0.032614
  15 H :    0.023358
  16 S :    0.396795
  17 C :   -0.189221
  18 C :   -0.077731
  19 C :   -0.060588
  20 C :   -0.195621
  21 H :    0.045177
  22 C :   -0.038985
  23 H :    0.022299
  24 H :    0.031310
  25 C :   -0.035954
  26 H :    0.016431
  27 H :    0.018156
  28 C :   -0.064656
  29 H :    0.021851
  30 H :    0.034852
  31 H :    0.023611
  32 H :    0.032983
  33 H :    0.043600

  Mayer bond orders larger than 0.100000
B(  0-S ,  1-C ) :   1.1591 B(  0-S ,  4-C ) :   1.1686 B(  1-C ,  2-C ) :   1.5726
B(  1-C , 32-H ) :   0.9645 B(  2-C ,  3-C ) :   1.2677 B(  2-C ,  6-C ) :   1.0378
B(  3-C ,  4-C ) :   1.5491 B(  3-C ,  5-H ) :   0.9847 B(  4-C , 20-C ) :   1.0258
B(  6-C ,  7-H ) :   0.9334 B(  6-C ,  8-H ) :   0.9455 B(  6-C ,  9-C ) :   1.0410
B(  9-C , 10-H ) :   0.9554 B(  9-C , 11-H ) :   0.9608 B(  9-C , 12-C ) :   1.0701
B( 12-C , 13-H ) :   0.9743 B( 12-C , 14-H ) :   0.9720 B( 12-C , 15-H ) :   0.9771
B( 16-S , 17-C ) :   1.1663 B( 16-S , 20-C ) :   1.1455 B( 17-C , 18-C ) :   1.5832
B( 17-C , 20-C ) :   0.1049 B( 17-C , 33-H ) :   0.9576 B( 18-C , 19-C ) :   1.2736
B( 18-C , 21-H ) :   0.9800 B( 19-C , 20-C ) :   1.5756 B( 19-C , 22-C ) :   1.0505
B( 22-C , 23-H ) :   0.9312 B( 22-C , 24-H ) :   0.9380 B( 22-C , 25-C ) :   1.0523
B( 25-C , 26-H ) :   0.9537 B( 25-C , 27-H ) :   0.9532 B( 25-C , 28-C ) :   1.0941
B( 28-C , 29-H ) :   0.9728 B( 28-C , 30-H ) :   0.9703 B( 28-C , 31-H ) :   0.9763

Dispersion correction           -0.013993167
FINAL SINGLE POINT ENERGY     -1339.857048352329

DIPOLE MOMENT
-------------
                                X             Y             Z
Electronic contribution:    -27.35484      16.40929      -9.18574
Nuclear contribution   :     28.15133     -16.57589       9.57726
                        -----------------------------------------
Total Dipole Moment    :      0.79649      -0.16660       0.39152
                        -----------------------------------------
Magnitude (a.u.)       :      0.90302
Magnitude (Debye)      :      2.29528

Rotational constants in cm-1:     0.016705     0.009304     0.006422
Rotational constants in MHz :   500.812483   278.912702   192.518660

                             ****ORCA TERMINATED NORMALLY****
TOTAL RUN TIME: 0 days 0 hours 0 minutes 30 seconds 76 msec
