                         Program Version 4.2.1 -  RELEASE  -
|  1> ! wB97X-D3 SP def2-SVP
|  2> %pal
|  3> nprocs 16
|  4> end
|  5>
|  6> * xyz 0 1
|  7> S 	 69.9763 	 23.7649 	 74.1009
|  8> C 	 68.6812 	 23.8023 	 72.8149
|  9> C 	 69.2189 	 23.2992 	 71.6106
| 10> C 	 70.6391 	 23.2114 	 71.6558
| 11> C 	 71.1894 	 23.5892 	 72.8507
| 12> H 	 71.2022 	 22.8945 	 70.8192
| 13> C 	 68.4214 	 23.0326 	 70.3363
| 14> H 	 68.9882 	 23.5729 	 69.529
| 15> H 	 67.48 	 23.5527 	 70.4699
| 16> C 	 68.1034 	 21.6141 	 69.9346
| 17> H 	 67.6017 	 21.484 	 69.0182
| 18> H 	 69.0485 	 21.1264 	 69.7792
| 19> C 	 67.2819 	 20.8914 	 70.9611
| 20> H 	 67.666 	 20.8021 	 71.9351
| 21> H 	 66.352 	 21.4027 	 71.2149
| 22> H 	 67.1486 	 19.838 	 70.6542
| 23> S 	 73.1277 	 25.5926 	 73.0933
| 24> C 	 74.708 	 25.2033 	 73.8536
| 25> C 	 74.8682 	 23.8563 	 73.9572
| 26> C 	 73.6569 	 23.083 	 73.6498
| 27> C 	 72.5835 	 23.8811 	 73.1849
| 28> H 	 75.8187 	 23.5332 	 74.3309
| 29> C 	 73.5276 	 21.544 	 73.9763
| 30> H 	 72.465 	 21.2871 	 73.9053
| 31> H 	 73.8201 	 21.5775 	 74.9891
| 32> C 	 74.3611 	 20.5042 	 73.1487
| 33> H 	 75.3838 	 20.795 	 72.8401
| 34> H 	 73.7415 	 20.3445 	 72.2171
| 35> C 	 74.4955 	 19.1118 	 73.8652
| 36> H 	 73.5775 	 18.6714 	 74.2036
| 37> H 	 74.9649 	 19.1115 	 74.8444
| 38> H 	 75.0082 	 18.3928 	 73.2967
| 39> H 	 67.6298 	 23.9957 	 73.0224
| 40> H 	 75.5078 	 25.8785 	 73.9596
| 41> *
| 42>
| 43>                          ****END OF INPUT****

CARTESIAN COORDINATES (ANGSTROEM)
---------------------------------
  S     69.976300   23.764900   74.100900
  C     68.681200   23.802300   72.814900
  C     69.218900   23.299200   71.610600
  C     70.639100   23.211400   71.655800
  C     71.189400   23.589200   72.850700
  H     71.202200   22.894500   70.819200
  C     68.421400   23.032600   70.336300
  H     68.988200   23.572900   69.529000
  H     67.480000   23.552700   70.469900
  C     68.103400   21.614100   69.934600
  H     67.601700   21.484000   69.018200
  H     69.048500   21.126400   69.779200
  C     67.281900   20.891400   70.961100
  H     67.666000   20.802100   71.935100
  H     66.352000   21.402700   71.214900
  H     67.148600   19.838000   70.654200
  S     73.127700   25.592600   73.093300
  C     74.708000   25.203300   73.853600
  C     74.868200   23.856300   73.957200
  C     73.656900   23.083000   73.649800
  C     72.583500   23.881100   73.184900
  H     75.818700   23.533200   74.330900
  C     73.527600   21.544000   73.976300
  H     72.465000   21.287100   73.905300
  H     73.820100   21.577500   74.989100
  C     74.361100   20.504200   73.148700
  H     75.383800   20.795000   72.840100
  H     73.741500   20.344500   72.217100
  C     74.495500   19.111800   73.865200
  H     73.577500   18.671400   74.203600
  H     74.964900   19.111500   74.844400
  H     75.008200   18.392800   73.296700
  H     67.629800   23.995700   73.022400
  H     75.507800   25.878500   73.959600

 Total Charge           Charge          ....    0
 Multiplicity           Mult            ....    1
 Number of Electrons    NEL             ....  134
 Basis Dimension        Dim             ....  322

ORBITAL ENERGIES
----------------

  NO   OCC          E(Eh)            E(eV)
   0   2.0000     -88.965380     -2420.8711
   1   2.0000     -88.960230     -2420.7309
   2   2.0000     -10.332676      -281.1664
   3   2.0000     -10.330953      -281.1195
   4   2.0000     -10.324521      -280.9445
   5   2.0000     -10.317226      -280.7460
   6   2.0000     -10.316389      -280.7232
   7   2.0000     -10.307238      -280.4742
   8   2.0000     -10.300279      -280.2849
   9   2.0000     -10.296261      -280.1755
  10   2.0000     -10.295558      -280.1564
  11   2.0000     -10.294990      -280.1409
  12   2.0000     -10.293306      -280.0951
  13   2.0000     -10.280771      -279.7540
  14   2.0000     -10.273458      -279.5550
  15   2.0000     -10.270333      -279.4700
  16   2.0000      -8.079204      -219.8463
  17   2.0000      -8.073791      -219.6990
  18   2.0000      -6.037823      -164.2975
  19   2.0000      -6.034044      -164.1947
  20   2.0000      -6.032552      -164.1541
  21   2.0000      -6.029682      -164.0760
  22   2.0000      -6.028502      -164.0439
  23   2.0000      -6.024298      -163.9295
  24   2.0000      -0.997237       -27.1362
  25   2.0000      -0.972425       -26.4610
  26   2.0000      -0.917550       -24.9678
  27   2.0000      -0.894464       -24.3396
  28   2.0000      -0.868487       -23.6327
  29   2.0000      -0.846104       -23.0237
  30   2.0000      -0.839561       -22.8456
  31   2.0000      -0.816432       -22.2162
  32   2.0000      -0.784856       -21.3570
  33   2.0000      -0.771704       -20.9991
  34   2.0000      -0.713975       -19.4283
  35   2.0000      -0.703813       -19.1517
  36   2.0000      -0.695838       -18.9347
  37   2.0000      -0.655687       -17.8422
  38   2.0000      -0.640290       -17.4232
  39   2.0000      -0.623792       -16.9742
  40   2.0000      -0.587947       -15.9988
  41   2.0000      -0.567289       -15.4367
  42   2.0000      -0.558772       -15.2050
  43   2.0000      -0.553571       -15.0634
  44   2.0000      -0.550399       -14.9771
  45   2.0000      -0.528227       -14.3738
  46   2.0000      -0.518849       -14.1186
  47   2.0000      -0.509691       -13.8694
  48   2.0000      -0.505139       -13.7455
  49   2.0000      -0.497966       -13.5504
  50   2.0000      -0.482576       -13.1315
  51   2.0000      -0.477057       -12.9814
  52   2.0000      -0.467080       -12.7099
  53   2.0000      -0.462975       -12.5982
  54   2.0000      -0.454454       -12.3663
  55   2.0000      -0.449292       -12.2258
  56   2.0000      -0.445811       -12.1311
  57   2.0000      -0.437090       -11.8938
  58   2.0000      -0.432629       -11.7724
  59   2.0000      -0.425422       -11.5763
  60   2.0000      -0.418951       -11.4002
  61   2.0000      -0.415809       -11.3147
  62   2.0000      -0.409472       -11.1423
  63   2.0000      -0.336064        -9.1448
  64   2.0000      -0.325134        -8.8473
  65   2.0000      -0.315643        -8.5891
  66   2.0000      -0.313334        -8.5263
  67   0.0000       0.033193         0.9032
  68   0.0000       0.050750         1.3810
  69   0.0000       0.099440         2.7059
  70   0.0000       0.115723         3.1490
  71   0.0000       0.126448         3.4408

MULLIKEN ATOMIC CHARGES
-----------------------
   0 S :    0.108654
   1 C :   -0.135399
   2 C :   -0.093389
   3 C :    0.074782
   4 C :   -0.176134
   5 H :   -0.002057
   6 C :    0.036962
   7 H :    0.040887
   8 H :    0.014100
   9 C :    0.005464
  10 H :    0.024195
  11 H :    0.011536
  12 C :   -0.053493
  13 H :    0.018054
  14 H :    0.017274
  15 H :    0.034247
  16 S :    0.087788
  17 C :   -0.076273
  18 C :   -0.027344
  19 C :   -0.025809
  20 C :   -0.163488
  21 H :    0.015988
  22 C :    0.074185
  23 H :    0.035911
  24 H :    0.025884
  25 C :   -0.077940
  26 H :    0.041122
  27 H :    0.042664
  28 C :   -0.039673
  29 H :    0.013964
  30 H :    0.018220
  31 H :    0.027739
  32 H :    0.054804
  33 H :    0.046573
Sum of atomic charges:    0.0000000

LOEWDIN ATOMIC CHARGES
----------------------
   0 S :    0.378341
   1 C :   -0.173121
   2 C :   -0.057943
   3 C :   -0.051016
   4 C :   -0.193596
   5 H :    0.027612
   6 C :   -0.032830
   7 H :    0.037565
   8 H :    0.026951
   9 C :   -0.037981
  10 H :    0.024336
  11 H :    0.021803
  12 C :   -0.066979
  13 H :    0.018381
  14 H :    0.024530
  15 H :    0.031524
  16 S :    0.362085
  17 C :   -0.157159
  18 C :   -0.072140
  19 C :   -0.044523
  20 C :   -0.195708
  21 H :    0.030110
  22 C :   -0.026342
  23 H :    0.033262
  24 H :    0.025030
  25 C :   -0.038304
  26 H :    0.026252
  27 H :    0.033037
  28 C :   -0.070944
  29 H :    0.022539
  30 H :    0.025071
  31 H :    0.020139
  32 H :    0.027469
  33 H :    0.022550

  Mayer bond orders larger than 0.100000
B(  0-S ,  1-C ) :   1.1255 B(  0-S ,  4-C ) :   1.1439 B(  1-C ,  2-C ) :   1.6028
B(  1-C ,  4-C ) :   0.1008 B(  1-C , 32-H ) :   0.9703 B(  2-C ,  3-C ) :   1.2243
B(  2-C ,  6-C ) :   1.0202 B(  3-C ,  4-C ) :   1.5945 B(  3-C ,  5-H ) :   1.0050
B(  4-C , 20-C ) :   1.0150 B(  6-C ,  7-H ) :   0.9426 B(  6-C ,  8-H ) :   0.9413
B(  6-C ,  9-C ) :   1.0771 B(  9-C , 10-H ) :   0.9526 B(  9-C , 11-H ) :   0.9480
B(  9-C , 12-C ) :   1.0796 B( 12-C , 13-H ) :   0.9727 B( 12-C , 14-H ) :   0.9717
B( 12-C , 15-H ) :   0.9714 B( 16-S , 17-C ) :   1.1315 B( 16-S , 20-C ) :   1.1187
B( 17-C , 18-C ) :   1.6694 B( 17-C , 33-H ) :   0.9674 B( 18-C , 19-C ) :   1.1907
B( 18-C , 21-H ) :   0.9901 B( 19-C , 20-C ) :   1.6312 B( 19-C , 22-C ) :   1.0203
B( 22-C , 23-H ) :   0.9380 B( 22-C , 24-H ) :   0.9461 B( 22-C , 25-C ) :   1.0482
B( 25-C , 26-H ) :   0.9652 B( 25-C , 27-H ) :   0.9571 B( 25-C , 28-C ) :   1.0698
B( 28-C , 29-H ) :   0.9733 B( 28-C , 30-H ) :   0.9736 B( 28-C , 31-H ) :   0.9773

Dispersion correction           -0.013907540
FINAL SINGLE POINT ENERGY     -1339.855750182057

DIPOLE MOMENT
-------------
                                X             Y             Z
Electronic contribution:      4.03624      24.83709       8.64330
Nuclear contribution   :     -3.95091     -25.39618      -8.89320
                        -----------------------------------------
Total Dipole Moment    :      0.08533      -0.55909      -0.24991
                        -----------------------------------------
Magnitude (a.u.)       :      0.61832
Magnitude (Debye)      :      1.57164

Rotational constants in cm-1:     0.017290     0.008283     0.006418
Rotational constants in MHz :   518.348540   248.330600   192.409759

                             ****ORCA TERMINATED NORMALLY****
TOTAL RUN TIME: 0 days 0 hours 0 minutes 28 seconds 647 msec
