                         Program Version 4.2.1 -  RELEASE  -
|  1> ! wB97X-D3 SP def2-SVP
|  2> %pal
|  3> nprocs 16
|  4> end
|  5>
|  6> * xyz 0 1
|  7> S 	 46.8005 	 19.3257 	 104.123
|  8> C 	 46.4582 	 19.621 	 102.419
|  9> C 	 45.7024 	 18.6123 	 101.921
| 10> C 	 45.3534 	 17.6191 	 102.927
| 11> C 	 45.8925 	 17.811 	 104.143
| 12> H 	 44.7419 	 16.7321 	 102.825
| 13> C 	 45.3707 	 18.3728 	 100.467
| 14> H 	 45.09 	 19.2962 	 99.9604
| 15> H 	 44.3202 	 17.884 	 100.498
| 16> C 	 46.3742 	 17.6287 	 99.6149
| 17> H 	 46.5369 	 16.6404 	 99.9773
| 18> H 	 45.9617 	 17.4821 	 98.623
| 19> C 	 47.7933 	 18.2499 	 99.5633
| 20> H 	 48.2314 	 18.1826 	 100.555
| 21> H 	 48.4685 	 17.6826 	 98.8298
| 22> H 	 47.7887 	 19.3507 	 99.1784
| 23> S 	 44.139 	 17.5531 	 106.235
| 24> C 	 44.1912 	 16.0757 	 107.206
| 25> C 	 45.1134 	 15.1772 	 106.738
| 26> C 	 45.9863 	 15.6949 	 105.74
| 27> C 	 45.5952 	 17.0021 	 105.353
| 28> H 	 45.1717 	 14.2865 	 107.23
| 29> C 	 47.1284 	 14.9174 	 105.194
| 30> H 	 48.0082 	 15.4575 	 105.628
| 31> H 	 47.0474 	 15.0396 	 104.051
| 32> C 	 47.1979 	 13.3621 	 105.414
| 33> H 	 47.2199 	 13.3039 	 106.555
| 34> H 	 48.1967 	 12.9179 	 105.171
| 35> C 	 46.2395 	 12.5717 	 104.645
| 36> H 	 46.2048 	 11.4925 	 104.806
| 37> H 	 46.6251 	 12.688 	 103.562
| 38> H 	 45.2486 	 13.0623 	 104.674
| 39> H 	 46.9173 	 20.4254 	 101.834
| 40> H 	 43.4795 	 15.8923 	 107.967
| 41> *
| 42>
| 43>                          ****END OF INPUT****

CARTESIAN COORDINATES (ANGSTROEM)
---------------------------------
  S     46.800500   19.325700  104.123000
  C     46.458200   19.621000  102.419000
  C     45.702400   18.612300  101.921000
  C     45.353400   17.619100  102.927000
  C     45.892500   17.811000  104.143000
  H     44.741900   16.732100  102.825000
  C     45.370700   18.372800  100.467000
  H     45.090000   19.296200   99.960400
  H     44.320200   17.884000  100.498000
  C     46.374200   17.628700   99.614900
  H     46.536900   16.640400   99.977300
  H     45.961700   17.482100   98.623000
  C     47.793300   18.249900   99.563300
  H     48.231400   18.182600  100.555000
  H     48.468500   17.682600   98.829800
  H     47.788700   19.350700   99.178400
  S     44.139000   17.553100  106.235000
  C     44.191200   16.075700  107.206000
  C     45.113400   15.177200  106.738000
  C     45.986300   15.694900  105.740000
  C     45.595200   17.002100  105.353000
  H     45.171700   14.286500  107.230000
  C     47.128400   14.917400  105.194000
  H     48.008200   15.457500  105.628000
  H     47.047400   15.039600  104.051000
  C     47.197900   13.362100  105.414000
  H     47.219900   13.303900  106.555000
  H     48.196700   12.917900  105.171000
  C     46.239500   12.571700  104.645000
  H     46.204800   11.492500  104.806000
  H     46.625100   12.688000  103.562000
  H     45.248600   13.062300  104.674000
  H     46.917300   20.425400  101.834000
  H     43.479500   15.892300  107.967000

 Total Charge           Charge          ....    0
 Multiplicity           Mult            ....    1
 Number of Electrons    NEL             ....  134
 Basis Dimension        Dim             ....  322

ORBITAL ENERGIES
----------------

  NO   OCC          E(Eh)            E(eV)
   0   2.0000     -88.965256     -2420.8677
   1   2.0000     -88.958938     -2420.6958
   2   2.0000     -10.331444      -281.1329
   3   2.0000     -10.326129      -280.9883
   4   2.0000     -10.317080      -280.7420
   5   2.0000     -10.315043      -280.6866
   6   2.0000     -10.311461      -280.5891
   7   2.0000     -10.303503      -280.3726
   8   2.0000     -10.299646      -280.2676
   9   2.0000     -10.297687      -280.2143
  10   2.0000     -10.295484      -280.1544
  11   2.0000     -10.290394      -280.0159
  12   2.0000     -10.289905      -280.0025
  13   2.0000     -10.287480      -279.9366
  14   2.0000     -10.287376      -279.9337
  15   2.0000     -10.284742      -279.8621
  16   2.0000      -8.079234      -219.8471
  17   2.0000      -8.073652      -219.6952
  18   2.0000      -6.037687      -164.2938
  19   2.0000      -6.033882      -164.1903
  20   2.0000      -6.032300      -164.1472
  21   2.0000      -6.030055      -164.0861
  22   2.0000      -6.028134      -164.0339
  23   2.0000      -6.024266      -163.9286
  24   2.0000      -1.002258       -27.2728
  25   2.0000      -0.981907       -26.7190
  26   2.0000      -0.914325       -24.8800
  27   2.0000      -0.909263       -24.7423
  28   2.0000      -0.869078       -23.6488
  29   2.0000      -0.856051       -23.2943
  30   2.0000      -0.839913       -22.8552
  31   2.0000      -0.817859       -22.2551
  32   2.0000      -0.779641       -21.2151
  33   2.0000      -0.771124       -20.9834
  34   2.0000      -0.704939       -19.1824
  35   2.0000      -0.695742       -18.9321
  36   2.0000      -0.692414       -18.8415
  37   2.0000      -0.658864       -17.9286
  38   2.0000      -0.643633       -17.5142
  39   2.0000      -0.615126       -16.7384
  40   2.0000      -0.593780       -16.1576
  41   2.0000      -0.572689       -15.5837
  42   2.0000      -0.567237       -15.4353
  43   2.0000      -0.548945       -14.9375
  44   2.0000      -0.542160       -14.7529
  45   2.0000      -0.535919       -14.5831
  46   2.0000      -0.515991       -14.0408
  47   2.0000      -0.514735       -14.0067
  48   2.0000      -0.501470       -13.6457
  49   2.0000      -0.493846       -13.4382
  50   2.0000      -0.490913       -13.3584
  51   2.0000      -0.478727       -13.0268
  52   2.0000      -0.469744       -12.7824
  53   2.0000      -0.463918       -12.6239
  54   2.0000      -0.456135       -12.4121
  55   2.0000      -0.450725       -12.2648
  56   2.0000      -0.442770       -12.0484
  57   2.0000      -0.438260       -11.9257
  58   2.0000      -0.435486       -11.8502
  59   2.0000      -0.425851       -11.5880
  60   2.0000      -0.415747       -11.3130
  61   2.0000      -0.407107       -11.0780
  62   2.0000      -0.396056       -10.7772
  63   2.0000      -0.339199        -9.2301
  64   2.0000      -0.326597        -8.8872
  65   2.0000      -0.322162        -8.7665
  66   2.0000      -0.310578        -8.4512
  67   0.0000       0.039524         1.0755
  68   0.0000       0.055731         1.5165
  69   0.0000       0.111952         3.0464
  70   0.0000       0.125471         3.4142
  71   0.0000       0.128683         3.5017

MULLIKEN ATOMIC CHARGES
-----------------------
   0 S :    0.084880
   1 C :   -0.123481
   2 C :   -0.080964
   3 C :    0.045091
   4 C :   -0.174480
   5 H :    0.011293
   6 C :    0.031150
   7 H :    0.020198
   8 H :    0.034528
   9 C :   -0.007499
  10 H :    0.015641
  11 H :    0.028260
  12 C :   -0.121495
  13 H :    0.056033
  14 H :    0.047051
  15 H :    0.039854
  16 S :    0.104221
  17 C :   -0.072768
  18 C :   -0.007789
  19 C :   -0.028670
  20 C :   -0.165460
  21 H :   -0.014290
  22 C :    0.023730
  23 H :    0.066302
  24 H :    0.041398
  25 C :   -0.093418
  26 H :    0.031149
  27 H :    0.034159
  28 C :   -0.057661
  29 H :    0.051107
  30 H :    0.034058
  31 H :    0.044232
  32 H :    0.058996
  33 H :    0.044644
Sum of atomic charges:    0.0000000

LOEWDIN ATOMIC CHARGES
----------------------
   0 S :    0.379167
   1 C :   -0.184241
   2 C :   -0.072413
   3 C :   -0.060376
   4 C :   -0.199765
   5 H :    0.032689
   6 C :   -0.042573
   7 H :    0.027738
   8 H :    0.041748
   9 C :   -0.040752
  10 H :    0.020745
  11 H :    0.025511
  12 C :   -0.076696
  13 H :    0.025827
  14 H :    0.034224
  15 H :    0.029047
  16 S :    0.391254
  17 C :   -0.160043
  18 C :   -0.068668
  19 C :   -0.049155
  20 C :   -0.194449
  21 H :    0.016729
  22 C :   -0.040536
  23 H :    0.050217
  24 H :    0.039962
  25 C :   -0.059375
  26 H :    0.023222
  27 H :    0.031770
  28 C :   -0.074087
  29 H :    0.031008
  30 H :    0.038167
  31 H :    0.028020
  32 H :    0.035587
  33 H :    0.020498

  Mayer bond orders larger than 0.100000
B(  0-S ,  1-C ) :   1.1279 B(  0-S ,  4-C ) :   1.1250 B(  1-C ,  2-C ) :   1.6445
B(  1-C , 32-H ) :   0.9690 B(  2-C ,  3-C ) :   1.1913 B(  2-C ,  6-C ) :   1.0234
B(  3-C ,  4-C ) :   1.6406 B(  3-C ,  5-H ) :   0.9963 B(  4-C , 20-C ) :   0.9966
B(  6-C ,  7-H ) :   0.9403 B(  6-C ,  8-H ) :   0.9379 B(  6-C ,  9-C ) :   1.0741
B(  9-C , 10-H ) :   0.9512 B(  9-C , 11-H ) :   0.9528 B(  9-C , 12-C ) :   1.0722
B( 12-C , 13-H ) :   0.9717 B( 12-C , 14-H ) :   0.9733 B( 12-C , 15-H ) :   0.9744
B( 16-S , 17-C ) :   1.1610 B( 16-S , 20-C ) :   1.1470 B( 17-C , 18-C ) :   1.6118
B( 17-C , 20-C ) :   0.1007 B( 17-C , 33-H ) :   0.9682 B( 18-C , 19-C ) :   1.2344
B( 18-C , 21-H ) :   1.0014 B( 19-C , 20-C ) :   1.5933 B( 19-C , 22-C ) :   1.0191
B( 22-C , 23-H ) :   0.9308 B( 22-C , 24-H ) :   0.9319 B( 22-C , 25-C ) :   1.0776
B( 25-C , 26-H ) :   0.9440 B( 25-C , 27-H ) :   0.9545 B( 25-C , 28-C ) :   1.0683
B( 28-C , 29-H ) :   0.9717 B( 28-C , 30-H ) :   0.9644 B( 28-C , 31-H ) :   0.9771

Dispersion correction           -0.014587303
FINAL SINGLE POINT ENERGY     -1339.864330693989

DIPOLE MOMENT
-------------
                                X             Y             Z
Electronic contribution:     -8.28470      17.14599      18.50091
Nuclear contribution   :      8.31355     -17.84810     -18.86549
                        -----------------------------------------
Total Dipole Moment    :      0.02885      -0.70211      -0.36458
                        -----------------------------------------
Magnitude (a.u.)       :      0.79164
Magnitude (Debye)      :      2.01220

Rotational constants in cm-1:     0.018778     0.008501     0.006748
Rotational constants in MHz :   562.938294   254.845318   202.307524

                             ****ORCA TERMINATED NORMALLY****
TOTAL RUN TIME: 0 days 0 hours 0 minutes 29 seconds 995 msec
