                         Program Version 4.2.1 -  RELEASE  -
|  1> ! wB97X-D3 SP def2-SVP
|  2> %pal
|  3> nprocs 16
|  4> end
|  5>
|  6> * xyz 0 1
|  7> S 	 -37.5563 	 61.8195 	 110.874
|  8> C 	 -36.2028 	 61.7909 	 111.873
|  9> C 	 -35.0332 	 61.6712 	 111.177
| 10> C 	 -35.2419 	 61.7947 	 109.741
| 11> C 	 -36.6292 	 61.7954 	 109.443
| 12> H 	 -34.4426 	 61.7323 	 109.028
| 13> C 	 -33.6474 	 61.7079 	 111.914
| 14> H 	 -32.8735 	 61.6375 	 111.209
| 15> H 	 -33.5879 	 60.8164 	 112.488
| 16> C 	 -33.274 	 63.061 	 112.645
| 17> H 	 -33.9879 	 63.297 	 113.44
| 18> H 	 -32.375 	 62.9138 	 113.252
| 19> C 	 -33.2845 	 64.2544 	 111.705
| 20> H 	 -32.9059 	 65.1055 	 112.218
| 21> H 	 -32.7179 	 64.1142 	 110.812
| 22> H 	 -34.2649 	 64.5526 	 111.425
| 23> S 	 -36.0598 	 61.6811 	 106.854
| 24> C 	 -37.0925 	 62.2998 	 105.585
| 25> C 	 -38.3189 	 62.5733 	 106.136
| 26> C 	 -38.4198 	 62.4226 	 107.571
| 27> C 	 -37.1718 	 62.0416 	 108.122
| 28> H 	 -39.0245 	 62.9211 	 105.479
| 29> C 	 -39.7433 	 62.7504 	 108.234
| 30> H 	 -40.044 	 63.7445 	 107.948
| 31> H 	 -39.6181 	 62.6541 	 109.305
| 32> C 	 -40.8342 	 61.8793 	 107.644
| 33> H 	 -40.633 	 60.7932 	 107.734
| 34> H 	 -40.8061 	 62.0249 	 106.553
| 35> C 	 -42.3129 	 62.3272 	 108.076
| 36> H 	 -42.3134 	 63.3311 	 107.883
| 37> H 	 -42.3558 	 62.1265 	 109.138
| 38> H 	 -43.0425 	 61.6619 	 107.589
| 39> H 	 -36.1117 	 61.8134 	 112.953
| 40> H 	 -36.9043 	 62.4923 	 104.502
| 41> *
| 42>
| 43>                          ****END OF INPUT****

CARTESIAN COORDINATES (ANGSTROEM)
---------------------------------
  S    -37.556300   61.819500  110.874000
  C    -36.202800   61.790900  111.873000
  C    -35.033200   61.671200  111.177000
  C    -35.241900   61.794700  109.741000
  C    -36.629200   61.795400  109.443000
  H    -34.442600   61.732300  109.028000
  C    -33.647400   61.707900  111.914000
  H    -32.873500   61.637500  111.209000
  H    -33.587900   60.816400  112.488000
  C    -33.274000   63.061000  112.645000
  H    -33.987900   63.297000  113.440000
  H    -32.375000   62.913800  113.252000
  C    -33.284500   64.254400  111.705000
  H    -32.905900   65.105500  112.218000
  H    -32.717900   64.114200  110.812000
  H    -34.264900   64.552600  111.425000
  S    -36.059800   61.681100  106.854000
  C    -37.092500   62.299800  105.585000
  C    -38.318900   62.573300  106.136000
  C    -38.419800   62.422600  107.571000
  C    -37.171800   62.041600  108.122000
  H    -39.024500   62.921100  105.479000
  C    -39.743300   62.750400  108.234000
  H    -40.044000   63.744500  107.948000
  H    -39.618100   62.654100  109.305000
  C    -40.834200   61.879300  107.644000
  H    -40.633000   60.793200  107.734000
  H    -40.806100   62.024900  106.553000
  C    -42.312900   62.327200  108.076000
  H    -42.313400   63.331100  107.883000
  H    -42.355800   62.126500  109.138000
  H    -43.042500   61.661900  107.589000
  H    -36.111700   61.813400  112.953000
  H    -36.904300   62.492300  104.502000

 Total Charge           Charge          ....    0
 Multiplicity           Mult            ....    1
 Number of Electrons    NEL             ....  134
 Basis Dimension        Dim             ....  322

ORBITAL ENERGIES
----------------

  NO   OCC          E(Eh)            E(eV)
   0   2.0000     -88.971907     -2421.0487
   1   2.0000     -88.961153     -2420.7560
   2   2.0000     -10.332206      -281.1536
   3   2.0000     -10.330736      -281.1136
   4   2.0000     -10.316335      -280.7217
   5   2.0000     -10.306574      -280.4561
   6   2.0000     -10.306015      -280.4409
   7   2.0000     -10.300554      -280.2923
   8   2.0000     -10.298324      -280.2316
   9   2.0000     -10.290364      -280.0150
  10   2.0000     -10.290185      -280.0102
  11   2.0000     -10.290071      -280.0071
  12   2.0000     -10.286904      -279.9209
  13   2.0000     -10.285227      -279.8753
  14   2.0000     -10.276022      -279.6248
  15   2.0000     -10.266794      -279.3737
  16   2.0000      -8.087838      -220.0813
  17   2.0000      -8.076314      -219.7677
  18   2.0000      -6.046280      -164.5276
  19   2.0000      -6.042077      -164.4133
  20   2.0000      -6.038719      -164.3219
  21   2.0000      -6.035093      -164.2232
  22   2.0000      -6.030661      -164.1026
  23   2.0000      -6.026858      -163.9991
  24   2.0000      -1.014354       -27.6020
  25   2.0000      -0.988783       -26.9062
  26   2.0000      -0.911625       -24.8066
  27   2.0000      -0.906525       -24.6678
  28   2.0000      -0.875020       -23.8105
  29   2.0000      -0.852062       -23.1858
  30   2.0000      -0.839648       -22.8480
  31   2.0000      -0.813780       -22.1441
  32   2.0000      -0.787373       -21.4255
  33   2.0000      -0.772842       -21.0301
  34   2.0000      -0.707458       -19.2509
  35   2.0000      -0.705555       -19.1991
  36   2.0000      -0.694779       -18.9059
  37   2.0000      -0.664706       -18.0876
  38   2.0000      -0.636610       -17.3230
  39   2.0000      -0.608374       -16.5547
  40   2.0000      -0.594832       -16.1862
  41   2.0000      -0.577048       -15.7023
  42   2.0000      -0.571381       -15.5481
  43   2.0000      -0.555727       -15.1221
  44   2.0000      -0.540534       -14.7087
  45   2.0000      -0.524952       -14.2847
  46   2.0000      -0.520773       -14.1710
  47   2.0000      -0.509191       -13.8558
  48   2.0000      -0.506853       -13.7922
  49   2.0000      -0.501887       -13.6570
  50   2.0000      -0.491267       -13.3680
  51   2.0000      -0.481885       -13.1128
  52   2.0000      -0.473669       -12.8892
  53   2.0000      -0.467535       -12.7223
  54   2.0000      -0.462225       -12.5778
  55   2.0000      -0.447448       -12.1757
  56   2.0000      -0.443293       -12.0626
  57   2.0000      -0.439929       -11.9711
  58   2.0000      -0.433585       -11.7984
  59   2.0000      -0.426343       -11.6014
  60   2.0000      -0.419855       -11.4248
  61   2.0000      -0.411694       -11.2028
  62   2.0000      -0.406705       -11.0670
  63   2.0000      -0.364921        -9.9300
  64   2.0000      -0.333478        -9.0744
  65   2.0000      -0.324042        -8.8176
  66   2.0000      -0.280652        -7.6369
  67   0.0000       0.020512         0.5582
  68   0.0000       0.091662         2.4942
  69   0.0000       0.119947         3.2639
  70   0.0000       0.126640         3.4461
  71   0.0000       0.132185         3.5970

MULLIKEN ATOMIC CHARGES
-----------------------
   0 S :    0.125724
   1 C :   -0.099813
   2 C :   -0.122240
   3 C :   -0.010440
   4 C :   -0.114673
   5 H :    0.024432
   6 C :    0.095217
   7 H :    0.001590
   8 H :    0.028933
   9 C :   -0.080661
  10 H :    0.016126
  11 H :    0.030838
  12 C :   -0.008331
  13 H :    0.020620
  14 H :    0.022060
  15 H :    0.032381
  16 S :    0.075831
  17 C :   -0.089148
  18 C :   -0.041764
  19 C :   -0.061717
  20 C :   -0.118250
  21 H :   -0.010452
  22 C :    0.141534
  23 H :    0.017987
  24 H :    0.018938
  25 C :   -0.172700
  26 H :    0.037356
  27 H :    0.027298
  28 C :    0.006389
  29 H :    0.016905
  30 H :    0.030325
  31 H :    0.046548
  32 H :    0.042577
  33 H :    0.070578
Sum of atomic charges:   -0.0000000

LOEWDIN ATOMIC CHARGES
----------------------
   0 S :    0.465174
   1 C :   -0.223380
   2 C :   -0.061797
   3 C :   -0.068801
   4 C :   -0.212217
   5 H :    0.022527
   6 C :   -0.024586
   7 H :    0.020101
   8 H :    0.027013
   9 C :   -0.038205
  10 H :    0.019627
  11 H :    0.025294
  12 C :   -0.056635
  13 H :    0.025576
  14 H :    0.020213
  15 H :    0.026658
  16 S :    0.420749
  17 C :   -0.196710
  18 C :   -0.065651
  19 C :   -0.059938
  20 C :   -0.194471
  21 H :    0.014645
  22 C :   -0.029796
  23 H :    0.031171
  24 H :    0.015926
  25 C :   -0.042226
  26 H :    0.024353
  27 H :    0.020130
  28 C :   -0.051282
  29 H :    0.011137
  30 H :    0.024783
  31 H :    0.032717
  32 H :    0.032840
  33 H :    0.045061

  Mayer bond orders larger than 0.100000
B(  0-S ,  1-C ) :   1.1547 B(  0-S ,  4-C ) :   1.1698 B(  1-C ,  2-C ) :   1.6017
B(  1-C , 32-H ) :   0.9635 B(  2-C ,  3-C ) :   1.2859 B(  2-C ,  6-C ) :   1.0172
B(  3-C ,  4-C ) :   1.4988 B(  3-C ,  5-H ) :   0.9798 B(  4-C , 20-C ) :   1.0933
B(  6-C ,  7-H ) :   0.9444 B(  6-C ,  8-H ) :   0.9413 B(  6-C ,  9-C ) :   1.0606
B(  9-C , 10-H ) :   0.9561 B(  9-C , 11-H ) :   0.9590 B(  9-C , 12-C ) :   1.0724
B( 12-C , 13-H ) :   0.9693 B( 12-C , 14-H ) :   0.9791 B( 12-C , 15-H ) :   0.9714
B( 16-S , 17-C ) :   1.1350 B( 16-S , 20-C ) :   1.1535 B( 17-C , 18-C ) :   1.6375
B( 17-C , 33-H ) :   0.9614 B( 18-C , 19-C ) :   1.2183 B( 18-C , 21-H ) :   0.9958
B( 19-C , 20-C ) :   1.5493 B( 19-C , 22-C ) :   1.0467 B( 22-C , 23-H ) :   0.9242
B( 22-C , 24-H ) :   0.9350 B( 22-C , 25-C ) :   1.0478 B( 25-C , 26-H ) :   0.9574
B( 25-C , 27-H ) :   0.9583 B( 25-C , 28-C ) :   1.0638 B( 28-C , 29-H ) :   0.9755
B( 28-C , 30-H ) :   0.9788 B( 28-C , 31-H ) :   0.9754

Dispersion correction           -0.013881109
FINAL SINGLE POINT ENERGY     -1339.861557809430

DIPOLE MOMENT
-------------
                                X             Y             Z
Electronic contribution:      3.23260      -7.49784      -6.90511
Nuclear contribution   :     -3.22755       7.77544       7.00978
                        -----------------------------------------
Total Dipole Moment    :      0.00504       0.27760       0.10467
                        -----------------------------------------
Magnitude (a.u.)       :      0.29672
Magnitude (Debye)      :      0.75421

Rotational constants in cm-1:     0.023433     0.007548     0.006201
Rotational constants in MHz :   702.497733   226.294367   185.903259

                             ****ORCA TERMINATED NORMALLY****
TOTAL RUN TIME: 0 days 0 hours 0 minutes 28 seconds 994 msec
