                         Program Version 4.2.1 -  RELEASE  -
|  1> ! wB97X-D3 SP def2-SVP
|  2> %pal
|  3> nprocs 16
|  4> end
|  5>
|  6> * xyz 0 1
|  7> S 	 -0.441509 	 -13.3666 	 96.1321
|  8> C 	 -1.77308 	 -14.3634 	 96.6848
|  9> C 	 -2.66523 	 -14.6283 	 95.6765
| 10> C 	 -2.29302 	 -14.0193 	 94.4369
| 11> C 	 -1.06346 	 -13.3393 	 94.4688
| 12> H 	 -2.81553 	 -14.0381 	 93.4594
| 13> C 	 -3.92318 	 -15.5376 	 95.8084
| 14> H 	 -4.01659 	 -15.9549 	 96.7792
| 15> H 	 -3.92486 	 -16.3963 	 95.0834
| 16> C 	 -5.29427 	 -14.7832 	 95.6964
| 17> H 	 -5.39116 	 -14.3586 	 94.7077
| 18> H 	 -6.17934 	 -15.5269 	 95.7808
| 19> C 	 -5.42622 	 -13.6687 	 96.686
| 20> H 	 -4.60563 	 -12.8962 	 96.6896
| 21> H 	 -6.38135 	 -13.1321 	 96.5687
| 22> H 	 -5.56006 	 -14.0647 	 97.7236
| 23> S 	 -0.447617 	 -10.9401 	 93.3824
| 24> C 	 0.0795648 	 -10.83 	 91.687
| 25> C 	 0.329567 	 -12.1038 	 91.2107
| 26> C 	 0.127807 	 -13.1518 	 92.1834
| 27> C 	 -0.429641 	 -12.6974 	 93.3723
| 28> H 	 0.744351 	 -12.2247 	 90.2058
| 29> C 	 0.226597 	 -14.5781 	 91.6001
| 30> H 	 0.474952 	 -14.5504 	 90.5301
| 31> H 	 -0.79334 	 -15.0599 	 91.555
| 32> C 	 1.08969 	 -15.4597 	 92.5339
| 33> H 	 0.867298 	 -15.1502 	 93.5338
| 34> H 	 2.11746 	 -15.3253 	 92.3772
| 35> C 	 0.833966 	 -16.9424 	 92.4488
| 36> H 	 1.35669 	 -17.2728 	 93.3628
| 37> H 	 1.34773 	 -17.3919 	 91.656
| 38> H 	 -0.268922 	 -17.3106 	 92.6003
| 39> H 	 -1.86311 	 -14.5676 	 97.7878
| 40> H 	 0.0442691 	 -9.93198 	 91.0451
| 41> *
| 42>
| 43>                          ****END OF INPUT****

CARTESIAN COORDINATES (ANGSTROEM)
---------------------------------
  S     -0.441509  -13.366600   96.132100
  C     -1.773080  -14.363400   96.684800
  C     -2.665230  -14.628300   95.676500
  C     -2.293020  -14.019300   94.436900
  C     -1.063460  -13.339300   94.468800
  H     -2.815530  -14.038100   93.459400
  C     -3.923180  -15.537600   95.808400
  H     -4.016590  -15.954900   96.779200
  H     -3.924860  -16.396300   95.083400
  C     -5.294270  -14.783200   95.696400
  H     -5.391160  -14.358600   94.707700
  H     -6.179340  -15.526900   95.780800
  C     -5.426220  -13.668700   96.686000
  H     -4.605630  -12.896200   96.689600
  H     -6.381350  -13.132100   96.568700
  H     -5.560060  -14.064700   97.723600
  S     -0.447617  -10.940100   93.382400
  C      0.079565  -10.830000   91.687000
  C      0.329567  -12.103800   91.210700
  C      0.127807  -13.151800   92.183400
  C     -0.429641  -12.697400   93.372300
  H      0.744351  -12.224700   90.205800
  C      0.226597  -14.578100   91.600100
  H      0.474952  -14.550400   90.530100
  H     -0.793340  -15.059900   91.555000
  C      1.089690  -15.459700   92.533900
  H      0.867298  -15.150200   93.533800
  H      2.117460  -15.325300   92.377200
  C      0.833966  -16.942400   92.448800
  H      1.356690  -17.272800   93.362800
  H      1.347730  -17.391900   91.656000
  H     -0.268922  -17.310600   92.600300
  H     -1.863110  -14.567600   97.787800
  H      0.044269   -9.931980   91.045100

 Total Charge           Charge          ....    0
 Multiplicity           Mult            ....    1
 Number of Electrons    NEL             ....  134
 Basis Dimension        Dim             ....  322

ORBITAL ENERGIES
----------------

  NO   OCC          E(Eh)            E(eV)
   0   2.0000     -88.967406     -2420.9262
   1   2.0000     -88.963490     -2420.8196
   2   2.0000     -10.332286      -281.1558
   3   2.0000     -10.327248      -281.0187
   4   2.0000     -10.322591      -280.8920
   5   2.0000     -10.322514      -280.8899
   6   2.0000     -10.309108      -280.5251
   7   2.0000     -10.307317      -280.4764
   8   2.0000     -10.302162      -280.3361
   9   2.0000     -10.298376      -280.2331
  10   2.0000     -10.295480      -280.1543
  11   2.0000     -10.294614      -280.1307
  12   2.0000     -10.291983      -280.0591
  13   2.0000     -10.279302      -279.7140
  14   2.0000     -10.274933      -279.5951
  15   2.0000     -10.273637      -279.5599
  16   2.0000      -8.081687      -219.9139
  17   2.0000      -8.077918      -219.8113
  18   2.0000      -6.040185      -164.3618
  19   2.0000      -6.036545      -164.2627
  20   2.0000      -6.036163      -164.2523
  21   2.0000      -6.032568      -164.1545
  22   2.0000      -6.032395      -164.1498
  23   2.0000      -6.028620      -164.0471
  24   2.0000      -1.004474       -27.3331
  25   2.0000      -0.980457       -26.6796
  26   2.0000      -0.907156       -24.6850
  27   2.0000      -0.905072       -24.6283
  28   2.0000      -0.873204       -23.7611
  29   2.0000      -0.848416       -23.0866
  30   2.0000      -0.843574       -22.9548
  31   2.0000      -0.811182       -22.0734
  32   2.0000      -0.779889       -21.2219
  33   2.0000      -0.768870       -20.9220
  34   2.0000      -0.708591       -19.2817
  35   2.0000      -0.691226       -18.8092
  36   2.0000      -0.685602       -18.6562
  37   2.0000      -0.659802       -17.9541
  38   2.0000      -0.643505       -17.5107
  39   2.0000      -0.618039       -16.8177
  40   2.0000      -0.590620       -16.0716
  41   2.0000      -0.567217       -15.4348
  42   2.0000      -0.562666       -15.3109
  43   2.0000      -0.548319       -14.9205
  44   2.0000      -0.537922       -14.6376
  45   2.0000      -0.523296       -14.2396
  46   2.0000      -0.515107       -14.0168
  47   2.0000      -0.507172       -13.8009
  48   2.0000      -0.503295       -13.6953
  49   2.0000      -0.495392       -13.4803
  50   2.0000      -0.491275       -13.3683
  51   2.0000      -0.484406       -13.1814
  52   2.0000      -0.469011       -12.7624
  53   2.0000      -0.465697       -12.6723
  54   2.0000      -0.455961       -12.4073
  55   2.0000      -0.443000       -12.0546
  56   2.0000      -0.439172       -11.9505
  57   2.0000      -0.435021       -11.8375
  58   2.0000      -0.428794       -11.6681
  59   2.0000      -0.419897       -11.4260
  60   2.0000      -0.416458       -11.3324
  61   2.0000      -0.411664       -11.2019
  62   2.0000      -0.405625       -11.0376
  63   2.0000      -0.340148        -9.2559
  64   2.0000      -0.331885        -9.0310
  65   2.0000      -0.324507        -8.8303
  66   2.0000      -0.303893        -8.2693
  67   0.0000       0.033139         0.9018
  68   0.0000       0.052387         1.4255
  69   0.0000       0.116327         3.1654
  70   0.0000       0.117106         3.1866
  71   0.0000       0.126683         3.4472

MULLIKEN ATOMIC CHARGES
-----------------------
   0 S :    0.109682
   1 C :   -0.152903
   2 C :   -0.065765
   3 C :    0.040930
   4 C :   -0.188819
   5 H :    0.031939
   6 C :    0.080217
   7 H :    0.006880
   8 H :    0.047142
   9 C :   -0.097294
  10 H :    0.025189
  11 H :    0.042644
  12 C :   -0.079957
  13 H :    0.060111
  14 H :    0.031569
  15 H :    0.022562
  16 S :    0.100935
  17 C :   -0.101679
  18 C :   -0.063534
  19 C :    0.002649
  20 C :   -0.178246
  21 H :    0.031822
  22 C :    0.056285
  23 H :    0.019774
  24 H :    0.030604
  25 C :   -0.054718
  26 H :    0.030051
  27 H :    0.018562
  28 C :   -0.057246
  29 H :    0.026524
  30 H :    0.025626
  31 H :    0.047319
  32 H :    0.078142
  33 H :    0.073002
Sum of atomic charges:   -0.0000000

LOEWDIN ATOMIC CHARGES
----------------------
   0 S :    0.394031
   1 C :   -0.196796
   2 C :   -0.069587
   3 C :   -0.055231
   4 C :   -0.199169
   5 H :    0.040099
   6 C :   -0.027063
   7 H :    0.021780
   8 H :    0.037034
   9 C :   -0.049055
  10 H :    0.016413
  11 H :    0.034427
  12 C :   -0.079549
  13 H :    0.034488
  14 H :    0.028406
  15 H :    0.024563
  16 S :    0.395211
  17 C :   -0.181203
  18 C :   -0.076930
  19 C :   -0.049242
  20 C :   -0.206148
  21 H :    0.034151
  22 C :   -0.032975
  23 H :    0.026939
  24 H :    0.035010
  25 C :   -0.036348
  26 H :    0.023002
  27 H :    0.020964
  28 C :   -0.070152
  29 H :    0.032564
  30 H :    0.013954
  31 H :    0.035672
  32 H :    0.041559
  33 H :    0.039182

  Mayer bond orders larger than 0.100000
B(  0-S ,  1-C ) :   1.1480 B(  0-S ,  4-C ) :   1.1344 B(  1-C ,  2-C ) :   1.6080
B(  1-C ,  4-C ) :   0.1003 B(  1-C , 32-H ) :   0.9598 B(  2-C ,  3-C ) :   1.2258
B(  2-C ,  6-C ) :   1.0189 B(  3-C ,  4-C ) :   1.5864 B(  3-C ,  5-H ) :   0.9888
B(  4-C , 20-C ) :   1.0508 B(  6-C ,  7-H ) :   0.9453 B(  6-C ,  8-H ) :   0.9478
B(  6-C ,  9-C ) :   1.0561 B(  9-C , 10-H ) :   0.9578 B(  9-C , 11-H ) :   0.9561
B(  9-C , 12-C ) :   1.0796 B( 12-C , 13-H ) :   0.9707 B( 12-C , 14-H ) :   0.9702
B( 12-C , 15-H ) :   0.9728 B( 16-S , 17-C ) :   1.1484 B( 16-S , 20-C ) :   1.1350
B( 17-C , 18-C ) :   1.6244 B( 17-C , 20-C ) :   0.1017 B( 17-C , 33-H ) :   0.9632
B( 18-C , 19-C ) :   1.2301 B( 18-C , 21-H ) :   0.9835 B( 19-C , 20-C ) :   1.5941
B( 19-C , 22-C ) :   1.0391 B( 22-C , 23-H ) :   0.9417 B( 22-C , 24-H ) :   0.9429
B( 22-C , 25-C ) :   1.0376 B( 25-C , 26-H ) :   0.9655 B( 25-C , 27-H ) :   0.9491
B( 25-C , 28-C ) :   1.0934 B( 28-C , 29-H ) :   0.9721 B( 28-C , 30-H ) :   0.9744
B( 28-C , 31-H ) :   0.9712

Dispersion correction           -0.014717344
FINAL SINGLE POINT ENERGY     -1339.870182066990

DIPOLE MOMENT
-------------
                                X             Y             Z
Electronic contribution:     11.76498      19.04323       2.23866
Nuclear contribution   :    -12.10075     -19.43028      -2.57328
                        -----------------------------------------
Total Dipole Moment    :     -0.33577      -0.38704      -0.33462
                        -----------------------------------------
Magnitude (a.u.)       :      0.61198
Magnitude (Debye)      :      1.55552

Rotational constants in cm-1:     0.018015     0.008912     0.007438
Rotational constants in MHz :   540.071710   267.170079   222.976683

                             ****ORCA TERMINATED NORMALLY****
TOTAL RUN TIME: 0 days 0 hours 0 minutes 33 seconds 702 msec
