                         Program Version 4.2.1 -  RELEASE  -
|  1> ! wB97X-D3 SP def2-SVP
|  2> %pal
|  3> nprocs 16
|  4> end
|  5>
|  6> * xyz 0 1
|  7> S 	 -37.5972 	 20.3497 	 82.1869
|  8> C 	 -38.2474 	 18.8753 	 82.8657
|  9> C 	 -39.5721 	 19.0304 	 83.221
| 10> C 	 -40.0904 	 20.2746 	 82.8298
| 11> C 	 -39.1378 	 21.0629 	 82.1812
| 12> H 	 -41.0823 	 20.6421 	 83.042
| 13> C 	 -40.3861 	 18.0526 	 84.0442
| 14> H 	 -40.1582 	 17.0895 	 83.7521
| 15> H 	 -41.4233 	 18.1397 	 83.7182
| 16> C 	 -40.3885 	 18.3044 	 85.6184
| 17> H 	 -40.9139 	 17.4255 	 86.0111
| 18> H 	 -39.3304 	 18.1313 	 85.9635
| 19> C 	 -41.0652 	 19.669 	 86.0282
| 20> H 	 -41.998 	 19.7366 	 85.5318
| 21> H 	 -41.4259 	 19.4915 	 87.0362
| 22> H 	 -40.4835 	 20.5845 	 85.8485
| 23> S 	 -38.701 	 23.6051 	 82.5698
| 24> C 	 -39.4413 	 24.7628 	 81.5234
| 25> C 	 -40.4018 	 24.2089 	 80.6886
| 26> C 	 -40.4576 	 22.8056 	 80.8434
| 27> C 	 -39.4075 	 22.3378 	 81.6308
| 28> H 	 -41.0613 	 24.7803 	 80.0679
| 29> C 	 -41.4536 	 21.9728 	 80.084
| 30> H 	 -42.4224 	 22.1702 	 80.6327
| 31> H 	 -41.2193 	 20.9503 	 80.295
| 32> C 	 -41.5433 	 22.2901 	 78.6032
| 33> H 	 -40.5628 	 22.0032 	 78.1261
| 34> H 	 -41.6534 	 23.3152 	 78.3209
| 35> C 	 -42.7338 	 21.6245 	 77.9087
| 36> H 	 -42.5768 	 21.899 	 76.847
| 37> H 	 -43.6582 	 22.0031 	 78.3039
| 38> H 	 -42.7242 	 20.5506 	 78.1332
| 39> H 	 -37.7333 	 17.9537 	 83.0303
| 40> H 	 -39.19 	 25.7994 	 81.5676
| 41> *
| 42>
| 43>                          ****END OF INPUT****

CARTESIAN COORDINATES (ANGSTROEM)
---------------------------------
  S    -37.597200   20.349700   82.186900
  C    -38.247400   18.875300   82.865700
  C    -39.572100   19.030400   83.221000
  C    -40.090400   20.274600   82.829800
  C    -39.137800   21.062900   82.181200
  H    -41.082300   20.642100   83.042000
  C    -40.386100   18.052600   84.044200
  H    -40.158200   17.089500   83.752100
  H    -41.423300   18.139700   83.718200
  C    -40.388500   18.304400   85.618400
  H    -40.913900   17.425500   86.011100
  H    -39.330400   18.131300   85.963500
  C    -41.065200   19.669000   86.028200
  H    -41.998000   19.736600   85.531800
  H    -41.425900   19.491500   87.036200
  H    -40.483500   20.584500   85.848500
  S    -38.701000   23.605100   82.569800
  C    -39.441300   24.762800   81.523400
  C    -40.401800   24.208900   80.688600
  C    -40.457600   22.805600   80.843400
  C    -39.407500   22.337800   81.630800
  H    -41.061300   24.780300   80.067900
  C    -41.453600   21.972800   80.084000
  H    -42.422400   22.170200   80.632700
  H    -41.219300   20.950300   80.295000
  C    -41.543300   22.290100   78.603200
  H    -40.562800   22.003200   78.126100
  H    -41.653400   23.315200   78.320900
  C    -42.733800   21.624500   77.908700
  H    -42.576800   21.899000   76.847000
  H    -43.658200   22.003100   78.303900
  H    -42.724200   20.550600   78.133200
  H    -37.733300   17.953700   83.030300
  H    -39.190000   25.799400   81.567600

 Total Charge           Charge          ....    0
 Multiplicity           Mult            ....    1
 Number of Electrons    NEL             ....  134
 Basis Dimension        Dim             ....  322

ORBITAL ENERGIES
----------------

  NO   OCC          E(Eh)            E(eV)
   0   2.0000     -88.967246     -2420.9218
   1   2.0000     -88.961014     -2420.7523
   2   2.0000     -10.317590      -280.7559
   3   2.0000     -10.313494      -280.6444
   4   2.0000     -10.311089      -280.5790
   5   2.0000     -10.307498      -280.4813
   6   2.0000     -10.298116      -280.2260
   7   2.0000     -10.298091      -280.2253
   8   2.0000     -10.293167      -280.0913
   9   2.0000     -10.290224      -280.0112
  10   2.0000     -10.288912      -279.9755
  11   2.0000     -10.286475      -279.9092
  12   2.0000     -10.285189      -279.8742
  13   2.0000     -10.284951      -279.8678
  14   2.0000     -10.280737      -279.7531
  15   2.0000     -10.277867      -279.6750
  16   2.0000      -8.082750      -219.9428
  17   2.0000      -8.076986      -219.7860
  18   2.0000      -6.041070      -164.3859
  19   2.0000      -6.037163      -164.2796
  20   2.0000      -6.035373      -164.2309
  21   2.0000      -6.033654      -164.1841
  22   2.0000      -6.031480      -164.1249
  23   2.0000      -6.027657      -164.0209
  24   2.0000      -1.015027       -27.6203
  25   2.0000      -0.987783       -26.8789
  26   2.0000      -0.913082       -24.8462
  27   2.0000      -0.905011       -24.6266
  28   2.0000      -0.869280       -23.6543
  29   2.0000      -0.854830       -23.2611
  30   2.0000      -0.845880       -23.0176
  31   2.0000      -0.810014       -22.0416
  32   2.0000      -0.786007       -21.3884
  33   2.0000      -0.770379       -20.9631
  34   2.0000      -0.705592       -19.2001
  35   2.0000      -0.702269       -19.1097
  36   2.0000      -0.696917       -18.9641
  37   2.0000      -0.661379       -17.9970
  38   2.0000      -0.639931       -17.4134
  39   2.0000      -0.615711       -16.7543
  40   2.0000      -0.598386       -16.2829
  41   2.0000      -0.567447       -15.4410
  42   2.0000      -0.560676       -15.2568
  43   2.0000      -0.546297       -14.8655
  44   2.0000      -0.541150       -14.7254
  45   2.0000      -0.535599       -14.5744
  46   2.0000      -0.517137       -14.0720
  47   2.0000      -0.507192       -13.8014
  48   2.0000      -0.503321       -13.6961
  49   2.0000      -0.495733       -13.4896
  50   2.0000      -0.494489       -13.4557
  51   2.0000      -0.474331       -12.9072
  52   2.0000      -0.472721       -12.8634
  53   2.0000      -0.462831       -12.5943
  54   2.0000      -0.457762       -12.4563
  55   2.0000      -0.450052       -12.2465
  56   2.0000      -0.447848       -12.1866
  57   2.0000      -0.442709       -12.0467
  58   2.0000      -0.432893       -11.7796
  59   2.0000      -0.425454       -11.5772
  60   2.0000      -0.419678       -11.4200
  61   2.0000      -0.418257       -11.3814
  62   2.0000      -0.414058       -11.2671
  63   2.0000      -0.338266        -9.2047
  64   2.0000      -0.331057        -9.0085
  65   2.0000      -0.323165        -8.7938
  66   2.0000      -0.290280        -7.8989
  67   0.0000       0.033497         0.9115
  68   0.0000       0.068663         1.8684
  69   0.0000       0.110042         2.9944
  70   0.0000       0.123337         3.3562
  71   0.0000       0.132668         3.6101

MULLIKEN ATOMIC CHARGES
-----------------------
   0 S :    0.134461
   1 C :   -0.115857
   2 C :   -0.088537
   3 C :    0.026339
   4 C :   -0.179757
   5 H :    0.006293
   6 C :    0.088333
   7 H :   -0.003561
   8 H :    0.009628
   9 C :   -0.087234
  10 H :    0.031222
  11 H :    0.037244
  12 C :   -0.027025
  13 H :    0.010365
  14 H :    0.031112
  15 H :    0.070339
  16 S :    0.104698
  17 C :   -0.072582
  18 C :   -0.027369
  19 C :   -0.048405
  20 C :   -0.156504
  21 H :    0.008563
  22 C :    0.091946
  23 H :    0.034008
  24 H :    0.020641
  25 C :   -0.104597
  26 H :    0.039727
  27 H :    0.021666
  28 C :   -0.034182
  29 H :    0.045499
  30 H :    0.024584
  31 H :    0.032838
  32 H :    0.031047
  33 H :    0.045058
Sum of atomic charges:   -0.0000000

LOEWDIN ATOMIC CHARGES
----------------------
   0 S :    0.438173
   1 C :   -0.202488
   2 C :   -0.063125
   3 C :   -0.063651
   4 C :   -0.224875
   5 H :    0.028887
   6 C :   -0.030321
   7 H :    0.016077
   8 H :    0.026423
   9 C :   -0.034020
  10 H :    0.024809
  11 H :    0.027115
  12 C :   -0.066350
  13 H :    0.019618
  14 H :    0.031913
  15 H :    0.036067
  16 S :    0.424329
  17 C :   -0.182319
  18 C :   -0.066697
  19 C :   -0.050942
  20 C :   -0.214858
  21 H :    0.027827
  22 C :   -0.034376
  23 H :    0.038841
  24 H :    0.027673
  25 C :   -0.045021
  26 H :    0.032598
  27 H :    0.017897
  28 C :   -0.060539
  29 H :    0.033798
  30 H :    0.019843
  31 H :    0.024622
  32 H :    0.023358
  33 H :    0.019716

  Mayer bond orders larger than 0.100000
B(  0-S ,  1-C ) :   1.1397 B(  0-S ,  4-C ) :   1.1818 B(  1-C ,  2-C ) :   1.5930
B(  1-C ,  4-C ) :   0.1012 B(  1-C , 32-H ) :   0.9733 B(  2-C ,  3-C ) :   1.2724
B(  2-C ,  6-C ) :   1.0237 B(  3-C ,  4-C ) :   1.5175 B(  3-C ,  5-H ) :   1.0016
B(  4-C , 20-C ) :   1.0203 B(  6-C ,  7-H ) :   0.9346 B(  6-C ,  8-H ) :   0.9398
B(  6-C ,  9-C ) :   1.0611 B(  9-C , 10-H ) :   0.9585 B(  9-C , 11-H ) :   0.9593
B(  9-C , 12-C ) :   1.0638 B( 12-C , 13-H ) :   0.9706 B( 12-C , 14-H ) :   0.9709
B( 12-C , 15-H ) :   0.9735 B( 16-S , 17-C ) :   1.1693 B( 16-S , 20-C ) :   1.1611
B( 17-C , 18-C ) :   1.5809 B( 17-C , 20-C ) :   0.1057 B( 17-C , 33-H ) :   0.9722
B( 18-C , 19-C ) :   1.2454 B( 18-C , 21-H ) :   0.9986 B( 19-C , 20-C ) :   1.5816
B( 19-C , 22-C ) :   1.0443 B( 22-C , 23-H ) :   0.9246 B( 22-C , 24-H ) :   0.9302
B( 22-C , 25-C ) :   1.0650 B( 25-C , 26-H ) :   0.9524 B( 25-C , 27-H ) :   0.9567
B( 25-C , 28-C ) :   1.0792 B( 28-C , 29-H ) :   0.9750 B( 28-C , 30-H ) :   0.9754
B( 28-C , 31-H ) :   0.9754

Dispersion correction           -0.014429277
FINAL SINGLE POINT ENERGY     -1339.869410805800

DIPOLE MOMENT
-------------
                                X             Y             Z
Electronic contribution:     21.01067       9.76808       1.57392
Nuclear contribution   :    -21.66623      -9.93804      -1.51081
                        -----------------------------------------
Total Dipole Moment    :     -0.65555      -0.16996       0.06311
                        -----------------------------------------
Magnitude (a.u.)       :      0.68016
Magnitude (Debye)      :      1.72884

Rotational constants in cm-1:     0.017839     0.008583     0.007407
Rotational constants in MHz :   534.791967   257.303352   222.047894

                             ****ORCA TERMINATED NORMALLY****
TOTAL RUN TIME: 0 days 0 hours 0 minutes 30 seconds 264 msec
