                         Program Version 4.2.1 -  RELEASE  -
|  1> ! wB97X-D3 SP def2-SVP
|  2> %pal
|  3> nprocs 16
|  4> end
|  5>
|  6> * xyz 0 1
|  7> S 	 -13.5135 	 32.5302 	 36.5623
|  8> C 	 -12.4621 	 32.394 	 35.2454
|  9> C 	 -13.1041 	 31.8657 	 34.127
| 10> C 	 -14.4578 	 31.5927 	 34.394
| 11> C 	 -14.8904 	 32.0413 	 35.5899
| 12> H 	 -15.1303 	 31.1364 	 33.6911
| 13> C 	 -12.419 	 31.6052 	 32.8097
| 14> H 	 -12.326 	 30.503 	 32.7097
| 15> H 	 -11.3492 	 32.0194 	 32.7898
| 16> C 	 -13.1304 	 32.1888 	 31.5551
| 17> H 	 -14.0222 	 31.6242 	 31.2376
| 18> H 	 -13.5319 	 33.1589 	 31.9533
| 19> C 	 -12.1561 	 32.5017 	 30.42
| 20> H 	 -11.3419 	 31.7682 	 30.2505
| 21> H 	 -12.645 	 32.6428 	 29.3994
| 22> H 	 -11.7098 	 33.4194 	 30.7453
| 23> S 	 -16.7653 	 33.499 	 36.9023
| 24> C 	 -18.3915 	 33.0675 	 36.8214
| 25> C 	 -18.611 	 31.8203 	 36.3213
| 26> C 	 -17.3948 	 31.1908 	 35.8172
| 27> C 	 -16.2578 	 32.036 	 36.0761
| 28> H 	 -19.6113 	 31.4195 	 36.4698
| 29> C 	 -17.2858 	 29.8333 	 35.1314
| 30> H 	 -17.7836 	 29.037 	 35.7156
| 31> H 	 -16.2124 	 29.5483 	 35.0996
| 32> C 	 -17.9393 	 29.6167 	 33.7832
| 33> H 	 -17.7437 	 28.5749 	 33.4554
| 34> H 	 -17.471 	 30.3768 	 33.2232
| 35> C 	 -19.434 	 29.8529 	 33.7204
| 36> H 	 -19.8908 	 29.3387 	 34.5482
| 37> H 	 -19.8855 	 29.3929 	 32.8548
| 38> H 	 -19.6077 	 30.9621 	 33.7218
| 39> H 	 -11.4189 	 32.513 	 35.2345
| 40> H 	 -19.1258 	 33.641 	 37.311
| 41> *
| 42>
| 43>                          ****END OF INPUT****

CARTESIAN COORDINATES (ANGSTROEM)
---------------------------------
  S    -13.513500   32.530200   36.562300
  C    -12.462100   32.394000   35.245400
  C    -13.104100   31.865700   34.127000
  C    -14.457800   31.592700   34.394000
  C    -14.890400   32.041300   35.589900
  H    -15.130300   31.136400   33.691100
  C    -12.419000   31.605200   32.809700
  H    -12.326000   30.503000   32.709700
  H    -11.349200   32.019400   32.789800
  C    -13.130400   32.188800   31.555100
  H    -14.022200   31.624200   31.237600
  H    -13.531900   33.158900   31.953300
  C    -12.156100   32.501700   30.420000
  H    -11.341900   31.768200   30.250500
  H    -12.645000   32.642800   29.399400
  H    -11.709800   33.419400   30.745300
  S    -16.765300   33.499000   36.902300
  C    -18.391500   33.067500   36.821400
  C    -18.611000   31.820300   36.321300
  C    -17.394800   31.190800   35.817200
  C    -16.257800   32.036000   36.076100
  H    -19.611300   31.419500   36.469800
  C    -17.285800   29.833300   35.131400
  H    -17.783600   29.037000   35.715600
  H    -16.212400   29.548300   35.099600
  C    -17.939300   29.616700   33.783200
  H    -17.743700   28.574900   33.455400
  H    -17.471000   30.376800   33.223200
  C    -19.434000   29.852900   33.720400
  H    -19.890800   29.338700   34.548200
  H    -19.885500   29.392900   32.854800
  H    -19.607700   30.962100   33.721800
  H    -11.418900   32.513000   35.234500
  H    -19.125800   33.641000   37.311000

 Total Charge           Charge          ....    0
 Multiplicity           Mult            ....    1
 Number of Electrons    NEL             ....  134
 Basis Dimension        Dim             ....  322

ORBITAL ENERGIES
----------------

  NO   OCC          E(Eh)            E(eV)
   0   2.0000     -88.966894     -2420.9123
   1   2.0000     -88.964226     -2420.8397
   2   2.0000     -10.331456      -281.1332
   3   2.0000     -10.326246      -280.9914
   4   2.0000     -10.316138      -280.7164
   5   2.0000     -10.307862      -280.4912
   6   2.0000     -10.306121      -280.4438
   7   2.0000     -10.299986      -280.2769
   8   2.0000     -10.296736      -280.1884
   9   2.0000     -10.296168      -280.1730
  10   2.0000     -10.292983      -280.0863
  11   2.0000     -10.291120      -280.0356
  12   2.0000     -10.287104      -279.9263
  13   2.0000     -10.283923      -279.8398
  14   2.0000     -10.281639      -279.7776
  15   2.0000     -10.276327      -279.6331
  16   2.0000      -8.082514      -219.9364
  17   2.0000      -8.080403      -219.8789
  18   2.0000      -6.040954      -164.3827
  19   2.0000      -6.038702      -164.3214
  20   2.0000      -6.036940      -164.2735
  21   2.0000      -6.034660      -164.2115
  22   2.0000      -6.033255      -164.1732
  23   2.0000      -6.031342      -164.1211
  24   2.0000      -1.014094       -27.5949
  25   2.0000      -0.991261       -26.9736
  26   2.0000      -0.916413       -24.9369
  27   2.0000      -0.909135       -24.7388
  28   2.0000      -0.875119       -23.8132
  29   2.0000      -0.854783       -23.2598
  30   2.0000      -0.846516       -23.0349
  31   2.0000      -0.819169       -22.2907
  32   2.0000      -0.786011       -21.3885
  33   2.0000      -0.768869       -20.9220
  34   2.0000      -0.711125       -19.3507
  35   2.0000      -0.691804       -18.8249
  36   2.0000      -0.688573       -18.7370
  37   2.0000      -0.659872       -17.9560
  38   2.0000      -0.639698       -17.4071
  39   2.0000      -0.627111       -17.0646
  40   2.0000      -0.602218       -16.3872
  41   2.0000      -0.570406       -15.5215
  42   2.0000      -0.566463       -15.4142
  43   2.0000      -0.561352       -15.2752
  44   2.0000      -0.547766       -14.9055
  45   2.0000      -0.518406       -14.1065
  46   2.0000      -0.515845       -14.0369
  47   2.0000      -0.506762       -13.7897
  48   2.0000      -0.504571       -13.7301
  49   2.0000      -0.499090       -13.5809
  50   2.0000      -0.495980       -13.4963
  51   2.0000      -0.486170       -13.2294
  52   2.0000      -0.473707       -12.8902
  53   2.0000      -0.466446       -12.6926
  54   2.0000      -0.463153       -12.6030
  55   2.0000      -0.451881       -12.2963
  56   2.0000      -0.445891       -12.1333
  57   2.0000      -0.434105       -11.8126
  58   2.0000      -0.430858       -11.7242
  59   2.0000      -0.423728       -11.5302
  60   2.0000      -0.419550       -11.4165
  61   2.0000      -0.412749       -11.2315
  62   2.0000      -0.412197       -11.2164
  63   2.0000      -0.358658        -9.7596
  64   2.0000      -0.332138        -9.0379
  65   2.0000      -0.327383        -8.9085
  66   2.0000      -0.285257        -7.7622
  67   0.0000       0.028045         0.7631
  68   0.0000       0.077183         2.1003
  69   0.0000       0.115273         3.1367
  70   0.0000       0.119024         3.2388
  71   0.0000       0.130288         3.5453

MULLIKEN ATOMIC CHARGES
-----------------------
   0 S :    0.122585
   1 C :   -0.085474
   2 C :   -0.103756
   3 C :    0.012422
   4 C :   -0.114407
   5 H :   -0.001680
   6 C :    0.036249
   7 H :    0.044877
   8 H :    0.027483
   9 C :   -0.100145
  10 H :    0.038018
  11 H :    0.041057
  12 C :   -0.070383
  13 H :    0.039364
  14 H :    0.046953
  15 H :    0.033830
  16 S :    0.110611
  17 C :   -0.075322
  18 C :   -0.040541
  19 C :   -0.032865
  20 C :   -0.154757
  21 H :    0.026967
  22 C :    0.024114
  23 H :    0.022928
  24 H :    0.038131
  25 C :   -0.059946
  26 H :    0.038071
  27 H :    0.015313
  28 C :   -0.045644
  29 H :    0.015314
  30 H :    0.031461
  31 H :    0.051359
  32 H :    0.025154
  33 H :    0.042662
Sum of atomic charges:   -0.0000000

LOEWDIN ATOMIC CHARGES
----------------------
   0 S :    0.426535
   1 C :   -0.209337
   2 C :   -0.067516
   3 C :   -0.063233
   4 C :   -0.193512
   5 H :    0.028759
   6 C :   -0.038106
   7 H :    0.034819
   8 H :    0.035962
   9 C :   -0.050162
  10 H :    0.021284
  11 H :    0.030662
  12 C :   -0.073400
  13 H :    0.025820
  14 H :    0.035382
  15 H :    0.024857
  16 S :    0.433439
  17 C :   -0.197851
  18 C :   -0.075906
  19 C :   -0.048895
  20 C :   -0.196095
  21 H :    0.036041
  22 C :   -0.042254
  23 H :    0.030546
  24 H :    0.035912
  25 C :   -0.041093
  26 H :    0.030174
  27 H :    0.013612
  28 C :   -0.065686
  29 H :    0.018117
  30 H :    0.025945
  31 H :    0.034950
  32 H :    0.020145
  33 H :    0.020084

  Mayer bond orders larger than 0.100000
B(  0-S ,  1-C ) :   1.1484 B(  0-S ,  4-C ) :   1.1514 B(  1-C ,  2-C ) :   1.5949
B(  1-C , 32-H ) :   0.9701 B(  2-C ,  3-C ) :   1.2592 B(  2-C ,  6-C ) :   1.0338
B(  3-C ,  4-C ) :   1.5638 B(  3-C ,  5-H ) :   1.0008 B(  4-C , 20-C ) :   1.0389
B(  6-C ,  7-H ) :   0.9275 B(  6-C ,  8-H ) :   0.9485 B(  6-C ,  9-C ) :   1.0414
B(  9-C , 10-H ) :   0.9542 B(  9-C , 11-H ) :   0.9686 B(  9-C , 12-C ) :   1.0705
B( 12-C , 13-H ) :   0.9768 B( 12-C , 14-H ) :   0.9749 B( 12-C , 15-H ) :   0.9772
B( 16-S , 17-C ) :   1.1781 B( 16-S , 20-C ) :   1.1552 B( 17-C , 18-C ) :   1.6081
B( 17-C , 33-H ) :   0.9666 B( 18-C , 19-C ) :   1.2289 B( 18-C , 21-H ) :   0.9899
B( 19-C , 20-C ) :   1.5621 B( 19-C , 22-C ) :   1.0453 B( 22-C , 23-H ) :   0.9328
B( 22-C , 24-H ) :   0.9366 B( 22-C , 25-C ) :   1.0660 B( 25-C , 26-H ) :   0.9534
B( 25-C , 27-H ) :   0.9498 B( 25-C , 28-C ) :   1.0947 B( 28-C , 29-H ) :   0.9723
B( 28-C , 30-H ) :   0.9707 B( 28-C , 31-H ) :   0.9691

Dispersion correction           -0.014148978
FINAL SINGLE POINT ENERGY     -1339.876686317739

DIPOLE MOMENT
-------------
                                X             Y             Z
Electronic contribution:      2.23110      11.90277      26.24483
Nuclear contribution   :     -2.39364     -12.26026     -26.71145
                        -----------------------------------------
Total Dipole Moment    :     -0.16254      -0.35750      -0.46662
                        -----------------------------------------
Magnitude (a.u.)       :      0.60988
Magnitude (Debye)      :      1.55020

Rotational constants in cm-1:     0.017488     0.008871     0.006641
Rotational constants in MHz :   524.284804   265.957230   199.105858

                             ****ORCA TERMINATED NORMALLY****
TOTAL RUN TIME: 0 days 0 hours 0 minutes 33 seconds 527 msec
