                         Program Version 4.2.1 -  RELEASE  -
|  1> ! wB97X-D3 SP def2-SVP
|  2> %pal
|  3> nprocs 16
|  4> end
|  5>
|  6> * xyz 0 1
|  7> S 	 -101.504 	 48.3534 	 118.589
|  8> C 	 -102.747 	 49.5455 	 119.111
|  9> C 	 -103.611 	 49.0277 	 120.109
| 10> C 	 -103.106 	 47.7495 	 120.538
| 11> C 	 -101.913 	 47.3753 	 119.958
| 12> H 	 -103.384 	 47.2679 	 121.48
| 13> C 	 -104.794 	 49.725 	 120.821
| 14> H 	 -105.451 	 48.8771 	 121.027
| 15> H 	 -105.282 	 50.2878 	 120.05
| 16> C 	 -104.534 	 50.5826 	 122.078
| 17> H 	 -105.557 	 50.8537 	 122.331
| 18> H 	 -104.301 	 50.0082 	 122.975
| 19> C 	 -103.666 	 51.8204 	 121.978
| 20> H 	 -102.671 	 51.4516 	 121.973
| 21> H 	 -103.864 	 52.3798 	 121.07
| 22> H 	 -103.759 	 52.5986 	 122.809
| 23> S 	 -101.891 	 44.6795 	 120.596
| 24> C 	 -100.404 	 43.9505 	 121.05
| 25> C 	 -99.3386 	 44.8127 	 120.912
| 26> C 	 -99.7111 	 46.1224 	 120.488
| 27> C 	 -101.079 	 46.2896 	 120.442
| 28> H 	 -98.3221 	 44.4159 	 120.985
| 29> C 	 -98.7173 	 47.1274 	 119.992
| 30> H 	 -99.045 	 48.0877 	 120.232
| 31> H 	 -98.7317 	 47.1881 	 118.929
| 32> C 	 -97.2876 	 47.0792 	 120.492
| 33> H 	 -96.668 	 47.8364 	 119.916
| 34> H 	 -97.0422 	 46.1764 	 119.98
| 35> C 	 -97.0753 	 47.1075 	 122.02
| 36> H 	 -97.5731 	 46.4062 	 122.712
| 37> H 	 -97.265 	 48.0331 	 122.464
| 38> H 	 -96.0037 	 47.0086 	 122.167
| 39> H 	 -102.844 	 50.4989 	 118.794
| 40> H 	 -100.389 	 42.8491 	 121.247
| 41> *
| 42>
| 43>                          ****END OF INPUT****

CARTESIAN COORDINATES (ANGSTROEM)
---------------------------------
  S    -101.504000   48.353400  118.589000
  C    -102.747000   49.545500  119.111000
  C    -103.611000   49.027700  120.109000
  C    -103.106000   47.749500  120.538000
  C    -101.913000   47.375300  119.958000
  H    -103.384000   47.267900  121.480000
  C    -104.794000   49.725000  120.821000
  H    -105.451000   48.877100  121.027000
  H    -105.282000   50.287800  120.050000
  C    -104.534000   50.582600  122.078000
  H    -105.557000   50.853700  122.331000
  H    -104.301000   50.008200  122.975000
  C    -103.666000   51.820400  121.978000
  H    -102.671000   51.451600  121.973000
  H    -103.864000   52.379800  121.070000
  H    -103.759000   52.598600  122.809000
  S    -101.891000   44.679500  120.596000
  C    -100.404000   43.950500  121.050000
  C    -99.338600   44.812700  120.912000
  C    -99.711100   46.122400  120.488000
  C    -101.079000   46.289600  120.442000
  H    -98.322100   44.415900  120.985000
  C    -98.717300   47.127400  119.992000
  H    -99.045000   48.087700  120.232000
  H    -98.731700   47.188100  118.929000
  C    -97.287600   47.079200  120.492000
  H    -96.668000   47.836400  119.916000
  H    -97.042200   46.176400  119.980000
  C    -97.075300   47.107500  122.020000
  H    -97.573100   46.406200  122.712000
  H    -97.265000   48.033100  122.464000
  H    -96.003700   47.008600  122.167000
  H    -102.844000   50.498900  118.794000
  H    -100.389000   42.849100  121.247000

 Total Charge           Charge          ....    0
 Multiplicity           Mult            ....    1
 Number of Electrons    NEL             ....  134
 Basis Dimension        Dim             ....  322

ORBITAL ENERGIES
----------------

  NO   OCC          E(Eh)            E(eV)
   0   2.0000     -88.968478     -2420.9554
   1   2.0000     -88.961947     -2420.7777
   2   2.0000     -10.324465      -280.9430
   3   2.0000     -10.324265      -280.9375
   4   2.0000     -10.318644      -280.7846
   5   2.0000     -10.309931      -280.5475
   6   2.0000     -10.305401      -280.4242
   7   2.0000     -10.303304      -280.3672
   8   2.0000     -10.297690      -280.2144
   9   2.0000     -10.293284      -280.0945
  10   2.0000     -10.288873      -279.9745
  11   2.0000     -10.288818      -279.9730
  12   2.0000     -10.288371      -279.9608
  13   2.0000     -10.280096      -279.7356
  14   2.0000     -10.276893      -279.6485
  15   2.0000     -10.275243      -279.6036
  16   2.0000      -8.082176      -219.9272
  17   2.0000      -8.076606      -219.7756
  18   2.0000      -6.040721      -164.3764
  19   2.0000      -6.037010      -164.2754
  20   2.0000      -6.035097      -164.2233
  21   2.0000      -6.032801      -164.1609
  22   2.0000      -6.031194      -164.1171
  23   2.0000      -6.027323      -164.0118
  24   2.0000      -1.003282       -27.3007
  25   2.0000      -0.978612       -26.6294
  26   2.0000      -0.913766       -24.8648
  27   2.0000      -0.909117       -24.7383
  28   2.0000      -0.866164       -23.5695
  29   2.0000      -0.848338       -23.0845
  30   2.0000      -0.844457       -22.9788
  31   2.0000      -0.808844       -22.0098
  32   2.0000      -0.793076       -21.5807
  33   2.0000      -0.780654       -21.2427
  34   2.0000      -0.710638       -19.3375
  35   2.0000      -0.705676       -19.2024
  36   2.0000      -0.693855       -18.8808
  37   2.0000      -0.657941       -17.9035
  38   2.0000      -0.629762       -17.1367
  39   2.0000      -0.614774       -16.7288
  40   2.0000      -0.601575       -16.3697
  41   2.0000      -0.562902       -15.3173
  42   2.0000      -0.556679       -15.1480
  43   2.0000      -0.548429       -14.9235
  44   2.0000      -0.538449       -14.6519
  45   2.0000      -0.535605       -14.5745
  46   2.0000      -0.519376       -14.1329
  47   2.0000      -0.511086       -13.9074
  48   2.0000      -0.503357       -13.6970
  49   2.0000      -0.500776       -13.6268
  50   2.0000      -0.485075       -13.1996
  51   2.0000      -0.477222       -12.9859
  52   2.0000      -0.471614       -12.8333
  53   2.0000      -0.465481       -12.6664
  54   2.0000      -0.458935       -12.4882
  55   2.0000      -0.450165       -12.2496
  56   2.0000      -0.447283       -12.1712
  57   2.0000      -0.441008       -12.0004
  58   2.0000      -0.436204       -11.8697
  59   2.0000      -0.427909       -11.6440
  60   2.0000      -0.421710       -11.4753
  61   2.0000      -0.407070       -11.0769
  62   2.0000      -0.399539       -10.8720
  63   2.0000      -0.341747        -9.2994
  64   2.0000      -0.331773        -9.0280
  65   2.0000      -0.326734        -8.8909
  66   2.0000      -0.286321        -7.7912
  67   0.0000       0.022989         0.6256
  68   0.0000       0.074409         2.0248
  69   0.0000       0.097680         2.6580
  70   0.0000       0.112664         3.0658
  71   0.0000       0.126270         3.4360

MULLIKEN ATOMIC CHARGES
-----------------------
   0 S :    0.109729
   1 C :   -0.085119
   2 C :   -0.110230
   3 C :    0.010686
   4 C :   -0.152138
   5 H :    0.022236
   6 C :    0.073434
   7 H :    0.032927
   8 H :    0.022197
   9 C :   -0.046800
  10 H :    0.018823
  11 H :    0.024681
  12 C :   -0.050767
  13 H :    0.040144
  14 H :    0.024485
  15 H :    0.046759
  16 S :    0.095185
  17 C :   -0.110301
  18 C :   -0.046600
  19 C :   -0.045954
  20 C :   -0.136883
  21 H :    0.028451
  22 C :    0.092192
  23 H :    0.001272
  24 H :    0.029574
  25 C :   -0.076191
  26 H :    0.037066
  27 H :    0.013514
  28 C :   -0.022875
  29 H :    0.045257
  30 H :    0.015238
  31 H :    0.026381
  32 H :   -0.003907
  33 H :    0.077534
Sum of atomic charges:   -0.0000000

LOEWDIN ATOMIC CHARGES
----------------------
   0 S :    0.399969
   1 C :   -0.174148
   2 C :   -0.052525
   3 C :   -0.074348
   4 C :   -0.196990
   5 H :    0.031110
   6 C :   -0.026862
   7 H :    0.039389
   8 H :    0.028963
   9 C :   -0.044147
  10 H :    0.025247
  11 H :    0.025934
  12 C :   -0.067736
  13 H :    0.024647
  14 H :    0.022389
  15 H :    0.038335
  16 S :    0.397100
  17 C :   -0.194395
  18 C :   -0.081217
  19 C :   -0.049077
  20 C :   -0.180368
  21 H :    0.034955
  22 C :   -0.039687
  23 H :    0.017328
  24 H :    0.029672
  25 C :   -0.042811
  26 H :    0.038000
  27 H :    0.017230
  28 C :   -0.067907
  29 H :    0.033561
  30 H :    0.019764
  31 H :    0.030542
  32 H :   -0.000056
  33 H :    0.038140

  Mayer bond orders larger than 0.100000
B(  0-S ,  1-C ) :   1.1213 B(  0-S ,  4-C ) :   1.1352 B(  1-C ,  2-C ) :   1.6201
B(  1-C , 32-H ) :   0.9828 B(  2-C ,  3-C ) :   1.2297 B(  2-C ,  6-C ) :   1.0133
B(  3-C ,  4-C ) :   1.5862 B(  3-C ,  5-H ) :   0.9839 B(  4-C , 20-C ) :   1.0595
B(  6-C ,  7-H ) :   0.9374 B(  6-C ,  8-H ) :   0.9379 B(  6-C ,  9-C ) :   1.0731
B(  9-C , 10-H ) :   0.9484 B(  9-C , 11-H ) :   0.9557 B(  9-C , 12-C ) :   1.0700
B( 12-C , 13-H ) :   0.9760 B( 12-C , 14-H ) :   0.9748 B( 12-C , 15-H ) :   0.9732
B( 16-S , 17-C ) :   1.1737 B( 16-S , 20-C ) :   1.1239 B( 17-C , 18-C ) :   1.5900
B( 17-C , 33-H ) :   0.9594 B( 18-C , 19-C ) :   1.2340 B( 18-C , 21-H ) :   0.9899
B( 19-C , 20-C ) :   1.5945 B( 19-C , 22-C ) :   1.0388 B( 22-C , 23-H ) :   0.9145
B( 22-C , 24-H ) :   0.9250 B( 22-C , 25-C ) :   1.0736 B( 25-C , 26-H ) :   0.9499
B( 25-C , 27-H ) :   0.9535 B( 25-C , 28-C ) :   1.0668 B( 28-C , 29-H ) :   0.9752
B( 28-C , 30-H ) :   0.9728 B( 28-C , 31-H ) :   0.9719

Dispersion correction           -0.014338085
FINAL SINGLE POINT ENERGY     -1339.849671835650

DIPOLE MOMENT
-------------
                                X             Y             Z
Electronic contribution:     -5.95824     -16.32356     -11.85811
Nuclear contribution   :      6.12882      16.61244      12.11834
                        -----------------------------------------
Total Dipole Moment    :      0.17057       0.28889       0.26023
                        -----------------------------------------
Magnitude (a.u.)       :      0.42458
Magnitude (Debye)      :      1.07920

Rotational constants in cm-1:     0.019944     0.007858     0.006912
Rotational constants in MHz :   597.908529   235.565438   207.204598

                             ****ORCA TERMINATED NORMALLY****
TOTAL RUN TIME: 0 days 0 hours 0 minutes 31 seconds 111 msec
