                         Program Version 4.2.1 -  RELEASE  -
|  1> ! wB97X-D3 SP def2-SVP
|  2> %pal
|  3> nprocs 16
|  4> end
|  5>
|  6> * xyz 0 1
|  7> S 	 -8.39346 	 76.0549 	 48.4612
|  8> C 	 -6.70289 	 76.0741 	 48.9397
|  9> C 	 -6.01606 	 75.1826 	 48.1806
| 10> C 	 -6.82691 	 74.2956 	 47.3597
| 11> C 	 -8.15421 	 74.6478 	 47.4164
| 12> H 	 -6.43223 	 73.562 	 46.6556
| 13> C 	 -4.50662 	 75.1043 	 48.1138
| 14> H 	 -4.08316 	 75.3989 	 47.1557
| 15> H 	 -4.11766 	 74.0651 	 48.292
| 16> C 	 -3.65771 	 76.0897 	 48.9518
| 17> H 	 -4.14655 	 77.04 	 48.7967
| 18> H 	 -3.91523 	 75.7291 	 49.9159
| 19> C 	 -2.17881 	 76.0852 	 48.6634
| 20> H 	 -1.95867 	 76.0075 	 47.6095
| 21> H 	 -1.85223 	 76.9815 	 49.0574
| 22> H 	 -1.66701 	 75.2316 	 49.1439
| 23> S 	 -9.98859 	 72.6992 	 47.1138
| 24> C 	 -11.0757 	 72.6297 	 45.723
| 25> C 	 -10.9553 	 73.8374 	 45.0605
| 26> C 	 -9.92331 	 74.7021 	 45.5216
| 27> C 	 -9.2388 	 74.1481 	 46.5838
| 28> H 	 -11.6926 	 74.0621 	 44.2876
| 29> C 	 -9.536 	 76.0363 	 44.8521
| 30> H 	 -9.67326 	 75.9527 	 43.7516
| 31> H 	 -8.44405 	 76.0355 	 45.0044
| 32> C 	 -10.0656 	 77.3337 	 45.564
| 33> H 	 -9.9841 	 77.0912 	 46.6339
| 34> H 	 -11.0716 	 77.504 	 45.3389
| 35> C 	 -9.31868 	 78.6316 	 45.2202
| 36> H 	 -9.71076 	 79.5039 	 45.6976
| 37> H 	 -9.31947 	 78.8382 	 44.1789
| 38> H 	 -8.26135 	 78.5801 	 45.5199
| 39> H 	 -6.11852 	 76.7534 	 49.5853
| 40> H 	 -11.7384 	 71.7562 	 45.5031
| 41> *
| 42>
| 43>                          ****END OF INPUT****

CARTESIAN COORDINATES (ANGSTROEM)
---------------------------------
  S     -8.393460   76.054900   48.461200
  C     -6.702890   76.074100   48.939700
  C     -6.016060   75.182600   48.180600
  C     -6.826910   74.295600   47.359700
  C     -8.154210   74.647800   47.416400
  H     -6.432230   73.562000   46.655600
  C     -4.506620   75.104300   48.113800
  H     -4.083160   75.398900   47.155700
  H     -4.117660   74.065100   48.292000
  C     -3.657710   76.089700   48.951800
  H     -4.146550   77.040000   48.796700
  H     -3.915230   75.729100   49.915900
  C     -2.178810   76.085200   48.663400
  H     -1.958670   76.007500   47.609500
  H     -1.852230   76.981500   49.057400
  H     -1.667010   75.231600   49.143900
  S     -9.988590   72.699200   47.113800
  C    -11.075700   72.629700   45.723000
  C    -10.955300   73.837400   45.060500
  C     -9.923310   74.702100   45.521600
  C     -9.238800   74.148100   46.583800
  H    -11.692600   74.062100   44.287600
  C     -9.536000   76.036300   44.852100
  H     -9.673260   75.952700   43.751600
  H     -8.444050   76.035500   45.004400
  C    -10.065600   77.333700   45.564000
  H     -9.984100   77.091200   46.633900
  H    -11.071600   77.504000   45.338900
  C     -9.318680   78.631600   45.220200
  H     -9.710760   79.503900   45.697600
  H     -9.319470   78.838200   44.178900
  H     -8.261350   78.580100   45.519900
  H     -6.118520   76.753400   49.585300
  H    -11.738400   71.756200   45.503100

 Total Charge           Charge          ....    0
 Multiplicity           Mult            ....    1
 Number of Electrons    NEL             ....  134
 Basis Dimension        Dim             ....  322

ORBITAL ENERGIES
----------------

  NO   OCC          E(Eh)            E(eV)
   0   2.0000     -88.968964     -2420.9686
   1   2.0000     -88.961023     -2420.7525
   2   2.0000     -10.332989      -281.1749
   3   2.0000     -10.321814      -280.8708
   4   2.0000     -10.320988      -280.8484
   5   2.0000     -10.316016      -280.7131
   6   2.0000     -10.302851      -280.3548
   7   2.0000     -10.302423      -280.3432
   8   2.0000     -10.300385      -280.2877
   9   2.0000     -10.295051      -280.1426
  10   2.0000     -10.293942      -280.1124
  11   2.0000     -10.290762      -280.0259
  12   2.0000     -10.281435      -279.7721
  13   2.0000     -10.280660      -279.7510
  14   2.0000     -10.277297      -279.6595
  15   2.0000     -10.269442      -279.4457
  16   2.0000      -8.082568      -219.9379
  17   2.0000      -8.076338      -219.7683
  18   2.0000      -6.041291      -164.3919
  19   2.0000      -6.037275      -164.2826
  20   2.0000      -6.034808      -164.2155
  21   2.0000      -6.033090      -164.1687
  22   2.0000      -6.030611      -164.1013
  23   2.0000      -6.027244      -164.0096
  24   2.0000      -1.009433       -27.4681
  25   2.0000      -0.986017       -26.8309
  26   2.0000      -0.917580       -24.9686
  27   2.0000      -0.898683       -24.4544
  28   2.0000      -0.873275       -23.7630
  29   2.0000      -0.850143       -23.1336
  30   2.0000      -0.846652       -23.0386
  31   2.0000      -0.817984       -22.2585
  32   2.0000      -0.782510       -21.2932
  33   2.0000      -0.770450       -20.9650
  34   2.0000      -0.713005       -19.4019
  35   2.0000      -0.701798       -19.0969
  36   2.0000      -0.691666       -18.8212
  37   2.0000      -0.659899       -17.9568
  38   2.0000      -0.637268       -17.3410
  39   2.0000      -0.612802       -16.6752
  40   2.0000      -0.591139       -16.0857
  41   2.0000      -0.578962       -15.7543
  42   2.0000      -0.571430       -15.5494
  43   2.0000      -0.562341       -15.3021
  44   2.0000      -0.528819       -14.3899
  45   2.0000      -0.520821       -14.1723
  46   2.0000      -0.516122       -14.0444
  47   2.0000      -0.514309       -13.9951
  48   2.0000      -0.507996       -13.8233
  49   2.0000      -0.499196       -13.5838
  50   2.0000      -0.495365       -13.4796
  51   2.0000      -0.485324       -13.2063
  52   2.0000      -0.474393       -12.9089
  53   2.0000      -0.467557       -12.7229
  54   2.0000      -0.456340       -12.4176
  55   2.0000      -0.455324       -12.3900
  56   2.0000      -0.440946       -11.9987
  57   2.0000      -0.434805       -11.8316
  58   2.0000      -0.429907       -11.6984
  59   2.0000      -0.421749       -11.4764
  60   2.0000      -0.419265       -11.4088
  61   2.0000      -0.414062       -11.2672
  62   2.0000      -0.404050       -10.9948
  63   2.0000      -0.336510        -9.1569
  64   2.0000      -0.332479        -9.0472
  65   2.0000      -0.321785        -8.7562
  66   2.0000      -0.310468        -8.4483
  67   0.0000       0.039161         1.0656
  68   0.0000       0.060252         1.6395
  69   0.0000       0.106265         2.8916
  70   0.0000       0.123040         3.3481
  71   0.0000       0.134233         3.6527

MULLIKEN ATOMIC CHARGES
-----------------------
   0 S :    0.107568
   1 C :   -0.111969
   2 C :   -0.087647
   3 C :    0.056663
   4 C :   -0.143965
   5 H :    0.027494
   6 C :    0.008071
   7 H :    0.021467
   8 H :    0.037040
   9 C :   -0.130130
  10 H :    0.029945
  11 H :    0.023782
  12 C :    0.025501
  13 H :    0.025177
  14 H :    0.023085
  15 H :    0.037637
  16 S :    0.107689
  17 C :   -0.125991
  18 C :   -0.042778
  19 C :   -0.019477
  20 C :   -0.193819
  21 H :    0.023347
  22 C :    0.049868
  23 H :    0.033190
  24 H :    0.027473
  25 C :   -0.035746
  26 H :    0.027484
  27 H :    0.016702
  28 C :   -0.031258
  29 H :    0.027374
  30 H :    0.020633
  31 H :    0.026659
  32 H :    0.057865
  33 H :    0.081065
Sum of atomic charges:   -0.0000000

LOEWDIN ATOMIC CHARGES
----------------------
   0 S :    0.409686
   1 C :   -0.205303
   2 C :   -0.065706
   3 C :   -0.047971
   4 C :   -0.189034
   5 H :    0.039521
   6 C :   -0.041997
   7 H :    0.026663
   8 H :    0.031889
   9 C :   -0.044611
  10 H :    0.018818
  11 H :    0.017742
  12 C :   -0.050922
  13 H :    0.024575
  14 H :    0.022074
  15 H :    0.033852
  16 S :    0.418765
  17 C :   -0.192462
  18 C :   -0.075289
  19 C :   -0.061441
  20 C :   -0.216487
  21 H :    0.033106
  22 C :   -0.033238
  23 H :    0.031256
  24 H :    0.034459
  25 C :   -0.035303
  26 H :    0.012920
  27 H :    0.014339
  28 C :   -0.061950
  29 H :    0.024524
  30 H :    0.019528
  31 H :    0.025963
  32 H :    0.039743
  33 H :    0.042289

  Mayer bond orders larger than 0.100000
B(  0-S ,  1-C ) :   1.1066 B(  0-S ,  4-C ) :   1.1358 B(  1-C ,  2-C ) :   1.6722
B(  1-C , 32-H ) :   0.9501 B(  2-C ,  3-C ) :   1.2086 B(  2-C ,  6-C ) :   1.0167
B(  3-C ,  4-C ) :   1.6098 B(  3-C ,  5-H ) :   0.9947 B(  4-C , 20-C ) :   1.0008
B(  6-C ,  7-H ) :   0.9413 B(  6-C ,  8-H ) :   0.9444 B(  6-C ,  9-C ) :   1.0593
B(  9-C , 10-H ) :   0.9524 B(  9-C , 11-H ) :   0.9539 B(  9-C , 12-C ) :   1.0841
B( 12-C , 13-H ) :   0.9726 B( 12-C , 14-H ) :   0.9699 B( 12-C , 15-H ) :   0.9717
B( 16-S , 17-C ) :   1.1555 B( 16-S , 20-C ) :   1.1757 B( 17-C , 18-C ) :   1.5816
B( 17-C , 20-C ) :   0.1076 B( 17-C , 33-H ) :   0.9673 B( 18-C , 19-C ) :   1.2557
B( 18-C , 21-H ) :   0.9905 B( 19-C , 20-C ) :   1.5788 B( 19-C , 22-C ) :   1.0322
B( 22-C , 23-H ) :   0.9422 B( 22-C , 24-H ) :   0.9343 B( 22-C , 25-C ) :   1.0473
B( 25-C , 26-H ) :   0.9493 B( 25-C , 27-H ) :   0.9548 B( 25-C , 28-C ) :   1.0873
B( 28-C , 29-H ) :   0.9735 B( 28-C , 30-H ) :   0.9750 B( 28-C , 31-H ) :   0.9735

Dispersion correction           -0.014329654
FINAL SINGLE POINT ENERGY     -1339.870545790760

DIPOLE MOMENT
-------------
                                X             Y             Z
Electronic contribution:    -18.89254     -16.10750       4.96772
Nuclear contribution   :     19.34495      16.33701      -5.31664
                        -----------------------------------------
Total Dipole Moment    :      0.45241       0.22951      -0.34892
                        -----------------------------------------
Magnitude (a.u.)       :      0.61571
Magnitude (Debye)      :      1.56501

Rotational constants in cm-1:     0.021028     0.007813     0.006457
Rotational constants in MHz :   630.413026   234.222149   193.568261

                             ****ORCA TERMINATED NORMALLY****
TOTAL RUN TIME: 0 days 0 hours 0 minutes 32 seconds 307 msec
