                         Program Version 4.2.1 -  RELEASE  -
|  1> ! wB97X-D3 SP def2-SVP
|  2> %pal
|  3> nprocs 16
|  4> end
|  5>
|  6> * xyz 0 1
|  7> S 	 -21.3764 	 48.5207 	 65.1119
|  8> C 	 -20.5391 	 47.0649 	 65.6112
|  9> C 	 -21.1025 	 46.6567 	 66.8465
| 10> C 	 -22.0818 	 47.5622 	 67.3246
| 11> C 	 -22.2547 	 48.6601 	 66.5694
| 12> H 	 -22.6949 	 47.451 	 68.259
| 13> C 	 -20.7028 	 45.3919 	 67.5835
| 14> H 	 -20.4507 	 45.5295 	 68.6012
| 15> H 	 -19.775 	 44.9292 	 67.067
| 16> C 	 -21.7515 	 44.2996 	 67.6838
| 17> H 	 -21.3225 	 43.4311 	 68.1178
| 18> H 	 -22.5368 	 44.5438 	 68.3414
| 19> C 	 -22.2869 	 43.8322 	 66.3091
| 20> H 	 -22.8635 	 42.9212 	 66.235
| 21> H 	 -22.9203 	 44.6067 	 65.858
| 22> H 	 -21.4049 	 43.6788 	 65.6528
| 23> S 	 -23.723 	 50.7557 	 65.4481
| 24> C 	 -24.9043 	 51.5469 	 66.3728
| 25> C 	 -24.801 	 51.2751 	 67.7101
| 26> C 	 -23.8369 	 50.1951 	 68.0113
| 27> C 	 -23.1344 	 49.8046 	 66.8735
| 28> H 	 -25.448 	 51.8528 	 68.3796
| 29> C 	 -23.5672 	 49.7448 	 69.4477
| 30> H 	 -22.5379 	 49.3879 	 69.4952
| 31> H 	 -24.105 	 48.7817 	 69.6174
| 32> C 	 -23.849 	 50.7335 	 70.6604
| 33> H 	 -24.9299 	 50.8818 	 70.8914
| 34> H 	 -23.4517 	 51.6731 	 70.3706
| 35> C 	 -23.1647 	 50.2933 	 72.041
| 36> H 	 -22.1933 	 50.7365 	 72.0413
| 37> H 	 -23.1261 	 49.2247 	 72.2737
| 38> H 	 -23.6783 	 50.8071 	 72.8949
| 39> H 	 -19.757 	 46.5737 	 65.0122
| 40> H 	 -25.6199 	 52.3451 	 66.1632
| 41> *
| 42>
| 43>                          ****END OF INPUT****

CARTESIAN COORDINATES (ANGSTROEM)
---------------------------------
  S    -21.376400   48.520700   65.111900
  C    -20.539100   47.064900   65.611200
  C    -21.102500   46.656700   66.846500
  C    -22.081800   47.562200   67.324600
  C    -22.254700   48.660100   66.569400
  H    -22.694900   47.451000   68.259000
  C    -20.702800   45.391900   67.583500
  H    -20.450700   45.529500   68.601200
  H    -19.775000   44.929200   67.067000
  C    -21.751500   44.299600   67.683800
  H    -21.322500   43.431100   68.117800
  H    -22.536800   44.543800   68.341400
  C    -22.286900   43.832200   66.309100
  H    -22.863500   42.921200   66.235000
  H    -22.920300   44.606700   65.858000
  H    -21.404900   43.678800   65.652800
  S    -23.723000   50.755700   65.448100
  C    -24.904300   51.546900   66.372800
  C    -24.801000   51.275100   67.710100
  C    -23.836900   50.195100   68.011300
  C    -23.134400   49.804600   66.873500
  H    -25.448000   51.852800   68.379600
  C    -23.567200   49.744800   69.447700
  H    -22.537900   49.387900   69.495200
  H    -24.105000   48.781700   69.617400
  C    -23.849000   50.733500   70.660400
  H    -24.929900   50.881800   70.891400
  H    -23.451700   51.673100   70.370600
  C    -23.164700   50.293300   72.041000
  H    -22.193300   50.736500   72.041300
  H    -23.126100   49.224700   72.273700
  H    -23.678300   50.807100   72.894900
  H    -19.757000   46.573700   65.012200
  H    -25.619900   52.345100   66.163200

 Total Charge           Charge          ....    0
 Multiplicity           Mult            ....    1
 Number of Electrons    NEL             ....  134
 Basis Dimension        Dim             ....  322

ORBITAL ENERGIES
----------------

  NO   OCC          E(Eh)            E(eV)
   0   2.0000     -88.966115     -2420.8911
   1   2.0000     -88.965377     -2420.8710
   2   2.0000     -10.335757      -281.2502
   3   2.0000     -10.327882      -281.0360
   4   2.0000     -10.321236      -280.8551
   5   2.0000     -10.315801      -280.7072
   6   2.0000     -10.314198      -280.6636
   7   2.0000     -10.306808      -280.4625
   8   2.0000     -10.303049      -280.3602
   9   2.0000     -10.299622      -280.2670
  10   2.0000     -10.295675      -280.1596
  11   2.0000     -10.294743      -280.1342
  12   2.0000     -10.292045      -280.0608
  13   2.0000     -10.286911      -279.9211
  14   2.0000     -10.278300      -279.6868
  15   2.0000     -10.272543      -279.5301
  16   2.0000      -8.080921      -219.8930
  17   2.0000      -8.080889      -219.8922
  18   2.0000      -6.039578      -164.3453
  19   2.0000      -6.039444      -164.3416
  20   2.0000      -6.035437      -164.2326
  21   2.0000      -6.035251      -164.2275
  22   2.0000      -6.031639      -164.1292
  23   2.0000      -6.031453      -164.1242
  24   2.0000      -1.011576       -27.5264
  25   2.0000      -0.985834       -26.8259
  26   2.0000      -0.913687       -24.8627
  27   2.0000      -0.899787       -24.4844
  28   2.0000      -0.869585       -23.6626
  29   2.0000      -0.850444       -23.1418
  30   2.0000      -0.840266       -22.8648
  31   2.0000      -0.816244       -22.2111
  32   2.0000      -0.783343       -21.3158
  33   2.0000      -0.774592       -21.0777
  34   2.0000      -0.712581       -19.3903
  35   2.0000      -0.702291       -19.1103
  36   2.0000      -0.695513       -18.9259
  37   2.0000      -0.650638       -17.7048
  38   2.0000      -0.637642       -17.3511
  39   2.0000      -0.623223       -16.9588
  40   2.0000      -0.592017       -16.1096
  41   2.0000      -0.568886       -15.4802
  42   2.0000      -0.561089       -15.2680
  43   2.0000      -0.556675       -15.1479
  44   2.0000      -0.541395       -14.7321
  45   2.0000      -0.522497       -14.2179
  46   2.0000      -0.518336       -14.1046
  47   2.0000      -0.511833       -13.9277
  48   2.0000      -0.508739       -13.8435
  49   2.0000      -0.492082       -13.3902
  50   2.0000      -0.487274       -13.2594
  51   2.0000      -0.479050       -13.0356
  52   2.0000      -0.466120       -12.6838
  53   2.0000      -0.463686       -12.6175
  54   2.0000      -0.461233       -12.5508
  55   2.0000      -0.453293       -12.3347
  56   2.0000      -0.442785       -12.0488
  57   2.0000      -0.438410       -11.9297
  58   2.0000      -0.432372       -11.7654
  59   2.0000      -0.425482       -11.5780
  60   2.0000      -0.423119       -11.5136
  61   2.0000      -0.416308       -11.3283
  62   2.0000      -0.411176       -11.1887
  63   2.0000      -0.362655        -9.8683
  64   2.0000      -0.333475        -9.0743
  65   2.0000      -0.326486        -8.8841
  66   2.0000      -0.285885        -7.7793
  67   0.0000       0.023187         0.6310
  68   0.0000       0.082606         2.2478
  69   0.0000       0.101914         2.7732
  70   0.0000       0.119414         3.2494
  71   0.0000       0.136347         3.7102

MULLIKEN ATOMIC CHARGES
-----------------------
   0 S :    0.098348
   1 C :   -0.129900
   2 C :   -0.071418
   3 C :   -0.038862
   4 C :   -0.081794
   5 H :    0.019324
   6 C :    0.063032
   7 H :    0.021967
   8 H :    0.029112
   9 C :   -0.052736
  10 H :    0.018336
  11 H :    0.017894
  12 C :   -0.071665
  13 H :    0.032130
  14 H :    0.043072
  15 H :    0.020006
  16 S :    0.093795
  17 C :   -0.057500
  18 C :   -0.073935
  19 C :   -0.060059
  20 C :   -0.112689
  21 H :    0.025908
  22 C :    0.009393
  23 H :    0.034185
  24 H :    0.048158
  25 C :   -0.068730
  26 H :    0.044362
  27 H :    0.030371
  28 C :   -0.068385
  29 H :    0.034509
  30 H :    0.045605
  31 H :    0.036279
  32 H :    0.065782
  33 H :    0.056104
Sum of atomic charges:   -0.0000000

LOEWDIN ATOMIC CHARGES
----------------------
   0 S :    0.417497
   1 C :   -0.200611
   2 C :   -0.059669
   3 C :   -0.082421
   4 C :   -0.199412
   5 H :    0.039771
   6 C :   -0.029819
   7 H :    0.026716
   8 H :    0.037624
   9 C :   -0.037928
  10 H :    0.022463
  11 H :    0.014925
  12 C :   -0.070756
  13 H :    0.022368
  14 H :    0.027301
  15 H :    0.024736
  16 S :    0.395176
  17 C :   -0.203360
  18 C :   -0.081511
  19 C :   -0.050033
  20 C :   -0.174314
  21 H :    0.033326
  22 C :   -0.043100
  23 H :    0.031073
  24 H :    0.035265
  25 C :   -0.034434
  26 H :    0.026850
  27 H :    0.019981
  28 C :   -0.067958
  29 H :    0.023481
  30 H :    0.026541
  31 H :    0.032922
  32 H :    0.036541
  33 H :    0.040770

  Mayer bond orders larger than 0.100000
B(  0-S ,  1-C ) :   1.1407 B(  0-S ,  4-C ) :   1.1542 B(  1-C ,  2-C ) :   1.5723
B(  1-C , 32-H ) :   0.9720 B(  2-C ,  3-C ) :   1.2485 B(  2-C ,  6-C ) :   1.0327
B(  3-C ,  4-C ) :   1.5773 B(  3-C ,  5-H ) :   0.9828 B(  4-C , 20-C ) :   1.0512
B(  6-C ,  7-H ) :   0.9381 B(  6-C ,  8-H ) :   0.9429 B(  6-C ,  9-C ) :   1.0830
B(  9-C , 10-H ) :   0.9529 B(  9-C , 11-H ) :   0.9548 B(  9-C , 12-C ) :   1.0670
B( 12-C , 13-H ) :   0.9780 B( 12-C , 14-H ) :   0.9747 B( 12-C , 15-H ) :   0.9755
B( 16-S , 17-C ) :   1.1550 B( 16-S , 20-C ) :   1.1034 B( 17-C , 18-C ) :   1.6592
B( 17-C , 33-H ) :   0.9534 B( 18-C , 19-C ) :   1.2037 B( 18-C , 21-H ) :   0.9829
B( 19-C , 20-C ) :   1.6365 B( 19-C , 22-C ) :   1.0351 B( 22-C , 23-H ) :   0.9454
B( 22-C , 24-H ) :   0.9182 B( 22-C , 25-C ) :   1.0548 B( 25-C , 26-H ) :   0.9579
B( 25-C , 27-H ) :   0.9617 B( 25-C , 28-C ) :   1.0691 B( 28-C , 29-H ) :   0.9790
B( 28-C , 30-H ) :   0.9802 B( 28-C , 31-H ) :   0.9771

Dispersion correction           -0.013741649
FINAL SINGLE POINT ENERGY     -1339.870429794997

DIPOLE MOMENT
-------------
                                X             Y             Z
Electronic contribution:      0.57529      15.08997     -23.31550
Nuclear contribution   :     -0.70141     -15.28182      24.07504
                        -----------------------------------------
Total Dipole Moment    :     -0.12612      -0.19185       0.75954
                        -----------------------------------------
Magnitude (a.u.)       :      0.79348
Magnitude (Debye)      :      2.01687

Rotational constants in cm-1:     0.016741     0.008782     0.006425
Rotational constants in MHz :   501.897212   263.265496   192.625655

                             ****ORCA TERMINATED NORMALLY****
TOTAL RUN TIME: 0 days 0 hours 0 minutes 30 seconds 498 msec
