                         Program Version 4.2.1 -  RELEASE  -
|  1> ! wB97X-D3 SP def2-SVP
|  2> %pal
|  3> nprocs 16
|  4> end
|  5>
|  6> * xyz 0 1
|  7> S 	 -45.7543 	 -3.22742 	 96.4745
|  8> C 	 -47.3844 	 -3.67 	 97.0099
|  9> C 	 -48.0684 	 -2.66374 	 97.6528
| 10> C 	 -47.2238 	 -1.55118 	 97.8413
| 11> C 	 -46.0363 	 -1.68755 	 97.1649
| 12> H 	 -47.3854 	 -0.593919 	 98.3362
| 13> C 	 -49.5299 	 -2.76905 	 98.1333
| 14> H 	 -49.5892 	 -3.10619 	 99.1665
| 15> H 	 -50.0328 	 -3.68026 	 97.6615
| 16> C 	 -50.5073 	 -1.64023 	 97.9408
| 17> H 	 -51.4292 	 -1.98996 	 98.3419
| 18> H 	 -50.1762 	 -0.680903 	 98.3659
| 19> C 	 -50.7912 	 -1.23423 	 96.5629
| 20> H 	 -49.8683 	 -0.778345 	 96.1451
| 21> H 	 -50.9099 	 -2.08841 	 95.9076
| 22> H 	 -51.6894 	 -0.574613 	 96.5171
| 23> S 	 -43.5857 	 -1.10383 	 98.3661
| 24> C 	 -43.0222 	 0.571754 	 98.3248
| 25> C 	 -43.7729 	 1.34571 	 97.4671
| 26> C 	 -44.8448 	 0.592107 	 96.9118
| 27> C 	 -44.8978 	 -0.758377 	 97.3298
| 28> H 	 -43.6351 	 2.39716 	 97.2559
| 29> C 	 -45.9404 	 1.21325 	 95.9971
| 30> H 	 -46.6056 	 1.96576 	 96.5119
| 31> H 	 -46.6091 	 0.340537 	 95.8301
| 32> C 	 -45.3902 	 1.65466 	 94.6076
| 33> H 	 -44.8192 	 0.883517 	 94.173
| 34> H 	 -44.674 	 2.46024 	 94.7344
| 35> C 	 -46.4309 	 2.10185 	 93.5432
| 36> H 	 -46.9322 	 3.04256 	 93.7516
| 37> H 	 -47.2076 	 1.37958 	 93.3388
| 38> H 	 -45.9768 	 2.35105 	 92.653
| 39> H 	 -47.8365 	 -4.64145 	 96.8685
| 40> H 	 -42.1683 	 0.976961 	 98.8434
| 41> *
| 42>
| 43>                          ****END OF INPUT****

CARTESIAN COORDINATES (ANGSTROEM)
---------------------------------
  S    -45.754300   -3.227420   96.474500
  C    -47.384400   -3.670000   97.009900
  C    -48.068400   -2.663740   97.652800
  C    -47.223800   -1.551180   97.841300
  C    -46.036300   -1.687550   97.164900
  H    -47.385400   -0.593919   98.336200
  C    -49.529900   -2.769050   98.133300
  H    -49.589200   -3.106190   99.166500
  H    -50.032800   -3.680260   97.661500
  C    -50.507300   -1.640230   97.940800
  H    -51.429200   -1.989960   98.341900
  H    -50.176200   -0.680903   98.365900
  C    -50.791200   -1.234230   96.562900
  H    -49.868300   -0.778345   96.145100
  H    -50.909900   -2.088410   95.907600
  H    -51.689400   -0.574613   96.517100
  S    -43.585700   -1.103830   98.366100
  C    -43.022200    0.571754   98.324800
  C    -43.772900    1.345710   97.467100
  C    -44.844800    0.592107   96.911800
  C    -44.897800   -0.758377   97.329800
  H    -43.635100    2.397160   97.255900
  C    -45.940400    1.213250   95.997100
  H    -46.605600    1.965760   96.511900
  H    -46.609100    0.340537   95.830100
  C    -45.390200    1.654660   94.607600
  H    -44.819200    0.883517   94.173000
  H    -44.674000    2.460240   94.734400
  C    -46.430900    2.101850   93.543200
  H    -46.932200    3.042560   93.751600
  H    -47.207600    1.379580   93.338800
  H    -45.976800    2.351050   92.653000
  H    -47.836500   -4.641450   96.868500
  H    -42.168300    0.976961   98.843400

 Total Charge           Charge          ....    0
 Multiplicity           Mult            ....    1
 Number of Electrons    NEL             ....  134
 Basis Dimension        Dim             ....  322

ORBITAL ENERGIES
----------------

  NO   OCC          E(Eh)            E(eV)
   0   2.0000     -88.971780     -2421.0452
   1   2.0000     -88.967760     -2420.9358
   2   2.0000     -10.325089      -280.9600
   3   2.0000     -10.322273      -280.8833
   4   2.0000     -10.317698      -280.7588
   5   2.0000     -10.314547      -280.6731
   6   2.0000     -10.305199      -280.4187
   7   2.0000     -10.301299      -280.3126
   8   2.0000     -10.299294      -280.2580
   9   2.0000     -10.294745      -280.1342
  10   2.0000     -10.294296      -280.1220
  11   2.0000     -10.292633      -280.0768
  12   2.0000     -10.282558      -279.8026
  13   2.0000     -10.279983      -279.7326
  14   2.0000     -10.272882      -279.5393
  15   2.0000     -10.267775      -279.4004
  16   2.0000      -8.086771      -220.0522
  17   2.0000      -8.082652      -219.9401
  18   2.0000      -6.045045      -164.4940
  19   2.0000      -6.041401      -164.3949
  20   2.0000      -6.041105      -164.3868
  21   2.0000      -6.037617      -164.2919
  22   2.0000      -6.037064      -164.2769
  23   2.0000      -6.033524      -164.1805
  24   2.0000      -1.011353       -27.5203
  25   2.0000      -0.986286       -26.8382
  26   2.0000      -0.921014       -25.0621
  27   2.0000      -0.896425       -24.3930
  28   2.0000      -0.872688       -23.7470
  29   2.0000      -0.854071       -23.2405
  30   2.0000      -0.846523       -23.0351
  31   2.0000      -0.815923       -22.2024
  32   2.0000      -0.786955       -21.4141
  33   2.0000      -0.768862       -20.9218
  34   2.0000      -0.703680       -19.1481
  35   2.0000      -0.698751       -19.0140
  36   2.0000      -0.688312       -18.7299
  37   2.0000      -0.656074       -17.8527
  38   2.0000      -0.644479       -17.5372
  39   2.0000      -0.622358       -16.9352
  40   2.0000      -0.591693       -16.1008
  41   2.0000      -0.572926       -15.5901
  42   2.0000      -0.557857       -15.1801
  43   2.0000      -0.553839       -15.0707
  44   2.0000      -0.549246       -14.9458
  45   2.0000      -0.521343       -14.1865
  46   2.0000      -0.515038       -14.0149
  47   2.0000      -0.511934       -13.9304
  48   2.0000      -0.502276       -13.6676
  49   2.0000      -0.492903       -13.4126
  50   2.0000      -0.489454       -13.3187
  51   2.0000      -0.476912       -12.9774
  52   2.0000      -0.465839       -12.6761
  53   2.0000      -0.461968       -12.5708
  54   2.0000      -0.461052       -12.5459
  55   2.0000      -0.453787       -12.3482
  56   2.0000      -0.450601       -12.2615
  57   2.0000      -0.441856       -12.0235
  58   2.0000      -0.431068       -11.7299
  59   2.0000      -0.421087       -11.4583
  60   2.0000      -0.418480       -11.3874
  61   2.0000      -0.413559       -11.2535
  62   2.0000      -0.411113       -11.1870
  63   2.0000      -0.345377        -9.3982
  64   2.0000      -0.335930        -9.1411
  65   2.0000      -0.323387        -8.7998
  66   2.0000      -0.300356        -8.1731
  67   0.0000       0.039116         1.0644
  68   0.0000       0.061496         1.6734
  69   0.0000       0.111653         3.0382
  70   0.0000       0.125996         3.4285
  71   0.0000       0.127916         3.4808

MULLIKEN ATOMIC CHARGES
-----------------------
   0 S :    0.125852
   1 C :   -0.121116
   2 C :   -0.048751
   3 C :    0.033717
   4 C :   -0.198619
   5 H :    0.022936
   6 C :    0.046910
   7 H :    0.040131
   8 H :    0.015355
   9 C :   -0.049689
  10 H :    0.020538
  11 H :    0.030312
  12 C :   -0.057911
  13 H :    0.032075
  14 H :    0.011723
  15 H :    0.046937
  16 S :    0.125733
  17 C :   -0.097322
  18 C :   -0.007919
  19 C :   -0.077931
  20 C :   -0.144360
  21 H :    0.021208
  22 C :    0.036912
  23 H :    0.043841
  24 H :    0.032640
  25 C :   -0.056934
  26 H :    0.021413
  27 H :    0.018270
  28 C :   -0.011177
  29 H :    0.015158
  30 H :    0.029789
  31 H :    0.008592
  32 H :    0.037687
  33 H :    0.054000
Sum of atomic charges:    0.0000000

LOEWDIN ATOMIC CHARGES
----------------------
   0 S :    0.419377
   1 C :   -0.186040
   2 C :   -0.062911
   3 C :   -0.056024
   4 C :   -0.207430
   5 H :    0.037606
   6 C :   -0.035847
   7 H :    0.035639
   8 H :    0.036128
   9 C :   -0.048670
  10 H :    0.024893
  11 H :    0.026866
  12 C :   -0.068101
  13 H :    0.027845
  14 H :    0.017567
  15 H :    0.032823
  16 S :    0.423964
  17 C :   -0.180784
  18 C :   -0.069658
  19 C :   -0.058902
  20 C :   -0.228674
  21 H :    0.033789
  22 C :   -0.040439
  23 H :    0.032925
  24 H :    0.031210
  25 C :   -0.034232
  26 H :    0.021807
  27 H :    0.019565
  28 C :   -0.061485
  29 H :    0.023826
  30 H :    0.024316
  31 H :    0.016972
  32 H :    0.023541
  33 H :    0.028543

  Mayer bond orders larger than 0.100000
B(  0-S ,  1-C ) :   1.1389 B(  0-S ,  4-C ) :   1.1617 B(  1-C ,  2-C ) :   1.6320
B(  1-C , 32-H ) :   0.9640 B(  2-C ,  3-C ) :   1.2190 B(  2-C ,  6-C ) :   1.0046
B(  3-C ,  4-C ) :   1.5926 B(  3-C ,  5-H ) :   0.9924 B(  4-C , 20-C ) :   0.9909
B(  6-C ,  7-H ) :   0.9358 B(  6-C ,  8-H ) :   0.9365 B(  6-C ,  9-C ) :   1.0930
B(  9-C , 10-H ) :   0.9464 B(  9-C , 11-H ) :   0.9519 B(  9-C , 12-C ) :   1.0872
B( 12-C , 13-H ) :   0.9710 B( 12-C , 14-H ) :   0.9692 B( 12-C , 15-H ) :   0.9726
B( 16-S , 17-C ) :   1.1629 B( 16-S , 20-C ) :   1.1568 B( 17-C , 18-C ) :   1.5817
B( 17-C , 33-H ) :   0.9678 B( 18-C , 19-C ) :   1.2767 B( 18-C , 21-H ) :   0.9912
B( 19-C , 20-C ) :   1.5811 B( 19-C , 22-C ) :   1.0328 B( 22-C , 23-H ) :   0.9448
B( 22-C , 24-H ) :   0.9316 B( 22-C , 25-C ) :   1.0542 B( 25-C , 26-H ) :   0.9549
B( 25-C , 27-H ) :   0.9577 B( 25-C , 28-C ) :   1.0899 B( 28-C , 29-H ) :   0.9718
B( 28-C , 30-H ) :   0.9764 B( 28-C , 31-H ) :   0.9706

Dispersion correction           -0.014377051
FINAL SINGLE POINT ENERGY     -1339.872930101933

DIPOLE MOMENT
-------------
                                X             Y             Z
Electronic contribution:     23.10494     -13.98392      10.75999
Nuclear contribution   :    -23.58178      14.28065     -10.70938
                        -----------------------------------------
Total Dipole Moment    :     -0.47684       0.29673       0.05061
                        -----------------------------------------
Magnitude (a.u.)       :      0.56391
Magnitude (Debye)      :      1.43334

Rotational constants in cm-1:     0.016242     0.009471     0.007237
Rotational constants in MHz :   486.918496   283.940918   216.964348

                             ****ORCA TERMINATED NORMALLY****
TOTAL RUN TIME: 0 days 0 hours 0 minutes 30 seconds 395 msec
