                         Program Version 4.2.1 -  RELEASE  -
|  1> ! wB97X-D3 SP def2-SVP
|  2> %pal
|  3> nprocs 16
|  4> end
|  5>
|  6> * xyz 0 1
|  7> S 	 14.4241 	 8.54192 	 86.5257
|  8> C 	 15.9271 	 9.41576 	 86.0687
|  9> C 	 15.7532 	 10.7108 	 85.6425
| 10> C 	 14.3548 	 10.9535 	 85.7893
| 11> C 	 13.5644 	 9.95155 	 86.3329
| 12> H 	 13.939 	 11.9384 	 85.6051
| 13> C 	 16.8564 	 11.6268 	 85.1785
| 14> H 	 16.2976 	 12.3078 	 84.4897
| 15> H 	 17.6161 	 11.0533 	 84.577
| 16> C 	 17.474 	 12.5823 	 86.2382
| 17> H 	 18.2738 	 12.1164 	 86.7237
| 18> H 	 17.9034 	 13.4377 	 85.7694
| 19> C 	 16.6142 	 13.0292 	 87.4242
| 20> H 	 17.2523 	 13.4086 	 88.2465
| 21> H 	 16.0169 	 13.8774 	 87.1937
| 22> H 	 15.9488 	 12.2654 	 87.8837
| 23> S 	 11.8098 	 10.9031 	 88.1633
| 24> C 	 10.0847 	 10.836 	 87.8291
| 25> C 	 9.77394 	 10.024 	 86.718
| 26> C 	 10.9836 	 9.49454 	 86.1664
| 27> C 	 12.181 	 10.0642 	 86.6845
| 28> H 	 8.79019 	 9.76865 	 86.3907
| 29> C 	 10.9089 	 8.59816 	 85.0012
| 30> H 	 11.9343 	 8.55617 	 84.5002
| 31> H 	 10.4996 	 9.24058 	 84.2089
| 32> C 	 10.3728 	 7.18449 	 85.3128
| 33> H 	 9.59149 	 7.1133 	 86.1194
| 34> H 	 11.1524 	 6.48962 	 85.6301
| 35> C 	 9.80299 	 6.51075 	 84.0471
| 36> H 	 10.366 	 6.7134 	 83.1278
| 37> H 	 8.79773 	 6.98204 	 83.8097
| 38> H 	 9.56135 	 5.42269 	 84.1738
| 39> H 	 16.9522 	 8.96191 	 86.1453
| 40> H 	 9.28653 	 11.3828 	 88.278
| 41> *
| 42>
| 43>                          ****END OF INPUT****

CARTESIAN COORDINATES (ANGSTROEM)
---------------------------------
  S     14.424100    8.541920   86.525700
  C     15.927100    9.415760   86.068700
  C     15.753200   10.710800   85.642500
  C     14.354800   10.953500   85.789300
  C     13.564400    9.951550   86.332900
  H     13.939000   11.938400   85.605100
  C     16.856400   11.626800   85.178500
  H     16.297600   12.307800   84.489700
  H     17.616100   11.053300   84.577000
  C     17.474000   12.582300   86.238200
  H     18.273800   12.116400   86.723700
  H     17.903400   13.437700   85.769400
  C     16.614200   13.029200   87.424200
  H     17.252300   13.408600   88.246500
  H     16.016900   13.877400   87.193700
  H     15.948800   12.265400   87.883700
  S     11.809800   10.903100   88.163300
  C     10.084700   10.836000   87.829100
  C      9.773940   10.024000   86.718000
  C     10.983600    9.494540   86.166400
  C     12.181000   10.064200   86.684500
  H      8.790190    9.768650   86.390700
  C     10.908900    8.598160   85.001200
  H     11.934300    8.556170   84.500200
  H     10.499600    9.240580   84.208900
  C     10.372800    7.184490   85.312800
  H      9.591490    7.113300   86.119400
  H     11.152400    6.489620   85.630100
  C      9.802990    6.510750   84.047100
  H     10.366000    6.713400   83.127800
  H      8.797730    6.982040   83.809700
  H      9.561350    5.422690   84.173800
  H     16.952200    8.961910   86.145300
  H      9.286530   11.382800   88.278000

 Total Charge           Charge          ....    0
 Multiplicity           Mult            ....    1
 Number of Electrons    NEL             ....  134
 Basis Dimension        Dim             ....  322

ORBITAL ENERGIES
----------------

  NO   OCC          E(Eh)            E(eV)
   0   2.0000     -88.967277     -2420.9227
   1   2.0000     -88.965900     -2420.8852
   2   2.0000     -10.321788      -280.8701
   3   2.0000     -10.319389      -280.8048
   4   2.0000     -10.316680      -280.7311
   5   2.0000     -10.316081      -280.7148
   6   2.0000     -10.305379      -280.4236
   7   2.0000     -10.301160      -280.3088
   8   2.0000     -10.300496      -280.2907
   9   2.0000     -10.294025      -280.1147
  10   2.0000     -10.292990      -280.0865
  11   2.0000     -10.291808      -280.0543
  12   2.0000     -10.291292      -280.0403
  13   2.0000     -10.283101      -279.8174
  14   2.0000     -10.282847      -279.8105
  15   2.0000     -10.275105      -279.5998
  16   2.0000      -8.082845      -219.9454
  17   2.0000      -8.080270      -219.8753
  18   2.0000      -6.041160      -164.3883
  19   2.0000      -6.038801      -164.3241
  20   2.0000      -6.037325      -164.2840
  21   2.0000      -6.034803      -164.2153
  22   2.0000      -6.033652      -164.1840
  23   2.0000      -6.031064      -164.1136
  24   2.0000      -1.010869       -27.5071
  25   2.0000      -0.982141       -26.7254
  26   2.0000      -0.914446       -24.8833
  27   2.0000      -0.905750       -24.6467
  28   2.0000      -0.869893       -23.6710
  29   2.0000      -0.850070       -23.1316
  30   2.0000      -0.843451       -22.9515
  31   2.0000      -0.809085       -22.0163
  32   2.0000      -0.787839       -21.4382
  33   2.0000      -0.762367       -20.7451
  34   2.0000      -0.708466       -19.2783
  35   2.0000      -0.702073       -19.1044
  36   2.0000      -0.694146       -18.8887
  37   2.0000      -0.661847       -18.0098
  38   2.0000      -0.633637       -17.2421
  39   2.0000      -0.614496       -16.7213
  40   2.0000      -0.591824       -16.1044
  41   2.0000      -0.572177       -15.5697
  42   2.0000      -0.552143       -15.0246
  43   2.0000      -0.547417       -14.8960
  44   2.0000      -0.543556       -14.7909
  45   2.0000      -0.534072       -14.5328
  46   2.0000      -0.515265       -14.0211
  47   2.0000      -0.510939       -13.9034
  48   2.0000      -0.504908       -13.7393
  49   2.0000      -0.496948       -13.5226
  50   2.0000      -0.494836       -13.4652
  51   2.0000      -0.466454       -12.6929
  52   2.0000      -0.459784       -12.5114
  53   2.0000      -0.454843       -12.3769
  54   2.0000      -0.452602       -12.3159
  55   2.0000      -0.451006       -12.2725
  56   2.0000      -0.446136       -12.1400
  57   2.0000      -0.441341       -12.0095
  58   2.0000      -0.437169       -11.8960
  59   2.0000      -0.431430       -11.7398
  60   2.0000      -0.417690       -11.3659
  61   2.0000      -0.410436       -11.1685
  62   2.0000      -0.400624       -10.9015
  63   2.0000      -0.338081        -9.1997
  64   2.0000      -0.327848        -8.9212
  65   2.0000      -0.320893        -8.7319
  66   2.0000      -0.297177        -8.0866
  67   0.0000       0.037772         1.0278
  68   0.0000       0.061186         1.6650
  69   0.0000       0.106110         2.8874
  70   0.0000       0.113115         3.0780
  71   0.0000       0.130009         3.5377

MULLIKEN ATOMIC CHARGES
-----------------------
   0 S :    0.138024
   1 C :   -0.156846
   2 C :   -0.090098
   3 C :    0.028966
   4 C :   -0.185005
   5 H :   -0.000690
   6 C :    0.073920
   7 H :    0.029423
   8 H :    0.050930
   9 C :   -0.030018
  10 H :    0.014387
  11 H :    0.024559
  12 C :   -0.077347
  13 H :    0.030314
  14 H :    0.020885
  15 H :    0.058042
  16 S :    0.126689
  17 C :   -0.078140
  18 C :   -0.025803
  19 C :   -0.030655
  20 C :   -0.165805
  21 H :    0.014730
  22 C :    0.014157
  23 H :    0.027712
  24 H :    0.038860
  25 C :   -0.049578
  26 H :    0.043875
  27 H :    0.038792
  28 C :   -0.093624
  29 H :    0.037780
  30 H :    0.026014
  31 H :    0.044582
  32 H :    0.053584
  33 H :    0.047383
Sum of atomic charges:    0.0000000

LOEWDIN ATOMIC CHARGES
----------------------
   0 S :    0.432029
   1 C :   -0.186822
   2 C :   -0.068172
   3 C :   -0.058740
   4 C :   -0.241788
   5 H :    0.025077
   6 C :   -0.031572
   7 H :    0.038197
   8 H :    0.042444
   9 C :   -0.036058
  10 H :    0.017506
  11 H :    0.024690
  12 C :   -0.069180
  13 H :    0.031475
  14 H :    0.016429
  15 H :    0.034266
  16 S :    0.417997
  17 C :   -0.183010
  18 C :   -0.063904
  19 C :   -0.054670
  20 C :   -0.214654
  21 H :    0.029244
  22 C :   -0.053730
  23 H :    0.038470
  24 H :    0.039169
  25 C :   -0.041208
  26 H :    0.030188
  27 H :    0.029442
  28 C :   -0.077330
  29 H :    0.024535
  30 H :    0.025388
  31 H :    0.029196
  32 H :    0.030677
  33 H :    0.024422

  Mayer bond orders larger than 0.100000
B(  0-S ,  1-C ) :   1.1474 B(  0-S ,  4-C ) :   1.1619 B(  1-C ,  2-C ) :   1.6076
B(  1-C , 32-H ) :   0.9585 B(  2-C ,  3-C ) :   1.2481 B(  2-C ,  6-C ) :   1.0145
B(  3-C ,  4-C ) :   1.5693 B(  3-C ,  5-H ) :   0.9936 B(  4-C , 20-C ) :   1.0282
B(  6-C ,  7-H ) :   0.9330 B(  6-C ,  8-H ) :   0.9468 B(  6-C ,  9-C ) :   1.0520
B(  9-C , 10-H ) :   0.9574 B(  9-C , 11-H ) :   0.9560 B(  9-C , 12-C ) :   1.0925
B( 12-C , 13-H ) :   0.9739 B( 12-C , 14-H ) :   0.9769 B( 12-C , 15-H ) :   0.9653
B( 16-S , 17-C ) :   1.1667 B( 16-S , 20-C ) :   1.1476 B( 17-C , 18-C ) :   1.5861
B( 17-C , 20-C ) :   0.1095 B( 17-C , 33-H ) :   0.9676 B( 18-C , 19-C ) :   1.2559
B( 18-C , 21-H ) :   0.9918 B( 19-C , 20-C ) :   1.5597 B( 19-C , 22-C ) :   1.0626
B( 22-C , 23-H ) :   0.9237 B( 22-C , 24-H ) :   0.9506 B( 22-C , 25-C ) :   1.0195
B( 25-C , 26-H ) :   0.9685 B( 25-C , 27-H ) :   0.9525 B( 25-C , 28-C ) :   1.0687
B( 28-C , 29-H ) :   0.9743 B( 28-C , 30-H ) :   0.9781 B( 28-C , 31-H ) :   0.9754

Dispersion correction           -0.014587316
FINAL SINGLE POINT ENERGY     -1339.854309645665

DIPOLE MOMENT
-------------
                                X             Y             Z
Electronic contribution:     -2.61072      -1.12873      10.37300
Nuclear contribution   :      2.72758       1.32102     -10.68434
                        -----------------------------------------
Total Dipole Moment    :      0.11686       0.19229      -0.31134
                        -----------------------------------------
Magnitude (a.u.)       :      0.38414
Magnitude (Debye)      :      0.97641

Rotational constants in cm-1:     0.022790     0.007930     0.006480
Rotational constants in MHz :   683.213920   237.746120   194.260563

                             ****ORCA TERMINATED NORMALLY****
TOTAL RUN TIME: 0 days 0 hours 0 minutes 34 seconds 746 msec
