                         Program Version 4.2.1 -  RELEASE  -
|  1> ! wB97X-D3 SP def2-SVP
|  2> %pal
|  3> nprocs 16
|  4> end
|  5>
|  6> * xyz 0 1
|  7> S 	 -4.59608 	 -13.9148 	 78.3339
|  8> C 	 -3.00381 	 -13.549 	 77.8359
|  9> C 	 -2.27151 	 -12.9193 	 78.8509
| 10> C 	 -3.00216 	 -12.7207 	 80.0063
| 11> C 	 -4.19674 	 -13.3947 	 80.0005
| 12> H 	 -2.59033 	 -12.2783 	 80.806
| 13> C 	 -0.860974 	 -12.4421 	 78.6102
| 14> H 	 -0.338376 	 -13.4264 	 78.7597
| 15> H 	 -0.527669 	 -11.8424 	 79.4671
| 16> C 	 -0.347856 	 -11.8027 	 77.3655
| 17> H 	 0.651147 	 -11.3895 	 77.4721
| 18> H 	 -0.35424 	 -12.61 	 76.6482
| 19> C 	 -1.34033 	 -10.7042 	 76.8818
| 20> H 	 -1.48626 	 -9.94957 	 77.7668
| 21> H 	 -0.826511 	 -10.1749 	 76.1703
| 22> H 	 -2.34226 	 -11.0947 	 76.5619
| 23> S 	 -6.83684 	 -13.5244 	 80.574
| 24> C 	 -7.46762 	 -13.696 	 82.2041
| 25> C 	 -6.40086 	 -13.7598 	 83.0777
| 26> C 	 -5.07674 	 -13.6015 	 82.4808
| 27> C 	 -5.1789 	 -13.6213 	 81.1098
| 28> H 	 -6.68589 	 -13.7076 	 84.1298
| 29> C 	 -3.81796 	 -13.5652 	 83.3199
| 30> H 	 -3.06349 	 -13.9119 	 82.621
| 31> H 	 -3.88777 	 -14.214 	 84.1532
| 32> C 	 -3.33417 	 -12.1517 	 83.8273
| 33> H 	 -3.28248 	 -11.4416 	 83.0021
| 34> H 	 -2.37541 	 -12.1206 	 84.2845
| 35> C 	 -4.24973 	 -11.6329 	 84.8947
| 36> H 	 -5.24148 	 -11.59 	 84.4609
| 37> H 	 -3.88361 	 -10.6275 	 85.2077
| 38> H 	 -4.06927 	 -12.4399 	 85.6681
| 39> H 	 -2.58033 	 -13.5953 	 76.809
| 40> H 	 -8.49854 	 -13.9639 	 82.5601
| 41> *
| 42>
| 43>                          ****END OF INPUT****

CARTESIAN COORDINATES (ANGSTROEM)
---------------------------------
  S     -4.596080  -13.914800   78.333900
  C     -3.003810  -13.549000   77.835900
  C     -2.271510  -12.919300   78.850900
  C     -3.002160  -12.720700   80.006300
  C     -4.196740  -13.394700   80.000500
  H     -2.590330  -12.278300   80.806000
  C     -0.860974  -12.442100   78.610200
  H     -0.338376  -13.426400   78.759700
  H     -0.527669  -11.842400   79.467100
  C     -0.347856  -11.802700   77.365500
  H      0.651147  -11.389500   77.472100
  H     -0.354240  -12.610000   76.648200
  C     -1.340330  -10.704200   76.881800
  H     -1.486260   -9.949570   77.766800
  H     -0.826511  -10.174900   76.170300
  H     -2.342260  -11.094700   76.561900
  S     -6.836840  -13.524400   80.574000
  C     -7.467620  -13.696000   82.204100
  C     -6.400860  -13.759800   83.077700
  C     -5.076740  -13.601500   82.480800
  C     -5.178900  -13.621300   81.109800
  H     -6.685890  -13.707600   84.129800
  C     -3.817960  -13.565200   83.319900
  H     -3.063490  -13.911900   82.621000
  H     -3.887770  -14.214000   84.153200
  C     -3.334170  -12.151700   83.827300
  H     -3.282480  -11.441600   83.002100
  H     -2.375410  -12.120600   84.284500
  C     -4.249730  -11.632900   84.894700
  H     -5.241480  -11.590000   84.460900
  H     -3.883610  -10.627500   85.207700
  H     -4.069270  -12.439900   85.668100
  H     -2.580330  -13.595300   76.809000
  H     -8.498540  -13.963900   82.560100

 Total Charge           Charge          ....    0
 Multiplicity           Mult            ....    1
 Number of Electrons    NEL             ....  134
 Basis Dimension        Dim             ....  322

ORBITAL ENERGIES
----------------

  NO   OCC          E(Eh)            E(eV)
   0   2.0000     -88.970355     -2421.0065
   1   2.0000     -88.963993     -2420.8333
   2   2.0000     -10.335959      -281.2557
   3   2.0000     -10.332028      -281.1488
   4   2.0000     -10.320584      -280.8374
   5   2.0000     -10.312583      -280.6196
   6   2.0000     -10.308639      -280.5123
   7   2.0000     -10.297859      -280.2190
   8   2.0000     -10.295991      -280.1682
   9   2.0000     -10.292543      -280.0743
  10   2.0000     -10.289860      -280.0013
  11   2.0000     -10.288005      -279.9509
  12   2.0000     -10.285331      -279.8781
  13   2.0000     -10.282671      -279.8057
  14   2.0000     -10.281438      -279.7721
  15   2.0000     -10.279539      -279.7205
  16   2.0000      -8.084797      -219.9985
  17   2.0000      -8.078884      -219.8376
  18   2.0000      -6.043304      -164.4467
  19   2.0000      -6.039361      -164.3394
  20   2.0000      -6.037640      -164.2925
  21   2.0000      -6.035576      -164.2364
  22   2.0000      -6.033354      -164.1759
  23   2.0000      -6.029382      -164.0678
  24   2.0000      -1.009989       -27.4832
  25   2.0000      -0.987888       -26.8818
  26   2.0000      -0.916942       -24.9513
  27   2.0000      -0.913211       -24.8497
  28   2.0000      -0.866416       -23.5764
  29   2.0000      -0.861010       -23.4293
  30   2.0000      -0.849742       -23.1227
  31   2.0000      -0.816179       -22.2094
  32   2.0000      -0.781653       -21.2699
  33   2.0000      -0.772122       -21.0105
  34   2.0000      -0.703989       -19.1565
  35   2.0000      -0.702738       -19.1225
  36   2.0000      -0.688932       -18.7468
  37   2.0000      -0.662911       -18.0387
  38   2.0000      -0.640041       -17.4164
  39   2.0000      -0.618307       -16.8250
  40   2.0000      -0.592902       -16.1337
  41   2.0000      -0.580552       -15.7976
  42   2.0000      -0.559960       -15.2373
  43   2.0000      -0.557336       -15.1659
  44   2.0000      -0.553744       -15.0681
  45   2.0000      -0.543524       -14.7900
  46   2.0000      -0.518771       -14.1165
  47   2.0000      -0.505190       -13.7469
  48   2.0000      -0.503160       -13.6917
  49   2.0000      -0.498200       -13.5567
  50   2.0000      -0.493820       -13.4375
  51   2.0000      -0.475147       -12.9294
  52   2.0000      -0.473393       -12.8817
  53   2.0000      -0.470148       -12.7934
  54   2.0000      -0.458935       -12.4882
  55   2.0000      -0.454641       -12.3714
  56   2.0000      -0.441566       -12.0156
  57   2.0000      -0.437378       -11.9017
  58   2.0000      -0.426511       -11.6060
  59   2.0000      -0.422706       -11.5024
  60   2.0000      -0.418694       -11.3932
  61   2.0000      -0.414964       -11.2917
  62   2.0000      -0.410553       -11.1717
  63   2.0000      -0.356477        -9.7002
  64   2.0000      -0.335630        -9.1330
  65   2.0000      -0.326888        -8.8951
  66   2.0000      -0.285282        -7.7629
  67   0.0000       0.019392         0.5277
  68   0.0000       0.077399         2.1061
  69   0.0000       0.098161         2.6711
  70   0.0000       0.119861         3.2616
  71   0.0000       0.133116         3.6223

MULLIKEN ATOMIC CHARGES
-----------------------
   0 S :    0.117097
   1 C :   -0.122173
   2 C :   -0.123869
   3 C :    0.088458
   4 C :   -0.128368
   5 H :   -0.058459
   6 C :    0.029591
   7 H :    0.046790
   8 H :    0.014238
   9 C :   -0.043491
  10 H :    0.038202
  11 H :    0.019801
  12 C :   -0.058010
  13 H :    0.034230
  14 H :    0.018157
  15 H :    0.054515
  16 S :    0.081452
  17 C :   -0.103443
  18 C :   -0.053572
  19 C :   -0.078834
  20 C :   -0.093003
  21 H :    0.030315
  22 C :    0.075263
  23 H :    0.027167
  24 H :    0.018520
  25 C :   -0.069675
  26 H :    0.025711
  27 H :    0.021971
  28 C :   -0.066202
  29 H :    0.045463
  30 H :    0.041383
  31 H :    0.033428
  32 H :    0.058641
  33 H :    0.078705
Sum of atomic charges:    0.0000000

LOEWDIN ATOMIC CHARGES
----------------------
   0 S :    0.412235
   1 C :   -0.222607
   2 C :   -0.061742
   3 C :   -0.049784
   4 C :   -0.171015
   5 H :    0.010724
   6 C :   -0.045895
   7 H :    0.044328
   8 H :    0.025919
   9 C :   -0.040105
  10 H :    0.031805
  11 H :    0.018957
  12 C :   -0.063720
  13 H :    0.034506
  14 H :    0.009392
  15 H :    0.032159
  16 S :    0.396583
  17 C :   -0.199309
  18 C :   -0.076276
  19 C :   -0.062294
  20 C :   -0.185380
  21 H :    0.032510
  22 C :   -0.024276
  23 H :    0.033053
  24 H :    0.024777
  25 C :   -0.039953
  26 H :    0.016423
  27 H :    0.018761
  28 C :   -0.066784
  29 H :    0.023752
  30 H :    0.029390
  31 H :    0.031784
  32 H :    0.035294
  33 H :    0.046788

  Mayer bond orders larger than 0.100000
B(  0-S ,  1-C ) :   1.1503 B(  0-S ,  4-C ) :   1.1603 B(  1-C ,  2-C ) :   1.5722
B(  1-C ,  4-C ) :   0.1058 B(  1-C , 32-H ) :   0.9594 B(  2-C ,  3-C ) :   1.3062
B(  2-C ,  6-C ) :   1.0046 B(  3-C ,  4-C ) :   1.5184 B(  3-C ,  5-H ) :   1.0054
B(  4-C , 20-C ) :   1.0205 B(  6-C ,  7-H ) :   0.9303 B(  6-C ,  8-H ) :   0.9418
B(  6-C ,  9-C ) :   1.0828 B(  9-C , 10-H ) :   0.9511 B(  9-C , 11-H ) :   0.9457
B(  9-C , 12-C ) :   1.0857 B( 12-C , 13-H ) :   0.9754 B( 12-C , 14-H ) :   0.9758
B( 12-C , 15-H ) :   0.9687 B( 16-S , 17-C ) :   1.1330 B( 16-S , 20-C ) :   1.1417
B( 17-C , 18-C ) :   1.6540 B( 17-C , 33-H ) :   0.9560 B( 18-C , 19-C ) :   1.2022
B( 18-C , 21-H ) :   0.9800 B( 19-C , 20-C ) :   1.6307 B( 19-C , 22-C ) :   1.0409
B( 22-C , 23-H ) :   0.9299 B( 22-C , 24-H ) :   0.9419 B( 22-C , 25-C ) :   1.0671
B( 25-C , 26-H ) :   0.9502 B( 25-C , 27-H ) :   0.9610 B( 25-C , 28-C ) :   1.0697
B( 28-C , 29-H ) :   0.9761 B( 28-C , 30-H ) :   0.9703 B( 28-C , 31-H ) :   0.9789

Dispersion correction           -0.014601368
FINAL SINGLE POINT ENERGY     -1339.847542562145

DIPOLE MOMENT
-------------
                                X             Y             Z
Electronic contribution:    -20.42142     -12.77869      -8.04392
Nuclear contribution   :     21.04210      13.03086       8.34138
                        -----------------------------------------
Total Dipole Moment    :      0.62068       0.25217       0.29746
                        -----------------------------------------
Magnitude (a.u.)       :      0.73302
Magnitude (Debye)      :      1.86318

Rotational constants in cm-1:     0.021149     0.008390     0.006465
Rotational constants in MHz :   634.030102   251.515361   193.802225

                             ****ORCA TERMINATED NORMALLY****
TOTAL RUN TIME: 0 days 0 hours 0 minutes 34 seconds 547 msec
