                         Program Version 4.2.1 -  RELEASE  -
|  1> ! wB97X-D3 SP def2-SVP
|  2> %pal
|  3> nprocs 16
|  4> end
|  5>
|  6> * xyz 0 1
|  7> S 	 6.40388 	 -9.78558 	 72.9296
|  8> C 	 6.30088 	 -10.3407 	 71.2933
|  9> C 	 6.81488 	 -9.39611 	 70.3882
| 10> C 	 7.30528 	 -8.20045 	 71.0569
| 11> C 	 7.06518 	 -8.25029 	 72.4164
| 12> H 	 7.90464 	 -7.40953 	 70.6789
| 13> C 	 6.91465 	 -9.71658 	 68.9092
| 14> H 	 6.44272 	 -10.6614 	 68.799
| 15> H 	 7.88853 	 -9.93606 	 68.4766
| 16> C 	 6.23199 	 -8.72146 	 68.0091
| 17> H 	 6.61685 	 -7.77781 	 68.259
| 18> H 	 6.64733 	 -8.84159 	 67.0159
| 19> C 	 4.62823 	 -8.56306 	 68.0856
| 20> H 	 4.28717 	 -7.63668 	 67.566
| 21> H 	 4.17789 	 -9.42088 	 67.588
| 22> H 	 4.16996 	 -8.64165 	 69.1098
| 23> S 	 8.60542 	 -7.70795 	 74.6983
| 24> C 	 8.60183 	 -6.0131 	 75.2055
| 25> C 	 7.87596 	 -5.20021 	 74.3842
| 26> C 	 7.2408 	 -5.92033 	 73.3342
| 27> C 	 7.46529 	 -7.25594 	 73.398
| 28> H 	 7.76318 	 -4.09378 	 74.5279
| 29> C 	 6.3411 	 -5.23479 	 72.3793
| 30> H 	 6.13838 	 -5.82089 	 71.4972
| 31> H 	 6.90997 	 -4.44594 	 71.9343
| 32> C 	 4.99966 	 -4.72665 	 72.8844
| 33> H 	 4.56732 	 -3.99302 	 72.1739
| 34> H 	 5.03973 	 -4.3 	 73.8773
| 35> C 	 3.95494 	 -5.9006 	 73.0632
| 36> H 	 4.26318 	 -6.61285 	 73.7768
| 37> H 	 3.82024 	 -6.42269 	 72.0932
| 38> H 	 2.9194 	 -5.55085 	 73.2884
| 39> H 	 5.83135 	 -11.2886 	 70.9389
| 40> H 	 9.1176 	 -5.63464 	 76.0294
| 41> *
| 42>
| 43>                          ****END OF INPUT****

CARTESIAN COORDINATES (ANGSTROEM)
---------------------------------
  S      6.403880   -9.785580   72.929600
  C      6.300880  -10.340700   71.293300
  C      6.814880   -9.396110   70.388200
  C      7.305280   -8.200450   71.056900
  C      7.065180   -8.250290   72.416400
  H      7.904640   -7.409530   70.678900
  C      6.914650   -9.716580   68.909200
  H      6.442720  -10.661400   68.799000
  H      7.888530   -9.936060   68.476600
  C      6.231990   -8.721460   68.009100
  H      6.616850   -7.777810   68.259000
  H      6.647330   -8.841590   67.015900
  C      4.628230   -8.563060   68.085600
  H      4.287170   -7.636680   67.566000
  H      4.177890   -9.420880   67.588000
  H      4.169960   -8.641650   69.109800
  S      8.605420   -7.707950   74.698300
  C      8.601830   -6.013100   75.205500
  C      7.875960   -5.200210   74.384200
  C      7.240800   -5.920330   73.334200
  C      7.465290   -7.255940   73.398000
  H      7.763180   -4.093780   74.527900
  C      6.341100   -5.234790   72.379300
  H      6.138380   -5.820890   71.497200
  H      6.909970   -4.445940   71.934300
  C      4.999660   -4.726650   72.884400
  H      4.567320   -3.993020   72.173900
  H      5.039730   -4.300000   73.877300
  C      3.954940   -5.900600   73.063200
  H      4.263180   -6.612850   73.776800
  H      3.820240   -6.422690   72.093200
  H      2.919400   -5.550850   73.288400
  H      5.831350  -11.288600   70.938900
  H      9.117600   -5.634640   76.029400

 Total Charge           Charge          ....    0
 Multiplicity           Mult            ....    1
 Number of Electrons    NEL             ....  134
 Basis Dimension        Dim             ....  322

ORBITAL ENERGIES
----------------

  NO   OCC          E(Eh)            E(eV)
   0   2.0000     -88.967998     -2420.9423
   1   2.0000     -88.967423     -2420.9267
   2   2.0000     -10.327695      -281.0309
   3   2.0000     -10.323489      -280.9164
   4   2.0000     -10.317639      -280.7572
   5   2.0000     -10.314764      -280.6790
   6   2.0000     -10.305953      -280.4392
   7   2.0000     -10.296523      -280.1826
   8   2.0000     -10.295871      -280.1649
   9   2.0000     -10.295277      -280.1487
  10   2.0000     -10.288031      -279.9516
  11   2.0000     -10.286770      -279.9173
  12   2.0000     -10.286695      -279.9152
  13   2.0000     -10.283287      -279.8225
  14   2.0000     -10.282310      -279.7959
  15   2.0000     -10.272557      -279.5305
  16   2.0000      -8.082896      -219.9468
  17   2.0000      -8.081412      -219.9064
  18   2.0000      -6.041348      -164.3934
  19   2.0000      -6.039984      -164.3563
  20   2.0000      -6.037345      -164.2845
  21   2.0000      -6.036272      -164.2553
  22   2.0000      -6.033756      -164.1868
  23   2.0000      -6.031900      -164.1363
  24   2.0000      -1.007410       -27.4130
  25   2.0000      -0.983465       -26.7615
  26   2.0000      -0.910495       -24.7758
  27   2.0000      -0.908829       -24.7305
  28   2.0000      -0.868315       -23.6280
  29   2.0000      -0.847209       -23.0537
  30   2.0000      -0.839549       -22.8453
  31   2.0000      -0.813472       -22.1357
  32   2.0000      -0.784135       -21.3374
  33   2.0000      -0.773510       -21.0483
  34   2.0000      -0.713140       -19.4055
  35   2.0000      -0.697707       -18.9856
  36   2.0000      -0.692496       -18.8438
  37   2.0000      -0.658316       -17.9137
  38   2.0000      -0.645728       -17.5711
  39   2.0000      -0.620117       -16.8742
  40   2.0000      -0.605198       -16.4683
  41   2.0000      -0.566354       -15.4113
  42   2.0000      -0.551712       -15.0129
  43   2.0000      -0.545204       -14.8358
  44   2.0000      -0.534997       -14.5580
  45   2.0000      -0.529664       -14.4129
  46   2.0000      -0.516942       -14.0667
  47   2.0000      -0.508129       -13.8269
  48   2.0000      -0.499126       -13.5819
  49   2.0000      -0.490302       -13.3418
  50   2.0000      -0.487684       -13.2705
  51   2.0000      -0.481942       -13.1143
  52   2.0000      -0.469592       -12.7782
  53   2.0000      -0.460484       -12.5304
  54   2.0000      -0.457820       -12.4579
  55   2.0000      -0.449412       -12.2291
  56   2.0000      -0.446904       -12.1609
  57   2.0000      -0.441288       -12.0081
  58   2.0000      -0.436207       -11.8698
  59   2.0000      -0.424629       -11.5547
  60   2.0000      -0.421250       -11.4628
  61   2.0000      -0.410870       -11.1804
  62   2.0000      -0.410151       -11.1608
  63   2.0000      -0.348546        -9.4844
  64   2.0000      -0.334142        -9.0925
  65   2.0000      -0.329651        -8.9703
  66   2.0000      -0.293993        -7.9999
  67   0.0000       0.032196         0.8761
  68   0.0000       0.069327         1.8865
  69   0.0000       0.108381         2.9492
  70   0.0000       0.119311         3.2466
  71   0.0000       0.124319         3.3829

MULLIKEN ATOMIC CHARGES
-----------------------
   0 S :    0.117731
   1 C :   -0.126737
   2 C :   -0.108593
   3 C :    0.057470
   4 C :   -0.190711
   5 H :    0.016637
   6 C :    0.103612
   7 H :   -0.011641
   8 H :    0.034688
   9 C :   -0.056847
  10 H :    0.006571
  11 H :    0.017788
  12 C :   -0.084750
  13 H :    0.047463
  14 H :    0.027673
  15 H :    0.051479
  16 S :    0.104519
  17 C :   -0.060997
  18 C :   -0.041026
  19 C :   -0.051048
  20 C :   -0.135036
  21 H :    0.037727
  22 C :    0.102981
  23 H :    0.003396
  24 H :    0.014407
  25 C :   -0.061907
  26 H :    0.036102
  27 H :    0.027786
  28 C :   -0.073912
  29 H :    0.037368
  30 H :    0.025631
  31 H :    0.034749
  32 H :    0.065059
  33 H :    0.032364
Sum of atomic charges:    0.0000000

LOEWDIN ATOMIC CHARGES
----------------------
   0 S :    0.414735
   1 C :   -0.213379
   2 C :   -0.057542
   3 C :   -0.056499
   4 C :   -0.188699
   5 H :    0.030141
   6 C :   -0.033618
   7 H :    0.022316
   8 H :    0.036113
   9 C :   -0.040469
  10 H :    0.012934
  11 H :    0.024502
  12 C :   -0.074554
  13 H :    0.031528
  14 H :    0.021374
  15 H :    0.034312
  16 S :    0.376702
  17 C :   -0.162661
  18 C :   -0.069201
  19 C :   -0.058137
  20 C :   -0.189564
  21 H :    0.042166
  22 C :   -0.036608
  23 H :    0.028783
  24 H :    0.030632
  25 C :   -0.033613
  26 H :    0.029013
  27 H :    0.020534
  28 C :   -0.066981
  29 H :    0.018357
  30 H :    0.024439
  31 H :    0.027732
  32 H :    0.037904
  33 H :    0.017308

  Mayer bond orders larger than 0.100000
B(  0-S ,  1-C ) :   1.1388 B(  0-S ,  4-C ) :   1.1551 B(  1-C ,  2-C ) :   1.6147
B(  1-C , 32-H ) :   0.9587 B(  2-C ,  3-C ) :   1.2161 B(  2-C ,  6-C ) :   1.0298
B(  3-C ,  4-C ) :   1.5878 B(  3-C ,  5-H ) :   0.9926 B(  4-C , 20-C ) :   1.0276
B(  6-C ,  7-H ) :   0.9326 B(  6-C ,  8-H ) :   0.9373 B(  6-C ,  9-C ) :   1.0746
B(  9-C , 10-H ) :   0.9591 B(  9-C , 11-H ) :   0.9549 B(  9-C , 12-C ) :   1.0505
B( 12-C , 13-H ) :   0.9782 B( 12-C , 14-H ) :   0.9779 B( 12-C , 15-H ) :   0.9775
B( 16-S , 17-C ) :   1.1335 B( 16-S , 20-C ) :   1.1127 B( 17-C , 18-C ) :   1.6399
B( 17-C , 33-H ) :   0.9723 B( 18-C , 19-C ) :   1.2153 B( 18-C , 21-H ) :   0.9816
B( 19-C , 20-C ) :   1.6413 B( 19-C , 22-C ) :   1.0579 B( 22-C , 23-H ) :   0.9218
B( 22-C , 24-H ) :   0.9171 B( 22-C , 25-C ) :   1.0723 B( 25-C , 26-H ) :   0.9543
B( 25-C , 27-H ) :   0.9607 B( 25-C , 28-C ) :   1.0680 B( 28-C , 29-H ) :   0.9801
B( 28-C , 30-H ) :   0.9756 B( 28-C , 31-H ) :   0.9764

Dispersion correction           -0.015377830
FINAL SINGLE POINT ENERGY     -1339.882014723311

DIPOLE MOMENT
-------------
                                X             Y             Z
Electronic contribution:     15.83130      -9.48769      20.83734
Nuclear contribution   :    -15.86093       9.85322     -21.33410
                        -----------------------------------------
Total Dipole Moment    :     -0.02963       0.36553      -0.49677
                        -----------------------------------------
Magnitude (a.u.)       :      0.61747
Magnitude (Debye)      :      1.56947

Rotational constants in cm-1:     0.019696     0.009358     0.007608
Rotational constants in MHz :   590.462088   280.534600   228.072851

                             ****ORCA TERMINATED NORMALLY****
TOTAL RUN TIME: 0 days 0 hours 0 minutes 34 seconds 689 msec
