                         Program Version 4.2.1 -  RELEASE  -
|  1> ! wB97X-D3 SP def2-SVP
|  2> %pal
|  3> nprocs 16
|  4> end
|  5>
|  6> * xyz 0 1
|  7> S 	 -38.6961 	 31.5097 	 92.715
|  8> C 	 -39.6857 	 30.7621 	 93.9615
|  9> C 	 -40.8819 	 30.3089 	 93.4316
| 10> C 	 -40.9491 	 30.552 	 92.0094
| 11> C 	 -39.9173 	 31.3416 	 91.5132
| 12> H 	 -41.8112 	 30.2834 	 91.3744
| 13> C 	 -41.985 	 29.6208 	 94.2408
| 14> H 	 -41.4977 	 28.7198 	 94.7482
| 15> H 	 -42.7941 	 29.2272 	 93.5927
| 16> C 	 -42.6071 	 30.5395 	 95.3155
| 17> H 	 -43.309 	 29.9174 	 95.8826
| 18> H 	 -41.7882 	 30.7245 	 95.9807
| 19> C 	 -43.436 	 31.5585 	 94.635
| 20> H 	 -42.8537 	 32.008 	 93.8365
| 21> H 	 -44.2202 	 31.193 	 94.1319
| 22> H 	 -43.7167 	 32.4646 	 95.2228
| 23> S 	 -40.8089 	 32.9847 	 89.4973
| 24> C 	 -40.0982 	 32.8929 	 87.9518
| 25> C 	 -38.9552 	 32.149 	 87.9746
| 26> C 	 -38.825 	 31.3404 	 89.156
| 27> C 	 -39.7501 	 31.7214 	 90.1239
| 28> H 	 -38.2699 	 32.19 	 87.146
| 29> C 	 -37.8026 	 30.2017 	 89.252
| 30> H 	 -38.1747 	 29.422 	 88.6228
| 31> H 	 -37.9035 	 29.8945 	 90.3895
| 32> C 	 -36.3238 	 30.5956 	 89.0106
| 33> H 	 -36.0192 	 31.3375 	 89.7066
| 34> H 	 -36.1532 	 30.9091 	 88.0343
| 35> C 	 -35.4915 	 29.3466 	 89.2272
| 36> H 	 -35.8135 	 28.4897 	 88.6423
| 37> H 	 -35.4763 	 29.0863 	 90.286
| 38> H 	 -34.4172 	 29.6411 	 88.9612
| 39> H 	 -39.309 	 30.6548 	 94.9727
| 40> H 	 -40.3265 	 33.6218 	 87.154
| 41> *
| 42>
| 43>                          ****END OF INPUT****

CARTESIAN COORDINATES (ANGSTROEM)
---------------------------------
  S    -38.696100   31.509700   92.715000
  C    -39.685700   30.762100   93.961500
  C    -40.881900   30.308900   93.431600
  C    -40.949100   30.552000   92.009400
  C    -39.917300   31.341600   91.513200
  H    -41.811200   30.283400   91.374400
  C    -41.985000   29.620800   94.240800
  H    -41.497700   28.719800   94.748200
  H    -42.794100   29.227200   93.592700
  C    -42.607100   30.539500   95.315500
  H    -43.309000   29.917400   95.882600
  H    -41.788200   30.724500   95.980700
  C    -43.436000   31.558500   94.635000
  H    -42.853700   32.008000   93.836500
  H    -44.220200   31.193000   94.131900
  H    -43.716700   32.464600   95.222800
  S    -40.808900   32.984700   89.497300
  C    -40.098200   32.892900   87.951800
  C    -38.955200   32.149000   87.974600
  C    -38.825000   31.340400   89.156000
  C    -39.750100   31.721400   90.123900
  H    -38.269900   32.190000   87.146000
  C    -37.802600   30.201700   89.252000
  H    -38.174700   29.422000   88.622800
  H    -37.903500   29.894500   90.389500
  C    -36.323800   30.595600   89.010600
  H    -36.019200   31.337500   89.706600
  H    -36.153200   30.909100   88.034300
  C    -35.491500   29.346600   89.227200
  H    -35.813500   28.489700   88.642300
  H    -35.476300   29.086300   90.286000
  H    -34.417200   29.641100   88.961200
  H    -39.309000   30.654800   94.972700
  H    -40.326500   33.621800   87.154000

 Total Charge           Charge          ....    0
 Multiplicity           Mult            ....    1
 Number of Electrons    NEL             ....  134
 Basis Dimension        Dim             ....  322

ORBITAL ENERGIES
----------------

  NO   OCC          E(Eh)            E(eV)
   0   2.0000     -88.967184     -2420.9202
   1   2.0000     -88.961162     -2420.7563
   2   2.0000     -10.326512      -280.9987
   3   2.0000     -10.323532      -280.9176
   4   2.0000     -10.317015      -280.7402
   5   2.0000     -10.311723      -280.5962
   6   2.0000     -10.304954      -280.4121
   7   2.0000     -10.302191      -280.3369
   8   2.0000     -10.298936      -280.2483
   9   2.0000     -10.297104      -280.1984
  10   2.0000     -10.296315      -280.1770
  11   2.0000     -10.288568      -279.9662
  12   2.0000     -10.283089      -279.8171
  13   2.0000     -10.278678      -279.6970
  14   2.0000     -10.278580      -279.6944
  15   2.0000     -10.264465      -279.3103
  16   2.0000      -8.081945      -219.9209
  17   2.0000      -8.076806      -219.7811
  18   2.0000      -6.040411      -164.3679
  19   2.0000      -6.036297      -164.2560
  20   2.0000      -6.035245      -164.2274
  21   2.0000      -6.032910      -164.1638
  22   2.0000      -6.031218      -164.1178
  23   2.0000      -6.027550      -164.0180
  24   2.0000      -1.007725       -27.4216
  25   2.0000      -0.986353       -26.8400
  26   2.0000      -0.917959       -24.9789
  27   2.0000      -0.909242       -24.7417
  28   2.0000      -0.870775       -23.6950
  29   2.0000      -0.850778       -23.1508
  30   2.0000      -0.845266       -23.0009
  31   2.0000      -0.810808       -22.0632
  32   2.0000      -0.781063       -21.2538
  33   2.0000      -0.766643       -20.8614
  34   2.0000      -0.707112       -19.2415
  35   2.0000      -0.703238       -19.1361
  36   2.0000      -0.693629       -18.8746
  37   2.0000      -0.655585       -17.8394
  38   2.0000      -0.641279       -17.4501
  39   2.0000      -0.607021       -16.5179
  40   2.0000      -0.591987       -16.1088
  41   2.0000      -0.578581       -15.7440
  42   2.0000      -0.575107       -15.6495
  43   2.0000      -0.550449       -14.9785
  44   2.0000      -0.543452       -14.7881
  45   2.0000      -0.526588       -14.3292
  46   2.0000      -0.516420       -14.0525
  47   2.0000      -0.513292       -13.9674
  48   2.0000      -0.503862       -13.7108
  49   2.0000      -0.498780       -13.5725
  50   2.0000      -0.485617       -13.2143
  51   2.0000      -0.481342       -13.0980
  52   2.0000      -0.468425       -12.7465
  53   2.0000      -0.465120       -12.6566
  54   2.0000      -0.460322       -12.5260
  55   2.0000      -0.444281       -12.0895
  56   2.0000      -0.442024       -12.0281
  57   2.0000      -0.441231       -12.0065
  58   2.0000      -0.433757       -11.8031
  59   2.0000      -0.421056       -11.4575
  60   2.0000      -0.419225       -11.4077
  61   2.0000      -0.412035       -11.2121
  62   2.0000      -0.409589       -11.1455
  63   2.0000      -0.335984        -9.1426
  64   2.0000      -0.328841        -8.9482
  65   2.0000      -0.325409        -8.8548
  66   2.0000      -0.302910        -8.2426
  67   0.0000       0.037710         1.0261
  68   0.0000       0.064209         1.7472
  69   0.0000       0.108472         2.9517
  70   0.0000       0.121479         3.3056
  71   0.0000       0.131437         3.5766

MULLIKEN ATOMIC CHARGES
-----------------------
   0 S :    0.117313
   1 C :   -0.142541
   2 C :   -0.070247
   3 C :    0.033536
   4 C :   -0.173722
   5 H :    0.024652
   6 C :   -0.007746
   7 H :    0.047051
   8 H :    0.025036
   9 C :   -0.028325
  10 H :    0.023099
  11 H :    0.023110
  12 C :    0.008054
  13 H :    0.017838
  14 H :   -0.003076
  15 H :    0.039157
  16 S :    0.109773
  17 C :   -0.094556
  18 C :   -0.042183
  19 C :   -0.020356
  20 C :   -0.182300
  21 H :    0.014985
  22 C :    0.018167
  23 H :    0.039741
  24 H :    0.041899
  25 C :   -0.028748
  26 H :    0.028101
  27 H :    0.017768
  28 C :   -0.061648
  29 H :    0.033863
  30 H :    0.032536
  31 H :    0.036301
  32 H :    0.055095
  33 H :    0.068371
Sum of atomic charges:   -0.0000000

LOEWDIN ATOMIC CHARGES
----------------------
   0 S :    0.421493
   1 C :   -0.194232
   2 C :   -0.066659
   3 C :   -0.061706
   4 C :   -0.214823
   5 H :    0.035199
   6 C :   -0.033785
   7 H :    0.038317
   8 H :    0.027754
   9 C :   -0.037800
  10 H :    0.025117
  11 H :    0.020744
  12 C :   -0.060416
  13 H :    0.028784
  14 H :    0.010557
  15 H :    0.033897
  16 S :    0.417417
  17 C :   -0.203154
  18 C :   -0.074482
  19 C :   -0.056084
  20 C :   -0.203938
  21 H :    0.027230
  22 C :   -0.032452
  23 H :    0.029402
  24 H :    0.038449
  25 C :   -0.030891
  26 H :    0.025609
  27 H :    0.012848
  28 C :   -0.063500
  29 H :    0.022933
  30 H :    0.024095
  31 H :    0.031365
  32 H :    0.027296
  33 H :    0.035411

  Mayer bond orders larger than 0.100000
B(  0-S ,  1-C ) :   1.1497 B(  0-S ,  4-C ) :   1.1577 B(  1-C ,  2-C ) :   1.5794
B(  1-C , 32-H ) :   0.9730 B(  2-C ,  3-C ) :   1.2553 B(  2-C ,  6-C ) :   1.0129
B(  3-C ,  4-C ) :   1.5615 B(  3-C ,  5-H ) :   0.9875 B(  4-C , 20-C ) :   1.0215
B(  6-C ,  7-H ) :   0.9420 B(  6-C ,  8-H ) :   0.9489 B(  6-C ,  9-C ) :   1.0730
B(  9-C , 10-H ) :   0.9531 B(  9-C , 11-H ) :   0.9596 B(  9-C , 12-C ) :   1.0645
B( 12-C , 13-H ) :   0.9727 B( 12-C , 14-H ) :   0.9658 B( 12-C , 15-H ) :   0.9694
B( 16-S , 17-C ) :   1.1644 B( 16-S , 20-C ) :   1.1487 B( 17-C , 18-C ) :   1.6192
B( 17-C , 33-H ) :   0.9600 B( 18-C , 19-C ) :   1.2275 B( 18-C , 21-H ) :   0.9909
B( 19-C , 20-C ) :   1.6047 B( 19-C , 22-C ) :   1.0243 B( 22-C , 23-H ) :   0.9376
B( 22-C , 24-H ) :   0.9351 B( 22-C , 25-C ) :   1.0691 B( 25-C , 26-H ) :   0.9524
B( 25-C , 27-H ) :   0.9530 B( 25-C , 28-C ) :   1.0941 B( 28-C , 29-H ) :   0.9731
B( 28-C , 30-H ) :   0.9756 B( 28-C , 31-H ) :   0.9737

Dispersion correction           -0.014301894
FINAL SINGLE POINT ENERGY     -1339.871580482199

DIPOLE MOMENT
-------------
                                X             Y             Z
Electronic contribution:     -1.55417      11.44602      -5.77820
Nuclear contribution   :      1.61213     -11.73459       5.76735
                        -----------------------------------------
Total Dipole Moment    :      0.05796      -0.28857      -0.01085
                        -----------------------------------------
Magnitude (a.u.)       :      0.29453
Magnitude (Debye)      :      0.74863

Rotational constants in cm-1:     0.021444     0.008078     0.006380
Rotational constants in MHz :   642.877275   242.172323   191.280844

                             ****ORCA TERMINATED NORMALLY****
TOTAL RUN TIME: 0 days 0 hours 0 minutes 29 seconds 100 msec
