                         Program Version 4.2.1 -  RELEASE  -
|  1> ! wB97X-D3 SP def2-SVP
|  2> %pal
|  3> nprocs 16
|  4> end
|  5>
|  6> * xyz 0 1
|  7> S 	 45.9214 	 11.5969 	 104.643
|  8> C 	 47.6283 	 11.2511 	 104.797
|  9> C 	 48.2484 	 11.1233 	 103.589
| 10> C 	 47.325 	 11.1696 	 102.512
| 11> C 	 46.0029 	 11.3763 	 102.881
| 12> H 	 47.6228 	 11.1494 	 101.49
| 13> C 	 49.6974 	 10.8261 	 103.387
| 14> H 	 50.2231 	 11.5048 	 104.116
| 15> H 	 50.0373 	 11.117 	 102.402
| 16> C 	 50.1427 	 9.434 	 103.814
| 17> H 	 49.4792 	 8.76747 	 103.219
| 18> H 	 51.1614 	 9.23707 	 103.443
| 19> C 	 50.1645 	 9.1017 	 105.266
| 20> H 	 49.1024 	 9.01359 	 105.628
| 21> H 	 50.6837 	 8.15851 	 105.573
| 22> H 	 50.6016 	 9.85662 	 105.925
| 23> S 	 43.3195 	 11.3879 	 102.821
| 24> C 	 42.4863 	 11.6321 	 101.284
| 25> C 	 43.4138 	 11.7896 	 100.238
| 26> C 	 44.7545 	 11.8227 	 100.646
| 27> C 	 44.8653 	 11.5649 	 102.025
| 28> H 	 42.9153 	 11.9178 	 99.247
| 29> C 	 45.9475 	 11.9732 	 99.6536
| 30> H 	 46.3251 	 10.9512 	 99.7575
| 31> H 	 46.6033 	 12.8274 	 99.9821
| 32> C 	 45.5131 	 12.1335 	 98.2005
| 33> H 	 44.6304 	 11.6093 	 97.8641
| 34> H 	 46.3613 	 11.6318 	 97.6233
| 35> C 	 45.3627 	 13.6231 	 97.9032
| 36> H 	 46.2679 	 14.1704 	 98.2305
| 37> H 	 44.4602 	 14.0137 	 98.4005
| 38> H 	 45.2445 	 13.9641 	 96.8427
| 39> H 	 48.1535 	 11.2286 	 105.725
| 40> H 	 41.4167 	 11.725 	 101.098
| 41> *
| 42>
| 43>                          ****END OF INPUT****

CARTESIAN COORDINATES (ANGSTROEM)
---------------------------------
  S     45.921400   11.596900  104.643000
  C     47.628300   11.251100  104.797000
  C     48.248400   11.123300  103.589000
  C     47.325000   11.169600  102.512000
  C     46.002900   11.376300  102.881000
  H     47.622800   11.149400  101.490000
  C     49.697400   10.826100  103.387000
  H     50.223100   11.504800  104.116000
  H     50.037300   11.117000  102.402000
  C     50.142700    9.434000  103.814000
  H     49.479200    8.767470  103.219000
  H     51.161400    9.237070  103.443000
  C     50.164500    9.101700  105.266000
  H     49.102400    9.013590  105.628000
  H     50.683700    8.158510  105.573000
  H     50.601600    9.856620  105.925000
  S     43.319500   11.387900  102.821000
  C     42.486300   11.632100  101.284000
  C     43.413800   11.789600  100.238000
  C     44.754500   11.822700  100.646000
  C     44.865300   11.564900  102.025000
  H     42.915300   11.917800   99.247000
  C     45.947500   11.973200   99.653600
  H     46.325100   10.951200   99.757500
  H     46.603300   12.827400   99.982100
  C     45.513100   12.133500   98.200500
  H     44.630400   11.609300   97.864100
  H     46.361300   11.631800   97.623300
  C     45.362700   13.623100   97.903200
  H     46.267900   14.170400   98.230500
  H     44.460200   14.013700   98.400500
  H     45.244500   13.964100   96.842700
  H     48.153500   11.228600  105.725000
  H     41.416700   11.725000  101.098000

 Total Charge           Charge          ....    0
 Multiplicity           Mult            ....    1
 Number of Electrons    NEL             ....  134
 Basis Dimension        Dim             ....  322

ORBITAL ENERGIES
----------------

  NO   OCC          E(Eh)            E(eV)
   0   2.0000     -88.968891     -2420.9666
   1   2.0000     -88.965589     -2420.8767
   2   2.0000     -10.330208      -281.0993
   3   2.0000     -10.326902      -281.0093
   4   2.0000     -10.319509      -280.8081
   5   2.0000     -10.308480      -280.5080
   6   2.0000     -10.308027      -280.4957
   7   2.0000     -10.304513      -280.4000
   8   2.0000     -10.297960      -280.2217
   9   2.0000     -10.294506      -280.1277
  10   2.0000     -10.294391      -280.1246
  11   2.0000     -10.292595      -280.0757
  12   2.0000     -10.288314      -279.9593
  13   2.0000     -10.287661      -279.9415
  14   2.0000     -10.284415      -279.8532
  15   2.0000     -10.282592      -279.8036
  16   2.0000      -8.083173      -219.9543
  17   2.0000      -8.079951      -219.8666
  18   2.0000      -6.041671      -164.4022
  19   2.0000      -6.038588      -164.3183
  20   2.0000      -6.037747      -164.2954
  21   2.0000      -6.034642      -164.2110
  22   2.0000      -6.033989      -164.1932
  23   2.0000      -6.030474      -164.0975
  24   2.0000      -1.007058       -27.4034
  25   2.0000      -0.982992       -26.7486
  26   2.0000      -0.917980       -24.9795
  27   2.0000      -0.913507       -24.8578
  28   2.0000      -0.869897       -23.6711
  29   2.0000      -0.854177       -23.2433
  30   2.0000      -0.843836       -22.9619
  31   2.0000      -0.811663       -22.0865
  32   2.0000      -0.784645       -21.3513
  33   2.0000      -0.774368       -21.0716
  34   2.0000      -0.710884       -19.3441
  35   2.0000      -0.699809       -19.0428
  36   2.0000      -0.695630       -18.9291
  37   2.0000      -0.655676       -17.8418
  38   2.0000      -0.636304       -17.3147
  39   2.0000      -0.622317       -16.9341
  40   2.0000      -0.598061       -16.2741
  41   2.0000      -0.573719       -15.6117
  42   2.0000      -0.566723       -15.4213
  43   2.0000      -0.549563       -14.9544
  44   2.0000      -0.541943       -14.7470
  45   2.0000      -0.529377       -14.4051
  46   2.0000      -0.523423       -14.2431
  47   2.0000      -0.508359       -13.8332
  48   2.0000      -0.501752       -13.6534
  49   2.0000      -0.495764       -13.4904
  50   2.0000      -0.490071       -13.3355
  51   2.0000      -0.485798       -13.2192
  52   2.0000      -0.473395       -12.8817
  53   2.0000      -0.461196       -12.5498
  54   2.0000      -0.458549       -12.4777
  55   2.0000      -0.451146       -12.2763
  56   2.0000      -0.445538       -12.1237
  57   2.0000      -0.440336       -11.9821
  58   2.0000      -0.433591       -11.7986
  59   2.0000      -0.425483       -11.5780
  60   2.0000      -0.421676       -11.4744
  61   2.0000      -0.407843       -11.0980
  62   2.0000      -0.406521       -11.0620
  63   2.0000      -0.358733        -9.7616
  64   2.0000      -0.337161        -9.1746
  65   2.0000      -0.329196        -8.9579
  66   2.0000      -0.275967        -7.5094
  67   0.0000       0.016397         0.4462
  68   0.0000       0.083423         2.2700
  69   0.0000       0.093693         2.5495
  70   0.0000       0.123256         3.3540
  71   0.0000       0.140238         3.8161

MULLIKEN ATOMIC CHARGES
-----------------------
   0 S :    0.100956
   1 C :   -0.115226
   2 C :   -0.075279
   3 C :   -0.020991
   4 C :   -0.097854
   5 H :   -0.012786
   6 C :    0.067190
   7 H :    0.023365
   8 H :    0.021234
   9 C :   -0.046428
  10 H :    0.030003
  11 H :    0.028587
  12 C :   -0.082762
  13 H :    0.039766
  14 H :    0.045844
  15 H :    0.024639
  16 S :    0.105178
  17 C :   -0.091604
  18 C :   -0.085350
  19 C :   -0.053867
  20 C :   -0.134874
  21 H :    0.035174
  22 C :    0.024940
  23 H :    0.063251
  24 H :    0.067766
  25 C :   -0.057226
  26 H :    0.032593
  27 H :    0.037529
  28 C :   -0.078585
  29 H :    0.033640
  30 H :    0.039261
  31 H :    0.038614
  32 H :    0.036392
  33 H :    0.056912
Sum of atomic charges:    0.0000000

LOEWDIN ATOMIC CHARGES
----------------------
   0 S :    0.388407
   1 C :   -0.190805
   2 C :   -0.065913
   3 C :   -0.068608
   4 C :   -0.178865
   5 H :    0.022719
   6 C :   -0.032436
   7 H :    0.034801
   8 H :    0.029349
   9 C :   -0.045815
  10 H :    0.028555
  11 H :    0.026061
  12 C :   -0.078708
  13 H :    0.030141
  14 H :    0.035135
  15 H :    0.021981
  16 S :    0.406635
  17 C :   -0.189590
  18 C :   -0.082600
  19 C :   -0.058383
  20 C :   -0.197156
  21 H :    0.039921
  22 C :   -0.032480
  23 H :    0.040566
  24 H :    0.045729
  25 C :   -0.047857
  26 H :    0.023304
  27 H :    0.033266
  28 C :   -0.074542
  29 H :    0.026458
  30 H :    0.028156
  31 H :    0.028136
  32 H :    0.022440
  33 H :    0.031999

  Mayer bond orders larger than 0.100000
B(  0-S ,  1-C ) :   1.1269 B(  0-S ,  4-C ) :   1.1323 B(  1-C ,  2-C ) :   1.6153
B(  1-C , 32-H ) :   0.9637 B(  2-C ,  3-C ) :   1.2486 B(  2-C ,  6-C ) :   1.0285
B(  3-C ,  4-C ) :   1.5551 B(  3-C ,  5-H ) :   0.9969 B(  4-C , 20-C ) :   1.1145
B(  6-C ,  7-H ) :   0.9333 B(  6-C ,  8-H ) :   0.9400 B(  6-C ,  9-C ) :   1.0691
B(  9-C , 10-H ) :   0.9506 B(  9-C , 11-H ) :   0.9534 B(  9-C , 12-C ) :   1.0852
B( 12-C , 13-H ) :   0.9663 B( 12-C , 14-H ) :   0.9706 B( 12-C , 15-H ) :   0.9711
B( 16-S , 17-C ) :   1.1543 B( 16-S , 20-C ) :   1.1455 B( 17-C , 18-C ) :   1.6014
B( 17-C , 20-C ) :   0.1126 B( 17-C , 33-H ) :   0.9628 B( 18-C , 19-C ) :   1.2709
B( 18-C , 21-H ) :   0.9763 B( 19-C , 20-C ) :   1.5563 B( 19-C , 22-C ) :   1.0008
B( 22-C , 23-H ) :   0.9245 B( 22-C , 24-H ) :   0.9356 B( 22-C , 25-C ) :   1.0728
B( 25-C , 26-H ) :   0.9480 B( 25-C , 27-H ) :   0.9554 B( 25-C , 28-C ) :   1.0692
B( 28-C , 29-H ) :   0.9754 B( 28-C , 30-H ) :   0.9749 B( 28-C , 31-H ) :   0.9753

Dispersion correction           -0.013992280
FINAL SINGLE POINT ENERGY     -1339.877013843467

DIPOLE MOMENT
-------------
                                X             Y             Z
Electronic contribution:    -19.78787       1.82562      13.72972
Nuclear contribution   :     20.20047      -1.82582     -14.31888
                        -----------------------------------------
Total Dipole Moment    :      0.41259      -0.00021      -0.58917
                        -----------------------------------------
Magnitude (a.u.)       :      0.71927
Magnitude (Debye)      :      1.82824

Rotational constants in cm-1:     0.021425     0.007893     0.006141
Rotational constants in MHz :   642.294829   236.629221   184.114342

                             ****ORCA TERMINATED NORMALLY****
TOTAL RUN TIME: 0 days 0 hours 0 minutes 30 seconds 632 msec
