                         Program Version 4.2.1 -  RELEASE  -
|  1> ! wB97X-D3 SP def2-SVP
|  2> %pal
|  3> nprocs 16
|  4> end
|  5>
|  6> * xyz 0 1
|  7> S 	 -45.1557 	 66.5932 	 126.482
|  8> C 	 -46.1453 	 65.3335 	 125.953
|  9> C 	 -46.3808 	 64.4851 	 127.018
| 10> C 	 -46.0332 	 65.0398 	 128.243
| 11> C 	 -45.4591 	 66.3046 	 128.153
| 12> H 	 -46.0728 	 64.5028 	 129.245
| 13> C 	 -46.8818 	 63.0397 	 126.932
| 14> H 	 -47.4209 	 62.8651 	 125.985
| 15> H 	 -47.7085 	 62.9156 	 127.643
| 16> C 	 -45.7693 	 62.0654 	 127.034
| 17> H 	 -45.0306 	 62.1803 	 126.235
| 18> H 	 -45.2002 	 62.1583 	 127.945
| 19> C 	 -46.2459 	 60.6229 	 127.061
| 20> H 	 -46.9775 	 60.332 	 126.343
| 21> H 	 -45.4119 	 59.8734 	 126.9
| 22> H 	 -46.5233 	 60.2486 	 128.052
| 23> S 	 -43.3437 	 67.6182 	 129.336
| 24> C 	 -43.5786 	 68.6154 	 130.728
| 25> C 	 -44.8259 	 68.4014 	 131.304
| 26> C 	 -45.6624 	 67.5634 	 130.484
| 27> C 	 -45.0006 	 67.1242 	 129.3
| 28> H 	 -45.0877 	 68.9433 	 132.172
| 29> C 	 -47.1345 	 67.4026 	 130.806
| 30> H 	 -47.672 	 67.4503 	 129.869
| 31> H 	 -47.4823 	 68.3162 	 131.326
| 32> C 	 -47.557 	 66.196 	 131.686
| 33> H 	 -47.1343 	 66.2376 	 132.646
| 34> H 	 -47.106 	 65.3208 	 131.241
| 35> C 	 -49.11 	 66.159 	 131.796
| 36> H 	 -49.6003 	 66.2129 	 130.768
| 37> H 	 -49.4401 	 66.9909 	 132.432
| 38> H 	 -49.4535 	 65.3139 	 132.34
| 39> H 	 -46.0895 	 65.0754 	 124.86
| 40> H 	 -42.7851 	 69.3608 	 131.05
| 41> *
| 42>
| 43>                          ****END OF INPUT****

CARTESIAN COORDINATES (ANGSTROEM)
---------------------------------
  S    -45.155700   66.593200  126.482000
  C    -46.145300   65.333500  125.953000
  C    -46.380800   64.485100  127.018000
  C    -46.033200   65.039800  128.243000
  C    -45.459100   66.304600  128.153000
  H    -46.072800   64.502800  129.245000
  C    -46.881800   63.039700  126.932000
  H    -47.420900   62.865100  125.985000
  H    -47.708500   62.915600  127.643000
  C    -45.769300   62.065400  127.034000
  H    -45.030600   62.180300  126.235000
  H    -45.200200   62.158300  127.945000
  C    -46.245900   60.622900  127.061000
  H    -46.977500   60.332000  126.343000
  H    -45.411900   59.873400  126.900000
  H    -46.523300   60.248600  128.052000
  S    -43.343700   67.618200  129.336000
  C    -43.578600   68.615400  130.728000
  C    -44.825900   68.401400  131.304000
  C    -45.662400   67.563400  130.484000
  C    -45.000600   67.124200  129.300000
  H    -45.087700   68.943300  132.172000
  C    -47.134500   67.402600  130.806000
  H    -47.672000   67.450300  129.869000
  H    -47.482300   68.316200  131.326000
  C    -47.557000   66.196000  131.686000
  H    -47.134300   66.237600  132.646000
  H    -47.106000   65.320800  131.241000
  C    -49.110000   66.159000  131.796000
  H    -49.600300   66.212900  130.768000
  H    -49.440100   66.990900  132.432000
  H    -49.453500   65.313900  132.340000
  H    -46.089500   65.075400  124.860000
  H    -42.785100   69.360800  131.050000

 Total Charge           Charge          ....    0
 Multiplicity           Mult            ....    1
 Number of Electrons    NEL             ....  134
 Basis Dimension        Dim             ....  322

ORBITAL ENERGIES
----------------

  NO   OCC          E(Eh)            E(eV)
   0   2.0000     -88.965116     -2420.8639
   1   2.0000     -88.964275     -2420.8410
   2   2.0000     -10.330136      -281.0973
   3   2.0000     -10.329538      -281.0810
   4   2.0000     -10.320265      -280.8287
   5   2.0000     -10.313965      -280.6573
   6   2.0000     -10.307763      -280.4885
   7   2.0000     -10.298461      -280.2354
   8   2.0000     -10.294631      -280.1312
   9   2.0000     -10.293638      -280.1041
  10   2.0000     -10.291530      -280.0468
  11   2.0000     -10.288602      -279.9671
  12   2.0000     -10.283910      -279.8394
  13   2.0000     -10.282986      -279.8143
  14   2.0000     -10.281962      -279.7864
  15   2.0000     -10.277488      -279.6647
  16   2.0000      -8.081529      -219.9096
  17   2.0000      -8.079808      -219.8627
  18   2.0000      -6.039836      -164.3523
  19   2.0000      -6.038143      -164.3062
  20   2.0000      -6.035806      -164.2426
  21   2.0000      -6.034134      -164.1971
  22   2.0000      -6.032374      -164.1492
  23   2.0000      -6.030792      -164.1062
  24   2.0000      -1.015165       -27.6240
  25   2.0000      -0.990054       -26.9407
  26   2.0000      -0.917737       -24.9729
  27   2.0000      -0.904370       -24.6092
  28   2.0000      -0.868674       -23.6378
  29   2.0000      -0.852605       -23.2006
  30   2.0000      -0.847406       -23.0591
  31   2.0000      -0.812831       -22.1183
  32   2.0000      -0.780811       -21.2470
  33   2.0000      -0.767430       -20.8828
  34   2.0000      -0.707339       -19.2477
  35   2.0000      -0.702675       -19.1208
  36   2.0000      -0.689517       -18.7627
  37   2.0000      -0.661111       -17.9897
  38   2.0000      -0.640634       -17.4325
  39   2.0000      -0.623786       -16.9741
  40   2.0000      -0.594626       -16.1806
  41   2.0000      -0.569698       -15.5023
  42   2.0000      -0.563820       -15.3423
  43   2.0000      -0.557371       -15.1668
  44   2.0000      -0.527347       -14.3498
  45   2.0000      -0.522183       -14.2093
  46   2.0000      -0.517259       -14.0753
  47   2.0000      -0.510233       -13.8841
  48   2.0000      -0.504357       -13.7242
  49   2.0000      -0.499712       -13.5978
  50   2.0000      -0.494539       -13.4571
  51   2.0000      -0.475632       -12.9426
  52   2.0000      -0.469286       -12.7699
  53   2.0000      -0.467448       -12.7199
  54   2.0000      -0.459949       -12.5159
  55   2.0000      -0.450004       -12.2452
  56   2.0000      -0.443680       -12.0732
  57   2.0000      -0.440585       -11.9889
  58   2.0000      -0.435030       -11.8378
  59   2.0000      -0.422988       -11.5101
  60   2.0000      -0.416314       -11.3285
  61   2.0000      -0.415643       -11.3102
  62   2.0000      -0.413791       -11.2598
  63   2.0000      -0.346100        -9.4179
  64   2.0000      -0.329805        -8.9745
  65   2.0000      -0.328609        -8.9419
  66   2.0000      -0.292566        -7.9611
  67   0.0000       0.025587         0.6963
  68   0.0000       0.071925         1.9572
  69   0.0000       0.114203         3.1076
  70   0.0000       0.123640         3.3644
  71   0.0000       0.134931         3.6717

MULLIKEN ATOMIC CHARGES
-----------------------
   0 S :    0.121230
   1 C :   -0.128506
   2 C :   -0.101776
   3 C :   -0.000838
   4 C :   -0.150884
   5 H :    0.045529
   6 C :    0.065381
   7 H :    0.014250
   8 H :    0.029101
   9 C :   -0.037419
  10 H :    0.029971
  11 H :    0.022827
  12 C :   -0.060242
  13 H :    0.026527
  14 H :    0.024735
  15 H :    0.025685
  16 S :    0.108280
  17 C :   -0.132286
  18 C :   -0.010825
  19 C :   -0.023101
  20 C :   -0.161939
  21 H :    0.008567
  22 C :    0.026032
  23 H :    0.029187
  24 H :    0.015954
  25 C :   -0.024943
  26 H :    0.013502
  27 H :    0.010901
  28 C :   -0.052275
  29 H :    0.048332
  30 H :    0.030267
  31 H :    0.026797
  32 H :    0.076758
  33 H :    0.085220
Sum of atomic charges:    0.0000000

LOEWDIN ATOMIC CHARGES
----------------------
   0 S :    0.450293
   1 C :   -0.226645
   2 C :   -0.070474
   3 C :   -0.070372
   4 C :   -0.213151
   5 H :    0.042596
   6 C :   -0.032999
   7 H :    0.030522
   8 H :    0.031579
   9 C :   -0.041934
  10 H :    0.028742
  11 H :    0.025789
  12 C :   -0.073005
  13 H :    0.017375
  14 H :    0.032825
  15 H :    0.025092
  16 S :    0.421555
  17 C :   -0.202706
  18 C :   -0.068212
  19 C :   -0.054107
  20 C :   -0.207927
  21 H :    0.026739
  22 C :   -0.034668
  23 H :    0.031223
  24 H :    0.030228
  25 C :   -0.031727
  26 H :    0.017282
  27 H :    0.016318
  28 C :   -0.065585
  29 H :    0.035201
  30 H :    0.027212
  31 H :    0.019714
  32 H :    0.040454
  33 H :    0.042771

  Mayer bond orders larger than 0.100000
B(  0-S ,  1-C ) :   1.1781 B(  0-S ,  4-C ) :   1.1897 B(  1-C ,  2-C ) :   1.5468
B(  1-C ,  4-C ) :   0.1088 B(  1-C , 32-H ) :   0.9618 B(  2-C ,  3-C ) :   1.3166
B(  2-C ,  6-C ) :   1.0199 B(  3-C ,  4-C ) :   1.4996 B(  3-C ,  5-H ) :   0.9818
B(  4-C , 20-C ) :   1.0387 B(  6-C ,  7-H ) :   0.9369 B(  6-C ,  8-H ) :   0.9448
B(  6-C ,  9-C ) :   1.0692 B(  9-C , 10-H ) :   0.9531 B(  9-C , 11-H ) :   0.9530
B(  9-C , 12-C ) :   1.0835 B( 12-C , 13-H ) :   0.9753 B( 12-C , 14-H ) :   0.9706
B( 12-C , 15-H ) :   0.9749 B( 16-S , 17-C ) :   1.1718 B( 16-S , 20-C ) :   1.1636
B( 17-C , 18-C ) :   1.5794 B( 17-C , 20-C ) :   0.1009 B( 17-C , 33-H ) :   0.9599
B( 18-C , 19-C ) :   1.2576 B( 18-C , 21-H ) :   0.9997 B( 19-C , 20-C ) :   1.5589
B( 19-C , 22-C ) :   1.0448 B( 22-C , 23-H ) :   0.9389 B( 22-C , 24-H ) :   0.9412
B( 22-C , 25-C ) :   1.0541 B( 25-C , 26-H ) :   0.9506 B( 25-C , 27-H ) :   0.9555
B( 25-C , 28-C ) :   1.0790 B( 28-C , 29-H ) :   0.9759 B( 28-C , 30-H ) :   0.9738
B( 28-C , 31-H ) :   0.9743

Dispersion correction           -0.013874271
FINAL SINGLE POINT ENERGY     -1339.874392727678

DIPOLE MOMENT
-------------
                                X             Y             Z
Electronic contribution:     18.34411      20.53279      -8.47480
Nuclear contribution   :    -18.56043     -20.90128       8.75992
                        -----------------------------------------
Total Dipole Moment    :     -0.21633      -0.36850       0.28512
                        -----------------------------------------
Magnitude (a.u.)       :      0.51369
Magnitude (Debye)      :      1.30570

Rotational constants in cm-1:     0.016874     0.008706     0.006720
Rotational constants in MHz :   505.872763   261.007185   201.459001

                             ****ORCA TERMINATED NORMALLY****
TOTAL RUN TIME: 0 days 0 hours 0 minutes 33 seconds 911 msec
