                         Program Version 4.2.1 -  RELEASE  -
|  1> ! wB97X-D3 SP def2-SVP
|  2> %pal
|  3> nprocs 16
|  4> end
|  5>
|  6> * xyz 0 1
|  7> S 	 -6.05568 	 -6.63601 	 79.6428
|  8> C 	 -5.61846 	 -8.28837 	 79.5745
|  9> C 	 -6.64316 	 -9.17598 	 79.3529
| 10> C 	 -7.82362 	 -8.39067 	 79.2215
| 11> C 	 -7.69356 	 -7.02794 	 79.3399
| 12> H 	 -8.87939 	 -8.78755 	 79.1868
| 13> C 	 -6.59776 	 -10.6398 	 79.3971
| 14> H 	 -7.44204 	 -10.9443 	 80.057
| 15> H 	 -5.65619 	 -10.9949 	 79.893
| 16> C 	 -6.74183 	 -11.2688 	 78.004
| 17> H 	 -7.6104 	 -10.8066 	 77.5236
| 18> H 	 -5.91971 	 -11.0956 	 77.333
| 19> C 	 -7.00913 	 -12.8353 	 78.0547
| 20> H 	 -7.21654 	 -13.1706 	 77.0796
| 21> H 	 -6.21414 	 -13.4081 	 78.5206
| 22> H 	 -7.86954 	 -12.963 	 78.7181
| 23> S 	 -8.72775 	 -4.737 	 80.4431
| 24> C 	 -10.3871 	 -4.32305 	 80.0826
| 25> C 	 -10.794 	 -4.82514 	 78.874
| 26> C 	 -9.78889 	 -5.73352 	 78.3197
| 27> C 	 -8.68081 	 -5.92847 	 79.2115
| 28> H 	 -11.7994 	 -4.44873 	 78.5978
| 29> C 	 -10.1591 	 -6.62512 	 77.1781
| 30> H 	 -9.2262 	 -7.29339 	 77.0884
| 31> H 	 -10.1297 	 -6.0424 	 76.2767
| 32> C 	 -11.4754 	 -7.37087 	 77.3422
| 33> H 	 -12.3477 	 -6.70341 	 77.3589
| 34> H 	 -11.5398 	 -7.93851 	 78.3091
| 35> C 	 -11.6658 	 -8.42442 	 76.2683
| 36> H 	 -11.3 	 -8.13372 	 75.2813
| 37> H 	 -12.7345 	 -8.6317 	 76.2226
| 38> H 	 -11.0804 	 -9.34906 	 76.4422
| 39> H 	 -4.674 	 -8.65213 	 79.7539
| 40> H 	 -10.9526 	 -3.72549 	 80.7665
| 41> *
| 42>
| 43>                          ****END OF INPUT****

CARTESIAN COORDINATES (ANGSTROEM)
---------------------------------
  S     -6.055680   -6.636010   79.642800
  C     -5.618460   -8.288370   79.574500
  C     -6.643160   -9.175980   79.352900
  C     -7.823620   -8.390670   79.221500
  C     -7.693560   -7.027940   79.339900
  H     -8.879390   -8.787550   79.186800
  C     -6.597760  -10.639800   79.397100
  H     -7.442040  -10.944300   80.057000
  H     -5.656190  -10.994900   79.893000
  C     -6.741830  -11.268800   78.004000
  H     -7.610400  -10.806600   77.523600
  H     -5.919710  -11.095600   77.333000
  C     -7.009130  -12.835300   78.054700
  H     -7.216540  -13.170600   77.079600
  H     -6.214140  -13.408100   78.520600
  H     -7.869540  -12.963000   78.718100
  S     -8.727750   -4.737000   80.443100
  C    -10.387100   -4.323050   80.082600
  C    -10.794000   -4.825140   78.874000
  C     -9.788890   -5.733520   78.319700
  C     -8.680810   -5.928470   79.211500
  H    -11.799400   -4.448730   78.597800
  C    -10.159100   -6.625120   77.178100
  H     -9.226200   -7.293390   77.088400
  H    -10.129700   -6.042400   76.276700
  C    -11.475400   -7.370870   77.342200
  H    -12.347700   -6.703410   77.358900
  H    -11.539800   -7.938510   78.309100
  C    -11.665800   -8.424420   76.268300
  H    -11.300000   -8.133720   75.281300
  H    -12.734500   -8.631700   76.222600
  H    -11.080400   -9.349060   76.442200
  H     -4.674000   -8.652130   79.753900
  H    -10.952600   -3.725490   80.766500

 Total Charge           Charge          ....    0
 Multiplicity           Mult            ....    1
 Number of Electrons    NEL             ....  134
 Basis Dimension        Dim             ....  322

ORBITAL ENERGIES
----------------

  NO   OCC          E(Eh)            E(eV)
   0   2.0000     -88.964474     -2420.8464
   1   2.0000     -88.960096     -2420.7273
   2   2.0000     -10.330274      -281.1010
   3   2.0000     -10.327488      -281.0252
   4   2.0000     -10.314804      -280.6801
   5   2.0000     -10.310783      -280.5707
   6   2.0000     -10.302454      -280.3440
   7   2.0000     -10.299495      -280.2635
   8   2.0000     -10.298793      -280.2444
   9   2.0000     -10.296524      -280.1827
  10   2.0000     -10.295115      -280.1443
  11   2.0000     -10.289913      -280.0028
  12   2.0000     -10.289825      -280.0004
  13   2.0000     -10.289594      -279.9941
  14   2.0000     -10.277878      -279.6753
  15   2.0000     -10.277250      -279.6582
  16   2.0000      -8.080854      -219.8912
  17   2.0000      -8.076106      -219.7620
  18   2.0000      -6.039193      -164.3348
  19   2.0000      -6.035182      -164.2257
  20   2.0000      -6.034506      -164.2073
  21   2.0000      -6.031663      -164.1299
  22   2.0000      -6.030452      -164.0969
  23   2.0000      -6.026905      -164.0004
  24   2.0000      -1.013330       -27.5741
  25   2.0000      -0.989011       -26.9124
  26   2.0000      -0.916563       -24.9410
  27   2.0000      -0.910710       -24.7817
  28   2.0000      -0.869338       -23.6559
  29   2.0000      -0.851000       -23.1569
  30   2.0000      -0.846873       -23.0446
  31   2.0000      -0.819127       -22.2896
  32   2.0000      -0.784130       -21.3373
  33   2.0000      -0.767157       -20.8754
  34   2.0000      -0.708323       -19.2745
  35   2.0000      -0.700635       -19.0653
  36   2.0000      -0.695860       -18.9353
  37   2.0000      -0.656706       -17.8699
  38   2.0000      -0.641684       -17.4611
  39   2.0000      -0.622093       -16.9280
  40   2.0000      -0.593425       -16.1479
  41   2.0000      -0.573380       -15.6025
  42   2.0000      -0.563086       -15.3224
  43   2.0000      -0.557395       -15.1675
  44   2.0000      -0.537254       -14.6194
  45   2.0000      -0.531488       -14.4625
  46   2.0000      -0.520554       -14.1650
  47   2.0000      -0.509412       -13.8618
  48   2.0000      -0.499506       -13.5922
  49   2.0000      -0.498186       -13.5563
  50   2.0000      -0.492199       -13.3934
  51   2.0000      -0.485174       -13.2023
  52   2.0000      -0.472943       -12.8694
  53   2.0000      -0.459173       -12.4947
  54   2.0000      -0.456023       -12.4090
  55   2.0000      -0.450993       -12.2722
  56   2.0000      -0.444422       -12.0933
  57   2.0000      -0.442435       -12.0393
  58   2.0000      -0.433338       -11.7917
  59   2.0000      -0.427289       -11.6271
  60   2.0000      -0.420511       -11.4427
  61   2.0000      -0.417756       -11.3677
  62   2.0000      -0.410862       -11.1801
  63   2.0000      -0.350421        -9.5354
  64   2.0000      -0.332239        -9.0407
  65   2.0000      -0.323152        -8.7934
  66   2.0000      -0.288027        -7.8376
  67   0.0000       0.031134         0.8472
  68   0.0000       0.072403         1.9702
  69   0.0000       0.110125         2.9966
  70   0.0000       0.115789         3.1508
  71   0.0000       0.125050         3.4028

MULLIKEN ATOMIC CHARGES
-----------------------
   0 S :    0.119328
   1 C :   -0.076229
   2 C :   -0.080177
   3 C :   -0.015238
   4 C :   -0.142914
   5 H :    0.026252
   6 C :    0.060245
   7 H :    0.038442
   8 H :    0.029119
   9 C :   -0.094118
  10 H :    0.027633
  11 H :    0.030988
  12 C :   -0.022075
  13 H :    0.031531
  14 H :    0.031973
  15 H :    0.021251
  16 S :    0.096105
  17 C :   -0.107682
  18 C :   -0.041297
  19 C :   -0.030395
  20 C :   -0.137615
  21 H :    0.038715
  22 C :    0.046125
  23 H :    0.038205
  24 H :    0.027171
  25 C :   -0.085796
  26 H :    0.032672
  27 H :    0.037285
  28 C :   -0.040076
  29 H :    0.020408
  30 H :    0.034298
  31 H :    0.033180
  32 H :   -0.000092
  33 H :    0.052779
Sum of atomic charges:   -0.0000000

LOEWDIN ATOMIC CHARGES
----------------------
   0 S :    0.434815
   1 C :   -0.191540
   2 C :   -0.066484
   3 C :   -0.073927
   4 C :   -0.207136
   5 H :    0.036738
   6 C :   -0.034990
   7 H :    0.039632
   8 H :    0.035104
   9 C :   -0.033983
  10 H :    0.024109
  11 H :    0.021819
  12 C :   -0.058675
  13 H :    0.019542
  14 H :    0.023409
  15 H :    0.023848
  16 S :    0.407273
  17 C :   -0.174889
  18 C :   -0.076958
  19 C :   -0.050331
  20 C :   -0.216067
  21 H :    0.043226
  22 C :   -0.045251
  23 H :    0.040847
  24 H :    0.030674
  25 C :   -0.045364
  26 H :    0.024289
  27 H :    0.031202
  28 C :   -0.067042
  29 H :    0.021376
  30 H :    0.027318
  31 H :    0.027208
  32 H :    0.007503
  33 H :    0.022705

  Mayer bond orders larger than 0.100000
B(  0-S ,  1-C ) :   1.1581 B(  0-S ,  4-C ) :   1.1605 B(  1-C ,  2-C ) :   1.6116
B(  1-C , 32-H ) :   0.9703 B(  2-C ,  3-C ) :   1.2401 B(  2-C ,  6-C ) :   1.0320
B(  3-C ,  4-C ) :   1.5997 B(  3-C ,  5-H ) :   0.9820 B(  4-C , 20-C ) :   1.0007
B(  6-C ,  7-H ) :   0.9372 B(  6-C ,  8-H ) :   0.9368 B(  6-C ,  9-C ) :   1.0545
B(  9-C , 10-H ) :   0.9606 B(  9-C , 11-H ) :   0.9574 B(  9-C , 12-C ) :   1.0745
B( 12-C , 13-H ) :   0.9767 B( 12-C , 14-H ) :   0.9772 B( 12-C , 15-H ) :   0.9766
B( 16-S , 17-C ) :   1.1591 B( 16-S , 20-C ) :   1.1471 B( 17-C , 18-C ) :   1.6300
B( 17-C , 33-H ) :   0.9722 B( 18-C , 19-C ) :   1.1860 B( 18-C , 21-H ) :   0.9905
B( 19-C , 20-C ) :   1.5783 B( 19-C , 22-C ) :   1.0627 B( 22-C , 23-H ) :   0.9416
B( 22-C , 24-H ) :   0.9163 B( 22-C , 25-C ) :   1.0619 B( 25-C , 26-H ) :   0.9502
B( 25-C , 27-H ) :   0.9557 B( 25-C , 28-C ) :   1.0824 B( 28-C , 29-H ) :   0.9734
B( 28-C , 30-H ) :   0.9745 B( 28-C , 31-H ) :   0.9754

Dispersion correction           -0.013945756
FINAL SINGLE POINT ENERGY     -1339.870299587417

DIPOLE MOMENT
-------------
                                X             Y             Z
Electronic contribution:     11.05553      27.13192      15.03820
Nuclear contribution   :    -11.51152     -27.64133     -15.20156
                        -----------------------------------------
Total Dipole Moment    :     -0.45599      -0.50941      -0.16336
                        -----------------------------------------
Magnitude (a.u.)       :      0.70293
Magnitude (Debye)      :      1.78671

Rotational constants in cm-1:     0.017210     0.009217     0.006361
Rotational constants in MHz :   515.955187   276.313380   190.696599

                             ****ORCA TERMINATED NORMALLY****
TOTAL RUN TIME: 0 days 0 hours 0 minutes 33 seconds 684 msec
