                         Program Version 4.2.1 -  RELEASE  -
|  1> ! wB97X-D3 SP def2-SVP
|  2> %pal
|  3> nprocs 16
|  4> end
|  5>
|  6> * xyz 0 1
|  7> S 	 -86.4943 	 44.2418 	 129.074
|  8> C 	 -86.2261 	 42.8501 	 130.162
|  9> C 	 -85.7461 	 41.7423 	 129.476
| 10> C 	 -85.8179 	 41.9564 	 128.061
| 11> C 	 -86.0905 	 43.2323 	 127.7
| 12> H 	 -85.5261 	 41.1466 	 127.406
| 13> C 	 -85.6771 	 40.3491 	 130.091
| 14> H 	 -85.6773 	 39.7191 	 129.194
| 15> H 	 -86.5721 	 40.1346 	 130.669
| 16> C 	 -84.3359 	 39.9844 	 130.918
| 17> H 	 -84.1798 	 40.7301 	 131.707
| 18> H 	 -84.5607 	 39.0465 	 131.456
| 19> C 	 -83.1147 	 39.7615 	 130.06
| 20> H 	 -83.355 	 39.0948 	 129.225
| 21> H 	 -82.7648 	 40.667 	 129.605
| 22> H 	 -82.281 	 39.3154 	 130.624
| 23> S 	 -84.8195 	 43.6832 	 125.2
| 24> C 	 -85.6622 	 44.2681 	 123.809
| 25> C 	 -86.9048 	 44.6488 	 124.199
| 26> C 	 -87.2491 	 44.3316 	 125.578
| 27> C 	 -86.1764 	 43.7446 	 126.317
| 28> H 	 -87.5721 	 45.0184 	 123.418
| 29> C 	 -88.5148 	 44.7684 	 126.264
| 30> H 	 -88.4329 	 44.7419 	 127.312
| 31> H 	 -89.2597 	 43.9295 	 126.143
| 32> C 	 -89.1066 	 46.1686 	 125.959
| 33> H 	 -89.2516 	 46.3253 	 124.881
| 34> H 	 -88.3724 	 46.8314 	 126.214
| 35> C 	 -90.5167 	 46.3197 	 126.554
| 36> H 	 -90.99 	 47.2315 	 126.212
| 37> H 	 -90.6526 	 46.3139 	 127.672
| 38> H 	 -91.0496 	 45.5632 	 126.108
| 39> H 	 -86.3293 	 42.919 	 131.245
| 40> H 	 -85.3309 	 44.4647 	 122.797
| 41> *
| 42>
| 43>                          ****END OF INPUT****

CARTESIAN COORDINATES (ANGSTROEM)
---------------------------------
  S    -86.494300   44.241800  129.074000
  C    -86.226100   42.850100  130.162000
  C    -85.746100   41.742300  129.476000
  C    -85.817900   41.956400  128.061000
  C    -86.090500   43.232300  127.700000
  H    -85.526100   41.146600  127.406000
  C    -85.677100   40.349100  130.091000
  H    -85.677300   39.719100  129.194000
  H    -86.572100   40.134600  130.669000
  C    -84.335900   39.984400  130.918000
  H    -84.179800   40.730100  131.707000
  H    -84.560700   39.046500  131.456000
  C    -83.114700   39.761500  130.060000
  H    -83.355000   39.094800  129.225000
  H    -82.764800   40.667000  129.605000
  H    -82.281000   39.315400  130.624000
  S    -84.819500   43.683200  125.200000
  C    -85.662200   44.268100  123.809000
  C    -86.904800   44.648800  124.199000
  C    -87.249100   44.331600  125.578000
  C    -86.176400   43.744600  126.317000
  H    -87.572100   45.018400  123.418000
  C    -88.514800   44.768400  126.264000
  H    -88.432900   44.741900  127.312000
  H    -89.259700   43.929500  126.143000
  C    -89.106600   46.168600  125.959000
  H    -89.251600   46.325300  124.881000
  H    -88.372400   46.831400  126.214000
  C    -90.516700   46.319700  126.554000
  H    -90.990000   47.231500  126.212000
  H    -90.652600   46.313900  127.672000
  H    -91.049600   45.563200  126.108000
  H    -86.329300   42.919000  131.245000
  H    -85.330900   44.464700  122.797000

 Total Charge           Charge          ....    0
 Multiplicity           Mult            ....    1
 Number of Electrons    NEL             ....  134
 Basis Dimension        Dim             ....  322

ORBITAL ENERGIES
----------------

  NO   OCC          E(Eh)            E(eV)
   0   2.0000     -88.970711     -2421.0161
   1   2.0000     -88.962289     -2420.7870
   2   2.0000     -10.332882      -281.1720
   3   2.0000     -10.331023      -281.1214
   4   2.0000     -10.320144      -280.8254
   5   2.0000     -10.314550      -280.6732
   6   2.0000     -10.307790      -280.4892
   7   2.0000     -10.301956      -280.3305
   8   2.0000     -10.298899      -280.2473
   9   2.0000     -10.294816      -280.1362
  10   2.0000     -10.293165      -280.0913
  11   2.0000     -10.292340      -280.0688
  12   2.0000     -10.283038      -279.8157
  13   2.0000     -10.280042      -279.7342
  14   2.0000     -10.276139      -279.6280
  15   2.0000     -10.273648      -279.5602
  16   2.0000      -8.084450      -219.9891
  17   2.0000      -8.076966      -219.7854
  18   2.0000      -6.043057      -164.4399
  19   2.0000      -6.039118      -164.3328
  20   2.0000      -6.035525      -164.2350
  21   2.0000      -6.035134      -164.2243
  22   2.0000      -6.031275      -164.1193
  23   2.0000      -6.027844      -164.0260
  24   2.0000      -1.004266       -27.3275
  25   2.0000      -0.983894       -26.7731
  26   2.0000      -0.907335       -24.6898
  27   2.0000      -0.903870       -24.5955
  28   2.0000      -0.869058       -23.6483
  29   2.0000      -0.851409       -23.1680
  30   2.0000      -0.843819       -22.9615
  31   2.0000      -0.818561       -22.2742
  32   2.0000      -0.780398       -21.2357
  33   2.0000      -0.768442       -20.9104
  34   2.0000      -0.709631       -19.3100
  35   2.0000      -0.703364       -19.1395
  36   2.0000      -0.700428       -19.0596
  37   2.0000      -0.649310       -17.6686
  38   2.0000      -0.637069       -17.3355
  39   2.0000      -0.620091       -16.8735
  40   2.0000      -0.595590       -16.2068
  41   2.0000      -0.572774       -15.5860
  42   2.0000      -0.563347       -15.3295
  43   2.0000      -0.548685       -14.9305
  44   2.0000      -0.544790       -14.8245
  45   2.0000      -0.522353       -14.2139
  46   2.0000      -0.511868       -13.9286
  47   2.0000      -0.507576       -13.8119
  48   2.0000      -0.506895       -13.7933
  49   2.0000      -0.498408       -13.5624
  50   2.0000      -0.487691       -13.2707
  51   2.0000      -0.473970       -12.8974
  52   2.0000      -0.472861       -12.8672
  53   2.0000      -0.465966       -12.6796
  54   2.0000      -0.461352       -12.5540
  55   2.0000      -0.449846       -12.2409
  56   2.0000      -0.446489       -12.1496
  57   2.0000      -0.437655       -11.9092
  58   2.0000      -0.435535       -11.8515
  59   2.0000      -0.426317       -11.6007
  60   2.0000      -0.419520       -11.4157
  61   2.0000      -0.412714       -11.2305
  62   2.0000      -0.405920       -11.0456
  63   2.0000      -0.342840        -9.3292
  64   2.0000      -0.334352        -9.0982
  65   2.0000      -0.323102        -8.7920
  66   2.0000      -0.297858        -8.1051
  67   0.0000       0.029631         0.8063
  68   0.0000       0.068852         1.8736
  69   0.0000       0.105575         2.8728
  70   0.0000       0.117066         3.1855
  71   0.0000       0.128083         3.4853

MULLIKEN ATOMIC CHARGES
-----------------------
   0 S :    0.113047
   1 C :   -0.133619
   2 C :   -0.068906
   3 C :    0.031119
   4 C :   -0.140286
   5 H :    0.018244
   6 C :    0.014877
   7 H :    0.017198
   8 H :    0.047015
   9 C :   -0.068890
  10 H :    0.032022
  11 H :    0.029680
  12 C :   -0.046814
  13 H :    0.024465
  14 H :    0.034880
  15 H :    0.041723
  16 S :    0.103045
  17 C :   -0.081228
  18 C :   -0.054676
  19 C :   -0.022305
  20 C :   -0.146693
  21 H :    0.026261
  22 C :    0.040760
  23 H :   -0.004653
  24 H :    0.028339
  25 C :   -0.035772
  26 H :    0.023819
  27 H :    0.015051
  28 C :   -0.033974
  29 H :    0.025135
  30 H :    0.044994
  31 H :    0.012542
  32 H :    0.056256
  33 H :    0.057344
Sum of atomic charges:   -0.0000000

LOEWDIN ATOMIC CHARGES
----------------------
   0 S :    0.403917
   1 C :   -0.177225
   2 C :   -0.069896
   3 C :   -0.055773
   4 C :   -0.190907
   5 H :    0.033533
   6 C :   -0.027461
   7 H :    0.028114
   8 H :    0.033987
   9 C :   -0.039564
  10 H :    0.022148
  11 H :    0.025114
  12 C :   -0.067771
  13 H :    0.025273
  14 H :    0.023896
  15 H :    0.031410
  16 S :    0.412201
  17 C :   -0.194787
  18 C :   -0.082492
  19 C :   -0.053487
  20 C :   -0.203763
  21 H :    0.032875
  22 C :   -0.044406
  23 H :    0.008932
  24 H :    0.036770
  25 C :   -0.027083
  26 H :    0.024469
  27 H :    0.011477
  28 C :   -0.059122
  29 H :    0.025844
  30 H :    0.031190
  31 H :    0.016051
  32 H :    0.028184
  33 H :    0.038353

  Mayer bond orders larger than 0.100000
B(  0-S ,  1-C ) :   1.1401 B(  0-S ,  4-C ) :   1.1372 B(  1-C ,  2-C ) :   1.6120
B(  1-C , 32-H ) :   0.9666 B(  2-C ,  3-C ) :   1.2393 B(  2-C ,  6-C ) :   1.0063
B(  3-C ,  4-C ) :   1.6076 B(  3-C ,  5-H ) :   0.9851 B(  4-C , 20-C ) :   1.0195
B(  6-C ,  7-H ) :   0.9496 B(  6-C ,  8-H ) :   0.9542 B(  6-C ,  9-C ) :   1.0546
B(  9-C , 10-H ) :   0.9605 B(  9-C , 11-H ) :   0.9573 B(  9-C , 12-C ) :   1.0784
B( 12-C , 13-H ) :   0.9733 B( 12-C , 14-H ) :   0.9759 B( 12-C , 15-H ) :   0.9732
B( 16-S , 17-C ) :   1.1620 B( 16-S , 20-C ) :   1.1454 B( 17-C , 18-C ) :   1.6070
B( 17-C , 33-H ) :   0.9647 B( 18-C , 19-C ) :   1.2530 B( 18-C , 21-H ) :   0.9860
B( 19-C , 20-C ) :   1.5494 B( 19-C , 22-C ) :   1.0538 B( 22-C , 23-H ) :   0.9362
B( 22-C , 24-H ) :   0.9196 B( 22-C , 25-C ) :   1.0528 B( 25-C , 26-H ) :   0.9528
B( 25-C , 27-H ) :   0.9612 B( 25-C , 28-C ) :   1.0714 B( 28-C , 29-H ) :   0.9741
B( 28-C , 30-H ) :   0.9778 B( 28-C , 31-H ) :   0.9744

Dispersion correction           -0.013783868
FINAL SINGLE POINT ENERGY     -1339.869284672051

DIPOLE MOMENT
-------------
                                X             Y             Z
Electronic contribution:      7.75931       6.37144      -7.36498
Nuclear contribution   :     -8.05937      -6.62185       7.46133
                        -----------------------------------------
Total Dipole Moment    :     -0.30006      -0.25041       0.09635
                        -----------------------------------------
Magnitude (a.u.)       :      0.40252
Magnitude (Debye)      :      1.02312

Rotational constants in cm-1:     0.021733     0.007552     0.005976
Rotational constants in MHz :   651.537464   226.403494   179.148207

                             ****ORCA TERMINATED NORMALLY****
TOTAL RUN TIME: 0 days 0 hours 0 minutes 33 seconds 411 msec
