                         Program Version 4.2.1 -  RELEASE  -
|  1> ! wB97X-D3 SP def2-SVP
|  2> %pal
|  3> nprocs 16
|  4> end
|  5>
|  6> * xyz 0 1
|  7> S 	 51.716 	 12.5605 	 53.1881
|  8> C 	 52.5674 	 14.0761 	 53.1187
|  9> C 	 52.7531 	 14.4831 	 51.8154
| 10> C 	 52.0827 	 13.6667 	 50.8958
| 11> C 	 51.4947 	 12.5416 	 51.4349
| 12> H 	 51.9224 	 13.7378 	 49.8437
| 13> C 	 53.2996 	 15.8067 	 51.4877
| 14> H 	 53.7201 	 16.1489 	 52.3846
| 15> H 	 52.4471 	 16.4204 	 51.211
| 16> C 	 54.2494 	 15.8674 	 50.2649
| 17> H 	 53.8685 	 15.3937 	 49.3527
| 18> H 	 54.2696 	 16.9124 	 50.0165
| 19> C 	 55.6585 	 15.447 	 50.634
| 20> H 	 55.716 	 14.4095 	 50.8953
| 21> H 	 56.2644 	 15.6036 	 49.7147
| 22> H 	 56.0203 	 16.0388 	 51.5029
| 23> S 	 50.8359 	 10.7741 	 49.5004
| 24> C 	 49.1631 	 10.2952 	 49.3655
| 25> C 	 48.3624 	 10.8646 	 50.2865
| 26> C 	 49.0377 	 11.7192 	 51.1824
| 27> C 	 50.4253 	 11.7594 	 50.8839
| 28> H 	 47.2738 	 10.6058 	 50.3586
| 29> C 	 48.3277 	 12.4835 	 52.3378
| 30> H 	 48.8473 	 12.156 	 53.2451
| 31> H 	 47.3055 	 12.0814 	 52.4071
| 32> C 	 48.2423 	 14.0388 	 52.23
| 33> H 	 47.8353 	 14.2847 	 51.2493
| 34> H 	 49.1915 	 14.4218 	 52.2776
| 35> C 	 47.5413 	 14.6217 	 53.4561
| 36> H 	 48 	 14.2913 	 54.3862
| 37> H 	 46.4759 	 14.3913 	 53.3716
| 38> H 	 47.5232 	 15.7535 	 53.3976
| 39> H 	 52.9843 	 14.5522 	 53.9412
| 40> H 	 48.8061 	 9.54373 	 48.614
| 41> *
| 42>
| 43>                          ****END OF INPUT****

CARTESIAN COORDINATES (ANGSTROEM)
---------------------------------
  S     51.716000   12.560500   53.188100
  C     52.567400   14.076100   53.118700
  C     52.753100   14.483100   51.815400
  C     52.082700   13.666700   50.895800
  C     51.494700   12.541600   51.434900
  H     51.922400   13.737800   49.843700
  C     53.299600   15.806700   51.487700
  H     53.720100   16.148900   52.384600
  H     52.447100   16.420400   51.211000
  C     54.249400   15.867400   50.264900
  H     53.868500   15.393700   49.352700
  H     54.269600   16.912400   50.016500
  C     55.658500   15.447000   50.634000
  H     55.716000   14.409500   50.895300
  H     56.264400   15.603600   49.714700
  H     56.020300   16.038800   51.502900
  S     50.835900   10.774100   49.500400
  C     49.163100   10.295200   49.365500
  C     48.362400   10.864600   50.286500
  C     49.037700   11.719200   51.182400
  C     50.425300   11.759400   50.883900
  H     47.273800   10.605800   50.358600
  C     48.327700   12.483500   52.337800
  H     48.847300   12.156000   53.245100
  H     47.305500   12.081400   52.407100
  C     48.242300   14.038800   52.230000
  H     47.835300   14.284700   51.249300
  H     49.191500   14.421800   52.277600
  C     47.541300   14.621700   53.456100
  H     48.000000   14.291300   54.386200
  H     46.475900   14.391300   53.371600
  H     47.523200   15.753500   53.397600
  H     52.984300   14.552200   53.941200
  H     48.806100    9.543730   48.614000

 Total Charge           Charge          ....    0
 Multiplicity           Mult            ....    1
 Number of Electrons    NEL             ....  134
 Basis Dimension        Dim             ....  322

ORBITAL ENERGIES
----------------

  NO   OCC          E(Eh)            E(eV)
   0   2.0000     -88.966609     -2420.9045
   1   2.0000     -88.962859     -2420.8025
   2   2.0000     -10.324549      -280.9453
   3   2.0000     -10.323756      -280.9237
   4   2.0000     -10.314619      -280.6751
   5   2.0000     -10.308302      -280.5032
   6   2.0000     -10.305051      -280.4147
   7   2.0000     -10.294451      -280.1262
   8   2.0000     -10.292547      -280.0745
   9   2.0000     -10.291693      -280.0512
  10   2.0000     -10.289799      -279.9997
  11   2.0000     -10.284152      -279.8460
  12   2.0000     -10.283473      -279.8275
  13   2.0000     -10.279816      -279.7280
  14   2.0000     -10.276953      -279.6501
  15   2.0000     -10.276291      -279.6321
  16   2.0000      -8.081443      -219.9072
  17   2.0000      -8.077360      -219.7961
  18   2.0000      -6.039751      -164.3500
  19   2.0000      -6.035998      -164.2479
  20   2.0000      -6.035759      -164.2413
  21   2.0000      -6.032369      -164.1491
  22   2.0000      -6.031824      -164.1343
  23   2.0000      -6.028329      -164.0392
  24   2.0000      -1.009095       -27.4589
  25   2.0000      -0.986873       -26.8542
  26   2.0000      -0.917430       -24.9645
  27   2.0000      -0.901713       -24.5369
  28   2.0000      -0.874171       -23.7874
  29   2.0000      -0.852875       -23.2079
  30   2.0000      -0.846295       -23.0289
  31   2.0000      -0.817411       -22.2429
  32   2.0000      -0.781130       -21.2556
  33   2.0000      -0.765698       -20.8357
  34   2.0000      -0.713120       -19.4050
  35   2.0000      -0.698766       -19.0144
  36   2.0000      -0.689507       -18.7624
  37   2.0000      -0.661558       -18.0019
  38   2.0000      -0.641934       -17.4679
  39   2.0000      -0.620351       -16.8806
  40   2.0000      -0.591730       -16.1018
  41   2.0000      -0.568439       -15.4680
  42   2.0000      -0.565440       -15.3864
  43   2.0000      -0.554418       -15.0865
  44   2.0000      -0.537062       -14.6142
  45   2.0000      -0.528884       -14.3917
  46   2.0000      -0.517085       -14.0706
  47   2.0000      -0.509469       -13.8634
  48   2.0000      -0.508033       -13.8243
  49   2.0000      -0.496946       -13.5226
  50   2.0000      -0.487395       -13.2627
  51   2.0000      -0.476531       -12.9671
  52   2.0000      -0.470268       -12.7967
  53   2.0000      -0.465165       -12.6578
  54   2.0000      -0.459231       -12.4963
  55   2.0000      -0.448093       -12.1932
  56   2.0000      -0.444977       -12.1085
  57   2.0000      -0.438857       -11.9419
  58   2.0000      -0.432944       -11.7810
  59   2.0000      -0.428257       -11.6535
  60   2.0000      -0.419837       -11.4243
  61   2.0000      -0.414273       -11.2729
  62   2.0000      -0.410871       -11.1804
  63   2.0000      -0.345676        -9.4063
  64   2.0000      -0.336248        -9.1498
  65   2.0000      -0.323706        -8.8085
  66   2.0000      -0.291387        -7.9290
  67   0.0000       0.030426         0.8279
  68   0.0000       0.069845         1.9006
  69   0.0000       0.113182         3.0798
  70   0.0000       0.120659         3.2833
  71   0.0000       0.127137         3.4596

MULLIKEN ATOMIC CHARGES
-----------------------
   0 S :    0.095306
   1 C :   -0.112103
   2 C :   -0.058718
   3 C :    0.041151
   4 C :   -0.163255
   5 H :    0.001213
   6 C :    0.092028
   7 H :   -0.005826
   8 H :    0.038016
   9 C :   -0.075046
  10 H :    0.033068
  11 H :    0.017334
  12 C :   -0.046751
  13 H :    0.035521
  14 H :    0.040166
  15 H :    0.033566
  16 S :    0.112312
  17 C :   -0.105009
  18 C :   -0.051253
  19 C :   -0.021120
  20 C :   -0.190381
  21 H :    0.034759
  22 C :    0.052438
  23 H :    0.032403
  24 H :    0.009617
  25 C :   -0.018226
  26 H :    0.028314
  27 H :    0.013775
  28 C :   -0.061536
  29 H :    0.042578
  30 H :    0.026692
  31 H :    0.037075
  32 H :    0.023430
  33 H :    0.068460
Sum of atomic charges:    0.0000000

LOEWDIN ATOMIC CHARGES
----------------------
   0 S :    0.408128
   1 C :   -0.188321
   2 C :   -0.068526
   3 C :   -0.053215
   4 C :   -0.195328
   5 H :    0.027488
   6 C :   -0.024435
   7 H :    0.021069
   8 H :    0.037772
   9 C :   -0.040802
  10 H :    0.025547
  11 H :    0.021820
  12 C :   -0.064607
  13 H :    0.022055
  14 H :    0.031036
  15 H :    0.028585
  16 S :    0.413313
  17 C :   -0.195985
  18 C :   -0.082803
  19 C :   -0.052835
  20 C :   -0.207292
  21 H :    0.042320
  22 C :   -0.031298
  23 H :    0.024553
  24 H :    0.026281
  25 C :   -0.031878
  26 H :    0.025788
  27 H :    0.012414
  28 C :   -0.064994
  29 H :    0.027726
  30 H :    0.022568
  31 H :    0.032052
  32 H :    0.013839
  33 H :    0.037966

  Mayer bond orders larger than 0.100000
B(  0-S ,  1-C ) :   1.1497 B(  0-S ,  4-C ) :   1.1461 B(  1-C ,  2-C ) :   1.5800
B(  1-C , 32-H ) :   0.9756 B(  2-C ,  3-C ) :   1.2263 B(  2-C ,  6-C ) :   1.0431
B(  3-C ,  4-C ) :   1.5958 B(  3-C ,  5-H ) :   0.9935 B(  4-C , 20-C ) :   1.0115
B(  6-C ,  7-H ) :   0.9347 B(  6-C ,  8-H ) :   0.9323 B(  6-C ,  9-C ) :   1.0759
B(  9-C , 10-H ) :   0.9549 B(  9-C , 11-H ) :   0.9527 B(  9-C , 12-C ) :   1.0758
B( 12-C , 13-H ) :   0.9789 B( 12-C , 14-H ) :   0.9730 B( 12-C , 15-H ) :   0.9730
B( 16-S , 17-C ) :   1.1516 B( 16-S , 20-C ) :   1.1573 B( 17-C , 18-C ) :   1.6152
B( 17-C , 33-H ) :   0.9583 B( 18-C , 19-C ) :   1.2712 B( 18-C , 21-H ) :   0.9788
B( 19-C , 20-C ) :   1.5628 B( 19-C , 22-C ) :   1.0253 B( 22-C , 23-H ) :   0.9331
B( 22-C , 24-H ) :   0.9358 B( 22-C , 25-C ) :   1.0598 B( 25-C , 26-H ) :   0.9558
B( 25-C , 27-H ) :   0.9516 B( 25-C , 28-C ) :   1.0850 B( 28-C , 29-H ) :   0.9727
B( 28-C , 30-H ) :   0.9764 B( 28-C , 31-H ) :   0.9736

Dispersion correction           -0.015034509
FINAL SINGLE POINT ENERGY     -1339.880175166027

DIPOLE MOMENT
-------------
                                X             Y             Z
Electronic contribution:     -0.05682     -20.49729      -3.07298
Nuclear contribution   :     -0.15330      21.04200       2.99500
                        -----------------------------------------
Total Dipole Moment    :     -0.21011       0.54470      -0.07799
                        -----------------------------------------
Magnitude (a.u.)       :      0.58901
Magnitude (Debye)      :      1.49714

Rotational constants in cm-1:     0.018423     0.009288     0.007276
Rotational constants in MHz :   552.295696   278.441607   218.124018

                             ****ORCA TERMINATED NORMALLY****
TOTAL RUN TIME: 0 days 0 hours 0 minutes 30 seconds 504 msec
