                         Program Version 4.2.1 -  RELEASE  -
|  1> ! wB97X-D3 SP def2-SVP
|  2> %pal
|  3> nprocs 16
|  4> end
|  5>
|  6> * xyz 0 1
|  7> S 	 -13.6015 	 76.2859 	 55.9127
|  8> C 	 -14.8488 	 76.2437 	 54.6789
|  9> C 	 -15.1729 	 74.9355 	 54.3922
| 10> C 	 -14.2219 	 73.9956 	 54.9386
| 11> C 	 -13.2736 	 74.5777 	 55.7542
| 12> H 	 -14.3126 	 72.9595 	 54.9328
| 13> C 	 -16.4087 	 74.4563 	 53.6839
| 14> H 	 -17.2082 	 75.1016 	 54.0879
| 15> H 	 -16.696 	 73.5002 	 54.0604
| 16> C 	 -16.3738 	 74.5197 	 52.1267
| 17> H 	 -16.6915 	 75.4972 	 51.8231
| 18> H 	 -15.3545 	 74.5324 	 51.7385
| 19> C 	 -17.2523 	 73.5244 	 51.4027
| 20> H 	 -17.2399 	 73.6899 	 50.3423
| 21> H 	 -17.0676 	 72.4589 	 51.6247
| 22> H 	 -18.3235 	 73.6599 	 51.5644
| 23> S 	 -12.7163 	 74.2777 	 58.3251
| 24> C 	 -11.6116 	 73.0667 	 58.808
| 25> C 	 -11.1182 	 72.329 	 57.7688
| 26> C 	 -11.5524 	 72.785 	 56.5154
| 27> C 	 -12.3811 	 73.8575 	 56.6903
| 28> H 	 -10.4955 	 71.4858 	 58.0258
| 29> C 	 -11.1403 	 71.9979 	 55.3167
| 30> H 	 -12.0757 	 71.7256 	 54.7596
| 31> H 	 -10.7161 	 71.0087 	 55.5698
| 32> C 	 -10.0681 	 72.7532 	 54.4673
| 33> H 	 -9.20986 	 72.8952 	 55.1189
| 34> H 	 -10.4482 	 73.7378 	 54.1917
| 35> C 	 -9.78656 	 71.9765 	 53.2095
| 36> H 	 -9.42521 	 71.0068 	 53.5191
| 37> H 	 -9.10483 	 72.3323 	 52.5448
| 38> H 	 -10.6441 	 71.7735 	 52.6608
| 39> H 	 -15.4705 	 77.1021 	 54.4392
| 40> H 	 -11.475 	 72.7993 	 59.8195
| 41> *
| 42>
| 43>                          ****END OF INPUT****

CARTESIAN COORDINATES (ANGSTROEM)
---------------------------------
  S    -13.601500   76.285900   55.912700
  C    -14.848800   76.243700   54.678900
  C    -15.172900   74.935500   54.392200
  C    -14.221900   73.995600   54.938600
  C    -13.273600   74.577700   55.754200
  H    -14.312600   72.959500   54.932800
  C    -16.408700   74.456300   53.683900
  H    -17.208200   75.101600   54.087900
  H    -16.696000   73.500200   54.060400
  C    -16.373800   74.519700   52.126700
  H    -16.691500   75.497200   51.823100
  H    -15.354500   74.532400   51.738500
  C    -17.252300   73.524400   51.402700
  H    -17.239900   73.689900   50.342300
  H    -17.067600   72.458900   51.624700
  H    -18.323500   73.659900   51.564400
  S    -12.716300   74.277700   58.325100
  C    -11.611600   73.066700   58.808000
  C    -11.118200   72.329000   57.768800
  C    -11.552400   72.785000   56.515400
  C    -12.381100   73.857500   56.690300
  H    -10.495500   71.485800   58.025800
  C    -11.140300   71.997900   55.316700
  H    -12.075700   71.725600   54.759600
  H    -10.716100   71.008700   55.569800
  C    -10.068100   72.753200   54.467300
  H     -9.209860   72.895200   55.118900
  H    -10.448200   73.737800   54.191700
  C     -9.786560   71.976500   53.209500
  H     -9.425210   71.006800   53.519100
  H     -9.104830   72.332300   52.544800
  H    -10.644100   71.773500   52.660800
  H    -15.470500   77.102100   54.439200
  H    -11.475000   72.799300   59.819500

 Total Charge           Charge          ....    0
 Multiplicity           Mult            ....    1
 Number of Electrons    NEL             ....  134
 Basis Dimension        Dim             ....  322

ORBITAL ENERGIES
----------------

  NO   OCC          E(Eh)            E(eV)
   0   2.0000     -88.965521     -2420.8749
   1   2.0000     -88.962936     -2420.8046
   2   2.0000     -10.326846      -281.0078
   3   2.0000     -10.322348      -280.8854
   4   2.0000     -10.311729      -280.5964
   5   2.0000     -10.304182      -280.3910
   6   2.0000     -10.300148      -280.2813
   7   2.0000     -10.297193      -280.2009
   8   2.0000     -10.296011      -280.1687
   9   2.0000     -10.290160      -280.0095
  10   2.0000     -10.286307      -279.9046
  11   2.0000     -10.285426      -279.8807
  12   2.0000     -10.285383      -279.8795
  13   2.0000     -10.283295      -279.8227
  14   2.0000     -10.277203      -279.6569
  15   2.0000     -10.259431      -279.1733
  16   2.0000      -8.081801      -219.9170
  17   2.0000      -8.077720      -219.8059
  18   2.0000      -6.040089      -164.3592
  19   2.0000      -6.036298      -164.2560
  20   2.0000      -6.036206      -164.2535
  21   2.0000      -6.032579      -164.1548
  22   2.0000      -6.032231      -164.1454
  23   2.0000      -6.028406      -164.0413
  24   2.0000      -1.015361       -27.6294
  25   2.0000      -0.987427       -26.8693
  26   2.0000      -0.913499       -24.8576
  27   2.0000      -0.908542       -24.7227
  28   2.0000      -0.869686       -23.6654
  29   2.0000      -0.860866       -23.4254
  30   2.0000      -0.847539       -23.0627
  31   2.0000      -0.815148       -22.1813
  32   2.0000      -0.784340       -21.3430
  33   2.0000      -0.773271       -21.0418
  34   2.0000      -0.708704       -19.2848
  35   2.0000      -0.708332       -19.2747
  36   2.0000      -0.691771       -18.8240
  37   2.0000      -0.668007       -18.1774
  38   2.0000      -0.642917       -17.4947
  39   2.0000      -0.617606       -16.8059
  40   2.0000      -0.600303       -16.3351
  41   2.0000      -0.568354       -15.4657
  42   2.0000      -0.563825       -15.3425
  43   2.0000      -0.553568       -15.0634
  44   2.0000      -0.527957       -14.3665
  45   2.0000      -0.523848       -14.2546
  46   2.0000      -0.522570       -14.2199
  47   2.0000      -0.514674       -14.0050
  48   2.0000      -0.505261       -13.7489
  49   2.0000      -0.497233       -13.5304
  50   2.0000      -0.493208       -13.4209
  51   2.0000      -0.489888       -13.3305
  52   2.0000      -0.471237       -12.8230
  53   2.0000      -0.465849       -12.6764
  54   2.0000      -0.458521       -12.4770
  55   2.0000      -0.452526       -12.3139
  56   2.0000      -0.445562       -12.1244
  57   2.0000      -0.439256       -11.9528
  58   2.0000      -0.433286       -11.7903
  59   2.0000      -0.428544       -11.6613
  60   2.0000      -0.423331       -11.5194
  61   2.0000      -0.415854       -11.3160
  62   2.0000      -0.409008       -11.1297
  63   2.0000      -0.347897        -9.4668
  64   2.0000      -0.334327        -9.0975
  65   2.0000      -0.324766        -8.8373
  66   2.0000      -0.290592        -7.9074
  67   0.0000       0.034641         0.9426
  68   0.0000       0.069007         1.8778
  69   0.0000       0.106022         2.8850
  70   0.0000       0.125905         3.4261
  71   0.0000       0.138441         3.7672

MULLIKEN ATOMIC CHARGES
-----------------------
   0 S :    0.090268
   1 C :   -0.111565
   2 C :   -0.115942
   3 C :    0.054480
   4 C :   -0.136871
   5 H :   -0.011321
   6 C :    0.079435
   7 H :    0.027324
   8 H :    0.010476
   9 C :   -0.033296
  10 H :    0.011437
  11 H :    0.033772
  12 C :   -0.055240
  13 H :    0.025294
  14 H :    0.037955
  15 H :    0.020744
  16 S :    0.122029
  17 C :   -0.073634
  18 C :   -0.052170
  19 C :   -0.003561
  20 C :   -0.162550
  21 H :    0.013914
  22 C :    0.027208
  23 H :    0.030141
  24 H :    0.018983
  25 C :   -0.068463
  26 H :    0.030121
  27 H :    0.037581
  28 C :    0.048713
  29 H :    0.001699
  30 H :    0.011234
  31 H :    0.006942
  32 H :    0.051621
  33 H :    0.033241
Sum of atomic charges:   -0.0000000

LOEWDIN ATOMIC CHARGES
----------------------
   0 S :    0.396905
   1 C :   -0.201635
   2 C :   -0.057936
   3 C :   -0.061497
   4 C :   -0.193569
   5 H :    0.018590
   6 C :   -0.030580
   7 H :    0.035871
   8 H :    0.024584
   9 C :   -0.039490
  10 H :    0.022930
  11 H :    0.027326
  12 C :   -0.071621
  13 H :    0.026594
  14 H :    0.025823
  15 H :    0.025576
  16 S :    0.438703
  17 C :   -0.192659
  18 C :   -0.067932
  19 C :   -0.061501
  20 C :   -0.201099
  21 H :    0.031858
  22 C :   -0.029664
  23 H :    0.032740
  24 H :    0.030178
  25 C :   -0.028280
  26 H :    0.025398
  27 H :    0.025549
  28 C :   -0.053729
  29 H :    0.023193
  30 H :    0.013319
  31 H :    0.019531
  32 H :    0.029338
  33 H :    0.017186

  Mayer bond orders larger than 0.100000
B(  0-S ,  1-C ) :   1.1267 B(  0-S ,  4-C ) :   1.1587 B(  1-C ,  2-C ) :   1.6156
B(  1-C , 32-H ) :   0.9696 B(  2-C ,  3-C ) :   1.2410 B(  2-C ,  6-C ) :   1.0250
B(  3-C ,  4-C ) :   1.5721 B(  3-C ,  5-H ) :   0.9998 B(  4-C , 20-C ) :   1.0062
B(  6-C ,  7-H ) :   0.9365 B(  6-C ,  8-H ) :   0.9515 B(  6-C ,  9-C ) :   1.0359
B(  9-C , 10-H ) :   0.9480 B(  9-C , 11-H ) :   0.9645 B(  9-C , 12-C ) :   1.0922
B( 12-C , 13-H ) :   0.9702 B( 12-C , 14-H ) :   0.9772 B( 12-C , 15-H ) :   0.9711
B( 16-S , 17-C ) :   1.1622 B( 16-S , 20-C ) :   1.1674 B( 17-C , 18-C ) :   1.6167
B( 17-C , 33-H ) :   0.9708 B( 18-C , 19-C ) :   1.2367 B( 18-C , 21-H ) :   0.9954
B( 19-C , 20-C ) :   1.6092 B( 19-C , 22-C ) :   1.0371 B( 22-C , 23-H ) :   0.9330
B( 22-C , 24-H ) :   0.9378 B( 22-C , 25-C ) :   1.0537 B( 25-C , 26-H ) :   0.9550
B( 25-C , 27-H ) :   0.9607 B( 25-C , 28-C ) :   1.0853 B( 28-C , 29-H ) :   0.9653
B( 28-C , 30-H ) :   0.9710 B( 28-C , 31-H ) :   0.9688

Dispersion correction           -0.013569653
FINAL SINGLE POINT ENERGY     -1339.870623928503

DIPOLE MOMENT
-------------
                                X             Y             Z
Electronic contribution:      3.35317      13.85508      25.48535
Nuclear contribution   :     -3.64237     -14.40119     -25.74621
                        -----------------------------------------
Total Dipole Moment    :     -0.28920      -0.54610      -0.26086
                        -----------------------------------------
Magnitude (a.u.)       :      0.67076
Magnitude (Debye)      :      1.70493

Rotational constants in cm-1:     0.017326     0.008499     0.006572
Rotational constants in MHz :   519.417288   254.781959   197.023660

                             ****ORCA TERMINATED NORMALLY****
TOTAL RUN TIME: 0 days 0 hours 0 minutes 33 seconds 569 msec
