                         Program Version 4.2.1 -  RELEASE  -
|  1> ! wB97X-D3 SP def2-SVP
|  2> %pal
|  3> nprocs 16
|  4> end
|  5>
|  6> * xyz 0 1
|  7> S 	 -30.5342 	 58.113 	 104.943
|  8> C 	 -29.1683 	 57.9844 	 106.086
|  9> C 	 -29.2533 	 58.8744 	 107.147
| 10> C 	 -30.4946 	 59.6368 	 107.045
| 11> C 	 -31.2446 	 59.3481 	 105.865
| 12> H 	 -30.8245 	 60.497 	 107.667
| 13> C 	 -28.1168 	 59.1463 	 108.155
| 14> H 	 -27.4251 	 58.381 	 108.14
| 15> H 	 -28.6982 	 59.0292 	 109.035
| 16> C 	 -27.3679 	 60.5261 	 108.091
| 17> H 	 -28.0418 	 61.3726 	 108.273
| 18> H 	 -26.726 	 60.5371 	 108.919
| 19> C 	 -26.5242 	 60.6387 	 106.789
| 20> H 	 -25.6104 	 59.9917 	 106.742
| 21> H 	 -27.1271 	 60.3983 	 105.933
| 22> H 	 -26.1893 	 61.6674 	 106.708
| 23> S 	 -33.773 	 58.9311 	 104.855
| 24> C 	 -34.6662 	 60.3081 	 104.321
| 25> C 	 -34.1328 	 61.4663 	 104.84
| 26> C 	 -32.8195 	 61.3128 	 105.394
| 27> C 	 -32.4798 	 59.9575 	 105.474
| 28> H 	 -34.7072 	 62.3802 	 104.682
| 29> C 	 -32.0184 	 62.4729 	 105.832
| 30> H 	 -31.0294 	 62.1345 	 106.197
| 31> H 	 -32.5788 	 62.8417 	 106.71
| 32> C 	 -31.8045 	 63.5258 	 104.703
| 33> H 	 -32.722 	 63.6816 	 104.14
| 34> H 	 -31.256 	 63.1077 	 103.871
| 35> C 	 -31.337 	 64.8861 	 105.198
| 36> H 	 -30.2708 	 64.7624 	 105.382
| 37> H 	 -31.8471 	 65.227 	 106.053
| 38> H 	 -31.441 	 65.6198 	 104.333
| 39> H 	 -28.3581 	 57.3665 	 105.966
| 40> H 	 -35.5655 	 60.4015 	 103.886
| 41> *
| 42>
| 43>                          ****END OF INPUT****

CARTESIAN COORDINATES (ANGSTROEM)
---------------------------------
  S    -30.534200   58.113000  104.943000
  C    -29.168300   57.984400  106.086000
  C    -29.253300   58.874400  107.147000
  C    -30.494600   59.636800  107.045000
  C    -31.244600   59.348100  105.865000
  H    -30.824500   60.497000  107.667000
  C    -28.116800   59.146300  108.155000
  H    -27.425100   58.381000  108.140000
  H    -28.698200   59.029200  109.035000
  C    -27.367900   60.526100  108.091000
  H    -28.041800   61.372600  108.273000
  H    -26.726000   60.537100  108.919000
  C    -26.524200   60.638700  106.789000
  H    -25.610400   59.991700  106.742000
  H    -27.127100   60.398300  105.933000
  H    -26.189300   61.667400  106.708000
  S    -33.773000   58.931100  104.855000
  C    -34.666200   60.308100  104.321000
  C    -34.132800   61.466300  104.840000
  C    -32.819500   61.312800  105.394000
  C    -32.479800   59.957500  105.474000
  H    -34.707200   62.380200  104.682000
  C    -32.018400   62.472900  105.832000
  H    -31.029400   62.134500  106.197000
  H    -32.578800   62.841700  106.710000
  C    -31.804500   63.525800  104.703000
  H    -32.722000   63.681600  104.140000
  H    -31.256000   63.107700  103.871000
  C    -31.337000   64.886100  105.198000
  H    -30.270800   64.762400  105.382000
  H    -31.847100   65.227000  106.053000
  H    -31.441000   65.619800  104.333000
  H    -28.358100   57.366500  105.966000
  H    -35.565500   60.401500  103.886000

 Total Charge           Charge          ....    0
 Multiplicity           Mult            ....    1
 Number of Electrons    NEL             ....  134
 Basis Dimension        Dim             ....  322

ORBITAL ENERGIES
----------------

  NO   OCC          E(Eh)            E(eV)
   0   2.0000     -88.967547     -2420.9300
   1   2.0000     -88.965747     -2420.8811
   2   2.0000     -10.327189      -281.0171
   3   2.0000     -10.323732      -280.9230
   4   2.0000     -10.308459      -280.5074
   5   2.0000     -10.306791      -280.4620
   6   2.0000     -10.305438      -280.4252
   7   2.0000     -10.302082      -280.3339
   8   2.0000     -10.300367      -280.2872
   9   2.0000     -10.294099      -280.1167
  10   2.0000     -10.290819      -280.0274
  11   2.0000     -10.290539      -280.0198
  12   2.0000     -10.289094      -279.9805
  13   2.0000     -10.283731      -279.8345
  14   2.0000     -10.279422      -279.7173
  15   2.0000     -10.279101      -279.7086
  16   2.0000      -8.082413      -219.9336
  17   2.0000      -8.080522      -219.8822
  18   2.0000      -6.040809      -164.3788
  19   2.0000      -6.039092      -164.3321
  20   2.0000      -6.036866      -164.2715
  21   2.0000      -6.035065      -164.2225
  22   2.0000      -6.033311      -164.1747
  23   2.0000      -6.031170      -164.1165
  24   2.0000      -1.007079       -27.4040
  25   2.0000      -0.980754       -26.6877
  26   2.0000      -0.911502       -24.8032
  27   2.0000      -0.909338       -24.7443
  28   2.0000      -0.870165       -23.6784
  29   2.0000      -0.854711       -23.2579
  30   2.0000      -0.841092       -22.8873
  31   2.0000      -0.811034       -22.0694
  32   2.0000      -0.786752       -21.4086
  33   2.0000      -0.773751       -21.0548
  34   2.0000      -0.714600       -19.4453
  35   2.0000      -0.705278       -19.1916
  36   2.0000      -0.703118       -19.1328
  37   2.0000      -0.656273       -17.8581
  38   2.0000      -0.639643       -17.4056
  39   2.0000      -0.615738       -16.7551
  40   2.0000      -0.595432       -16.2025
  41   2.0000      -0.567369       -15.4389
  42   2.0000      -0.558846       -15.2070
  43   2.0000      -0.551953       -15.0194
  44   2.0000      -0.540969       -14.7205
  45   2.0000      -0.529268       -14.4021
  46   2.0000      -0.521171       -14.1818
  47   2.0000      -0.514574       -14.0023
  48   2.0000      -0.505991       -13.7687
  49   2.0000      -0.500488       -13.6190
  50   2.0000      -0.486672       -13.2430
  51   2.0000      -0.480681       -13.0800
  52   2.0000      -0.468228       -12.7411
  53   2.0000      -0.464494       -12.6395
  54   2.0000      -0.458200       -12.4683
  55   2.0000      -0.453335       -12.3359
  56   2.0000      -0.446182       -12.1412
  57   2.0000      -0.442845       -12.0504
  58   2.0000      -0.439762       -11.9665
  59   2.0000      -0.432377       -11.7656
  60   2.0000      -0.421076       -11.4581
  61   2.0000      -0.414792       -11.2871
  62   2.0000      -0.407797       -11.0967
  63   2.0000      -0.344641        -9.3782
  64   2.0000      -0.331637        -9.0243
  65   2.0000      -0.325368        -8.8537
  66   2.0000      -0.286576        -7.7981
  67   0.0000       0.027384         0.7451
  68   0.0000       0.078642         2.1399
  69   0.0000       0.111540         3.0352
  70   0.0000       0.113216         3.0808
  71   0.0000       0.131518         3.5788

MULLIKEN ATOMIC CHARGES
-----------------------
   0 S :    0.123108
   1 C :   -0.094138
   2 C :   -0.109213
   3 C :    0.006273
   4 C :   -0.172432
   5 H :    0.027504
   6 C :    0.110521
   7 H :   -0.004496
   8 H :    0.024870
   9 C :   -0.037597
  10 H :    0.029539
  11 H :    0.018855
  12 C :   -0.064514
  13 H :    0.037235
  14 H :    0.042217
  15 H :    0.032962
  16 S :    0.115624
  17 C :   -0.032113
  18 C :   -0.063937
  19 C :   -0.041285
  20 C :   -0.154284
  21 H :    0.024832
  22 C :    0.079787
  23 H :    0.023491
  24 H :    0.041130
  25 C :   -0.098181
  26 H :    0.012336
  27 H :    0.026018
  28 C :   -0.020197
  29 H :    0.032120
  30 H :    0.028688
  31 H :    0.041609
  32 H :    0.008484
  33 H :    0.005185
Sum of atomic charges:    0.0000000

LOEWDIN ATOMIC CHARGES
----------------------
   0 S :    0.420529
   1 C :   -0.184514
   2 C :   -0.052931
   3 C :   -0.074552
   4 C :   -0.211423
   5 H :    0.032648
   6 C :   -0.019384
   7 H :    0.017763
   8 H :    0.031341
   9 C :   -0.029182
  10 H :    0.025403
  11 H :    0.018665
  12 C :   -0.066063
  13 H :    0.030349
  14 H :    0.024629
  15 H :    0.026001
  16 S :    0.407330
  17 C :   -0.177528
  18 C :   -0.067455
  19 C :   -0.052372
  20 C :   -0.202079
  21 H :    0.031398
  22 C :   -0.034445
  23 H :    0.030120
  24 H :    0.039117
  25 C :   -0.045787
  26 H :    0.018783
  27 H :    0.028360
  28 C :   -0.060484
  29 H :    0.026208
  30 H :    0.018142
  31 H :    0.036218
  32 H :    0.007380
  33 H :    0.007815

  Mayer bond orders larger than 0.100000
B(  0-S ,  1-C ) :   1.1275 B(  0-S ,  4-C ) :   1.1709 B(  1-C ,  2-C ) :   1.6102
B(  1-C , 32-H ) :   0.9779 B(  2-C ,  3-C ) :   1.2323 B(  2-C ,  6-C ) :   1.0111
B(  3-C ,  4-C ) :   1.5410 B(  3-C ,  5-H ) :   0.9824 B(  4-C , 20-C ) :   1.0725
B(  6-C ,  7-H ) :   0.9404 B(  6-C ,  8-H ) :   0.9331 B(  6-C ,  9-C ) :   1.0704
B(  9-C , 10-H ) :   0.9588 B(  9-C , 11-H ) :   0.9536 B(  9-C , 12-C ) :   1.0657
B( 12-C , 13-H ) :   0.9755 B( 12-C , 14-H ) :   0.9802 B( 12-C , 15-H ) :   0.9749
B( 16-S , 17-C ) :   1.1453 B( 16-S , 20-C ) :   1.1301 B( 17-C , 18-C ) :   1.6369
B( 17-C , 33-H ) :   0.9728 B( 18-C , 19-C ) :   1.2256 B( 18-C , 21-H ) :   0.9817
B( 19-C , 20-C ) :   1.5786 B( 19-C , 22-C ) :   1.0551 B( 22-C , 23-H ) :   0.9228
B( 22-C , 24-H ) :   0.9312 B( 22-C , 25-C ) :   1.0475 B( 25-C , 26-H ) :   0.9610
B( 25-C , 27-H ) :   0.9503 B( 25-C , 28-C ) :   1.0760 B( 28-C , 29-H ) :   0.9757
B( 28-C , 30-H ) :   0.9763 B( 28-C , 31-H ) :   0.9738

Dispersion correction           -0.014228241
FINAL SINGLE POINT ENERGY     -1339.864168100016

DIPOLE MOMENT
-------------
                                X             Y             Z
Electronic contribution:    -17.97210     -23.24723      -7.83753
Nuclear contribution   :     18.26537      23.90262       8.08558
                        -----------------------------------------
Total Dipole Moment    :      0.29327       0.65539       0.24805
                        -----------------------------------------
Magnitude (a.u.)       :      0.75965
Magnitude (Debye)      :      1.93089

Rotational constants in cm-1:     0.017085     0.009596     0.006701
Rotational constants in MHz :   512.191040   287.683859   200.880997

                             ****ORCA TERMINATED NORMALLY****
TOTAL RUN TIME: 0 days 0 hours 0 minutes 29 seconds 879 msec
