                         Program Version 4.2.1 -  RELEASE  -
|  1> ! wB97X-D3 SP def2-SVP
|  2> %pal
|  3> nprocs 16
|  4> end
|  5>
|  6> * xyz 0 1
|  7> S 	 -3.20948 	 30.3346 	 48.0152
|  8> C 	 -3.9732 	 28.9749 	 48.7788
|  9> C 	 -4.90157 	 29.3267 	 49.7719
| 10> C 	 -5.05144 	 30.7257 	 49.8844
| 11> C 	 -4.16239 	 31.4424 	 49.0506
| 12> H 	 -5.72719 	 31.2799 	 50.5576
| 13> C 	 -5.67172 	 28.346 	 50.6903
| 14> H 	 -5.4863 	 27.3503 	 50.4401
| 15> H 	 -6.67878 	 28.6132 	 50.4612
| 16> C 	 -5.37326 	 28.4226 	 52.19
| 17> H 	 -5.60051 	 29.44 	 52.5264
| 18> H 	 -6.13137 	 27.8802 	 52.7999
| 19> C 	 -3.8432 	 27.9431 	 52.4368
| 20> H 	 -3.69009 	 27.0548 	 51.8832
| 21> H 	 -3.2729 	 28.8237 	 52.0602
| 22> H 	 -3.53944 	 27.7765 	 53.4719
| 23> S 	 -3.96337 	 33.7394 	 47.4091
| 24> C 	 -3.33258 	 35.2432 	 48.0546
| 25> C 	 -3.38144 	 35.1584 	 49.4557
| 26> C 	 -3.8291 	 33.8805 	 49.9821
| 27> C 	 -4.01816 	 32.9185 	 48.9559
| 28> H 	 -2.81737 	 35.8908 	 50.0199
| 29> C 	 -3.93723 	 33.6216 	 51.4503
| 30> H 	 -3.26172 	 34.2085 	 52.0215
| 31> H 	 -3.62649 	 32.6442 	 51.6762
| 32> C 	 -5.33458 	 33.9021 	 51.9604
| 33> H 	 -5.9872 	 33.314 	 51.2752
| 34> H 	 -5.52626 	 34.8724 	 51.8505
| 35> C 	 -5.61033 	 33.4887 	 53.435
| 36> H 	 -5.21151 	 32.4901 	 53.7634
| 37> H 	 -6.6195 	 33.4888 	 53.7465
| 38> H 	 -5.12923 	 34.2458 	 54.0184
| 39> H 	 -3.77146 	 27.9291 	 48.6516
| 40> H 	 -3.00778 	 36.0635 	 47.4623
| 41> *
| 42>
| 43>                          ****END OF INPUT****

CARTESIAN COORDINATES (ANGSTROEM)
---------------------------------
  S     -3.209480   30.334600   48.015200
  C     -3.973200   28.974900   48.778800
  C     -4.901570   29.326700   49.771900
  C     -5.051440   30.725700   49.884400
  C     -4.162390   31.442400   49.050600
  H     -5.727190   31.279900   50.557600
  C     -5.671720   28.346000   50.690300
  H     -5.486300   27.350300   50.440100
  H     -6.678780   28.613200   50.461200
  C     -5.373260   28.422600   52.190000
  H     -5.600510   29.440000   52.526400
  H     -6.131370   27.880200   52.799900
  C     -3.843200   27.943100   52.436800
  H     -3.690090   27.054800   51.883200
  H     -3.272900   28.823700   52.060200
  H     -3.539440   27.776500   53.471900
  S     -3.963370   33.739400   47.409100
  C     -3.332580   35.243200   48.054600
  C     -3.381440   35.158400   49.455700
  C     -3.829100   33.880500   49.982100
  C     -4.018160   32.918500   48.955900
  H     -2.817370   35.890800   50.019900
  C     -3.937230   33.621600   51.450300
  H     -3.261720   34.208500   52.021500
  H     -3.626490   32.644200   51.676200
  C     -5.334580   33.902100   51.960400
  H     -5.987200   33.314000   51.275200
  H     -5.526260   34.872400   51.850500
  C     -5.610330   33.488700   53.435000
  H     -5.211510   32.490100   53.763400
  H     -6.619500   33.488800   53.746500
  H     -5.129230   34.245800   54.018400
  H     -3.771460   27.929100   48.651600
  H     -3.007780   36.063500   47.462300

 Total Charge           Charge          ....    0
 Multiplicity           Mult            ....    1
 Number of Electrons    NEL             ....  134
 Basis Dimension        Dim             ....  322

ORBITAL ENERGIES
----------------

  NO   OCC          E(Eh)            E(eV)
   0   2.0000     -88.974601     -2421.1220
   1   2.0000     -88.963888     -2420.8305
   2   2.0000     -10.339952      -281.3644
   3   2.0000     -10.333596      -281.1914
   4   2.0000     -10.320064      -280.8232
   5   2.0000     -10.315312      -280.6939
   6   2.0000     -10.308479      -280.5080
   7   2.0000     -10.304364      -280.3960
   8   2.0000     -10.301718      -280.3240
   9   2.0000     -10.298465      -280.2355
  10   2.0000     -10.295930      -280.1665
  11   2.0000     -10.289766      -279.9988
  12   2.0000     -10.283834      -279.8374
  13   2.0000     -10.280343      -279.7423
  14   2.0000     -10.279796      -279.7275
  15   2.0000     -10.278276      -279.6861
  16   2.0000      -8.088299      -220.0938
  17   2.0000      -8.078515      -219.8276
  18   2.0000      -6.046837      -164.5428
  19   2.0000      -6.042941      -164.4368
  20   2.0000      -6.039089      -164.3320
  21   2.0000      -6.037068      -164.2770
  22   2.0000      -6.032861      -164.1625
  23   2.0000      -6.029392      -164.0681
  24   2.0000      -1.000127       -27.2148
  25   2.0000      -0.980303       -26.6754
  26   2.0000      -0.916150       -24.9297
  27   2.0000      -0.908039       -24.7090
  28   2.0000      -0.862318       -23.4649
  29   2.0000      -0.848502       -23.0889
  30   2.0000      -0.843807       -22.9612
  31   2.0000      -0.810256       -22.0482
  32   2.0000      -0.784507       -21.3475
  33   2.0000      -0.774898       -21.0861
  34   2.0000      -0.711240       -19.3538
  35   2.0000      -0.705147       -19.1880
  36   2.0000      -0.696719       -18.9587
  37   2.0000      -0.661120       -17.9900
  38   2.0000      -0.638306       -17.3692
  39   2.0000      -0.623216       -16.9586
  40   2.0000      -0.598348       -16.2819
  41   2.0000      -0.574000       -15.6193
  42   2.0000      -0.564752       -15.3677
  43   2.0000      -0.558129       -15.1875
  44   2.0000      -0.536420       -14.5967
  45   2.0000      -0.522957       -14.2304
  46   2.0000      -0.518736       -14.1155
  47   2.0000      -0.510963       -13.9040
  48   2.0000      -0.508898       -13.8478
  49   2.0000      -0.496176       -13.5016
  50   2.0000      -0.485332       -13.2066
  51   2.0000      -0.479958       -13.0603
  52   2.0000      -0.475404       -12.9364
  53   2.0000      -0.468231       -12.7412
  54   2.0000      -0.456270       -12.4157
  55   2.0000      -0.446969       -12.1627
  56   2.0000      -0.445625       -12.1261
  57   2.0000      -0.441745       -12.0205
  58   2.0000      -0.436042       -11.8653
  59   2.0000      -0.432231       -11.7616
  60   2.0000      -0.423236       -11.5168
  61   2.0000      -0.413862       -11.2618
  62   2.0000      -0.411792       -11.2054
  63   2.0000      -0.347432        -9.4541
  64   2.0000      -0.333933        -9.0868
  65   2.0000      -0.326915        -8.8958
  66   2.0000      -0.288220        -7.8429
  67   0.0000       0.020771         0.5652
  68   0.0000       0.070039         1.9059
  69   0.0000       0.110856         3.0165
  70   0.0000       0.118045         3.2122
  71   0.0000       0.124392         3.3849

MULLIKEN ATOMIC CHARGES
-----------------------
   0 S :    0.133928
   1 C :   -0.095763
   2 C :   -0.123405
   3 C :    0.017331
   4 C :   -0.154966
   5 H :    0.021844
   6 C :    0.114905
   7 H :    0.000193
   8 H :    0.030907
   9 C :   -0.092440
  10 H :    0.019572
  11 H :    0.033259
  12 C :   -0.060277
  13 H :    0.027877
  14 H :    0.059773
  15 H :    0.040790
  16 S :    0.098035
  17 C :   -0.102121
  18 C :   -0.026407
  19 C :   -0.062499
  20 C :   -0.156134
  21 H :    0.031335
  22 C :    0.118624
  23 H :   -0.002637
  24 H :    0.004817
  25 C :   -0.041523
  26 H :    0.021920
  27 H :   -0.003127
  28 C :   -0.030396
  29 H :    0.034473
  30 H :    0.027810
  31 H :    0.021498
  32 H :    0.034866
  33 H :    0.057937
Sum of atomic charges:    0.0000000

LOEWDIN ATOMIC CHARGES
----------------------
   0 S :    0.410860
   1 C :   -0.203606
   2 C :   -0.062920
   3 C :   -0.060853
   4 C :   -0.180885
   5 H :    0.035106
   6 C :   -0.021225
   7 H :    0.017743
   8 H :    0.031986
   9 C :   -0.042086
  10 H :    0.017494
  11 H :    0.025349
  12 C :   -0.060985
  13 H :    0.017531
  14 H :    0.037892
  15 H :    0.025528
  16 S :    0.401207
  17 C :   -0.182151
  18 C :   -0.074846
  19 C :   -0.046974
  20 C :   -0.203179
  21 H :    0.031805
  22 C :   -0.026394
  23 H :    0.023126
  24 H :    0.022480
  25 C :   -0.022135
  26 H :    0.021025
  27 H :    0.006960
  28 C :   -0.063749
  29 H :    0.029203
  30 H :    0.021222
  31 H :    0.022927
  32 H :    0.025761
  33 H :    0.026784

  Mayer bond orders larger than 0.100000
B(  0-S ,  1-C ) :   1.1452 B(  0-S ,  4-C ) :   1.1522 B(  1-C ,  2-C ) :   1.6048
B(  1-C ,  4-C ) :   0.1022 B(  1-C , 32-H ) :   0.9607 B(  2-C ,  3-C ) :   1.2562
B(  2-C ,  6-C ) :   1.0090 B(  3-C ,  4-C ) :   1.5455 B(  3-C ,  5-H ) :   0.9847
B(  4-C , 20-C ) :   1.0583 B(  6-C ,  7-H ) :   0.9446 B(  6-C ,  8-H ) :   0.9358
B(  6-C ,  9-C ) :   1.0733 B(  9-C , 10-H ) :   0.9592 B(  9-C , 11-H ) :   0.9577
B(  9-C , 12-C ) :   1.0407 B( 12-C , 13-H ) :   0.9810 B( 12-C , 14-H ) :   0.9776
B( 12-C , 15-H ) :   0.9797 B( 16-S , 17-C ) :   1.1578 B( 16-S , 20-C ) :   1.1492
B( 17-C , 18-C ) :   1.5840 B( 17-C , 33-H ) :   0.9754 B( 18-C , 19-C ) :   1.2615
B( 18-C , 21-H ) :   0.9841 B( 19-C , 20-C ) :   1.5500 B( 19-C , 22-C ) :   1.0674
B( 22-C , 23-H ) :   0.9254 B( 22-C , 24-H ) :   0.9237 B( 22-C , 25-C ) :   1.0547
B( 25-C , 26-H ) :   0.9566 B( 25-C , 27-H ) :   0.9523 B( 25-C , 28-C ) :   1.0737
B( 28-C , 29-H ) :   0.9762 B( 28-C , 30-H ) :   0.9762 B( 28-C , 31-H ) :   0.9733

Dispersion correction           -0.015147860
FINAL SINGLE POINT ENERGY     -1339.861867573333

DIPOLE MOMENT
-------------
                                X             Y             Z
Electronic contribution:      7.95116       7.38808     -29.33893
Nuclear contribution   :     -8.01347      -7.44120      30.03915
                        -----------------------------------------
Total Dipole Moment    :     -0.06231      -0.05311       0.70022
                        -----------------------------------------
Magnitude (a.u.)       :      0.70499
Magnitude (Debye)      :      1.79194

Rotational constants in cm-1:     0.017782     0.009956     0.006905
Rotational constants in MHz :   533.095484   298.482435   207.020709

                             ****ORCA TERMINATED NORMALLY****
TOTAL RUN TIME: 0 days 0 hours 0 minutes 35 seconds 915 msec
