                         Program Version 4.2.1 -  RELEASE  -
|  1> ! wB97X-D3 SP def2-SVP
|  2> %pal
|  3> nprocs 16
|  4> end
|  5>
|  6> * xyz 0 1
|  7> S 	 -94.4874 	 53.842 	 125.381
|  8> C 	 -92.985 	 54.0097 	 126.164
|  9> C 	 -92.3739 	 52.8065 	 126.378
| 10> C 	 -93.1021 	 51.6919 	 125.767
| 11> C 	 -94.2393 	 52.138 	 125.028
| 12> H 	 -92.7792 	 50.7223 	 125.668
| 13> C 	 -91.0431 	 52.5501 	 127.05
| 14> H 	 -90.0956 	 52.73 	 126.592
| 15> H 	 -91.0566 	 51.4594 	 127.201
| 16> C 	 -90.975 	 53.222 	 128.465
| 17> H 	 -90.982 	 54.2586 	 128.214
| 18> H 	 -91.8399 	 52.9785 	 129.092
| 19> C 	 -89.7781 	 52.8604 	 129.39
| 20> H 	 -89.8707 	 53.42 	 130.44
| 21> H 	 -89.7154 	 51.7476 	 129.48
| 22> H 	 -88.8928 	 53.2702 	 128.969
| 23> S 	 -94.6265 	 50.8146 	 122.607
| 24> C 	 -96.1627 	 49.929 	 122.372
| 25> C 	 -96.9787 	 50.0805 	 123.489
| 26> C 	 -96.3712 	 50.7844 	 124.534
| 27> C 	 -95.1388 	 51.2613 	 124.233
| 28> H 	 -98.0113 	 49.7075 	 123.438
| 29> C 	 -97.1425 	 51.2454 	 125.773
| 30> H 	 -97.7119 	 52.0946 	 125.371
| 31> H 	 -96.5324 	 51.8117 	 126.482
| 32> C 	 -98.0523 	 50.2984 	 126.596
| 33> H 	 -98.4045 	 50.964 	 127.392
| 34> H 	 -97.5921 	 49.3865 	 126.977
| 35> C 	 -99.3434 	 49.8346 	 125.84
| 36> H 	 -99.6326 	 50.6991 	 125.281
| 37> H 	 -100.162 	 49.6236 	 126.46
| 38> H 	 -99.1688 	 48.9677 	 125.205
| 39> H 	 -92.6726 	 54.9961 	 126.53
| 40> H 	 -96.4044 	 49.388 	 121.417
| 41> *
| 42>
| 43>                          ****END OF INPUT****

CARTESIAN COORDINATES (ANGSTROEM)
---------------------------------
  S    -94.487400   53.842000  125.381000
  C    -92.985000   54.009700  126.164000
  C    -92.373900   52.806500  126.378000
  C    -93.102100   51.691900  125.767000
  C    -94.239300   52.138000  125.028000
  H    -92.779200   50.722300  125.668000
  C    -91.043100   52.550100  127.050000
  H    -90.095600   52.730000  126.592000
  H    -91.056600   51.459400  127.201000
  C    -90.975000   53.222000  128.465000
  H    -90.982000   54.258600  128.214000
  H    -91.839900   52.978500  129.092000
  C    -89.778100   52.860400  129.390000
  H    -89.870700   53.420000  130.440000
  H    -89.715400   51.747600  129.480000
  H    -88.892800   53.270200  128.969000
  S    -94.626500   50.814600  122.607000
  C    -96.162700   49.929000  122.372000
  C    -96.978700   50.080500  123.489000
  C    -96.371200   50.784400  124.534000
  C    -95.138800   51.261300  124.233000
  H    -98.011300   49.707500  123.438000
  C    -97.142500   51.245400  125.773000
  H    -97.711900   52.094600  125.371000
  H    -96.532400   51.811700  126.482000
  C    -98.052300   50.298400  126.596000
  H    -98.404500   50.964000  127.392000
  H    -97.592100   49.386500  126.977000
  C    -99.343400   49.834600  125.840000
  H    -99.632600   50.699100  125.281000
  H    -100.162000   49.623600  126.460000
  H    -99.168800   48.967700  125.205000
  H    -92.672600   54.996100  126.530000
  H    -96.404400   49.388000  121.417000

 Total Charge           Charge          ....    0
 Multiplicity           Mult            ....    1
 Number of Electrons    NEL             ....  134
 Basis Dimension        Dim             ....  322

ORBITAL ENERGIES
----------------

  NO   OCC          E(Eh)            E(eV)
   0   2.0000     -88.966384     -2420.8984
   1   2.0000     -88.964507     -2420.8473
   2   2.0000     -10.333494      -281.1887
   3   2.0000     -10.325483      -280.9707
   4   2.0000     -10.323447      -280.9153
   5   2.0000     -10.313427      -280.6426
   6   2.0000     -10.304078      -280.3882
   7   2.0000     -10.298852      -280.2460
   8   2.0000     -10.295740      -280.1613
   9   2.0000     -10.294468      -280.1267
  10   2.0000     -10.292168      -280.0641
  11   2.0000     -10.291734      -280.0523
  12   2.0000     -10.290569      -280.0206
  13   2.0000     -10.289417      -279.9893
  14   2.0000     -10.284224      -279.8480
  15   2.0000     -10.271374      -279.4983
  16   2.0000      -8.081621      -219.9121
  17   2.0000      -8.078544      -219.8284
  18   2.0000      -6.040072      -164.3587
  19   2.0000      -6.037013      -164.2755
  20   2.0000      -6.035908      -164.2454
  21   2.0000      -6.033185      -164.1713
  22   2.0000      -6.032564      -164.1544
  23   2.0000      -6.029341      -164.0667
  24   2.0000      -1.003929       -27.3183
  25   2.0000      -0.985074       -26.8052
  26   2.0000      -0.905599       -24.6426
  27   2.0000      -0.902802       -24.5665
  28   2.0000      -0.865233       -23.5442
  29   2.0000      -0.848814       -23.0974
  30   2.0000      -0.846245       -23.0275
  31   2.0000      -0.811763       -22.0892
  32   2.0000      -0.782362       -21.2892
  33   2.0000      -0.771162       -20.9844
  34   2.0000      -0.704653       -19.1746
  35   2.0000      -0.696499       -18.9527
  36   2.0000      -0.688671       -18.7397
  37   2.0000      -0.658631       -17.9223
  38   2.0000      -0.652621       -17.7587
  39   2.0000      -0.612121       -16.6567
  40   2.0000      -0.597282       -16.2529
  41   2.0000      -0.569808       -15.5053
  42   2.0000      -0.564752       -15.3677
  43   2.0000      -0.550690       -14.9850
  44   2.0000      -0.534151       -14.5350
  45   2.0000      -0.519837       -14.1455
  46   2.0000      -0.516432       -14.0528
  47   2.0000      -0.510981       -13.9045
  48   2.0000      -0.504681       -13.7331
  49   2.0000      -0.495489       -13.4830
  50   2.0000      -0.494273       -13.4499
  51   2.0000      -0.483643       -13.1606
  52   2.0000      -0.471320       -12.8253
  53   2.0000      -0.465954       -12.6792
  54   2.0000      -0.463320       -12.6076
  55   2.0000      -0.446221       -12.1423
  56   2.0000      -0.439619       -11.9626
  57   2.0000      -0.436465       -11.8768
  58   2.0000      -0.422914       -11.5081
  59   2.0000      -0.421024       -11.4566
  60   2.0000      -0.416129       -11.3235
  61   2.0000      -0.414544       -11.2803
  62   2.0000      -0.413943       -11.2640
  63   2.0000      -0.334322        -9.0974
  64   2.0000      -0.331570        -9.0225
  65   2.0000      -0.321986        -8.7617
  66   2.0000      -0.308598        -8.3974
  67   0.0000       0.042840         1.1657
  68   0.0000       0.053291         1.4501
  69   0.0000       0.113747         3.0952
  70   0.0000       0.116226         3.1627
  71   0.0000       0.130330         3.5465

MULLIKEN ATOMIC CHARGES
-----------------------
   0 S :    0.117508
   1 C :   -0.135568
   2 C :   -0.063716
   3 C :    0.081356
   4 C :   -0.190701
   5 H :   -0.010930
   6 C :    0.081181
   7 H :    0.037348
   8 H :    0.011847
   9 C :   -0.121059
  10 H :    0.023998
  11 H :    0.037651
  12 C :   -0.071275
  13 H :    0.053546
  14 H :    0.046733
  15 H :    0.022184
  16 S :    0.105325
  17 C :   -0.125076
  18 C :   -0.050962
  19 C :    0.044222
  20 C :   -0.192596
  21 H :    0.031006
  22 C :    0.015042
  23 H :    0.037444
  24 H :    0.025938
  25 C :   -0.062461
  26 H :    0.033537
  27 H :    0.042961
  28 C :   -0.046069
  29 H :    0.015769
  30 H :    0.022227
  31 H :    0.043103
  32 H :    0.061303
  33 H :    0.079185
Sum of atomic charges:   -0.0000000

LOEWDIN ATOMIC CHARGES
----------------------
   0 S :    0.423954
   1 C :   -0.207868
   2 C :   -0.064909
   3 C :   -0.040260
   4 C :   -0.196155
   5 H :    0.016936
   6 C :   -0.031650
   7 H :    0.028154
   8 H :    0.028778
   9 C :   -0.043959
  10 H :    0.014741
  11 H :    0.025411
  12 C :   -0.073543
  13 H :    0.043072
  14 H :    0.029781
  15 H :    0.013767
  16 S :    0.387018
  17 C :   -0.177435
  18 C :   -0.076546
  19 C :   -0.059263
  20 C :   -0.201012
  21 H :    0.038428
  22 C :   -0.038431
  23 H :    0.038623
  24 H :    0.029333
  25 C :   -0.033395
  26 H :    0.031406
  27 H :    0.026250
  28 C :   -0.065715
  29 H :    0.020173
  30 H :    0.019017
  31 H :    0.022930
  32 H :    0.032052
  33 H :    0.040316

  Mayer bond orders larger than 0.100000
B(  0-S ,  1-C ) :   1.1586 B(  0-S ,  4-C ) :   1.1566 B(  1-C ,  2-C ) :   1.5917
B(  1-C , 32-H ) :   0.9684 B(  2-C ,  3-C ) :   1.2509 B(  2-C ,  6-C ) :   1.0141
B(  3-C ,  4-C ) :   1.5740 B(  3-C ,  5-H ) :   0.9989 B(  4-C , 20-C ) :   0.9992
B(  6-C ,  7-H ) :   0.9470 B(  6-C ,  8-H ) :   0.9398 B(  6-C ,  9-C ) :   1.0469
B(  9-C , 10-H ) :   0.9595 B(  9-C , 11-H ) :   0.9643 B(  9-C , 12-C ) :   1.0806
B( 12-C , 13-H ) :   0.9734 B( 12-C , 14-H ) :   0.9752 B( 12-C , 15-H ) :   0.9743
B( 16-S , 17-C ) :   1.1527 B( 16-S , 20-C ) :   1.1413 B( 17-C , 18-C ) :   1.6033
B( 17-C , 20-C ) :   0.1022 B( 17-C , 33-H ) :   0.9614 B( 18-C , 19-C ) :   1.2354
B( 18-C , 21-H ) :   0.9825 B( 19-C , 20-C ) :   1.6228 B( 19-C , 22-C ) :   1.0235
B( 22-C , 23-H ) :   0.9351 B( 22-C , 24-H ) :   0.9300 B( 22-C , 25-C ) :   1.0765
B( 25-C , 26-H ) :   0.9518 B( 25-C , 27-H ) :   0.9626 B( 25-C , 28-C ) :   1.0754
B( 28-C , 29-H ) :   0.9745 B( 28-C , 30-H ) :   0.9707 B( 28-C , 31-H ) :   0.9729

Dispersion correction           -0.013837035
FINAL SINGLE POINT ENERGY     -1339.862853500432

DIPOLE MOMENT
-------------
                                X             Y             Z
Electronic contribution:     -0.46812       3.86512     -21.39438
Nuclear contribution   :      0.34572      -3.93269      21.74528
                        -----------------------------------------
Total Dipole Moment    :     -0.12241      -0.06757       0.35091
                        -----------------------------------------
Magnitude (a.u.)       :      0.37774
Magnitude (Debye)      :      0.96013

Rotational constants in cm-1:     0.022089     0.006771     0.005975
Rotational constants in MHz :   662.201606   202.985088   179.128607

                             ****ORCA TERMINATED NORMALLY****
TOTAL RUN TIME: 0 days 0 hours 0 minutes 32 seconds 96 msec
