                         Program Version 4.2.1 -  RELEASE  -
|  1> ! wB97X-D3 SP def2-SVP
|  2> %pal
|  3> nprocs 16
|  4> end
|  5>
|  6> * xyz 0 1
|  7> S 	 -16.6477 	 39.4395 	 57.2663
|  8> C 	 -15.6888 	 38.8365 	 55.9997
|  9> C 	 -16.3159 	 38.9633 	 54.7844
| 10> C 	 -17.5676 	 39.6936 	 54.9039
| 11> C 	 -17.8927 	 40.0475 	 56.1922
| 12> H 	 -18.2163 	 39.9686 	 54.0909
| 13> C 	 -15.7432 	 38.6249 	 53.4442
| 14> H 	 -16.6144 	 38.5042 	 52.8498
| 15> H 	 -15.1533 	 37.6664 	 53.4533
| 16> C 	 -15.0151 	 39.6736 	 52.7132
| 17> H 	 -14.7818 	 39.3377 	 51.6598
| 18> H 	 -15.5952 	 40.5716 	 52.5522
| 19> C 	 -13.7111 	 40.2339 	 53.2881
| 20> H 	 -12.9383 	 39.4228 	 53.4692
| 21> H 	 -13.363 	 40.9802 	 52.5526
| 22> H 	 -13.8023 	 40.6711 	 54.2385
| 23> S 	 -18.595 	 41.7909 	 58.1671
| 24> C 	 -20.207 	 42.2372 	 58.4981
| 25> C 	 -21.0244 	 41.618 	 57.578
| 26> C 	 -20.3562 	 40.7711 	 56.6578
| 27> C 	 -18.9604 	 40.758 	 56.8028
| 28> H 	 -22.035 	 41.8997 	 57.5563
| 29> C 	 -21.1687 	 39.9575 	 55.7199
| 30> H 	 -20.8575 	 40.0391 	 54.7167
| 31> H 	 -22.1826 	 40.2887 	 55.7809
| 32> C 	 -21.2571 	 38.457 	 56.1906
| 33> H 	 -21.7404 	 38.4277 	 57.1479
| 34> H 	 -20.2031 	 38.1353 	 56.4324
| 35> C 	 -21.8801 	 37.5214 	 55.0966
| 36> H 	 -21.4 	 37.6738 	 54.178
| 37> H 	 -22.9851 	 37.7007 	 55.1002
| 38> H 	 -21.7063 	 36.4643 	 55.3594
| 39> H 	 -14.8084 	 38.2391 	 56.2676
| 40> H 	 -20.4683 	 43.1452 	 59.1042
| 41> *
| 42>
| 43>                          ****END OF INPUT****

CARTESIAN COORDINATES (ANGSTROEM)
---------------------------------
  S    -16.647700   39.439500   57.266300
  C    -15.688800   38.836500   55.999700
  C    -16.315900   38.963300   54.784400
  C    -17.567600   39.693600   54.903900
  C    -17.892700   40.047500   56.192200
  H    -18.216300   39.968600   54.090900
  C    -15.743200   38.624900   53.444200
  H    -16.614400   38.504200   52.849800
  H    -15.153300   37.666400   53.453300
  C    -15.015100   39.673600   52.713200
  H    -14.781800   39.337700   51.659800
  H    -15.595200   40.571600   52.552200
  C    -13.711100   40.233900   53.288100
  H    -12.938300   39.422800   53.469200
  H    -13.363000   40.980200   52.552600
  H    -13.802300   40.671100   54.238500
  S    -18.595000   41.790900   58.167100
  C    -20.207000   42.237200   58.498100
  C    -21.024400   41.618000   57.578000
  C    -20.356200   40.771100   56.657800
  C    -18.960400   40.758000   56.802800
  H    -22.035000   41.899700   57.556300
  C    -21.168700   39.957500   55.719900
  H    -20.857500   40.039100   54.716700
  H    -22.182600   40.288700   55.780900
  C    -21.257100   38.457000   56.190600
  H    -21.740400   38.427700   57.147900
  H    -20.203100   38.135300   56.432400
  C    -21.880100   37.521400   55.096600
  H    -21.400000   37.673800   54.178000
  H    -22.985100   37.700700   55.100200
  H    -21.706300   36.464300   55.359400
  H    -14.808400   38.239100   56.267600
  H    -20.468300   43.145200   59.104200

 Total Charge           Charge          ....    0
 Multiplicity           Mult            ....    1
 Number of Electrons    NEL             ....  134
 Basis Dimension        Dim             ....  322

ORBITAL ENERGIES
----------------

  NO   OCC          E(Eh)            E(eV)
   0   2.0000     -88.962961     -2420.8052
   1   2.0000     -88.961147     -2420.7559
   2   2.0000     -10.330062      -281.0953
   3   2.0000     -10.327789      -281.0334
   4   2.0000     -10.317970      -280.7662
   5   2.0000     -10.311718      -280.5961
   6   2.0000     -10.302510      -280.3455
   7   2.0000     -10.302465      -280.3443
   8   2.0000     -10.297472      -280.2085
   9   2.0000     -10.288869      -279.9744
  10   2.0000     -10.287933      -279.9489
  11   2.0000     -10.286797      -279.9180
  12   2.0000     -10.284004      -279.8420
  13   2.0000     -10.283052      -279.8161
  14   2.0000     -10.279979      -279.7324
  15   2.0000     -10.273483      -279.5557
  16   2.0000      -8.078664      -219.8316
  17   2.0000      -8.077320      -219.7950
  18   2.0000      -6.037028      -164.2759
  19   2.0000      -6.035772      -164.2417
  20   2.0000      -6.032765      -164.1599
  21   2.0000      -6.031481      -164.1249
  22   2.0000      -6.029738      -164.0775
  23   2.0000      -6.028158      -164.0345
  24   2.0000      -1.015542       -27.6343
  25   2.0000      -0.991893       -26.9908
  26   2.0000      -0.920457       -25.0469
  27   2.0000      -0.907419       -24.6921
  28   2.0000      -0.877405       -23.8754
  29   2.0000      -0.850909       -23.1544
  30   2.0000      -0.844811       -22.9885
  31   2.0000      -0.817706       -22.2509
  32   2.0000      -0.785712       -21.3803
  33   2.0000      -0.774300       -21.0698
  34   2.0000      -0.710438       -19.3320
  35   2.0000      -0.696136       -18.9428
  36   2.0000      -0.691152       -18.8072
  37   2.0000      -0.666681       -18.1413
  38   2.0000      -0.644682       -17.5427
  39   2.0000      -0.625022       -17.0077
  40   2.0000      -0.598392       -16.2831
  41   2.0000      -0.570540       -15.5252
  42   2.0000      -0.560155       -15.2426
  43   2.0000      -0.552415       -15.0320
  44   2.0000      -0.548262       -14.9190
  45   2.0000      -0.526288       -14.3210
  46   2.0000      -0.516695       -14.0600
  47   2.0000      -0.516129       -14.0446
  48   2.0000      -0.508006       -13.8235
  49   2.0000      -0.501481       -13.6460
  50   2.0000      -0.494138       -13.4462
  51   2.0000      -0.491361       -13.3706
  52   2.0000      -0.473163       -12.8754
  53   2.0000      -0.467500       -12.7213
  54   2.0000      -0.455386       -12.3917
  55   2.0000      -0.448995       -12.2178
  56   2.0000      -0.442224       -12.0335
  57   2.0000      -0.440726       -11.9928
  58   2.0000      -0.433064       -11.7843
  59   2.0000      -0.419732       -11.4215
  60   2.0000      -0.412450       -11.2233
  61   2.0000      -0.409320       -11.1382
  62   2.0000      -0.407387       -11.0856
  63   2.0000      -0.360254        -9.8030
  64   2.0000      -0.329416        -8.9639
  65   2.0000      -0.329204        -8.9581
  66   2.0000      -0.288117        -7.8401
  67   0.0000       0.024641         0.6705
  68   0.0000       0.071793         1.9536
  69   0.0000       0.111750         3.0409
  70   0.0000       0.120864         3.2889
  71   0.0000       0.141125         3.8402

MULLIKEN ATOMIC CHARGES
-----------------------
   0 S :    0.099856
   1 C :   -0.129724
   2 C :   -0.091446
   3 C :    0.016237
   4 C :   -0.141500
   5 H :    0.005042
   6 C :    0.110917
   7 H :    0.007893
   8 H :    0.036526
   9 C :   -0.087182
  10 H :    0.032216
  11 H :    0.017732
  12 C :   -0.056741
  13 H :    0.022621
  14 H :    0.039365
  15 H :    0.029767
  16 S :    0.100889
  17 C :   -0.104373
  18 C :   -0.037914
  19 C :   -0.043599
  20 C :   -0.136673
  21 H :    0.003773
  22 C :    0.113180
  23 H :    0.010980
  24 H :    0.002353
  25 C :   -0.113980
  26 H :    0.022904
  27 H :    0.039733
  28 C :   -0.023845
  29 H :    0.024695
  30 H :    0.041952
  31 H :    0.038241
  32 H :    0.063287
  33 H :    0.086817
Sum of atomic charges:   -0.0000000

LOEWDIN ATOMIC CHARGES
----------------------
   0 S :    0.422511
   1 C :   -0.211619
   2 C :   -0.064945
   3 C :   -0.063784
   4 C :   -0.188322
   5 H :    0.028673
   6 C :   -0.038526
   7 H :    0.031591
   8 H :    0.037821
   9 C :   -0.047400
  10 H :    0.031111
  11 H :    0.022915
  12 C :   -0.067580
  13 H :    0.024471
  14 H :    0.031440
  15 H :    0.015667
  16 S :    0.429713
  17 C :   -0.208404
  18 C :   -0.072888
  19 C :   -0.054755
  20 C :   -0.205860
  21 H :    0.023419
  22 C :   -0.027135
  23 H :    0.019584
  24 H :    0.026101
  25 C :   -0.035154
  26 H :    0.019657
  27 H :    0.026418
  28 C :   -0.062986
  29 H :    0.016822
  30 H :    0.031036
  31 H :    0.030643
  32 H :    0.033216
  33 H :    0.046549

  Mayer bond orders larger than 0.100000
B(  0-S ,  1-C ) :   1.1524 B(  0-S ,  4-C ) :   1.1507 B(  1-C ,  2-C ) :   1.5906
B(  1-C , 32-H ) :   0.9695 B(  2-C ,  3-C ) :   1.2254 B(  2-C ,  6-C ) :   1.0366
B(  3-C ,  4-C ) :   1.5797 B(  3-C ,  5-H ) :   1.0001 B(  4-C , 20-C ) :   1.0752
B(  6-C ,  7-H ) :   0.9161 B(  6-C ,  8-H ) :   0.9385 B(  6-C ,  9-C ) :   1.0954
B(  9-C , 10-H ) :   0.9499 B(  9-C , 11-H ) :   0.9483 B(  9-C , 12-C ) :   1.0799
B( 12-C , 13-H ) :   0.9737 B( 12-C , 14-H ) :   0.9741 B( 12-C , 15-H ) :   0.9744
B( 16-S , 17-C ) :   1.1826 B( 16-S , 20-C ) :   1.1572 B( 17-C , 18-C ) :   1.5593
B( 17-C , 20-C ) :   0.1071 B( 17-C , 33-H ) :   0.9578 B( 18-C , 19-C ) :   1.2912
B( 18-C , 21-H ) :   0.9966 B( 19-C , 20-C ) :   1.5172 B( 19-C , 22-C ) :   1.0679
B( 22-C , 23-H ) :   0.9330 B( 22-C , 24-H ) :   0.9246 B( 22-C , 25-C ) :   1.0469
B( 25-C , 26-H ) :   0.9560 B( 25-C , 27-H ) :   0.9651 B( 25-C , 28-C ) :   1.0693
B( 28-C , 29-H ) :   0.9762 B( 28-C , 30-H ) :   0.9763 B( 28-C , 31-H ) :   0.9751

Dispersion correction           -0.014340075
FINAL SINGLE POINT ENERGY     -1339.881223697416

DIPOLE MOMENT
-------------
                                X             Y             Z
Electronic contribution:      1.69923       9.97507      20.77580
Nuclear contribution   :     -2.01123     -10.03888     -21.25414
                        -----------------------------------------
Total Dipole Moment    :     -0.31199      -0.06382      -0.47834
                        -----------------------------------------
Magnitude (a.u.)       :      0.57465
Magnitude (Debye)      :      1.46064

Rotational constants in cm-1:     0.019591     0.008593     0.006897
Rotational constants in MHz :   587.333488   257.617574   206.776230

                             ****ORCA TERMINATED NORMALLY****
TOTAL RUN TIME: 0 days 0 hours 0 minutes 35 seconds 582 msec
