                         Program Version 4.2.1 -  RELEASE  -
|  1> ! wB97X-D3 SP def2-SVP
|  2> %pal
|  3> nprocs 16
|  4> end
|  5>
|  6> * xyz 0 1
|  7> S 	 -35.853 	 59.7711 	 101.487
|  8> C 	 -37.3169 	 58.7584 	 101.626
|  9> C 	 -37.0632 	 57.5538 	 102.2
| 10> C 	 -35.7321 	 57.4727 	 102.717
| 11> C 	 -34.935 	 58.5194 	 102.331
| 12> H 	 -35.3065 	 56.6735 	 103.238
| 13> C 	 -38.0297 	 56.4167 	 102.287
| 14> H 	 -38.9545 	 56.78 	 102.694
| 15> H 	 -37.7286 	 55.6135 	 102.982
| 16> C 	 -38.4581 	 55.7746 	 100.934
| 17> H 	 -37.5753 	 55.4484 	 100.28
| 18> H 	 -39.0364 	 54.9345 	 101.195
| 19> C 	 -39.4961 	 56.5824 	 100.061
| 20> H 	 -38.9461 	 57.4042 	 99.5377
| 21> H 	 -40.0402 	 56.0122 	 99.3216
| 22> H 	 -40.202 	 57.1103 	 100.726
| 23> S 	 -33.1018 	 58.2403 	 104.405
| 24> C 	 -31.3997 	 58.2844 	 104.019
| 25> C 	 -31.1002 	 58.8248 	 102.772
| 26> C 	 -32.3184 	 58.9544 	 102.03
| 27> C 	 -33.5254 	 58.5819 	 102.729
| 28> H 	 -30.0726 	 58.9585 	 102.309
| 29> C 	 -32.3086 	 59.3474 	 100.651
| 30> H 	 -31.352 	 59.8599 	 100.432
| 31> H 	 -33.177 	 60.042 	 100.563
| 32> C 	 -32.5747 	 58.1677 	 99.6177
| 33> H 	 -33.4883 	 57.7529 	 99.9382
| 34> H 	 -31.8222 	 57.3445 	 99.6487
| 35> C 	 -32.6036 	 58.5892 	 98.2013
| 36> H 	 -31.7316 	 58.9707 	 97.8011
| 37> H 	 -33.2935 	 59.4456 	 98.1673
| 38> H 	 -33.0229 	 57.8592 	 97.5531
| 39> H 	 -38.281 	 59.0769 	 101.237
| 40> H 	 -30.6614 	 57.962 	 104.695
| 41> *
| 42>
| 43>                          ****END OF INPUT****

CARTESIAN COORDINATES (ANGSTROEM)
---------------------------------
  S    -35.853000   59.771100  101.487000
  C    -37.316900   58.758400  101.626000
  C    -37.063200   57.553800  102.200000
  C    -35.732100   57.472700  102.717000
  C    -34.935000   58.519400  102.331000
  H    -35.306500   56.673500  103.238000
  C    -38.029700   56.416700  102.287000
  H    -38.954500   56.780000  102.694000
  H    -37.728600   55.613500  102.982000
  C    -38.458100   55.774600  100.934000
  H    -37.575300   55.448400  100.280000
  H    -39.036400   54.934500  101.195000
  C    -39.496100   56.582400  100.061000
  H    -38.946100   57.404200   99.537700
  H    -40.040200   56.012200   99.321600
  H    -40.202000   57.110300  100.726000
  S    -33.101800   58.240300  104.405000
  C    -31.399700   58.284400  104.019000
  C    -31.100200   58.824800  102.772000
  C    -32.318400   58.954400  102.030000
  C    -33.525400   58.581900  102.729000
  H    -30.072600   58.958500  102.309000
  C    -32.308600   59.347400  100.651000
  H    -31.352000   59.859900  100.432000
  H    -33.177000   60.042000  100.563000
  C    -32.574700   58.167700   99.617700
  H    -33.488300   57.752900   99.938200
  H    -31.822200   57.344500   99.648700
  C    -32.603600   58.589200   98.201300
  H    -31.731600   58.970700   97.801100
  H    -33.293500   59.445600   98.167300
  H    -33.022900   57.859200   97.553100
  H    -38.281000   59.076900  101.237000
  H    -30.661400   57.962000  104.695000

 Total Charge           Charge          ....    0
 Multiplicity           Mult            ....    1
 Number of Electrons    NEL             ....  134
 Basis Dimension        Dim             ....  322

ORBITAL ENERGIES
----------------

  NO   OCC          E(Eh)            E(eV)
   0   2.0000     -88.969985     -2420.9964
   1   2.0000     -88.968118     -2420.9456
   2   2.0000     -10.331992      -281.1478
   3   2.0000     -10.327248      -281.0187
   4   2.0000     -10.316383      -280.7230
   5   2.0000     -10.315751      -280.7059
   6   2.0000     -10.300776      -280.2984
   7   2.0000     -10.300701      -280.2963
   8   2.0000     -10.299994      -280.2771
   9   2.0000     -10.295564      -280.1565
  10   2.0000     -10.293633      -280.1040
  11   2.0000     -10.289390      -279.9885
  12   2.0000     -10.287796      -279.9452
  13   2.0000     -10.285114      -279.8722
  14   2.0000     -10.279394      -279.7165
  15   2.0000     -10.261360      -279.2258
  16   2.0000      -8.083556      -219.9648
  17   2.0000      -8.082253      -219.9293
  18   2.0000      -6.042245      -164.4179
  19   2.0000      -6.040737      -164.3768
  20   2.0000      -6.038340      -164.3116
  21   2.0000      -6.036855      -164.2712
  22   2.0000      -6.034098      -164.1961
  23   2.0000      -6.033082      -164.1685
  24   2.0000      -1.003740       -27.3132
  25   2.0000      -0.982069       -26.7235
  26   2.0000      -0.910842       -24.7853
  27   2.0000      -0.909519       -24.7493
  28   2.0000      -0.867673       -23.6106
  29   2.0000      -0.857876       -23.3440
  30   2.0000      -0.848023       -23.0759
  31   2.0000      -0.812924       -22.1208
  32   2.0000      -0.785010       -21.3612
  33   2.0000      -0.765654       -20.8345
  34   2.0000      -0.708549       -19.2806
  35   2.0000      -0.699350       -19.0303
  36   2.0000      -0.690128       -18.7793
  37   2.0000      -0.666526       -18.1371
  38   2.0000      -0.642183       -17.4747
  39   2.0000      -0.614053       -16.7092
  40   2.0000      -0.592039       -16.1102
  41   2.0000      -0.572874       -15.5887
  42   2.0000      -0.564492       -15.3606
  43   2.0000      -0.545774       -14.8513
  44   2.0000      -0.540905       -14.7188
  45   2.0000      -0.524105       -14.2616
  46   2.0000      -0.517611       -14.0849
  47   2.0000      -0.512151       -13.9363
  48   2.0000      -0.507981       -13.8229
  49   2.0000      -0.498202       -13.5568
  50   2.0000      -0.492283       -13.3957
  51   2.0000      -0.482880       -13.1398
  52   2.0000      -0.477624       -12.9968
  53   2.0000      -0.461515       -12.5585
  54   2.0000      -0.458075       -12.4649
  55   2.0000      -0.455060       -12.3828
  56   2.0000      -0.442213       -12.0332
  57   2.0000      -0.439387       -11.9563
  58   2.0000      -0.430220       -11.7069
  59   2.0000      -0.426997       -11.6192
  60   2.0000      -0.419656       -11.4194
  61   2.0000      -0.414956       -11.2915
  62   2.0000      -0.408483       -11.1154
  63   2.0000      -0.345734        -9.4079
  64   2.0000      -0.334319        -9.0973
  65   2.0000      -0.328507        -8.9391
  66   2.0000      -0.283528        -7.7152
  67   0.0000       0.022267         0.6059
  68   0.0000       0.072007         1.9594
  69   0.0000       0.102272         2.7830
  70   0.0000       0.104980         2.8567
  71   0.0000       0.124111         3.3772

MULLIKEN ATOMIC CHARGES
-----------------------
   0 S :    0.101812
   1 C :   -0.141575
   2 C :   -0.027027
   3 C :    0.004443
   4 C :   -0.112136
   5 H :   -0.006312
   6 C :    0.069830
   7 H :    0.018210
   8 H :    0.031400
   9 C :   -0.077998
  10 H :    0.050537
  11 H :    0.022932
  12 C :   -0.083553
  13 H :    0.038903
  14 H :    0.044485
  15 H :    0.023827
  16 S :    0.115607
  17 C :   -0.087681
  18 C :   -0.030574
  19 C :   -0.051812
  20 C :   -0.163686
  21 H :    0.048914
  22 C :    0.021707
  23 H :    0.021328
  24 H :    0.028439
  25 C :   -0.056939
  26 H :    0.020125
  27 H :    0.024597
  28 C :    0.015726
  29 H :    0.010926
  30 H :    0.006876
  31 H :    0.027584
  32 H :    0.048827
  33 H :    0.042255
Sum of atomic charges:    0.0000000

LOEWDIN ATOMIC CHARGES
----------------------
   0 S :    0.382239
   1 C :   -0.179655
   2 C :   -0.061053
   3 C :   -0.055175
   4 C :   -0.186929
   5 H :    0.020457
   6 C :   -0.031550
   7 H :    0.030337
   8 H :    0.036081
   9 C :   -0.037118
  10 H :    0.033327
  11 H :    0.017986
  12 C :   -0.072890
  13 H :    0.025800
  14 H :    0.026028
  15 H :    0.021760
  16 S :    0.414874
  17 C :   -0.177228
  18 C :   -0.074787
  19 C :   -0.058096
  20 C :   -0.203914
  21 H :    0.047993
  22 C :   -0.041175
  23 H :    0.030426
  24 H :    0.029421
  25 C :   -0.030373
  26 H :    0.018390
  27 H :    0.024747
  28 C :   -0.059398
  29 H :    0.013673
  30 H :    0.025901
  31 H :    0.025630
  32 H :    0.027260
  33 H :    0.017010

  Mayer bond orders larger than 0.100000
B(  0-S ,  1-C ) :   1.1129 B(  0-S ,  4-C ) :   1.1246 B(  1-C ,  2-C ) :   1.6377
B(  1-C , 32-H ) :   0.9640 B(  2-C ,  3-C ) :   1.2109 B(  2-C ,  6-C ) :   1.0274
B(  3-C ,  4-C ) :   1.5727 B(  3-C ,  5-H ) :   1.0080 B(  4-C , 20-C ) :   1.0686
B(  6-C ,  7-H ) :   0.9307 B(  6-C ,  8-H ) :   0.9442 B(  6-C ,  9-C ) :   1.0725
B(  9-C , 10-H ) :   0.9577 B(  9-C , 11-H ) :   0.9555 B(  9-C , 12-C ) :   1.0659
B( 12-C , 13-H ) :   0.9748 B( 12-C , 14-H ) :   0.9760 B( 12-C , 15-H ) :   0.9742
B( 16-S , 17-C ) :   1.1782 B( 16-S , 20-C ) :   1.1322 B( 17-C , 18-C ) :   1.5690
B( 17-C , 20-C ) :   0.1016 B( 17-C , 33-H ) :   0.9705 B( 18-C , 19-C ) :   1.2793
B( 18-C , 21-H ) :   0.9772 B( 19-C , 20-C ) :   1.5232 B( 19-C , 22-C ) :   1.0842
B( 22-C , 23-H ) :   0.9313 B( 22-C , 24-H ) :   0.9213 B( 22-C , 25-C ) :   1.0545
B( 25-C , 26-H ) :   0.9524 B( 25-C , 27-H ) :   0.9555 B( 25-C , 28-C ) :   1.0977
B( 28-C , 29-H ) :   0.9723 B( 28-C , 30-H ) :   0.9655 B( 28-C , 31-H ) :   0.9686

Dispersion correction           -0.014659297
FINAL SINGLE POINT ENERGY     -1339.867211725029

DIPOLE MOMENT
-------------
                                X             Y             Z
Electronic contribution:      8.78101       9.70369      19.78880
Nuclear contribution   :     -8.89962     -10.12943     -20.04314
                        -----------------------------------------
Total Dipole Moment    :     -0.11861      -0.42575      -0.25434
                        -----------------------------------------
Magnitude (a.u.)       :      0.50992
Magnitude (Debye)      :      1.29611

Rotational constants in cm-1:     0.019962     0.008496     0.006941
Rotational constants in MHz :   598.435408   254.710104   208.078937

                             ****ORCA TERMINATED NORMALLY****
TOTAL RUN TIME: 0 days 0 hours 0 minutes 32 seconds 60 msec
