                         Program Version 4.2.1 -  RELEASE  -
|  1> ! wB97X-D3 SP def2-SVP
|  2> %pal
|  3> nprocs 16
|  4> end
|  5>
|  6> * xyz 0 1
|  7> S 	 7.82128 	 78.8854 	 48.8266
|  8> C 	 7.94953 	 77.1393 	 49.2209
|  9> C 	 7.00733 	 76.4284 	 48.5776
| 10> C 	 6.01941 	 77.2408 	 47.8675
| 11> C 	 6.37324 	 78.6445 	 47.8608
| 12> H 	 5.26695 	 76.7909 	 47.2213
| 13> C 	 7.04154 	 74.8944 	 48.5875
| 14> H 	 6.05352 	 74.4013 	 48.722
| 15> H 	 7.52471 	 74.5974 	 49.5116
| 16> C 	 7.88833 	 74.2603 	 47.4149
| 17> H 	 7.50824 	 74.2488 	 46.3744
| 18> H 	 8.83921 	 74.8192 	 47.2965
| 19> C 	 8.3063 	 72.823 	 47.7534
| 20> H 	 8.70335 	 72.3315 	 46.976
| 21> H 	 9.09197 	 72.7567 	 48.5075
| 22> H 	 7.4483 	 72.3801 	 48.1119
| 23> S 	 6.56138 	 80.5219 	 45.831
| 24> C 	 5.15675 	 81.5445 	 45.4881
| 25> C 	 4.23988 	 81.4441 	 46.4302
| 26> C 	 4.46293 	 80.3171 	 47.2931
| 27> C 	 5.65542 	 79.7014 	 47.1032
| 28> H 	 3.39989 	 82.1948 	 46.3611
| 29> C 	 3.39175 	 79.9779 	 48.3032
| 30> H 	 3.46141 	 78.9638 	 48.6574
| 31> H 	 2.50451 	 79.9909 	 47.6807
| 32> C 	 3.29905 	 80.8992 	 49.5373
| 33> H 	 2.40069 	 80.7216 	 50.2281
| 34> H 	 3.29618 	 81.9293 	 49.176
| 35> C 	 4.60223 	 80.9237 	 50.3848
| 36> H 	 4.90711 	 79.9124 	 50.6198
| 37> H 	 4.4567 	 81.6012 	 51.2211
| 38> H 	 5.43727 	 81.3236 	 49.8365
| 39> H 	 8.75695 	 76.6912 	 49.7343
| 40> H 	 5.11262 	 82.3222 	 44.7539
| 41> *
| 42>
| 43>                          ****END OF INPUT****

CARTESIAN COORDINATES (ANGSTROEM)
---------------------------------
  S      7.821280   78.885400   48.826600
  C      7.949530   77.139300   49.220900
  C      7.007330   76.428400   48.577600
  C      6.019410   77.240800   47.867500
  C      6.373240   78.644500   47.860800
  H      5.266950   76.790900   47.221300
  C      7.041540   74.894400   48.587500
  H      6.053520   74.401300   48.722000
  H      7.524710   74.597400   49.511600
  C      7.888330   74.260300   47.414900
  H      7.508240   74.248800   46.374400
  H      8.839210   74.819200   47.296500
  C      8.306300   72.823000   47.753400
  H      8.703350   72.331500   46.976000
  H      9.091970   72.756700   48.507500
  H      7.448300   72.380100   48.111900
  S      6.561380   80.521900   45.831000
  C      5.156750   81.544500   45.488100
  C      4.239880   81.444100   46.430200
  C      4.462930   80.317100   47.293100
  C      5.655420   79.701400   47.103200
  H      3.399890   82.194800   46.361100
  C      3.391750   79.977900   48.303200
  H      3.461410   78.963800   48.657400
  H      2.504510   79.990900   47.680700
  C      3.299050   80.899200   49.537300
  H      2.400690   80.721600   50.228100
  H      3.296180   81.929300   49.176000
  C      4.602230   80.923700   50.384800
  H      4.907110   79.912400   50.619800
  H      4.456700   81.601200   51.221100
  H      5.437270   81.323600   49.836500
  H      8.756950   76.691200   49.734300
  H      5.112620   82.322200   44.753900

 Total Charge           Charge          ....    0
 Multiplicity           Mult            ....    1
 Number of Electrons    NEL             ....  134
 Basis Dimension        Dim             ....  322

ORBITAL ENERGIES
----------------

  NO   OCC          E(Eh)            E(eV)
   0   2.0000     -88.970252     -2421.0036
   1   2.0000     -88.960759     -2420.7453
   2   2.0000     -10.342661      -281.4381
   3   2.0000     -10.328612      -281.0558
   4   2.0000     -10.312055      -280.6053
   5   2.0000     -10.311860      -280.6000
   6   2.0000     -10.304279      -280.3937
   7   2.0000     -10.303782      -280.3802
   8   2.0000     -10.302963      -280.3579
   9   2.0000     -10.301297      -280.3126
  10   2.0000     -10.293022      -280.0874
  11   2.0000     -10.291507      -280.0461
  12   2.0000     -10.289641      -279.9954
  13   2.0000     -10.285951      -279.8950
  14   2.0000     -10.266474      -279.3649
  15   2.0000     -10.262133      -279.2468
  16   2.0000      -8.083710      -219.9689
  17   2.0000      -8.075561      -219.7472
  18   2.0000      -6.042349      -164.4207
  19   2.0000      -6.038357      -164.3120
  20   2.0000      -6.034429      -164.2052
  21   2.0000      -6.034214      -164.1993
  22   2.0000      -6.030261      -164.0918
  23   2.0000      -6.025937      -163.9741
  24   2.0000      -1.005691       -27.3662
  25   2.0000      -0.981448       -26.7065
  26   2.0000      -0.907341       -24.6900
  27   2.0000      -0.903881       -24.5958
  28   2.0000      -0.873606       -23.7720
  29   2.0000      -0.846208       -23.0265
  30   2.0000      -0.842053       -22.9134
  31   2.0000      -0.816093       -22.2070
  32   2.0000      -0.782590       -21.2954
  33   2.0000      -0.773582       -21.0502
  34   2.0000      -0.709108       -19.2958
  35   2.0000      -0.701589       -19.0912
  36   2.0000      -0.688682       -18.7400
  37   2.0000      -0.656632       -17.8679
  38   2.0000      -0.639379       -17.3984
  39   2.0000      -0.615646       -16.7526
  40   2.0000      -0.597219       -16.2512
  41   2.0000      -0.575816       -15.6687
  42   2.0000      -0.553473       -15.0608
  43   2.0000      -0.550606       -14.9828
  44   2.0000      -0.539468       -14.6797
  45   2.0000      -0.532154       -14.4807
  46   2.0000      -0.513630       -13.9766
  47   2.0000      -0.509554       -13.8657
  48   2.0000      -0.507237       -13.8026
  49   2.0000      -0.500682       -13.6242
  50   2.0000      -0.488557       -13.2943
  51   2.0000      -0.481100       -13.0914
  52   2.0000      -0.465750       -12.6737
  53   2.0000      -0.460912       -12.5421
  54   2.0000      -0.454790       -12.3755
  55   2.0000      -0.445812       -12.1312
  56   2.0000      -0.441575       -12.0159
  57   2.0000      -0.437340       -11.9006
  58   2.0000      -0.434746       -11.8300
  59   2.0000      -0.424380       -11.5480
  60   2.0000      -0.415403       -11.3037
  61   2.0000      -0.413570       -11.2538
  62   2.0000      -0.407221       -11.0810
  63   2.0000      -0.344728        -9.3805
  64   2.0000      -0.333249        -9.0682
  65   2.0000      -0.326066        -8.8727
  66   2.0000      -0.303939        -8.2706
  67   0.0000       0.036542         0.9944
  68   0.0000       0.060630         1.6498
  69   0.0000       0.111724         3.0402
  70   0.0000       0.122235         3.3262
  71   0.0000       0.125064         3.4032

MULLIKEN ATOMIC CHARGES
-----------------------
   0 S :    0.111781
   1 C :   -0.107201
   2 C :   -0.086220
   3 C :    0.051534
   4 C :   -0.160238
   5 H :    0.023813
   6 C :    0.046588
   7 H :    0.037135
   8 H :    0.014801
   9 C :   -0.093742
  10 H :    0.039259
  11 H :    0.027499
  12 C :    0.014435
  13 H :    0.004081
  14 H :    0.022277
  15 H :    0.011847
  16 S :    0.086027
  17 C :   -0.071379
  18 C :   -0.056320
  19 C :   -0.046404
  20 C :   -0.163574
  21 H :    0.044835
  22 C :    0.107946
  23 H :    0.014682
  24 H :    0.024687
  25 C :   -0.093280
  26 H :    0.050784
  27 H :    0.019703
  28 C :   -0.045488
  29 H :    0.029175
  30 H :    0.033981
  31 H :    0.027075
  32 H :    0.036656
  33 H :    0.043245
Sum of atomic charges:   -0.0000000

LOEWDIN ATOMIC CHARGES
----------------------
   0 S :    0.391732
   1 C :   -0.179535
   2 C :   -0.062546
   3 C :   -0.060618
   4 C :   -0.190280
   5 H :    0.032929
   6 C :   -0.032136
   7 H :    0.033438
   8 H :    0.030151
   9 C :   -0.040526
  10 H :    0.027715
  11 H :    0.025624
  12 C :   -0.050267
  13 H :    0.010328
  14 H :    0.025634
  15 H :    0.014444
  16 S :    0.376293
  17 C :   -0.164239
  18 C :   -0.079316
  19 C :   -0.052355
  20 C :   -0.194861
  21 H :    0.047050
  22 C :   -0.031680
  23 H :    0.025616
  24 H :    0.031954
  25 C :   -0.043278
  26 H :    0.033491
  27 H :    0.020589
  28 C :   -0.063259
  29 H :    0.020386
  30 H :    0.026371
  31 H :    0.021311
  32 H :    0.023235
  33 H :    0.026606

  Mayer bond orders larger than 0.100000
B(  0-S ,  1-C ) :   1.1093 B(  0-S ,  4-C ) :   1.1605 B(  1-C ,  2-C ) :   1.6498
B(  1-C , 32-H ) :   0.9688 B(  2-C ,  3-C ) :   1.2335 B(  2-C ,  6-C ) :   1.0279
B(  3-C ,  4-C ) :   1.5618 B(  3-C ,  5-H ) :   0.9883 B(  4-C , 20-C ) :   1.0251
B(  6-C ,  7-H ) :   0.9417 B(  6-C ,  8-H ) :   0.9456 B(  6-C ,  9-C ) :   1.0389
B(  9-C , 10-H ) :   0.9612 B(  9-C , 11-H ) :   0.9603 B(  9-C , 12-C ) :   1.0811
B( 12-C , 13-H ) :   0.9707 B( 12-C , 14-H ) :   0.9744 B( 12-C , 15-H ) :   0.9753
B( 16-S , 17-C ) :   1.1264 B( 16-S , 20-C ) :   1.1139 B( 17-C , 18-C ) :   1.6981
B( 17-C , 33-H ) :   0.9628 B( 18-C , 19-C ) :   1.1802 B( 18-C , 21-H ) :   0.9777
B( 19-C , 20-C ) :   1.6613 B( 19-C , 22-C ) :   1.0297 B( 22-C , 23-H ) :   0.9363
B( 22-C , 24-H ) :   0.9328 B( 22-C , 25-C ) :   1.0667 B( 25-C , 26-H ) :   0.9593
B( 25-C , 27-H ) :   0.9575 B( 25-C , 28-C ) :   1.0683 B( 28-C , 29-H ) :   0.9771
B( 28-C , 30-H ) :   0.9739 B( 28-C , 31-H ) :   0.9736

Dispersion correction           -0.014793543
FINAL SINGLE POINT ENERGY     -1339.859161703754

DIPOLE MOMENT
-------------
                                X             Y             Z
Electronic contribution:      6.14971      15.81609      -9.15984
Nuclear contribution   :     -6.43294     -16.10405       9.15887
                        -----------------------------------------
Total Dipole Moment    :     -0.28323      -0.28795      -0.00096
                        -----------------------------------------
Magnitude (a.u.)       :      0.40390
Magnitude (Debye)      :      1.02664

Rotational constants in cm-1:     0.022962     0.007320     0.006642
Rotational constants in MHz :   688.392343   219.449995   199.114400

                             ****ORCA TERMINATED NORMALLY****
TOTAL RUN TIME: 0 days 0 hours 0 minutes 33 seconds 550 msec
