                         Program Version 4.2.1 -  RELEASE  -
|  1> ! wB97X-D3 SP def2-SVP
|  2> %pal
|  3> nprocs 16
|  4> end
|  5>
|  6> * xyz 0 1
|  7> S 	 11.1727 	 -5.9355 	 70.3083
|  8> C 	 11.1053 	 -4.6905 	 71.5281
|  9> C 	 12.3343 	 -4.41265 	 72.122
| 10> C 	 13.3541 	 -5.30606 	 71.6342
| 11> C 	 12.8779 	 -6.22736 	 70.7193
| 12> H 	 14.4038 	 -5.19583 	 71.8802
| 13> C 	 12.5651 	 -3.30001 	 73.0518
| 14> H 	 13.4556 	 -3.62645 	 73.6503
| 15> H 	 11.7201 	 -3.296 	 73.7794
| 16> C 	 12.8351 	 -1.89719 	 72.5105
| 17> H 	 13.6924 	 -1.94184 	 71.8751
| 18> H 	 11.9441 	 -1.41577 	 72.0472
| 19> C 	 13.2073 	 -0.9125 	 73.6248
| 20> H 	 14.2487 	 -1.10722 	 73.8929
| 21> H 	 13.1335 	 0.199463 	 73.437
| 22> H 	 12.5841 	 -0.937762 	 74.4946
| 23> S 	 14.4621 	 -8.66797 	 71.0041
| 24> C 	 14.7008 	 -9.74267 	 69.6457
| 25> C 	 14.4468 	 -8.91239 	 68.5182
| 26> C 	 13.9815 	 -7.66164 	 68.7432
| 27> C 	 13.6316 	 -7.35429 	 70.0797
| 28> H 	 14.6251 	 -9.34643 	 67.5473
| 29> C 	 13.4622 	 -6.77747 	 67.5455
| 30> H 	 14.1337 	 -6.85741 	 66.6789
| 31> H 	 13.5227 	 -5.7396 	 67.9356
| 32> C 	 12.0998 	 -7.11545 	 66.9705
| 33> H 	 11.5105 	 -7.09954 	 67.8332
| 34> H 	 11.9458 	 -8.09474 	 66.5644
| 35> C 	 11.7227 	 -6.01386 	 65.9141
| 36> H 	 12.2897 	 -6.09861 	 64.9696
| 37> H 	 11.7568 	 -4.98788 	 66.3274
| 38> H 	 10.6735 	 -6.18969 	 65.5114
| 39> H 	 10.1931 	 -4.09546 	 71.691
| 40> H 	 14.9728 	 -10.8577 	 69.6361
| 41> *
| 42>
| 43>                          ****END OF INPUT****

CARTESIAN COORDINATES (ANGSTROEM)
---------------------------------
  S     11.172700   -5.935500   70.308300
  C     11.105300   -4.690500   71.528100
  C     12.334300   -4.412650   72.122000
  C     13.354100   -5.306060   71.634200
  C     12.877900   -6.227360   70.719300
  H     14.403800   -5.195830   71.880200
  C     12.565100   -3.300010   73.051800
  H     13.455600   -3.626450   73.650300
  H     11.720100   -3.296000   73.779400
  C     12.835100   -1.897190   72.510500
  H     13.692400   -1.941840   71.875100
  H     11.944100   -1.415770   72.047200
  C     13.207300   -0.912500   73.624800
  H     14.248700   -1.107220   73.892900
  H     13.133500    0.199463   73.437000
  H     12.584100   -0.937762   74.494600
  S     14.462100   -8.667970   71.004100
  C     14.700800   -9.742670   69.645700
  C     14.446800   -8.912390   68.518200
  C     13.981500   -7.661640   68.743200
  C     13.631600   -7.354290   70.079700
  H     14.625100   -9.346430   67.547300
  C     13.462200   -6.777470   67.545500
  H     14.133700   -6.857410   66.678900
  H     13.522700   -5.739600   67.935600
  C     12.099800   -7.115450   66.970500
  H     11.510500   -7.099540   67.833200
  H     11.945800   -8.094740   66.564400
  C     11.722700   -6.013860   65.914100
  H     12.289700   -6.098610   64.969600
  H     11.756800   -4.987880   66.327400
  H     10.673500   -6.189690   65.511400
  H     10.193100   -4.095460   71.691000
  H     14.972800  -10.857700   69.636100

 Total Charge           Charge          ....    0
 Multiplicity           Mult            ....    1
 Number of Electrons    NEL             ....  134
 Basis Dimension        Dim             ....  322

ORBITAL ENERGIES
----------------

  NO   OCC          E(Eh)            E(eV)
   0   2.0000     -88.973303     -2421.0867
   1   2.0000     -88.964085     -2420.8358
   2   2.0000     -10.340240      -281.3722
   3   2.0000     -10.336313      -281.2654
   4   2.0000     -10.329036      -281.0674
   5   2.0000     -10.318754      -280.7876
   6   2.0000     -10.302743      -280.3519
   7   2.0000     -10.300632      -280.2945
   8   2.0000     -10.300542      -280.2920
   9   2.0000     -10.297011      -280.1959
  10   2.0000     -10.291539      -280.0470
  11   2.0000     -10.290439      -280.0171
  12   2.0000     -10.289140      -279.9817
  13   2.0000     -10.285435      -279.8809
  14   2.0000     -10.280133      -279.7366
  15   2.0000     -10.278531      -279.6931
  16   2.0000      -8.087006      -220.0586
  17   2.0000      -8.077612      -219.8030
  18   2.0000      -6.045512      -164.5067
  19   2.0000      -6.041707      -164.4032
  20   2.0000      -6.037794      -164.2967
  21   2.0000      -6.036074      -164.2499
  22   2.0000      -6.032085      -164.1414
  23   2.0000      -6.028638      -164.0476
  24   2.0000      -1.001334       -27.2477
  25   2.0000      -0.984146       -26.7800
  26   2.0000      -0.916384       -24.9361
  27   2.0000      -0.902623       -24.5616
  28   2.0000      -0.864345       -23.5200
  29   2.0000      -0.854100       -23.2412
  30   2.0000      -0.842033       -22.9129
  31   2.0000      -0.811349       -22.0779
  32   2.0000      -0.776228       -21.1222
  33   2.0000      -0.765608       -20.8333
  34   2.0000      -0.706414       -19.2225
  35   2.0000      -0.700985       -19.0748
  36   2.0000      -0.695426       -18.9235
  37   2.0000      -0.657408       -17.8890
  38   2.0000      -0.641406       -17.4535
  39   2.0000      -0.616345       -16.7716
  40   2.0000      -0.589878       -16.0514
  41   2.0000      -0.576635       -15.6910
  42   2.0000      -0.566983       -15.4284
  43   2.0000      -0.564072       -15.3492
  44   2.0000      -0.526275       -14.3207
  45   2.0000      -0.520435       -14.1618
  46   2.0000      -0.518519       -14.1096
  47   2.0000      -0.511315       -13.9136
  48   2.0000      -0.499653       -13.5962
  49   2.0000      -0.496670       -13.5151
  50   2.0000      -0.489875       -13.3302
  51   2.0000      -0.471859       -12.8399
  52   2.0000      -0.469291       -12.7700
  53   2.0000      -0.464325       -12.6349
  54   2.0000      -0.463973       -12.6254
  55   2.0000      -0.449850       -12.2411
  56   2.0000      -0.443374       -12.0648
  57   2.0000      -0.439553       -11.9608
  58   2.0000      -0.430146       -11.7049
  59   2.0000      -0.428409       -11.6576
  60   2.0000      -0.416304       -11.3282
  61   2.0000      -0.405552       -11.0356
  62   2.0000      -0.401801       -10.9336
  63   2.0000      -0.342729        -9.3261
  64   2.0000      -0.331037        -9.0080
  65   2.0000      -0.329311        -8.9610
  66   2.0000      -0.292885        -7.9698
  67   0.0000       0.024570         0.6686
  68   0.0000       0.047793         1.3005
  69   0.0000       0.099352         2.7035
  70   0.0000       0.113122         3.0782
  71   0.0000       0.136935         3.7262

MULLIKEN ATOMIC CHARGES
-----------------------
   0 S :    0.108959
   1 C :   -0.117797
   2 C :   -0.082147
   3 C :    0.036734
   4 C :   -0.159099
   5 H :    0.020355
   6 C :    0.018014
   7 H :    0.024224
   8 H :    0.034606
   9 C :   -0.017270
  10 H :    0.027588
  11 H :    0.037239
  12 C :   -0.079334
  13 H :    0.029646
  14 H :    0.038038
  15 H :    0.020927
  16 S :    0.099190
  17 C :   -0.133903
  18 C :   -0.047869
  19 C :    0.014212
  20 C :   -0.158660
  21 H :    0.014975
  22 C :   -0.002323
  23 H :    0.020120
  24 H :    0.040319
  25 C :    0.004476
  26 H :   -0.002450
  27 H :    0.022876
  28 C :   -0.088124
  29 H :    0.038111
  30 H :    0.045312
  31 H :    0.035032
  32 H :    0.057453
  33 H :    0.100571
Sum of atomic charges:   -0.0000000

LOEWDIN ATOMIC CHARGES
----------------------
   0 S :    0.415032
   1 C :   -0.194486
   2 C :   -0.068311
   3 C :   -0.054803
   4 C :   -0.183937
   5 H :    0.035320
   6 C :   -0.042912
   7 H :    0.036071
   8 H :    0.037241
   9 C :   -0.035193
  10 H :    0.024151
  11 H :    0.030015
  12 C :   -0.074518
  13 H :    0.023398
  14 H :    0.033409
  15 H :    0.018799
  16 S :    0.393861
  17 C :   -0.202940
  18 C :   -0.081649
  19 C :   -0.066976
  20 C :   -0.188756
  21 H :    0.028289
  22 C :   -0.031447
  23 H :    0.025903
  24 H :    0.032232
  25 C :   -0.036829
  26 H :    0.002435
  27 H :    0.023227
  28 C :   -0.071735
  29 H :    0.026520
  30 H :    0.028964
  31 H :    0.030817
  32 H :    0.031469
  33 H :    0.057340

  Mayer bond orders larger than 0.100000
B(  0-S ,  1-C ) :   1.1434 B(  0-S ,  4-C ) :   1.1473 B(  1-C ,  2-C ) :   1.6061
B(  1-C , 32-H ) :   0.9648 B(  2-C ,  3-C ) :   1.2418 B(  2-C ,  6-C ) :   1.0352
B(  3-C ,  4-C ) :   1.5806 B(  3-C ,  5-H ) :   0.9936 B(  4-C , 20-C ) :   1.0346
B(  6-C ,  7-H ) :   0.9370 B(  6-C ,  8-H ) :   0.9331 B(  6-C ,  9-C ) :   1.0684
B(  9-C , 10-H ) :   0.9570 B(  9-C , 11-H ) :   0.9556 B(  9-C , 12-C ) :   1.0706
B( 12-C , 13-H ) :   0.9783 B( 12-C , 14-H ) :   0.9759 B( 12-C , 15-H ) :   0.9743
B( 16-S , 17-C ) :   1.1866 B( 16-S , 20-C ) :   1.1484 B( 17-C , 18-C ) :   1.5124
B( 17-C , 20-C ) :   0.1359 B( 17-C , 33-H ) :   0.9606 B( 18-C , 19-C ) :   1.3206
B( 18-C , 21-H ) :   0.9945 B( 19-C , 20-C ) :   1.4894 B( 19-C , 22-C ) :   1.0462
B( 22-C , 23-H ) :   0.9425 B( 22-C , 24-H ) :   0.9390 B( 22-C , 25-C ) :   1.0564
B( 25-C , 26-H ) :   0.9470 B( 25-C , 27-H ) :   0.9532 B( 25-C , 28-C ) :   1.0730
B( 28-C , 29-H ) :   0.9762 B( 28-C , 30-H ) :   0.9760 B( 28-C , 31-H ) :   0.9741

Dispersion correction           -0.014119383
FINAL SINGLE POINT ENERGY     -1339.852005918615

DIPOLE MOMENT
-------------
                                X             Y             Z
Electronic contribution:      2.20280     -20.88541       5.03706
Nuclear contribution   :     -2.24468      21.26782      -5.18673
                        -----------------------------------------
Total Dipole Moment    :     -0.04188       0.38241      -0.14967
                        -----------------------------------------
Magnitude (a.u.)       :      0.41279
Magnitude (Debye)      :      1.04923

Rotational constants in cm-1:     0.019810     0.007618     0.006222
Rotational constants in MHz :   593.896966   228.372227   186.523480

                             ****ORCA TERMINATED NORMALLY****
TOTAL RUN TIME: 0 days 0 hours 0 minutes 33 seconds 598 msec
