                         Program Version 4.2.1 -  RELEASE  -
|  1> ! wB97X-D3 SP def2-SVP
|  2> %pal
|  3> nprocs 16
|  4> end
|  5>
|  6> * xyz 0 1
|  7> S 	 -42.4845 	 26.6711 	 84.7994
|  8> C 	 -42.8869 	 25.3187 	 85.7993
|  9> C 	 -43.2213 	 24.2464 	 85.0415
| 10> C 	 -43.2254 	 24.4977 	 83.6202
| 11> C 	 -42.6934 	 25.7565 	 83.3366
| 12> H 	 -43.5594 	 23.7764 	 82.841
| 13> C 	 -43.625 	 22.9433 	 85.6564
| 14> H 	 -44.5238 	 22.5264 	 85.3002
| 15> H 	 -43.831 	 23.1013 	 86.7067
| 16> C 	 -42.5771 	 21.87 	 85.5479
| 17> H 	 -43.0581 	 20.9192 	 85.6693
| 18> H 	 -42.3822 	 21.8656 	 84.4984
| 19> C 	 -41.4486 	 22.0995 	 86.4371
| 20> H 	 -41.0692 	 21.117 	 86.5783
| 21> H 	 -40.8109 	 22.9031 	 86.0925
| 22> H 	 -41.7037 	 22.3604 	 87.4437
| 23> S 	 -44.1028 	 27.1185 	 81.3759
| 24> C 	 -43.3789 	 27.5217 	 79.8386
| 25> C 	 -42.2733 	 26.7378 	 79.697
| 26> C 	 -41.8154 	 26.1379 	 80.9329
| 27> C 	 -42.6424 	 26.3589 	 82.0334
| 28> H 	 -41.8159 	 26.6277 	 78.7027
| 29> C 	 -40.5665 	 25.2584 	 81.0064
| 30> H 	 -40.0313 	 25.5989 	 81.8905
| 31> H 	 -39.8874 	 25.4304 	 80.165
| 32> C 	 -40.7573 	 23.72 	 81.1707
| 33> H 	 -41.3786 	 23.2731 	 81.9479
| 34> H 	 -39.7884 	 23.4193 	 81.4279
| 35> C 	 -41.1171 	 22.9257 	 79.8946
| 36> H 	 -40.9018 	 21.9053 	 79.903
| 37> H 	 -40.715 	 23.3325 	 78.9191
| 38> H 	 -42.1878 	 22.9151 	 79.836
| 39> H 	 -42.8611 	 25.3179 	 86.8333
| 40> H 	 -43.9055 	 27.9604 	 79.0013
| 41> *
| 42>
| 43>                          ****END OF INPUT****

CARTESIAN COORDINATES (ANGSTROEM)
---------------------------------
  S    -42.484500   26.671100   84.799400
  C    -42.886900   25.318700   85.799300
  C    -43.221300   24.246400   85.041500
  C    -43.225400   24.497700   83.620200
  C    -42.693400   25.756500   83.336600
  H    -43.559400   23.776400   82.841000
  C    -43.625000   22.943300   85.656400
  H    -44.523800   22.526400   85.300200
  H    -43.831000   23.101300   86.706700
  C    -42.577100   21.870000   85.547900
  H    -43.058100   20.919200   85.669300
  H    -42.382200   21.865600   84.498400
  C    -41.448600   22.099500   86.437100
  H    -41.069200   21.117000   86.578300
  H    -40.810900   22.903100   86.092500
  H    -41.703700   22.360400   87.443700
  S    -44.102800   27.118500   81.375900
  C    -43.378900   27.521700   79.838600
  C    -42.273300   26.737800   79.697000
  C    -41.815400   26.137900   80.932900
  C    -42.642400   26.358900   82.033400
  H    -41.815900   26.627700   78.702700
  C    -40.566500   25.258400   81.006400
  H    -40.031300   25.598900   81.890500
  H    -39.887400   25.430400   80.165000
  C    -40.757300   23.720000   81.170700
  H    -41.378600   23.273100   81.947900
  H    -39.788400   23.419300   81.427900
  C    -41.117100   22.925700   79.894600
  H    -40.901800   21.905300   79.903000
  H    -40.715000   23.332500   78.919100
  H    -42.187800   22.915100   79.836000
  H    -42.861100   25.317900   86.833300
  H    -43.905500   27.960400   79.001300

 Total Charge           Charge          ....    0
 Multiplicity           Mult            ....    1
 Number of Electrons    NEL             ....  134
 Basis Dimension        Dim             ....  322

ORBITAL ENERGIES
----------------

  NO   OCC          E(Eh)            E(eV)
   0   2.0000     -88.966528     -2420.9023
   1   2.0000     -88.957254     -2420.6499
   2   2.0000     -10.330376      -281.1038
   3   2.0000     -10.324454      -280.9427
   4   2.0000     -10.315192      -280.6906
   5   2.0000     -10.308183      -280.4999
   6   2.0000     -10.305529      -280.4277
   7   2.0000     -10.303472      -280.3717
   8   2.0000     -10.297845      -280.2186
   9   2.0000     -10.294145      -280.1179
  10   2.0000     -10.293966      -280.1131
  11   2.0000     -10.281795      -279.7819
  12   2.0000     -10.277466      -279.6641
  13   2.0000     -10.272484      -279.5285
  14   2.0000     -10.271476      -279.5011
  15   2.0000     -10.266188      -279.3572
  16   2.0000      -8.081885      -219.9193
  17   2.0000      -8.072106      -219.6532
  18   2.0000      -6.040341      -164.3660
  19   2.0000      -6.036254      -164.2548
  20   2.0000      -6.032699      -164.1581
  21   2.0000      -6.030675      -164.1030
  22   2.0000      -6.026735      -163.9958
  23   2.0000      -6.022612      -163.8836
  24   2.0000      -1.009806       -27.4782
  25   2.0000      -0.986758       -26.8511
  26   2.0000      -0.928228       -25.2584
  27   2.0000      -0.901997       -24.5446
  28   2.0000      -0.877487       -23.8776
  29   2.0000      -0.851447       -23.1690
  30   2.0000      -0.842612       -22.9286
  31   2.0000      -0.817807       -22.2537
  32   2.0000      -0.788533       -21.4571
  33   2.0000      -0.776656       -21.1339
  34   2.0000      -0.717166       -19.5151
  35   2.0000      -0.700468       -19.0607
  36   2.0000      -0.691729       -18.8229
  37   2.0000      -0.656354       -17.8603
  38   2.0000      -0.648841       -17.6559
  39   2.0000      -0.620541       -16.8858
  40   2.0000      -0.592413       -16.1204
  41   2.0000      -0.582167       -15.8416
  42   2.0000      -0.562556       -15.3079
  43   2.0000      -0.550050       -14.9676
  44   2.0000      -0.545546       -14.8451
  45   2.0000      -0.539422       -14.6784
  46   2.0000      -0.518413       -14.1067
  47   2.0000      -0.517044       -14.0695
  48   2.0000      -0.510979       -13.9045
  49   2.0000      -0.497386       -13.5346
  50   2.0000      -0.490249       -13.3404
  51   2.0000      -0.488450       -13.2914
  52   2.0000      -0.471568       -12.8320
  53   2.0000      -0.468967       -12.7612
  54   2.0000      -0.463836       -12.6216
  55   2.0000      -0.450497       -12.2586
  56   2.0000      -0.443129       -12.0582
  57   2.0000      -0.434707       -11.8290
  58   2.0000      -0.429909       -11.6984
  59   2.0000      -0.420161       -11.4332
  60   2.0000      -0.418857       -11.3977
  61   2.0000      -0.410916       -11.1816
  62   2.0000      -0.403583       -10.9821
  63   2.0000      -0.334950        -9.1144
  64   2.0000      -0.323818        -8.8115
  65   2.0000      -0.318627        -8.6703
  66   2.0000      -0.315042        -8.5727
  67   0.0000       0.036327         0.9885
  68   0.0000       0.051393         1.3985
  69   0.0000       0.113060         3.0765
  70   0.0000       0.120770         3.2863
  71   0.0000       0.129059         3.5119

MULLIKEN ATOMIC CHARGES
-----------------------
   0 S :    0.123470
   1 C :   -0.085799
   2 C :   -0.097880
   3 C :    0.037737
   4 C :   -0.187323
   5 H :    0.041162
   6 C :    0.082948
   7 H :    0.006745
   8 H :   -0.001275
   9 C :   -0.049598
  10 H :    0.009444
  11 H :    0.005474
  12 C :    0.012494
  13 H :    0.022004
  14 H :    0.048090
  15 H :    0.003541
  16 S :    0.087325
  17 C :   -0.080192
  18 C :   -0.046737
  19 C :   -0.039428
  20 C :   -0.138332
  21 H :    0.027899
  22 C :    0.075586
  23 H :    0.034465
  24 H :    0.022436
  25 C :   -0.045538
  26 H :    0.024949
  27 H :    0.009137
  28 C :   -0.049385
  29 H :    0.017173
  30 H :    0.028185
  31 H :    0.018840
  32 H :    0.018299
  33 H :    0.064084
Sum of atomic charges:   -0.0000000

LOEWDIN ATOMIC CHARGES
----------------------
   0 S :    0.427822
   1 C :   -0.186731
   2 C :   -0.065004
   3 C :   -0.050645
   4 C :   -0.208540
   5 H :    0.040188
   6 C :   -0.028080
   7 H :    0.023184
   8 H :    0.022259
   9 C :   -0.040564
  10 H :    0.020500
  11 H :    0.019927
  12 C :   -0.061097
  13 H :    0.029679
  14 H :    0.032607
  15 H :    0.020980
  16 S :    0.393662
  17 C :   -0.183080
  18 C :   -0.079575
  19 C :   -0.053364
  20 C :   -0.202708
  21 H :    0.034620
  22 C :   -0.026757
  23 H :    0.037383
  24 H :    0.031852
  25 C :   -0.036376
  26 H :    0.025562
  27 H :    0.017240
  28 C :   -0.068577
  29 H :    0.017086
  30 H :    0.026932
  31 H :    0.020584
  32 H :    0.015732
  33 H :    0.033298

  Mayer bond orders larger than 0.100000
B(  0-S ,  1-C ) :   1.1407 B(  0-S ,  4-C ) :   1.1653 B(  1-C ,  2-C ) :   1.6130
B(  1-C , 32-H ) :   0.9784 B(  2-C ,  3-C ) :   1.2353 B(  2-C ,  6-C ) :   1.0338
B(  3-C ,  4-C ) :   1.5644 B(  3-C ,  5-H ) :   0.9833 B(  4-C , 20-C ) :   1.0283
B(  6-C ,  7-H ) :   0.9343 B(  6-C ,  8-H ) :   0.9402 B(  6-C ,  9-C ) :   1.0826
B(  9-C , 10-H ) :   0.9517 B(  9-C , 11-H ) :   0.9471 B(  9-C , 12-C ) :   1.0804
B( 12-C , 13-H ) :   0.9678 B( 12-C , 14-H ) :   0.9706 B( 12-C , 15-H ) :   0.9685
B( 16-S , 17-C ) :   1.1583 B( 16-S , 20-C ) :   1.1343 B( 17-C , 18-C ) :   1.6047
B( 17-C , 20-C ) :   0.1009 B( 17-C , 33-H ) :   0.9650 B( 18-C , 19-C ) :   1.2483
B( 18-C , 21-H ) :   0.9878 B( 19-C , 20-C ) :   1.5888 B( 19-C , 22-C ) :   1.0433
B( 22-C , 23-H ) :   0.9321 B( 22-C , 24-H ) :   0.9395 B( 22-C , 25-C ) :   1.0683
B( 25-C , 26-H ) :   0.9559 B( 25-C , 27-H ) :   0.9528 B( 25-C , 28-C ) :   1.0709
B( 28-C , 29-H ) :   0.9739 B( 28-C , 30-H ) :   0.9751 B( 28-C , 31-H ) :   0.9779

Dispersion correction           -0.015483288
FINAL SINGLE POINT ENERGY     -1339.852868892575

DIPOLE MOMENT
-------------
                                X             Y             Z
Electronic contribution:    -10.34279      26.10331      -1.08826
Nuclear contribution   :     10.44580     -26.88219       1.00976
                        -----------------------------------------
Total Dipole Moment    :      0.10301      -0.77888      -0.07851
                        -----------------------------------------
Magnitude (a.u.)       :      0.78958
Magnitude (Debye)      :      2.00695

Rotational constants in cm-1:     0.019903     0.009488     0.007379
Rotational constants in MHz :   596.688391   284.434258   221.203380

                             ****ORCA TERMINATED NORMALLY****
TOTAL RUN TIME: 0 days 0 hours 0 minutes 32 seconds 371 msec
