                         Program Version 4.2.1 -  RELEASE  -
|  1> ! wB97X-D3 SP def2-SVP
|  2> %pal
|  3> nprocs 16
|  4> end
|  5>
|  6> * xyz 0 1
|  7> S 	 -37.8188 	 36.1049 	 81.4534
|  8> C 	 -37.493 	 37.8679 	 81.2897
|  9> C 	 -38.5833 	 38.5683 	 81.7508
| 10> C 	 -39.6944 	 37.7411 	 81.9321
| 11> C 	 -39.4871 	 36.3975 	 81.6595
| 12> H 	 -40.671 	 38.0744 	 82.2986
| 13> C 	 -38.6099 	 40.0313 	 82.2038
| 14> H 	 -37.7034 	 40.2167 	 82.7678
| 15> H 	 -39.359 	 40.055 	 82.9923
| 16> C 	 -38.8701 	 41.0191 	 81.1275
| 17> H 	 -38.6436 	 42.0546 	 81.5193
| 18> H 	 -38.1628 	 40.8489 	 80.3136
| 19> C 	 -40.3109 	 40.9715 	 80.716
| 20> H 	 -40.8937 	 41.1907 	 81.6579
| 21> H 	 -40.577 	 41.7372 	 79.9493
| 22> H 	 -40.553 	 39.9984 	 80.2629
| 23> S 	 -40.3093 	 34.4981 	 83.3876
| 24> C 	 -41.9139 	 33.6525 	 83.1275
| 25> C 	 -42.5967 	 34.2936 	 82.1095
| 26> C 	 -41.8107 	 35.2321 	 81.4056
| 27> C 	 -40.5137 	 35.4118 	 81.9024
| 28> H 	 -43.6173 	 33.9429 	 81.8385
| 29> C 	 -42.4702 	 35.8933 	 80.2188
| 30> H 	 -41.9437 	 36.819 	 79.9918
| 31> H 	 -43.4722 	 36.1873 	 80.5734
| 32> C 	 -42.6607 	 35.01 	 78.976
| 33> H 	 -43.0786 	 35.686 	 78.131
| 34> H 	 -43.5216 	 34.4276 	 79.1569
| 35> C 	 -41.4391 	 34.2752 	 78.42
| 36> H 	 -40.7735 	 35.0203 	 78.0652
| 37> H 	 -41.7706 	 33.6176 	 77.5574
| 38> H 	 -41.0656 	 33.592 	 79.1682
| 39> H 	 -36.4609 	 38.2789 	 81.2561
| 40> H 	 -42.3244 	 32.9197 	 83.7784
| 41> *
| 42>
| 43>                          ****END OF INPUT****

CARTESIAN COORDINATES (ANGSTROEM)
---------------------------------
  S    -37.818800   36.104900   81.453400
  C    -37.493000   37.867900   81.289700
  C    -38.583300   38.568300   81.750800
  C    -39.694400   37.741100   81.932100
  C    -39.487100   36.397500   81.659500
  H    -40.671000   38.074400   82.298600
  C    -38.609900   40.031300   82.203800
  H    -37.703400   40.216700   82.767800
  H    -39.359000   40.055000   82.992300
  C    -38.870100   41.019100   81.127500
  H    -38.643600   42.054600   81.519300
  H    -38.162800   40.848900   80.313600
  C    -40.310900   40.971500   80.716000
  H    -40.893700   41.190700   81.657900
  H    -40.577000   41.737200   79.949300
  H    -40.553000   39.998400   80.262900
  S    -40.309300   34.498100   83.387600
  C    -41.913900   33.652500   83.127500
  C    -42.596700   34.293600   82.109500
  C    -41.810700   35.232100   81.405600
  C    -40.513700   35.411800   81.902400
  H    -43.617300   33.942900   81.838500
  C    -42.470200   35.893300   80.218800
  H    -41.943700   36.819000   79.991800
  H    -43.472200   36.187300   80.573400
  C    -42.660700   35.010000   78.976000
  H    -43.078600   35.686000   78.131000
  H    -43.521600   34.427600   79.156900
  C    -41.439100   34.275200   78.420000
  H    -40.773500   35.020300   78.065200
  H    -41.770600   33.617600   77.557400
  H    -41.065600   33.592000   79.168200
  H    -36.460900   38.278900   81.256100
  H    -42.324400   32.919700   83.778400

 Total Charge           Charge          ....    0
 Multiplicity           Mult            ....    1
 Number of Electrons    NEL             ....  134
 Basis Dimension        Dim             ....  322

ORBITAL ENERGIES
----------------

  NO   OCC          E(Eh)            E(eV)
   0   2.0000     -88.968679     -2420.9608
   1   2.0000     -88.963157     -2420.8106
   2   2.0000     -10.328355      -281.0488
   3   2.0000     -10.325861      -280.9810
   4   2.0000     -10.322134      -280.8795
   5   2.0000     -10.319157      -280.7985
   6   2.0000     -10.302492      -280.3451
   7   2.0000     -10.299011      -280.2503
   8   2.0000     -10.297360      -280.2054
   9   2.0000     -10.290293      -280.0131
  10   2.0000     -10.289466      -279.9906
  11   2.0000     -10.288574      -279.9663
  12   2.0000     -10.286204      -279.9018
  13   2.0000     -10.285214      -279.8749
  14   2.0000     -10.282757      -279.8081
  15   2.0000     -10.273684      -279.5612
  16   2.0000      -8.083315      -219.9582
  17   2.0000      -8.076870      -219.7828
  18   2.0000      -6.041781      -164.4052
  19   2.0000      -6.037996      -164.3022
  20   2.0000      -6.035472      -164.2335
  21   2.0000      -6.033942      -164.1919
  22   2.0000      -6.031619      -164.1287
  23   2.0000      -6.027486      -164.0162
  24   2.0000      -1.009504       -27.4700
  25   2.0000      -0.981589       -26.7104
  26   2.0000      -0.923151       -25.1202
  27   2.0000      -0.904243       -24.6057
  28   2.0000      -0.872875       -23.7521
  29   2.0000      -0.847724       -23.0677
  30   2.0000      -0.842214       -22.9178
  31   2.0000      -0.811114       -22.0715
  32   2.0000      -0.783393       -21.3172
  33   2.0000      -0.772939       -21.0327
  34   2.0000      -0.707761       -19.2592
  35   2.0000      -0.698388       -19.0041
  36   2.0000      -0.689386       -18.7592
  37   2.0000      -0.660767       -17.9804
  38   2.0000      -0.639087       -17.3904
  39   2.0000      -0.614002       -16.7079
  40   2.0000      -0.591223       -16.0880
  41   2.0000      -0.577149       -15.7050
  42   2.0000      -0.555950       -15.1282
  43   2.0000      -0.549666       -14.9572
  44   2.0000      -0.545199       -14.8356
  45   2.0000      -0.538916       -14.6647
  46   2.0000      -0.518536       -14.1101
  47   2.0000      -0.507778       -13.8174
  48   2.0000      -0.501193       -13.6382
  49   2.0000      -0.499900       -13.6030
  50   2.0000      -0.488960       -13.3053
  51   2.0000      -0.474898       -12.9226
  52   2.0000      -0.468470       -12.7477
  53   2.0000      -0.462899       -12.5961
  54   2.0000      -0.459165       -12.4945
  55   2.0000      -0.442043       -12.0286
  56   2.0000      -0.440081       -11.9752
  57   2.0000      -0.437236       -11.8978
  58   2.0000      -0.430544       -11.7157
  59   2.0000      -0.425959       -11.5909
  60   2.0000      -0.420404       -11.4398
  61   2.0000      -0.414105       -11.2684
  62   2.0000      -0.405028       -11.0214
  63   2.0000      -0.342241        -9.3128
  64   2.0000      -0.334477        -9.1016
  65   2.0000      -0.323546        -8.8041
  66   2.0000      -0.297756        -8.1024
  67   0.0000       0.026670         0.7257
  68   0.0000       0.057973         1.5775
  69   0.0000       0.098385         2.6772
  70   0.0000       0.108605         2.9553
  71   0.0000       0.134962         3.6725

MULLIKEN ATOMIC CHARGES
-----------------------
   0 S :    0.109713
   1 C :   -0.133156
   2 C :   -0.100613
   3 C :    0.026179
   4 C :   -0.159234
   5 H :    0.018222
   6 C :    0.070816
   7 H :    0.023446
   8 H :    0.013836
   9 C :   -0.040516
  10 H :    0.031653
  11 H :    0.028752
  12 C :   -0.078477
  13 H :    0.035121
  14 H :    0.041047
  15 H :    0.046790
  16 S :    0.080654
  17 C :   -0.084458
  18 C :   -0.046875
  19 C :   -0.059154
  20 C :   -0.139654
  21 H :    0.038668
  22 C :    0.083710
  23 H :    0.018307
  24 H :    0.024636
  25 C :   -0.099234
  26 H :    0.029160
  27 H :    0.008699
  28 C :   -0.023677
  29 H :    0.038090
  30 H :    0.037538
  31 H :    0.046951
  32 H :    0.063379
  33 H :    0.049681
Sum of atomic charges:    0.0000000

LOEWDIN ATOMIC CHARGES
----------------------
   0 S :    0.413484
   1 C :   -0.190555
   2 C :   -0.064371
   3 C :   -0.062318
   4 C :   -0.218973
   5 H :    0.032507
   6 C :   -0.027644
   7 H :    0.030012
   8 H :    0.028331
   9 C :   -0.046619
  10 H :    0.028758
  11 H :    0.024213
  12 C :   -0.070121
  13 H :    0.031424
  14 H :    0.028820
  15 H :    0.027075
  16 S :    0.370365
  17 C :   -0.153556
  18 C :   -0.070858
  19 C :   -0.063044
  20 C :   -0.193338
  21 H :    0.040217
  22 C :   -0.033238
  23 H :    0.024462
  24 H :    0.035421
  25 C :   -0.047054
  26 H :    0.032031
  27 H :    0.010935
  28 C :   -0.060662
  29 H :    0.024669
  30 H :    0.035287
  31 H :    0.026667
  32 H :    0.034826
  33 H :    0.022846

  Mayer bond orders larger than 0.100000
B(  0-S ,  1-C ) :   1.1371 B(  0-S ,  4-C ) :   1.1691 B(  1-C ,  2-C ) :   1.5980
B(  1-C ,  4-C ) :   0.1034 B(  1-C , 32-H ) :   0.9636 B(  2-C ,  3-C ) :   1.2783
B(  2-C ,  6-C ) :   0.9924 B(  3-C ,  4-C ) :   1.5307 B(  3-C ,  5-H ) :   0.9936
B(  4-C , 20-C ) :   1.0307 B(  6-C ,  7-H ) :   0.9377 B(  6-C ,  8-H ) :   0.9461
B(  6-C ,  9-C ) :   1.0758 B(  9-C , 10-H ) :   0.9512 B(  9-C , 11-H ) :   0.9518
B(  9-C , 12-C ) :   1.0791 B( 12-C , 13-H ) :   0.9720 B( 12-C , 14-H ) :   0.9720
B( 12-C , 15-H ) :   0.9731 B( 16-S , 17-C ) :   1.1326 B( 16-S , 20-C ) :   1.1428
B( 17-C , 18-C ) :   1.6206 B( 17-C , 20-C ) :   0.1064 B( 17-C , 33-H ) :   0.9730
B( 18-C , 19-C ) :   1.2316 B( 18-C , 21-H ) :   0.9827 B( 19-C , 20-C ) :   1.6000
B( 19-C , 22-C ) :   1.0451 B( 22-C , 23-H ) :   0.9339 B( 22-C , 24-H ) :   0.9333
B( 22-C , 25-C ) :   1.0721 B( 25-C , 26-H ) :   0.9527 B( 25-C , 27-H ) :   0.9552
B( 25-C , 28-C ) :   1.0729 B( 28-C , 29-H ) :   0.9762 B( 28-C , 30-H ) :   0.9716
B( 28-C , 31-H ) :   0.9729

Dispersion correction           -0.014828116
FINAL SINGLE POINT ENERGY     -1339.870341776118

DIPOLE MOMENT
-------------
                                X             Y             Z
Electronic contribution:     11.16665     -15.81241      14.35996
Nuclear contribution   :    -11.57924      16.28129     -14.34574
                        -----------------------------------------
Total Dipole Moment    :     -0.41259       0.46888       0.01422
                        -----------------------------------------
Magnitude (a.u.)       :      0.62473
Magnitude (Debye)      :      1.58793

Rotational constants in cm-1:     0.018929     0.008795     0.007603
Rotational constants in MHz :   567.462321   263.658645   227.936093

                             ****ORCA TERMINATED NORMALLY****
TOTAL RUN TIME: 0 days 0 hours 0 minutes 31 seconds 909 msec
