                         Program Version 4.2.1 -  RELEASE  -
|  1> ! wB97X-D3 SP def2-SVP
|  2> %pal
|  3> nprocs 16
|  4> end
|  5>
|  6> * xyz 0 1
|  7> S 	 -93.6319 	 40.0613 	 113.66
|  8> C 	 -92.9967 	 38.9647 	 114.808
|  9> C 	 -92.1924 	 39.6696 	 115.729
| 10> C 	 -92.1913 	 41.088 	 115.536
| 11> C 	 -93.0882 	 41.4665 	 114.501
| 12> H 	 -91.6491 	 41.7999 	 116.108
| 13> C 	 -91.1155 	 39.0034 	 116.745
| 14> H 	 -91.2195 	 39.4466 	 117.731
| 15> H 	 -90.0554 	 39.3162 	 116.429
| 16> C 	 -91.2725 	 37.4581 	 116.813
| 17> H 	 -92.2083 	 37.2139 	 117.285
| 18> H 	 -91.3146 	 37.0328 	 115.866
| 19> C 	 -90.1045 	 36.7716 	 117.429
| 20> H 	 -90.3678 	 35.7332 	 117.634
| 21> H 	 -89.3401 	 36.6804 	 116.692
| 22> H 	 -89.6142 	 37.2248 	 118.247
| 23> S 	 -92.9081 	 43.2789 	 112.455
| 24> C 	 -93.3339 	 44.8873 	 112.778
| 25> C 	 -93.9451 	 45.0837 	 114.018
| 26> C 	 -93.9164 	 43.8579 	 114.752
| 27> C 	 -93.3943 	 42.7876 	 114.036
| 28> H 	 -94.3362 	 46.0287 	 114.286
| 29> C 	 -94.2271 	 43.9152 	 116.249
| 30> H 	 -94.1686 	 42.9001 	 116.693
| 31> H 	 -95.3277 	 44.2114 	 116.392
| 32> C 	 -93.3252 	 44.8037 	 117.051
| 33> H 	 -93.2829 	 45.7514 	 116.448
| 34> H 	 -92.3147 	 44.4064 	 116.91
| 35> C 	 -93.7162 	 44.9815 	 118.404
| 36> H 	 -94.0389 	 44.1277 	 118.96
| 37> H 	 -94.6093 	 45.6614 	 118.381
| 38> H 	 -92.8532 	 45.4784 	 118.885
| 39> H 	 -92.7853 	 37.9417 	 114.541
| 40> H 	 -93.3874 	 45.6672 	 112.011
| 41> *
| 42>
| 43>                          ****END OF INPUT****

CARTESIAN COORDINATES (ANGSTROEM)
---------------------------------
  S    -93.631900   40.061300  113.660000
  C    -92.996700   38.964700  114.808000
  C    -92.192400   39.669600  115.729000
  C    -92.191300   41.088000  115.536000
  C    -93.088200   41.466500  114.501000
  H    -91.649100   41.799900  116.108000
  C    -91.115500   39.003400  116.745000
  H    -91.219500   39.446600  117.731000
  H    -90.055400   39.316200  116.429000
  C    -91.272500   37.458100  116.813000
  H    -92.208300   37.213900  117.285000
  H    -91.314600   37.032800  115.866000
  C    -90.104500   36.771600  117.429000
  H    -90.367800   35.733200  117.634000
  H    -89.340100   36.680400  116.692000
  H    -89.614200   37.224800  118.247000
  S    -92.908100   43.278900  112.455000
  C    -93.333900   44.887300  112.778000
  C    -93.945100   45.083700  114.018000
  C    -93.916400   43.857900  114.752000
  C    -93.394300   42.787600  114.036000
  H    -94.336200   46.028700  114.286000
  C    -94.227100   43.915200  116.249000
  H    -94.168600   42.900100  116.693000
  H    -95.327700   44.211400  116.392000
  C    -93.325200   44.803700  117.051000
  H    -93.282900   45.751400  116.448000
  H    -92.314700   44.406400  116.910000
  C    -93.716200   44.981500  118.404000
  H    -94.038900   44.127700  118.960000
  H    -94.609300   45.661400  118.381000
  H    -92.853200   45.478400  118.885000
  H    -92.785300   37.941700  114.541000
  H    -93.387400   45.667200  112.011000

 Total Charge           Charge          ....    0
 Multiplicity           Mult            ....    1
 Number of Electrons    NEL             ....  134
 Basis Dimension        Dim             ....  322

ORBITAL ENERGIES
----------------

  NO   OCC          E(Eh)            E(eV)
   0   2.0000     -88.968155     -2420.9466
   1   2.0000     -88.965508     -2420.8746
   2   2.0000     -10.328761      -281.0599
   3   2.0000     -10.321506      -280.8625
   4   2.0000     -10.316288      -280.7205
   5   2.0000     -10.310683      -280.5680
   6   2.0000     -10.309651      -280.5399
   7   2.0000     -10.305631      -280.4305
   8   2.0000     -10.303482      -280.3720
   9   2.0000     -10.295798      -280.1629
  10   2.0000     -10.292842      -280.0825
  11   2.0000     -10.290693      -280.0240
  12   2.0000     -10.278521      -279.6928
  13   2.0000     -10.278461      -279.6912
  14   2.0000     -10.275351      -279.6065
  15   2.0000     -10.268461      -279.4190
  16   2.0000      -8.084321      -219.9856
  17   2.0000      -8.081195      -219.9005
  18   2.0000      -6.042652      -164.4289
  19   2.0000      -6.039546      -164.3444
  20   2.0000      -6.038561      -164.3176
  21   2.0000      -6.035448      -164.2329
  22   2.0000      -6.035261      -164.2278
  23   2.0000      -6.032194      -164.1443
  24   2.0000      -1.013115       -27.5683
  25   2.0000      -0.988103       -26.8877
  26   2.0000      -0.924433       -25.1551
  27   2.0000      -0.909202       -24.7406
  28   2.0000      -0.872334       -23.7374
  29   2.0000      -0.861223       -23.4351
  30   2.0000      -0.849144       -23.1064
  31   2.0000      -0.810572       -22.0568
  32   2.0000      -0.783060       -21.3081
  33   2.0000      -0.769434       -20.9374
  34   2.0000      -0.709897       -19.3173
  35   2.0000      -0.696190       -18.9443
  36   2.0000      -0.689455       -18.7610
  37   2.0000      -0.663892       -18.0654
  38   2.0000      -0.642688       -17.4884
  39   2.0000      -0.614475       -16.7207
  40   2.0000      -0.598261       -16.2795
  41   2.0000      -0.573724       -15.6118
  42   2.0000      -0.568346       -15.4655
  43   2.0000      -0.562077       -15.2949
  44   2.0000      -0.533240       -14.5102
  45   2.0000      -0.528429       -14.3793
  46   2.0000      -0.523079       -14.2337
  47   2.0000      -0.515145       -14.0178
  48   2.0000      -0.507700       -13.8152
  49   2.0000      -0.497652       -13.5418
  50   2.0000      -0.494622       -13.4594
  51   2.0000      -0.487534       -13.2665
  52   2.0000      -0.478035       -13.0080
  53   2.0000      -0.466047       -12.6818
  54   2.0000      -0.456806       -12.4303
  55   2.0000      -0.453039       -12.3278
  56   2.0000      -0.445598       -12.1253
  57   2.0000      -0.433261       -11.7896
  58   2.0000      -0.430210       -11.7066
  59   2.0000      -0.425666       -11.5830
  60   2.0000      -0.421348       -11.4655
  61   2.0000      -0.413156       -11.2425
  62   2.0000      -0.401605       -10.9282
  63   2.0000      -0.340597        -9.2681
  64   2.0000      -0.331347        -9.0164
  65   2.0000      -0.328693        -8.9442
  66   2.0000      -0.296697        -8.0735
  67   0.0000       0.031589         0.8596
  68   0.0000       0.066901         1.8205
  69   0.0000       0.113046         3.0761
  70   0.0000       0.122267         3.3271
  71   0.0000       0.129374         3.5204

MULLIKEN ATOMIC CHARGES
-----------------------
   0 S :    0.119781
   1 C :   -0.111008
   2 C :   -0.114528
   3 C :    0.060082
   4 C :   -0.179396
   5 H :    0.001876
   6 C :    0.010302
   7 H :    0.034788
   8 H :    0.046329
   9 C :   -0.051611
  10 H :    0.032208
  11 H :    0.009754
  12 C :   -0.012139
  13 H :    0.026315
  14 H :    0.013189
  15 H :    0.020719
  16 S :    0.135120
  17 C :   -0.096671
  18 C :   -0.039446
  19 C :   -0.005445
  20 C :   -0.158544
  21 H :    0.012882
  22 C :    0.008854
  23 H :    0.026951
  24 H :    0.031910
  25 C :   -0.081168
  26 H :    0.022166
  27 H :    0.016956
  28 C :   -0.000214
  29 H :    0.028741
  30 H :    0.028754
  31 H :    0.041973
  32 H :    0.060187
  33 H :    0.060334
Sum of atomic charges:    0.0000000

LOEWDIN ATOMIC CHARGES
----------------------
   0 S :    0.442725
   1 C :   -0.232565
   2 C :   -0.056963
   3 C :   -0.058234
   4 C :   -0.201231
   5 H :    0.025110
   6 C :   -0.027132
   7 H :    0.027242
   8 H :    0.037405
   9 C :   -0.040782
  10 H :    0.024384
  11 H :    0.016024
  12 C :   -0.058196
  13 H :    0.030076
  14 H :    0.022363
  15 H :    0.017104
  16 S :    0.444721
  17 C :   -0.200655
  18 C :   -0.066830
  19 C :   -0.046906
  20 C :   -0.224157
  21 H :    0.026620
  22 C :   -0.040272
  23 H :    0.027133
  24 H :    0.033831
  25 C :   -0.056022
  26 H :    0.027408
  27 H :    0.020878
  28 C :   -0.063710
  29 H :    0.023320
  30 H :    0.033888
  31 H :    0.036525
  32 H :    0.026936
  33 H :    0.029961

  Mayer bond orders larger than 0.100000
B(  0-S ,  1-C ) :   1.1556 B(  0-S ,  4-C ) :   1.1939 B(  1-C ,  2-C ) :   1.5807
B(  1-C ,  4-C ) :   0.1081 B(  1-C , 32-H ) :   0.9597 B(  2-C ,  3-C ) :   1.2962
B(  2-C ,  6-C ) :   0.9907 B(  3-C ,  4-C ) :   1.5019 B(  3-C ,  5-H ) :   1.0029
B(  4-C , 20-C ) :   1.0396 B(  6-C ,  7-H ) :   0.9444 B(  6-C ,  8-H ) :   0.9545
B(  6-C ,  9-C ) :   1.0731 B(  9-C , 10-H ) :   0.9568 B(  9-C , 11-H ) :   0.9505
B(  9-C , 12-C ) :   1.0877 B( 12-C , 13-H ) :   0.9680 B( 12-C , 14-H ) :   0.9741
B( 12-C , 15-H ) :   0.9767 B( 16-S , 17-C ) :   1.1881 B( 16-S , 20-C ) :   1.1495
B( 17-C , 18-C ) :   1.5872 B( 17-C , 33-H ) :   0.9604 B( 18-C , 19-C ) :   1.2429
B( 18-C , 21-H ) :   0.9969 B( 19-C , 20-C ) :   1.5874 B( 19-C , 22-C ) :   1.0490
B( 22-C , 23-H ) :   0.9303 B( 22-C , 24-H ) :   0.9339 B( 22-C , 25-C ) :   1.0649
B( 25-C , 26-H ) :   0.9456 B( 25-C , 27-H ) :   0.9442 B( 25-C , 28-C ) :   1.0930
B( 28-C , 29-H ) :   0.9706 B( 28-C , 30-H ) :   0.9655 B( 28-C , 31-H ) :   0.9664

Dispersion correction           -0.013700697
FINAL SINGLE POINT ENERGY     -1339.863025551429

DIPOLE MOMENT
-------------
                                X             Y             Z
Electronic contribution:     -7.95654       4.27426     -26.61158
Nuclear contribution   :      8.29680      -4.08963      27.01708
                        -----------------------------------------
Total Dipole Moment    :      0.34027       0.18462       0.40550
                        -----------------------------------------
Magnitude (a.u.)       :      0.56063
Magnitude (Debye)      :      1.42500

Rotational constants in cm-1:     0.019684     0.007722     0.006007
Rotational constants in MHz :   590.103517   231.507308   180.071654

                             ****ORCA TERMINATED NORMALLY****
TOTAL RUN TIME: 0 days 0 hours 0 minutes 33 seconds 77 msec
