                         Program Version 4.2.1 -  RELEASE  -
|  1> ! wB97X-D3 SP def2-SVP
|  2> %pal
|  3> nprocs 16
|  4> end
|  5>
|  6> * xyz 0 1
|  7> S 	 -68.5058 	 51.2192 	 126.697
|  8> C 	 -68.2133 	 52.8656 	 126.064
|  9> C 	 -69.2987 	 53.4465 	 125.459
| 10> C 	 -70.3378 	 52.4817 	 125.458
| 11> C 	 -70.1525 	 51.2987 	 126.107
| 12> H 	 -71.3022 	 52.5668 	 124.97
| 13> C 	 -69.3566 	 54.7981 	 124.808
| 14> H 	 -68.3715 	 55.1351 	 125.01
| 15> H 	 -69.9637 	 55.555 	 125.295
| 16> C 	 -69.3947 	 54.8312 	 123.284
| 17> H 	 -68.674 	 54.1886 	 122.814
| 18> H 	 -70.2788 	 54.3502 	 122.791
| 19> C 	 -69.2852 	 56.2457 	 122.629
| 20> H 	 -69.8307 	 56.9752 	 123.232
| 21> H 	 -68.2474 	 56.5849 	 122.601
| 22> H 	 -69.6363 	 56.1997 	 121.593
| 23> S 	 -70.5436 	 48.8362 	 125.052
| 24> C 	 -72.1193 	 48.1054 	 125.13
| 25> C 	 -72.8875 	 48.7229 	 126.033
| 26> C 	 -72.365 	 49.9694 	 126.498
| 27> C 	 -71.0281 	 50.1317 	 126.164
| 28> H 	 -73.7463 	 48.2168 	 126.296
| 29> C 	 -73.1661 	 50.8161 	 127.439
| 30> H 	 -72.5528 	 51.6255 	 127.862
| 31> H 	 -73.4115 	 50.112 	 128.237
| 32> C 	 -74.4277 	 51.5021 	 126.898
| 33> H 	 -75.0794 	 50.7782 	 126.428
| 34> H 	 -74.0585 	 52.201 	 126.134
| 35> C 	 -75.2218 	 52.3674 	 127.848
| 36> H 	 -75.9889 	 51.7188 	 128.271
| 37> H 	 -75.6755 	 53.1268 	 127.249
| 38> H 	 -74.8373 	 52.8561 	 128.738
| 39> H 	 -67.2896 	 53.3916 	 126.041
| 40> H 	 -72.4666 	 47.1799 	 124.738
| 41> *
| 42>
| 43>                          ****END OF INPUT****

CARTESIAN COORDINATES (ANGSTROEM)
---------------------------------
  S    -68.505800   51.219200  126.697000
  C    -68.213300   52.865600  126.064000
  C    -69.298700   53.446500  125.459000
  C    -70.337800   52.481700  125.458000
  C    -70.152500   51.298700  126.107000
  H    -71.302200   52.566800  124.970000
  C    -69.356600   54.798100  124.808000
  H    -68.371500   55.135100  125.010000
  H    -69.963700   55.555000  125.295000
  C    -69.394700   54.831200  123.284000
  H    -68.674000   54.188600  122.814000
  H    -70.278800   54.350200  122.791000
  C    -69.285200   56.245700  122.629000
  H    -69.830700   56.975200  123.232000
  H    -68.247400   56.584900  122.601000
  H    -69.636300   56.199700  121.593000
  S    -70.543600   48.836200  125.052000
  C    -72.119300   48.105400  125.130000
  C    -72.887500   48.722900  126.033000
  C    -72.365000   49.969400  126.498000
  C    -71.028100   50.131700  126.164000
  H    -73.746300   48.216800  126.296000
  C    -73.166100   50.816100  127.439000
  H    -72.552800   51.625500  127.862000
  H    -73.411500   50.112000  128.237000
  C    -74.427700   51.502100  126.898000
  H    -75.079400   50.778200  126.428000
  H    -74.058500   52.201000  126.134000
  C    -75.221800   52.367400  127.848000
  H    -75.988900   51.718800  128.271000
  H    -75.675500   53.126800  127.249000
  H    -74.837300   52.856100  128.738000
  H    -67.289600   53.391600  126.041000
  H    -72.466600   47.179900  124.738000

 Total Charge           Charge          ....    0
 Multiplicity           Mult            ....    1
 Number of Electrons    NEL             ....  134
 Basis Dimension        Dim             ....  322

ORBITAL ENERGIES
----------------

  NO   OCC          E(Eh)            E(eV)
   0   2.0000     -88.965375     -2420.8709
   1   2.0000     -88.960278     -2420.7322
   2   2.0000     -10.326017      -280.9852
   3   2.0000     -10.324367      -280.9403
   4   2.0000     -10.313709      -280.6503
   5   2.0000     -10.310192      -280.5546
   6   2.0000     -10.305431      -280.4250
   7   2.0000     -10.300149      -280.2813
   8   2.0000     -10.293497      -280.1003
   9   2.0000     -10.288891      -279.9750
  10   2.0000     -10.288813      -279.9728
  11   2.0000     -10.287043      -279.9247
  12   2.0000     -10.285606      -279.8856
  13   2.0000     -10.282027      -279.7882
  14   2.0000     -10.281958      -279.7863
  15   2.0000     -10.273598      -279.5588
  16   2.0000      -8.079541      -219.8555
  17   2.0000      -8.075221      -219.7379
  18   2.0000      -6.038100      -164.3051
  19   2.0000      -6.034242      -164.2001
  20   2.0000      -6.033831      -164.1889
  21   2.0000      -6.030169      -164.0892
  22   2.0000      -6.029743      -164.0776
  23   2.0000      -6.025770      -163.9695
  24   2.0000      -1.007940       -27.4275
  25   2.0000      -0.986447       -26.8426
  26   2.0000      -0.914712       -24.8906
  27   2.0000      -0.910977       -24.7889
  28   2.0000      -0.873340       -23.7648
  29   2.0000      -0.854448       -23.2507
  30   2.0000      -0.845239       -23.0001
  31   2.0000      -0.819855       -22.3094
  32   2.0000      -0.787501       -21.4290
  33   2.0000      -0.775414       -21.1001
  34   2.0000      -0.712556       -19.3896
  35   2.0000      -0.701092       -19.0777
  36   2.0000      -0.694200       -18.8902
  37   2.0000      -0.660289       -17.9674
  38   2.0000      -0.648040       -17.6341
  39   2.0000      -0.617569       -16.8049
  40   2.0000      -0.596033       -16.2189
  41   2.0000      -0.579466       -15.7681
  42   2.0000      -0.569689       -15.5020
  43   2.0000      -0.554212       -15.0809
  44   2.0000      -0.535062       -14.5598
  45   2.0000      -0.529038       -14.3958
  46   2.0000      -0.515794       -14.0355
  47   2.0000      -0.511825       -13.9275
  48   2.0000      -0.508147       -13.8274
  49   2.0000      -0.497783       -13.5454
  50   2.0000      -0.493986       -13.4420
  51   2.0000      -0.481890       -13.1129
  52   2.0000      -0.473611       -12.8876
  53   2.0000      -0.461497       -12.5580
  54   2.0000      -0.458352       -12.4724
  55   2.0000      -0.448631       -12.2079
  56   2.0000      -0.444410       -12.0930
  57   2.0000      -0.440822       -11.9954
  58   2.0000      -0.430454       -11.7133
  59   2.0000      -0.427540       -11.6340
  60   2.0000      -0.424178       -11.5425
  61   2.0000      -0.409161       -11.1338
  62   2.0000      -0.403666       -10.9843
  63   2.0000      -0.343168        -9.3381
  64   2.0000      -0.333551        -9.0764
  65   2.0000      -0.323138        -8.7930
  66   2.0000      -0.302433        -8.2296
  67   0.0000       0.039171         1.0659
  68   0.0000       0.064042         1.7427
  69   0.0000       0.112707         3.0669
  70   0.0000       0.123771         3.3680
  71   0.0000       0.132321         3.6006

MULLIKEN ATOMIC CHARGES
-----------------------
   0 S :    0.103578
   1 C :   -0.099743
   2 C :   -0.095221
   3 C :    0.035063
   4 C :   -0.171177
   5 H :    0.003212
   6 C :    0.139613
   7 H :   -0.010102
   8 H :    0.040001
   9 C :   -0.095492
  10 H :    0.019806
  11 H :    0.025359
  12 C :   -0.055694
  13 H :    0.030887
  14 H :    0.033057
  15 H :    0.041669
  16 S :    0.093103
  17 C :   -0.056486
  18 C :   -0.019253
  19 C :   -0.030107
  20 C :   -0.127885
  21 H :   -0.011867
  22 C :    0.057136
  23 H :    0.026679
  24 H :    0.032001
  25 C :   -0.084373
  26 H :    0.027235
  27 H :    0.027034
  28 C :   -0.031589
  29 H :    0.024167
  30 H :    0.029630
  31 H :    0.031734
  32 H :    0.029042
  33 H :    0.038979
Sum of atomic charges:    0.0000000

LOEWDIN ATOMIC CHARGES
----------------------
   0 S :    0.386209
   1 C :   -0.172322
   2 C :   -0.062626
   3 C :   -0.058453
   4 C :   -0.202814
   5 H :    0.028607
   6 C :   -0.030067
   7 H :    0.029708
   8 H :    0.035009
   9 C :   -0.046773
  10 H :    0.023738
  11 H :    0.024263
  12 C :   -0.063623
  13 H :    0.023570
  14 H :    0.023159
  15 H :    0.030858
  16 S :    0.396461
  17 C :   -0.172299
  18 C :   -0.068758
  19 C :   -0.045599
  20 C :   -0.197408
  21 H :    0.019739
  22 C :   -0.034294
  23 H :    0.032801
  24 H :    0.033397
  25 C :   -0.040238
  26 H :    0.022331
  27 H :    0.025205
  28 C :   -0.068692
  29 H :    0.027042
  30 H :    0.027046
  31 H :    0.027187
  32 H :    0.020252
  33 H :    0.027385

  Mayer bond orders larger than 0.100000
B(  0-S ,  1-C ) :   1.1371 B(  0-S ,  4-C ) :   1.1211 B(  1-C ,  2-C ) :   1.6450
B(  1-C , 32-H ) :   0.9579 B(  2-C ,  3-C ) :   1.2083 B(  2-C ,  6-C ) :   1.0234
B(  3-C ,  4-C ) :   1.6337 B(  3-C ,  5-H ) :   0.9944 B(  4-C , 20-C ) :   0.9937
B(  6-C ,  7-H ) :   0.9236 B(  6-C ,  8-H ) :   0.9347 B(  6-C ,  9-C ) :   1.0519
B(  9-C , 10-H ) :   0.9523 B(  9-C , 11-H ) :   0.9607 B(  9-C , 12-C ) :   1.0759
B( 12-C , 13-H ) :   0.9770 B( 12-C , 14-H ) :   0.9789 B( 12-C , 15-H ) :   0.9754
B( 16-S , 17-C ) :   1.1495 B( 16-S , 20-C ) :   1.1207 B( 17-C , 18-C ) :   1.6601
B( 17-C , 33-H ) :   0.9612 B( 18-C , 19-C ) :   1.1903 B( 18-C , 21-H ) :   0.9997
B( 19-C , 20-C ) :   1.6304 B( 19-C , 22-C ) :   1.0486 B( 22-C , 23-H ) :   0.9372
B( 22-C , 24-H ) :   0.9373 B( 22-C , 25-C ) :   1.0626 B( 25-C , 26-H ) :   0.9564
B( 25-C , 27-H ) :   0.9605 B( 25-C , 28-C ) :   1.0745 B( 28-C , 29-H ) :   0.9752
B( 28-C , 30-H ) :   0.9776 B( 28-C , 31-H ) :   0.9766

Dispersion correction           -0.013428465
FINAL SINGLE POINT ENERGY     -1339.859771971701

DIPOLE MOMENT
-------------
                                X             Y             Z
Electronic contribution:     14.94330     -23.15382       4.36147
Nuclear contribution   :    -15.48927      23.54056      -4.52026
                        -----------------------------------------
Total Dipole Moment    :     -0.54596       0.38674      -0.15879
                        -----------------------------------------
Magnitude (a.u.)       :      0.68765
Magnitude (Debye)      :      1.74786

Rotational constants in cm-1:     0.016232     0.008132     0.006599
Rotational constants in MHz :   486.608789   243.794439   197.847960

                             ****ORCA TERMINATED NORMALLY****
TOTAL RUN TIME: 0 days 0 hours 0 minutes 32 seconds 366 msec
