                         Program Version 4.2.1 -  RELEASE  -
|  1> ! wB97X-D3 SP def2-SVP
|  2> %pal
|  3> nprocs 16
|  4> end
|  5>
|  6> * xyz 0 1
|  7> S 	 -67.7185 	 52.97 	 120.096
|  8> C 	 -68.1215 	 53.4501 	 121.719
|  9> C 	 -69.3816 	 53.8442 	 121.879
| 10> C 	 -70.0986 	 53.7559 	 120.631
| 11> C 	 -69.4344 	 52.9833 	 119.631
| 12> H 	 -71.1242 	 53.8716 	 120.501
| 13> C 	 -69.9636 	 54.5213 	 123.077
| 14> H 	 -69.3463 	 54.2974 	 123.941
| 15> H 	 -70.9074 	 54.115 	 123.142
| 16> C 	 -70.1161 	 56.0694 	 123.016
| 17> H 	 -69.2603 	 56.6944 	 122.833
| 18> H 	 -70.713 	 56.1327 	 122.201
| 19> C 	 -70.6374 	 56.6807 	 124.257
| 20> H 	 -69.9619 	 56.7204 	 125.121
| 21> H 	 -70.9321 	 57.6981 	 124.029
| 22> H 	 -71.5547 	 56.2747 	 124.685
| 23> S 	 -70.1692 	 53.8406 	 117.111
| 24> C 	 -70.6336 	 52.6906 	 115.893
| 25> C 	 -70.5009 	 51.4146 	 116.378
| 26> C 	 -70.1062 	 51.3312 	 117.727
| 27> C 	 -69.8042 	 52.5701 	 118.28
| 28> H 	 -70.646 	 50.6319 	 115.653
| 29> C 	 -69.7819 	 49.9219 	 118.236
| 30> H 	 -70.7869 	 49.3344 	 118.347
| 31> H 	 -69.4094 	 49.935 	 119.223
| 32> C 	 -68.8526 	 48.9898 	 117.307
| 33> H 	 -67.8823 	 49.4829 	 117.152
| 34> H 	 -69.2684 	 48.7543 	 116.312
| 35> C 	 -68.4118 	 47.7421 	 118.041
| 36> H 	 -67.9546 	 47.055 	 117.304
| 37> H 	 -69.2299 	 47.2701 	 118.537
| 38> H 	 -67.681 	 48.0517 	 118.78
| 39> H 	 -67.3308 	 53.4785 	 122.465
| 40> H 	 -70.8086 	 52.7753 	 114.834
| 41> *
| 42>
| 43>                          ****END OF INPUT****

CARTESIAN COORDINATES (ANGSTROEM)
---------------------------------
  S    -67.718500   52.970000  120.096000
  C    -68.121500   53.450100  121.719000
  C    -69.381600   53.844200  121.879000
  C    -70.098600   53.755900  120.631000
  C    -69.434400   52.983300  119.631000
  H    -71.124200   53.871600  120.501000
  C    -69.963600   54.521300  123.077000
  H    -69.346300   54.297400  123.941000
  H    -70.907400   54.115000  123.142000
  C    -70.116100   56.069400  123.016000
  H    -69.260300   56.694400  122.833000
  H    -70.713000   56.132700  122.201000
  C    -70.637400   56.680700  124.257000
  H    -69.961900   56.720400  125.121000
  H    -70.932100   57.698100  124.029000
  H    -71.554700   56.274700  124.685000
  S    -70.169200   53.840600  117.111000
  C    -70.633600   52.690600  115.893000
  C    -70.500900   51.414600  116.378000
  C    -70.106200   51.331200  117.727000
  C    -69.804200   52.570100  118.280000
  H    -70.646000   50.631900  115.653000
  C    -69.781900   49.921900  118.236000
  H    -70.786900   49.334400  118.347000
  H    -69.409400   49.935000  119.223000
  C    -68.852600   48.989800  117.307000
  H    -67.882300   49.482900  117.152000
  H    -69.268400   48.754300  116.312000
  C    -68.411800   47.742100  118.041000
  H    -67.954600   47.055000  117.304000
  H    -69.229900   47.270100  118.537000
  H    -67.681000   48.051700  118.780000
  H    -67.330800   53.478500  122.465000
  H    -70.808600   52.775300  114.834000

 Total Charge           Charge          ....    0
 Multiplicity           Mult            ....    1
 Number of Electrons    NEL             ....  134
 Basis Dimension        Dim             ....  322

ORBITAL ENERGIES
----------------

  NO   OCC          E(Eh)            E(eV)
   0   2.0000     -88.966089     -2420.8904
   1   2.0000     -88.959638     -2420.7148
   2   2.0000     -10.335159      -281.2340
   3   2.0000     -10.329893      -281.0907
   4   2.0000     -10.313489      -280.6443
   5   2.0000     -10.307865      -280.4913
   6   2.0000     -10.305168      -280.4179
   7   2.0000     -10.300077      -280.2793
   8   2.0000     -10.296071      -280.1703
   9   2.0000     -10.295249      -280.1480
  10   2.0000     -10.290785      -280.0265
  11   2.0000     -10.286055      -279.8978
  12   2.0000     -10.284953      -279.8678
  13   2.0000     -10.275670      -279.6152
  14   2.0000     -10.274541      -279.5845
  15   2.0000     -10.274152      -279.5739
  16   2.0000      -8.080599      -219.8843
  17   2.0000      -8.074647      -219.7223
  18   2.0000      -6.039216      -164.3354
  19   2.0000      -6.035008      -164.2209
  20   2.0000      -6.033096      -164.1689
  21   2.0000      -6.031350      -164.1214
  22   2.0000      -6.029228      -164.0636
  23   2.0000      -6.025345      -163.9580
  24   2.0000      -1.005315       -27.3560
  25   2.0000      -0.986822       -26.8528
  26   2.0000      -0.918396       -24.9908
  27   2.0000      -0.901122       -24.5208
  28   2.0000      -0.874887       -23.8069
  29   2.0000      -0.853099       -23.2140
  30   2.0000      -0.849631       -23.1196
  31   2.0000      -0.815279       -22.1849
  32   2.0000      -0.784838       -21.3565
  33   2.0000      -0.769115       -20.9287
  34   2.0000      -0.712790       -19.3960
  35   2.0000      -0.701784       -19.0965
  36   2.0000      -0.694165       -18.8892
  37   2.0000      -0.656594       -17.8668
  38   2.0000      -0.645894       -17.5757
  39   2.0000      -0.617917       -16.8144
  40   2.0000      -0.594561       -16.1788
  41   2.0000      -0.578250       -15.7350
  42   2.0000      -0.566796       -15.4233
  43   2.0000      -0.561682       -15.2841
  44   2.0000      -0.530110       -14.4250
  45   2.0000      -0.524989       -14.2857
  46   2.0000      -0.518305       -14.1038
  47   2.0000      -0.514537       -14.0013
  48   2.0000      -0.510247       -13.8845
  49   2.0000      -0.505325       -13.7506
  50   2.0000      -0.486423       -13.2362
  51   2.0000      -0.476560       -12.9679
  52   2.0000      -0.469837       -12.7849
  53   2.0000      -0.464891       -12.6503
  54   2.0000      -0.462073       -12.5736
  55   2.0000      -0.448818       -12.2130
  56   2.0000      -0.440512       -11.9869
  57   2.0000      -0.433012       -11.7828
  58   2.0000      -0.430323       -11.7097
  59   2.0000      -0.427478       -11.6323
  60   2.0000      -0.422150       -11.4873
  61   2.0000      -0.414834       -11.2882
  62   2.0000      -0.411293       -11.1919
  63   2.0000      -0.333194        -9.0667
  64   2.0000      -0.329369        -8.9626
  65   2.0000      -0.324643        -8.8340
  66   2.0000      -0.306269        -8.3340
  67   0.0000       0.035180         0.9573
  68   0.0000       0.055074         1.4986
  69   0.0000       0.111143         3.0244
  70   0.0000       0.122847         3.3428
  71   0.0000       0.129086         3.5126

MULLIKEN ATOMIC CHARGES
-----------------------
   0 S :    0.089928
   1 C :   -0.120414
   2 C :   -0.081255
   3 C :    0.049072
   4 C :   -0.177517
   5 H :    0.002523
   6 C :    0.111101
   7 H :    0.012985
   8 H :    0.006713
   9 C :   -0.014753
  10 H :    0.026849
  11 H :   -0.003401
  12 C :   -0.046170
  13 H :    0.033708
  14 H :    0.026250
  15 H :    0.013635
  16 S :    0.120979
  17 C :   -0.075147
  18 C :   -0.063620
  19 C :    0.035976
  20 C :   -0.182396
  21 H :    0.015888
  22 C :    0.036476
  23 H :    0.042863
  24 H :    0.011612
  25 C :   -0.097562
  26 H :    0.036263
  27 H :    0.036344
  28 C :   -0.040602
  29 H :    0.039552
  30 H :    0.023422
  31 H :    0.036442
  32 H :    0.044278
  33 H :    0.049978
Sum of atomic charges:    0.0000000

LOEWDIN ATOMIC CHARGES
----------------------
   0 S :    0.390467
   1 C :   -0.186045
   2 C :   -0.070377
   3 C :   -0.051061
   4 C :   -0.183726
   5 H :    0.017900
   6 C :   -0.015667
   7 H :    0.027476
   8 H :    0.022361
   9 C :   -0.030210
  10 H :    0.030160
  11 H :    0.010597
  12 C :   -0.066720
  13 H :    0.026830
  14 H :    0.029400
  15 H :    0.020126
  16 S :    0.412766
  17 C :   -0.189627
  18 C :   -0.072172
  19 C :   -0.053692
  20 C :   -0.210162
  21 H :    0.029823
  22 C :   -0.030829
  23 H :    0.042449
  24 H :    0.019090
  25 C :   -0.041909
  26 H :    0.028066
  27 H :    0.020865
  28 C :   -0.061868
  29 H :    0.032170
  30 H :    0.016747
  31 H :    0.027176
  32 H :    0.025922
  33 H :    0.033675

  Mayer bond orders larger than 0.100000
B(  0-S ,  1-C ) :   1.1413 B(  0-S ,  4-C ) :   1.1483 B(  1-C ,  2-C ) :   1.6389
B(  1-C , 32-H ) :   0.9643 B(  2-C ,  3-C ) :   1.2223 B(  2-C ,  6-C ) :   1.0370
B(  3-C ,  4-C ) :   1.5931 B(  3-C ,  5-H ) :   0.9919 B(  4-C , 20-C ) :   1.0209
B(  6-C ,  7-H ) :   0.9427 B(  6-C ,  8-H ) :   0.9246 B(  6-C ,  9-C ) :   1.0603
B(  9-C , 10-H ) :   0.9550 B(  9-C , 11-H ) :   0.9505 B(  9-C , 12-C ) :   1.0938
B( 12-C , 13-H ) :   0.9744 B( 12-C , 14-H ) :   0.9691 B( 12-C , 15-H ) :   0.9705
B( 16-S , 17-C ) :   1.1533 B( 16-S , 20-C ) :   1.1411 B( 17-C , 18-C ) :   1.6325
B( 17-C , 33-H ) :   0.9619 B( 18-C , 19-C ) :   1.2362 B( 18-C , 21-H ) :   0.9892
B( 19-C , 20-C ) :   1.5872 B( 19-C , 22-C ) :   1.0498 B( 22-C , 23-H ) :   0.9295
B( 22-C , 24-H ) :   0.9451 B( 22-C , 25-C ) :   1.0500 B( 25-C , 26-H ) :   0.9605
B( 25-C , 27-H ) :   0.9552 B( 25-C , 28-C ) :   1.0817 B( 28-C , 29-H ) :   0.9721
B( 28-C , 30-H ) :   0.9754 B( 28-C , 31-H ) :   0.9783

Dispersion correction           -0.013277375
FINAL SINGLE POINT ENERGY     -1339.847239208761

DIPOLE MOMENT
-------------
                                X             Y             Z
Electronic contribution:      3.29322       6.66937     -13.53691
Nuclear contribution   :     -3.43849      -6.84481      13.67367
                        -----------------------------------------
Total Dipole Moment    :     -0.14527      -0.17544       0.13676
                        -----------------------------------------
Magnitude (a.u.)       :      0.26568
Magnitude (Debye)      :      0.67531

Rotational constants in cm-1:     0.022675     0.006838     0.005798
Rotational constants in MHz :   679.783861   204.993795   173.805393

                             ****ORCA TERMINATED NORMALLY****
TOTAL RUN TIME: 0 days 0 hours 0 minutes 31 seconds 669 msec
