                         Program Version 4.2.1 -  RELEASE  -
|  1> ! wB97X-D3 SP def2-SVP
|  2> %pal
|  3> nprocs 16
|  4> end
|  5>
|  6> * xyz 0 1
|  7> S 	 -1.06981 	 -7.37441 	 86.6445
|  8> C 	 0.309898 	 -7.89333 	 87.5188
|  9> C 	 0.212355 	 -7.79894 	 88.8556
| 10> C 	 -1.08876 	 -7.44713 	 89.248
| 11> C 	 -1.97154 	 -7.16391 	 88.1973
| 12> H 	 -1.62906 	 -7.45514 	 90.193
| 13> C 	 1.35205 	 -7.90196 	 89.794
| 14> H 	 1.31791 	 -7.02234 	 90.4536
| 15> H 	 2.30826 	 -7.85696 	 89.2077
| 16> C 	 1.2569 	 -9.09056 	 90.7145
| 17> H 	 2.21015 	 -9.11248 	 91.2574
| 18> H 	 0.41814 	 -9.03829 	 91.4679
| 19> C 	 1.08697 	 -10.4612 	 90.0513
| 20> H 	 1.87229 	 -10.7458 	 89.3007
| 21> H 	 1.19287 	 -11.1989 	 90.7682
| 22> H 	 0.127562 	 -10.6702 	 89.6504
| 23> S 	 -4.34095 	 -7.4848 	 86.7404
| 24> C 	 -5.88181 	 -7.02277 	 87.4738
| 25> C 	 -5.65737 	 -6.50401 	 88.7472
| 26> C 	 -4.26941 	 -6.48189 	 89.1527
| 27> C 	 -3.44133 	 -7.0957 	 88.2292
| 28> H 	 -6.49541 	 -6.15701 	 89.377
| 29> C 	 -3.97371 	 -5.89482 	 90.4866
| 30> H 	 -4.47384 	 -4.87557 	 90.7077
| 31> H 	 -2.90268 	 -5.49874 	 90.3658
| 32> C 	 -3.99794 	 -6.98075 	 91.6265
| 33> H 	 -3.70508 	 -6.56486 	 92.5962
| 34> H 	 -3.29319 	 -7.74613 	 91.3018
| 35> C 	 -5.46312 	 -7.58136 	 91.7159
| 36> H 	 -5.717 	 -8.27908 	 90.9312
| 37> H 	 -6.19784 	 -6.75191 	 91.6386
| 38> H 	 -5.6275 	 -8.0669 	 92.6908
| 39> H 	 1.24685 	 -8.16242 	 87.1504
| 40> H 	 -6.83612 	 -7.1343 	 87.1576
| 41> *
| 42>
| 43>                          ****END OF INPUT****

CARTESIAN COORDINATES (ANGSTROEM)
---------------------------------
  S     -1.069810   -7.374410   86.644500
  C      0.309898   -7.893330   87.518800
  C      0.212355   -7.798940   88.855600
  C     -1.088760   -7.447130   89.248000
  C     -1.971540   -7.163910   88.197300
  H     -1.629060   -7.455140   90.193000
  C      1.352050   -7.901960   89.794000
  H      1.317910   -7.022340   90.453600
  H      2.308260   -7.856960   89.207700
  C      1.256900   -9.090560   90.714500
  H      2.210150   -9.112480   91.257400
  H      0.418140   -9.038290   91.467900
  C      1.086970  -10.461200   90.051300
  H      1.872290  -10.745800   89.300700
  H      1.192870  -11.198900   90.768200
  H      0.127562  -10.670200   89.650400
  S     -4.340950   -7.484800   86.740400
  C     -5.881810   -7.022770   87.473800
  C     -5.657370   -6.504010   88.747200
  C     -4.269410   -6.481890   89.152700
  C     -3.441330   -7.095700   88.229200
  H     -6.495410   -6.157010   89.377000
  C     -3.973710   -5.894820   90.486600
  H     -4.473840   -4.875570   90.707700
  H     -2.902680   -5.498740   90.365800
  C     -3.997940   -6.980750   91.626500
  H     -3.705080   -6.564860   92.596200
  H     -3.293190   -7.746130   91.301800
  C     -5.463120   -7.581360   91.715900
  H     -5.717000   -8.279080   90.931200
  H     -6.197840   -6.751910   91.638600
  H     -5.627500   -8.066900   92.690800
  H      1.246850   -8.162420   87.150400
  H     -6.836120   -7.134300   87.157600

 Total Charge           Charge          ....    0
 Multiplicity           Mult            ....    1
 Number of Electrons    NEL             ....  134
 Basis Dimension        Dim             ....  322

ORBITAL ENERGIES
----------------

  NO   OCC          E(Eh)            E(eV)
   0   2.0000     -88.968756     -2420.9629
   1   2.0000     -88.966302     -2420.8961
   2   2.0000     -10.334776      -281.2235
   3   2.0000     -10.334574      -281.2180
   4   2.0000     -10.314067      -280.6600
   5   2.0000     -10.304343      -280.3954
   6   2.0000     -10.303446      -280.3710
   7   2.0000     -10.303107      -280.3618
   8   2.0000     -10.300301      -280.2854
   9   2.0000     -10.295889      -280.1654
  10   2.0000     -10.294552      -280.1290
  11   2.0000     -10.293487      -280.1000
  12   2.0000     -10.291736      -280.0524
  13   2.0000     -10.291070      -280.0342
  14   2.0000     -10.282729      -279.8073
  15   2.0000     -10.267990      -279.4062
  16   2.0000      -8.082343      -219.9317
  17   2.0000      -8.080766      -219.8888
  18   2.0000      -6.041174      -164.3887
  19   2.0000      -6.039329      -164.3385
  20   2.0000      -6.037045      -164.2763
  21   2.0000      -6.035448      -164.2329
  22   2.0000      -6.032794      -164.1607
  23   2.0000      -6.031349      -164.1214
  24   2.0000      -1.005952       -27.3733
  25   2.0000      -0.984738       -26.7961
  26   2.0000      -0.916712       -24.9450
  27   2.0000      -0.905903       -24.6509
  28   2.0000      -0.870663       -23.6919
  29   2.0000      -0.850288       -23.1375
  30   2.0000      -0.839305       -22.8387
  31   2.0000      -0.818644       -22.2764
  32   2.0000      -0.786459       -21.4006
  33   2.0000      -0.774731       -21.0815
  34   2.0000      -0.716288       -19.4912
  35   2.0000      -0.698617       -19.0103
  36   2.0000      -0.694174       -18.8894
  37   2.0000      -0.663814       -18.0633
  38   2.0000      -0.644912       -17.5490
  39   2.0000      -0.616715       -16.7817
  40   2.0000      -0.593207       -16.1420
  41   2.0000      -0.569812       -15.5054
  42   2.0000      -0.555871       -15.1260
  43   2.0000      -0.550890       -14.9905
  44   2.0000      -0.543500       -14.7894
  45   2.0000      -0.537766       -14.6334
  46   2.0000      -0.521127       -14.1806
  47   2.0000      -0.510943       -13.9035
  48   2.0000      -0.503141       -13.6912
  49   2.0000      -0.490782       -13.3549
  50   2.0000      -0.487443       -13.2640
  51   2.0000      -0.484397       -13.1811
  52   2.0000      -0.470433       -12.8011
  53   2.0000      -0.466799       -12.7022
  54   2.0000      -0.461582       -12.5603
  55   2.0000      -0.447109       -12.1665
  56   2.0000      -0.440601       -11.9894
  57   2.0000      -0.435032       -11.8378
  58   2.0000      -0.432939       -11.7809
  59   2.0000      -0.425950       -11.5907
  60   2.0000      -0.419722       -11.4212
  61   2.0000      -0.417488       -11.3604
  62   2.0000      -0.409082       -11.1317
  63   2.0000      -0.361278        -9.8309
  64   2.0000      -0.331745        -9.0272
  65   2.0000      -0.328989        -8.9522
  66   2.0000      -0.284154        -7.7322
  67   0.0000       0.019501         0.5306
  68   0.0000       0.079183         2.1547
  69   0.0000       0.098210         2.6724
  70   0.0000       0.118647         3.2286
  71   0.0000       0.131877         3.5885

MULLIKEN ATOMIC CHARGES
-----------------------
   0 S :    0.098753
   1 C :   -0.076791
   2 C :   -0.072012
   3 C :    0.010394
   4 C :   -0.142402
   5 H :   -0.011420
   6 C :    0.090783
   7 H :    0.037320
   8 H :    0.026559
   9 C :   -0.103141
  10 H :    0.031613
  11 H :    0.041567
  12 C :   -0.023223
  13 H :    0.025802
  14 H :    0.005923
  15 H :    0.031024
  16 S :    0.094917
  17 C :   -0.033583
  18 C :   -0.045389
  19 C :   -0.059910
  20 C :   -0.112057
  21 H :    0.028129
  22 C :   -0.040917
  23 H :    0.056477
  24 H :    0.033801
  25 C :   -0.045952
  26 H :    0.041117
  27 H :    0.047225
  28 C :   -0.075436
  29 H :    0.053710
  30 H :    0.027761
  31 H :    0.037932
  32 H :    0.008753
  33 H :    0.012671
Sum of atomic charges:    0.0000000

LOEWDIN ATOMIC CHARGES
----------------------
   0 S :    0.388191
   1 C :   -0.188400
   2 C :   -0.072066
   3 C :   -0.062000
   4 C :   -0.168247
   5 H :    0.029154
   6 C :   -0.032475
   7 H :    0.039026
   8 H :    0.035045
   9 C :   -0.044247
  10 H :    0.027283
  11 H :    0.031285
  12 C :   -0.067259
  13 H :    0.028501
  14 H :    0.017150
  15 H :    0.022197
  16 S :    0.385670
  17 C :   -0.167458
  18 C :   -0.063775
  19 C :   -0.064839
  20 C :   -0.184027
  21 H :    0.033688
  22 C :   -0.054567
  23 H :    0.043046
  24 H :    0.034125
  25 C :   -0.029265
  26 H :    0.025989
  27 H :    0.022878
  28 C :   -0.069162
  29 H :    0.026904
  30 H :    0.023677
  31 H :    0.026661
  32 H :    0.016589
  33 H :    0.010727

  Mayer bond orders larger than 0.100000
B(  0-S ,  1-C ) :   1.1351 B(  0-S ,  4-C ) :   1.1205 B(  1-C ,  2-C ) :   1.6380
B(  1-C , 32-H ) :   0.9585 B(  2-C ,  3-C ) :   1.2135 B(  2-C ,  6-C ) :   1.0257
B(  3-C ,  4-C ) :   1.5910 B(  3-C ,  5-H ) :   0.9859 B(  4-C , 20-C ) :   1.0694
B(  6-C ,  7-H ) :   0.9364 B(  6-C ,  8-H ) :   0.9395 B(  6-C ,  9-C ) :   1.0732
B(  9-C , 10-H ) :   0.9552 B(  9-C , 11-H ) :   0.9543 B(  9-C , 12-C ) :   1.0833
B( 12-C , 13-H ) :   0.9735 B( 12-C , 14-H ) :   0.9683 B( 12-C , 15-H ) :   0.9702
B( 16-S , 17-C ) :   1.1341 B( 16-S , 20-C ) :   1.1150 B( 17-C , 18-C ) :   1.6258
B( 17-C , 33-H ) :   0.9776 B( 18-C , 19-C ) :   1.2358 B( 18-C , 21-H ) :   0.9804
B( 19-C , 20-C ) :   1.5939 B( 19-C , 22-C ) :   1.0424 B( 22-C , 23-H ) :   0.9452
B( 22-C , 24-H ) :   0.9261 B( 22-C , 25-C ) :   1.0599 B( 25-C , 26-H ) :   0.9608
B( 25-C , 27-H ) :   0.9468 B( 25-C , 28-C ) :   1.0708 B( 28-C , 29-H ) :   0.9712
B( 28-C , 30-H ) :   0.9755 B( 28-C , 31-H ) :   0.9739

Dispersion correction           -0.015073992
FINAL SINGLE POINT ENERGY     -1339.862473265121

DIPOLE MOMENT
-------------
                                X             Y             Z
Electronic contribution:     -5.71201       6.40550     -25.68046
Nuclear contribution   :      5.76739      -6.43687      26.46472
                        -----------------------------------------
Total Dipole Moment    :      0.05538      -0.03137       0.78425
                        -----------------------------------------
Magnitude (a.u.)       :      0.78683
Magnitude (Debye)      :      1.99996

Rotational constants in cm-1:     0.019492     0.009337     0.007028
Rotational constants in MHz :   584.358810   279.903812   210.708100

                             ****ORCA TERMINATED NORMALLY****
TOTAL RUN TIME: 0 days 0 hours 0 minutes 35 seconds 700 msec
