                         Program Version 4.2.1 -  RELEASE  -
|  1> ! wB97X-D3 SP def2-SVP
|  2> %pal
|  3> nprocs 16
|  4> end
|  5>
|  6> * xyz 0 1
|  7> S 	 7.35296 	 25.5476 	 66.9002
|  8> C 	 7.04989 	 25.0509 	 65.2125
|  9> C 	 7.56392 	 25.9698 	 64.3076
| 10> C 	 8.37133 	 26.9477 	 64.9671
| 11> C 	 8.24825 	 26.9256 	 66.3171
| 12> H 	 8.97819 	 27.7249 	 64.5316
| 13> C 	 7.50938 	 25.8826 	 62.802
| 14> H 	 7.79062 	 26.8891 	 62.5564
| 15> H 	 6.52702 	 25.6042 	 62.4169
| 16> C 	 8.59803 	 25.0157 	 62.1473
| 17> H 	 8.70572 	 25.1831 	 61.0345
| 18> H 	 9.55166 	 25.3807 	 62.5134
| 19> C 	 8.39333 	 23.485 	 62.3656
| 20> H 	 7.37282 	 23.1466 	 62.1008
| 21> H 	 9.1477 	 22.908 	 61.7876
| 22> H 	 8.53505 	 23.2517 	 63.4862
| 23> S 	 9.56681 	 27.4026 	 68.6765
| 24> C 	 10.1824 	 29.0134 	 69.0234
| 25> C 	 9.76385 	 29.9114 	 68.064
| 26> C 	 8.90295 	 29.2925 	 67.0525
| 27> C 	 8.72306 	 27.9098 	 67.2458
| 28> H 	 10.075 	 30.9351 	 68.2258
| 29> C 	 8.27373 	 30.0753 	 65.883
| 30> H 	 8.67588 	 29.6983 	 64.9279
| 31> H 	 8.58579 	 31.0924 	 65.9425
| 32> C 	 6.76074 	 29.9439 	 66.0108
| 33> H 	 6.47249 	 30.465 	 66.9818
| 34> H 	 6.46028 	 28.8988 	 66.1179
| 35> C 	 6.02524 	 30.5732 	 64.8045
| 36> H 	 4.95274 	 30.5973 	 64.8999
| 37> H 	 6.19385 	 30.1868 	 63.8228
| 38> H 	 6.21278 	 31.6951 	 64.8182
| 39> H 	 6.55024 	 24.1473 	 64.8423
| 40> H 	 10.7518 	 29.2891 	 69.8641
| 41> *
| 42>
| 43>                          ****END OF INPUT****

CARTESIAN COORDINATES (ANGSTROEM)
---------------------------------
  S      7.352960   25.547600   66.900200
  C      7.049890   25.050900   65.212500
  C      7.563920   25.969800   64.307600
  C      8.371330   26.947700   64.967100
  C      8.248250   26.925600   66.317100
  H      8.978190   27.724900   64.531600
  C      7.509380   25.882600   62.802000
  H      7.790620   26.889100   62.556400
  H      6.527020   25.604200   62.416900
  C      8.598030   25.015700   62.147300
  H      8.705720   25.183100   61.034500
  H      9.551660   25.380700   62.513400
  C      8.393330   23.485000   62.365600
  H      7.372820   23.146600   62.100800
  H      9.147700   22.908000   61.787600
  H      8.535050   23.251700   63.486200
  S      9.566810   27.402600   68.676500
  C     10.182400   29.013400   69.023400
  C      9.763850   29.911400   68.064000
  C      8.902950   29.292500   67.052500
  C      8.723060   27.909800   67.245800
  H     10.075000   30.935100   68.225800
  C      8.273730   30.075300   65.883000
  H      8.675880   29.698300   64.927900
  H      8.585790   31.092400   65.942500
  C      6.760740   29.943900   66.010800
  H      6.472490   30.465000   66.981800
  H      6.460280   28.898800   66.117900
  C      6.025240   30.573200   64.804500
  H      4.952740   30.597300   64.899900
  H      6.193850   30.186800   63.822800
  H      6.212780   31.695100   64.818200
  H      6.550240   24.147300   64.842300
  H     10.751800   29.289100   69.864100

 Total Charge           Charge          ....    0
 Multiplicity           Mult            ....    1
 Number of Electrons    NEL             ....  134
 Basis Dimension        Dim             ....  322

ORBITAL ENERGIES
----------------

  NO   OCC          E(Eh)            E(eV)
   0   2.0000     -88.968548     -2420.9573
   1   2.0000     -88.964675     -2420.8519
   2   2.0000     -10.326182      -280.9897
   3   2.0000     -10.324959      -280.9564
   4   2.0000     -10.318204      -280.7726
   5   2.0000     -10.317126      -280.7433
   6   2.0000     -10.310724      -280.5691
   7   2.0000     -10.303162      -280.3633
   8   2.0000     -10.299280      -280.2576
   9   2.0000     -10.293218      -280.0927
  10   2.0000     -10.292788      -280.0810
  11   2.0000     -10.291770      -280.0533
  12   2.0000     -10.291316      -280.0409
  13   2.0000     -10.288969      -279.9771
  14   2.0000     -10.288719      -279.9703
  15   2.0000     -10.276134      -279.6278
  16   2.0000      -8.082800      -219.9442
  17   2.0000      -8.079584      -219.8567
  18   2.0000      -6.041368      -164.3940
  19   2.0000      -6.038118      -164.3056
  20   2.0000      -6.037468      -164.2879
  21   2.0000      -6.033930      -164.1916
  22   2.0000      -6.033432      -164.1780
  23   2.0000      -6.030443      -164.0967
  24   2.0000      -1.009337       -27.4654
  25   2.0000      -0.982112       -26.7246
  26   2.0000      -0.913098       -24.8467
  27   2.0000      -0.907163       -24.6852
  28   2.0000      -0.869526       -23.6610
  29   2.0000      -0.849115       -23.1056
  30   2.0000      -0.839759       -22.8510
  31   2.0000      -0.815215       -22.1831
  32   2.0000      -0.783622       -21.3234
  33   2.0000      -0.772245       -21.0138
  34   2.0000      -0.710867       -19.3437
  35   2.0000      -0.697176       -18.9711
  36   2.0000      -0.691173       -18.8078
  37   2.0000      -0.663882       -18.0651
  38   2.0000      -0.639398       -17.3989
  39   2.0000      -0.623883       -16.9767
  40   2.0000      -0.590045       -16.0559
  41   2.0000      -0.570051       -15.5119
  42   2.0000      -0.562344       -15.3022
  43   2.0000      -0.548044       -14.9130
  44   2.0000      -0.540512       -14.7081
  45   2.0000      -0.518564       -14.1108
  46   2.0000      -0.517727       -14.0881
  47   2.0000      -0.512342       -13.9415
  48   2.0000      -0.503471       -13.7001
  49   2.0000      -0.497141       -13.5279
  50   2.0000      -0.494809       -13.4644
  51   2.0000      -0.486028       -13.2255
  52   2.0000      -0.474261       -12.9053
  53   2.0000      -0.462027       -12.5724
  54   2.0000      -0.459019       -12.4906
  55   2.0000      -0.448340       -12.1999
  56   2.0000      -0.439891       -11.9700
  57   2.0000      -0.435298       -11.8451
  58   2.0000      -0.431773       -11.7492
  59   2.0000      -0.430234       -11.7073
  60   2.0000      -0.418355       -11.3840
  61   2.0000      -0.415374       -11.3029
  62   2.0000      -0.407596       -11.0912
  63   2.0000      -0.351304        -9.5595
  64   2.0000      -0.334980        -9.1153
  65   2.0000      -0.327432        -8.9099
  66   2.0000      -0.290230        -7.8976
  67   0.0000       0.022696         0.6176
  68   0.0000       0.075384         2.0513
  69   0.0000       0.099386         2.7044
  70   0.0000       0.116527         3.1709
  71   0.0000       0.136200         3.7062

MULLIKEN ATOMIC CHARGES
-----------------------
   0 S :    0.109695
   1 C :   -0.111666
   2 C :   -0.109012
   3 C :    0.010106
   4 C :   -0.144194
   5 H :    0.008631
   6 C :    0.097968
   7 H :    0.011281
   8 H :    0.033367
   9 C :   -0.073970
  10 H :    0.037064
  11 H :    0.019812
  12 C :   -0.094649
  13 H :    0.033334
  14 H :    0.046148
  15 H :    0.051242
  16 S :    0.099190
  17 C :   -0.081223
  18 C :   -0.031042
  19 C :   -0.079733
  20 C :   -0.117446
  21 H :    0.021602
  22 C :    0.105301
  23 H :    0.024208
  24 H :    0.004741
  25 C :   -0.098410
  26 H :    0.040516
  27 H :    0.055248
  28 C :   -0.039039
  29 H :    0.023144
  30 H :    0.030797
  31 H :    0.022511
  32 H :    0.051116
  33 H :    0.043361
Sum of atomic charges:   -0.0000000

LOEWDIN ATOMIC CHARGES
----------------------
   0 S :    0.392020
   1 C :   -0.190269
   2 C :   -0.059132
   3 C :   -0.062632
   4 C :   -0.190525
   5 H :    0.030656
   6 C :   -0.028975
   7 H :    0.030599
   8 H :    0.030425
   9 C :   -0.042405
  10 H :    0.028512
  11 H :    0.021627
  12 C :   -0.078598
  13 H :    0.022737
  14 H :    0.029779
  15 H :    0.034062
  16 S :    0.406473
  17 C :   -0.173474
  18 C :   -0.073452
  19 C :   -0.046973
  20 C :   -0.212880
  21 H :    0.033891
  22 C :   -0.027893
  23 H :    0.025724
  24 H :    0.023495
  25 C :   -0.039361
  26 H :    0.035749
  27 H :    0.027033
  28 C :   -0.074158
  29 H :    0.023622
  30 H :    0.019995
  31 H :    0.029901
  32 H :    0.031854
  33 H :    0.022574

  Mayer bond orders larger than 0.100000
B(  0-S ,  1-C ) :   1.1179 B(  0-S ,  4-C ) :   1.1355 B(  1-C ,  2-C ) :   1.6326
B(  1-C , 32-H ) :   0.9637 B(  2-C ,  3-C ) :   1.2107 B(  2-C ,  6-C ) :   1.0255
B(  3-C ,  4-C ) :   1.6146 B(  3-C ,  5-H ) :   0.9877 B(  4-C , 20-C ) :   1.0443
B(  6-C ,  7-H ) :   0.9276 B(  6-C ,  8-H ) :   0.9448 B(  6-C ,  9-C ) :   1.0757
B(  9-C , 10-H ) :   0.9572 B(  9-C , 11-H ) :   0.9525 B(  9-C , 12-C ) :   1.0688
B( 12-C , 13-H ) :   0.9759 B( 12-C , 14-H ) :   0.9743 B( 12-C , 15-H ) :   0.9718
B( 16-S , 17-C ) :   1.1571 B( 16-S , 20-C ) :   1.1360 B( 17-C , 18-C ) :   1.6139
B( 17-C , 33-H ) :   0.9718 B( 18-C , 19-C ) :   1.2376 B( 18-C , 21-H ) :   0.9935
B( 19-C , 20-C ) :   1.5706 B( 19-C , 22-C ) :   1.0378 B( 22-C , 23-H ) :   0.9387
B( 22-C , 24-H ) :   0.9283 B( 22-C , 25-C ) :   1.0518 B( 25-C , 26-H ) :   0.9506
B( 25-C , 27-H ) :   0.9620 B( 25-C , 28-C ) :   1.0805 B( 28-C , 29-H ) :   0.9729
B( 28-C , 30-H ) :   0.9765 B( 28-C , 31-H ) :   0.9710

Dispersion correction           -0.015223986
FINAL SINGLE POINT ENERGY     -1339.883383396877

DIPOLE MOMENT
-------------
                                X             Y             Z
Electronic contribution:      6.14905      -5.07729      24.59263
Nuclear contribution   :     -6.05985       5.49345     -25.13065
                        -----------------------------------------
Total Dipole Moment    :      0.08921       0.41616      -0.53802
                        -----------------------------------------
Magnitude (a.u.)       :      0.68601
Magnitude (Debye)      :      1.74369

Rotational constants in cm-1:     0.019658     0.009000     0.007268
Rotational constants in MHz :   589.339513   269.827641   217.884104

                             ****ORCA TERMINATED NORMALLY****
TOTAL RUN TIME: 0 days 0 hours 0 minutes 36 seconds 725 msec
