                         Program Version 4.2.1 -  RELEASE  -
|  1> ! wB97X-D3 SP def2-SVP
|  2> %pal
|  3> nprocs 16
|  4> end
|  5>
|  6> * xyz 0 1
|  7> S 	 42.2993 	 10.5007 	 50.4215
|  8> C 	 42.1852 	 10.4343 	 52.1764
|  9> C 	 43.2822 	 11.0866 	 52.7621
| 10> C 	 44.1725 	 11.6976 	 51.8146
| 11> C 	 43.7658 	 11.4244 	 50.5298
| 12> H 	 45.1042 	 12.2636 	 51.9542
| 13> C 	 43.3447 	 11.4099 	 54.296
| 14> H 	 43.4481 	 12.5286 	 54.4253
| 15> H 	 44.2488 	 10.8707 	 54.5724
| 16> C 	 42.2559 	 10.7996 	 55.153
| 17> H 	 41.3928 	 11.1992 	 54.663
| 18> H 	 42.2517 	 9.68314 	 55.2132
| 19> C 	 42.3078 	 11.3085 	 56.5638
| 20> H 	 41.3463 	 11.1899 	 57.0353
| 21> H 	 43.0985 	 10.9346 	 57.2205
| 22> H 	 42.4058 	 12.3838 	 56.7288
| 23> S 	 45.2629 	 10.7867 	 48.3178
| 24> C 	 45.9442 	 12.1187 	 47.2982
| 25> C 	 45.526 	 13.3556 	 47.7539
| 26> C 	 44.7243 	 13.331 	 48.9574
| 27> C 	 44.3718 	 11.9905 	 49.346
| 28> H 	 45.8945 	 14.1592 	 47.2424
| 29> C 	 44.3583 	 14.6442 	 49.6729
| 30> H 	 45.281 	 15.233 	 49.8585
| 31> H 	 44.0534 	 14.4909 	 50.6473
| 32> C 	 43.4866 	 15.5938 	 48.8443
| 33> H 	 43.9812 	 15.8725 	 47.8628
| 34> H 	 43.3089 	 16.4393 	 49.5414
| 35> C 	 42.1131 	 14.9513 	 48.4155
| 36> H 	 41.5044 	 15.6735 	 47.8101
| 37> H 	 41.4667 	 14.59 	 49.2933
| 38> H 	 42.2479 	 14.0678 	 47.8448
| 39> H 	 41.2705 	 10.0996 	 52.5942
| 40> H 	 46.4268 	 11.8815 	 46.3478
| 41> *
| 42>
| 43>                          ****END OF INPUT****

CARTESIAN COORDINATES (ANGSTROEM)
---------------------------------
  S     42.299300   10.500700   50.421500
  C     42.185200   10.434300   52.176400
  C     43.282200   11.086600   52.762100
  C     44.172500   11.697600   51.814600
  C     43.765800   11.424400   50.529800
  H     45.104200   12.263600   51.954200
  C     43.344700   11.409900   54.296000
  H     43.448100   12.528600   54.425300
  H     44.248800   10.870700   54.572400
  C     42.255900   10.799600   55.153000
  H     41.392800   11.199200   54.663000
  H     42.251700    9.683140   55.213200
  C     42.307800   11.308500   56.563800
  H     41.346300   11.189900   57.035300
  H     43.098500   10.934600   57.220500
  H     42.405800   12.383800   56.728800
  S     45.262900   10.786700   48.317800
  C     45.944200   12.118700   47.298200
  C     45.526000   13.355600   47.753900
  C     44.724300   13.331000   48.957400
  C     44.371800   11.990500   49.346000
  H     45.894500   14.159200   47.242400
  C     44.358300   14.644200   49.672900
  H     45.281000   15.233000   49.858500
  H     44.053400   14.490900   50.647300
  C     43.486600   15.593800   48.844300
  H     43.981200   15.872500   47.862800
  H     43.308900   16.439300   49.541400
  C     42.113100   14.951300   48.415500
  H     41.504400   15.673500   47.810100
  H     41.466700   14.590000   49.293300
  H     42.247900   14.067800   47.844800
  H     41.270500   10.099600   52.594200
  H     46.426800   11.881500   46.347800

 Total Charge           Charge          ....    0
 Multiplicity           Mult            ....    1
 Number of Electrons    NEL             ....  134
 Basis Dimension        Dim             ....  322

ORBITAL ENERGIES
----------------

  NO   OCC          E(Eh)            E(eV)
   0   2.0000     -88.965029     -2420.8615
   1   2.0000     -88.960802     -2420.7465
   2   2.0000     -10.334233      -281.2088
   3   2.0000     -10.325992      -280.9845
   4   2.0000     -10.323630      -280.9203
   5   2.0000     -10.316524      -280.7269
   6   2.0000     -10.315189      -280.6906
   7   2.0000     -10.309661      -280.5401
   8   2.0000     -10.298123      -280.2262
   9   2.0000     -10.297411      -280.2068
  10   2.0000     -10.296994      -280.1955
  11   2.0000     -10.293044      -280.0880
  12   2.0000     -10.291447      -280.0445
  13   2.0000     -10.288086      -279.9531
  14   2.0000     -10.278122      -279.6819
  15   2.0000     -10.275636      -279.6143
  16   2.0000      -8.080109      -219.8709
  17   2.0000      -8.074008      -219.7049
  18   2.0000      -6.038458      -164.3148
  19   2.0000      -6.034606      -164.2100
  20   2.0000      -6.032588      -164.1551
  21   2.0000      -6.030974      -164.1111
  22   2.0000      -6.028768      -164.0511
  23   2.0000      -6.024741      -163.9415
  24   2.0000      -1.000752       -27.2318
  25   2.0000      -0.970269       -26.4024
  26   2.0000      -0.915329       -24.9074
  27   2.0000      -0.902378       -24.5550
  28   2.0000      -0.868758       -23.6401
  29   2.0000      -0.851862       -23.1803
  30   2.0000      -0.834009       -22.6945
  31   2.0000      -0.811557       -22.0836
  32   2.0000      -0.783143       -21.3104
  33   2.0000      -0.769667       -20.9437
  34   2.0000      -0.710072       -19.3220
  35   2.0000      -0.698833       -19.0162
  36   2.0000      -0.686818       -18.6893
  37   2.0000      -0.656966       -17.8769
  38   2.0000      -0.647436       -17.6176
  39   2.0000      -0.610180       -16.6038
  40   2.0000      -0.597387       -16.2557
  41   2.0000      -0.581828       -15.8324
  42   2.0000      -0.564465       -15.3599
  43   2.0000      -0.540075       -14.6962
  44   2.0000      -0.536398       -14.5961
  45   2.0000      -0.525918       -14.3110
  46   2.0000      -0.520036       -14.1509
  47   2.0000      -0.514561       -14.0019
  48   2.0000      -0.504101       -13.7173
  49   2.0000      -0.499270       -13.5858
  50   2.0000      -0.486612       -13.2414
  51   2.0000      -0.482091       -13.1184
  52   2.0000      -0.465083       -12.6556
  53   2.0000      -0.463643       -12.6164
  54   2.0000      -0.451593       -12.2885
  55   2.0000      -0.450665       -12.2632
  56   2.0000      -0.439368       -11.9558
  57   2.0000      -0.433096       -11.7852
  58   2.0000      -0.432067       -11.7571
  59   2.0000      -0.419803       -11.4234
  60   2.0000      -0.414922       -11.2906
  61   2.0000      -0.414356       -11.2752
  62   2.0000      -0.410452       -11.1690
  63   2.0000      -0.340369        -9.2619
  64   2.0000      -0.329849        -8.9756
  65   2.0000      -0.323484        -8.8024
  66   2.0000      -0.297946        -8.1075
  67   0.0000       0.032130         0.8743
  68   0.0000       0.058266         1.5855
  69   0.0000       0.108646         2.9564
  70   0.0000       0.115840         3.1522
  71   0.0000       0.124364         3.3841

MULLIKEN ATOMIC CHARGES
-----------------------
   0 S :    0.116488
   1 C :   -0.134210
   2 C :   -0.078577
   3 C :    0.027905
   4 C :   -0.158424
   5 H :    0.032518
   6 C :    0.032270
   7 H :    0.054309
   8 H :    0.030721
   9 C :   -0.069216
  10 H :    0.023810
  11 H :    0.052093
  12 C :   -0.041140
  13 H :    0.023230
  14 H :    0.034426
  15 H :    0.012400
  16 S :    0.071394
  17 C :   -0.107535
  18 C :    0.001247
  19 C :   -0.033416
  20 C :   -0.162310
  21 H :   -0.008014
  22 C :    0.104976
  23 H :    0.031159
  24 H :   -0.003406
  25 C :   -0.095093
  26 H :    0.047183
  27 H :    0.041976
  28 C :   -0.085290
  29 H :    0.041091
  30 H :    0.037701
  31 H :    0.038759
  32 H :    0.049077
  33 H :    0.071896
Sum of atomic charges:   -0.0000000

LOEWDIN ATOMIC CHARGES
----------------------
   0 S :    0.410580
   1 C :   -0.197616
   2 C :   -0.058194
   3 C :   -0.062542
   4 C :   -0.205094
   5 H :    0.042142
   6 C :   -0.034122
   7 H :    0.040302
   8 H :    0.031984
   9 C :   -0.047210
  10 H :    0.021845
  11 H :    0.037163
  12 C :   -0.072495
  13 H :    0.026953
  14 H :    0.026739
  15 H :    0.024470
  16 S :    0.350440
  17 C :   -0.161971
  18 C :   -0.061633
  19 C :   -0.043745
  20 C :   -0.182872
  21 H :    0.017551
  22 C :   -0.031961
  23 H :    0.039351
  24 H :    0.016729
  25 C :   -0.040590
  26 H :    0.031318
  27 H :    0.030236
  28 C :   -0.077536
  29 H :    0.028080
  30 H :    0.031860
  31 H :    0.018971
  32 H :    0.019132
  33 H :    0.031736

  Mayer bond orders larger than 0.100000
B(  0-S ,  1-C ) :   1.1304 B(  0-S ,  4-C ) :   1.1673 B(  1-C ,  2-C ) :   1.6092
B(  1-C , 32-H ) :   0.9717 B(  2-C ,  3-C ) :   1.2227 B(  2-C ,  6-C ) :   0.9964
B(  3-C ,  4-C ) :   1.5883 B(  3-C ,  5-H ) :   0.9961 B(  4-C , 20-C ) :   1.0118
B(  6-C ,  7-H ) :   0.9503 B(  6-C ,  8-H ) :   0.9302 B(  6-C ,  9-C ) :   1.0907
B(  9-C , 10-H ) :   0.9432 B(  9-C , 11-H ) :   0.9494 B(  9-C , 12-C ) :   1.0922
B( 12-C , 13-H ) :   0.9694 B( 12-C , 14-H ) :   0.9743 B( 12-C , 15-H ) :   0.9691
B( 16-S , 17-C ) :   1.1375 B( 16-S , 20-C ) :   1.1338 B( 17-C , 18-C ) :   1.6345
B( 17-C , 20-C ) :   0.1071 B( 17-C , 33-H ) :   0.9638 B( 18-C , 19-C ) :   1.2034
B( 18-C , 21-H ) :   1.0017 B( 19-C , 20-C ) :   1.5915 B( 19-C , 22-C ) :   1.0406
B( 22-C , 23-H ) :   0.9336 B( 22-C , 24-H ) :   0.9343 B( 22-C , 25-C ) :   1.0684
B( 25-C , 26-H ) :   0.9561 B( 25-C , 27-H ) :   0.9552 B( 25-C , 28-C ) :   1.0651
B( 28-C , 29-H ) :   0.9769 B( 28-C , 30-H ) :   0.9754 B( 28-C , 31-H ) :   0.9741

Dispersion correction           -0.014244182
FINAL SINGLE POINT ENERGY     -1339.858661281538

DIPOLE MOMENT
-------------
                                X             Y             Z
Electronic contribution:      7.28372     -15.62387     -18.20105
Nuclear contribution   :     -7.23418      16.24758      18.64541
                        -----------------------------------------
Total Dipole Moment    :      0.04955       0.62371       0.44437
                        -----------------------------------------
Magnitude (a.u.)       :      0.76742
Magnitude (Debye)      :      1.95062

Rotational constants in cm-1:     0.021650     0.007321     0.006428
Rotational constants in MHz :   649.058507   219.482404   192.701726

                             ****ORCA TERMINATED NORMALLY****
TOTAL RUN TIME: 0 days 0 hours 0 minutes 33 seconds 865 msec
