                         Program Version 4.2.1 -  RELEASE  -
|  1> ! wB97X-D3 SP def2-SVP
|  2> %pal
|  3> nprocs 16
|  4> end
|  5>
|  6> * xyz 0 1
|  7> S 	 8.46864 	 -16.5771 	 88.7674
|  8> C 	 9.439 	 -16.0234 	 87.3581
|  9> C 	 8.70508 	 -15.1624 	 86.5463
| 10> C 	 7.51385 	 -14.6836 	 87.2448
| 11> C 	 7.28343 	 -15.2569 	 88.5218
| 12> H 	 6.80369 	 -14.0172 	 86.904
| 13> C 	 9.2038 	 -14.6446 	 85.2145
| 14> H 	 8.36167 	 -14.6219 	 84.5898
| 15> H 	 9.82252 	 -15.4325 	 84.6905
| 16> C 	 9.83537 	 -13.2158 	 85.2423
| 17> H 	 9.12326 	 -12.5076 	 85.5774
| 18> H 	 10.5163 	 -13.184 	 86.0695
| 19> C 	 10.7162 	 -12.9429 	 84.0076
| 20> H 	 11.6207 	 -13.5628 	 83.9521
| 21> H 	 10.1516 	 -13.0959 	 83.0349
| 22> H 	 11.0404 	 -11.8818 	 84.0445
| 23> S 	 5.17009 	 -16.4036 	 89.8741
| 24> C 	 3.91043 	 -15.3217 	 90.5929
| 25> C 	 4.23693 	 -14.0186 	 90.4808
| 26> C 	 5.37513 	 -13.8398 	 89.6346
| 27> C 	 6.10166 	 -14.9963 	 89.3402
| 28> H 	 3.67886 	 -13.2131 	 90.9138
| 29> C 	 5.75447 	 -12.4396 	 89.1669
| 30> H 	 5.03903 	 -11.7018 	 89.6106
| 31> H 	 5.52282 	 -12.3654 	 88.1218
| 32> C 	 7.24392 	 -11.9804 	 89.317
| 33> H 	 8.01532 	 -12.7802 	 89.1037
| 34> H 	 7.45556 	 -11.8332 	 90.2765
| 35> C 	 7.77537 	 -10.5996 	 88.8501
| 36> H 	 6.90513 	 -9.8602 	 88.7675
| 37> H 	 8.19565 	 -10.7007 	 87.8744
| 38> H 	 8.4631 	 -10.1653 	 89.5874
| 39> H 	 10.4518 	 -16.4022 	 87.1911
| 40> H 	 3.03716 	 -15.763 	 91.0654
| 41> *
| 42>
| 43>                          ****END OF INPUT****

CARTESIAN COORDINATES (ANGSTROEM)
---------------------------------
  S      8.468640  -16.577100   88.767400
  C      9.439000  -16.023400   87.358100
  C      8.705080  -15.162400   86.546300
  C      7.513850  -14.683600   87.244800
  C      7.283430  -15.256900   88.521800
  H      6.803690  -14.017200   86.904000
  C      9.203800  -14.644600   85.214500
  H      8.361670  -14.621900   84.589800
  H      9.822520  -15.432500   84.690500
  C      9.835370  -13.215800   85.242300
  H      9.123260  -12.507600   85.577400
  H     10.516300  -13.184000   86.069500
  C     10.716200  -12.942900   84.007600
  H     11.620700  -13.562800   83.952100
  H     10.151600  -13.095900   83.034900
  H     11.040400  -11.881800   84.044500
  S      5.170090  -16.403600   89.874100
  C      3.910430  -15.321700   90.592900
  C      4.236930  -14.018600   90.480800
  C      5.375130  -13.839800   89.634600
  C      6.101660  -14.996300   89.340200
  H      3.678860  -13.213100   90.913800
  C      5.754470  -12.439600   89.166900
  H      5.039030  -11.701800   89.610600
  H      5.522820  -12.365400   88.121800
  C      7.243920  -11.980400   89.317000
  H      8.015320  -12.780200   89.103700
  H      7.455560  -11.833200   90.276500
  C      7.775370  -10.599600   88.850100
  H      6.905130   -9.860200   88.767500
  H      8.195650  -10.700700   87.874400
  H      8.463100  -10.165300   89.587400
  H     10.451800  -16.402200   87.191100
  H      3.037160  -15.763000   91.065400

 Total Charge           Charge          ....    0
 Multiplicity           Mult            ....    1
 Number of Electrons    NEL             ....  134
 Basis Dimension        Dim             ....  322

ORBITAL ENERGIES
----------------

  NO   OCC          E(Eh)            E(eV)
   0   2.0000     -88.966716     -2420.9074
   1   2.0000     -88.963219     -2420.8123
   2   2.0000     -10.338311      -281.3197
   3   2.0000     -10.331754      -281.1413
   4   2.0000     -10.322059      -280.8775
   5   2.0000     -10.321942      -280.8743
   6   2.0000     -10.310001      -280.5494
   7   2.0000     -10.307960      -280.4939
   8   2.0000     -10.297936      -280.2211
   9   2.0000     -10.297348      -280.2051
  10   2.0000     -10.295848      -280.1643
  11   2.0000     -10.294680      -280.1325
  12   2.0000     -10.290092      -280.0076
  13   2.0000     -10.287375      -279.9337
  14   2.0000     -10.282724      -279.8071
  15   2.0000     -10.273805      -279.5644
  16   2.0000      -8.080013      -219.8683
  17   2.0000      -8.077209      -219.7920
  18   2.0000      -6.038730      -164.3222
  19   2.0000      -6.035894      -164.2450
  20   2.0000      -6.034828      -164.2160
  21   2.0000      -6.031908      -164.1366
  22   2.0000      -6.030530      -164.0991
  23   2.0000      -6.027737      -164.0231
  24   2.0000      -0.998772       -27.1780
  25   2.0000      -0.974801       -26.5257
  26   2.0000      -0.908803       -24.7298
  27   2.0000      -0.899658       -24.4809
  28   2.0000      -0.871103       -23.7039
  29   2.0000      -0.849012       -23.1028
  30   2.0000      -0.843161       -22.9436
  31   2.0000      -0.815599       -22.1936
  32   2.0000      -0.779861       -21.2211
  33   2.0000      -0.769104       -20.9284
  34   2.0000      -0.711974       -19.3738
  35   2.0000      -0.706826       -19.2337
  36   2.0000      -0.690936       -18.8013
  37   2.0000      -0.667595       -18.1662
  38   2.0000      -0.644120       -17.5274
  39   2.0000      -0.615116       -16.7382
  40   2.0000      -0.596922       -16.2431
  41   2.0000      -0.568841       -15.4790
  42   2.0000      -0.559530       -15.2256
  43   2.0000      -0.553528       -15.0623
  44   2.0000      -0.526337       -14.3223
  45   2.0000      -0.523069       -14.2334
  46   2.0000      -0.514865       -14.0102
  47   2.0000      -0.511919       -13.9300
  48   2.0000      -0.507688       -13.8149
  49   2.0000      -0.497474       -13.5370
  50   2.0000      -0.489404       -13.3174
  51   2.0000      -0.485074       -13.1995
  52   2.0000      -0.474900       -12.9227
  53   2.0000      -0.466022       -12.6811
  54   2.0000      -0.454827       -12.3765
  55   2.0000      -0.450611       -12.2617
  56   2.0000      -0.447624       -12.1805
  57   2.0000      -0.436081       -11.8664
  58   2.0000      -0.430078       -11.7030
  59   2.0000      -0.426802       -11.6139
  60   2.0000      -0.415554       -11.3078
  61   2.0000      -0.410550       -11.1716
  62   2.0000      -0.404614       -11.0101
  63   2.0000      -0.354352        -9.6424
  64   2.0000      -0.328530        -8.9397
  65   2.0000      -0.326769        -8.8918
  66   2.0000      -0.285261        -7.7624
  67   0.0000       0.020400         0.5551
  68   0.0000       0.063466         1.7270
  69   0.0000       0.100809         2.7431
  70   0.0000       0.121696         3.3115
  71   0.0000       0.123459         3.3595

MULLIKEN ATOMIC CHARGES
-----------------------
   0 S :    0.094206
   1 C :   -0.136961
   2 C :   -0.071913
   3 C :    0.043506
   4 C :   -0.143579
   5 H :   -0.020026
   6 C :    0.064270
   7 H :    0.014074
   8 H :    0.030068
   9 C :   -0.032140
  10 H :    0.022645
  11 H :    0.016712
  12 C :   -0.076998
  13 H :    0.043721
  14 H :    0.039944
  15 H :    0.042146
  16 S :    0.076766
  17 C :   -0.098537
  18 C :    0.010618
  19 C :   -0.074130
  20 C :   -0.122867
  21 H :    0.019498
  22 C :    0.084400
  23 H :    0.015620
  24 H :    0.028049
  25 C :   -0.066152
  26 H :    0.052512
  27 H :   -0.010327
  28 C :   -0.076152
  29 H :    0.028848
  30 H :    0.032771
  31 H :    0.044233
  32 H :    0.061508
  33 H :    0.063665
Sum of atomic charges:   -0.0000000

LOEWDIN ATOMIC CHARGES
----------------------
   0 S :    0.364518
   1 C :   -0.178328
   2 C :   -0.056864
   3 C :   -0.047924
   4 C :   -0.180689
   5 H :    0.015455
   6 C :   -0.034005
   7 H :    0.024267
   8 H :    0.037452
   9 C :   -0.038539
  10 H :    0.021121
  11 H :    0.023145
  12 C :   -0.069679
  13 H :    0.028350
  14 H :    0.028591
  15 H :    0.031256
  16 S :    0.367456
  17 C :   -0.155153
  18 C :   -0.065841
  19 C :   -0.054871
  20 C :   -0.188152
  21 H :    0.034716
  22 C :   -0.031779
  23 H :    0.033020
  24 H :    0.025687
  25 C :   -0.055441
  26 H :    0.038478
  27 H :    0.007033
  28 C :   -0.061819
  29 H :    0.030387
  30 H :    0.016346
  31 H :    0.030773
  32 H :    0.031650
  33 H :    0.029381

  Mayer bond orders larger than 0.100000
B(  0-S ,  1-C ) :   1.1255 B(  0-S ,  4-C ) :   1.1293 B(  1-C ,  2-C ) :   1.6036
B(  1-C , 32-H ) :   0.9717 B(  2-C ,  3-C ) :   1.2136 B(  2-C ,  6-C ) :   1.0395
B(  3-C ,  4-C ) :   1.5600 B(  3-C ,  5-H ) :   1.0046 B(  4-C , 20-C ) :   1.0745
B(  6-C ,  7-H ) :   0.9274 B(  6-C ,  8-H ) :   0.9468 B(  6-C ,  9-C ) :   1.0439
B(  9-C , 10-H ) :   0.9565 B(  9-C , 11-H ) :   0.9567 B(  9-C , 12-C ) :   1.0719
B( 12-C , 13-H ) :   0.9761 B( 12-C , 14-H ) :   0.9770 B( 12-C , 15-H ) :   0.9736
B( 16-S , 17-C ) :   1.1404 B( 16-S , 20-C ) :   1.1177 B( 17-C , 18-C ) :   1.6187
B( 17-C , 33-H ) :   0.9675 B( 18-C , 19-C ) :   1.2340 B( 18-C , 21-H ) :   0.9913
B( 19-C , 20-C ) :   1.6107 B( 19-C , 22-C ) :   1.0396 B( 22-C , 23-H ) :   0.9319
B( 22-C , 24-H ) :   0.9314 B( 22-C , 25-C ) :   1.0451 B( 25-C , 26-H ) :   0.9518
B( 25-C , 27-H ) :   0.9541 B( 25-C , 28-C ) :   1.0712 B( 28-C , 29-H ) :   0.9733
B( 28-C , 30-H ) :   0.9774 B( 28-C , 31-H ) :   0.9818

Dispersion correction           -0.014698447
FINAL SINGLE POINT ENERGY     -1339.844341248000

DIPOLE MOMENT
-------------
                                X             Y             Z
Electronic contribution:    -12.50772     -25.97291      16.02016
Nuclear contribution   :     12.52235      26.63066     -16.36797
                        -----------------------------------------
Total Dipole Moment    :      0.01463       0.65776      -0.34781
                        -----------------------------------------
Magnitude (a.u.)       :      0.74420
Magnitude (Debye)      :      1.89161

Rotational constants in cm-1:     0.019434     0.008754     0.006622
Rotational constants in MHz :   582.620429   262.446666   198.537359

                             ****ORCA TERMINATED NORMALLY****
TOTAL RUN TIME: 0 days 0 hours 0 minutes 34 seconds 699 msec
