                         Program Version 4.2.1 -  RELEASE  -
|  1> ! wB97X-D3 SP def2-SVP
|  2> %pal
|  3> nprocs 16
|  4> end
|  5>
|  6> * xyz 0 1
|  7> S 	 35.479 	 5.12287 	 88.8336
|  8> C 	 34.1675 	 5.17392 	 87.6681
|  9> C 	 34.5353 	 5.68969 	 86.4357
| 10> C 	 35.8989 	 6.02567 	 86.4696
| 11> C 	 36.551 	 5.66342 	 87.6103
| 12> H 	 36.5219 	 6.44294 	 85.7163
| 13> C 	 33.5967 	 6.00337 	 85.2443
| 14> H 	 32.887 	 5.15215 	 85.0652
| 15> H 	 34.2375 	 5.87541 	 84.3504
| 16> C 	 33.0687 	 7.42836 	 85.1373
| 17> H 	 33.8124 	 8.18781 	 85.3844
| 18> H 	 32.7979 	 7.56671 	 84.064
| 19> C 	 31.898 	 7.62015 	 86.0925
| 20> H 	 31.4923 	 8.61899 	 86.0604
| 21> H 	 31.1016 	 6.85777 	 86.0164
| 22> H 	 32.2692 	 7.4504 	 87.0905
| 23> S 	 38.8558 	 4.18961 	 87.8832
| 24> C 	 40.2009 	 4.95059 	 88.6694
| 25> C 	 40.0276 	 6.31453 	 88.8802
| 26> C 	 38.6618 	 6.71731 	 88.5539
| 27> C 	 37.922 	 5.72151 	 87.9844
| 28> H 	 40.8208 	 7.00334 	 89.0359
| 29> C 	 38.2774 	 8.13765 	 89.0083
| 30> H 	 38.6697 	 8.40672 	 90.024
| 31> H 	 37.1725 	 8.08185 	 89.1744
| 32> C 	 38.4004 	 9.31981 	 87.9431
| 33> H 	 37.9997 	 9.04909 	 86.9385
| 34> H 	 39.4436 	 9.53362 	 87.7831
| 35> C 	 37.6665 	 10.6366 	 88.376
| 36> H 	 37.5386 	 11.3054 	 87.5654
| 37> H 	 38.1154 	 11.0928 	 89.269
| 38> H 	 36.6803 	 10.2523 	 88.7012
| 39> H 	 33.1351 	 4.95686 	 87.8675
| 40> H 	 41.1972 	 4.46349 	 88.6366
| 41> *
| 42>
| 43>                          ****END OF INPUT****

CARTESIAN COORDINATES (ANGSTROEM)
---------------------------------
  S     35.479000    5.122870   88.833600
  C     34.167500    5.173920   87.668100
  C     34.535300    5.689690   86.435700
  C     35.898900    6.025670   86.469600
  C     36.551000    5.663420   87.610300
  H     36.521900    6.442940   85.716300
  C     33.596700    6.003370   85.244300
  H     32.887000    5.152150   85.065200
  H     34.237500    5.875410   84.350400
  C     33.068700    7.428360   85.137300
  H     33.812400    8.187810   85.384400
  H     32.797900    7.566710   84.064000
  C     31.898000    7.620150   86.092500
  H     31.492300    8.618990   86.060400
  H     31.101600    6.857770   86.016400
  H     32.269200    7.450400   87.090500
  S     38.855800    4.189610   87.883200
  C     40.200900    4.950590   88.669400
  C     40.027600    6.314530   88.880200
  C     38.661800    6.717310   88.553900
  C     37.922000    5.721510   87.984400
  H     40.820800    7.003340   89.035900
  C     38.277400    8.137650   89.008300
  H     38.669700    8.406720   90.024000
  H     37.172500    8.081850   89.174400
  C     38.400400    9.319810   87.943100
  H     37.999700    9.049090   86.938500
  H     39.443600    9.533620   87.783100
  C     37.666500   10.636600   88.376000
  H     37.538600   11.305400   87.565400
  H     38.115400   11.092800   89.269000
  H     36.680300   10.252300   88.701200
  H     33.135100    4.956860   87.867500
  H     41.197200    4.463490   88.636600

 Total Charge           Charge          ....    0
 Multiplicity           Mult            ....    1
 Number of Electrons    NEL             ....  134
 Basis Dimension        Dim             ....  322

ORBITAL ENERGIES
----------------

  NO   OCC          E(Eh)            E(eV)
   0   2.0000     -88.965909     -2420.8855
   1   2.0000     -88.963591     -2420.8224
   2   2.0000     -10.324152      -280.9345
   3   2.0000     -10.319731      -280.8141
   4   2.0000     -10.317589      -280.7559
   5   2.0000     -10.311553      -280.5916
   6   2.0000     -10.307053      -280.4692
   7   2.0000     -10.303043      -280.3601
   8   2.0000     -10.301609      -280.3210
   9   2.0000     -10.299669      -280.2682
  10   2.0000     -10.293555      -280.1019
  11   2.0000     -10.292979      -280.0862
  12   2.0000     -10.291764      -280.0531
  13   2.0000     -10.288176      -279.9555
  14   2.0000     -10.280076      -279.7351
  15   2.0000     -10.273773      -279.5636
  16   2.0000      -8.081224      -219.9013
  17   2.0000      -8.078295      -219.8216
  18   2.0000      -6.039588      -164.3455
  19   2.0000      -6.036841      -164.2708
  20   2.0000      -6.035690      -164.2395
  21   2.0000      -6.032945      -164.1648
  22   2.0000      -6.032052      -164.1405
  23   2.0000      -6.028863      -164.0537
  24   2.0000      -1.011443       -27.5228
  25   2.0000      -0.982119       -26.7248
  26   2.0000      -0.913442       -24.8560
  27   2.0000      -0.896189       -24.3865
  28   2.0000      -0.870780       -23.6951
  29   2.0000      -0.849967       -23.1288
  30   2.0000      -0.847885       -23.0721
  31   2.0000      -0.809997       -22.0411
  32   2.0000      -0.784628       -21.3508
  33   2.0000      -0.771241       -20.9865
  34   2.0000      -0.706920       -19.2363
  35   2.0000      -0.697749       -18.9867
  36   2.0000      -0.688986       -18.7483
  37   2.0000      -0.663085       -18.0435
  38   2.0000      -0.648507       -17.6468
  39   2.0000      -0.617355       -16.7991
  40   2.0000      -0.594509       -16.1774
  41   2.0000      -0.569878       -15.5072
  42   2.0000      -0.556762       -15.1503
  43   2.0000      -0.548508       -14.9257
  44   2.0000      -0.538697       -14.6587
  45   2.0000      -0.527518       -14.3545
  46   2.0000      -0.518756       -14.1161
  47   2.0000      -0.512337       -13.9414
  48   2.0000      -0.499981       -13.6052
  49   2.0000      -0.491872       -13.3845
  50   2.0000      -0.485289       -13.2054
  51   2.0000      -0.477941       -13.0054
  52   2.0000      -0.468880       -12.7589
  53   2.0000      -0.467321       -12.7165
  54   2.0000      -0.452393       -12.3102
  55   2.0000      -0.450712       -12.2645
  56   2.0000      -0.443196       -12.0600
  57   2.0000      -0.442461       -12.0400
  58   2.0000      -0.435780       -11.8582
  59   2.0000      -0.423793       -11.5320
  60   2.0000      -0.419255       -11.4085
  61   2.0000      -0.415090       -11.2952
  62   2.0000      -0.411970       -11.2103
  63   2.0000      -0.338649        -9.2151
  64   2.0000      -0.327348        -8.9076
  65   2.0000      -0.320435        -8.7195
  66   2.0000      -0.312699        -8.5090
  67   0.0000       0.046672         1.2700
  68   0.0000       0.051381         1.3982
  69   0.0000       0.112913         3.0725
  70   0.0000       0.116310         3.1650
  71   0.0000       0.120841         3.2883

MULLIKEN ATOMIC CHARGES
-----------------------
   0 S :    0.133655
   1 C :   -0.105984
   2 C :   -0.083619
   3 C :    0.061006
   4 C :   -0.202337
   5 H :   -0.008056
   6 C :    0.028863
   7 H :    0.041646
   8 H :    0.020425
   9 C :   -0.042366
  10 H :    0.033676
  11 H :    0.036743
  12 C :   -0.041178
  13 H :    0.034986
  14 H :    0.023834
  15 H :    0.019675
  16 S :    0.108113
  17 C :   -0.097739
  18 C :   -0.022911
  19 C :   -0.000434
  20 C :   -0.191421
  21 H :    0.020870
  22 C :    0.021399
  23 H :    0.045829
  24 H :    0.022486
  25 C :   -0.075397
  26 H :    0.032974
  27 H :    0.023245
  28 C :   -0.045549
  29 H :    0.038759
  30 H :    0.037307
  31 H :    0.024786
  32 H :    0.032666
  33 H :    0.074047
Sum of atomic charges:   -0.0000000

LOEWDIN ATOMIC CHARGES
----------------------
   0 S :    0.428117
   1 C :   -0.191419
   2 C :   -0.065823
   3 C :   -0.055855
   4 C :   -0.211479
   5 H :    0.027790
   6 C :   -0.038145
   7 H :    0.038247
   8 H :    0.033179
   9 C :   -0.038580
  10 H :    0.029504
  11 H :    0.028122
  12 C :   -0.068162
  13 H :    0.023297
  14 H :    0.024388
  15 H :    0.023332
  16 S :    0.391491
  17 C :   -0.188964
  18 C :   -0.068420
  19 C :   -0.048495
  20 C :   -0.199655
  21 H :    0.027638
  22 C :   -0.038618
  23 H :    0.037502
  24 H :    0.030675
  25 C :   -0.037806
  26 H :    0.027716
  27 H :    0.014174
  28 C :   -0.063425
  29 H :    0.021932
  30 H :    0.026303
  31 H :    0.026727
  32 H :    0.020720
  33 H :    0.033993

  Mayer bond orders larger than 0.100000
B(  0-S ,  1-C ) :   1.1493 B(  0-S ,  4-C ) :   1.1575 B(  1-C ,  2-C ) :   1.6170
B(  1-C ,  4-C ) :   0.1013 B(  1-C , 32-H ) :   0.9665 B(  2-C ,  3-C ) :   1.2293
B(  2-C ,  6-C ) :   1.0156 B(  3-C ,  4-C ) :   1.6111 B(  3-C ,  5-H ) :   1.0006
B(  4-C , 20-C ) :   1.0140 B(  6-C ,  7-H ) :   0.9449 B(  6-C ,  8-H ) :   0.9362
B(  6-C ,  9-C ) :   1.0655 B(  9-C , 10-H ) :   0.9529 B(  9-C , 11-H ) :   0.9552
B(  9-C , 12-C ) :   1.0763 B( 12-C , 13-H ) :   0.9738 B( 12-C , 14-H ) :   0.9760
B( 12-C , 15-H ) :   0.9719 B( 16-S , 17-C ) :   1.1571 B( 16-S , 20-C ) :   1.1191
B( 17-C , 18-C ) :   1.6319 B( 17-C , 33-H ) :   0.9564 B( 18-C , 19-C ) :   1.2059
B( 18-C , 21-H ) :   0.9896 B( 19-C , 20-C ) :   1.6600 B( 19-C , 22-C ) :   1.0364
B( 22-C , 23-H ) :   0.9484 B( 22-C , 24-H ) :   0.9299 B( 22-C , 25-C ) :   1.0482
B( 25-C , 26-H ) :   0.9585 B( 25-C , 27-H ) :   0.9590 B( 25-C , 28-C ) :   1.0733
B( 28-C , 29-H ) :   0.9767 B( 28-C , 30-H ) :   0.9769 B( 28-C , 31-H ) :   0.9769

Dispersion correction           -0.014390933
FINAL SINGLE POINT ENERGY     -1339.873206678339

DIPOLE MOMENT
-------------
                                X             Y             Z
Electronic contribution:     12.43726     -24.20890       8.13875
Nuclear contribution   :    -12.48000      24.77714      -8.44663
                        -----------------------------------------
Total Dipole Moment    :     -0.04274       0.56825      -0.30788
                        -----------------------------------------
Magnitude (a.u.)       :      0.64771
Magnitude (Debye)      :      1.64634

Rotational constants in cm-1:     0.018143     0.008919     0.006806
Rotational constants in MHz :   543.903327   267.394845   204.043264

                             ****ORCA TERMINATED NORMALLY****
TOTAL RUN TIME: 0 days 0 hours 0 minutes 29 seconds 640 msec
