                         Program Version 4.2.1 -  RELEASE  -
|  1> ! wB97X-D3 SP def2-SVP
|  2> %pal
|  3> nprocs 16
|  4> end
|  5>
|  6> * xyz 0 1
|  7> S 	 46.3042 	 17.5146 	 82.8474
|  8> C 	 45.6322 	 18.8581 	 81.9244
|  9> C 	 46.3998 	 19.1554 	 80.8294
| 10> C 	 47.5329 	 18.2907 	 80.7929
| 11> C 	 47.6956 	 17.362 	 81.7822
| 12> H 	 48.2361 	 18.2914 	 79.9998
| 13> C 	 46.0681 	 20.3457 	 79.9735
| 14> H 	 45.518 	 21.1342 	 80.5136
| 15> H 	 45.3431 	 20.0291 	 79.2332
| 16> C 	 47.2261 	 20.9291 	 79.1743
| 17> H 	 47.541 	 20.1221 	 78.562
| 18> H 	 46.925 	 21.6301 	 78.4212
| 19> C 	 48.4509 	 21.476 	 79.9967
| 20> H 	 48.0152 	 22.256 	 80.6872
| 21> H 	 48.9427 	 20.7546 	 80.5776
| 22> H 	 49.3063 	 21.9561 	 79.4083
| 23> S 	 47.9574 	 14.7276 	 82.6651
| 24> C 	 49.4068 	 13.8685 	 82.5266
| 25> C 	 50.2899 	 14.5783 	 81.7831
| 26> C 	 49.859 	 15.9505 	 81.4106
| 27> C 	 48.5669 	 16.1952 	 81.8366
| 28> H 	 51.2836 	 14.161 	 81.6436
| 29> C 	 50.792 	 16.8721 	 80.6567
| 30> H 	 50.2005 	 17.6363 	 80.1401
| 31> H 	 51.2531 	 16.276 	 79.8227
| 32> C 	 51.8879 	 17.7151 	 81.39
| 33> H 	 52.7049 	 18.0355 	 80.7558
| 34> H 	 52.4044 	 17.0278 	 82.0743
| 35> C 	 51.4548 	 18.7279 	 82.3748
| 36> H 	 50.4941 	 18.492 	 82.8691
| 37> H 	 51.1929 	 19.6981 	 81.9667
| 38> H 	 52.1822 	 18.9755 	 83.1467
| 39> H 	 44.6973 	 19.3096 	 82.224
| 40> H 	 49.5881 	 12.8313 	 82.8514
| 41> *
| 42>
| 43>                          ****END OF INPUT****

CARTESIAN COORDINATES (ANGSTROEM)
---------------------------------
  S     46.304200   17.514600   82.847400
  C     45.632200   18.858100   81.924400
  C     46.399800   19.155400   80.829400
  C     47.532900   18.290700   80.792900
  C     47.695600   17.362000   81.782200
  H     48.236100   18.291400   79.999800
  C     46.068100   20.345700   79.973500
  H     45.518000   21.134200   80.513600
  H     45.343100   20.029100   79.233200
  C     47.226100   20.929100   79.174300
  H     47.541000   20.122100   78.562000
  H     46.925000   21.630100   78.421200
  C     48.450900   21.476000   79.996700
  H     48.015200   22.256000   80.687200
  H     48.942700   20.754600   80.577600
  H     49.306300   21.956100   79.408300
  S     47.957400   14.727600   82.665100
  C     49.406800   13.868500   82.526600
  C     50.289900   14.578300   81.783100
  C     49.859000   15.950500   81.410600
  C     48.566900   16.195200   81.836600
  H     51.283600   14.161000   81.643600
  C     50.792000   16.872100   80.656700
  H     50.200500   17.636300   80.140100
  H     51.253100   16.276000   79.822700
  C     51.887900   17.715100   81.390000
  H     52.704900   18.035500   80.755800
  H     52.404400   17.027800   82.074300
  C     51.454800   18.727900   82.374800
  H     50.494100   18.492000   82.869100
  H     51.192900   19.698100   81.966700
  H     52.182200   18.975500   83.146700
  H     44.697300   19.309600   82.224000
  H     49.588100   12.831300   82.851400

 Total Charge           Charge          ....    0
 Multiplicity           Mult            ....    1
 Number of Electrons    NEL             ....  134
 Basis Dimension        Dim             ....  322

ORBITAL ENERGIES
----------------

  NO   OCC          E(Eh)            E(eV)
   0   2.0000     -88.963602     -2420.8227
   1   2.0000     -88.962415     -2420.7904
   2   2.0000     -10.335670      -281.2479
   3   2.0000     -10.332616      -281.1648
   4   2.0000     -10.315272      -280.6928
   5   2.0000     -10.315111      -280.6884
   6   2.0000     -10.311871      -280.6003
   7   2.0000     -10.303184      -280.3639
   8   2.0000     -10.300834      -280.2999
   9   2.0000     -10.296281      -280.1760
  10   2.0000     -10.294252      -280.1208
  11   2.0000     -10.293678      -280.1052
  12   2.0000     -10.286229      -279.9025
  13   2.0000     -10.285498      -279.8826
  14   2.0000     -10.283914      -279.8395
  15   2.0000     -10.270258      -279.4679
  16   2.0000      -8.078248      -219.8203
  17   2.0000      -8.077922      -219.8114
  18   2.0000      -6.036802      -164.2697
  19   2.0000      -6.036587      -164.2639
  20   2.0000      -6.032705      -164.1582
  21   2.0000      -6.032260      -164.1461
  22   2.0000      -6.029013      -164.0578
  23   2.0000      -6.028487      -164.0435
  24   2.0000      -1.009420       -27.4677
  25   2.0000      -0.988072       -26.8868
  26   2.0000      -0.915243       -24.9050
  27   2.0000      -0.909254       -24.7421
  28   2.0000      -0.874054       -23.7842
  29   2.0000      -0.852509       -23.1980
  30   2.0000      -0.837883       -22.8000
  31   2.0000      -0.821380       -22.3509
  32   2.0000      -0.786488       -21.4014
  33   2.0000      -0.778091       -21.1729
  34   2.0000      -0.716396       -19.4941
  35   2.0000      -0.700134       -19.0516
  36   2.0000      -0.693460       -18.8700
  37   2.0000      -0.657939       -17.9034
  38   2.0000      -0.643216       -17.5028
  39   2.0000      -0.629971       -17.1424
  40   2.0000      -0.597540       -16.2599
  41   2.0000      -0.567708       -15.4481
  42   2.0000      -0.556217       -15.1354
  43   2.0000      -0.554066       -15.0769
  44   2.0000      -0.539168       -14.6715
  45   2.0000      -0.535216       -14.5640
  46   2.0000      -0.518979       -14.1221
  47   2.0000      -0.511764       -13.9258
  48   2.0000      -0.507566       -13.8116
  49   2.0000      -0.500429       -13.6174
  50   2.0000      -0.496996       -13.5239
  51   2.0000      -0.479951       -13.0601
  52   2.0000      -0.472142       -12.8476
  53   2.0000      -0.465907       -12.6780
  54   2.0000      -0.464151       -12.6302
  55   2.0000      -0.447482       -12.1766
  56   2.0000      -0.442861       -12.0509
  57   2.0000      -0.438340       -11.9278
  58   2.0000      -0.434413       -11.8210
  59   2.0000      -0.425001       -11.5649
  60   2.0000      -0.418959       -11.4005
  61   2.0000      -0.408692       -11.1211
  62   2.0000      -0.397395       -10.8137
  63   2.0000      -0.364903        -9.9295
  64   2.0000      -0.331045        -9.0082
  65   2.0000      -0.325991        -8.8707
  66   2.0000      -0.290063        -7.8930
  67   0.0000       0.022547         0.6135
  68   0.0000       0.083301         2.2667
  69   0.0000       0.106287         2.8922
  70   0.0000       0.112914         3.0725
  71   0.0000       0.134392         3.6570

MULLIKEN ATOMIC CHARGES
-----------------------
   0 S :    0.087041
   1 C :   -0.141898
   2 C :   -0.052658
   3 C :    0.007147
   4 C :   -0.105550
   5 H :   -0.008711
   6 C :    0.073883
   7 H :    0.031123
   8 H :    0.036923
   9 C :   -0.062090
  10 H :    0.012207
  11 H :    0.023144
  12 C :   -0.070758
  13 H :    0.037442
  14 H :    0.026111
  15 H :    0.044689
  16 S :    0.090682
  17 C :   -0.085191
  18 C :   -0.037060
  19 C :   -0.063516
  20 C :   -0.120719
  21 H :    0.020033
  22 C :    0.044432
  23 H :    0.013866
  24 H :    0.041096
  25 C :   -0.035378
  26 H :    0.029240
  27 H :    0.015733
  28 C :   -0.061676
  29 H :    0.038687
  30 H :    0.015407
  31 H :    0.033439
  32 H :    0.050225
  33 H :    0.072653
Sum of atomic charges:   -0.0000000

LOEWDIN ATOMIC CHARGES
----------------------
   0 S :    0.392016
   1 C :   -0.176478
   2 C :   -0.064305
   3 C :   -0.061397
   4 C :   -0.188805
   5 H :    0.018507
   6 C :   -0.030300
   7 H :    0.032359
   8 H :    0.039007
   9 C :   -0.043102
  10 H :    0.017354
  11 H :    0.025636
  12 C :   -0.071957
  13 H :    0.031418
  14 H :    0.013025
  15 H :    0.035488
  16 S :    0.402790
  17 C :   -0.204172
  18 C :   -0.076468
  19 C :   -0.058674
  20 C :   -0.177562
  21 H :    0.029622
  22 C :   -0.035970
  23 H :    0.026055
  24 H :    0.042294
  25 C :   -0.046927
  26 H :    0.026675
  27 H :    0.027098
  28 C :   -0.073892
  29 H :    0.034758
  30 H :    0.017158
  31 H :    0.028949
  32 H :    0.026904
  33 H :    0.042896

  Mayer bond orders larger than 0.100000
B(  0-S ,  1-C ) :   1.1484 B(  0-S ,  4-C ) :   1.1333 B(  1-C ,  2-C ) :   1.5943
B(  1-C , 32-H ) :   0.9732 B(  2-C ,  3-C ) :   1.2636 B(  2-C ,  6-C ) :   1.0072
B(  3-C ,  4-C ) :   1.5707 B(  3-C ,  5-H ) :   0.9877 B(  4-C , 20-C ) :   1.0722
B(  6-C ,  7-H ) :   0.9485 B(  6-C ,  8-H ) :   0.9241 B(  6-C ,  9-C ) :   1.0899
B(  9-C , 10-H ) :   0.9457 B(  9-C , 11-H ) :   0.9524 B(  9-C , 12-C ) :   1.0644
B( 12-C , 13-H ) :   0.9759 B( 12-C , 14-H ) :   0.9764 B( 12-C , 15-H ) :   0.9758
B( 16-S , 17-C ) :   1.1482 B( 16-S , 20-C ) :   1.1217 B( 17-C , 18-C ) :   1.6396
B( 17-C , 33-H ) :   0.9616 B( 18-C , 19-C ) :   1.2100 B( 18-C , 21-H ) :   0.9879
B( 19-C , 20-C ) :   1.6115 B( 19-C , 22-C ) :   1.0479 B( 22-C , 23-H ) :   0.9385
B( 22-C , 24-H ) :   0.9334 B( 22-C , 25-C ) :   1.0656 B( 25-C , 26-H ) :   0.9545
B( 25-C , 27-H ) :   0.9555 B( 25-C , 28-C ) :   1.0736 B( 28-C , 29-H ) :   0.9720
B( 28-C , 30-H ) :   0.9697 B( 28-C , 31-H ) :   0.9726

Dispersion correction           -0.015237037
FINAL SINGLE POINT ENERGY     -1339.875684819372

DIPOLE MOMENT
-------------
                                X             Y             Z
Electronic contribution:    -15.02128     -21.98986      11.86851
Nuclear contribution   :     15.31915      22.28053     -12.34944
                        -----------------------------------------
Total Dipole Moment    :      0.29786       0.29067      -0.48093
                        -----------------------------------------
Magnitude (a.u.)       :      0.63600
Magnitude (Debye)      :      1.61659

Rotational constants in cm-1:     0.018550     0.010147     0.007308
Rotational constants in MHz :   556.108050   304.206115   219.086933

                             ****ORCA TERMINATED NORMALLY****
TOTAL RUN TIME: 0 days 0 hours 0 minutes 31 seconds 864 msec
