                         Program Version 4.2.1 -  RELEASE  -
|  1> ! wB97X-D3 SP def2-SVP
|  2> %pal
|  3> nprocs 16
|  4> end
|  5>
|  6> * xyz 0 1
|  7> S 	 5.68412 	 -16.3985 	 67.6658
|  8> C 	 6.88899 	 -17.6779 	 67.409
|  9> C 	 7.96966 	 -17.3838 	 68.3041
| 10> C 	 7.94875 	 -16.0906 	 68.8408
| 11> C 	 6.84371 	 -15.2857 	 68.5969
| 12> H 	 8.76156 	 -15.7028 	 69.4547
| 13> C 	 9.08906 	 -18.4382 	 68.6831
| 14> H 	 8.67984 	 -19.4024 	 68.4893
| 15> H 	 9.20951 	 -18.306 	 69.8006
| 16> C 	 10.4399 	 -18.2666 	 68.0311
| 17> H 	 10.8347 	 -17.2766 	 68.1521
| 18> H 	 11.0118 	 -19.0771 	 68.3643
| 19> C 	 10.3138 	 -18.3378 	 66.4953
| 20> H 	 11.2632 	 -18.1581 	 66.0383
| 21> H 	 9.82661 	 -19.2537 	 66.2283
| 22> H 	 9.65213 	 -17.6023 	 66.0542
| 23> S 	 4.92469 	 -13.8161 	 69.9651
| 24> C 	 5.00222 	 -12.106 	 69.7247
| 25> C 	 6.21115 	 -11.7388 	 69.1875
| 26> C 	 6.98828 	 -12.7979 	 68.746
| 27> C 	 6.35813 	 -14.0233 	 69.0514
| 28> H 	 6.41073 	 -10.7229 	 68.9389
| 29> C 	 8.36832 	 -12.5059 	 68.1338
| 30> H 	 8.94464 	 -13.4426 	 67.999
| 31> H 	 8.91631 	 -11.9396 	 68.8389
| 32> C 	 8.42383 	 -11.7072 	 66.8703
| 33> H 	 9.48354 	 -11.6174 	 66.6889
| 34> H 	 8.00813 	 -10.6849 	 66.8781
| 35> C 	 7.72521 	 -12.4103 	 65.6693
| 36> H 	 6.72202 	 -12.8157 	 65.8054
| 37> H 	 8.21376 	 -13.2895 	 65.3526
| 38> H 	 7.65134 	 -11.7319 	 64.8611
| 39> H 	 6.7848 	 -18.5905 	 66.785
| 40> H 	 4.27531 	 -11.2831 	 69.748
| 41> *
| 42>
| 43>                          ****END OF INPUT****

CARTESIAN COORDINATES (ANGSTROEM)
---------------------------------
  S      5.684120  -16.398500   67.665800
  C      6.888990  -17.677900   67.409000
  C      7.969660  -17.383800   68.304100
  C      7.948750  -16.090600   68.840800
  C      6.843710  -15.285700   68.596900
  H      8.761560  -15.702800   69.454700
  C      9.089060  -18.438200   68.683100
  H      8.679840  -19.402400   68.489300
  H      9.209510  -18.306000   69.800600
  C     10.439900  -18.266600   68.031100
  H     10.834700  -17.276600   68.152100
  H     11.011800  -19.077100   68.364300
  C     10.313800  -18.337800   66.495300
  H     11.263200  -18.158100   66.038300
  H      9.826610  -19.253700   66.228300
  H      9.652130  -17.602300   66.054200
  S      4.924690  -13.816100   69.965100
  C      5.002220  -12.106000   69.724700
  C      6.211150  -11.738800   69.187500
  C      6.988280  -12.797900   68.746000
  C      6.358130  -14.023300   69.051400
  H      6.410730  -10.722900   68.938900
  C      8.368320  -12.505900   68.133800
  H      8.944640  -13.442600   67.999000
  H      8.916310  -11.939600   68.838900
  C      8.423830  -11.707200   66.870300
  H      9.483540  -11.617400   66.688900
  H      8.008130  -10.684900   66.878100
  C      7.725210  -12.410300   65.669300
  H      6.722020  -12.815700   65.805400
  H      8.213760  -13.289500   65.352600
  H      7.651340  -11.731900   64.861100
  H      6.784800  -18.590500   66.785000
  H      4.275310  -11.283100   69.748000

 Total Charge           Charge          ....    0
 Multiplicity           Mult            ....    1
 Number of Electrons    NEL             ....  134
 Basis Dimension        Dim             ....  322

ORBITAL ENERGIES
----------------

  NO   OCC          E(Eh)            E(eV)
   0   2.0000     -88.974509     -2421.1195
   1   2.0000     -88.960668     -2420.7429
   2   2.0000     -10.337121      -281.2874
   3   2.0000     -10.326994      -281.0118
   4   2.0000     -10.325161      -280.9619
   5   2.0000     -10.313449      -280.6432
   6   2.0000     -10.306915      -280.4654
   7   2.0000     -10.299853      -280.2732
   8   2.0000     -10.298150      -280.2269
   9   2.0000     -10.296060      -280.1700
  10   2.0000     -10.290317      -280.0138
  11   2.0000     -10.286392      -279.9069
  12   2.0000     -10.282806      -279.8094
  13   2.0000     -10.279934      -279.7312
  14   2.0000     -10.267997      -279.4064
  15   2.0000     -10.263239      -279.2769
  16   2.0000      -8.089526      -220.1272
  17   2.0000      -8.073612      -219.6941
  18   2.0000      -6.048035      -164.5754
  19   2.0000      -6.044003      -164.4657
  20   2.0000      -6.040241      -164.3633
  21   2.0000      -6.032201      -164.1445
  22   2.0000      -6.028309      -164.0386
  23   2.0000      -6.024402      -163.9323
  24   2.0000      -1.010669       -27.5017
  25   2.0000      -0.976585       -26.5742
  26   2.0000      -0.913432       -24.8558
  27   2.0000      -0.910991       -24.7893
  28   2.0000      -0.871061       -23.7028
  29   2.0000      -0.852179       -23.1890
  30   2.0000      -0.838557       -22.8183
  31   2.0000      -0.811661       -22.0864
  32   2.0000      -0.788895       -21.4669
  33   2.0000      -0.772446       -21.0193
  34   2.0000      -0.714153       -19.4331
  35   2.0000      -0.695977       -18.9385
  36   2.0000      -0.692783       -18.8516
  37   2.0000      -0.656833       -17.8733
  38   2.0000      -0.641810       -17.4646
  39   2.0000      -0.620911       -16.8959
  40   2.0000      -0.599896       -16.3240
  41   2.0000      -0.573162       -15.5965
  42   2.0000      -0.554668       -15.0933
  43   2.0000      -0.548846       -14.9349
  44   2.0000      -0.542520       -14.7627
  45   2.0000      -0.533974       -14.5302
  46   2.0000      -0.524500       -14.2724
  47   2.0000      -0.516618       -14.0579
  48   2.0000      -0.509669       -13.8688
  49   2.0000      -0.500431       -13.6174
  50   2.0000      -0.488559       -13.2944
  51   2.0000      -0.475259       -12.9324
  52   2.0000      -0.472182       -12.8487
  53   2.0000      -0.456644       -12.4259
  54   2.0000      -0.454989       -12.3809
  55   2.0000      -0.450233       -12.2515
  56   2.0000      -0.443298       -12.0628
  57   2.0000      -0.441494       -12.0137
  58   2.0000      -0.431718       -11.7476
  59   2.0000      -0.425773       -11.5859
  60   2.0000      -0.416966       -11.3462
  61   2.0000      -0.412044       -11.2123
  62   2.0000      -0.402692       -10.9578
  63   2.0000      -0.344422        -9.3722
  64   2.0000      -0.336019        -9.1435
  65   2.0000      -0.324536        -8.8311
  66   2.0000      -0.286769        -7.8034
  67   0.0000       0.021031         0.5723
  68   0.0000       0.055281         1.5043
  69   0.0000       0.113509         3.0887
  70   0.0000       0.115074         3.1313
  71   0.0000       0.133738         3.6392

MULLIKEN ATOMIC CHARGES
-----------------------
   0 S :    0.073304
   1 C :   -0.129842
   2 C :   -0.125345
   3 C :    0.053701
   4 C :   -0.167565
   5 H :    0.016152
   6 C :    0.037031
   7 H :    0.015678
   8 H :    0.043703
   9 C :   -0.007411
  10 H :    0.025344
  11 H :    0.028908
  12 C :   -0.059007
  13 H :    0.030334
  14 H :    0.009985
  15 H :    0.031086
  16 S :    0.156514
  17 C :   -0.096244
  18 C :   -0.038171
  19 C :   -0.020257
  20 C :   -0.175483
  21 H :    0.006061
  22 C :    0.096718
  23 H :    0.020695
  24 H :    0.023116
  25 C :   -0.078007
  26 H :    0.027751
  27 H :    0.033023
  28 C :   -0.031267
  29 H :    0.033975
  30 H :    0.012992
  31 H :    0.018457
  32 H :    0.073785
  33 H :    0.060288
Sum of atomic charges:    0.0000000

LOEWDIN ATOMIC CHARGES
----------------------
   0 S :    0.351021
   1 C :   -0.195807
   2 C :   -0.067059
   3 C :   -0.066783
   4 C :   -0.156166
   5 H :    0.032805
   6 C :   -0.026461
   7 H :    0.022080
   8 H :    0.038678
   9 C :   -0.032734
  10 H :    0.023911
  11 H :    0.021578
  12 C :   -0.062915
  13 H :    0.022050
  14 H :    0.016096
  15 H :    0.024583
  16 S :    0.445878
  17 C :   -0.204797
  18 C :   -0.068390
  19 C :   -0.047502
  20 C :   -0.228953
  21 H :    0.025402
  22 C :   -0.028576
  23 H :    0.033300
  24 H :    0.030078
  25 C :   -0.037714
  26 H :    0.027474
  27 H :    0.024542
  28 C :   -0.064821
  29 H :    0.030066
  30 H :    0.018999
  31 H :    0.018792
  32 H :    0.040092
  33 H :    0.041255

  Mayer bond orders larger than 0.100000
B(  0-S ,  1-C ) :   1.1550 B(  0-S ,  4-C ) :   1.1151 B(  1-C ,  2-C ) :   1.5519
B(  1-C ,  4-C ) :   0.1236 B(  1-C , 32-H ) :   0.9679 B(  2-C ,  3-C ) :   1.2803
B(  2-C ,  6-C ) :   1.0063 B(  3-C ,  4-C ) :   1.5551 B(  3-C ,  5-H ) :   0.9872
B(  4-C , 20-C ) :   1.0828 B(  6-C ,  7-H ) :   0.9460 B(  6-C ,  8-H ) :   0.9457
B(  6-C ,  9-C ) :   1.0780 B(  9-C , 10-H ) :   0.9564 B(  9-C , 11-H ) :   0.9539
B(  9-C , 12-C ) :   1.0759 B( 12-C , 13-H ) :   0.9752 B( 12-C , 14-H ) :   0.9761
B( 12-C , 15-H ) :   0.9720 B( 16-S , 17-C ) :   1.1530 B( 16-S , 20-C ) :   1.1567
B( 17-C , 18-C ) :   1.5967 B( 17-C , 33-H ) :   0.9595 B( 18-C , 19-C ) :   1.2913
B( 18-C , 21-H ) :   0.9871 B( 19-C , 20-C ) :   1.5287 B( 19-C , 22-C ) :   1.0322
B( 22-C , 23-H ) :   0.9280 B( 22-C , 24-H ) :   0.9329 B( 22-C , 25-C ) :   1.0898
B( 25-C , 26-H ) :   0.9506 B( 25-C , 27-H ) :   0.9574 B( 25-C , 28-C ) :   1.0701
B( 28-C , 29-H ) :   0.9749 B( 28-C , 30-H ) :   0.9733 B( 28-C , 31-H ) :   0.9767

Dispersion correction           -0.014882242
FINAL SINGLE POINT ENERGY     -1339.846928789633

DIPOLE MOMENT
-------------
                                X             Y             Z
Electronic contribution:    -23.18472       1.44855      13.16043
Nuclear contribution   :     23.80977      -1.30513     -13.25684
                        -----------------------------------------
Total Dipole Moment    :      0.62505       0.14342      -0.09641
                        -----------------------------------------
Magnitude (a.u.)       :      0.64850
Magnitude (Debye)      :      1.64836

Rotational constants in cm-1:     0.020082     0.008696     0.007142
Rotational constants in MHz :   602.044246   260.685229   214.103291

                             ****ORCA TERMINATED NORMALLY****
TOTAL RUN TIME: 0 days 0 hours 0 minutes 34 seconds 220 msec
