                         Program Version 4.2.1 -  RELEASE  -
|  1> ! wB97X-D3 SP def2-SVP
|  2> %pal
|  3> nprocs 16
|  4> end
|  5>
|  6> * xyz 0 1
|  7> S 	 -3.40684 	 -18.1414 	 57.313
|  8> C 	 -2.45276 	 -17.4213 	 56.095
|  9> C 	 -2.91517 	 -16.1532 	 55.7678
| 10> C 	 -4.21816 	 -15.9502 	 56.3223
| 11> C 	 -4.72968 	 -17.0287 	 57.047
| 12> H 	 -4.79786 	 -15.0981 	 56.158
| 13> C 	 -2.17829 	 -15.0605 	 54.9369
| 14> H 	 -1.45412 	 -14.7078 	 55.6591
| 15> H 	 -2.81031 	 -14.1953 	 54.8345
| 16> C 	 -1.41263 	 -15.4778 	 53.5921
| 17> H 	 -0.67402 	 -14.7602 	 53.3349
| 18> H 	 -0.817733 	 -16.3334 	 53.7532
| 19> C 	 -2.40615 	 -15.8315 	 52.36
| 20> H 	 -3.15354 	 -16.5548 	 52.7142
| 21> H 	 -2.89291 	 -14.9509 	 52.0056
| 22> H 	 -1.90481 	 -16.2218 	 51.5382
| 23> S 	 -6.86473 	 -18.7538 	 57.0556
| 24> C 	 -8.40143 	 -18.1656 	 57.7083
| 25> C 	 -8.25143 	 -16.9881 	 58.3447
| 26> C 	 -6.99467 	 -16.3678 	 58.0974
| 27> C 	 -6.03092 	 -17.2776 	 57.5932
| 28> H 	 -9.09362 	 -16.5909 	 58.8926
| 29> C 	 -6.76358 	 -14.8679 	 58.4025
| 30> H 	 -5.68373 	 -14.8242 	 58.4213
| 31> H 	 -7.23106 	 -14.7092 	 59.4263
| 32> C 	 -7.4343 	 -13.9209 	 57.4317
| 33> H 	 -8.49114 	 -14.2004 	 57.4456
| 34> H 	 -7.19168 	 -14.1072 	 56.3866
| 35> C 	 -7.23259 	 -12.4892 	 57.9451
| 36> H 	 -7.9527 	 -11.8189 	 57.5597
| 37> H 	 -6.28752 	 -12.0762 	 57.6074
| 38> H 	 -7.31405 	 -12.3404 	 59.0037
| 39> H 	 -1.41976 	 -17.7108 	 55.8204
| 40> H 	 -9.31181 	 -18.7582 	 57.7624
| 41> *
| 42>
| 43>                          ****END OF INPUT****

CARTESIAN COORDINATES (ANGSTROEM)
---------------------------------
  S     -3.406840  -18.141400   57.313000
  C     -2.452760  -17.421300   56.095000
  C     -2.915170  -16.153200   55.767800
  C     -4.218160  -15.950200   56.322300
  C     -4.729680  -17.028700   57.047000
  H     -4.797860  -15.098100   56.158000
  C     -2.178290  -15.060500   54.936900
  H     -1.454120  -14.707800   55.659100
  H     -2.810310  -14.195300   54.834500
  C     -1.412630  -15.477800   53.592100
  H     -0.674020  -14.760200   53.334900
  H     -0.817733  -16.333400   53.753200
  C     -2.406150  -15.831500   52.360000
  H     -3.153540  -16.554800   52.714200
  H     -2.892910  -14.950900   52.005600
  H     -1.904810  -16.221800   51.538200
  S     -6.864730  -18.753800   57.055600
  C     -8.401430  -18.165600   57.708300
  C     -8.251430  -16.988100   58.344700
  C     -6.994670  -16.367800   58.097400
  C     -6.030920  -17.277600   57.593200
  H     -9.093620  -16.590900   58.892600
  C     -6.763580  -14.867900   58.402500
  H     -5.683730  -14.824200   58.421300
  H     -7.231060  -14.709200   59.426300
  C     -7.434300  -13.920900   57.431700
  H     -8.491140  -14.200400   57.445600
  H     -7.191680  -14.107200   56.386600
  C     -7.232590  -12.489200   57.945100
  H     -7.952700  -11.818900   57.559700
  H     -6.287520  -12.076200   57.607400
  H     -7.314050  -12.340400   59.003700
  H     -1.419760  -17.710800   55.820400
  H     -9.311810  -18.758200   57.762400

 Total Charge           Charge          ....    0
 Multiplicity           Mult            ....    1
 Number of Electrons    NEL             ....  134
 Basis Dimension        Dim             ....  322

ORBITAL ENERGIES
----------------

  NO   OCC          E(Eh)            E(eV)
   0   2.0000     -88.963149     -2420.8104
   1   2.0000     -88.963094     -2420.8089
   2   2.0000     -10.327929      -281.0372
   3   2.0000     -10.327110      -281.0150
   4   2.0000     -10.317052      -280.7412
   5   2.0000     -10.309979      -280.5488
   6   2.0000     -10.307381      -280.4781
   7   2.0000     -10.303177      -280.3637
   8   2.0000     -10.299461      -280.2626
   9   2.0000     -10.295726      -280.1609
  10   2.0000     -10.293318      -280.0954
  11   2.0000     -10.290584      -280.0210
  12   2.0000     -10.290242      -280.0117
  13   2.0000     -10.289808      -279.9999
  14   2.0000     -10.274968      -279.5961
  15   2.0000     -10.274054      -279.5712
  16   2.0000      -8.078599      -219.8299
  17   2.0000      -8.077299      -219.7945
  18   2.0000      -6.037056      -164.2766
  19   2.0000      -6.036025      -164.2486
  20   2.0000      -6.033046      -164.1675
  21   2.0000      -6.031878      -164.1358
  22   2.0000      -6.029318      -164.0661
  23   2.0000      -6.027838      -164.0258
  24   2.0000      -1.006625       -27.3917
  25   2.0000      -0.983910       -26.7735
  26   2.0000      -0.911948       -24.8154
  27   2.0000      -0.897502       -24.4223
  28   2.0000      -0.869553       -23.6617
  29   2.0000      -0.849291       -23.1104
  30   2.0000      -0.842856       -22.9353
  31   2.0000      -0.813031       -22.1237
  32   2.0000      -0.784493       -21.3471
  33   2.0000      -0.771810       -21.0020
  34   2.0000      -0.715236       -19.4626
  35   2.0000      -0.710151       -19.3242
  36   2.0000      -0.698018       -18.9940
  37   2.0000      -0.660407       -17.9706
  38   2.0000      -0.635660       -17.2972
  39   2.0000      -0.614185       -16.7128
  40   2.0000      -0.591488       -16.0952
  41   2.0000      -0.571692       -15.5565
  42   2.0000      -0.568370       -15.4661
  43   2.0000      -0.545344       -14.8396
  44   2.0000      -0.535930       -14.5834
  45   2.0000      -0.523262       -14.2387
  46   2.0000      -0.521679       -14.1956
  47   2.0000      -0.510494       -13.8913
  48   2.0000      -0.501986       -13.6597
  49   2.0000      -0.496637       -13.5142
  50   2.0000      -0.486141       -13.2286
  51   2.0000      -0.480755       -13.0820
  52   2.0000      -0.471885       -12.8406
  53   2.0000      -0.466010       -12.6808
  54   2.0000      -0.459585       -12.5059
  55   2.0000      -0.448111       -12.1937
  56   2.0000      -0.444939       -12.1074
  57   2.0000      -0.440589       -11.9890
  58   2.0000      -0.439297       -11.9539
  59   2.0000      -0.427684       -11.6379
  60   2.0000      -0.422191       -11.4884
  61   2.0000      -0.418920       -11.3994
  62   2.0000      -0.413915       -11.2632
  63   2.0000      -0.351454        -9.5635
  64   2.0000      -0.325734        -8.8637
  65   2.0000      -0.325181        -8.8486
  66   2.0000      -0.288015        -7.8373
  67   0.0000       0.024508         0.6669
  68   0.0000       0.070379         1.9151
  69   0.0000       0.110158         2.9975
  70   0.0000       0.121286         3.3004
  71   0.0000       0.124363         3.3841

MULLIKEN ATOMIC CHARGES
-----------------------
   0 S :    0.120263
   1 C :   -0.126285
   2 C :   -0.113301
   3 C :    0.052900
   4 C :   -0.170579
   5 H :   -0.029891
   6 C :    0.070078
   7 H :    0.037368
   8 H :    0.014293
   9 C :   -0.045240
  10 H :    0.021944
  11 H :    0.013238
  12 C :   -0.039240
  13 H :    0.048707
  14 H :    0.024639
  15 H :    0.021941
  16 S :    0.094728
  17 C :   -0.092637
  18 C :   -0.016102
  19 C :   -0.077723
  20 C :   -0.108206
  21 H :    0.019470
  22 C :    0.034764
  23 H :    0.029683
  24 H :    0.038676
  25 C :   -0.061585
  26 H :    0.019307
  27 H :    0.034729
  28 C :   -0.001767
  29 H :    0.017305
  30 H :    0.028327
  31 H :    0.024404
  32 H :    0.055836
  33 H :    0.059953
Sum of atomic charges:   -0.0000000

LOEWDIN ATOMIC CHARGES
----------------------
   0 S :    0.425194
   1 C :   -0.221678
   2 C :   -0.063519
   3 C :   -0.060010
   4 C :   -0.197278
   5 H :    0.016191
   6 C :   -0.027973
   7 H :    0.036591
   8 H :    0.025524
   9 C :   -0.027712
  10 H :    0.020392
  11 H :    0.016210
  12 C :   -0.056298
  13 H :    0.032787
  14 H :    0.020009
  15 H :    0.015836
  16 S :    0.387626
  17 C :   -0.170931
  18 C :   -0.076785
  19 C :   -0.043366
  20 C :   -0.205314
  21 H :    0.033094
  22 C :   -0.031265
  23 H :    0.025707
  24 H :    0.039332
  25 C :   -0.041377
  26 H :    0.024949
  27 H :    0.025911
  28 C :   -0.059841
  29 H :    0.021558
  30 H :    0.027022
  31 H :    0.025180
  32 H :    0.032593
  33 H :    0.031641

  Mayer bond orders larger than 0.100000
B(  0-S ,  1-C ) :   1.1544 B(  0-S ,  4-C ) :   1.1600 B(  1-C ,  2-C ) :   1.5882
B(  1-C , 32-H ) :   0.9622 B(  2-C ,  3-C ) :   1.2712 B(  2-C ,  6-C ) :   1.0031
B(  3-C ,  4-C ) :   1.5361 B(  3-C ,  5-H ) :   1.0035 B(  4-C , 20-C ) :   1.0507
B(  6-C ,  7-H ) :   0.9333 B(  6-C ,  8-H ) :   0.9500 B(  6-C ,  9-C ) :   1.0647
B(  9-C , 10-H ) :   0.9582 B(  9-C , 11-H ) :   0.9587 B(  9-C , 12-C ) :   1.0628
B( 12-C , 13-H ) :   0.9800 B( 12-C , 14-H ) :   0.9801 B( 12-C , 15-H ) :   0.9784
B( 16-S , 17-C ) :   1.1498 B( 16-S , 20-C ) :   1.1200 B( 17-C , 18-C ) :   1.6359
B( 17-C , 33-H ) :   0.9602 B( 18-C , 19-C ) :   1.2202 B( 18-C , 21-H ) :   0.9876
B( 19-C , 20-C ) :   1.5933 B( 19-C , 22-C ) :   1.0351 B( 22-C , 23-H ) :   0.9373
B( 22-C , 24-H ) :   0.9364 B( 22-C , 25-C ) :   1.0641 B( 25-C , 26-H ) :   0.9510
B( 25-C , 27-H ) :   0.9524 B( 25-C , 28-C ) :   1.0752 B( 28-C , 29-H ) :   0.9720
B( 28-C , 30-H ) :   0.9748 B( 28-C , 31-H ) :   0.9731

Dispersion correction           -0.014118100
FINAL SINGLE POINT ENERGY     -1339.860433411224

DIPOLE MOMENT
-------------
                                X             Y             Z
Electronic contribution:     -3.19855     -24.79698      10.93903
Nuclear contribution   :      3.06162      25.58564     -11.06036
                        -----------------------------------------
Total Dipole Moment    :     -0.13693       0.78866      -0.12133
                        -----------------------------------------
Magnitude (a.u.)       :      0.80960
Magnitude (Debye)      :      2.05784

Rotational constants in cm-1:     0.017429     0.008538     0.006651
Rotational constants in MHz :   522.521582   255.964825   199.397028

                             ****ORCA TERMINATED NORMALLY****
TOTAL RUN TIME: 0 days 0 hours 0 minutes 29 seconds 659 msec
