                         Program Version 4.2.1 -  RELEASE  -
|  1> ! wB97X-D3 SP def2-SVP
|  2> %pal
|  3> nprocs 16
|  4> end
|  5>
|  6> * xyz 0 1
|  7> S 	 44.294 	 15.1801 	 80.7424
|  8> C 	 43.7342 	 16.8795 	 80.5981
|  9> C 	 43.7667 	 17.5834 	 81.8161
| 10> C 	 44.0479 	 16.6501 	 82.9106
| 11> C 	 44.2902 	 15.3249 	 82.4777
| 12> H 	 44.1672 	 16.8488 	 83.9693
| 13> C 	 43.2354 	 18.9324 	 82.122
| 14> H 	 43.8627 	 19.7276 	 81.7063
| 15> H 	 43.3399 	 18.9669 	 83.1691
| 16> C 	 41.7975 	 19.2627 	 81.6223
| 17> H 	 41.622 	 19.2337 	 80.5092
| 18> H 	 41.2553 	 18.3822 	 82.0277
| 19> C 	 41.2352 	 20.6258 	 82.0778
| 20> H 	 40.9251 	 20.7568 	 83.0982
| 21> H 	 41.9272 	 21.4696 	 81.9116
| 22> H 	 40.3294 	 20.8201 	 81.5709
| 23> S 	 43.8339 	 12.7871 	 82.7019
| 24> C 	 44.4234 	 11.8441 	 84.0589
| 25> C 	 45.0639 	 12.6237 	 84.9806
| 26> C 	 45.1601 	 13.9739 	 84.5248
| 27> C 	 44.5812 	 14.1756 	 83.335
| 28> H 	 45.5386 	 12.2114 	 85.8229
| 29> C 	 46.1153 	 14.9417 	 85.234
| 30> H 	 46.2697 	 15.8942 	 84.6834
| 31> H 	 46.9892 	 14.4095 	 85.1922
| 32> C 	 45.7157 	 15.1797 	 86.6793
| 33> H 	 46.5561 	 15.7275 	 87.1684
| 34> H 	 45.7212 	 14.2756 	 87.0981
| 35> C 	 44.3261 	 15.8145 	 86.9301
| 36> H 	 44.2452 	 16.9148 	 86.6774
| 37> H 	 44.134 	 15.6763 	 87.9862
| 38> H 	 43.4967 	 15.3534 	 86.4081
| 39> H 	 43.2656 	 17.2363 	 79.6462
| 40> H 	 44.3208 	 10.8303 	 84.2034
| 41> *
| 42>
| 43>                          ****END OF INPUT****

CARTESIAN COORDINATES (ANGSTROEM)
---------------------------------
  S     44.294000   15.180100   80.742400
  C     43.734200   16.879500   80.598100
  C     43.766700   17.583400   81.816100
  C     44.047900   16.650100   82.910600
  C     44.290200   15.324900   82.477700
  H     44.167200   16.848800   83.969300
  C     43.235400   18.932400   82.122000
  H     43.862700   19.727600   81.706300
  H     43.339900   18.966900   83.169100
  C     41.797500   19.262700   81.622300
  H     41.622000   19.233700   80.509200
  H     41.255300   18.382200   82.027700
  C     41.235200   20.625800   82.077800
  H     40.925100   20.756800   83.098200
  H     41.927200   21.469600   81.911600
  H     40.329400   20.820100   81.570900
  S     43.833900   12.787100   82.701900
  C     44.423400   11.844100   84.058900
  C     45.063900   12.623700   84.980600
  C     45.160100   13.973900   84.524800
  C     44.581200   14.175600   83.335000
  H     45.538600   12.211400   85.822900
  C     46.115300   14.941700   85.234000
  H     46.269700   15.894200   84.683400
  H     46.989200   14.409500   85.192200
  C     45.715700   15.179700   86.679300
  H     46.556100   15.727500   87.168400
  H     45.721200   14.275600   87.098100
  C     44.326100   15.814500   86.930100
  H     44.245200   16.914800   86.677400
  H     44.134000   15.676300   87.986200
  H     43.496700   15.353400   86.408100
  H     43.265600   17.236300   79.646200
  H     44.320800   10.830300   84.203400

 Total Charge           Charge          ....    0
 Multiplicity           Mult            ....    1
 Number of Electrons    NEL             ....  134
 Basis Dimension        Dim             ....  322

ORBITAL ENERGIES
----------------

  NO   OCC          E(Eh)            E(eV)
   0   2.0000     -88.968491     -2420.9557
   1   2.0000     -88.961510     -2420.7658
   2   2.0000     -10.330575      -281.1092
   3   2.0000     -10.320739      -280.8416
   4   2.0000     -10.316388      -280.7232
   5   2.0000     -10.310177      -280.5542
   6   2.0000     -10.307359      -280.4775
   7   2.0000     -10.297307      -280.2040
   8   2.0000     -10.296799      -280.1901
   9   2.0000     -10.296212      -280.1742
  10   2.0000     -10.290115      -280.0083
  11   2.0000     -10.288890      -279.9749
  12   2.0000     -10.284283      -279.8496
  13   2.0000     -10.281264      -279.7674
  14   2.0000     -10.280421      -279.7445
  15   2.0000     -10.276514      -279.6382
  16   2.0000      -8.082466      -219.9351
  17   2.0000      -8.077666      -219.8045
  18   2.0000      -6.041011      -164.3843
  19   2.0000      -6.037169      -164.2797
  20   2.0000      -6.036170      -164.2525
  21   2.0000      -6.033149      -164.1703
  22   2.0000      -6.031982      -164.1386
  23   2.0000      -6.028297      -164.0383
  24   2.0000      -1.014608       -27.6089
  25   2.0000      -0.978761       -26.6334
  26   2.0000      -0.916085       -24.9279
  27   2.0000      -0.910254       -24.7693
  28   2.0000      -0.869964       -23.6729
  29   2.0000      -0.850262       -23.1368
  30   2.0000      -0.845849       -23.0167
  31   2.0000      -0.812247       -22.1024
  32   2.0000      -0.785388       -21.3715
  33   2.0000      -0.778215       -21.1763
  34   2.0000      -0.709611       -19.3095
  35   2.0000      -0.707385       -19.2489
  36   2.0000      -0.693253       -18.8644
  37   2.0000      -0.672804       -18.3079
  38   2.0000      -0.636480       -17.3195
  39   2.0000      -0.613729       -16.7004
  40   2.0000      -0.599898       -16.3240
  41   2.0000      -0.564962       -15.3734
  42   2.0000      -0.562582       -15.3086
  43   2.0000      -0.557570       -15.1723
  44   2.0000      -0.541922       -14.7464
  45   2.0000      -0.523990       -14.2585
  46   2.0000      -0.521677       -14.1955
  47   2.0000      -0.513346       -13.9689
  48   2.0000      -0.505148       -13.7458
  49   2.0000      -0.496796       -13.5185
  50   2.0000      -0.493763       -13.4360
  51   2.0000      -0.478871       -13.0307
  52   2.0000      -0.468441       -12.7469
  53   2.0000      -0.466697       -12.6995
  54   2.0000      -0.453996       -12.3539
  55   2.0000      -0.450062       -12.2468
  56   2.0000      -0.449211       -12.2237
  57   2.0000      -0.440077       -11.9751
  58   2.0000      -0.435088       -11.8394
  59   2.0000      -0.429122       -11.6770
  60   2.0000      -0.424657       -11.5555
  61   2.0000      -0.414705       -11.2847
  62   2.0000      -0.411924       -11.2090
  63   2.0000      -0.350835        -9.5467
  64   2.0000      -0.330519        -8.9939
  65   2.0000      -0.328619        -8.9422
  66   2.0000      -0.287934        -7.8351
  67   0.0000       0.026983         0.7342
  68   0.0000       0.076137         2.0718
  69   0.0000       0.101463         2.7610
  70   0.0000       0.114512         3.1160
  71   0.0000       0.131571         3.5802

MULLIKEN ATOMIC CHARGES
-----------------------
   0 S :    0.110048
   1 C :   -0.155886
   2 C :   -0.075212
   3 C :    0.008402
   4 C :   -0.135624
   5 H :    0.002708
   6 C :    0.111553
   7 H :    0.031121
   8 H :    0.008211
   9 C :   -0.116172
  10 H :    0.043398
  11 H :    0.040471
  12 C :   -0.028887
  13 H :    0.023097
  14 H :    0.030580
  15 H :    0.022132
  16 S :    0.095120
  17 C :   -0.043814
  18 C :   -0.030399
  19 C :   -0.074039
  20 C :   -0.130055
  21 H :    0.005502
  22 C :    0.093992
  23 H :    0.028854
  24 H :    0.012037
  25 C :   -0.038646
  26 H :    0.032535
  27 H :   -0.011654
  28 C :   -0.070123
  29 H :    0.043733
  30 H :    0.034071
  31 H :    0.042664
  32 H :    0.070094
  33 H :    0.020185
Sum of atomic charges:   -0.0000000

LOEWDIN ATOMIC CHARGES
----------------------
   0 S :    0.390101
   1 C :   -0.194756
   2 C :   -0.056267
   3 C :   -0.069173
   4 C :   -0.193931
   5 H :    0.027931
   6 C :   -0.034006
   7 H :    0.033340
   8 H :    0.026161
   9 C :   -0.042528
  10 H :    0.031125
  11 H :    0.029845
  12 C :   -0.069340
  13 H :    0.023211
  14 H :    0.028639
  15 H :    0.023634
  16 S :    0.419418
  17 C :   -0.163702
  18 C :   -0.060533
  19 C :   -0.062074
  20 C :   -0.208974
  21 H :    0.024688
  22 C :   -0.019659
  23 H :    0.030377
  24 H :    0.022688
  25 C :   -0.033144
  26 H :    0.031710
  27 H :    0.003344
  28 C :   -0.068702
  29 H :    0.028754
  30 H :    0.028237
  31 H :    0.026820
  32 H :    0.034456
  33 H :    0.012310

  Mayer bond orders larger than 0.100000
B(  0-S ,  1-C ) :   1.1240 B(  0-S ,  4-C ) :   1.1531 B(  1-C ,  2-C ) :   1.5988
B(  1-C , 32-H ) :   0.9636 B(  2-C ,  3-C ) :   1.2195 B(  2-C ,  6-C ) :   1.0448
B(  3-C ,  4-C ) :   1.5907 B(  3-C ,  5-H ) :   0.9835 B(  4-C , 20-C ) :   1.0141
B(  6-C ,  7-H ) :   0.9177 B(  6-C ,  8-H ) :   0.9426 B(  6-C ,  9-C ) :   1.0540
B(  9-C , 10-H ) :   0.9570 B(  9-C , 11-H ) :   0.9589 B(  9-C , 12-C ) :   1.0762
B( 12-C , 13-H ) :   0.9746 B( 12-C , 14-H ) :   0.9740 B( 12-C , 15-H ) :   0.9739
B( 16-S , 17-C ) :   1.1448 B( 16-S , 20-C ) :   1.1337 B( 17-C , 18-C ) :   1.6377
B( 17-C , 33-H ) :   0.9763 B( 18-C , 19-C ) :   1.2066 B( 18-C , 21-H ) :   0.9954
B( 19-C , 20-C ) :   1.6585 B( 19-C , 22-C ) :   1.0140 B( 22-C , 23-H ) :   0.9448
B( 22-C , 24-H ) :   0.9338 B( 22-C , 25-C ) :   1.0779 B( 25-C , 26-H ) :   0.9514
B( 25-C , 27-H ) :   0.9515 B( 25-C , 28-C ) :   1.0793 B( 28-C , 29-H ) :   0.9719
B( 28-C , 30-H ) :   0.9735 B( 28-C , 31-H ) :   0.9709

Dispersion correction           -0.014379984
FINAL SINGLE POINT ENERGY     -1339.856494820840

DIPOLE MOMENT
-------------
                                X             Y             Z
Electronic contribution:      5.01003     -23.23971     -15.50573
Nuclear contribution   :     -4.99567      23.52422      16.04006
                        -----------------------------------------
Total Dipole Moment    :      0.01435       0.28451       0.53434
                        -----------------------------------------
Magnitude (a.u.)       :      0.60553
Magnitude (Debye)      :      1.53914

Rotational constants in cm-1:     0.019746     0.008359     0.006477
Rotational constants in MHz :   591.957965   250.609050   194.187037

                             ****ORCA TERMINATED NORMALLY****
TOTAL RUN TIME: 0 days 0 hours 0 minutes 30 seconds 753 msec
