                         Program Version 4.2.1 -  RELEASE  -
|  1> ! wB97X-D3 SP def2-SVP
|  2> %pal
|  3> nprocs 16
|  4> end
|  5>
|  6> * xyz 0 1
|  7> S 	 -102.06 	 58.4293 	 121.03
|  8> C 	 -101.817 	 59.7916 	 120.056
|  9> C 	 -102.869 	 60.029 	 119.154
| 10> C 	 -103.867 	 58.9778 	 119.189
| 11> C 	 -103.58 	 58.0182 	 120.177
| 12> H 	 -104.767 	 58.8342 	 118.541
| 13> C 	 -102.825 	 61.1193 	 118.032
| 14> H 	 -102.354 	 62.0565 	 118.458
| 15> H 	 -103.807 	 61.4438 	 117.666
| 16> C 	 -102.014 	 60.8516 	 116.743
| 17> H 	 -102.317 	 59.9304 	 116.317
| 18> H 	 -102.298 	 61.6831 	 116.119
| 19> C 	 -100.518 	 60.8704 	 116.875
| 20> H 	 -100.341 	 59.9716 	 117.466
| 21> H 	 -99.9851 	 60.5792 	 115.975
| 22> H 	 -100.074 	 61.7845 	 117.261
| 23> S 	 -103.424 	 55.327 	 121.034
| 24> C 	 -104.95 	 54.5064 	 121.212
| 25> C 	 -106.032 	 55.3067 	 121.119
| 26> C 	 -105.733 	 56.6056 	 120.717
| 27> C 	 -104.34 	 56.82 	 120.556
| 28> H 	 -107.027 	 54.9598 	 121.114
| 29> C 	 -106.83 	 57.6259 	 120.446
| 30> H 	 -107.78 	 57.1142 	 120.193
| 31> H 	 -106.576 	 58.1224 	 119.491
| 32> C 	 -106.812 	 58.76 	 121.535
| 33> H 	 -105.961 	 59.2392 	 121.84
| 34> H 	 -107.215 	 58.2823 	 122.432
| 35> C 	 -107.695 	 59.9107 	 120.981
| 36> H 	 -108.696 	 59.4524 	 120.694
| 37> H 	 -107.262 	 60.244 	 120.076
| 38> H 	 -107.788 	 60.6817 	 121.698
| 39> H 	 -100.889 	 60.3777 	 120.052
| 40> H 	 -104.967 	 53.5185 	 121.506
| 41> *
| 42>
| 43>                          ****END OF INPUT****

CARTESIAN COORDINATES (ANGSTROEM)
---------------------------------
  S    -102.060000   58.429300  121.030000
  C    -101.817000   59.791600  120.056000
  C    -102.869000   60.029000  119.154000
  C    -103.867000   58.977800  119.189000
  C    -103.580000   58.018200  120.177000
  H    -104.767000   58.834200  118.541000
  C    -102.825000   61.119300  118.032000
  H    -102.354000   62.056500  118.458000
  H    -103.807000   61.443800  117.666000
  C    -102.014000   60.851600  116.743000
  H    -102.317000   59.930400  116.317000
  H    -102.298000   61.683100  116.119000
  C    -100.518000   60.870400  116.875000
  H    -100.341000   59.971600  117.466000
  H    -99.985100   60.579200  115.975000
  H    -100.074000   61.784500  117.261000
  S    -103.424000   55.327000  121.034000
  C    -104.950000   54.506400  121.212000
  C    -106.032000   55.306700  121.119000
  C    -105.733000   56.605600  120.717000
  C    -104.340000   56.820000  120.556000
  H    -107.027000   54.959800  121.114000
  C    -106.830000   57.625900  120.446000
  H    -107.780000   57.114200  120.193000
  H    -106.576000   58.122400  119.491000
  C    -106.812000   58.760000  121.535000
  H    -105.961000   59.239200  121.840000
  H    -107.215000   58.282300  122.432000
  C    -107.695000   59.910700  120.981000
  H    -108.696000   59.452400  120.694000
  H    -107.262000   60.244000  120.076000
  H    -107.788000   60.681700  121.698000
  H    -100.889000   60.377700  120.052000
  H    -104.967000   53.518500  121.506000

 Total Charge           Charge          ....    0
 Multiplicity           Mult            ....    1
 Number of Electrons    NEL             ....  134
 Basis Dimension        Dim             ....  322

ORBITAL ENERGIES
----------------

  NO   OCC          E(Eh)            E(eV)
   0   2.0000     -88.968282     -2420.9500
   1   2.0000     -88.967163     -2420.9196
   2   2.0000     -10.334924      -281.2276
   3   2.0000     -10.331903      -281.1454
   4   2.0000     -10.314436      -280.6701
   5   2.0000     -10.310613      -280.5660
   6   2.0000     -10.309176      -280.5269
   7   2.0000     -10.303988      -280.3858
   8   2.0000     -10.303189      -280.3640
   9   2.0000     -10.300137      -280.2810
  10   2.0000     -10.298996      -280.2499
  11   2.0000     -10.284739      -279.8620
  12   2.0000     -10.281112      -279.7633
  13   2.0000     -10.279386      -279.7163
  14   2.0000     -10.273771      -279.5635
  15   2.0000     -10.271942      -279.5138
  16   2.0000      -8.083283      -219.9573
  17   2.0000      -8.081227      -219.9014
  18   2.0000      -6.041696      -164.4029
  19   2.0000      -6.039657      -164.3474
  20   2.0000      -6.037700      -164.2942
  21   2.0000      -6.035976      -164.2473
  22   2.0000      -6.034192      -164.1987
  23   2.0000      -6.031988      -164.1387
  24   2.0000      -1.001302       -27.2468
  25   2.0000      -0.982622       -26.7385
  26   2.0000      -0.908327       -24.7168
  27   2.0000      -0.907157       -24.6850
  28   2.0000      -0.867063       -23.5940
  29   2.0000      -0.854801       -23.2603
  30   2.0000      -0.847166       -23.0526
  31   2.0000      -0.810555       -22.0563
  32   2.0000      -0.782293       -21.2873
  33   2.0000      -0.768306       -20.9067
  34   2.0000      -0.709515       -19.3069
  35   2.0000      -0.697674       -18.9847
  36   2.0000      -0.690231       -18.7822
  37   2.0000      -0.664175       -18.0731
  38   2.0000      -0.639881       -17.4121
  39   2.0000      -0.615693       -16.7539
  40   2.0000      -0.602237       -16.3877
  41   2.0000      -0.573352       -15.6017
  42   2.0000      -0.561619       -15.2824
  43   2.0000      -0.547821       -14.9070
  44   2.0000      -0.538452       -14.6520
  45   2.0000      -0.534119       -14.5341
  46   2.0000      -0.513549       -13.9744
  47   2.0000      -0.511182       -13.9100
  48   2.0000      -0.496586       -13.5128
  49   2.0000      -0.495489       -13.4829
  50   2.0000      -0.491061       -13.3624
  51   2.0000      -0.484361       -13.1801
  52   2.0000      -0.472317       -12.8524
  53   2.0000      -0.464597       -12.6423
  54   2.0000      -0.458516       -12.4769
  55   2.0000      -0.451872       -12.2961
  56   2.0000      -0.445971       -12.1355
  57   2.0000      -0.437514       -11.9054
  58   2.0000      -0.429353       -11.6833
  59   2.0000      -0.427475       -11.6322
  60   2.0000      -0.423967       -11.5367
  61   2.0000      -0.409396       -11.1402
  62   2.0000      -0.406702       -11.0669
  63   2.0000      -0.352254        -9.5853
  64   2.0000      -0.336148        -9.1471
  65   2.0000      -0.329225        -8.9587
  66   2.0000      -0.281217        -7.6523
  67   0.0000       0.020423         0.5557
  68   0.0000       0.069959         1.9037
  69   0.0000       0.101977         2.7749
  70   0.0000       0.117234         3.1901
  71   0.0000       0.137633         3.7452

MULLIKEN ATOMIC CHARGES
-----------------------
   0 S :    0.116191
   1 C :   -0.123267
   2 C :   -0.077897
   3 C :   -0.001196
   4 C :   -0.153616
   5 H :    0.039562
   6 C :    0.020104
   7 H :    0.025048
   8 H :    0.025751
   9 C :   -0.036414
  10 H :    0.019434
  11 H :    0.022285
  12 C :   -0.050982
  13 H :    0.025617
  14 H :    0.026596
  15 H :    0.034571
  16 S :    0.094294
  17 C :   -0.052174
  18 C :   -0.001367
  19 C :   -0.035895
  20 C :   -0.156838
  21 H :   -0.000796
  22 C :    0.040842
  23 H :    0.033439
  24 H :    0.007878
  25 C :   -0.040511
  26 H :    0.030341
  27 H :    0.026930
  28 C :   -0.027200
  29 H :    0.025702
  30 H :    0.020203
  31 H :    0.031272
  32 H :    0.063247
  33 H :    0.028844
Sum of atomic charges:   -0.0000000

LOEWDIN ATOMIC CHARGES
----------------------
   0 S :    0.414804
   1 C :   -0.220175
   2 C :   -0.068388
   3 C :   -0.071069
   4 C :   -0.182144
   5 H :    0.039917
   6 C :   -0.035281
   7 H :    0.033296
   8 H :    0.029841
   9 C :   -0.035313
  10 H :    0.019658
  11 H :    0.021467
  12 C :   -0.072399
  13 H :    0.028649
  14 H :    0.027810
  15 H :    0.022817
  16 S :    0.382571
  17 C :   -0.161386
  18 C :   -0.071994
  19 C :   -0.047416
  20 C :   -0.186648
  21 H :    0.026943
  22 C :   -0.029635
  23 H :    0.035410
  24 H :    0.026238
  25 C :   -0.023938
  26 H :    0.017292
  27 H :    0.024374
  28 C :   -0.054275
  29 H :    0.028234
  30 H :    0.016647
  31 H :    0.018304
  32 H :    0.033687
  33 H :    0.012100

  Mayer bond orders larger than 0.100000
B(  0-S ,  1-C ) :   1.1588 B(  0-S ,  4-C ) :   1.1463 B(  1-C ,  2-C ) :   1.5878
B(  1-C , 32-H ) :   0.9621 B(  2-C ,  3-C ) :   1.2454 B(  2-C ,  6-C ) :   1.0260
B(  3-C ,  4-C ) :   1.5664 B(  3-C ,  5-H ) :   0.9825 B(  4-C , 20-C ) :   1.0737
B(  6-C ,  7-H ) :   0.9433 B(  6-C ,  8-H ) :   0.9481 B(  6-C ,  9-C ) :   1.0647
B(  9-C , 10-H ) :   0.9541 B(  9-C , 11-H ) :   0.9531 B(  9-C , 12-C ) :   1.0934
B( 12-C , 13-H ) :   0.9692 B( 12-C , 14-H ) :   0.9682 B( 12-C , 15-H ) :   0.9744
B( 16-S , 17-C ) :   1.1629 B( 16-S , 20-C ) :   1.1278 B( 17-C , 18-C ) :   1.5885
B( 17-C , 20-C ) :   0.1049 B( 17-C , 33-H ) :   0.9734 B( 18-C , 19-C ) :   1.2797
B( 18-C , 21-H ) :   0.9943 B( 19-C , 20-C ) :   1.5620 B( 19-C , 22-C ) :   1.0307
B( 22-C , 23-H ) :   0.9384 B( 22-C , 24-H ) :   0.9418 B( 22-C , 25-C ) :   1.0363
B( 25-C , 26-H ) :   0.9654 B( 25-C , 27-H ) :   0.9563 B( 25-C , 28-C ) :   1.0749
B( 28-C , 29-H ) :   0.9735 B( 28-C , 30-H ) :   0.9775 B( 28-C , 31-H ) :   0.9752

Dispersion correction           -0.014607167
FINAL SINGLE POINT ENERGY     -1339.863475443642

DIPOLE MOMENT
-------------
                                X             Y             Z
Electronic contribution:      9.02055     -20.02745      12.99982
Nuclear contribution   :     -9.41432      20.22309     -13.32088
                        -----------------------------------------
Total Dipole Moment    :     -0.39377       0.19564      -0.32106
                        -----------------------------------------
Magnitude (a.u.)       :      0.54443
Magnitude (Debye)      :      1.38384

Rotational constants in cm-1:     0.019383     0.008558     0.006787
Rotational constants in MHz :   581.099604   256.551125   203.472375

                             ****ORCA TERMINATED NORMALLY****
TOTAL RUN TIME: 0 days 0 hours 0 minutes 34 seconds 293 msec
