                         Program Version 4.2.1 -  RELEASE  -
|  1> ! wB97X-D3 SP def2-SVP
|  2> %pal
|  3> nprocs 16
|  4> end
|  5>
|  6> * xyz 0 1
|  7> S 	 -11.178 	 64.6262 	 53.2148
|  8> C 	 -11.4079 	 62.9328 	 52.815
|  9> C 	 -10.5197 	 62.1192 	 53.503
| 10> C 	 -9.69681 	 62.8912 	 54.3569
| 11> C 	 -9.97716 	 64.2456 	 54.4134
| 12> H 	 -8.83066 	 62.6255 	 54.9138
| 13> C 	 -10.3162 	 60.6494 	 53.1489
| 14> H 	 -9.6249 	 60.1427 	 53.8035
| 15> H 	 -9.81396 	 60.6237 	 52.1934
| 16> C 	 -11.6279 	 59.8072 	 53.2776
| 17> H 	 -12.2536 	 60.1934 	 54.0691
| 18> H 	 -12.3766 	 60.0577 	 52.5111
| 19> C 	 -11.509 	 58.248 	 53.2576
| 20> H 	 -10.6967 	 57.8535 	 53.9015
| 21> H 	 -12.4424 	 57.8078 	 53.5925
| 22> H 	 -11.2661 	 57.8827 	 52.2462
| 23> S 	 -8.25412 	 66.1115 	 53.5675
| 24> C 	 -7.47962 	 67.1784 	 54.7403
| 25> C 	 -7.88385 	 66.9147 	 56.0804
| 26> C 	 -8.766 	 65.7819 	 56.1603
| 27> C 	 -9.1623 	 65.2943 	 54.8848
| 28> H 	 -7.54523 	 67.5927 	 56.9334
| 29> C 	 -9.43276 	 65.4594 	 57.5089
| 30> H 	 -9.9814 	 66.3784 	 57.7605
| 31> H 	 -8.5662 	 65.3593 	 58.1796
| 32> C 	 -10.3402 	 64.1855 	 57.5931
| 33> H 	 -9.94181 	 63.3233 	 57.0162
| 34> H 	 -11.2198 	 64.4928 	 57.0778
| 35> C 	 -10.854 	 63.6881 	 58.9639
| 36> H 	 -11.2245 	 62.7909 	 58.7402
| 37> H 	 -11.6462 	 64.3057 	 59.4683
| 38> H 	 -10.0674 	 63.5135 	 59.646
| 39> H 	 -12.1834 	 62.6286 	 52.1827
| 40> H 	 -6.73278 	 67.9499 	 54.4955
| 41> *
| 42>
| 43>                          ****END OF INPUT****

CARTESIAN COORDINATES (ANGSTROEM)
---------------------------------
  S    -11.178000   64.626200   53.214800
  C    -11.407900   62.932800   52.815000
  C    -10.519700   62.119200   53.503000
  C     -9.696810   62.891200   54.356900
  C     -9.977160   64.245600   54.413400
  H     -8.830660   62.625500   54.913800
  C    -10.316200   60.649400   53.148900
  H     -9.624900   60.142700   53.803500
  H     -9.813960   60.623700   52.193400
  C    -11.627900   59.807200   53.277600
  H    -12.253600   60.193400   54.069100
  H    -12.376600   60.057700   52.511100
  C    -11.509000   58.248000   53.257600
  H    -10.696700   57.853500   53.901500
  H    -12.442400   57.807800   53.592500
  H    -11.266100   57.882700   52.246200
  S     -8.254120   66.111500   53.567500
  C     -7.479620   67.178400   54.740300
  C     -7.883850   66.914700   56.080400
  C     -8.766000   65.781900   56.160300
  C     -9.162300   65.294300   54.884800
  H     -7.545230   67.592700   56.933400
  C     -9.432760   65.459400   57.508900
  H     -9.981400   66.378400   57.760500
  H     -8.566200   65.359300   58.179600
  C    -10.340200   64.185500   57.593100
  H     -9.941810   63.323300   57.016200
  H    -11.219800   64.492800   57.077800
  C    -10.854000   63.688100   58.963900
  H    -11.224500   62.790900   58.740200
  H    -11.646200   64.305700   59.468300
  H    -10.067400   63.513500   59.646000
  H    -12.183400   62.628600   52.182700
  H     -6.732780   67.949900   54.495500

 Total Charge           Charge          ....    0
 Multiplicity           Mult            ....    1
 Number of Electrons    NEL             ....  134
 Basis Dimension        Dim             ....  322

ORBITAL ENERGIES
----------------

  NO   OCC          E(Eh)            E(eV)
   0   2.0000     -88.966123     -2420.8913
   1   2.0000     -88.963435     -2420.8181
   2   2.0000     -10.327174      -281.0167
   3   2.0000     -10.323754      -280.9236
   4   2.0000     -10.321942      -280.8743
   5   2.0000     -10.311622      -280.5935
   6   2.0000     -10.310897      -280.5738
   7   2.0000     -10.304090      -280.3885
   8   2.0000     -10.303814      -280.3810
   9   2.0000     -10.295999      -280.1684
  10   2.0000     -10.295125      -280.1446
  11   2.0000     -10.290834      -280.0278
  12   2.0000     -10.290540      -280.0198
  13   2.0000     -10.285622      -279.8860
  14   2.0000     -10.282775      -279.8085
  15   2.0000     -10.266603      -279.3685
  16   2.0000      -8.079763      -219.8615
  17   2.0000      -8.078493      -219.8270
  18   2.0000      -6.038276      -164.3098
  19   2.0000      -6.036789      -164.2694
  20   2.0000      -6.034428      -164.2051
  21   2.0000      -6.032906      -164.1637
  22   2.0000      -6.030557      -164.0998
  23   2.0000      -6.029481      -164.0705
  24   2.0000      -1.006800       -27.3964
  25   2.0000      -0.973929       -26.5020
  26   2.0000      -0.906994       -24.6806
  27   2.0000      -0.898723       -24.4555
  28   2.0000      -0.868124       -23.6229
  29   2.0000      -0.850727       -23.1494
  30   2.0000      -0.846687       -23.0395
  31   2.0000      -0.809818       -22.0363
  32   2.0000      -0.784439       -21.3457
  33   2.0000      -0.769184       -20.9306
  34   2.0000      -0.713605       -19.4182
  35   2.0000      -0.708157       -19.2699
  36   2.0000      -0.685955       -18.6658
  37   2.0000      -0.657831       -17.9005
  38   2.0000      -0.649766       -17.6810
  39   2.0000      -0.609849       -16.5948
  40   2.0000      -0.583334       -15.8733
  41   2.0000      -0.564694       -15.3661
  42   2.0000      -0.562896       -15.3172
  43   2.0000      -0.553216       -15.0538
  44   2.0000      -0.526383       -14.3236
  45   2.0000      -0.524300       -14.2669
  46   2.0000      -0.519026       -14.1234
  47   2.0000      -0.511940       -13.9306
  48   2.0000      -0.501560       -13.6481
  49   2.0000      -0.499922       -13.6036
  50   2.0000      -0.492021       -13.3886
  51   2.0000      -0.482806       -13.1378
  52   2.0000      -0.473943       -12.8966
  53   2.0000      -0.462262       -12.5788
  54   2.0000      -0.457068       -12.4375
  55   2.0000      -0.447564       -12.1788
  56   2.0000      -0.443173       -12.0594
  57   2.0000      -0.438596       -11.9348
  58   2.0000      -0.427238       -11.6257
  59   2.0000      -0.425956       -11.5909
  60   2.0000      -0.422331       -11.4922
  61   2.0000      -0.412833       -11.2338
  62   2.0000      -0.407106       -11.0779
  63   2.0000      -0.339986        -9.2515
  64   2.0000      -0.330286        -8.9875
  65   2.0000      -0.324424        -8.8280
  66   2.0000      -0.290353        -7.9009
  67   0.0000       0.032528         0.8851
  68   0.0000       0.052780         1.4362
  69   0.0000       0.117024         3.1844
  70   0.0000       0.117833         3.2064
  71   0.0000       0.124499         3.3878

MULLIKEN ATOMIC CHARGES
-----------------------
   0 S :    0.104600
   1 C :   -0.116203
   2 C :   -0.075932
   3 C :    0.061121
   4 C :   -0.186406
   5 H :    0.007463
   6 C :    0.109028
   7 H :    0.010621
   8 H :    0.046084
   9 C :   -0.113429
  10 H :    0.025338
  11 H :    0.019632
  12 C :   -0.046765
  13 H :    0.033030
  14 H :    0.038114
  15 H :    0.036632
  16 S :    0.111275
  17 C :   -0.102283
  18 C :   -0.073515
  19 C :   -0.020942
  20 C :   -0.185144
  21 H :    0.051035
  22 C :    0.045170
  23 H :    0.050033
  24 H :    0.027715
  25 C :   -0.112574
  26 H :    0.035485
  27 H :    0.030324
  28 C :    0.034513
  29 H :   -0.000691
  30 H :    0.039078
  31 H :    0.013639
  32 H :    0.036285
  33 H :    0.067670
Sum of atomic charges:   -0.0000000

LOEWDIN ATOMIC CHARGES
----------------------
   0 S :    0.414138
   1 C :   -0.182181
   2 C :   -0.062209
   3 C :   -0.054875
   4 C :   -0.209417
   5 H :    0.027133
   6 C :   -0.025468
   7 H :    0.026530
   8 H :    0.035103
   9 C :   -0.051985
  10 H :    0.025337
  11 H :    0.023633
  12 C :   -0.066520
  13 H :    0.024992
  14 H :    0.028638
  15 H :    0.027286
  16 S :    0.390213
  17 C :   -0.187181
  18 C :   -0.083119
  19 C :   -0.052123
  20 C :   -0.198848
  21 H :    0.046224
  22 C :   -0.031741
  23 H :    0.039233
  24 H :    0.029481
  25 C :   -0.044432
  26 H :    0.029117
  27 H :    0.024781
  28 C :   -0.051728
  29 H :    0.012157
  30 H :    0.032409
  31 H :    0.017568
  32 H :    0.014851
  33 H :    0.033006

  Mayer bond orders larger than 0.100000
B(  0-S ,  1-C ) :   1.1576 B(  0-S ,  4-C ) :   1.1538 B(  1-C ,  2-C ) :   1.5653
B(  1-C ,  4-C ) :   0.1043 B(  1-C , 32-H ) :   0.9827 B(  2-C ,  3-C ) :   1.2606
B(  2-C ,  6-C ) :   1.0194 B(  3-C ,  4-C ) :   1.5612 B(  3-C ,  5-H ) :   0.9894
B(  4-C , 20-C ) :   1.0538 B(  6-C ,  7-H ) :   0.9456 B(  6-C ,  8-H ) :   0.9414
B(  6-C ,  9-C ) :   1.0386 B(  9-C , 10-H ) :   0.9627 B(  9-C , 11-H ) :   0.9498
B(  9-C , 12-C ) :   1.0792 B( 12-C , 13-H ) :   0.9775 B( 12-C , 14-H ) :   0.9747
B( 12-C , 15-H ) :   0.9764 B( 16-S , 17-C ) :   1.1584 B( 16-S , 20-C ) :   1.1282
B( 17-C , 18-C ) :   1.6088 B( 17-C , 20-C ) :   0.1086 B( 17-C , 33-H ) :   0.9630
B( 18-C , 19-C ) :   1.2400 B( 18-C , 21-H ) :   0.9766 B( 19-C , 20-C ) :   1.5815
B( 19-C , 22-C ) :   1.0197 B( 22-C , 23-H ) :   0.9458 B( 22-C , 24-H ) :   0.9337
B( 22-C , 25-C ) :   1.0670 B( 25-C , 26-H ) :   0.9563 B( 25-C , 27-H ) :   0.9445
B( 25-C , 28-C ) :   1.0810 B( 28-C , 29-H ) :   0.9671 B( 28-C , 30-H ) :   0.9748
B( 28-C , 31-H ) :   0.9713

Dispersion correction           -0.014031748
FINAL SINGLE POINT ENERGY     -1339.853800861095

DIPOLE MOMENT
-------------
                                X             Y             Z
Electronic contribution:      7.67673      23.30814     -13.79366
Nuclear contribution   :     -7.65130     -23.69416      14.05763
                        -----------------------------------------
Total Dipole Moment    :      0.02542      -0.38602       0.26397
                        -----------------------------------------
Magnitude (a.u.)       :      0.46833
Magnitude (Debye)      :      1.19041

Rotational constants in cm-1:     0.019436     0.008103     0.006433
Rotational constants in MHz :   582.682360   242.926166   192.856094

                             ****ORCA TERMINATED NORMALLY****
TOTAL RUN TIME: 0 days 0 hours 0 minutes 31 seconds 414 msec
