                         Program Version 4.2.1 -  RELEASE  -
|  1> ! wB97X-D3 SP def2-SVP
|  2> %pal
|  3> nprocs 16
|  4> end
|  5>
|  6> * xyz 0 1
|  7> S 	 -42.8676 	 37.0607 	 81.4502
|  8> C 	 -41.8161 	 38.2112 	 80.7489
|  9> C 	 -42.3523 	 38.8079 	 79.6591
| 10> C 	 -43.7752 	 38.5659 	 79.5301
| 11> C 	 -44.223 	 37.5473 	 80.3856
| 12> H 	 -44.5143 	 39.0915 	 78.8878
| 13> C 	 -41.6018 	 39.7479 	 78.7217
| 14> H 	 -41.1924 	 40.4749 	 79.5276
| 15> H 	 -42.1944 	 40.3132 	 78.0694
| 16> C 	 -40.4869 	 39.0473 	 77.967
| 17> H 	 -39.9082 	 39.7731 	 77.5564
| 18> H 	 -39.7841 	 38.7758 	 78.7033
| 19> C 	 -40.8874 	 37.8119 	 77.0054
| 20> H 	 -39.9822 	 37.3495 	 76.5879
| 21> H 	 -41.4026 	 36.9846 	 77.476
| 22> H 	 -41.5203 	 38.2346 	 76.2054
| 23> S 	 -46.2159 	 36.5906 	 78.847
| 24> C 	 -47.6914 	 36.0605 	 79.6591
| 25> C 	 -47.5995 	 35.999 	 81.0322
| 26> C 	 -46.3841 	 36.5791 	 81.4893
| 27> C 	 -45.5483 	 36.9816 	 80.4469
| 28> H 	 -48.4323 	 35.7176 	 81.6336
| 29> C 	 -46.2331 	 36.8864 	 82.9843
| 30> H 	 -45.2149 	 36.6009 	 83.289
| 31> H 	 -46.8685 	 36.1932 	 83.527
| 32> C 	 -46.2756 	 38.3731 	 83.3869
| 33> H 	 -45.4533 	 38.7976 	 82.7966
| 34> H 	 -45.986 	 38.5542 	 84.4965
| 35> C 	 -47.6886 	 39.0248 	 83.0274
| 36> H 	 -47.6184 	 39.8808 	 82.3241
| 37> H 	 -48.2831 	 39.4894 	 83.7868
| 38> H 	 -48.3115 	 38.2569 	 82.5871
| 39> H 	 -40.7452 	 38.3082 	 80.9749
| 40> H 	 -48.5641 	 35.6138 	 79.1615
| 41> *
| 42>
| 43>                          ****END OF INPUT****

CARTESIAN COORDINATES (ANGSTROEM)
---------------------------------
  S    -42.867600   37.060700   81.450200
  C    -41.816100   38.211200   80.748900
  C    -42.352300   38.807900   79.659100
  C    -43.775200   38.565900   79.530100
  C    -44.223000   37.547300   80.385600
  H    -44.514300   39.091500   78.887800
  C    -41.601800   39.747900   78.721700
  H    -41.192400   40.474900   79.527600
  H    -42.194400   40.313200   78.069400
  C    -40.486900   39.047300   77.967000
  H    -39.908200   39.773100   77.556400
  H    -39.784100   38.775800   78.703300
  C    -40.887400   37.811900   77.005400
  H    -39.982200   37.349500   76.587900
  H    -41.402600   36.984600   77.476000
  H    -41.520300   38.234600   76.205400
  S    -46.215900   36.590600   78.847000
  C    -47.691400   36.060500   79.659100
  C    -47.599500   35.999000   81.032200
  C    -46.384100   36.579100   81.489300
  C    -45.548300   36.981600   80.446900
  H    -48.432300   35.717600   81.633600
  C    -46.233100   36.886400   82.984300
  H    -45.214900   36.600900   83.289000
  H    -46.868500   36.193200   83.527000
  C    -46.275600   38.373100   83.386900
  H    -45.453300   38.797600   82.796600
  H    -45.986000   38.554200   84.496500
  C    -47.688600   39.024800   83.027400
  H    -47.618400   39.880800   82.324100
  H    -48.283100   39.489400   83.786800
  H    -48.311500   38.256900   82.587100
  H    -40.745200   38.308200   80.974900
  H    -48.564100   35.613800   79.161500

 Total Charge           Charge          ....    0
 Multiplicity           Mult            ....    1
 Number of Electrons    NEL             ....  134
 Basis Dimension        Dim             ....  322

ORBITAL ENERGIES
----------------

  NO   OCC          E(Eh)            E(eV)
   0   2.0000     -88.970460     -2421.0093
   1   2.0000     -88.966034     -2420.8888
   2   2.0000     -10.332344      -281.1574
   3   2.0000     -10.328729      -281.0590
   4   2.0000     -10.319216      -280.8002
   5   2.0000     -10.308317      -280.5036
   6   2.0000     -10.305274      -280.4208
   7   2.0000     -10.299142      -280.2539
   8   2.0000     -10.298563      -280.2381
   9   2.0000     -10.296215      -280.1742
  10   2.0000     -10.293039      -280.0878
  11   2.0000     -10.292488      -280.0728
  12   2.0000     -10.291096      -280.0350
  13   2.0000     -10.284918      -279.8669
  14   2.0000     -10.278977      -279.7052
  15   2.0000     -10.272681      -279.5339
  16   2.0000      -8.084313      -219.9853
  17   2.0000      -8.080462      -219.8806
  18   2.0000      -6.042784      -164.4325
  19   2.0000      -6.039089      -164.3320
  20   2.0000      -6.039079      -164.3317
  21   2.0000      -6.035024      -164.2214
  22   2.0000      -6.034970      -164.2199
  23   2.0000      -6.031167      -164.1164
  24   2.0000      -1.004505       -27.3340
  25   2.0000      -0.983512       -26.7627
  26   2.0000      -0.909178       -24.7400
  27   2.0000      -0.900158       -24.4945
  28   2.0000      -0.871542       -23.7159
  29   2.0000      -0.842545       -22.9268
  30   2.0000      -0.837129       -22.7794
  31   2.0000      -0.809536       -22.0286
  32   2.0000      -0.783096       -21.3091
  33   2.0000      -0.772450       -21.0194
  34   2.0000      -0.714027       -19.4297
  35   2.0000      -0.710188       -19.3252
  36   2.0000      -0.686857       -18.6903
  37   2.0000      -0.665339       -18.1048
  38   2.0000      -0.636141       -17.3103
  39   2.0000      -0.601428       -16.3657
  40   2.0000      -0.587590       -15.9891
  41   2.0000      -0.577316       -15.7096
  42   2.0000      -0.548549       -14.9268
  43   2.0000      -0.544672       -14.8213
  44   2.0000      -0.539884       -14.6910
  45   2.0000      -0.531966       -14.4755
  46   2.0000      -0.512310       -13.9407
  47   2.0000      -0.509659       -13.8685
  48   2.0000      -0.497150       -13.5281
  49   2.0000      -0.489032       -13.3072
  50   2.0000      -0.482211       -13.1216
  51   2.0000      -0.476464       -12.9653
  52   2.0000      -0.469952       -12.7880
  53   2.0000      -0.468989       -12.7618
  54   2.0000      -0.463284       -12.6066
  55   2.0000      -0.443693       -12.0735
  56   2.0000      -0.442562       -12.0427
  57   2.0000      -0.438209       -11.9243
  58   2.0000      -0.432933       -11.7807
  59   2.0000      -0.421480       -11.4691
  60   2.0000      -0.417075       -11.3492
  61   2.0000      -0.416142       -11.3238
  62   2.0000      -0.407599       -11.0913
  63   2.0000      -0.350727        -9.5438
  64   2.0000      -0.335994        -9.1429
  65   2.0000      -0.325553        -8.8587
  66   2.0000      -0.286515        -7.7965
  67   0.0000       0.020893         0.5685
  68   0.0000       0.075155         2.0451
  69   0.0000       0.101694         2.7672
  70   0.0000       0.116906         3.1812
  71   0.0000       0.127508         3.4697

MULLIKEN ATOMIC CHARGES
-----------------------
   0 S :    0.112914
   1 C :   -0.124515
   2 C :   -0.088955
   3 C :   -0.002029
   4 C :   -0.153909
   5 H :    0.034499
   6 C :    0.031047
   7 H :    0.049291
   8 H :    0.007742
   9 C :    0.008806
  10 H :   -0.007325
  11 H :   -0.009192
  12 C :   -0.054453
  13 H :    0.038367
  14 H :    0.049479
  15 H :    0.040090
  16 S :    0.114766
  17 C :   -0.093907
  18 C :   -0.031576
  19 C :   -0.037621
  20 C :   -0.167163
  21 H :    0.018196
  22 C :    0.065131
  23 H :    0.018692
  24 H :    0.020458
  25 C :   -0.076232
  26 H :    0.043102
  27 H :    0.050936
  28 C :   -0.052399
  29 H :    0.032734
  30 H :    0.024885
  31 H :    0.023302
  32 H :    0.055193
  33 H :    0.059643
Sum of atomic charges:   -0.0000000

LOEWDIN ATOMIC CHARGES
----------------------
   0 S :    0.405672
   1 C :   -0.215634
   2 C :   -0.065567
   3 C :   -0.071699
   4 C :   -0.189526
   5 H :    0.036482
   6 C :   -0.028894
   7 H :    0.048636
   8 H :    0.016266
   9 C :   -0.036143
  10 H :    0.012671
  11 H :    0.016378
  12 C :   -0.061307
  13 H :    0.029862
  14 H :    0.028709
  15 H :    0.028433
  16 S :    0.402834
  17 C :   -0.180233
  18 C :   -0.067267
  19 C :   -0.054020
  20 C :   -0.189420
  21 H :    0.029795
  22 C :   -0.036849
  23 H :    0.028037
  24 H :    0.024884
  25 C :   -0.039440
  26 H :    0.028121
  27 H :    0.035825
  28 C :   -0.077956
  29 H :    0.031659
  30 H :    0.021642
  31 H :    0.022761
  32 H :    0.033691
  33 H :    0.031598

  Mayer bond orders larger than 0.100000
B(  0-S ,  1-C ) :   1.1327 B(  0-S ,  4-C ) :   1.1314 B(  1-C ,  2-C ) :   1.6371
B(  1-C , 32-H ) :   0.9589 B(  2-C ,  3-C ) :   1.2189 B(  2-C ,  6-C ) :   1.0020
B(  3-C ,  4-C ) :   1.5629 B(  3-C ,  5-H ) :   0.9852 B(  4-C , 20-C ) :   1.0913
B(  6-C ,  7-H ) :   0.9442 B(  6-C ,  8-H ) :   0.9516 B(  6-C ,  9-C ) :   1.0783
B(  9-C , 10-H ) :   0.9469 B(  9-C , 11-H ) :   0.9452 B(  9-C , 12-C ) :   1.0490
B( 12-C , 13-H ) :   0.9766 B( 12-C , 14-H ) :   0.9780 B( 12-C , 15-H ) :   0.9794
B( 16-S , 17-C ) :   1.1455 B( 16-S , 20-C ) :   1.1353 B( 17-C , 18-C ) :   1.6285
B( 17-C , 33-H ) :   0.9600 B( 18-C , 19-C ) :   1.2387 B( 18-C , 21-H ) :   0.9864
B( 19-C , 20-C ) :   1.5731 B( 19-C , 22-C ) :   1.0444 B( 22-C , 23-H ) :   0.9260
B( 22-C , 24-H ) :   0.9395 B( 22-C , 25-C ) :   1.0685 B( 25-C , 26-H ) :   0.9588
B( 25-C , 27-H ) :   0.9605 B( 25-C , 28-C ) :   1.0356 B( 28-C , 29-H ) :   0.9767
B( 28-C , 30-H ) :   0.9784 B( 28-C , 31-H ) :   0.9849

Dispersion correction           -0.015298677
FINAL SINGLE POINT ENERGY     -1339.857739020575

DIPOLE MOMENT
-------------
                                X             Y             Z
Electronic contribution:     -4.15851     -10.62330      -1.12686
Nuclear contribution   :      4.20306      10.86874       1.07982
                        -----------------------------------------
Total Dipole Moment    :      0.04454       0.24544      -0.04704
                        -----------------------------------------
Magnitude (a.u.)       :      0.25384
Magnitude (Debye)      :      0.64522

Rotational constants in cm-1:     0.023197     0.008301     0.007045
Rotational constants in MHz :   695.440903   248.856316   211.198789

                             ****ORCA TERMINATED NORMALLY****
TOTAL RUN TIME: 0 days 0 hours 0 minutes 30 seconds 451 msec
