                         Program Version 4.2.1 -  RELEASE  -
|  1> ! wB97X-D3 SP def2-SVP
|  2> %pal
|  3> nprocs 16
|  4> end
|  5>
|  6> * xyz 0 1
|  7> S 	 -67.107 	 53.8372 	 131.367
|  8> C 	 -67.0157 	 55.3291 	 132.296
|  9> C 	 -67.4852 	 55.1644 	 133.589
| 10> C 	 -67.938 	 53.8373 	 133.812
| 11> C 	 -67.7394 	 52.9619 	 132.708
| 12> H 	 -68.1116 	 53.4649 	 134.786
| 13> C 	 -67.3058 	 56.2108 	 134.674
| 14> H 	 -66.9566 	 57.1362 	 134.252
| 15> H 	 -66.4675 	 55.8899 	 135.278
| 16> C 	 -68.558 	 56.3623 	 135.536
| 17> H 	 -69.4216 	 56.6375 	 134.917
| 18> H 	 -68.898 	 55.419 	 135.985
| 19> C 	 -68.3714 	 57.4095 	 136.628
| 20> H 	 -69.1062 	 57.4501 	 137.409
| 21> H 	 -67.4483 	 57.0643 	 137.167
| 22> H 	 -68.2351 	 58.4717 	 136.296
| 23> S 	 -66.6366 	 50.4758 	 132.398
| 24> C 	 -67.7422 	 49.0808 	 132.279
| 25> C 	 -69.0705 	 49.4129 	 132.604
| 26> C 	 -69.1556 	 50.7982 	 132.903
| 27> C 	 -67.968 	 51.5106 	 132.676
| 28> H 	 -69.874 	 48.6284 	 132.672
| 29> C 	 -70.4623 	 51.4033 	 133.311
| 30> H 	 -70.2834 	 52.4714 	 133.518
| 31> H 	 -70.8679 	 50.926 	 134.173
| 32> C 	 -71.5845 	 51.2862 	 132.228
| 33> H 	 -71.9007 	 50.2596 	 132.186
| 34> H 	 -71.0316 	 51.6086 	 131.38
| 35> C 	 -72.7323 	 52.2231 	 132.37
| 36> H 	 -73.2792 	 52.3372 	 131.436
| 37> H 	 -72.3606 	 53.1505 	 132.489
| 38> H 	 -73.4714 	 52.2436 	 133.16
| 39> H 	 -66.688 	 56.3192 	 131.964
| 40> H 	 -67.4062 	 48.0962 	 131.986
| 41> *
| 42>
| 43>                          ****END OF INPUT****

CARTESIAN COORDINATES (ANGSTROEM)
---------------------------------
  S    -67.107000   53.837200  131.367000
  C    -67.015700   55.329100  132.296000
  C    -67.485200   55.164400  133.589000
  C    -67.938000   53.837300  133.812000
  C    -67.739400   52.961900  132.708000
  H    -68.111600   53.464900  134.786000
  C    -67.305800   56.210800  134.674000
  H    -66.956600   57.136200  134.252000
  H    -66.467500   55.889900  135.278000
  C    -68.558000   56.362300  135.536000
  H    -69.421600   56.637500  134.917000
  H    -68.898000   55.419000  135.985000
  C    -68.371400   57.409500  136.628000
  H    -69.106200   57.450100  137.409000
  H    -67.448300   57.064300  137.167000
  H    -68.235100   58.471700  136.296000
  S    -66.636600   50.475800  132.398000
  C    -67.742200   49.080800  132.279000
  C    -69.070500   49.412900  132.604000
  C    -69.155600   50.798200  132.903000
  C    -67.968000   51.510600  132.676000
  H    -69.874000   48.628400  132.672000
  C    -70.462300   51.403300  133.311000
  H    -70.283400   52.471400  133.518000
  H    -70.867900   50.926000  134.173000
  C    -71.584500   51.286200  132.228000
  H    -71.900700   50.259600  132.186000
  H    -71.031600   51.608600  131.380000
  C    -72.732300   52.223100  132.370000
  H    -73.279200   52.337200  131.436000
  H    -72.360600   53.150500  132.489000
  H    -73.471400   52.243600  133.160000
  H    -66.688000   56.319200  131.964000
  H    -67.406200   48.096200  131.986000

 Total Charge           Charge          ....    0
 Multiplicity           Mult            ....    1
 Number of Electrons    NEL             ....  134
 Basis Dimension        Dim             ....  322

ORBITAL ENERGIES
----------------

  NO   OCC          E(Eh)            E(eV)
   0   2.0000     -88.971056     -2421.0255
   1   2.0000     -88.969084     -2420.9719
   2   2.0000     -10.333172      -281.1799
   3   2.0000     -10.325359      -280.9673
   4   2.0000     -10.322216      -280.8818
   5   2.0000     -10.313914      -280.6559
   6   2.0000     -10.302291      -280.3396
   7   2.0000     -10.301650      -280.3221
   8   2.0000     -10.299408      -280.2611
   9   2.0000     -10.293160      -280.0911
  10   2.0000     -10.293087      -280.0891
  11   2.0000     -10.289561      -279.9932
  12   2.0000     -10.282736      -279.8075
  13   2.0000     -10.281628      -279.7773
  14   2.0000     -10.277271      -279.6588
  15   2.0000     -10.261341      -279.2253
  16   2.0000      -8.085619      -220.0209
  17   2.0000      -8.083877      -219.9735
  18   2.0000      -6.044092      -164.4681
  19   2.0000      -6.042275      -164.4187
  20   2.0000      -6.039989      -164.3565
  21   2.0000      -6.038438      -164.3143
  22   2.0000      -6.036587      -164.2639
  23   2.0000      -6.034693      -164.2123
  24   2.0000      -1.006958       -27.4007
  25   2.0000      -0.984015       -26.7764
  26   2.0000      -0.915863       -24.9219
  27   2.0000      -0.910917       -24.7873
  28   2.0000      -0.868119       -23.6227
  29   2.0000      -0.854904       -23.2631
  30   2.0000      -0.847465       -23.0607
  31   2.0000      -0.812618       -22.1125
  32   2.0000      -0.783903       -21.3311
  33   2.0000      -0.770751       -20.9732
  34   2.0000      -0.711115       -19.3504
  35   2.0000      -0.700708       -19.0672
  36   2.0000      -0.692064       -18.8320
  37   2.0000      -0.659638       -17.9497
  38   2.0000      -0.638915       -17.3858
  39   2.0000      -0.621919       -16.9233
  40   2.0000      -0.594088       -16.1660
  41   2.0000      -0.574173       -15.6240
  42   2.0000      -0.571165       -15.5422
  43   2.0000      -0.560851       -15.2615
  44   2.0000      -0.529880       -14.4188
  45   2.0000      -0.521290       -14.1850
  46   2.0000      -0.515913       -14.0387
  47   2.0000      -0.509589       -13.8666
  48   2.0000      -0.503799       -13.7091
  49   2.0000      -0.495794       -13.4913
  50   2.0000      -0.493392       -13.4259
  51   2.0000      -0.483698       -13.1621
  52   2.0000      -0.472065       -12.8455
  53   2.0000      -0.469210       -12.7679
  54   2.0000      -0.458623       -12.4798
  55   2.0000      -0.451243       -12.2789
  56   2.0000      -0.445595       -12.1253
  57   2.0000      -0.436542       -11.8789
  58   2.0000      -0.430714       -11.7203
  59   2.0000      -0.425254       -11.5717
  60   2.0000      -0.423890       -11.5346
  61   2.0000      -0.417356       -11.3568
  62   2.0000      -0.412192       -11.2163
  63   2.0000      -0.342021        -9.3069
  64   2.0000      -0.333089        -9.0638
  65   2.0000      -0.327965        -8.9244
  66   2.0000      -0.291583        -7.9344
  67   0.0000       0.029524         0.8034
  68   0.0000       0.066607         1.8125
  69   0.0000       0.109413         2.9773
  70   0.0000       0.120401         3.2763
  71   0.0000       0.129598         3.5265

MULLIKEN ATOMIC CHARGES
-----------------------
   0 S :    0.132229
   1 C :   -0.132255
   2 C :   -0.096112
   3 C :    0.056939
   4 C :   -0.183751
   5 H :    0.005930
   6 C :    0.098915
   7 H :    0.007187
   8 H :    0.036902
   9 C :   -0.094995
  10 H :    0.031205
  11 H :    0.032791
  12 C :   -0.053179
  13 H :    0.027748
  14 H :    0.023248
  15 H :    0.042545
  16 S :    0.123612
  17 C :   -0.106780
  18 C :   -0.041321
  19 C :   -0.035534
  20 C :   -0.168687
  21 H :    0.047704
  22 C :    0.077436
  23 H :    0.015991
  24 H :    0.020376
  25 C :   -0.059336
  26 H :    0.027290
  27 H :    0.026878
  28 C :    0.010183
  29 H :    0.023491
  30 H :   -0.016739
  31 H :    0.019530
  32 H :    0.045765
  33 H :    0.054799
Sum of atomic charges:    0.0000000

LOEWDIN ATOMIC CHARGES
----------------------
   0 S :    0.427096
   1 C :   -0.206687
   2 C :   -0.061473
   3 C :   -0.063571
   4 C :   -0.204577
   5 H :    0.023048
   6 C :   -0.023712
   7 H :    0.026926
   8 H :    0.034436
   9 C :   -0.045359
  10 H :    0.025678
  11 H :    0.026487
  12 C :   -0.072863
  13 H :    0.021055
  14 H :    0.028636
  15 H :    0.029754
  16 S :    0.418279
  17 C :   -0.174461
  18 C :   -0.069204
  19 C :   -0.055466
  20 C :   -0.223407
  21 H :    0.045226
  22 C :   -0.030998
  23 H :    0.028850
  24 H :    0.024709
  25 C :   -0.030304
  26 H :    0.017899
  27 H :    0.027715
  28 C :   -0.067807
  29 H :    0.032080
  30 H :    0.012937
  31 H :    0.024464
  32 H :    0.030763
  33 H :    0.023852

  Mayer bond orders larger than 0.100000
B(  0-S ,  1-C ) :   1.1388 B(  0-S ,  4-C ) :   1.1829 B(  1-C ,  2-C ) :   1.5988
B(  1-C ,  4-C ) :   0.1023 B(  1-C , 32-H ) :   0.9637 B(  2-C ,  3-C ) :   1.2756
B(  2-C ,  6-C ) :   1.0269 B(  3-C ,  4-C ) :   1.5327 B(  3-C ,  5-H ) :   0.9899
B(  4-C , 20-C ) :   1.0233 B(  6-C ,  7-H ) :   0.9403 B(  6-C ,  8-H ) :   0.9336
B(  6-C ,  9-C ) :   1.0515 B(  9-C , 10-H ) :   0.9579 B(  9-C , 11-H ) :   0.9528
B(  9-C , 12-C ) :   1.0835 B( 12-C , 13-H ) :   0.9747 B( 12-C , 14-H ) :   0.9714
B( 12-C , 15-H ) :   0.9756 B( 16-S , 17-C ) :   1.1608 B( 16-S , 20-C ) :   1.1603
B( 17-C , 18-C ) :   1.5883 B( 17-C , 20-C ) :   0.1040 B( 17-C , 33-H ) :   0.9697
B( 18-C , 19-C ) :   1.2495 B( 18-C , 21-H ) :   0.9827 B( 19-C , 20-C ) :   1.5652
B( 19-C , 22-C ) :   1.0707 B( 22-C , 23-H ) :   0.9282 B( 22-C , 24-H ) :   0.9259
B( 22-C , 25-C ) :   1.0638 B( 25-C , 26-H ) :   0.9552 B( 25-C , 27-H ) :   0.9527
B( 25-C , 28-C ) :   1.0952 B( 28-C , 29-H ) :   0.9685 B( 28-C , 30-H ) :   0.9594
B( 28-C , 31-H ) :   0.9725

Dispersion correction           -0.013745021
FINAL SINGLE POINT ENERGY     -1339.870364824090

DIPOLE MOMENT
-------------
                                X             Y             Z
Electronic contribution:     19.86801     -14.51660     -14.78050
Nuclear contribution   :    -20.14866      14.69971      15.19298
                        -----------------------------------------
Total Dipole Moment    :     -0.28065       0.18311       0.41248
                        -----------------------------------------
Magnitude (a.u.)       :      0.53144
Magnitude (Debye)      :      1.35082

Rotational constants in cm-1:     0.017361     0.008336     0.006730
Rotational constants in MHz :   520.481991   249.905397   201.755154

                             ****ORCA TERMINATED NORMALLY****
TOTAL RUN TIME: 0 days 0 hours 0 minutes 34 seconds 260 msec
