                         Program Version 4.2.1 -  RELEASE  -
|  1> ! wB97X-D3 SP def2-SVP
|  2> %pal
|  3> nprocs 16
|  4> end
|  5>
|  6> * xyz 0 1
|  7> S 	 -5.57038 	 76.0139 	 49.623
|  8> C 	 -3.88442 	 76.2447 	 49.61
|  9> C 	 -3.12315 	 75.2156 	 50.1146
| 10> C 	 -3.914 	 74.1262 	 50.5179
| 11> C 	 -5.25847 	 74.3208 	 50.2385
| 12> H 	 -3.57307 	 73.1661 	 50.9466
| 13> C 	 -1.61026 	 75.1754 	 50.1339
| 14> H 	 -1.23848 	 74.2951 	 50.7052
| 15> H 	 -1.20355 	 76.1263 	 50.64
| 16> C 	 -0.991082 	 74.9866 	 48.6941
| 17> H 	 -1.54083 	 74.1163 	 48.2494
| 18> H 	 -1.22159 	 75.869 	 48.1284
| 19> C 	 0.529332 	 74.6992 	 48.5335
| 20> H 	 0.78236 	 73.6925 	 48.8277
| 21> H 	 0.720524 	 74.8427 	 47.5006
| 22> H 	 1.12477 	 75.3952 	 49.0613
| 23> S 	 -7.83749 	 73.8836 	 51.2197
| 24> C 	 -8.45897 	 72.2143 	 51.2578
| 25> C 	 -7.63847 	 71.3568 	 50.5902
| 26> C 	 -6.40689 	 72.0089 	 50.1447
| 27> C 	 -6.33536 	 73.3646 	 50.4865
| 28> H 	 -7.9026 	 70.3676 	 50.5807
| 29> C 	 -5.3214 	 71.1613 	 49.4609
| 30> H 	 -5.46841 	 70.1532 	 49.6415
| 31> H 	 -4.33813 	 71.3967 	 49.8513
| 32> C 	 -5.27298 	 71.3324 	 47.9739
| 33> H 	 -4.43891 	 70.7546 	 47.7286
| 34> H 	 -5.06178 	 72.3573 	 47.605
| 35> C 	 -6.49613 	 70.8019 	 47.2159
| 36> H 	 -7.03529 	 69.9176 	 47.5806
| 37> H 	 -6.31376 	 70.4672 	 46.1599
| 38> H 	 -7.27775 	 71.5352 	 47.2947
| 39> H 	 -3.43691 	 77.2597 	 49.3485
| 40> H 	 -9.4089 	 71.9331 	 51.6654
| 41> *
| 42>
| 43>                          ****END OF INPUT****

CARTESIAN COORDINATES (ANGSTROEM)
---------------------------------
  S     -5.570380   76.013900   49.623000
  C     -3.884420   76.244700   49.610000
  C     -3.123150   75.215600   50.114600
  C     -3.914000   74.126200   50.517900
  C     -5.258470   74.320800   50.238500
  H     -3.573070   73.166100   50.946600
  C     -1.610260   75.175400   50.133900
  H     -1.238480   74.295100   50.705200
  H     -1.203550   76.126300   50.640000
  C     -0.991082   74.986600   48.694100
  H     -1.540830   74.116300   48.249400
  H     -1.221590   75.869000   48.128400
  C      0.529332   74.699200   48.533500
  H      0.782360   73.692500   48.827700
  H      0.720524   74.842700   47.500600
  H      1.124770   75.395200   49.061300
  S     -7.837490   73.883600   51.219700
  C     -8.458970   72.214300   51.257800
  C     -7.638470   71.356800   50.590200
  C     -6.406890   72.008900   50.144700
  C     -6.335360   73.364600   50.486500
  H     -7.902600   70.367600   50.580700
  C     -5.321400   71.161300   49.460900
  H     -5.468410   70.153200   49.641500
  H     -4.338130   71.396700   49.851300
  C     -5.272980   71.332400   47.973900
  H     -4.438910   70.754600   47.728600
  H     -5.061780   72.357300   47.605000
  C     -6.496130   70.801900   47.215900
  H     -7.035290   69.917600   47.580600
  H     -6.313760   70.467200   46.159900
  H     -7.277750   71.535200   47.294700
  H     -3.436910   77.259700   49.348500
  H     -9.408900   71.933100   51.665400

 Total Charge           Charge          ....    0
 Multiplicity           Mult            ....    1
 Number of Electrons    NEL             ....  134
 Basis Dimension        Dim             ....  322

ORBITAL ENERGIES
----------------

  NO   OCC          E(Eh)            E(eV)
   0   2.0000     -88.970979     -2421.0234
   1   2.0000     -88.963242     -2420.8129
   2   2.0000     -10.334441      -281.2144
   3   2.0000     -10.328098      -281.0418
   4   2.0000     -10.316654      -280.7304
   5   2.0000     -10.315452      -280.6977
   6   2.0000     -10.306557      -280.4557
   7   2.0000     -10.301873      -280.3282
   8   2.0000     -10.298753      -280.2433
   9   2.0000     -10.298007      -280.2230
  10   2.0000     -10.290095      -280.0077
  11   2.0000     -10.289938      -280.0034
  12   2.0000     -10.284214      -279.8477
  13   2.0000     -10.277784      -279.6727
  14   2.0000     -10.273783      -279.5639
  15   2.0000     -10.273603      -279.5590
  16   2.0000      -8.085354      -220.0137
  17   2.0000      -8.077695      -219.8053
  18   2.0000      -6.043764      -164.4592
  19   2.0000      -6.040093      -164.3593
  20   2.0000      -6.036344      -164.2573
  21   2.0000      -6.036069      -164.2498
  22   2.0000      -6.032284      -164.1468
  23   2.0000      -6.028291      -164.0381
  24   2.0000      -1.003124       -27.2964
  25   2.0000      -0.982066       -26.7234
  26   2.0000      -0.912596       -24.8330
  27   2.0000      -0.902434       -24.5565
  28   2.0000      -0.870279       -23.6815
  29   2.0000      -0.855946       -23.2915
  30   2.0000      -0.839990       -22.8573
  31   2.0000      -0.816238       -22.2110
  32   2.0000      -0.784600       -21.3501
  33   2.0000      -0.770351       -20.9623
  34   2.0000      -0.708276       -19.2732
  35   2.0000      -0.696514       -18.9531
  36   2.0000      -0.687839       -18.7170
  37   2.0000      -0.666160       -18.1271
  38   2.0000      -0.637324       -17.3425
  39   2.0000      -0.617390       -16.8000
  40   2.0000      -0.596264       -16.2252
  41   2.0000      -0.570515       -15.5245
  42   2.0000      -0.560347       -15.2478
  43   2.0000      -0.551119       -14.9967
  44   2.0000      -0.544952       -14.8289
  45   2.0000      -0.520739       -14.1700
  46   2.0000      -0.517761       -14.0890
  47   2.0000      -0.508882       -13.8474
  48   2.0000      -0.502781       -13.6814
  49   2.0000      -0.493009       -13.4155
  50   2.0000      -0.486450       -13.2370
  51   2.0000      -0.481018       -13.0892
  52   2.0000      -0.477487       -12.9931
  53   2.0000      -0.471950       -12.8424
  54   2.0000      -0.458375       -12.4730
  55   2.0000      -0.449580       -12.2337
  56   2.0000      -0.441454       -12.0126
  57   2.0000      -0.434664       -11.8278
  58   2.0000      -0.427011       -11.6196
  59   2.0000      -0.423694       -11.5293
  60   2.0000      -0.422349       -11.4927
  61   2.0000      -0.419635       -11.4188
  62   2.0000      -0.408119       -11.1055
  63   2.0000      -0.354628        -9.6499
  64   2.0000      -0.336174        -9.1478
  65   2.0000      -0.326567        -8.8863
  66   2.0000      -0.285954        -7.7812
  67   0.0000       0.025452         0.6926
  68   0.0000       0.068379         1.8607
  69   0.0000       0.103109         2.8057
  70   0.0000       0.123736         3.3670
  71   0.0000       0.130491         3.5508

MULLIKEN ATOMIC CHARGES
-----------------------
   0 S :    0.120590
   1 C :   -0.146573
   2 C :   -0.054343
   3 C :    0.004380
   4 C :   -0.153519
   5 H :    0.033436
   6 C :    0.033593
   7 H :    0.023190
   8 H :    0.044872
   9 C :   -0.115021
  10 H :    0.035931
  11 H :    0.024539
  12 C :    0.004887
  13 H :    0.029610
  14 H :    0.027752
  15 H :    0.019390
  16 S :    0.090925
  17 C :   -0.086818
  18 C :    0.005200
  19 C :   -0.059686
  20 C :   -0.146102
  21 H :   -0.009720
  22 C :    0.123269
  23 H :   -0.002992
  24 H :    0.007802
  25 C :   -0.034295
  26 H :    0.007247
  27 H :    0.044740
  28 C :   -0.080447
  29 H :    0.012366
  30 H :    0.040360
  31 H :    0.036967
  32 H :    0.068949
  33 H :    0.049521
Sum of atomic charges:    0.0000000

LOEWDIN ATOMIC CHARGES
----------------------
   0 S :    0.397300
   1 C :   -0.215971
   2 C :   -0.075040
   3 C :   -0.055531
   4 C :   -0.168512
   5 H :    0.039662
   6 C :   -0.039309
   7 H :    0.029026
   8 H :    0.036492
   9 C :   -0.039769
  10 H :    0.029196
  11 H :    0.016736
  12 C :   -0.055763
  13 H :    0.022981
  14 H :    0.026991
  15 H :    0.018722
  16 S :    0.382777
  17 C :   -0.164581
  18 C :   -0.061065
  19 C :   -0.048862
  20 C :   -0.202160
  21 H :    0.018842
  22 C :   -0.020483
  23 H :    0.020713
  24 H :    0.026661
  25 C :   -0.033942
  26 H :    0.015701
  27 H :    0.032590
  28 C :   -0.078007
  29 H :    0.021404
  30 H :    0.032638
  31 H :    0.025084
  32 H :    0.039438
  33 H :    0.026040

  Mayer bond orders larger than 0.100000
B(  0-S ,  1-C ) :   1.1525 B(  0-S ,  4-C ) :   1.1309 B(  1-C ,  2-C ) :   1.6069
B(  1-C , 32-H ) :   0.9524 B(  2-C ,  3-C ) :   1.2531 B(  2-C ,  6-C ) :   1.0290
B(  3-C ,  4-C ) :   1.5782 B(  3-C ,  5-H ) :   0.9846 B(  4-C , 20-C ) :   1.0703
B(  6-C ,  7-H ) :   0.9463 B(  6-C ,  8-H ) :   0.9377 B(  6-C ,  9-C ) :   1.0502
B(  9-C , 10-H ) :   0.9579 B(  9-C , 11-H ) :   0.9609 B(  9-C , 12-C ) :   1.0825
B( 12-C , 13-H ) :   0.9764 B( 12-C , 14-H ) :   0.9734 B( 12-C , 15-H ) :   0.9744
B( 16-S , 17-C ) :   1.1379 B( 16-S , 20-C ) :   1.1231 B( 17-C , 18-C ) :   1.6424
B( 17-C , 33-H ) :   0.9679 B( 18-C , 19-C ) :   1.2041 B( 18-C , 21-H ) :   1.0046
B( 19-C , 20-C ) :   1.6056 B( 19-C , 22-C ) :   1.0397 B( 22-C , 23-H ) :   0.9286
B( 22-C , 24-H ) :   0.9327 B( 22-C , 25-C ) :   1.0871 B( 25-C , 26-H ) :   0.9533
B( 25-C , 27-H ) :   0.9562 B( 25-C , 28-C ) :   1.0634 B( 28-C , 29-H ) :   0.9745
B( 28-C , 30-H ) :   0.9759 B( 28-C , 31-H ) :   0.9754

Dispersion correction           -0.014590758
FINAL SINGLE POINT ENERGY     -1339.873866652134

DIPOLE MOMENT
-------------
                                X             Y             Z
Electronic contribution:    -22.40644      12.38873      13.71806
Nuclear contribution   :     22.91108     -12.86198     -13.87143
                        -----------------------------------------
Total Dipole Moment    :      0.50464      -0.47325      -0.15337
                        -----------------------------------------
Magnitude (a.u.)       :      0.70863
Magnitude (Debye)      :      1.80118

Rotational constants in cm-1:     0.020125     0.008377     0.006677
Rotational constants in MHz :   603.319612   251.138040   200.172957

                             ****ORCA TERMINATED NORMALLY****
TOTAL RUN TIME: 0 days 0 hours 0 minutes 34 seconds 176 msec
