                         Program Version 4.2.1 -  RELEASE  -
|  1> ! wB97X-D3 SP def2-SVP
|  2> %pal
|  3> nprocs 16
|  4> end
|  5>
|  6> * xyz 0 1
|  7> S 	 -21.3367 	 46.1602 	 56.5246
|  8> C 	 -20.1888 	 46.6351 	 57.729
|  9> C 	 -20.57 	 46.0462 	 58.8577
| 10> C 	 -21.7916 	 45.3938 	 58.8525
| 11> C 	 -22.3927 	 45.3069 	 57.6288
| 12> H 	 -22.1723 	 44.9557 	 59.7905
| 13> C 	 -19.7759 	 46.0726 	 60.1732
| 14> H 	 -18.7531 	 46.0961 	 59.8398
| 15> H 	 -19.8343 	 45.1214 	 60.6878
| 16> C 	 -19.8724 	 47.2871 	 61.0525
| 17> H 	 -18.9345 	 47.3002 	 61.6287
| 18> H 	 -19.9617 	 48.1637 	 60.3598
| 19> C 	 -20.9797 	 47.3958 	 62.1203
| 20> H 	 -20.875 	 46.6963 	 62.9811
| 21> H 	 -20.951 	 48.3439 	 62.641
| 22> H 	 -21.9517 	 47.5083 	 61.7406
| 23> S 	 -23.9908 	 43.1503 	 58.0705
| 24> C 	 -25.3058 	 42.7863 	 57.0311
| 25> C 	 -25.5487 	 43.8208 	 56.2219
| 26> C 	 -24.5334 	 44.833 	 56.2609
| 27> C 	 -23.5853 	 44.5455 	 57.2154
| 28> H 	 -26.4716 	 43.8486 	 55.6769
| 29> C 	 -24.5281 	 46.1231 	 55.455
| 30> H 	 -23.8681 	 46.8784 	 55.8955
| 31> H 	 -25.5176 	 46.5438 	 55.5909
| 32> C 	 -24.1281 	 45.8583 	 54.0174
| 33> H 	 -24.6738 	 44.9308 	 53.6493
| 34> H 	 -23.0798 	 45.663 	 54.1231
| 35> C 	 -24.3619 	 47.1174 	 53.1481
| 36> H 	 -24.4631 	 46.9674 	 52.0506
| 37> H 	 -23.6789 	 47.9399 	 53.4143
| 38> H 	 -25.3161 	 47.5504 	 53.6017
| 39> H 	 -19.3623 	 47.4197 	 57.6455
| 40> H 	 -25.9168 	 41.837 	 57.0336
| 41> *
| 42>
| 43>                          ****END OF INPUT****

CARTESIAN COORDINATES (ANGSTROEM)
---------------------------------
  S    -21.336700   46.160200   56.524600
  C    -20.188800   46.635100   57.729000
  C    -20.570000   46.046200   58.857700
  C    -21.791600   45.393800   58.852500
  C    -22.392700   45.306900   57.628800
  H    -22.172300   44.955700   59.790500
  C    -19.775900   46.072600   60.173200
  H    -18.753100   46.096100   59.839800
  H    -19.834300   45.121400   60.687800
  C    -19.872400   47.287100   61.052500
  H    -18.934500   47.300200   61.628700
  H    -19.961700   48.163700   60.359800
  C    -20.979700   47.395800   62.120300
  H    -20.875000   46.696300   62.981100
  H    -20.951000   48.343900   62.641000
  H    -21.951700   47.508300   61.740600
  S    -23.990800   43.150300   58.070500
  C    -25.305800   42.786300   57.031100
  C    -25.548700   43.820800   56.221900
  C    -24.533400   44.833000   56.260900
  C    -23.585300   44.545500   57.215400
  H    -26.471600   43.848600   55.676900
  C    -24.528100   46.123100   55.455000
  H    -23.868100   46.878400   55.895500
  H    -25.517600   46.543800   55.590900
  C    -24.128100   45.858300   54.017400
  H    -24.673800   44.930800   53.649300
  H    -23.079800   45.663000   54.123100
  C    -24.361900   47.117400   53.148100
  H    -24.463100   46.967400   52.050600
  H    -23.678900   47.939900   53.414300
  H    -25.316100   47.550400   53.601700
  H    -19.362300   47.419700   57.645500
  H    -25.916800   41.837000   57.033600

 Total Charge           Charge          ....    0
 Multiplicity           Mult            ....    1
 Number of Electrons    NEL             ....  134
 Basis Dimension        Dim             ....  322

ORBITAL ENERGIES
----------------

  NO   OCC          E(Eh)            E(eV)
   0   2.0000     -88.964556     -2420.8486
   1   2.0000     -88.963652     -2420.8240
   2   2.0000     -10.332209      -281.1537
   3   2.0000     -10.322689      -280.8946
   4   2.0000     -10.316022      -280.7132
   5   2.0000     -10.313701      -280.6501
   6   2.0000     -10.300907      -280.3019
   7   2.0000     -10.290338      -280.0143
   8   2.0000     -10.289988      -280.0048
   9   2.0000     -10.288008      -279.9509
  10   2.0000     -10.286336      -279.9054
  11   2.0000     -10.285393      -279.8798
  12   2.0000     -10.284498      -279.8554
  13   2.0000     -10.283414      -279.8259
  14   2.0000     -10.283275      -279.8221
  15   2.0000     -10.272878      -279.5392
  16   2.0000      -8.080390      -219.8786
  17   2.0000      -8.079207      -219.8464
  18   2.0000      -6.038788      -164.3238
  19   2.0000      -6.037828      -164.2976
  20   2.0000      -6.034668      -164.2117
  21   2.0000      -6.033595      -164.1825
  22   2.0000      -6.031078      -164.1140
  23   2.0000      -6.029957      -164.0835
  24   2.0000      -1.021709       -27.8021
  25   2.0000      -1.002032       -27.2667
  26   2.0000      -0.913675       -24.8624
  27   2.0000      -0.909898       -24.7596
  28   2.0000      -0.877093       -23.8669
  29   2.0000      -0.850288       -23.1375
  30   2.0000      -0.842999       -22.9392
  31   2.0000      -0.822961       -22.3939
  32   2.0000      -0.787451       -21.4276
  33   2.0000      -0.770612       -20.9694
  34   2.0000      -0.704872       -19.1805
  35   2.0000      -0.697751       -18.9868
  36   2.0000      -0.693055       -18.8590
  37   2.0000      -0.664966       -18.0946
  38   2.0000      -0.632155       -17.2018
  39   2.0000      -0.621375       -16.9085
  40   2.0000      -0.600231       -16.3331
  41   2.0000      -0.582052       -15.8384
  42   2.0000      -0.562148       -15.2968
  43   2.0000      -0.547664       -14.9027
  44   2.0000      -0.537384       -14.6230
  45   2.0000      -0.528059       -14.3692
  46   2.0000      -0.520489       -14.1632
  47   2.0000      -0.510456       -13.8902
  48   2.0000      -0.508251       -13.8302
  49   2.0000      -0.500530       -13.6201
  50   2.0000      -0.490618       -13.3504
  51   2.0000      -0.485825       -13.2200
  52   2.0000      -0.476202       -12.9581
  53   2.0000      -0.470371       -12.7994
  54   2.0000      -0.456006       -12.4085
  55   2.0000      -0.449821       -12.2402
  56   2.0000      -0.441893       -12.0245
  57   2.0000      -0.431372       -11.7382
  58   2.0000      -0.428832       -11.6691
  59   2.0000      -0.419583       -11.4174
  60   2.0000      -0.413743       -11.2585
  61   2.0000      -0.410658       -11.1746
  62   2.0000      -0.404113       -10.9965
  63   2.0000      -0.362392        -9.8612
  64   2.0000      -0.331101        -9.0097
  65   2.0000      -0.329685        -8.9712
  66   2.0000      -0.293692        -7.9918
  67   0.0000       0.028950         0.7878
  68   0.0000       0.084156         2.2900
  69   0.0000       0.115740         3.1495
  70   0.0000       0.123933         3.3724
  71   0.0000       0.134617         3.6631

MULLIKEN ATOMIC CHARGES
-----------------------
   0 S :    0.084826
   1 C :   -0.144414
   2 C :   -0.104017
   3 C :   -0.007634
   4 C :   -0.104458
   5 H :    0.016412
   6 C :    0.085860
   7 H :    0.007857
   8 H :    0.020026
   9 C :   -0.067327
  10 H :    0.031766
  11 H :    0.027905
  12 C :   -0.035571
  13 H :    0.035202
  14 H :    0.013936
  15 H :    0.020328
  16 S :    0.112876
  17 C :   -0.108107
  18 C :   -0.021419
  19 C :   -0.068778
  20 C :   -0.114261
  21 H :    0.012907
  22 C :    0.037055
  23 H :    0.026258
  24 H :    0.021800
  25 C :   -0.064242
  26 H :    0.043499
  27 H :    0.023271
  28 C :   -0.046146
  29 H :    0.055825
  30 H :    0.032177
  31 H :    0.018876
  32 H :    0.079905
  33 H :    0.077807
Sum of atomic charges:    0.0000000

LOEWDIN ATOMIC CHARGES
----------------------
   0 S :    0.423090
   1 C :   -0.215787
   2 C :   -0.077469
   3 C :   -0.081968
   4 C :   -0.178325
   5 H :    0.033497
   6 C :   -0.033830
   7 H :    0.030906
   8 H :    0.028579
   9 C :   -0.040955
  10 H :    0.028639
  11 H :    0.030164
  12 C :   -0.076874
  13 H :    0.029385
  14 H :    0.028339
  15 H :    0.018160
  16 S :    0.444354
  17 C :   -0.200066
  18 C :   -0.073598
  19 C :   -0.053812
  20 C :   -0.217209
  21 H :    0.030920
  22 C :   -0.038174
  23 H :    0.020585
  24 H :    0.025934
  25 C :   -0.042815
  26 H :    0.031137
  27 H :    0.016286
  28 C :   -0.077868
  29 H :    0.030803
  30 H :    0.028978
  31 H :    0.029309
  32 H :    0.052759
  33 H :    0.046928

  Mayer bond orders larger than 0.100000
B(  0-S ,  1-C ) :   1.1277 B(  0-S ,  4-C ) :   1.1618 B(  1-C ,  2-C ) :   1.6133
B(  1-C , 32-H ) :   0.9572 B(  2-C ,  3-C ) :   1.2915 B(  2-C ,  6-C ) :   1.0124
B(  3-C ,  4-C ) :   1.5312 B(  3-C ,  5-H ) :   0.9934 B(  4-C , 20-C ) :   1.0338
B(  6-C ,  7-H ) :   0.9322 B(  6-C ,  8-H ) :   0.9416 B(  6-C ,  9-C ) :   1.0722
B(  9-C , 10-H ) :   0.9563 B(  9-C , 11-H ) :   0.9509 B(  9-C , 12-C ) :   1.0927
B( 12-C , 13-H ) :   0.9742 B( 12-C , 14-H ) :   0.9653 B( 12-C , 15-H ) :   0.9720
B( 16-S , 17-C ) :   1.1592 B( 16-S , 20-C ) :   1.1571 B( 17-C , 18-C ) :   1.6111
B( 17-C , 33-H ) :   0.9605 B( 18-C , 19-C ) :   1.2437 B( 18-C , 21-H ) :   0.9960
B( 19-C , 20-C ) :   1.5718 B( 19-C , 22-C ) :   1.0448 B( 22-C , 23-H ) :   0.9303
B( 22-C , 24-H ) :   0.9275 B( 22-C , 25-C ) :   1.0518 B( 25-C , 26-H ) :   0.9630
B( 25-C , 27-H ) :   0.9478 B( 25-C , 28-C ) :   1.0685 B( 28-C , 29-H ) :   0.9754
B( 28-C , 30-H ) :   0.9692 B( 28-C , 31-H ) :   0.9743

Dispersion correction           -0.014062206
FINAL SINGLE POINT ENERGY     -1339.865821318780

DIPOLE MOMENT
-------------
                                X             Y             Z
Electronic contribution:     -2.20709     -14.55057      -2.94283
Nuclear contribution   :      2.10305      14.74718       3.18414
                        -----------------------------------------
Total Dipole Moment    :     -0.10404       0.19661       0.24131
                        -----------------------------------------
Magnitude (a.u.)       :      0.32819
Magnitude (Debye)      :      0.83419

Rotational constants in cm-1:     0.020635     0.008254     0.006505
Rotational constants in MHz :   618.623638   247.435131   195.011302

                             ****ORCA TERMINATED NORMALLY****
TOTAL RUN TIME: 0 days 0 hours 0 minutes 35 seconds 231 msec
