                         Program Version 4.2.1 -  RELEASE  -
|  1> ! wB97X-D3 SP def2-SVP
|  2> %pal
|  3> nprocs 16
|  4> end
|  5>
|  6> * xyz 0 1
|  7> S 	 -5.82643 	 -5.21742 	 82.6229
|  8> C 	 -5.84632 	 -6.93266 	 83.0413
|  9> C 	 -4.88915 	 -7.1555 	 84.0075
| 10> C 	 -4.39361 	 -5.94874 	 84.5313
| 11> C 	 -4.80888 	 -4.81824 	 83.9348
| 12> H 	 -3.81954 	 -5.9042 	 85.3907
| 13> C 	 -4.56136 	 -8.51151 	 84.6492
| 14> H 	 -3.4876 	 -8.62192 	 84.5983
| 15> H 	 -4.91086 	 -9.26701 	 83.9703
| 16> C 	 -5.2086 	 -8.68345 	 86.082
| 17> H 	 -4.9519 	 -9.69714 	 86.4661
| 18> H 	 -4.80052 	 -8.00344 	 86.8099
| 19> C 	 -6.66084 	 -8.37365 	 86.1609
| 20> H 	 -7.27139 	 -9.10705 	 85.5952
| 21> H 	 -7.05171 	 -8.6044 	 87.1628
| 22> H 	 -6.98173 	 -7.36707 	 85.8668
| 23> S 	 -3.43663 	 -2.56748 	 83.1472
| 24> C 	 -2.91404 	 -1.53061 	 84.3964
| 25> C 	 -3.65797 	 -1.70058 	 85.4982
| 26> C 	 -4.45275 	 -2.81928 	 85.4308
| 27> C 	 -4.3943 	 -3.4731 	 84.2525
| 28> H 	 -3.53389 	 -1.0009 	 86.3033
| 29> C 	 -5.28423 	 -3.27587 	 86.6386
| 30> H 	 -4.92224 	 -2.68191 	 87.4406
| 31> H 	 -4.99007 	 -4.27021 	 86.7586
| 32> C 	 -6.84091 	 -3.19472 	 86.5767
| 33> H 	 -7.1697 	 -3.37784 	 87.641
| 34> H 	 -7.18659 	 -4.03572 	 85.9602
| 35> C 	 -7.47886 	 -1.8363 	 85.9954
| 36> H 	 -8.56298 	 -1.85644 	 86.0206
| 37> H 	 -7.32052 	 -1.85747 	 84.9278
| 38> H 	 -7.09693 	 -0.878098 	 86.4035
| 39> H 	 -6.37391 	 -7.74319 	 82.5757
| 40> H 	 -2.12505 	 -0.755168 	 84.2899
| 41> *
| 42>
| 43>                          ****END OF INPUT****

CARTESIAN COORDINATES (ANGSTROEM)
---------------------------------
  S     -5.826430   -5.217420   82.622900
  C     -5.846320   -6.932660   83.041300
  C     -4.889150   -7.155500   84.007500
  C     -4.393610   -5.948740   84.531300
  C     -4.808880   -4.818240   83.934800
  H     -3.819540   -5.904200   85.390700
  C     -4.561360   -8.511510   84.649200
  H     -3.487600   -8.621920   84.598300
  H     -4.910860   -9.267010   83.970300
  C     -5.208600   -8.683450   86.082000
  H     -4.951900   -9.697140   86.466100
  H     -4.800520   -8.003440   86.809900
  C     -6.660840   -8.373650   86.160900
  H     -7.271390   -9.107050   85.595200
  H     -7.051710   -8.604400   87.162800
  H     -6.981730   -7.367070   85.866800
  S     -3.436630   -2.567480   83.147200
  C     -2.914040   -1.530610   84.396400
  C     -3.657970   -1.700580   85.498200
  C     -4.452750   -2.819280   85.430800
  C     -4.394300   -3.473100   84.252500
  H     -3.533890   -1.000900   86.303300
  C     -5.284230   -3.275870   86.638600
  H     -4.922240   -2.681910   87.440600
  H     -4.990070   -4.270210   86.758600
  C     -6.840910   -3.194720   86.576700
  H     -7.169700   -3.377840   87.641000
  H     -7.186590   -4.035720   85.960200
  C     -7.478860   -1.836300   85.995400
  H     -8.562980   -1.856440   86.020600
  H     -7.320520   -1.857470   84.927800
  H     -7.096930   -0.878098   86.403500
  H     -6.373910   -7.743190   82.575700
  H     -2.125050   -0.755168   84.289900

 Total Charge           Charge          ....    0
 Multiplicity           Mult            ....    1
 Number of Electrons    NEL             ....  134
 Basis Dimension        Dim             ....  322

ORBITAL ENERGIES
----------------

  NO   OCC          E(Eh)            E(eV)
   0   2.0000     -88.963658     -2420.8242
   1   2.0000     -88.961391     -2420.7625
   2   2.0000     -10.320969      -280.8478
   3   2.0000     -10.314708      -280.6775
   4   2.0000     -10.312120      -280.6071
   5   2.0000     -10.311289      -280.5844
   6   2.0000     -10.295963      -280.1674
   7   2.0000     -10.295343      -280.1505
   8   2.0000     -10.294706      -280.1332
   9   2.0000     -10.291585      -280.0483
  10   2.0000     -10.290603      -280.0215
  11   2.0000     -10.282375      -279.7977
  12   2.0000     -10.281187      -279.7653
  13   2.0000     -10.279032      -279.7067
  14   2.0000     -10.278575      -279.6942
  15   2.0000     -10.276913      -279.6490
  16   2.0000      -8.078944      -219.8392
  17   2.0000      -8.078035      -219.8145
  18   2.0000      -6.037473      -164.2880
  19   2.0000      -6.036280      -164.2555
  20   2.0000      -6.033327      -164.1752
  21   2.0000      -6.032378      -164.1493
  22   2.0000      -6.029691      -164.0762
  23   2.0000      -6.028838      -164.0530
  24   2.0000      -1.023292       -27.8452
  25   2.0000      -0.998345       -27.1664
  26   2.0000      -0.911742       -24.8098
  27   2.0000      -0.900291       -24.4982
  28   2.0000      -0.875088       -23.8124
  29   2.0000      -0.848985       -23.1021
  30   2.0000      -0.844526       -22.9807
  31   2.0000      -0.818772       -22.2799
  32   2.0000      -0.787068       -21.4172
  33   2.0000      -0.778042       -21.1716
  34   2.0000      -0.712507       -19.3883
  35   2.0000      -0.698124       -18.9969
  36   2.0000      -0.691350       -18.8126
  37   2.0000      -0.664452       -18.0807
  38   2.0000      -0.643149       -17.5010
  39   2.0000      -0.627240       -17.0681
  40   2.0000      -0.588037       -16.0013
  41   2.0000      -0.573256       -15.5991
  42   2.0000      -0.557987       -15.1836
  43   2.0000      -0.548801       -14.9336
  44   2.0000      -0.544784       -14.8243
  45   2.0000      -0.535036       -14.5591
  46   2.0000      -0.516749       -14.0614
  47   2.0000      -0.513268       -13.9667
  48   2.0000      -0.508871       -13.8471
  49   2.0000      -0.495694       -13.4885
  50   2.0000      -0.488717       -13.2987
  51   2.0000      -0.477168       -12.9844
  52   2.0000      -0.473030       -12.8718
  53   2.0000      -0.468461       -12.7475
  54   2.0000      -0.461676       -12.5628
  55   2.0000      -0.451715       -12.2918
  56   2.0000      -0.440751       -11.9934
  57   2.0000      -0.437074       -11.8934
  58   2.0000      -0.435132       -11.8405
  59   2.0000      -0.423893       -11.5347
  60   2.0000      -0.416028       -11.3207
  61   2.0000      -0.414444       -11.2776
  62   2.0000      -0.408896       -11.1266
  63   2.0000      -0.346791        -9.4367
  64   2.0000      -0.332166        -9.0387
  65   2.0000      -0.330927        -9.0050
  66   2.0000      -0.297041        -8.0829
  67   0.0000       0.042253         1.1498
  68   0.0000       0.063345         1.7237
  69   0.0000       0.118833         3.2336
  70   0.0000       0.124055         3.3757
  71   0.0000       0.132520         3.6060

MULLIKEN ATOMIC CHARGES
-----------------------
   0 S :    0.105581
   1 C :   -0.112368
   2 C :   -0.125825
   3 C :    0.051944
   4 C :   -0.157049
   5 H :   -0.021290
   6 C :    0.106081
   7 H :    0.032360
   8 H :    0.009439
   9 C :   -0.064307
  10 H :    0.035790
  11 H :    0.025823
  12 C :   -0.061331
  13 H :    0.015549
  14 H :    0.026705
  15 H :    0.055631
  16 S :    0.119025
  17 C :   -0.107589
  18 C :   -0.040234
  19 C :   -0.066034
  20 C :   -0.138508
  21 H :    0.008104
  22 C :    0.162774
  23 H :   -0.000026
  24 H :    0.001311
  25 C :   -0.096279
  26 H :    0.039809
  27 H :    0.042721
  28 C :   -0.055864
  29 H :    0.031035
  30 H :    0.032915
  31 H :    0.040914
  32 H :    0.039212
  33 H :    0.063980
Sum of atomic charges:   -0.0000000

LOEWDIN ATOMIC CHARGES
----------------------
   0 S :    0.411671
   1 C :   -0.192592
   2 C :   -0.062817
   3 C :   -0.061788
   4 C :   -0.201176
   5 H :    0.017578
   6 C :   -0.025296
   7 H :    0.032405
   8 H :    0.025299
   9 C :   -0.041340
  10 H :    0.030184
  11 H :    0.022014
  12 C :   -0.072196
  13 H :    0.022330
  14 H :    0.029579
  15 H :    0.029480
  16 S :    0.433003
  17 C :   -0.191704
  18 C :   -0.080520
  19 C :   -0.057934
  20 C :   -0.213539
  21 H :    0.031462
  22 C :   -0.020236
  23 H :    0.021836
  24 H :    0.023268
  25 C :   -0.035414
  26 H :    0.028384
  27 H :    0.026486
  28 C :   -0.073125
  29 H :    0.026309
  30 H :    0.026717
  31 H :    0.027052
  32 H :    0.027213
  33 H :    0.037407

  Mayer bond orders larger than 0.100000
B(  0-S ,  1-C ) :   1.1330 B(  0-S ,  4-C ) :   1.1485 B(  1-C ,  2-C ) :   1.6077
B(  1-C , 32-H ) :   0.9700 B(  2-C ,  3-C ) :   1.2376 B(  2-C ,  6-C ) :   1.0277
B(  3-C ,  4-C ) :   1.5921 B(  3-C ,  5-H ) :   1.0115 B(  4-C , 20-C ) :   1.0024
B(  6-C ,  7-H ) :   0.9399 B(  6-C ,  8-H ) :   0.9395 B(  6-C ,  9-C ) :   1.0515
B(  9-C , 10-H ) :   0.9556 B(  9-C , 11-H ) :   0.9580 B(  9-C , 12-C ) :   1.0850
B( 12-C , 13-H ) :   0.9720 B( 12-C , 14-H ) :   0.9681 B( 12-C , 15-H ) :   0.9690
B( 16-S , 17-C ) :   1.1829 B( 16-S , 20-C ) :   1.1429 B( 17-C , 18-C ) :   1.5883
B( 17-C , 33-H ) :   0.9623 B( 18-C , 19-C ) :   1.2596 B( 18-C , 21-H ) :   1.0011
B( 19-C , 20-C ) :   1.5994 B( 19-C , 22-C ) :   1.0218 B( 22-C , 23-H ) :   0.9295
B( 22-C , 24-H ) :   0.9223 B( 22-C , 25-C ) :   1.0715 B( 25-C , 26-H ) :   0.9596
B( 25-C , 27-H ) :   0.9566 B( 25-C , 28-C ) :   1.0670 B( 28-C , 29-H ) :   0.9762
B( 28-C , 30-H ) :   0.9709 B( 28-C , 31-H ) :   0.9802

Dispersion correction           -0.015959954
FINAL SINGLE POINT ENERGY     -1339.870745195105

DIPOLE MOMENT
-------------
                                X             Y             Z
Electronic contribution:     11.49308      10.37014     -19.99379
Nuclear contribution   :    -11.41581     -10.62351      20.61493
                        -----------------------------------------
Total Dipole Moment    :      0.07727      -0.25337       0.62114
                        -----------------------------------------
Magnitude (a.u.)       :      0.67526
Magnitude (Debye)      :      1.71638

Rotational constants in cm-1:     0.019957     0.009489     0.008065
Rotational constants in MHz :   598.290948   284.472185   241.790115

                             ****ORCA TERMINATED NORMALLY****
TOTAL RUN TIME: 0 days 0 hours 0 minutes 37 seconds 600 msec
