                         Program Version 4.2.1 -  RELEASE  -
|  1> ! wB97X-D3 SP def2-SVP
|  2> %pal
|  3> nprocs 16
|  4> end
|  5>
|  6> * xyz 0 1
|  7> S 	 1.14274 	 -22.6897 	 63.6929
|  8> C 	 1.68875 	 -22.6328 	 62.0861
|  9> C 	 1.33161 	 -21.4926 	 61.4528
| 10> C 	 0.692375 	 -20.5295 	 62.3342
| 11> C 	 0.739463 	 -20.926 	 63.662
| 12> H 	 0.26115 	 -19.6131 	 61.9069
| 13> C 	 1.41932 	 -21.2732 	 59.94
| 14> H 	 2.40403 	 -21.4019 	 59.501
| 15> H 	 1.11739 	 -20.2455 	 59.7199
| 16> C 	 0.450861 	 -22.1497 	 59.1773
| 17> H 	 0.664261 	 -21.9772 	 58.1091
| 18> H 	 0.728791 	 -23.2049 	 59.2745
| 19> C 	 -1.04703 	 -22.0156 	 59.5219
| 20> H 	 -1.65325 	 -21.1749 	 59.1968
| 21> H 	 -1.54761 	 -23.0263 	 59.2961
| 22> H 	 -1.04038 	 -21.8532 	 60.5503
| 23> S 	 -0.958227 	 -21.6244 	 65.7339
| 24> C 	 -2.00774 	 -20.3301 	 66.3985
| 25> C 	 -1.60627 	 -19.098 	 65.8792
| 26> C 	 -0.475084 	 -19.1864 	 65.0098
| 27> C 	 -0.165496 	 -20.4755 	 64.6753
| 28> H 	 -2.14111 	 -18.1848 	 66.1795
| 29> C 	 0.0521754 	 -17.8785 	 64.3694
| 30> H 	 -0.556957 	 -17.5307 	 63.5413
| 31> H 	 1.09368 	 -18.2109 	 63.972
| 32> C 	 0.240358 	 -16.6528 	 65.241
| 33> H 	 -0.753573 	 -16.3512 	 65.6644
| 34> H 	 0.479771 	 -15.7179 	 64.7178
| 35> C 	 1.28782 	 -16.8351 	 66.3705
| 36> H 	 2.23008 	 -17.1032 	 65.9499
| 37> H 	 1.04173 	 -17.5718 	 67.2225
| 38> H 	 1.45713 	 -15.9248 	 66.8712
| 39> H 	 2.27809 	 -23.4905 	 61.6879
| 40> H 	 -2.86262 	 -20.4791 	 67.0719
| 41> *
| 42>
| 43>                          ****END OF INPUT****

CARTESIAN COORDINATES (ANGSTROEM)
---------------------------------
  S      1.142740  -22.689700   63.692900
  C      1.688750  -22.632800   62.086100
  C      1.331610  -21.492600   61.452800
  C      0.692375  -20.529500   62.334200
  C      0.739463  -20.926000   63.662000
  H      0.261150  -19.613100   61.906900
  C      1.419320  -21.273200   59.940000
  H      2.404030  -21.401900   59.501000
  H      1.117390  -20.245500   59.719900
  C      0.450861  -22.149700   59.177300
  H      0.664261  -21.977200   58.109100
  H      0.728791  -23.204900   59.274500
  C     -1.047030  -22.015600   59.521900
  H     -1.653250  -21.174900   59.196800
  H     -1.547610  -23.026300   59.296100
  H     -1.040380  -21.853200   60.550300
  S     -0.958227  -21.624400   65.733900
  C     -2.007740  -20.330100   66.398500
  C     -1.606270  -19.098000   65.879200
  C     -0.475084  -19.186400   65.009800
  C     -0.165496  -20.475500   64.675300
  H     -2.141110  -18.184800   66.179500
  C      0.052175  -17.878500   64.369400
  H     -0.556957  -17.530700   63.541300
  H      1.093680  -18.210900   63.972000
  C      0.240358  -16.652800   65.241000
  H     -0.753573  -16.351200   65.664400
  H      0.479771  -15.717900   64.717800
  C      1.287820  -16.835100   66.370500
  H      2.230080  -17.103200   65.949900
  H      1.041730  -17.571800   67.222500
  H      1.457130  -15.924800   66.871200
  H      2.278090  -23.490500   61.687900
  H     -2.862620  -20.479100   67.071900

 Total Charge           Charge          ....    0
 Multiplicity           Mult            ....    1
 Number of Electrons    NEL             ....  134
 Basis Dimension        Dim             ....  322

ORBITAL ENERGIES
----------------

  NO   OCC          E(Eh)            E(eV)
   0   2.0000     -88.964700     -2420.8526
   1   2.0000     -88.963904     -2420.8309
   2   2.0000     -10.333164      -281.1797
   3   2.0000     -10.324755      -280.9509
   4   2.0000     -10.320650      -280.8392
   5   2.0000     -10.316071      -280.7146
   6   2.0000     -10.306708      -280.4598
   7   2.0000     -10.301438      -280.3164
   8   2.0000     -10.299166      -280.2545
   9   2.0000     -10.298815      -280.2450
  10   2.0000     -10.295378      -280.1515
  11   2.0000     -10.292762      -280.0803
  12   2.0000     -10.291843      -280.0553
  13   2.0000     -10.286100      -279.8990
  14   2.0000     -10.275240      -279.6035
  15   2.0000     -10.273352      -279.5521
  16   2.0000      -8.079462      -219.8533
  17   2.0000      -8.078805      -219.8355
  18   2.0000      -6.038071      -164.3043
  19   2.0000      -6.037493      -164.2885
  20   2.0000      -6.034083      -164.1957
  21   2.0000      -6.033570      -164.1818
  22   2.0000      -6.029825      -164.0799
  23   2.0000      -6.029233      -164.0638
  24   2.0000      -1.010683       -27.5021
  25   2.0000      -0.983258       -26.7558
  26   2.0000      -0.913961       -24.8701
  27   2.0000      -0.903462       -24.5844
  28   2.0000      -0.873582       -23.7714
  29   2.0000      -0.850284       -23.1374
  30   2.0000      -0.838508       -22.8169
  31   2.0000      -0.812040       -22.0967
  32   2.0000      -0.783383       -21.3169
  33   2.0000      -0.775003       -21.0889
  34   2.0000      -0.706258       -19.2183
  35   2.0000      -0.701863       -19.0987
  36   2.0000      -0.691809       -18.8251
  37   2.0000      -0.661815       -18.0089
  38   2.0000      -0.636708       -17.3257
  39   2.0000      -0.618142       -16.8205
  40   2.0000      -0.589308       -16.0359
  41   2.0000      -0.568050       -15.4574
  42   2.0000      -0.556285       -15.1373
  43   2.0000      -0.552002       -15.0207
  44   2.0000      -0.538697       -14.6587
  45   2.0000      -0.528820       -14.3899
  46   2.0000      -0.520564       -14.1653
  47   2.0000      -0.515010       -14.0141
  48   2.0000      -0.505836       -13.7645
  49   2.0000      -0.493102       -13.4180
  50   2.0000      -0.491165       -13.3653
  51   2.0000      -0.482359       -13.1257
  52   2.0000      -0.466456       -12.6929
  53   2.0000      -0.458864       -12.4863
  54   2.0000      -0.453098       -12.3294
  55   2.0000      -0.447692       -12.1823
  56   2.0000      -0.439901       -11.9703
  57   2.0000      -0.436847       -11.8872
  58   2.0000      -0.432115       -11.7585
  59   2.0000      -0.427386       -11.6298
  60   2.0000      -0.420605       -11.4453
  61   2.0000      -0.407229       -11.0813
  62   2.0000      -0.401916       -10.9367
  63   2.0000      -0.365791        -9.9537
  64   2.0000      -0.335115        -9.1189
  65   2.0000      -0.323823        -8.8117
  66   2.0000      -0.282743        -7.6938
  67   0.0000       0.016405         0.4464
  68   0.0000       0.072664         1.9773
  69   0.0000       0.087169         2.3720
  70   0.0000       0.119056         3.2397
  71   0.0000       0.136228         3.7070

MULLIKEN ATOMIC CHARGES
-----------------------
   0 S :    0.072790
   1 C :   -0.126185
   2 C :   -0.105009
   3 C :    0.005908
   4 C :   -0.105565
   5 H :    0.036069
   6 C :    0.078379
   7 H :    0.034102
   8 H :    0.012948
   9 C :   -0.084421
  10 H :    0.025353
  11 H :    0.022589
  12 C :   -0.045798
  13 H :    0.032970
  14 H :    0.050242
  15 H :    0.018121
  16 S :    0.091038
  17 C :   -0.108099
  18 C :   -0.038096
  19 C :   -0.037346
  20 C :   -0.121586
  21 H :    0.031227
  22 C :    0.020552
  23 H :    0.044898
  24 H :    0.041709
  25 C :   -0.079302
  26 H :    0.018837
  27 H :    0.029837
  28 C :   -0.045051
  29 H :    0.022752
  30 H :    0.052042
  31 H :    0.016285
  32 H :    0.071704
  33 H :    0.066106
Sum of atomic charges:   -0.0000000

LOEWDIN ATOMIC CHARGES
----------------------
   0 S :    0.395473
   1 C :   -0.198988
   2 C :   -0.075405
   3 C :   -0.043947
   4 C :   -0.173963
   5 H :    0.037160
   6 C :   -0.031724
   7 H :    0.033844
   8 H :    0.026991
   9 C :   -0.043886
  10 H :    0.022767
  11 H :    0.022270
  12 C :   -0.072903
  13 H :    0.025534
  14 H :    0.041629
  15 H :    0.018516
  16 S :    0.376516
  17 C :   -0.180955
  18 C :   -0.066739
  19 C :   -0.070925
  20 C :   -0.189791
  21 H :    0.034606
  22 C :   -0.039232
  23 H :    0.030400
  24 H :    0.037671
  25 C :   -0.048611
  26 H :    0.022016
  27 H :    0.030107
  28 C :   -0.067556
  29 H :    0.020377
  30 H :    0.038049
  31 H :    0.017612
  32 H :    0.038564
  33 H :    0.034523

  Mayer bond orders larger than 0.100000
B(  0-S ,  1-C ) :   1.1600 B(  0-S ,  4-C ) :   1.1277 B(  1-C ,  2-C ) :   1.6006
B(  1-C , 32-H ) :   0.9632 B(  2-C ,  3-C ) :   1.2598 B(  2-C ,  6-C ) :   1.0203
B(  3-C ,  4-C ) :   1.5323 B(  3-C ,  5-H ) :   0.9830 B(  4-C , 20-C ) :   1.0822
B(  6-C ,  7-H ) :   0.9409 B(  6-C ,  8-H ) :   0.9428 B(  6-C ,  9-C ) :   1.0828
B(  9-C , 10-H ) :   0.9548 B(  9-C , 11-H ) :   0.9580 B(  9-C , 12-C ) :   1.0555
B( 12-C , 13-H ) :   0.9744 B( 12-C , 14-H ) :   0.9747 B( 12-C , 15-H ) :   0.9761
B( 16-S , 17-C ) :   1.1231 B( 16-S , 20-C ) :   1.1206 B( 17-C , 18-C ) :   1.6354
B( 17-C , 33-H ) :   0.9674 B( 18-C , 19-C ) :   1.2146 B( 18-C , 21-H ) :   0.9854
B( 19-C , 20-C ) :   1.6271 B( 19-C , 22-C ) :   1.0283 B( 22-C , 23-H ) :   0.9400
B( 22-C , 24-H ) :   0.9345 B( 22-C , 25-C ) :   1.0815 B( 25-C , 26-H ) :   0.9454
B( 25-C , 27-H ) :   0.9524 B( 25-C , 28-C ) :   1.0759 B( 28-C , 29-H ) :   0.9751
B( 28-C , 30-H ) :   0.9743 B( 28-C , 31-H ) :   0.9741

Dispersion correction           -0.014573322
FINAL SINGLE POINT ENERGY     -1339.859046873905

DIPOLE MOMENT
-------------
                                X             Y             Z
Electronic contribution:     -0.40439     -16.19509      13.38468
Nuclear contribution   :      0.28342      16.65040     -13.91140
                        -----------------------------------------
Total Dipole Moment    :     -0.12098       0.45531      -0.52672
                        -----------------------------------------
Magnitude (a.u.)       :      0.70666
Magnitude (Debye)      :      1.79619

Rotational constants in cm-1:     0.020777     0.008261     0.007162
Rotational constants in MHz :   622.880574   247.658732   214.709649

                             ****ORCA TERMINATED NORMALLY****
TOTAL RUN TIME: 0 days 0 hours 0 minutes 34 seconds 913 msec
