                         Program Version 4.2.1 -  RELEASE  -
|  1> ! wB97X-D3 SP def2-SVP
|  2> %pal
|  3> nprocs 16
|  4> end
|  5>
|  6> * xyz 0 1
|  7> S 	 -6.09346 	 41.5784 	 33.1719
|  8> C 	 -5.85005 	 40.072 	 32.3272
|  9> C 	 -5.51628 	 39.0168 	 33.2348
| 10> C 	 -5.54165 	 39.4793 	 34.5948
| 11> C 	 -5.8822 	 40.8324 	 34.744
| 12> H 	 -5.37922 	 38.8985 	 35.4711
| 13> C 	 -5.32922 	 37.5177 	 32.8365
| 14> H 	 -4.78186 	 37.3305 	 31.9063
| 15> H 	 -6.34578 	 37.0699 	 32.9244
| 16> C 	 -4.51191 	 36.7349 	 33.8235
| 17> H 	 -3.55632 	 37.2907 	 34.0782
| 18> H 	 -5.13202 	 36.7463 	 34.6906
| 19> C 	 -4.20595 	 35.282 	 33.4141
| 20> H 	 -5.06621 	 34.7716 	 32.9682
| 21> H 	 -3.51319 	 35.2807 	 32.5396
| 22> H 	 -3.84899 	 34.7084 	 34.2788
| 23> S 	 -8.15168 	 41.5579 	 36.1472
| 24> C 	 -8.04935 	 42.3325 	 37.7345
| 25> C 	 -6.72481 	 42.4795 	 38.0962
| 26> C 	 -5.80643 	 41.8645 	 37.1771
| 27> C 	 -6.40088 	 41.4483 	 35.9721
| 28> H 	 -6.46649 	 42.7619 	 39.137
| 29> C 	 -4.33743 	 41.781 	 37.5769
| 30> H 	 -4.32309 	 42.1109 	 38.5972
| 31> H 	 -3.77575 	 42.4076 	 36.9031
| 32> C 	 -3.75227 	 40.3582 	 37.5778
| 33> H 	 -3.42284 	 40.1381 	 36.5811
| 34> H 	 -4.47206 	 39.6686 	 38.0225
| 35> C 	 -2.4562 	 40.2182 	 38.427
| 36> H 	 -2.54079 	 40.4568 	 39.4589
| 37> H 	 -1.61348 	 40.7656 	 38.0016
| 38> H 	 -2.08022 	 39.2243 	 38.5303
| 39> H 	 -5.80828 	 39.9676 	 31.2158
| 40> H 	 -8.89781 	 42.4662 	 38.4111
| 41> *
| 42>
| 43>                          ****END OF INPUT****

CARTESIAN COORDINATES (ANGSTROEM)
---------------------------------
  S     -6.093460   41.578400   33.171900
  C     -5.850050   40.072000   32.327200
  C     -5.516280   39.016800   33.234800
  C     -5.541650   39.479300   34.594800
  C     -5.882200   40.832400   34.744000
  H     -5.379220   38.898500   35.471100
  C     -5.329220   37.517700   32.836500
  H     -4.781860   37.330500   31.906300
  H     -6.345780   37.069900   32.924400
  C     -4.511910   36.734900   33.823500
  H     -3.556320   37.290700   34.078200
  H     -5.132020   36.746300   34.690600
  C     -4.205950   35.282000   33.414100
  H     -5.066210   34.771600   32.968200
  H     -3.513190   35.280700   32.539600
  H     -3.848990   34.708400   34.278800
  S     -8.151680   41.557900   36.147200
  C     -8.049350   42.332500   37.734500
  C     -6.724810   42.479500   38.096200
  C     -5.806430   41.864500   37.177100
  C     -6.400880   41.448300   35.972100
  H     -6.466490   42.761900   39.137000
  C     -4.337430   41.781000   37.576900
  H     -4.323090   42.110900   38.597200
  H     -3.775750   42.407600   36.903100
  C     -3.752270   40.358200   37.577800
  H     -3.422840   40.138100   36.581100
  H     -4.472060   39.668600   38.022500
  C     -2.456200   40.218200   38.427000
  H     -2.540790   40.456800   39.458900
  H     -1.613480   40.765600   38.001600
  H     -2.080220   39.224300   38.530300
  H     -5.808280   39.967600   31.215800
  H     -8.897810   42.466200   38.411100

 Total Charge           Charge          ....    0
 Multiplicity           Mult            ....    1
 Number of Electrons    NEL             ....  134
 Basis Dimension        Dim             ....  322

ORBITAL ENERGIES
----------------

  NO   OCC          E(Eh)            E(eV)
   0   2.0000     -88.970531     -2421.0112
   1   2.0000     -88.963434     -2420.8181
   2   2.0000     -10.331282      -281.1285
   3   2.0000     -10.329320      -281.0751
   4   2.0000     -10.323333      -280.9122
   5   2.0000     -10.320632      -280.8387
   6   2.0000     -10.311945      -280.6023
   7   2.0000     -10.305296      -280.4214
   8   2.0000     -10.297759      -280.2163
   9   2.0000     -10.297660      -280.2136
  10   2.0000     -10.296082      -280.1706
  11   2.0000     -10.287073      -279.9255
  12   2.0000     -10.285598      -279.8853
  13   2.0000     -10.285486      -279.8823
  14   2.0000     -10.285197      -279.8744
  15   2.0000     -10.270991      -279.4879
  16   2.0000      -8.084808      -219.9988
  17   2.0000      -8.077668      -219.8045
  18   2.0000      -6.043257      -164.4454
  19   2.0000      -6.039178      -164.3344
  20   2.0000      -6.036236      -164.2543
  21   2.0000      -6.035863      -164.2442
  22   2.0000      -6.032154      -164.1433
  23   2.0000      -6.028464      -164.0428
  24   2.0000      -1.000481       -27.2245
  25   2.0000      -0.978159       -26.6171
  26   2.0000      -0.915259       -24.9055
  27   2.0000      -0.906120       -24.6568
  28   2.0000      -0.865885       -23.5619
  29   2.0000      -0.846403       -23.0318
  30   2.0000      -0.845263       -23.0008
  31   2.0000      -0.810705       -22.0604
  32   2.0000      -0.781960       -21.2782
  33   2.0000      -0.770935       -20.9782
  34   2.0000      -0.709205       -19.2985
  35   2.0000      -0.696784       -18.9605
  36   2.0000      -0.680611       -18.5204
  37   2.0000      -0.656793       -17.8722
  38   2.0000      -0.642255       -17.4767
  39   2.0000      -0.617281       -16.7971
  40   2.0000      -0.592038       -16.1102
  41   2.0000      -0.578867       -15.7518
  42   2.0000      -0.572710       -15.5842
  43   2.0000      -0.565010       -15.3747
  44   2.0000      -0.524714       -14.2782
  45   2.0000      -0.522873       -14.2281
  46   2.0000      -0.509856       -13.8739
  47   2.0000      -0.505564       -13.7571
  48   2.0000      -0.502034       -13.6611
  49   2.0000      -0.493880       -13.4392
  50   2.0000      -0.492493       -13.4014
  51   2.0000      -0.484464       -13.1829
  52   2.0000      -0.477281       -12.9875
  53   2.0000      -0.466402       -12.6914
  54   2.0000      -0.458227       -12.4690
  55   2.0000      -0.449462       -12.2305
  56   2.0000      -0.444292       -12.0898
  57   2.0000      -0.433155       -11.7867
  58   2.0000      -0.425236       -11.5712
  59   2.0000      -0.422340       -11.4925
  60   2.0000      -0.420980       -11.4554
  61   2.0000      -0.416710       -11.3393
  62   2.0000      -0.410809       -11.1787
  63   2.0000      -0.343479        -9.3465
  64   2.0000      -0.326773        -8.8919
  65   2.0000      -0.323388        -8.7998
  66   2.0000      -0.299018        -8.1367
  67   0.0000       0.033994         0.9250
  68   0.0000       0.051321         1.3965
  69   0.0000       0.116367         3.1665
  70   0.0000       0.121179         3.2975
  71   0.0000       0.129637         3.5276

MULLIKEN ATOMIC CHARGES
-----------------------
   0 S :    0.128466
   1 C :   -0.139201
   2 C :   -0.091998
   3 C :    0.050712
   4 C :   -0.181072
   5 H :    0.009430
   6 C :    0.063231
   7 H :    0.030445
   8 H :    0.054042
   9 C :   -0.139767
  10 H :    0.043127
  11 H :    0.023532
  12 C :   -0.034577
  13 H :    0.023639
  14 H :    0.032914
  15 H :    0.050158
  16 S :    0.105245
  17 C :   -0.106371
  18 C :   -0.032828
  19 C :   -0.084738
  20 C :   -0.153527
  21 H :    0.034533
  22 C :    0.125544
  23 H :    0.000338
  24 H :    0.040073
  25 C :   -0.087888
  26 H :    0.040019
  27 H :    0.038562
  28 C :   -0.041598
  29 H :    0.015061
  30 H :    0.026644
  31 H :    0.017492
  32 H :    0.070051
  33 H :    0.070307
Sum of atomic charges:   -0.0000000

LOEWDIN ATOMIC CHARGES
----------------------
   0 S :    0.423311
   1 C :   -0.208736
   2 C :   -0.063287
   3 C :   -0.051299
   4 C :   -0.210525
   5 H :    0.026478
   6 C :   -0.033550
   7 H :    0.029060
   8 H :    0.042983
   9 C :   -0.053088
  10 H :    0.029196
  11 H :    0.014660
  12 C :   -0.068174
  13 H :    0.025048
  14 H :    0.028486
  15 H :    0.032646
  16 S :    0.400048
  17 C :   -0.181526
  18 C :   -0.082681
  19 C :   -0.053290
  20 C :   -0.205602
  21 H :    0.036461
  22 C :   -0.022350
  23 H :    0.024822
  24 H :    0.034441
  25 C :   -0.034948
  26 H :    0.024647
  27 H :    0.025973
  28 C :   -0.069116
  29 H :    0.017166
  30 H :    0.025107
  31 H :    0.023481
  32 H :    0.038769
  33 H :    0.035391

  Mayer bond orders larger than 0.100000
B(  0-S ,  1-C ) :   1.1674 B(  0-S ,  4-C ) :   1.1683 B(  1-C ,  2-C ) :   1.5684
B(  1-C ,  4-C ) :   0.1064 B(  1-C , 32-H ) :   0.9650 B(  2-C ,  3-C ) :   1.2724
B(  2-C ,  6-C ) :   1.0135 B(  3-C ,  4-C ) :   1.5411 B(  3-C ,  5-H ) :   0.9907
B(  4-C , 20-C ) :   1.0212 B(  6-C ,  7-H ) :   0.9536 B(  6-C ,  8-H ) :   0.9346
B(  6-C ,  9-C ) :   1.0699 B(  9-C , 10-H ) :   0.9602 B(  9-C , 11-H ) :   0.9444
B(  9-C , 12-C ) :   1.0843 B( 12-C , 13-H ) :   0.9706 B( 12-C , 14-H ) :   0.9722
B( 12-C , 15-H ) :   0.9733 B( 16-S , 17-C ) :   1.1643 B( 16-S , 20-C ) :   1.1398
B( 17-C , 18-C ) :   1.5995 B( 17-C , 20-C ) :   0.1002 B( 17-C , 33-H ) :   0.9639
B( 18-C , 19-C ) :   1.2757 B( 18-C , 21-H ) :   0.9737 B( 19-C , 20-C ) :   1.5805
B( 19-C , 22-C ) :   1.0430 B( 22-C , 23-H ) :   0.9342 B( 22-C , 24-H ) :   0.9290
B( 22-C , 25-C ) :   1.0707 B( 25-C , 26-H ) :   0.9484 B( 25-C , 27-H ) :   0.9573
B( 25-C , 28-C ) :   1.0901 B( 28-C , 29-H ) :   0.9729 B( 28-C , 30-H ) :   0.9742
B( 28-C , 31-H ) :   0.9728

Dispersion correction           -0.014027281
FINAL SINGLE POINT ENERGY     -1339.869160332754

DIPOLE MOMENT
-------------
                                X             Y             Z
Electronic contribution:    -20.29786      21.39737      -7.03112
Nuclear contribution   :     20.60518     -21.98979       7.34203
                        -----------------------------------------
Total Dipole Moment    :      0.30733      -0.59242       0.31091
                        -----------------------------------------
Magnitude (a.u.)       :      0.73626
Magnitude (Debye)      :      1.87142

Rotational constants in cm-1:     0.016379     0.008971     0.006878
Rotational constants in MHz :   491.018720   268.956466   206.210752

                             ****ORCA TERMINATED NORMALLY****
TOTAL RUN TIME: 0 days 0 hours 0 minutes 31 seconds 453 msec
