                         Program Version 4.2.1 -  RELEASE  -
|  1> ! wB97X-D3 SP def2-SVP
|  2> %pal
|  3> nprocs 16
|  4> end
|  5>
|  6> * xyz 0 1
|  7> S 	 -1.10497 	 78.284 	 50.5403
|  8> C 	 -0.222161 	 79.721 	 50.9237
|  9> C 	 1.17286 	 79.4562 	 50.9388
| 10> C 	 1.47447 	 78.0743 	 50.7622
| 11> C 	 0.357765 	 77.2764 	 50.5892
| 12> H 	 2.42707 	 77.5139 	 50.7698
| 13> C 	 2.28718 	 80.551 	 51.1303
| 14> H 	 2.61957 	 80.952 	 50.1504
| 15> H 	 3.21508 	 80.0216 	 51.4614
| 16> C 	 1.99365 	 81.6174 	 52.1827
| 17> H 	 1.23827 	 82.2951 	 51.7765
| 18> H 	 1.55178 	 81.2256 	 53.1044
| 19> C 	 3.21641 	 82.4391 	 52.5989
| 20> H 	 3.71832 	 82.8661 	 51.709
| 21> H 	 2.75015 	 83.2413 	 53.1615
| 22> H 	 3.8783 	 81.8785 	 53.2869
| 23> S 	 1.03774 	 74.993 	 49.1517
| 24> C 	 0.412271 	 73.4639 	 49.6078
| 25> C 	 -0.537285 	 73.59 	 50.5531
| 26> C 	 -0.641464 	 74.9495 	 50.9766
| 27> C 	 0.293906 	 75.8081 	 50.5087
| 28> H 	 -1.16046 	 72.7202 	 50.7851
| 29> C 	 -1.70886 	 75.4685 	 51.9319
| 30> H 	 -2.63937 	 75.6119 	 51.3105
| 31> H 	 -1.4483 	 76.2783 	 52.3666
| 32> C 	 -2.13286 	 74.5634 	 53.0348
| 33> H 	 -1.4103 	 74.4525 	 53.8566
| 34> H 	 -2.21947 	 73.502 	 52.5371
| 35> C 	 -3.37836 	 75.1623 	 53.8476
| 36> H 	 -4.17468 	 75.38 	 53.1174
| 37> H 	 -3.12978 	 75.9651 	 54.526
| 38> H 	 -3.88919 	 74.3593 	 54.4362
| 39> H 	 -0.791231 	 80.6928 	 51.019
| 40> H 	 0.599974 	 72.5894 	 49.0305
| 41> *
| 42>
| 43>                          ****END OF INPUT****

CARTESIAN COORDINATES (ANGSTROEM)
---------------------------------
  S     -1.104970   78.284000   50.540300
  C     -0.222161   79.721000   50.923700
  C      1.172860   79.456200   50.938800
  C      1.474470   78.074300   50.762200
  C      0.357765   77.276400   50.589200
  H      2.427070   77.513900   50.769800
  C      2.287180   80.551000   51.130300
  H      2.619570   80.952000   50.150400
  H      3.215080   80.021600   51.461400
  C      1.993650   81.617400   52.182700
  H      1.238270   82.295100   51.776500
  H      1.551780   81.225600   53.104400
  C      3.216410   82.439100   52.598900
  H      3.718320   82.866100   51.709000
  H      2.750150   83.241300   53.161500
  H      3.878300   81.878500   53.286900
  S      1.037740   74.993000   49.151700
  C      0.412271   73.463900   49.607800
  C     -0.537285   73.590000   50.553100
  C     -0.641464   74.949500   50.976600
  C      0.293906   75.808100   50.508700
  H     -1.160460   72.720200   50.785100
  C     -1.708860   75.468500   51.931900
  H     -2.639370   75.611900   51.310500
  H     -1.448300   76.278300   52.366600
  C     -2.132860   74.563400   53.034800
  H     -1.410300   74.452500   53.856600
  H     -2.219470   73.502000   52.537100
  C     -3.378360   75.162300   53.847600
  H     -4.174680   75.380000   53.117400
  H     -3.129780   75.965100   54.526000
  H     -3.889190   74.359300   54.436200
  H     -0.791231   80.692800   51.019000
  H      0.599974   72.589400   49.030500

 Total Charge           Charge          ....    0
 Multiplicity           Mult            ....    1
 Number of Electrons    NEL             ....  134
 Basis Dimension        Dim             ....  322

ORBITAL ENERGIES
----------------

  NO   OCC          E(Eh)            E(eV)
   0   2.0000     -88.966258     -2420.8950
   1   2.0000     -88.958331     -2420.6793
   2   2.0000     -10.330632      -281.1108
   3   2.0000     -10.322949      -280.9017
   4   2.0000     -10.320464      -280.8341
   5   2.0000     -10.312194      -280.6091
   6   2.0000     -10.311305      -280.5849
   7   2.0000     -10.299826      -280.2725
   8   2.0000     -10.298310      -280.2313
   9   2.0000     -10.298303      -280.2311
  10   2.0000     -10.293066      -280.0886
  11   2.0000     -10.291182      -280.0373
  12   2.0000     -10.285737      -279.8891
  13   2.0000     -10.283539      -279.8293
  14   2.0000     -10.281279      -279.7678
  15   2.0000     -10.272400      -279.5262
  16   2.0000      -8.080413      -219.8792
  17   2.0000      -8.074351      -219.7143
  18   2.0000      -6.038860      -164.3257
  19   2.0000      -6.034873      -164.2173
  20   2.0000      -6.032843      -164.1620
  21   2.0000      -6.031396      -164.1226
  22   2.0000      -6.028780      -164.0515
  23   2.0000      -6.024923      -163.9465
  24   2.0000      -1.013385       -27.5756
  25   2.0000      -0.985954       -26.8292
  26   2.0000      -0.911922       -24.8147
  27   2.0000      -0.905416       -24.6376
  28   2.0000      -0.872621       -23.7452
  29   2.0000      -0.849885       -23.1266
  30   2.0000      -0.840389       -22.8681
  31   2.0000      -0.817019       -22.2322
  32   2.0000      -0.780009       -21.2251
  33   2.0000      -0.769647       -20.9432
  34   2.0000      -0.701753       -19.0957
  35   2.0000      -0.696660       -18.9571
  36   2.0000      -0.690658       -18.7937
  37   2.0000      -0.655964       -17.8497
  38   2.0000      -0.640602       -17.4317
  39   2.0000      -0.614889       -16.7320
  40   2.0000      -0.603720       -16.4281
  41   2.0000      -0.571482       -15.5508
  42   2.0000      -0.566885       -15.4257
  43   2.0000      -0.563809       -15.3420
  44   2.0000      -0.524817       -14.2810
  45   2.0000      -0.519973       -14.1492
  46   2.0000      -0.518315       -14.1041
  47   2.0000      -0.510563       -13.8931
  48   2.0000      -0.506216       -13.7748
  49   2.0000      -0.493277       -13.4228
  50   2.0000      -0.491204       -13.3663
  51   2.0000      -0.483349       -13.1526
  52   2.0000      -0.473094       -12.8735
  53   2.0000      -0.469437       -12.7740
  54   2.0000      -0.459538       -12.5047
  55   2.0000      -0.452122       -12.3029
  56   2.0000      -0.442913       -12.0523
  57   2.0000      -0.437752       -11.9118
  58   2.0000      -0.426803       -11.6139
  59   2.0000      -0.417094       -11.3497
  60   2.0000      -0.415309       -11.3011
  61   2.0000      -0.412276       -11.2186
  62   2.0000      -0.398470       -10.8429
  63   2.0000      -0.350067        -9.5258
  64   2.0000      -0.331838        -9.0298
  65   2.0000      -0.323790        -8.8108
  66   2.0000      -0.296375        -8.0648
  67   0.0000       0.029435         0.8010
  68   0.0000       0.072946         1.9849
  69   0.0000       0.106738         2.9045
  70   0.0000       0.124700         3.3932
  71   0.0000       0.132297         3.6000

MULLIKEN ATOMIC CHARGES
-----------------------
   0 S :    0.108189
   1 C :   -0.160944
   2 C :   -0.066748
   3 C :    0.026049
   4 C :   -0.182770
   5 H :    0.028221
   6 C :    0.059181
   7 H :    0.044867
   8 H :    0.017719
   9 C :   -0.105403
  10 H :    0.026615
  11 H :    0.033305
  12 C :   -0.050776
  13 H :    0.039207
  14 H :    0.030887
  15 H :    0.046409
  16 S :    0.086813
  17 C :   -0.070222
  18 C :   -0.039919
  19 C :   -0.079120
  20 C :   -0.101121
  21 H :    0.031962
  22 C :    0.153032
  23 H :    0.040711
  24 H :   -0.025150
  25 C :   -0.138143
  26 H :    0.034683
  27 H :    0.034886
  28 C :   -0.069729
  29 H :    0.028306
  30 H :    0.052907
  31 H :    0.034615
  32 H :    0.082829
  33 H :    0.048653
Sum of atomic charges:   -0.0000000

LOEWDIN ATOMIC CHARGES
----------------------
   0 S :    0.421287
   1 C :   -0.214722
   2 C :   -0.064541
   3 C :   -0.064647
   4 C :   -0.187541
   5 H :    0.041812
   6 C :   -0.036851
   7 H :    0.034983
   8 H :    0.029685
   9 C :   -0.048245
  10 H :    0.020246
  11 H :    0.027336
  12 C :   -0.064741
  13 H :    0.027740
  14 H :    0.028498
  15 H :    0.028377
  16 S :    0.411235
  17 C :   -0.175577
  18 C :   -0.082529
  19 C :   -0.049838
  20 C :   -0.206187
  21 H :    0.038407
  22 C :   -0.030722
  23 H :    0.040990
  24 H :   -0.009305
  25 C :   -0.045823
  26 H :    0.022875
  27 H :    0.027894
  28 C :   -0.070716
  29 H :    0.024047
  30 H :    0.027440
  31 H :    0.031830
  32 H :    0.041673
  33 H :    0.025630

  Mayer bond orders larger than 0.100000
B(  0-S ,  1-C ) :   1.1651 B(  0-S ,  4-C ) :   1.1498 B(  1-C ,  2-C ) :   1.5661
B(  1-C ,  4-C ) :   0.1028 B(  1-C , 32-H ) :   0.9658 B(  2-C ,  3-C ) :   1.2567
B(  2-C ,  6-C ) :   1.0061 B(  3-C ,  4-C ) :   1.5702 B(  3-C ,  5-H ) :   0.9908
B(  4-C , 20-C ) :   1.0331 B(  6-C ,  7-H ) :   0.9364 B(  6-C ,  8-H ) :   0.9506
B(  6-C ,  9-C ) :   1.0625 B(  9-C , 10-H ) :   0.9516 B(  9-C , 11-H ) :   0.9595
B(  9-C , 12-C ) :   1.0903 B( 12-C , 13-H ) :   0.9734 B( 12-C , 14-H ) :   0.9738
B( 12-C , 15-H ) :   0.9755 B( 16-S , 17-C ) :   1.1807 B( 16-S , 20-C ) :   1.1183
B( 17-C , 18-C ) :   1.6022 B( 17-C , 33-H ) :   0.9669 B( 18-C , 19-C ) :   1.2206
B( 18-C , 21-H ) :   0.9928 B( 19-C , 20-C ) :   1.6137 B( 19-C , 22-C ) :   1.0375
B( 22-C , 23-H ) :   0.9232 B( 22-C , 24-H ) :   0.9272 B( 22-C , 25-C ) :   1.0651
B( 25-C , 26-H ) :   0.9590 B( 25-C , 27-H ) :   0.9549 B( 25-C , 28-C ) :   1.0641
B( 28-C , 29-H ) :   0.9765 B( 28-C , 30-H ) :   0.9767 B( 28-C , 31-H ) :   0.9750

Dispersion correction           -0.013357344
FINAL SINGLE POINT ENERGY     -1339.849780447605

DIPOLE MOMENT
-------------
                                X             Y             Z
Electronic contribution:      0.83653     -11.62704     -18.04783
Nuclear contribution   :     -0.95326      11.76743      18.29147
                        -----------------------------------------
Total Dipole Moment    :     -0.11673       0.14039       0.24364
                        -----------------------------------------
Magnitude (a.u.)       :      0.30446
Magnitude (Debye)      :      0.77388

Rotational constants in cm-1:     0.020683     0.007236     0.005937
Rotational constants in MHz :   620.053809   216.939239   177.987502

                             ****ORCA TERMINATED NORMALLY****
TOTAL RUN TIME: 0 days 0 hours 0 minutes 30 seconds 568 msec
