                         Program Version 4.2.1 -  RELEASE  -
|  1> ! wB97X-D3 SP def2-SVP
|  2> %pal
|  3> nprocs 16
|  4> end
|  5>
|  6> * xyz 0 1
|  7> S 	 8.63599 	 -3.22529 	 87.0787
|  8> C 	 8.44972 	 -1.87558 	 88.1271
|  9> C 	 7.27718 	 -1.17105 	 87.9045
| 10> C 	 6.6719 	 -1.63541 	 86.6936
| 11> C 	 7.23141 	 -2.75756 	 86.1992
| 12> H 	 5.80923 	 -1.20105 	 86.188
| 13> C 	 6.73519 	 0.0058772 	 88.666
| 14> H 	 6.05588 	 0.517322 	 87.962
| 15> H 	 7.59881 	 0.632229 	 88.8332
| 16> C 	 6.0572 	 -0.348851 	 90.0005
| 17> H 	 5.5911 	 0.488644 	 90.4805
| 18> H 	 5.29004 	 -1.11075 	 89.8177
| 19> C 	 6.92796 	 -0.831784 	 91.109
| 20> H 	 7.69695 	 -1.5318 	 90.763
| 21> H 	 7.66618 	 -0.118673 	 91.5474
| 22> H 	 6.32921 	 -1.29712 	 91.9091
| 23> S 	 7.59063 	 -4.2264 	 83.874
| 24> C 	 6.2102 	 -5.06797 	 83.2211
| 25> C 	 5.21182 	 -5.26281 	 84.209
| 26> C 	 5.49464 	 -4.51174 	 85.3761
| 27> C 	 6.66787 	 -3.76876 	 85.311
| 28> H 	 4.39442 	 -5.89624 	 83.9896
| 29> C 	 4.58735 	 -4.60126 	 86.6041
| 30> H 	 3.51005 	 -4.85877 	 86.3979
| 31> H 	 4.67066 	 -3.5883 	 87.0087
| 32> C 	 5.08656 	 -5.44735 	 87.84
| 33> H 	 4.4134 	 -5.18774 	 88.7374
| 34> H 	 6.16414 	 -5.15993 	 88.0649
| 35> C 	 5.10197 	 -6.98181 	 87.6333
| 36> H 	 4.13726 	 -7.33043 	 87.187
| 37> H 	 5.26257 	 -7.47094 	 88.5858
| 38> H 	 5.88754 	 -7.28475 	 86.9375
| 39> H 	 9.12789 	 -1.71069 	 88.9714
| 40> H 	 6.06032 	 -5.35005 	 82.2091
| 41> *
| 42>
| 43>                          ****END OF INPUT****

CARTESIAN COORDINATES (ANGSTROEM)
---------------------------------
  S      8.635990   -3.225290   87.078700
  C      8.449720   -1.875580   88.127100
  C      7.277180   -1.171050   87.904500
  C      6.671900   -1.635410   86.693600
  C      7.231410   -2.757560   86.199200
  H      5.809230   -1.201050   86.188000
  C      6.735190    0.005877   88.666000
  H      6.055880    0.517322   87.962000
  H      7.598810    0.632229   88.833200
  C      6.057200   -0.348851   90.000500
  H      5.591100    0.488644   90.480500
  H      5.290040   -1.110750   89.817700
  C      6.927960   -0.831784   91.109000
  H      7.696950   -1.531800   90.763000
  H      7.666180   -0.118673   91.547400
  H      6.329210   -1.297120   91.909100
  S      7.590630   -4.226400   83.874000
  C      6.210200   -5.067970   83.221100
  C      5.211820   -5.262810   84.209000
  C      5.494640   -4.511740   85.376100
  C      6.667870   -3.768760   85.311000
  H      4.394420   -5.896240   83.989600
  C      4.587350   -4.601260   86.604100
  H      3.510050   -4.858770   86.397900
  H      4.670660   -3.588300   87.008700
  C      5.086560   -5.447350   87.840000
  H      4.413400   -5.187740   88.737400
  H      6.164140   -5.159930   88.064900
  C      5.101970   -6.981810   87.633300
  H      4.137260   -7.330430   87.187000
  H      5.262570   -7.470940   88.585800
  H      5.887540   -7.284750   86.937500
  H      9.127890   -1.710690   88.971400
  H      6.060320   -5.350050   82.209100

 Total Charge           Charge          ....    0
 Multiplicity           Mult            ....    1
 Number of Electrons    NEL             ....  134
 Basis Dimension        Dim             ....  322

ORBITAL ENERGIES
----------------

  NO   OCC          E(Eh)            E(eV)
   0   2.0000     -88.966488     -2420.9012
   1   2.0000     -88.965084     -2420.8630
   2   2.0000     -10.326002      -280.9848
   3   2.0000     -10.322287      -280.8837
   4   2.0000     -10.318426      -280.7787
   5   2.0000     -10.313585      -280.6469
   6   2.0000     -10.305726      -280.4330
   7   2.0000     -10.301855      -280.3277
   8   2.0000     -10.296065      -280.1702
   9   2.0000     -10.295163      -280.1456
  10   2.0000     -10.294477      -280.1270
  11   2.0000     -10.293272      -280.0942
  12   2.0000     -10.292367      -280.0695
  13   2.0000     -10.285859      -279.8925
  14   2.0000     -10.278610      -279.6952
  15   2.0000     -10.274668      -279.5879
  16   2.0000      -8.081110      -219.8982
  17   2.0000      -8.081030      -219.8960
  18   2.0000      -6.039508      -164.3434
  19   2.0000      -6.039330      -164.3385
  20   2.0000      -6.035668      -164.2389
  21   2.0000      -6.035366      -164.2307
  22   2.0000      -6.031971      -164.1383
  23   2.0000      -6.031928      -164.1371
  24   2.0000      -1.013386       -27.5756
  25   2.0000      -0.985963       -26.8294
  26   2.0000      -0.917856       -24.9761
  27   2.0000      -0.895948       -24.3800
  28   2.0000      -0.868925       -23.6446
  29   2.0000      -0.855804       -23.2876
  30   2.0000      -0.844333       -22.9755
  31   2.0000      -0.814947       -22.1758
  32   2.0000      -0.785197       -21.3663
  33   2.0000      -0.770843       -20.9757
  34   2.0000      -0.706821       -19.2336
  35   2.0000      -0.696871       -18.9628
  36   2.0000      -0.678677       -18.4677
  37   2.0000      -0.664509       -18.0822
  38   2.0000      -0.648106       -17.6359
  39   2.0000      -0.620721       -16.8907
  40   2.0000      -0.585603       -15.9351
  41   2.0000      -0.572366       -15.5749
  42   2.0000      -0.554625       -15.0921
  43   2.0000      -0.548286       -14.9196
  44   2.0000      -0.543664       -14.7939
  45   2.0000      -0.536445       -14.5974
  46   2.0000      -0.524590       -14.2748
  47   2.0000      -0.516333       -14.0501
  48   2.0000      -0.503464       -13.7000
  49   2.0000      -0.488696       -13.2981
  50   2.0000      -0.484776       -13.1914
  51   2.0000      -0.479479       -13.0473
  52   2.0000      -0.474796       -12.9198
  53   2.0000      -0.468534       -12.7495
  54   2.0000      -0.459232       -12.4963
  55   2.0000      -0.445622       -12.1260
  56   2.0000      -0.442497       -12.0410
  57   2.0000      -0.438820       -11.9409
  58   2.0000      -0.432803       -11.7772
  59   2.0000      -0.424166       -11.5421
  60   2.0000      -0.415522       -11.3069
  61   2.0000      -0.411997       -11.2110
  62   2.0000      -0.407677       -11.0935
  63   2.0000      -0.339248        -9.2314
  64   2.0000      -0.332701        -9.0533
  65   2.0000      -0.329457        -8.9650
  66   2.0000      -0.292162        -7.9501
  67   0.0000       0.031970         0.8700
  68   0.0000       0.055246         1.5033
  69   0.0000       0.108362         2.9487
  70   0.0000       0.120555         3.2805
  71   0.0000       0.128491         3.4964

MULLIKEN ATOMIC CHARGES
-----------------------
   0 S :    0.115326
   1 C :   -0.122534
   2 C :   -0.123247
   3 C :    0.021135
   4 C :   -0.134480
   5 H :    0.018628
   6 C :    0.079597
   7 H :    0.028610
   8 H :    0.029666
   9 C :   -0.022653
  10 H :    0.028967
  11 H :    0.030555
  12 C :   -0.082192
  13 H :    0.008362
  14 H :    0.024576
  15 H :    0.046840
  16 S :    0.112443
  17 C :   -0.090760
  18 C :   -0.034868
  19 C :   -0.000406
  20 C :   -0.185678
  21 H :    0.008505
  22 C :    0.062145
  23 H :    0.035735
  24 H :    0.023078
  25 C :   -0.119156
  26 H :    0.044668
  27 H :    0.040828
  28 C :   -0.052772
  29 H :    0.022870
  30 H :    0.036700
  31 H :    0.041986
  32 H :    0.056453
  33 H :    0.051074
Sum of atomic charges:    0.0000000

LOEWDIN ATOMIC CHARGES
----------------------
   0 S :    0.430265
   1 C :   -0.207796
   2 C :   -0.062490
   3 C :   -0.063494
   4 C :   -0.205023
   5 H :    0.035869
   6 C :   -0.028646
   7 H :    0.035857
   8 H :    0.032341
   9 C :   -0.041112
  10 H :    0.025958
  11 H :    0.028663
  12 C :   -0.077013
  13 H :    0.019270
  14 H :    0.026548
  15 H :    0.033196
  16 S :    0.404816
  17 C :   -0.178112
  18 C :   -0.066485
  19 C :   -0.053298
  20 C :   -0.205681
  21 H :    0.026723
  22 C :   -0.040643
  23 H :    0.032315
  24 H :    0.033982
  25 C :   -0.044796
  26 H :    0.031203
  27 H :    0.027987
  28 C :   -0.074332
  29 H :    0.022518
  30 H :    0.025178
  31 H :    0.026982
  32 H :    0.026033
  33 H :    0.023218

  Mayer bond orders larger than 0.100000
B(  0-S ,  1-C ) :   1.1513 B(  0-S ,  4-C ) :   1.1658 B(  1-C ,  2-C ) :   1.6086
B(  1-C , 32-H ) :   0.9624 B(  2-C ,  3-C ) :   1.2329 B(  2-C ,  6-C ) :   1.0121
B(  3-C ,  4-C ) :   1.6139 B(  3-C ,  5-H ) :   0.9970 B(  4-C , 20-C ) :   0.9901
B(  6-C ,  7-H ) :   0.9403 B(  6-C ,  8-H ) :   0.9419 B(  6-C ,  9-C ) :   1.0691
B(  9-C , 10-H ) :   0.9538 B(  9-C , 11-H ) :   0.9527 B(  9-C , 12-C ) :   1.0809
B( 12-C , 13-H ) :   0.9690 B( 12-C , 14-H ) :   0.9706 B( 12-C , 15-H ) :   0.9709
B( 16-S , 17-C ) :   1.1771 B( 16-S , 20-C ) :   1.1344 B( 17-C , 18-C ) :   1.5746
B( 17-C , 20-C ) :   0.1129 B( 17-C , 33-H ) :   0.9727 B( 18-C , 19-C ) :   1.2462
B( 18-C , 21-H ) :   1.0041 B( 19-C , 20-C ) :   1.5808 B( 19-C , 22-C ) :   1.0375
B( 22-C , 23-H ) :   0.9430 B( 22-C , 24-H ) :   0.9213 B( 22-C , 25-C ) :   1.0658
B( 25-C , 26-H ) :   0.9575 B( 25-C , 27-H ) :   0.9530 B( 25-C , 28-C ) :   1.0716
B( 28-C , 29-H ) :   0.9755 B( 28-C , 30-H ) :   0.9749 B( 28-C , 31-H ) :   0.9759

Dispersion correction           -0.015367326
FINAL SINGLE POINT ENERGY     -1339.873242511200

DIPOLE MOMENT
-------------
                                X             Y             Z
Electronic contribution:     13.76887      -1.82206     -22.62911
Nuclear contribution   :    -14.25634       1.98003      22.98382
                        -----------------------------------------
Total Dipole Moment    :     -0.48748       0.15797       0.35471
                        -----------------------------------------
Magnitude (a.u.)       :      0.62323
Magnitude (Debye)      :      1.58412

Rotational constants in cm-1:     0.021265     0.008812     0.007390
Rotational constants in MHz :   637.515232   264.162825   221.550999

                             ****ORCA TERMINATED NORMALLY****
TOTAL RUN TIME: 0 days 0 hours 0 minutes 36 seconds 75 msec
