                         Program Version 4.2.1 -  RELEASE  -
|  1> ! wB97X-D3 SP def2-SVP
|  2> %pal
|  3> nprocs 16
|  4> end
|  5>
|  6> * xyz 0 1
|  7> S 	 -9.94869 	 -7.47247 	 75.9756
|  8> C 	 -9.52887 	 -9.19588 	 76.2888
|  9> C 	 -10.4477 	 -10.0384 	 75.651
| 10> C 	 -11.4239 	 -9.31834 	 74.9057
| 11> C 	 -11.2445 	 -7.92372 	 74.9032
| 12> H 	 -12.286 	 -9.74437 	 74.4441
| 13> C 	 -10.5423 	 -11.5082 	 75.8017
| 14> H 	 -11.4711 	 -11.8629 	 75.3799
| 15> H 	 -10.4841 	 -11.9127 	 76.8905
| 16> C 	 -9.44215 	 -12.2092 	 75.0376
| 17> H 	 -9.33696 	 -11.8998 	 73.9424
| 18> H 	 -8.48587 	 -11.775 	 75.4106
| 19> C 	 -9.11456 	 -13.6982 	 75.2121
| 20> H 	 -9.07162 	 -13.7852 	 76.3166
| 21> H 	 -9.85046 	 -14.3939 	 74.8624
| 22> H 	 -8.08866 	 -13.952 	 74.9022
| 23> S 	 -13.1688 	 -5.91806 	 75.1488
| 24> C 	 -13.6563 	 -5.01156 	 73.7374
| 25> C 	 -13.2909 	 -5.68043 	 72.5581
| 26> C 	 -12.5136 	 -6.88978 	 72.8705
| 27> C 	 -12.1351 	 -6.98326 	 74.2042
| 28> H 	 -13.6987 	 -5.36976 	 71.6419
| 29> C 	 -12.0659 	 -7.82096 	 71.7586
| 30> H 	 -12.8366 	 -7.96741 	 70.9658
| 31> H 	 -11.8707 	 -8.81238 	 72.1808
| 32> C 	 -10.8572 	 -7.39699 	 70.9423
| 33> H 	 -10.8073 	 -6.33407 	 70.7012
| 34> H 	 -11.0584 	 -7.75344 	 69.8994
| 35> C 	 -9.60743 	 -7.93512 	 71.5068
| 36> H 	 -9.58315 	 -8.98969 	 71.5931
| 37> H 	 -9.45709 	 -7.53434 	 72.4752
| 38> H 	 -8.70931 	 -7.65477 	 70.8997
| 39> H 	 -8.71172 	 -9.41137 	 76.9007
| 40> H 	 -14.2364 	 -4.11232 	 73.67
| 41> *
| 42>
| 43>                          ****END OF INPUT****

CARTESIAN COORDINATES (ANGSTROEM)
---------------------------------
  S     -9.948690   -7.472470   75.975600
  C     -9.528870   -9.195880   76.288800
  C    -10.447700  -10.038400   75.651000
  C    -11.423900   -9.318340   74.905700
  C    -11.244500   -7.923720   74.903200
  H    -12.286000   -9.744370   74.444100
  C    -10.542300  -11.508200   75.801700
  H    -11.471100  -11.862900   75.379900
  H    -10.484100  -11.912700   76.890500
  C     -9.442150  -12.209200   75.037600
  H     -9.336960  -11.899800   73.942400
  H     -8.485870  -11.775000   75.410600
  C     -9.114560  -13.698200   75.212100
  H     -9.071620  -13.785200   76.316600
  H     -9.850460  -14.393900   74.862400
  H     -8.088660  -13.952000   74.902200
  S    -13.168800   -5.918060   75.148800
  C    -13.656300   -5.011560   73.737400
  C    -13.290900   -5.680430   72.558100
  C    -12.513600   -6.889780   72.870500
  C    -12.135100   -6.983260   74.204200
  H    -13.698700   -5.369760   71.641900
  C    -12.065900   -7.820960   71.758600
  H    -12.836600   -7.967410   70.965800
  H    -11.870700   -8.812380   72.180800
  C    -10.857200   -7.396990   70.942300
  H    -10.807300   -6.334070   70.701200
  H    -11.058400   -7.753440   69.899400
  C     -9.607430   -7.935120   71.506800
  H     -9.583150   -8.989690   71.593100
  H     -9.457090   -7.534340   72.475200
  H     -8.709310   -7.654770   70.899700
  H     -8.711720   -9.411370   76.900700
  H    -14.236400   -4.112320   73.670000

 Total Charge           Charge          ....    0
 Multiplicity           Mult            ....    1
 Number of Electrons    NEL             ....  134
 Basis Dimension        Dim             ....  322

ORBITAL ENERGIES
----------------

  NO   OCC          E(Eh)            E(eV)
   0   2.0000     -88.972307     -2421.0596
   1   2.0000     -88.964158     -2420.8378
   2   2.0000     -10.335206      -281.2353
   3   2.0000     -10.328850      -281.0623
   4   2.0000     -10.321604      -280.8651
   5   2.0000     -10.318675      -280.7854
   6   2.0000     -10.308730      -280.5148
   7   2.0000     -10.307876      -280.4916
   8   2.0000     -10.300083      -280.2795
   9   2.0000     -10.296904      -280.1930
  10   2.0000     -10.295686      -280.1599
  11   2.0000     -10.290679      -280.0236
  12   2.0000     -10.288733      -279.9706
  13   2.0000     -10.282054      -279.7889
  14   2.0000     -10.278133      -279.6822
  15   2.0000     -10.262079      -279.2454
  16   2.0000      -8.086049      -220.0326
  17   2.0000      -8.078796      -219.8352
  18   2.0000      -6.044482      -164.4787
  19   2.0000      -6.040606      -164.3733
  20   2.0000      -6.037458      -164.2876
  21   2.0000      -6.037012      -164.2755
  22   2.0000      -6.033369      -164.1763
  23   2.0000      -6.029340      -164.0667
  24   2.0000      -1.002540       -27.2805
  25   2.0000      -0.980774       -26.6882
  26   2.0000      -0.916908       -24.9503
  27   2.0000      -0.912069       -24.8187
  28   2.0000      -0.866962       -23.5912
  29   2.0000      -0.852457       -23.1965
  30   2.0000      -0.844416       -22.9777
  31   2.0000      -0.813999       -22.1500
  32   2.0000      -0.785195       -21.3662
  33   2.0000      -0.772975       -21.0337
  34   2.0000      -0.706401       -19.2221
  35   2.0000      -0.696850       -18.9622
  36   2.0000      -0.689434       -18.7605
  37   2.0000      -0.659366       -17.9423
  38   2.0000      -0.651421       -17.7261
  39   2.0000      -0.620504       -16.8848
  40   2.0000      -0.595470       -16.2036
  41   2.0000      -0.575052       -15.6480
  42   2.0000      -0.561967       -15.2919
  43   2.0000      -0.552120       -15.0239
  44   2.0000      -0.534895       -14.5552
  45   2.0000      -0.525152       -14.2901
  46   2.0000      -0.520712       -14.1693
  47   2.0000      -0.513417       -13.9708
  48   2.0000      -0.508481       -13.8365
  49   2.0000      -0.504245       -13.7212
  50   2.0000      -0.493156       -13.4195
  51   2.0000      -0.482100       -13.1186
  52   2.0000      -0.473958       -12.8971
  53   2.0000      -0.466883       -12.7045
  54   2.0000      -0.459849       -12.5131
  55   2.0000      -0.447334       -12.1726
  56   2.0000      -0.438553       -11.9336
  57   2.0000      -0.435239       -11.8435
  58   2.0000      -0.433294       -11.7905
  59   2.0000      -0.422144       -11.4871
  60   2.0000      -0.418080       -11.3765
  61   2.0000      -0.404807       -11.0154
  62   2.0000      -0.400623       -10.9015
  63   2.0000      -0.338000        -9.1975
  64   2.0000      -0.335003        -9.1159
  65   2.0000      -0.323556        -8.8044
  66   2.0000      -0.297353        -8.0914
  67   0.0000       0.024793         0.6746
  68   0.0000       0.060680         1.6512
  69   0.0000       0.100614         2.7378
  70   0.0000       0.109580         2.9818
  71   0.0000       0.125502         3.4151

MULLIKEN ATOMIC CHARGES
-----------------------
   0 S :    0.116957
   1 C :   -0.120909
   2 C :   -0.046187
   3 C :    0.037795
   4 C :   -0.170599
   5 H :    0.016029
   6 C :    0.095882
   7 H :    0.015802
   8 H :    0.046321
   9 C :   -0.151721
  10 H :    0.034525
  11 H :    0.016021
  12 C :   -0.019267
  13 H :    0.013879
  14 H :    0.035893
  15 H :    0.040584
  16 S :    0.108585
  17 C :   -0.085018
  18 C :   -0.017993
  19 C :   -0.019614
  20 C :   -0.156298
  21 H :    0.005245
  22 C :    0.045489
  23 H :    0.026432
  24 H :    0.010561
  25 C :   -0.063409
  26 H :    0.020925
  27 H :    0.012864
  28 C :   -0.006436
  29 H :    0.017617
  30 H :    0.022350
  31 H :    0.027864
  32 H :    0.036586
  33 H :    0.053244
Sum of atomic charges:    0.0000000

LOEWDIN ATOMIC CHARGES
----------------------
   0 S :    0.405840
   1 C :   -0.166694
   2 C :   -0.057057
   3 C :   -0.055213
   4 C :   -0.201647
   5 H :    0.028799
   6 C :   -0.035679
   7 H :    0.026674
   8 H :    0.043516
   9 C :   -0.059907
  10 H :    0.027258
  11 H :    0.024399
  12 C :   -0.066359
  13 H :    0.026066
  14 H :    0.017569
  15 H :    0.032887
  16 S :    0.399867
  17 C :   -0.181436
  18 C :   -0.063252
  19 C :   -0.047138
  20 C :   -0.203720
  21 H :    0.023098
  22 C :   -0.037129
  23 H :    0.037163
  24 H :    0.027842
  25 C :   -0.047004
  26 H :    0.024569
  27 H :    0.023058
  28 C :   -0.060396
  29 H :    0.018586
  30 H :    0.021846
  31 H :    0.029651
  32 H :    0.015287
  33 H :    0.028658

  Mayer bond orders larger than 0.100000
B(  0-S ,  1-C ) :   1.1433 B(  0-S ,  4-C ) :   1.1653 B(  1-C ,  2-C ) :   1.5589
B(  1-C ,  4-C ) :   0.1069 B(  1-C , 32-H ) :   0.9851 B(  2-C ,  3-C ) :   1.2679
B(  2-C ,  6-C ) :   1.0316 B(  3-C ,  4-C ) :   1.5451 B(  3-C ,  5-H ) :   0.9902
B(  4-C , 20-C ) :   1.0317 B(  6-C ,  7-H ) :   0.9349 B(  6-C ,  8-H ) :   0.9353
B(  6-C ,  9-C ) :   1.0537 B(  9-C , 10-H ) :   0.9505 B(  9-C , 11-H ) :   0.9590
B(  9-C , 12-C ) :   1.0744 B( 12-C , 13-H ) :   0.9699 B( 12-C , 14-H ) :   0.9768
B( 12-C , 15-H ) :   0.9737 B( 16-S , 17-C ) :   1.1522 B( 16-S , 20-C ) :   1.1297
B( 17-C , 18-C ) :   1.6211 B( 17-C , 33-H ) :   0.9692 B( 18-C , 19-C ) :   1.2121
B( 18-C , 21-H ) :   0.9967 B( 19-C , 20-C ) :   1.5993 B( 19-C , 22-C ) :   1.0663
B( 22-C , 23-H ) :   0.9360 B( 22-C , 24-H ) :   0.9324 B( 22-C , 25-C ) :   1.0646
B( 25-C , 26-H ) :   0.9507 B( 25-C , 27-H ) :   0.9524 B( 25-C , 28-C ) :   1.0950
B( 28-C , 29-H ) :   0.9718 B( 28-C , 30-H ) :   0.9695 B( 28-C , 31-H ) :   0.9681

Dispersion correction           -0.014863208
FINAL SINGLE POINT ENERGY     -1339.861788686165

DIPOLE MOMENT
-------------
                                X             Y             Z
Electronic contribution:    -10.90577      22.94451      13.77314
Nuclear contribution   :     10.87492     -23.41429     -14.08747
                        -----------------------------------------
Total Dipole Moment    :     -0.03085      -0.46978      -0.31433
                        -----------------------------------------
Magnitude (a.u.)       :      0.56609
Magnitude (Debye)      :      1.43888

Rotational constants in cm-1:     0.021261     0.008158     0.006868
Rotational constants in MHz :   637.380866   244.582430   205.898227

                             ****ORCA TERMINATED NORMALLY****
TOTAL RUN TIME: 0 days 0 hours 0 minutes 34 seconds 905 msec
