                         Program Version 4.2.1 -  RELEASE  -
|  1> ! wB97X-D3 SP def2-SVP
|  2> %pal
|  3> nprocs 16
|  4> end
|  5>
|  6> * xyz 0 1
|  7> S 	 69.6486 	 18.3605 	 73.7771
|  8> C 	 71.3382 	 18.2978 	 73.5631
|  9> C 	 72.0915 	 18.655 	 74.6699
| 10> C 	 71.2476 	 18.7405 	 75.8369
| 11> C 	 69.862 	 18.5889 	 75.5673
| 12> H 	 71.5548 	 18.7419 	 76.863
| 13> C 	 73.6519 	 18.8858 	 74.6622
| 14> H 	 73.9069 	 18.3542 	 73.7725
| 15> H 	 74.0657 	 18.4858 	 75.6223
| 16> C 	 74.1235 	 20.3341 	 74.7488
| 17> H 	 73.7367 	 20.7654 	 75.6683
| 18> H 	 75.1994 	 20.2591 	 74.8917
| 19> C 	 73.8185 	 21.1108 	 73.446
| 20> H 	 74.5373 	 20.8124 	 72.5824
| 21> H 	 72.7653 	 21.1064 	 73.1478
| 22> H 	 74.16 	 22.1246 	 73.5963
| 23> S 	 67.7522 	 20.1283 	 75.8872
| 24> C 	 66.6297 	 19.8902 	 77.1708
| 25> C 	 67.0525 	 18.9208 	 78.0432
| 26> C 	 68.2674 	 18.3142 	 77.6998
| 27> C 	 68.7463 	 18.8345 	 76.4775
| 28> H 	 66.4809 	 18.798 	 78.9832
| 29> C 	 69.0447 	 17.3449 	 78.5799
| 30> H 	 69.3025 	 17.8819 	 79.544
| 31> H 	 70.0012 	 17.0247 	 78.0901
| 32> C 	 68.3266 	 16.0764 	 78.8473
| 33> H 	 67.8536 	 15.6466 	 77.9649
| 34> H 	 67.4659 	 16.2465 	 79.5415
| 35> C 	 69.126 	 14.955 	 79.3664
| 36> H 	 69.7594 	 15.2391 	 80.1877
| 37> H 	 69.6948 	 14.6734 	 78.5661
| 38> H 	 68.5684 	 14.0812 	 79.758
| 39> H 	 71.7834 	 18.2206 	 72.5682
| 40> H 	 65.7608 	 20.5676 	 77.4571
| 41> *
| 42>
| 43>                          ****END OF INPUT****

CARTESIAN COORDINATES (ANGSTROEM)
---------------------------------
  S     69.648600   18.360500   73.777100
  C     71.338200   18.297800   73.563100
  C     72.091500   18.655000   74.669900
  C     71.247600   18.740500   75.836900
  C     69.862000   18.588900   75.567300
  H     71.554800   18.741900   76.863000
  C     73.651900   18.885800   74.662200
  H     73.906900   18.354200   73.772500
  H     74.065700   18.485800   75.622300
  C     74.123500   20.334100   74.748800
  H     73.736700   20.765400   75.668300
  H     75.199400   20.259100   74.891700
  C     73.818500   21.110800   73.446000
  H     74.537300   20.812400   72.582400
  H     72.765300   21.106400   73.147800
  H     74.160000   22.124600   73.596300
  S     67.752200   20.128300   75.887200
  C     66.629700   19.890200   77.170800
  C     67.052500   18.920800   78.043200
  C     68.267400   18.314200   77.699800
  C     68.746300   18.834500   76.477500
  H     66.480900   18.798000   78.983200
  C     69.044700   17.344900   78.579900
  H     69.302500   17.881900   79.544000
  H     70.001200   17.024700   78.090100
  C     68.326600   16.076400   78.847300
  H     67.853600   15.646600   77.964900
  H     67.465900   16.246500   79.541500
  C     69.126000   14.955000   79.366400
  H     69.759400   15.239100   80.187700
  H     69.694800   14.673400   78.566100
  H     68.568400   14.081200   79.758000
  H     71.783400   18.220600   72.568200
  H     65.760800   20.567600   77.457100

 Total Charge           Charge          ....    0
 Multiplicity           Mult            ....    1
 Number of Electrons    NEL             ....  134
 Basis Dimension        Dim             ....  322

ORBITAL ENERGIES
----------------

  NO   OCC          E(Eh)            E(eV)
   0   2.0000     -88.968339     -2420.9516
   1   2.0000     -88.965507     -2420.8745
   2   2.0000     -10.335908      -281.2544
   3   2.0000     -10.326842      -281.0076
   4   2.0000     -10.315640      -280.7028
   5   2.0000     -10.312797      -280.6255
   6   2.0000     -10.305482      -280.4264
   7   2.0000     -10.303958      -280.3849
   8   2.0000     -10.298666      -280.2409
   9   2.0000     -10.298377      -280.2331
  10   2.0000     -10.296519      -280.1825
  11   2.0000     -10.291514      -280.0463
  12   2.0000     -10.288878      -279.9746
  13   2.0000     -10.282950      -279.8133
  14   2.0000     -10.276592      -279.6403
  15   2.0000     -10.264478      -279.3107
  16   2.0000      -8.082666      -219.9405
  17   2.0000      -8.080972      -219.8944
  18   2.0000      -6.041164      -164.3884
  19   2.0000      -6.039330      -164.3385
  20   2.0000      -6.037279      -164.2827
  21   2.0000      -6.035288      -164.2285
  22   2.0000      -6.033401      -164.1772
  23   2.0000      -6.031914      -164.1367
  24   2.0000      -1.007247       -27.4086
  25   2.0000      -0.982283       -26.7293
  26   2.0000      -0.921006       -25.0618
  27   2.0000      -0.907414       -24.6920
  28   2.0000      -0.869376       -23.6569
  29   2.0000      -0.857724       -23.3399
  30   2.0000      -0.843486       -22.9524
  31   2.0000      -0.810221       -22.0472
  32   2.0000      -0.783222       -21.3125
  33   2.0000      -0.771524       -20.9942
  34   2.0000      -0.707068       -19.2403
  35   2.0000      -0.691106       -18.8059
  36   2.0000      -0.688680       -18.7399
  37   2.0000      -0.655047       -17.8247
  38   2.0000      -0.638801       -17.3827
  39   2.0000      -0.616593       -16.7783
  40   2.0000      -0.595527       -16.2051
  41   2.0000      -0.575572       -15.6621
  42   2.0000      -0.561779       -15.2868
  43   2.0000      -0.548542       -14.9266
  44   2.0000      -0.544911       -14.8278
  45   2.0000      -0.524109       -14.2617
  46   2.0000      -0.517238       -14.0748
  47   2.0000      -0.513718       -13.9790
  48   2.0000      -0.500510       -13.6196
  49   2.0000      -0.494887       -13.4666
  50   2.0000      -0.488661       -13.2971
  51   2.0000      -0.482983       -13.1426
  52   2.0000      -0.470337       -12.7985
  53   2.0000      -0.464817       -12.6483
  54   2.0000      -0.459735       -12.5100
  55   2.0000      -0.451372       -12.2825
  56   2.0000      -0.442695       -12.0463
  57   2.0000      -0.437988       -11.9183
  58   2.0000      -0.428417       -11.6578
  59   2.0000      -0.422709       -11.5025
  60   2.0000      -0.421777       -11.4771
  61   2.0000      -0.412431       -11.2228
  62   2.0000      -0.406930       -11.0731
  63   2.0000      -0.346780        -9.4364
  64   2.0000      -0.333329        -9.0704
  65   2.0000      -0.326442        -8.8829
  66   2.0000      -0.288616        -7.8537
  67   0.0000       0.032370         0.8808
  68   0.0000       0.060275         1.6402
  69   0.0000       0.112087         3.0500
  70   0.0000       0.118926         3.2361
  71   0.0000       0.130728         3.5573

MULLIKEN ATOMIC CHARGES
-----------------------
   0 S :    0.117596
   1 C :   -0.119707
   2 C :   -0.111966
   3 C :    0.049225
   4 C :   -0.171611
   5 H :    0.012372
   6 C :    0.071670
   7 H :    0.017459
   8 H :    0.030746
   9 C :   -0.048314
  10 H :    0.030281
  11 H :    0.030524
  12 C :   -0.081032
  13 H :    0.038131
  14 H :    0.058021
  15 H :    0.027429
  16 S :    0.114918
  17 C :   -0.110919
  18 C :   -0.067023
  19 C :    0.001699
  20 C :   -0.190835
  21 H :    0.029769
  22 C :    0.066877
  23 H :    0.048433
  24 H :    0.021072
  25 C :   -0.099838
  26 H :    0.028997
  27 H :    0.021028
  28 C :   -0.009856
  29 H :    0.013910
  30 H :    0.014453
  31 H :    0.035886
  32 H :    0.053333
  33 H :    0.077269
Sum of atomic charges:   -0.0000000

LOEWDIN ATOMIC CHARGES
----------------------
   0 S :    0.400120
   1 C :   -0.214581
   2 C :   -0.068453
   3 C :   -0.054699
   4 C :   -0.188740
   5 H :    0.026898
   6 C :   -0.024781
   7 H :    0.024605
   8 H :    0.035672
   9 C :   -0.039952
  10 H :    0.024958
  11 H :    0.026899
  12 C :   -0.076468
  13 H :    0.036384
  14 H :    0.028688
  15 H :    0.023306
  16 S :    0.432765
  17 C :   -0.211972
  18 C :   -0.080341
  19 C :   -0.056404
  20 C :   -0.202296
  21 H :    0.037887
  22 C :   -0.032772
  23 H :    0.041387
  24 H :    0.033258
  25 C :   -0.052989
  26 H :    0.028334
  27 H :    0.020771
  28 C :   -0.058823
  29 H :    0.019486
  30 H :    0.014101
  31 H :    0.033583
  32 H :    0.028691
  33 H :    0.045482

  Mayer bond orders larger than 0.100000
B(  0-S ,  1-C ) :   1.1546 B(  0-S ,  4-C ) :   1.1347 B(  1-C ,  2-C ) :   1.6141
B(  1-C , 32-H ) :   0.9566 B(  2-C ,  3-C ) :   1.2423 B(  2-C ,  6-C ) :   1.0109
B(  3-C ,  4-C ) :   1.5733 B(  3-C ,  5-H ) :   0.9905 B(  4-C , 20-C ) :   1.0403
B(  6-C ,  7-H ) :   0.9435 B(  6-C ,  8-H ) :   0.9432 B(  6-C ,  9-C ) :   1.0699
B(  9-C , 10-H ) :   0.9543 B(  9-C , 11-H ) :   0.9546 B(  9-C , 12-C ) :   1.0723
B( 12-C , 13-H ) :   0.9730 B( 12-C , 14-H ) :   0.9775 B( 12-C , 15-H ) :   0.9725
B( 16-S , 17-C ) :   1.1592 B( 16-S , 20-C ) :   1.1741 B( 17-C , 18-C ) :   1.6072
B( 17-C , 20-C ) :   0.1036 B( 17-C , 33-H ) :   0.9554 B( 18-C , 19-C ) :   1.2605
B( 18-C , 21-H ) :   0.9834 B( 19-C , 20-C ) :   1.5569 B( 19-C , 22-C ) :   1.0429
B( 22-C , 23-H ) :   0.9274 B( 22-C , 24-H ) :   0.9356 B( 22-C , 25-C ) :   1.0647
B( 25-C , 26-H ) :   0.9573 B( 25-C , 27-H ) :   0.9465 B( 25-C , 28-C ) :   1.0967
B( 28-C , 29-H ) :   0.9677 B( 28-C , 30-H ) :   0.9746 B( 28-C , 31-H ) :   0.9702

Dispersion correction           -0.013663623
FINAL SINGLE POINT ENERGY     -1339.864554805293

DIPOLE MOMENT
-------------
                                X             Y             Z
Electronic contribution:    -16.99478       6.71222     -10.28398
Nuclear contribution   :     17.43698      -6.66574      10.72825
                        -----------------------------------------
Total Dipole Moment    :      0.44219       0.04648       0.44427
                        -----------------------------------------
Magnitude (a.u.)       :      0.62855
Magnitude (Debye)      :      1.59764

Rotational constants in cm-1:     0.019503     0.007790     0.006554
Rotational constants in MHz :   584.681234   233.537622   196.471608

                             ****ORCA TERMINATED NORMALLY****
TOTAL RUN TIME: 0 days 0 hours 0 minutes 29 seconds 400 msec
