                         Program Version 4.2.1 -  RELEASE  -
|  1> ! wB97X-D3 SP def2-SVP
|  2> %pal
|  3> nprocs 16
|  4> end
|  5>
|  6> * xyz 0 1
|  7> S 	 33.6776 	 0.169548 	 71.5846
|  8> C 	 34.7267 	 1.32942 	 70.8414
|  9> C 	 34.2383 	 1.66432 	 69.5869
| 10> C 	 32.9515 	 1.15345 	 69.2669
| 11> C 	 32.5423 	 0.273313 	 70.1873
| 12> H 	 32.2935 	 1.35529 	 68.3584
| 13> C 	 34.9021 	 2.61948 	 68.6124
| 14> H 	 35.8043 	 3.02961 	 68.9685
| 15> H 	 34.2507 	 3.46613 	 68.4267
| 16> C 	 35.1452 	 1.97608 	 67.2124
| 17> H 	 34.2763 	 1.4661 	 66.8005
| 18> H 	 35.5051 	 2.7347 	 66.538
| 19> C 	 36.338 	 1.01853 	 67.1038
| 20> H 	 36.1817 	 0.187405 	 67.7682
| 21> H 	 36.3462 	 0.718843 	 66.0298
| 22> H 	 37.3337 	 1.4497 	 67.4435
| 23> S 	 31.2643 	 -2.17066 	 69.9411
| 24> C 	 29.6726 	 -2.23054 	 69.2226
| 25> C 	 29.0913 	 -1.01404 	 69.2864
| 26> C 	 29.9691 	 0.00499688 	 69.7862
| 27> C 	 31.2731 	 -0.437899 	 70.0288
| 28> H 	 28.0725 	 -0.820941 	 68.9911
| 29> C 	 29.481 	 1.39674 	 69.9342
| 30> H 	 28.5846 	 1.53846 	 69.3309
| 31> H 	 30.1743 	 1.96759 	 69.4405
| 32> C 	 29.1191 	 1.84544 	 71.3648
| 33> H 	 30.0924 	 1.76597 	 71.8904
| 34> H 	 28.4093 	 1.17435 	 71.8526
| 35> C 	 28.7164 	 3.36966 	 71.4698
| 36> H 	 27.797 	 3.62384 	 70.9509
| 37> H 	 29.4484 	 4.13827 	 71.1746
| 38> H 	 28.7373 	 3.56863 	 72.5342
| 39> H 	 35.6998 	 1.63611 	 71.1081
| 40> H 	 29.2583 	 -3.13645 	 68.7215
| 41> *
| 42>
| 43>                          ****END OF INPUT****

CARTESIAN COORDINATES (ANGSTROEM)
---------------------------------
  S     33.677600    0.169548   71.584600
  C     34.726700    1.329420   70.841400
  C     34.238300    1.664320   69.586900
  C     32.951500    1.153450   69.266900
  C     32.542300    0.273313   70.187300
  H     32.293500    1.355290   68.358400
  C     34.902100    2.619480   68.612400
  H     35.804300    3.029610   68.968500
  H     34.250700    3.466130   68.426700
  C     35.145200    1.976080   67.212400
  H     34.276300    1.466100   66.800500
  H     35.505100    2.734700   66.538000
  C     36.338000    1.018530   67.103800
  H     36.181700    0.187405   67.768200
  H     36.346200    0.718843   66.029800
  H     37.333700    1.449700   67.443500
  S     31.264300   -2.170660   69.941100
  C     29.672600   -2.230540   69.222600
  C     29.091300   -1.014040   69.286400
  C     29.969100    0.004997   69.786200
  C     31.273100   -0.437899   70.028800
  H     28.072500   -0.820941   68.991100
  C     29.481000    1.396740   69.934200
  H     28.584600    1.538460   69.330900
  H     30.174300    1.967590   69.440500
  C     29.119100    1.845440   71.364800
  H     30.092400    1.765970   71.890400
  H     28.409300    1.174350   71.852600
  C     28.716400    3.369660   71.469800
  H     27.797000    3.623840   70.950900
  H     29.448400    4.138270   71.174600
  H     28.737300    3.568630   72.534200
  H     35.699800    1.636110   71.108100
  H     29.258300   -3.136450   68.721500

 Total Charge           Charge          ....    0
 Multiplicity           Mult            ....    1
 Number of Electrons    NEL             ....  134
 Basis Dimension        Dim             ....  322

ORBITAL ENERGIES
----------------

  NO   OCC          E(Eh)            E(eV)
   0   2.0000     -88.969956     -2420.9956
   1   2.0000     -88.960484     -2420.7378
   2   2.0000     -10.331891      -281.1450
   3   2.0000     -10.325982      -280.9843
   4   2.0000     -10.317605      -280.7563
   5   2.0000     -10.312347      -280.6132
   6   2.0000     -10.300946      -280.3030
   7   2.0000     -10.300208      -280.2829
   8   2.0000     -10.296506      -280.1822
   9   2.0000     -10.290342      -280.0145
  10   2.0000     -10.290105      -280.0080
  11   2.0000     -10.287885      -279.9476
  12   2.0000     -10.283580      -279.8304
  13   2.0000     -10.279028      -279.7066
  14   2.0000     -10.277991      -279.6784
  15   2.0000     -10.277753      -279.6719
  16   2.0000      -8.083902      -219.9742
  17   2.0000      -8.076015      -219.7596
  18   2.0000      -6.042625      -164.4282
  19   2.0000      -6.038553      -164.3174
  20   2.0000      -6.034544      -164.2083
  21   2.0000      -6.034441      -164.2055
  22   2.0000      -6.030389      -164.0952
  23   2.0000      -6.026725      -163.9955
  24   2.0000      -1.009968       -27.4826
  25   2.0000      -0.988888       -26.9090
  26   2.0000      -0.908304       -24.7162
  27   2.0000      -0.906354       -24.6632
  28   2.0000      -0.875842       -23.8329
  29   2.0000      -0.850008       -23.1299
  30   2.0000      -0.844065       -22.9682
  31   2.0000      -0.820348       -22.3228
  32   2.0000      -0.780276       -21.2324
  33   2.0000      -0.770045       -20.9540
  34   2.0000      -0.710173       -19.3248
  35   2.0000      -0.697485       -18.9795
  36   2.0000      -0.689264       -18.7558
  37   2.0000      -0.662266       -18.0212
  38   2.0000      -0.640554       -17.4304
  39   2.0000      -0.623659       -16.9706
  40   2.0000      -0.595749       -16.2111
  41   2.0000      -0.571185       -15.5427
  42   2.0000      -0.559642       -15.2286
  43   2.0000      -0.548092       -14.9143
  44   2.0000      -0.537920       -14.6375
  45   2.0000      -0.527014       -14.3408
  46   2.0000      -0.521158       -14.1814
  47   2.0000      -0.511267       -13.9123
  48   2.0000      -0.507376       -13.8064
  49   2.0000      -0.504435       -13.7264
  50   2.0000      -0.492379       -13.3983
  51   2.0000      -0.486800       -13.2465
  52   2.0000      -0.470517       -12.8034
  53   2.0000      -0.468513       -12.7489
  54   2.0000      -0.455417       -12.3925
  55   2.0000      -0.446782       -12.1576
  56   2.0000      -0.439005       -11.9459
  57   2.0000      -0.434842       -11.8326
  58   2.0000      -0.433112       -11.7856
  59   2.0000      -0.426530       -11.6065
  60   2.0000      -0.413450       -11.2505
  61   2.0000      -0.410524       -11.1709
  62   2.0000      -0.407166       -11.0795
  63   2.0000      -0.352758        -9.5990
  64   2.0000      -0.331615        -9.0237
  65   2.0000      -0.323295        -8.7973
  66   2.0000      -0.295837        -8.0501
  67   0.0000       0.035231         0.9587
  68   0.0000       0.061358         1.6696
  69   0.0000       0.116200         3.1620
  70   0.0000       0.120821         3.2877
  71   0.0000       0.126399         3.4395

MULLIKEN ATOMIC CHARGES
-----------------------
   0 S :    0.114084
   1 C :   -0.079437
   2 C :   -0.103345
   3 C :   -0.007394
   4 C :   -0.128380
   5 H :    0.061470
   6 C :    0.116202
   7 H :   -0.005880
   8 H :    0.031110
   9 C :   -0.103251
  10 H :    0.036335
  11 H :    0.025490
  12 C :   -0.075280
  13 H :    0.031275
  14 H :    0.045343
  15 H :    0.032544
  16 S :    0.097067
  17 C :   -0.108716
  18 C :   -0.012415
  19 C :   -0.084614
  20 C :   -0.163874
  21 H :    0.015371
  22 C :    0.141274
  23 H :   -0.003196
  24 H :   -0.019859
  25 C :   -0.077480
  26 H :    0.034441
  27 H :    0.038696
  28 C :   -0.050717
  29 H :    0.037994
  30 H :    0.028678
  31 H :    0.031332
  32 H :    0.028667
  33 H :    0.076467
Sum of atomic charges:   -0.0000000

LOEWDIN ATOMIC CHARGES
----------------------
   0 S :    0.387996
   1 C :   -0.200501
   2 C :   -0.060943
   3 C :   -0.064736
   4 C :   -0.175960
   5 H :    0.051927
   6 C :   -0.025905
   7 H :    0.019086
   8 H :    0.033491
   9 C :   -0.042573
  10 H :    0.023462
  11 H :    0.023096
  12 C :   -0.069761
  13 H :    0.017925
  14 H :    0.032575
  15 H :    0.026930
  16 S :    0.406918
  17 C :   -0.187578
  18 C :   -0.074432
  19 C :   -0.054777
  20 C :   -0.203575
  21 H :    0.031379
  22 C :   -0.034273
  23 H :    0.025052
  24 H :    0.016467
  25 C :   -0.031861
  26 H :    0.029947
  27 H :    0.027394
  28 C :   -0.072824
  29 H :    0.022022
  30 H :    0.029398
  31 H :    0.029438
  32 H :    0.023843
  33 H :    0.041352

  Mayer bond orders larger than 0.100000
B(  0-S ,  1-C ) :   1.1148 B(  0-S ,  4-C ) :   1.1205 B(  1-C ,  2-C ) :   1.6421
B(  1-C , 32-H ) :   0.9682 B(  2-C ,  3-C ) :   1.1986 B(  2-C ,  6-C ) :   1.0388
B(  3-C ,  4-C ) :   1.6359 B(  3-C ,  5-H ) :   0.9743 B(  4-C , 20-C ) :   1.0284
B(  6-C ,  7-H ) :   0.9384 B(  6-C ,  8-H ) :   0.9381 B(  6-C ,  9-C ) :   1.0665
B(  9-C , 10-H ) :   0.9588 B(  9-C , 11-H ) :   0.9586 B(  9-C , 12-C ) :   1.0697
B( 12-C , 13-H ) :   0.9785 B( 12-C , 14-H ) :   0.9748 B( 12-C , 15-H ) :   0.9745
B( 16-S , 17-C ) :   1.1616 B( 16-S , 20-C ) :   1.1353 B( 17-C , 18-C ) :   1.5904
B( 17-C , 33-H ) :   0.9631 B( 18-C , 19-C ) :   1.2548 B( 18-C , 21-H ) :   0.9948
B( 19-C , 20-C ) :   1.5749 B( 19-C , 22-C ) :   1.0540 B( 22-C , 23-H ) :   0.9231
B( 22-C , 24-H ) :   0.9167 B( 22-C , 25-C ) :   1.0585 B( 25-C , 26-H ) :   0.9574
B( 25-C , 27-H ) :   0.9574 B( 25-C , 28-C ) :   1.0736 B( 28-C , 29-H ) :   0.9780
B( 28-C , 30-H ) :   0.9742 B( 28-C , 31-H ) :   0.9743

Dispersion correction           -0.014385062
FINAL SINGLE POINT ENERGY     -1339.863915641548

DIPOLE MOMENT
-------------
                                X             Y             Z
Electronic contribution:      0.04825     -19.37642       9.83800
Nuclear contribution   :     -0.21935      19.89531     -10.31089
                        -----------------------------------------
Total Dipole Moment    :     -0.17109       0.51889      -0.47289
                        -----------------------------------------
Magnitude (a.u.)       :      0.72260
Magnitude (Debye)      :      1.83670

Rotational constants in cm-1:     0.017295     0.008694     0.007506
Rotational constants in MHz :   518.505103   260.641261   225.013952

                             ****ORCA TERMINATED NORMALLY****
TOTAL RUN TIME: 0 days 0 hours 0 minutes 28 seconds 361 msec
