                         Program Version 4.2.1 -  RELEASE  -
|  1> ! wB97X-D3 SP def2-SVP
|  2> %pal
|  3> nprocs 16
|  4> end
|  5>
|  6> * xyz 0 1
|  7> S 	 -32.6523 	 63.2373 	 120.372
|  8> C 	 -33.8182 	 63.4759 	 119.075
|  9> C 	 -33.2563 	 63.4249 	 117.8
| 10> C 	 -31.8149 	 63.3158 	 117.929
| 11> C 	 -31.3522 	 63.3984 	 119.203
| 12> H 	 -31.1906 	 63.1705 	 117.114
| 13> C 	 -34.022 	 63.2828 	 116.48
| 14> H 	 -33.7296 	 64.1185 	 115.964
| 15> H 	 -35.1362 	 63.2975 	 116.692
| 16> C 	 -33.8469 	 62.0088 	 115.716
| 17> H 	 -34.2259 	 62.1416 	 114.659
| 18> H 	 -32.7975 	 61.8648 	 115.768
| 19> C 	 -34.5457 	 60.7771 	 116.309
| 20> H 	 -34.5817 	 59.938 	 115.555
| 21> H 	 -34.0709 	 60.5596 	 117.238
| 22> H 	 -35.6186 	 60.9652 	 116.522
| 23> S 	 -29.6195 	 62.7999 	 121.191
| 24> C 	 -27.8742 	 63.2287 	 121.103
| 25> C 	 -27.637 	 63.9162 	 119.93
| 26> C 	 -28.735 	 63.9911 	 119.004
| 27> C 	 -29.9587 	 63.494 	 119.609
| 28> H 	 -26.5929 	 64.2255 	 119.904
| 29> C 	 -28.544 	 64.4752 	 117.558
| 30> H 	 -28.002 	 65.4482 	 117.41
| 31> H 	 -29.5508 	 64.5948 	 117.213
| 32> C 	 -28.0518 	 63.2993 	 116.712
| 33> H 	 -28.4995 	 62.2907 	 116.92
| 34> H 	 -27.1387 	 63.0076 	 117.084
| 35> C 	 -28.0331 	 63.5068 	 115.217
| 36> H 	 -27.2976 	 64.2806 	 114.93
| 37> H 	 -29.0347 	 63.88 	 114.965
| 38> H 	 -27.8713 	 62.6465 	 114.709
| 39> H 	 -34.959 	 63.4257 	 119.213
| 40> H 	 -27.2553 	 63.3623 	 122.003
| 41> *
| 42>
| 43>                          ****END OF INPUT****

CARTESIAN COORDINATES (ANGSTROEM)
---------------------------------
  S    -32.652300   63.237300  120.372000
  C    -33.818200   63.475900  119.075000
  C    -33.256300   63.424900  117.800000
  C    -31.814900   63.315800  117.929000
  C    -31.352200   63.398400  119.203000
  H    -31.190600   63.170500  117.114000
  C    -34.022000   63.282800  116.480000
  H    -33.729600   64.118500  115.964000
  H    -35.136200   63.297500  116.692000
  C    -33.846900   62.008800  115.716000
  H    -34.225900   62.141600  114.659000
  H    -32.797500   61.864800  115.768000
  C    -34.545700   60.777100  116.309000
  H    -34.581700   59.938000  115.555000
  H    -34.070900   60.559600  117.238000
  H    -35.618600   60.965200  116.522000
  S    -29.619500   62.799900  121.191000
  C    -27.874200   63.228700  121.103000
  C    -27.637000   63.916200  119.930000
  C    -28.735000   63.991100  119.004000
  C    -29.958700   63.494000  119.609000
  H    -26.592900   64.225500  119.904000
  C    -28.544000   64.475200  117.558000
  H    -28.002000   65.448200  117.410000
  H    -29.550800   64.594800  117.213000
  C    -28.051800   63.299300  116.712000
  H    -28.499500   62.290700  116.920000
  H    -27.138700   63.007600  117.084000
  C    -28.033100   63.506800  115.217000
  H    -27.297600   64.280600  114.930000
  H    -29.034700   63.880000  114.965000
  H    -27.871300   62.646500  114.709000
  H    -34.959000   63.425700  119.213000
  H    -27.255300   63.362300  122.003000

 Total Charge           Charge          ....    0
 Multiplicity           Mult            ....    1
 Number of Electrons    NEL             ....  134
 Basis Dimension        Dim             ....  322

ORBITAL ENERGIES
----------------

  NO   OCC          E(Eh)            E(eV)
   0   2.0000     -88.970181     -2421.0017
   1   2.0000     -88.963615     -2420.8230
   2   2.0000     -10.339476      -281.3514
   3   2.0000     -10.332259      -281.1550
   4   2.0000     -10.323724      -280.9228
   5   2.0000     -10.319123      -280.7976
   6   2.0000     -10.318678      -280.7855
   7   2.0000     -10.306732      -280.4604
   8   2.0000     -10.298749      -280.2432
   9   2.0000     -10.298223      -280.2289
  10   2.0000     -10.292581      -280.0754
  11   2.0000     -10.291359      -280.0421
  12   2.0000     -10.287903      -279.9481
  13   2.0000     -10.281511      -279.7741
  14   2.0000     -10.279679      -279.7243
  15   2.0000     -10.273194      -279.5478
  16   2.0000      -8.084700      -219.9959
  17   2.0000      -8.077716      -219.8058
  18   2.0000      -6.043404      -164.4494
  19   2.0000      -6.039494      -164.3430
  20   2.0000      -6.036293      -164.2559
  21   2.0000      -6.034995      -164.2206
  22   2.0000      -6.032299      -164.1472
  23   2.0000      -6.028477      -164.0432
  24   2.0000      -1.005885       -27.3715
  25   2.0000      -0.977432       -26.5973
  26   2.0000      -0.920250       -25.0413
  27   2.0000      -0.913255       -24.8509
  28   2.0000      -0.870912       -23.6987
  29   2.0000      -0.853735       -23.2313
  30   2.0000      -0.844233       -22.9728
  31   2.0000      -0.818098       -22.2616
  32   2.0000      -0.785986       -21.3878
  33   2.0000      -0.773009       -21.0346
  34   2.0000      -0.711466       -19.3600
  35   2.0000      -0.702220       -19.1084
  36   2.0000      -0.690940       -18.8014
  37   2.0000      -0.657900       -17.9024
  38   2.0000      -0.633357       -17.2345
  39   2.0000      -0.632745       -17.2179
  40   2.0000      -0.594452       -16.1759
  41   2.0000      -0.572991       -15.5919
  42   2.0000      -0.565262       -15.3815
  43   2.0000      -0.557056       -15.1583
  44   2.0000      -0.548556       -14.9270
  45   2.0000      -0.534056       -14.5324
  46   2.0000      -0.519062       -14.1244
  47   2.0000      -0.513310       -13.9679
  48   2.0000      -0.503634       -13.7046
  49   2.0000      -0.494277       -13.4499
  50   2.0000      -0.491549       -13.3757
  51   2.0000      -0.483834       -13.1658
  52   2.0000      -0.467055       -12.7092
  53   2.0000      -0.465030       -12.6541
  54   2.0000      -0.458239       -12.4693
  55   2.0000      -0.452494       -12.3130
  56   2.0000      -0.448468       -12.2034
  57   2.0000      -0.443685       -12.0733
  58   2.0000      -0.436595       -11.8804
  59   2.0000      -0.422973       -11.5097
  60   2.0000      -0.416984       -11.3467
  61   2.0000      -0.412927       -11.2363
  62   2.0000      -0.404932       -11.0187
  63   2.0000      -0.359206        -9.7745
  64   2.0000      -0.336476        -9.1560
  65   2.0000      -0.326308        -8.8793
  66   2.0000      -0.283929        -7.7261
  67   0.0000       0.011875         0.3231
  68   0.0000       0.072878         1.9831
  69   0.0000       0.097015         2.6399
  70   0.0000       0.118636         3.2282
  71   0.0000       0.129399         3.5211

MULLIKEN ATOMIC CHARGES
-----------------------
   0 S :    0.113150
   1 C :   -0.139975
   2 C :   -0.113735
   3 C :   -0.000591
   4 C :   -0.084566
   5 H :   -0.012660
   6 C :    0.099951
   7 H :    0.019847
   8 H :    0.020100
   9 C :   -0.073304
  10 H :    0.042588
  11 H :    0.018088
  12 C :   -0.061829
  13 H :    0.046748
  14 H :    0.041573
  15 H :    0.023118
  16 S :    0.061015
  17 C :   -0.110425
  18 C :   -0.050900
  19 C :   -0.055536
  20 C :   -0.127087
  21 H :    0.031630
  22 C :    0.100887
  23 H :    0.052182
  24 H :   -0.007400
  25 C :   -0.093189
  26 H :    0.026598
  27 H :   -0.010019
  28 C :    0.028983
  29 H :    0.032345
  30 H :    0.015304
  31 H :    0.014973
  32 H :    0.074113
  33 H :    0.078023
Sum of atomic charges:   -0.0000000

LOEWDIN ATOMIC CHARGES
----------------------
   0 S :    0.393991
   1 C :   -0.202845
   2 C :   -0.060902
   3 C :   -0.058899
   4 C :   -0.186845
   5 H :    0.016774
   6 C :   -0.026541
   7 H :    0.021661
   8 H :    0.034063
   9 C :   -0.042962
  10 H :    0.033342
  11 H :    0.017461
  12 C :   -0.065370
  13 H :    0.034696
  14 H :    0.024235
  15 H :    0.023890
  16 S :    0.372658
  17 C :   -0.188876
  18 C :   -0.071460
  19 C :   -0.050960
  20 C :   -0.178789
  21 H :    0.038454
  22 C :   -0.028843
  23 H :    0.041202
  24 H :    0.021156
  25 C :   -0.050651
  26 H :    0.035378
  27 H :    0.009031
  28 C :   -0.051147
  29 H :    0.028806
  30 H :    0.024463
  31 H :    0.013021
  32 H :    0.043567
  33 H :    0.037238

  Mayer bond orders larger than 0.100000
B(  0-S ,  1-C ) :   1.1275 B(  0-S ,  4-C ) :   1.1268 B(  1-C ,  2-C ) :   1.6402
B(  1-C , 32-H ) :   0.9513 B(  2-C ,  3-C ) :   1.2165 B(  2-C ,  6-C ) :   1.0144
B(  3-C ,  4-C ) :   1.5798 B(  3-C ,  5-H ) :   1.0027 B(  4-C , 20-C ) :   1.0886
B(  6-C ,  7-H ) :   0.9277 B(  6-C ,  8-H ) :   0.9431 B(  6-C ,  9-C ) :   1.0769
B(  9-C , 10-H ) :   0.9520 B(  9-C , 11-H ) :   0.9557 B(  9-C , 12-C ) :   1.0765
B( 12-C , 13-H ) :   0.9746 B( 12-C , 14-H ) :   0.9773 B( 12-C , 15-H ) :   0.9729
B( 16-S , 17-C ) :   1.1268 B( 16-S , 20-C ) :   1.1523 B( 17-C , 18-C ) :   1.6430
B( 17-C , 20-C ) :   0.1080 B( 17-C , 33-H ) :   0.9563 B( 18-C , 19-C ) :   1.2284
B( 18-C , 21-H ) :   0.9846 B( 19-C , 20-C ) :   1.5416 B( 19-C , 22-C ) :   1.0473
B( 22-C , 23-H ) :   0.9395 B( 22-C , 24-H ) :   0.9245 B( 22-C , 25-C ) :   1.0463
B( 25-C , 26-H ) :   0.9459 B( 25-C , 27-H ) :   0.9457 B( 25-C , 28-C ) :   1.0864
B( 28-C , 29-H ) :   0.9717 B( 28-C , 30-H ) :   0.9726 B( 28-C , 31-H ) :   0.9706

Dispersion correction           -0.014355722
FINAL SINGLE POINT ENERGY     -1339.841572498906

DIPOLE MOMENT
-------------
                                X             Y             Z
Electronic contribution:      1.16871       3.69393      28.69879
Nuclear contribution   :     -1.04332      -3.66413     -29.38837
                        -----------------------------------------
Total Dipole Moment    :      0.12539       0.02980      -0.68958
                        -----------------------------------------
Magnitude (a.u.)       :      0.70152
Magnitude (Debye)      :      1.78312

Rotational constants in cm-1:     0.017461     0.009541     0.006751
Rotational constants in MHz :   523.465288   286.037932   202.376647

                             ****ORCA TERMINATED NORMALLY****
TOTAL RUN TIME: 0 days 0 hours 0 minutes 31 seconds 26 msec
