                         Program Version 4.2.1 -  RELEASE  -
|  1> ! wB97X-D3 SP def2-SVP
|  2> %pal
|  3> nprocs 16
|  4> end
|  5>
|  6> * xyz 0 1
|  7> S 	 68.3692 	 22.1183 	 75.8777
|  8> C 	 69.1346 	 21.4443 	 77.3024
|  9> C 	 70.5228 	 21.475 	 77.1583
| 10> C 	 70.9529 	 22.1072 	 75.9543
| 11> C 	 69.9108 	 22.4947 	 75.1124
| 12> H 	 72.0173 	 22.2858 	 75.7036
| 13> C 	 71.4793 	 20.933 	 78.1832
| 14> H 	 70.9628 	 20.52 	 79.0979
| 15> H 	 72.0737 	 21.7954 	 78.4336
| 16> C 	 72.4307 	 19.7425 	 77.7465
| 17> H 	 71.887 	 18.8227 	 77.5771
| 18> H 	 72.8244 	 19.9326 	 76.7205
| 19> C 	 73.4519 	 19.4203 	 78.8556
| 20> H 	 72.9925 	 19.2784 	 79.8491
| 21> H 	 74.0932 	 18.5121 	 78.7387
| 22> H 	 74.2664 	 20.1471 	 79.1596
| 23> S 	 68.8071 	 22.3339 	 72.6397
| 24> C 	 69.4967 	 23.3779 	 71.3478
| 25> C 	 70.3242 	 24.2896 	 71.8642
| 26> C 	 70.6753 	 24.0501 	 73.2249
| 27> C 	 69.9404 	 23.0364 	 73.7412
| 28> H 	 70.6932 	 25.0971 	 71.2807
| 29> C 	 71.7219 	 24.9304 	 73.9178
| 30> H 	 72.3151 	 25.3501 	 73.1801
| 31> H 	 72.5049 	 24.3634 	 74.3381
| 32> C 	 71.2432 	 25.8958 	 75.0231
| 33> H 	 72.0885 	 26.167 	 75.6709
| 34> H 	 70.6728 	 25.3453 	 75.6455
| 35> C 	 70.4638 	 27.0631 	 74.4826
| 36> H 	 70.1307 	 27.725 	 75.3248
| 37> H 	 69.6126 	 26.7386 	 73.9455
| 38> H 	 71.1002 	 27.6632 	 73.8882
| 39> H 	 68.5342 	 20.9833 	 77.9984
| 40> H 	 69.141 	 23.4592 	 70.363
| 41> *
| 42>
| 43>                          ****END OF INPUT****

CARTESIAN COORDINATES (ANGSTROEM)
---------------------------------
  S     68.369200   22.118300   75.877700
  C     69.134600   21.444300   77.302400
  C     70.522800   21.475000   77.158300
  C     70.952900   22.107200   75.954300
  C     69.910800   22.494700   75.112400
  H     72.017300   22.285800   75.703600
  C     71.479300   20.933000   78.183200
  H     70.962800   20.520000   79.097900
  H     72.073700   21.795400   78.433600
  C     72.430700   19.742500   77.746500
  H     71.887000   18.822700   77.577100
  H     72.824400   19.932600   76.720500
  C     73.451900   19.420300   78.855600
  H     72.992500   19.278400   79.849100
  H     74.093200   18.512100   78.738700
  H     74.266400   20.147100   79.159600
  S     68.807100   22.333900   72.639700
  C     69.496700   23.377900   71.347800
  C     70.324200   24.289600   71.864200
  C     70.675300   24.050100   73.224900
  C     69.940400   23.036400   73.741200
  H     70.693200   25.097100   71.280700
  C     71.721900   24.930400   73.917800
  H     72.315100   25.350100   73.180100
  H     72.504900   24.363400   74.338100
  C     71.243200   25.895800   75.023100
  H     72.088500   26.167000   75.670900
  H     70.672800   25.345300   75.645500
  C     70.463800   27.063100   74.482600
  H     70.130700   27.725000   75.324800
  H     69.612600   26.738600   73.945500
  H     71.100200   27.663200   73.888200
  H     68.534200   20.983300   77.998400
  H     69.141000   23.459200   70.363000

 Total Charge           Charge          ....    0
 Multiplicity           Mult            ....    1
 Number of Electrons    NEL             ....  134
 Basis Dimension        Dim             ....  322

ORBITAL ENERGIES
----------------

  NO   OCC          E(Eh)            E(eV)
   0   2.0000     -88.966094     -2420.8905
   1   2.0000     -88.964040     -2420.8346
   2   2.0000     -10.334058      -281.2040
   3   2.0000     -10.325074      -280.9595
   4   2.0000     -10.311475      -280.5895
   5   2.0000     -10.310824      -280.5718
   6   2.0000     -10.304590      -280.4022
   7   2.0000     -10.299256      -280.2570
   8   2.0000     -10.298804      -280.2447
   9   2.0000     -10.297921      -280.2207
  10   2.0000     -10.296825      -280.1908
  11   2.0000     -10.288357      -279.9604
  12   2.0000     -10.287717      -279.9430
  13   2.0000     -10.282047      -279.7887
  14   2.0000     -10.273594      -279.5587
  15   2.0000     -10.267770      -279.4002
  16   2.0000      -8.080691      -219.8868
  17   2.0000      -8.078772      -219.8346
  18   2.0000      -6.039380      -164.3399
  19   2.0000      -6.037225      -164.2813
  20   2.0000      -6.035399      -164.2315
  21   2.0000      -6.033196      -164.1716
  22   2.0000      -6.031083      -164.1141
  23   2.0000      -6.029688      -164.0761
  24   2.0000      -1.009500       -27.4699
  25   2.0000      -0.984835       -26.7987
  26   2.0000      -0.911202       -24.7951
  27   2.0000      -0.905343       -24.6356
  28   2.0000      -0.871328       -23.7100
  29   2.0000      -0.851704       -23.1760
  30   2.0000      -0.844780       -22.9876
  31   2.0000      -0.819226       -22.2923
  32   2.0000      -0.786019       -21.3887
  33   2.0000      -0.771320       -20.9887
  34   2.0000      -0.715157       -19.4604
  35   2.0000      -0.707552       -19.2535
  36   2.0000      -0.695401       -18.9228
  37   2.0000      -0.666655       -18.1406
  38   2.0000      -0.646156       -17.5828
  39   2.0000      -0.622258       -16.9325
  40   2.0000      -0.603407       -16.4195
  41   2.0000      -0.563859       -15.3434
  42   2.0000      -0.553443       -15.0600
  43   2.0000      -0.551856       -15.0168
  44   2.0000      -0.543752       -14.7963
  45   2.0000      -0.524011       -14.2591
  46   2.0000      -0.516346       -14.0505
  47   2.0000      -0.510787       -13.8992
  48   2.0000      -0.507283       -13.8039
  49   2.0000      -0.498202       -13.5568
  50   2.0000      -0.489016       -13.3068
  51   2.0000      -0.482093       -13.1184
  52   2.0000      -0.477134       -12.9835
  53   2.0000      -0.466351       -12.6901
  54   2.0000      -0.459601       -12.5064
  55   2.0000      -0.450367       -12.2551
  56   2.0000      -0.446008       -12.1365
  57   2.0000      -0.433434       -11.7943
  58   2.0000      -0.430347       -11.7103
  59   2.0000      -0.425119       -11.5681
  60   2.0000      -0.422521       -11.4974
  61   2.0000      -0.418207       -11.3800
  62   2.0000      -0.411299       -11.1920
  63   2.0000      -0.353957        -9.6317
  64   2.0000      -0.333889        -9.0856
  65   2.0000      -0.328826        -8.9478
  66   2.0000      -0.292005        -7.9459
  67   0.0000       0.028548         0.7768
  68   0.0000       0.070126         1.9082
  69   0.0000       0.106731         2.9043
  70   0.0000       0.121844         3.3155
  71   0.0000       0.137860         3.7514

MULLIKEN ATOMIC CHARGES
-----------------------
   0 S :    0.088683
   1 C :   -0.101927
   2 C :   -0.064076
   3 C :    0.016601
   4 C :   -0.147314
   5 H :    0.025593
   6 C :    0.036462
   7 H :    0.032575
   8 H :    0.037685
   9 C :   -0.047511
  10 H :    0.031727
  11 H :    0.033541
  12 C :   -0.092181
  13 H :    0.025476
  14 H :    0.037480
  15 H :    0.030274
  16 S :    0.100276
  17 C :   -0.059923
  18 C :   -0.020996
  19 C :   -0.052765
  20 C :   -0.142238
  21 H :    0.007988
  22 C :    0.113710
  23 H :   -0.016656
  24 H :   -0.002324
  25 C :   -0.008056
  26 H :    0.018723
  27 H :    0.001837
  28 C :   -0.022250
  29 H :    0.033661
  30 H :    0.033632
  31 H :    0.013325
  32 H :    0.023522
  33 H :    0.035445
Sum of atomic charges:   -0.0000000

LOEWDIN ATOMIC CHARGES
----------------------
   0 S :    0.395867
   1 C :   -0.184427
   2 C :   -0.061941
   3 C :   -0.072280
   4 C :   -0.182685
   5 H :    0.036100
   6 C :   -0.031620
   7 H :    0.036031
   8 H :    0.032426
   9 C :   -0.040948
  10 H :    0.027569
  11 H :    0.026250
  12 C :   -0.088061
  13 H :    0.026348
  14 H :    0.030808
  15 H :    0.028723
  16 S :    0.390234
  17 C :   -0.161153
  18 C :   -0.059505
  19 C :   -0.058015
  20 C :   -0.195802
  21 H :    0.028936
  22 C :   -0.025671
  23 H :    0.019376
  24 H :    0.027173
  25 C :   -0.027298
  26 H :    0.027340
  27 H :    0.010253
  28 C :   -0.056722
  29 H :    0.032516
  30 H :    0.022605
  31 H :    0.016527
  32 H :    0.010235
  33 H :    0.020812

  Mayer bond orders larger than 0.100000
B(  0-S ,  1-C ) :   1.1348 B(  0-S ,  4-C ) :   1.1639 B(  1-C ,  2-C ) :   1.5787
B(  1-C ,  4-C ) :   0.1027 B(  1-C , 32-H ) :   0.9874 B(  2-C ,  3-C ) :   1.2522
B(  2-C ,  6-C ) :   1.0277 B(  3-C ,  4-C ) :   1.5590 B(  3-C ,  5-H ) :   0.9878
B(  4-C , 20-C ) :   1.0267 B(  6-C ,  7-H ) :   0.9489 B(  6-C ,  8-H ) :   0.9414
B(  6-C ,  9-C ) :   1.0478 B(  9-C , 10-H ) :   0.9545 B(  9-C , 11-H ) :   0.9603
B(  9-C , 12-C ) :   1.0606 B( 12-C , 13-H ) :   0.9727 B( 12-C , 14-H ) :   0.9767
B( 12-C , 15-H ) :   0.9772 B( 16-S , 17-C ) :   1.1126 B( 16-S , 20-C ) :   1.1372
B( 17-C , 18-C ) :   1.6626 B( 17-C , 33-H ) :   0.9699 B( 18-C , 19-C ) :   1.2142
B( 18-C , 21-H ) :   0.9898 B( 19-C , 20-C ) :   1.6371 B( 19-C , 22-C ) :   1.0362
B( 22-C , 23-H ) :   0.9232 B( 22-C , 24-H ) :   0.9206 B( 22-C , 25-C ) :   1.0670
B( 25-C , 26-H ) :   0.9496 B( 25-C , 27-H ) :   0.9510 B( 25-C , 28-C ) :   1.0837
B( 28-C , 29-H ) :   0.9713 B( 28-C , 30-H ) :   0.9764 B( 28-C , 31-H ) :   0.9761

Dispersion correction           -0.014359318
FINAL SINGLE POINT ENERGY     -1339.867577572670

DIPOLE MOMENT
-------------
                                X             Y             Z
Electronic contribution:    -20.42597      -4.78221     -14.62502
Nuclear contribution   :     20.97655       4.94611      14.80135
                        -----------------------------------------
Total Dipole Moment    :      0.55058       0.16391       0.17633
                        -----------------------------------------
Magnitude (a.u.)       :      0.60091
Magnitude (Debye)      :      1.52739

Rotational constants in cm-1:     0.019755     0.007866     0.006934
Rotational constants in MHz :   592.234684   235.814617   207.877988

                             ****ORCA TERMINATED NORMALLY****
TOTAL RUN TIME: 0 days 0 hours 0 minutes 30 seconds 138 msec
