                         Program Version 4.2.1 -  RELEASE  -
|  1> ! wB97X-D3 SP def2-SVP
|  2> %pal
|  3> nprocs 16
|  4> end
|  5>
|  6> * xyz 0 1
|  7> S 	 -4.41583 	 73.1664 	 48.7313
|  8> C 	 -2.68184 	 73.5117 	 48.3477
|  9> C 	 -1.823 	 72.4945 	 48.7414
| 10> C 	 -2.5409 	 71.5713 	 49.6113
| 11> C 	 -3.89516 	 71.7969 	 49.7265
| 12> H 	 -2.08341 	 70.797 	 50.1469
| 13> C 	 -0.312576 	 72.618 	 48.7554
| 14> H 	 0.0878346 	 72.5115 	 47.7809
| 15> H 	 0.101449 	 71.6709 	 49.1642
| 16> C 	 0.221002 	 73.8598 	 49.4101
| 17> H 	 -0.266771 	 74.7023 	 48.9738
| 18> H 	 -0.117882 	 74.0157 	 50.4483
| 19> C 	 1.7425 	 74.0868 	 49.3339
| 20> H 	 1.88532 	 74.99 	 49.8663
| 21> H 	 2.40205 	 73.2969 	 49.7108
| 22> H 	 2.02703 	 74.3127 	 48.2876
| 23> S 	 -5.7056 	 72.2468 	 51.6685
| 24> C 	 -6.65784 	 70.9781 	 52.3731
| 25> C 	 -6.18457 	 69.8 	 51.9383
| 26> C 	 -5.17735 	 69.9065 	 50.8705
| 27> C 	 -4.79268 	 71.2073 	 50.6845
| 28> H 	 -6.72473 	 68.9297 	 52.326
| 29> C 	 -4.56899 	 68.6842 	 50.2151
| 30> H 	 -4.94427 	 67.7424 	 50.5705
| 31> H 	 -3.50507 	 68.7796 	 50.3651
| 32> C 	 -4.97505 	 68.5742 	 48.6938
| 33> H 	 -4.22927 	 68.0122 	 48.1292
| 34> H 	 -4.91338 	 69.6236 	 48.3345
| 35> C 	 -6.42777 	 68.0562 	 48.3342
| 36> H 	 -6.42921 	 67.0193 	 48.1713
| 37> H 	 -6.71984 	 68.4021 	 47.311
| 38> H 	 -7.13165 	 68.2657 	 49.072
| 39> H 	 -2.3434 	 74.4169 	 47.8867
| 40> H 	 -7.36933 	 71.1018 	 53.1396
| 41> *
| 42>
| 43>                          ****END OF INPUT****

CARTESIAN COORDINATES (ANGSTROEM)
---------------------------------
  S     -4.415830   73.166400   48.731300
  C     -2.681840   73.511700   48.347700
  C     -1.823000   72.494500   48.741400
  C     -2.540900   71.571300   49.611300
  C     -3.895160   71.796900   49.726500
  H     -2.083410   70.797000   50.146900
  C     -0.312576   72.618000   48.755400
  H      0.087835   72.511500   47.780900
  H      0.101449   71.670900   49.164200
  C      0.221002   73.859800   49.410100
  H     -0.266771   74.702300   48.973800
  H     -0.117882   74.015700   50.448300
  C      1.742500   74.086800   49.333900
  H      1.885320   74.990000   49.866300
  H      2.402050   73.296900   49.710800
  H      2.027030   74.312700   48.287600
  S     -5.705600   72.246800   51.668500
  C     -6.657840   70.978100   52.373100
  C     -6.184570   69.800000   51.938300
  C     -5.177350   69.906500   50.870500
  C     -4.792680   71.207300   50.684500
  H     -6.724730   68.929700   52.326000
  C     -4.568990   68.684200   50.215100
  H     -4.944270   67.742400   50.570500
  H     -3.505070   68.779600   50.365100
  C     -4.975050   68.574200   48.693800
  H     -4.229270   68.012200   48.129200
  H     -4.913380   69.623600   48.334500
  C     -6.427770   68.056200   48.334200
  H     -6.429210   67.019300   48.171300
  H     -6.719840   68.402100   47.311000
  H     -7.131650   68.265700   49.072000
  H     -2.343400   74.416900   47.886700
  H     -7.369330   71.101800   53.139600

 Total Charge           Charge          ....    0
 Multiplicity           Mult            ....    1
 Number of Electrons    NEL             ....  134
 Basis Dimension        Dim             ....  322

ORBITAL ENERGIES
----------------

  NO   OCC          E(Eh)            E(eV)
   0   2.0000     -88.967562     -2420.9305
   1   2.0000     -88.958237     -2420.6767
   2   2.0000     -10.329211      -281.0721
   3   2.0000     -10.319446      -280.8064
   4   2.0000     -10.318673      -280.7854
   5   2.0000     -10.308352      -280.5045
   6   2.0000     -10.305610      -280.4299
   7   2.0000     -10.303484      -280.3720
   8   2.0000     -10.294734      -280.1339
   9   2.0000     -10.291950      -280.0582
  10   2.0000     -10.291334      -280.0414
  11   2.0000     -10.289773      -279.9990
  12   2.0000     -10.286111      -279.8993
  13   2.0000     -10.285650      -279.8868
  14   2.0000     -10.279903      -279.7304
  15   2.0000     -10.270911      -279.4857
  16   2.0000      -8.081056      -219.8967
  17   2.0000      -8.074650      -219.7224
  18   2.0000      -6.039678      -164.3480
  19   2.0000      -6.035875      -164.2445
  20   2.0000      -6.033087      -164.1686
  21   2.0000      -6.031610      -164.1284
  22   2.0000      -6.028821      -164.0526
  23   2.0000      -6.025448      -163.9608
  24   2.0000      -1.012365       -27.5478
  25   2.0000      -0.980633       -26.6844
  26   2.0000      -0.916222       -24.9317
  27   2.0000      -0.900118       -24.4935
  28   2.0000      -0.873600       -23.7719
  29   2.0000      -0.847793       -23.0696
  30   2.0000      -0.838850       -22.8263
  31   2.0000      -0.819572       -22.3017
  32   2.0000      -0.785203       -21.3664
  33   2.0000      -0.775780       -21.1101
  34   2.0000      -0.713061       -19.4034
  35   2.0000      -0.706310       -19.2197
  36   2.0000      -0.688590       -18.7375
  37   2.0000      -0.664135       -18.0720
  38   2.0000      -0.643349       -17.5064
  39   2.0000      -0.621049       -16.8996
  40   2.0000      -0.590076       -16.0568
  41   2.0000      -0.571551       -15.5527
  42   2.0000      -0.557853       -15.1799
  43   2.0000      -0.552521       -15.0349
  44   2.0000      -0.544011       -14.8033
  45   2.0000      -0.534511       -14.5448
  46   2.0000      -0.517200       -14.0737
  47   2.0000      -0.511020       -13.9056
  48   2.0000      -0.505913       -13.7666
  49   2.0000      -0.499410       -13.5896
  50   2.0000      -0.486683       -13.2433
  51   2.0000      -0.480672       -13.0797
  52   2.0000      -0.474807       -12.9202
  53   2.0000      -0.465970       -12.6797
  54   2.0000      -0.455584       -12.3971
  55   2.0000      -0.453356       -12.3364
  56   2.0000      -0.444541       -12.0966
  57   2.0000      -0.443683       -12.0732
  58   2.0000      -0.430377       -11.7112
  59   2.0000      -0.423748       -11.5308
  60   2.0000      -0.415286       -11.3005
  61   2.0000      -0.409439       -11.1414
  62   2.0000      -0.403231       -10.9725
  63   2.0000      -0.347622        -9.4593
  64   2.0000      -0.332526        -9.0485
  65   2.0000      -0.324144        -8.8204
  66   2.0000      -0.296568        -8.0700
  67   0.0000       0.028242         0.7685
  68   0.0000       0.074138         2.0174
  69   0.0000       0.105498         2.8707
  70   0.0000       0.122335         3.3289
  71   0.0000       0.131271         3.5721

MULLIKEN ATOMIC CHARGES
-----------------------
   0 S :    0.110521
   1 C :   -0.151734
   2 C :   -0.040375
   3 C :    0.034112
   4 C :   -0.146182
   5 H :   -0.005876
   6 C :    0.095244
   7 H :    0.011351
   8 H :    0.011343
   9 C :   -0.075223
  10 H :    0.006484
  11 H :    0.028961
  12 C :   -0.032408
  13 H :    0.025387
  14 H :    0.043807
  15 H :    0.028508
  16 S :    0.099036
  17 C :   -0.081081
  18 C :   -0.031039
  19 C :   -0.064109
  20 C :   -0.145065
  21 H :    0.023343
  22 C :    0.110975
  23 H :    0.011441
  24 H :    0.031331
  25 C :   -0.118884
  26 H :    0.028009
  27 H :    0.042834
  28 C :   -0.018362
  29 H :    0.013216
  30 H :    0.036939
  31 H :    0.025549
  32 H :    0.049306
  33 H :    0.042640
Sum of atomic charges:    0.0000000

LOEWDIN ATOMIC CHARGES
----------------------
   0 S :    0.372112
   1 C :   -0.167964
   2 C :   -0.056444
   3 C :   -0.047045
   4 C :   -0.185910
   5 H :    0.020553
   6 C :   -0.036178
   7 H :    0.027369
   8 H :    0.031481
   9 C :   -0.041450
  10 H :    0.020519
  11 H :    0.028662
  12 C :   -0.061249
  13 H :    0.024849
  14 H :    0.026954
  15 H :    0.026842
  16 S :    0.425123
  17 C :   -0.182353
  18 C :   -0.075854
  19 C :   -0.055490
  20 C :   -0.219073
  21 H :    0.033959
  22 C :   -0.027685
  23 H :    0.026323
  24 H :    0.030823
  25 C :   -0.038949
  26 H :    0.021416
  27 H :    0.025035
  28 C :   -0.061126
  29 H :    0.016559
  30 H :    0.036818
  31 H :    0.016400
  32 H :    0.020944
  33 H :    0.024031

  Mayer bond orders larger than 0.100000
B(  0-S ,  1-C ) :   1.1261 B(  0-S ,  4-C ) :   1.1182 B(  1-C ,  2-C ) :   1.6254
B(  1-C , 32-H ) :   0.9708 B(  2-C ,  3-C ) :   1.2063 B(  2-C ,  6-C ) :   1.0368
B(  3-C ,  4-C ) :   1.6163 B(  3-C ,  5-H ) :   0.9955 B(  4-C , 20-C ) :   1.0407
B(  6-C ,  7-H ) :   0.9233 B(  6-C ,  8-H ) :   0.9387 B(  6-C ,  9-C ) :   1.0659
B(  9-C , 10-H ) :   0.9460 B(  9-C , 11-H ) :   0.9555 B(  9-C , 12-C ) :   1.0841
B( 12-C , 13-H ) :   0.9719 B( 12-C , 14-H ) :   0.9784 B( 12-C , 15-H ) :   0.9733
B( 16-S , 17-C ) :   1.1471 B( 16-S , 20-C ) :   1.1479 B( 17-C , 18-C ) :   1.6381
B( 17-C , 33-H ) :   0.9729 B( 18-C , 19-C ) :   1.2154 B( 18-C , 21-H ) :   0.9871
B( 19-C , 20-C ) :   1.6028 B( 19-C , 22-C ) :   1.0472 B( 22-C , 23-H ) :   0.9388
B( 22-C , 24-H ) :   0.9379 B( 22-C , 25-C ) :   1.0494 B( 25-C , 26-H ) :   0.9587
B( 25-C , 27-H ) :   0.9682 B( 25-C , 28-C ) :   1.0637 B( 28-C , 29-H ) :   0.9755
B( 28-C , 30-H ) :   0.9749 B( 28-C , 31-H ) :   0.9796

Dispersion correction           -0.014309979
FINAL SINGLE POINT ENERGY     -1339.863866736762

DIPOLE MOMENT
-------------
                                X             Y             Z
Electronic contribution:    -16.69359       9.20591       7.52817
Nuclear contribution   :     17.14515      -9.47805      -7.45907
                        -----------------------------------------
Total Dipole Moment    :      0.45156      -0.27214       0.06910
                        -----------------------------------------
Magnitude (a.u.)       :      0.53173
Magnitude (Debye)      :      1.35156

Rotational constants in cm-1:     0.022134     0.007461     0.006702
Rotational constants in MHz :   663.556723   223.660946   200.924492

                             ****ORCA TERMINATED NORMALLY****
TOTAL RUN TIME: 0 days 0 hours 0 minutes 33 seconds 615 msec
