                         Program Version 4.2.1 -  RELEASE  -
|  1> ! wB97X-D3 SP def2-SVP
|  2> %pal
|  3> nprocs 16
|  4> end
|  5>
|  6> * xyz 0 1
|  7> S 	 -54.7029 	 38.2977 	 113.196
|  8> C 	 -52.9974 	 38.5394 	 113.711
|  9> C 	 -52.9131 	 39.5518 	 114.642
| 10> C 	 -54.1834 	 40.2001 	 114.844
| 11> C 	 -55.2739 	 39.6594 	 114.158
| 12> H 	 -54.3492 	 41.0088 	 115.587
| 13> C 	 -51.6306 	 39.963 	 115.327
| 14> H 	 -51.4847 	 40.991 	 115.173
| 15> H 	 -50.8802 	 39.4458 	 114.812
| 16> C 	 -51.6608 	 39.7568 	 116.823
| 17> H 	 -50.8026 	 40.3233 	 117.275
| 18> H 	 -52.5912 	 40.1245 	 117.252
| 19> C 	 -51.4363 	 38.2655 	 117.149
| 20> H 	 -50.4599 	 38.0698 	 116.802
| 21> H 	 -51.6235 	 38.1617 	 118.176
| 22> H 	 -52.2094 	 37.5984 	 116.678
| 23> S 	 -57.3836 	 39.6461 	 112.439
| 24> C 	 -58.6812 	 40.8572 	 112.649
| 25> C 	 -58.5725 	 41.528 	 113.795
| 26> C 	 -57.3922 	 41.1393 	 114.614
| 27> C 	 -56.6233 	 40.1943 	 113.954
| 28> H 	 -59.314 	 42.2826 	 114.064
| 29> C 	 -57.0862 	 41.8604 	 115.947
| 30> H 	 -56.3938 	 41.2417 	 116.596
| 31> H 	 -58.0717 	 41.9793 	 116.496
| 32> C 	 -56.4753 	 43.2354 	 115.846
| 33> H 	 -57.0851 	 43.9362 	 115.237
| 34> H 	 -55.4459 	 43.2009 	 115.395
| 35> C 	 -56.2148 	 43.8412 	 117.251
| 36> H 	 -57.1211 	 43.926 	 117.856
| 37> H 	 -55.7934 	 44.8186 	 117.227
| 38> H 	 -55.5487 	 43.2407 	 117.8
| 39> H 	 -52.1648 	 37.9954 	 113.428
| 40> H 	 -59.5138 	 40.9483 	 111.921
| 41> *
| 42>
| 43>                          ****END OF INPUT****

CARTESIAN COORDINATES (ANGSTROEM)
---------------------------------
  S    -54.702900   38.297700  113.196000
  C    -52.997400   38.539400  113.711000
  C    -52.913100   39.551800  114.642000
  C    -54.183400   40.200100  114.844000
  C    -55.273900   39.659400  114.158000
  H    -54.349200   41.008800  115.587000
  C    -51.630600   39.963000  115.327000
  H    -51.484700   40.991000  115.173000
  H    -50.880200   39.445800  114.812000
  C    -51.660800   39.756800  116.823000
  H    -50.802600   40.323300  117.275000
  H    -52.591200   40.124500  117.252000
  C    -51.436300   38.265500  117.149000
  H    -50.459900   38.069800  116.802000
  H    -51.623500   38.161700  118.176000
  H    -52.209400   37.598400  116.678000
  S    -57.383600   39.646100  112.439000
  C    -58.681200   40.857200  112.649000
  C    -58.572500   41.528000  113.795000
  C    -57.392200   41.139300  114.614000
  C    -56.623300   40.194300  113.954000
  H    -59.314000   42.282600  114.064000
  C    -57.086200   41.860400  115.947000
  H    -56.393800   41.241700  116.596000
  H    -58.071700   41.979300  116.496000
  C    -56.475300   43.235400  115.846000
  H    -57.085100   43.936200  115.237000
  H    -55.445900   43.200900  115.395000
  C    -56.214800   43.841200  117.251000
  H    -57.121100   43.926000  117.856000
  H    -55.793400   44.818600  117.227000
  H    -55.548700   43.240700  117.800000
  H    -52.164800   37.995400  113.428000
  H    -59.513800   40.948300  111.921000

 Total Charge           Charge          ....    0
 Multiplicity           Mult            ....    1
 Number of Electrons    NEL             ....  134
 Basis Dimension        Dim             ....  322

ORBITAL ENERGIES
----------------

  NO   OCC          E(Eh)            E(eV)
   0   2.0000     -88.966028     -2420.8887
   1   2.0000     -88.961668     -2420.7701
   2   2.0000     -10.336647      -281.2745
   3   2.0000     -10.335386      -281.2402
   4   2.0000     -10.320306      -280.8298
   5   2.0000     -10.313989      -280.6579
   6   2.0000     -10.313366      -280.6409
   7   2.0000     -10.307131      -280.4713
   8   2.0000     -10.301629      -280.3216
   9   2.0000     -10.299353      -280.2596
  10   2.0000     -10.298410      -280.2340
  11   2.0000     -10.295182      -280.1461
  12   2.0000     -10.288887      -279.9749
  13   2.0000     -10.282701      -279.8065
  14   2.0000     -10.275338      -279.6062
  15   2.0000     -10.271169      -279.4927
  16   2.0000      -8.079780      -219.8620
  17   2.0000      -8.076034      -219.7600
  18   2.0000      -6.038569      -164.3178
  19   2.0000      -6.034874      -164.2173
  20   2.0000      -6.034440      -164.2055
  21   2.0000      -6.030744      -164.1049
  22   2.0000      -6.030284      -164.0924
  23   2.0000      -6.026283      -163.9835
  24   2.0000      -1.001551       -27.2536
  25   2.0000      -0.977723       -26.6052
  26   2.0000      -0.919842       -25.0302
  27   2.0000      -0.910073       -24.7643
  28   2.0000      -0.871846       -23.7241
  29   2.0000      -0.848787       -23.0967
  30   2.0000      -0.838000       -22.8031
  31   2.0000      -0.818264       -22.2661
  32   2.0000      -0.785300       -21.3691
  33   2.0000      -0.777411       -21.1544
  34   2.0000      -0.712845       -19.3975
  35   2.0000      -0.696213       -18.9449
  36   2.0000      -0.691337       -18.8122
  37   2.0000      -0.660520       -17.9737
  38   2.0000      -0.639535       -17.4026
  39   2.0000      -0.620568       -16.8865
  40   2.0000      -0.597807       -16.2672
  41   2.0000      -0.572717       -15.5844
  42   2.0000      -0.568061       -15.4577
  43   2.0000      -0.558797       -15.2056
  44   2.0000      -0.540685       -14.7128
  45   2.0000      -0.527120       -14.3437
  46   2.0000      -0.524093       -14.2613
  47   2.0000      -0.516893       -14.0654
  48   2.0000      -0.501652       -13.6506
  49   2.0000      -0.499196       -13.5838
  50   2.0000      -0.489478       -13.3194
  51   2.0000      -0.479446       -13.0464
  52   2.0000      -0.469106       -12.7650
  53   2.0000      -0.466475       -12.6934
  54   2.0000      -0.458591       -12.4789
  55   2.0000      -0.450231       -12.2514
  56   2.0000      -0.445238       -12.1155
  57   2.0000      -0.443218       -12.0606
  58   2.0000      -0.432390       -11.7659
  59   2.0000      -0.425379       -11.5752
  60   2.0000      -0.423115       -11.5136
  61   2.0000      -0.417263       -11.3543
  62   2.0000      -0.408325       -11.1111
  63   2.0000      -0.363794        -9.8993
  64   2.0000      -0.334926        -9.1138
  65   2.0000      -0.323683        -8.8079
  66   2.0000      -0.287484        -7.8228
  67   0.0000       0.018191         0.4950
  68   0.0000       0.080290         2.1848
  69   0.0000       0.095968         2.6114
  70   0.0000       0.117900         3.2082
  71   0.0000       0.124567         3.3896

MULLIKEN ATOMIC CHARGES
-----------------------
   0 S :    0.081333
   1 C :   -0.085061
   2 C :   -0.125105
   3 C :   -0.007205
   4 C :   -0.102078
   5 H :    0.009623
   6 C :    0.155438
   7 H :    0.016278
   8 H :   -0.007448
   9 C :   -0.108166
  10 H :    0.036205
  11 H :    0.029584
  12 C :   -0.022381
  13 H :    0.024009
  14 H :    0.023141
  15 H :    0.042748
  16 S :    0.068637
  17 C :   -0.090988
  18 C :   -0.020350
  19 C :   -0.041495
  20 C :   -0.101910
  21 H :    0.026034
  22 C :    0.002089
  23 H :    0.038088
  24 H :    0.038686
  25 C :   -0.086915
  26 H :    0.035218
  27 H :    0.039117
  28 C :   -0.019684
  29 H :    0.023182
  30 H :    0.029786
  31 H :    0.012451
  32 H :    0.016864
  33 H :    0.070274
Sum of atomic charges:   -0.0000000

LOEWDIN ATOMIC CHARGES
----------------------
   0 S :    0.374643
   1 C :   -0.172515
   2 C :   -0.055266
   3 C :   -0.072574
   4 C :   -0.180666
   5 H :    0.029195
   6 C :   -0.021699
   7 H :    0.027119
   8 H :    0.021349
   9 C :   -0.036363
  10 H :    0.028695
  11 H :    0.020423
  12 C :   -0.056981
  13 H :    0.018758
  14 H :    0.018639
  15 H :    0.032856
  16 S :    0.359187
  17 C :   -0.168441
  18 C :   -0.071169
  19 C :   -0.053387
  20 C :   -0.175057
  21 H :    0.035711
  22 C :   -0.040880
  23 H :    0.033713
  24 H :    0.039191
  25 C :   -0.045001
  26 H :    0.025674
  27 H :    0.028589
  28 C :   -0.060573
  29 H :    0.023631
  30 H :    0.024352
  31 H :    0.016236
  32 H :    0.014663
  33 H :    0.037947

  Mayer bond orders larger than 0.100000
B(  0-S ,  1-C ) :   1.1153 B(  0-S ,  4-C ) :   1.1356 B(  1-C ,  2-C ) :   1.6264
B(  1-C , 32-H ) :   0.9730 B(  2-C ,  3-C ) :   1.2369 B(  2-C ,  6-C ) :   1.0258
B(  3-C ,  4-C ) :   1.5807 B(  3-C ,  5-H ) :   0.9756 B(  4-C , 20-C ) :   1.0670
B(  6-C ,  7-H ) :   0.9288 B(  6-C ,  8-H ) :   0.9349 B(  6-C ,  9-C ) :   1.0700
B(  9-C , 10-H ) :   0.9557 B(  9-C , 11-H ) :   0.9581 B(  9-C , 12-C ) :   1.0703
B( 12-C , 13-H ) :   0.9774 B( 12-C , 14-H ) :   0.9736 B( 12-C , 15-H ) :   0.9770
B( 16-S , 17-C ) :   1.1106 B( 16-S , 20-C ) :   1.1088 B( 17-C , 18-C ) :   1.6894
B( 17-C , 33-H ) :   0.9616 B( 18-C , 19-C ) :   1.1695 B( 18-C , 21-H ) :   0.9865
B( 19-C , 20-C ) :   1.6549 B( 19-C , 22-C ) :   1.0401 B( 22-C , 23-H ) :   0.9385
B( 22-C , 24-H ) :   0.9325 B( 22-C , 25-C ) :   1.0716 B( 25-C , 26-H ) :   0.9527
B( 25-C , 27-H ) :   0.9505 B( 25-C , 28-C ) :   1.0784 B( 28-C , 29-H ) :   0.9739
B( 28-C , 30-H ) :   0.9733 B( 28-C , 31-H ) :   0.9737

Dispersion correction           -0.014164644
FINAL SINGLE POINT ENERGY     -1339.879879511271

DIPOLE MOMENT
-------------
                                X             Y             Z
Electronic contribution:    -13.23780     -13.72157     -23.90578
Nuclear contribution   :     13.43881      14.34780      24.42998
                        -----------------------------------------
Total Dipole Moment    :      0.20102       0.62623       0.52420
                        -----------------------------------------
Magnitude (a.u.)       :      0.84104
Magnitude (Debye)      :      2.13776

Rotational constants in cm-1:     0.017335     0.009586     0.006500
Rotational constants in MHz :   519.699436   287.377545   194.873967

                             ****ORCA TERMINATED NORMALLY****
TOTAL RUN TIME: 0 days 0 hours 0 minutes 30 seconds 224 msec
