                         Program Version 4.2.1 -  RELEASE  -
|  1> ! wB97X-D3 SP def2-SVP
|  2> %pal
|  3> nprocs 16
|  4> end
|  5>
|  6> * xyz 0 1
|  7> S 	 38.0045 	 11.1956 	 79.2279
|  8> C 	 39.4869 	 10.3575 	 78.9477
|  9> C 	 40.4095 	 11.1992 	 78.3775
| 10> C 	 39.9076 	 12.5188 	 78.238
| 11> C 	 38.6471 	 12.6897 	 78.6487
| 12> H 	 40.4485 	 13.3996 	 77.8888
| 13> C 	 41.751 	 10.7781 	 77.9147
| 14> H 	 42.4185 	 10.4436 	 78.7773
| 15> H 	 42.2834 	 11.6557 	 77.491
| 16> C 	 41.7777 	 9.55916 	 76.9896
| 17> H 	 42.8761 	 9.41455 	 76.7691
| 18> H 	 41.384 	 8.74296 	 77.6323
| 19> C 	 40.9035 	 9.65773 	 75.7095
| 20> H 	 40.927 	 8.84187 	 75.0017
| 21> H 	 39.8332 	 9.8869 	 75.8202
| 22> H 	 41.274 	 10.4096 	 75.0476
| 23> S 	 36.6818 	 14.055 	 77.297
| 24> C 	 36.8649 	 15.796 	 77.3605
| 25> C 	 37.5719 	 16.222 	 78.4975
| 26> C 	 38.2477 	 15.1763 	 79.1664
| 27> C 	 37.942 	 13.9376 	 78.5869
| 28> H 	 37.6853 	 17.2462 	 78.599
| 29> C 	 39.2923 	 15.3999 	 80.2509
| 30> H 	 39.7776 	 14.4439 	 80.5362
| 31> H 	 38.6577 	 15.6282 	 81.1182
| 32> C 	 40.3029 	 16.5283 	 80.0055
| 33> H 	 40.983 	 16.4656 	 80.8741
| 34> H 	 39.8608 	 17.5331 	 80.1175
| 35> C 	 41.1542 	 16.3291 	 78.7271
| 36> H 	 41.995 	 17.0742 	 78.6824
| 37> H 	 40.5265 	 16.469 	 77.8408
| 38> H 	 41.5697 	 15.2872 	 78.7504
| 39> H 	 39.7598 	 9.24503 	 78.9709
| 40> H 	 36.4122 	 16.5438 	 76.6959
| 41> *
| 42>
| 43>                          ****END OF INPUT****

CARTESIAN COORDINATES (ANGSTROEM)
---------------------------------
  S     38.004500   11.195600   79.227900
  C     39.486900   10.357500   78.947700
  C     40.409500   11.199200   78.377500
  C     39.907600   12.518800   78.238000
  C     38.647100   12.689700   78.648700
  H     40.448500   13.399600   77.888800
  C     41.751000   10.778100   77.914700
  H     42.418500   10.443600   78.777300
  H     42.283400   11.655700   77.491000
  C     41.777700    9.559160   76.989600
  H     42.876100    9.414550   76.769100
  H     41.384000    8.742960   77.632300
  C     40.903500    9.657730   75.709500
  H     40.927000    8.841870   75.001700
  H     39.833200    9.886900   75.820200
  H     41.274000   10.409600   75.047600
  S     36.681800   14.055000   77.297000
  C     36.864900   15.796000   77.360500
  C     37.571900   16.222000   78.497500
  C     38.247700   15.176300   79.166400
  C     37.942000   13.937600   78.586900
  H     37.685300   17.246200   78.599000
  C     39.292300   15.399900   80.250900
  H     39.777600   14.443900   80.536200
  H     38.657700   15.628200   81.118200
  C     40.302900   16.528300   80.005500
  H     40.983000   16.465600   80.874100
  H     39.860800   17.533100   80.117500
  C     41.154200   16.329100   78.727100
  H     41.995000   17.074200   78.682400
  H     40.526500   16.469000   77.840800
  H     41.569700   15.287200   78.750400
  H     39.759800    9.245030   78.970900
  H     36.412200   16.543800   76.695900

 Total Charge           Charge          ....    0
 Multiplicity           Mult            ....    1
 Number of Electrons    NEL             ....  134
 Basis Dimension        Dim             ....  322

ORBITAL ENERGIES
----------------

  NO   OCC          E(Eh)            E(eV)
   0   2.0000     -88.966545     -2420.9028
   1   2.0000     -88.963774     -2420.8274
   2   2.0000     -10.325098      -280.9602
   3   2.0000     -10.322682      -280.8945
   4   2.0000     -10.316696      -280.7316
   5   2.0000     -10.312291      -280.6117
   6   2.0000     -10.308152      -280.4991
   7   2.0000     -10.297558      -280.2108
   8   2.0000     -10.296500      -280.1820
   9   2.0000     -10.294120      -280.1172
  10   2.0000     -10.293637      -280.1041
  11   2.0000     -10.291482      -280.0455
  12   2.0000     -10.290665      -280.0232
  13   2.0000     -10.288399      -279.9616
  14   2.0000     -10.283576      -279.8303
  15   2.0000     -10.272385      -279.5258
  16   2.0000      -8.080537      -219.8826
  17   2.0000      -8.079205      -219.8463
  18   2.0000      -6.038961      -164.3285
  19   2.0000      -6.037745      -164.2954
  20   2.0000      -6.035339      -164.2299
  21   2.0000      -6.033537      -164.1809
  22   2.0000      -6.031232      -164.1182
  23   2.0000      -6.029964      -164.0837
  24   2.0000      -1.011419       -27.5221
  25   2.0000      -0.983308       -26.7572
  26   2.0000      -0.912901       -24.8413
  27   2.0000      -0.908127       -24.7114
  28   2.0000      -0.868163       -23.6239
  29   2.0000      -0.848526       -23.0896
  30   2.0000      -0.844575       -22.9821
  31   2.0000      -0.812301       -22.1038
  32   2.0000      -0.785964       -21.3872
  33   2.0000      -0.773484       -21.0476
  34   2.0000      -0.707283       -19.2461
  35   2.0000      -0.704151       -19.1609
  36   2.0000      -0.692314       -18.8388
  37   2.0000      -0.658001       -17.9051
  38   2.0000      -0.634494       -17.2654
  39   2.0000      -0.609824       -16.5942
  40   2.0000      -0.591723       -16.1016
  41   2.0000      -0.578987       -15.7550
  42   2.0000      -0.554383       -15.0855
  43   2.0000      -0.546570       -14.8729
  44   2.0000      -0.540084       -14.6964
  45   2.0000      -0.535426       -14.5697
  46   2.0000      -0.518858       -14.1188
  47   2.0000      -0.504307       -13.7229
  48   2.0000      -0.499366       -13.5884
  49   2.0000      -0.492790       -13.4095
  50   2.0000      -0.488815       -13.3013
  51   2.0000      -0.474351       -12.9077
  52   2.0000      -0.470458       -12.8018
  53   2.0000      -0.465849       -12.6764
  54   2.0000      -0.461245       -12.5511
  55   2.0000      -0.446578       -12.1520
  56   2.0000      -0.441352       -12.0098
  57   2.0000      -0.440183       -11.9780
  58   2.0000      -0.435632       -11.8541
  59   2.0000      -0.426534       -11.6066
  60   2.0000      -0.420303       -11.4370
  61   2.0000      -0.416307       -11.3283
  62   2.0000      -0.411010       -11.1841
  63   2.0000      -0.340373        -9.2620
  64   2.0000      -0.330673        -8.9981
  65   2.0000      -0.324924        -8.8416
  66   2.0000      -0.295454        -8.0397
  67   0.0000       0.037520         1.0210
  68   0.0000       0.056143         1.5277
  69   0.0000       0.113078         3.0770
  70   0.0000       0.124171         3.3789
  71   0.0000       0.128691         3.5019

MULLIKEN ATOMIC CHARGES
-----------------------
   0 S :    0.118431
   1 C :   -0.138469
   2 C :   -0.088438
   3 C :    0.029316
   4 C :   -0.157416
   5 H :    0.000876
   6 C :    0.040858
   7 H :    0.047083
   8 H :    0.022211
   9 C :   -0.088623
  10 H :    0.044405
  11 H :    0.029106
  12 C :   -0.040425
  13 H :    0.022492
  14 H :    0.047132
  15 H :    0.011213
  16 S :    0.111740
  17 C :   -0.108572
  18 C :   -0.024357
  19 C :   -0.011743
  20 C :   -0.184505
  21 H :   -0.005337
  22 C :    0.064134
  23 H :    0.039297
  24 H :    0.040734
  25 C :   -0.085669
  26 H :    0.031007
  27 H :    0.034960
  28 C :   -0.072743
  29 H :    0.045394
  30 H :    0.048065
  31 H :    0.045588
  32 H :    0.069024
  33 H :    0.063229
Sum of atomic charges:   -0.0000000

LOEWDIN ATOMIC CHARGES
----------------------
   0 S :    0.422024
   1 C :   -0.221205
   2 C :   -0.075621
   3 C :   -0.063541
   4 C :   -0.211895
   5 H :    0.032355
   6 C :   -0.043413
   7 H :    0.042756
   8 H :    0.028310
   9 C :   -0.039895
  10 H :    0.034477
  11 H :    0.021672
  12 C :   -0.079278
  13 H :    0.025578
  14 H :    0.032591
  15 H :    0.022296
  16 S :    0.383375
  17 C :   -0.177499
  18 C :   -0.069363
  19 C :   -0.043315
  20 C :   -0.186753
  21 H :    0.018738
  22 C :   -0.035163
  23 H :    0.036448
  24 H :    0.041951
  25 C :   -0.047620
  26 H :    0.029382
  27 H :    0.024168
  28 C :   -0.070602
  29 H :    0.031901
  30 H :    0.026430
  31 H :    0.030190
  32 H :    0.047465
  33 H :    0.033054

  Mayer bond orders larger than 0.100000
B(  0-S ,  1-C ) :   1.1395 B(  0-S ,  4-C ) :   1.1434 B(  1-C ,  2-C ) :   1.6117
B(  1-C , 32-H ) :   0.9549 B(  2-C ,  3-C ) :   1.2363 B(  2-C ,  6-C ) :   1.0255
B(  3-C ,  4-C ) :   1.5954 B(  3-C ,  5-H ) :   0.9968 B(  4-C , 20-C ) :   1.0187
B(  6-C ,  7-H ) :   0.9347 B(  6-C ,  8-H ) :   0.9433 B(  6-C ,  9-C ) :   1.0691
B(  9-C , 10-H ) :   0.9553 B(  9-C , 11-H ) :   0.9553 B(  9-C , 12-C ) :   1.0666
B( 12-C , 13-H ) :   0.9748 B( 12-C , 14-H ) :   0.9732 B( 12-C , 15-H ) :   0.9718
B( 16-S , 17-C ) :   1.1600 B( 16-S , 20-C ) :   1.1235 B( 17-C , 18-C ) :   1.6254
B( 17-C , 20-C ) :   0.1042 B( 17-C , 33-H ) :   0.9629 B( 18-C , 19-C ) :   1.2120
B( 18-C , 21-H ) :   0.9972 B( 19-C , 20-C ) :   1.6058 B( 19-C , 22-C ) :   1.0317
B( 22-C , 23-H ) :   0.9374 B( 22-C , 24-H ) :   0.9246 B( 22-C , 25-C ) :   1.0783
B( 25-C , 26-H ) :   0.9529 B( 25-C , 27-H ) :   0.9511 B( 25-C , 28-C ) :   1.0690
B( 28-C , 29-H ) :   0.9726 B( 28-C , 30-H ) :   0.9735 B( 28-C , 31-H ) :   0.9682

Dispersion correction           -0.015629265
FINAL SINGLE POINT ENERGY     -1339.874146395311

DIPOLE MOMENT
-------------
                                X             Y             Z
Electronic contribution:    -23.13737      -1.97734       3.19076
Nuclear contribution   :     23.78526       2.40500      -3.24675
                        -----------------------------------------
Total Dipole Moment    :      0.64789       0.42766      -0.05599
                        -----------------------------------------
Magnitude (a.u.)       :      0.77833
Magnitude (Debye)      :      1.97835

Rotational constants in cm-1:     0.019926     0.008824     0.007547
Rotational constants in MHz :   597.378808   264.531180   226.246470

                             ****ORCA TERMINATED NORMALLY****
TOTAL RUN TIME: 0 days 0 hours 0 minutes 31 seconds 802 msec
