                         Program Version 4.2.1 -  RELEASE  -
|  1> ! wB97X-D3 SP def2-SVP
|  2> %pal
|  3> nprocs 16
|  4> end
|  5>
|  6> * xyz 0 1
|  7> S 	 -54.7164 	 33.4589 	 90.2119
|  8> C 	 -55.9658 	 32.3853 	 89.5795
|  9> C 	 -56.5585 	 32.9194 	 88.4837
| 10> C 	 -55.8597 	 34.0624 	 88.0299
| 11> C 	 -54.8663 	 34.5705 	 88.8864
| 12> H 	 -56.0635 	 34.6765 	 87.1573
| 13> C 	 -57.7542 	 32.2736 	 87.8442
| 14> H 	 -57.403 	 31.311 	 87.487
| 15> H 	 -57.8963 	 32.8008 	 86.8734
| 16> C 	 -59.0763 	 32.3924 	 88.5823
| 17> H 	 -59.055 	 33.3519 	 88.9487
| 18> H 	 -59.8563 	 32.3728 	 87.8147
| 19> C 	 -59.3498 	 31.4741 	 89.7685
| 20> H 	 -58.6367 	 31.3658 	 90.5402
| 21> H 	 -60.3105 	 31.6747 	 90.3329
| 22> H 	 -59.2959 	 30.3902 	 89.3691
| 23> S 	 -52.261 	 35.6164 	 89.1074
| 24> C 	 -52.0133 	 37.2036 	 88.4085
| 25> C 	 -53.1644 	 37.8911 	 88.1349
| 26> C 	 -54.335 	 37.103 	 88.3663
| 27> C 	 -54.0412 	 35.7865 	 88.7081
| 28> H 	 -53.1144 	 38.8775 	 87.8111
| 29> C 	 -55.7692 	 37.7555 	 88.2394
| 30> H 	 -55.7997 	 38.6127 	 88.9264
| 31> H 	 -56.5737 	 37.0409 	 88.6522
| 32> C 	 -56.104 	 38.156 	 86.7502
| 33> H 	 -55.8725 	 37.3537 	 86.0854
| 34> H 	 -55.5453 	 39.0236 	 86.3475
| 35> C 	 -57.5353 	 38.5703 	 86.461
| 36> H 	 -57.6877 	 39.0127 	 85.5314
| 37> H 	 -57.9997 	 39.2395 	 87.1701
| 38> H 	 -58.2718 	 37.7562 	 86.5045
| 39> H 	 -56.336 	 31.5161 	 90.0588
| 40> H 	 -51.1135 	 37.6318 	 88.1266
| 41> *
| 42>
| 43>                          ****END OF INPUT****

CARTESIAN COORDINATES (ANGSTROEM)
---------------------------------
  S    -54.716400   33.458900   90.211900
  C    -55.965800   32.385300   89.579500
  C    -56.558500   32.919400   88.483700
  C    -55.859700   34.062400   88.029900
  C    -54.866300   34.570500   88.886400
  H    -56.063500   34.676500   87.157300
  C    -57.754200   32.273600   87.844200
  H    -57.403000   31.311000   87.487000
  H    -57.896300   32.800800   86.873400
  C    -59.076300   32.392400   88.582300
  H    -59.055000   33.351900   88.948700
  H    -59.856300   32.372800   87.814700
  C    -59.349800   31.474100   89.768500
  H    -58.636700   31.365800   90.540200
  H    -60.310500   31.674700   90.332900
  H    -59.295900   30.390200   89.369100
  S    -52.261000   35.616400   89.107400
  C    -52.013300   37.203600   88.408500
  C    -53.164400   37.891100   88.134900
  C    -54.335000   37.103000   88.366300
  C    -54.041200   35.786500   88.708100
  H    -53.114400   38.877500   87.811100
  C    -55.769200   37.755500   88.239400
  H    -55.799700   38.612700   88.926400
  H    -56.573700   37.040900   88.652200
  C    -56.104000   38.156000   86.750200
  H    -55.872500   37.353700   86.085400
  H    -55.545300   39.023600   86.347500
  C    -57.535300   38.570300   86.461000
  H    -57.687700   39.012700   85.531400
  H    -57.999700   39.239500   87.170100
  H    -58.271800   37.756200   86.504500
  H    -56.336000   31.516100   90.058800
  H    -51.113500   37.631800   88.126600

 Total Charge           Charge          ....    0
 Multiplicity           Mult            ....    1
 Number of Electrons    NEL             ....  134
 Basis Dimension        Dim             ....  322

ORBITAL ENERGIES
----------------

  NO   OCC          E(Eh)            E(eV)
   0   2.0000     -88.966563     -2420.9032
   1   2.0000     -88.964348     -2420.8430
   2   2.0000     -10.337826      -281.3065
   3   2.0000     -10.332404      -281.1590
   4   2.0000     -10.313778      -280.6522
   5   2.0000     -10.313432      -280.6428
   6   2.0000     -10.310393      -280.5601
   7   2.0000     -10.307118      -280.4709
   8   2.0000     -10.295135      -280.1449
   9   2.0000     -10.293071      -280.0887
  10   2.0000     -10.292091      -280.0620
  11   2.0000     -10.291838      -280.0552
  12   2.0000     -10.289578      -279.9936
  13   2.0000     -10.286767      -279.9172
  14   2.0000     -10.284990      -279.8688
  15   2.0000     -10.271966      -279.5144
  16   2.0000      -8.080328      -219.8769
  17   2.0000      -8.078989      -219.8405
  18   2.0000      -6.038923      -164.3275
  19   2.0000      -6.037497      -164.2886
  20   2.0000      -6.035266      -164.2279
  21   2.0000      -6.033422      -164.1778
  22   2.0000      -6.030747      -164.1050
  23   2.0000      -6.029849      -164.0805
  24   2.0000      -1.002638       -27.2832
  25   2.0000      -0.982476       -26.7345
  26   2.0000      -0.916915       -24.9505
  27   2.0000      -0.900831       -24.5129
  28   2.0000      -0.868341       -23.6288
  29   2.0000      -0.852496       -23.1976
  30   2.0000      -0.843781       -22.9604
  31   2.0000      -0.814547       -22.1649
  32   2.0000      -0.787495       -21.4288
  33   2.0000      -0.777661       -21.1612
  34   2.0000      -0.713055       -19.4032
  35   2.0000      -0.705493       -19.1974
  36   2.0000      -0.699664       -19.0388
  37   2.0000      -0.663081       -18.0433
  38   2.0000      -0.642372       -17.4798
  39   2.0000      -0.613193       -16.6858
  40   2.0000      -0.593492       -16.1497
  41   2.0000      -0.579310       -15.7638
  42   2.0000      -0.559370       -15.2212
  43   2.0000      -0.544467       -14.8157
  44   2.0000      -0.540823       -14.7165
  45   2.0000      -0.529342       -14.4041
  46   2.0000      -0.523970       -14.2579
  47   2.0000      -0.513977       -13.9860
  48   2.0000      -0.505640       -13.7592
  49   2.0000      -0.494931       -13.4678
  50   2.0000      -0.488853       -13.3024
  51   2.0000      -0.480969       -13.0878
  52   2.0000      -0.476021       -12.9532
  53   2.0000      -0.465883       -12.6773
  54   2.0000      -0.461731       -12.5643
  55   2.0000      -0.448227       -12.1969
  56   2.0000      -0.440246       -11.9797
  57   2.0000      -0.439348       -11.9553
  58   2.0000      -0.436280       -11.8718
  59   2.0000      -0.425895       -11.5892
  60   2.0000      -0.416437       -11.3318
  61   2.0000      -0.413982       -11.2650
  62   2.0000      -0.411006       -11.1840
  63   2.0000      -0.348887        -9.4937
  64   2.0000      -0.333644        -9.0789
  65   2.0000      -0.331134        -9.0106
  66   2.0000      -0.288685        -7.8555
  67   0.0000       0.025081         0.6825
  68   0.0000       0.066846         1.8190
  69   0.0000       0.100534         2.7357
  70   0.0000       0.123897         3.3714
  71   0.0000       0.133307         3.6275

MULLIKEN ATOMIC CHARGES
-----------------------
   0 S :    0.103673
   1 C :   -0.105769
   2 C :   -0.104939
   3 C :    0.026026
   4 C :   -0.150647
   5 H :    0.002022
   6 C :    0.052779
   7 H :    0.033808
   8 H :    0.013082
   9 C :    0.017053
  10 H :    0.008660
  11 H :    0.032847
  12 C :   -0.076725
  13 H :    0.016785
  14 H :    0.051017
  15 H :    0.026681
  16 S :    0.095305
  17 C :   -0.040753
  18 C :   -0.020809
  19 C :   -0.017459
  20 C :   -0.165487
  21 H :   -0.002844
  22 C :    0.042108
  23 H :    0.041917
  24 H :    0.047341
  25 C :   -0.070607
  26 H :    0.030753
  27 H :    0.033723
  28 C :   -0.030846
  29 H :    0.019270
  30 H :    0.015578
  31 H :    0.015402
  32 H :    0.033060
  33 H :    0.027996
Sum of atomic charges:   -0.0000000

LOEWDIN ATOMIC CHARGES
----------------------
   0 S :    0.402320
   1 C :   -0.184764
   2 C :   -0.069915
   3 C :   -0.070135
   4 C :   -0.199524
   5 H :    0.028142
   6 C :   -0.032614
   7 H :    0.031141
   8 H :    0.036233
   9 C :   -0.033222
  10 H :    0.018526
  11 H :    0.031014
  12 C :   -0.076888
  13 H :    0.014592
  14 H :    0.037332
  15 H :    0.032069
  16 S :    0.366513
  17 C :   -0.159883
  18 C :   -0.063399
  19 C :   -0.046436
  20 C :   -0.170855
  21 H :    0.023187
  22 C :   -0.028403
  23 H :    0.033701
  24 H :    0.040044
  25 C :   -0.043718
  26 H :    0.022523
  27 H :    0.029371
  28 C :   -0.068486
  29 H :    0.018816
  30 H :    0.023253
  31 H :    0.022892
  32 H :    0.020201
  33 H :    0.016371

  Mayer bond orders larger than 0.100000
B(  0-S ,  1-C ) :   1.1342 B(  0-S ,  4-C ) :   1.1596 B(  1-C ,  2-C ) :   1.6062
B(  1-C , 32-H ) :   0.9705 B(  2-C ,  3-C ) :   1.2559 B(  2-C ,  6-C ) :   1.0155
B(  3-C ,  4-C ) :   1.5576 B(  3-C ,  5-H ) :   0.9946 B(  4-C , 20-C ) :   1.0496
B(  6-C ,  7-H ) :   0.9418 B(  6-C ,  8-H ) :   0.9327 B(  6-C ,  9-C ) :   1.0632
B(  9-C , 10-H ) :   0.9457 B(  9-C , 11-H ) :   0.9562 B(  9-C , 12-C ) :   1.0740
B( 12-C , 13-H ) :   0.9727 B( 12-C , 14-H ) :   0.9717 B( 12-C , 15-H ) :   0.9746
B( 16-S , 17-C ) :   1.1394 B( 16-S , 20-C ) :   1.1057 B( 17-C , 18-C ) :   1.6531
B( 17-C , 33-H ) :   0.9698 B( 18-C , 19-C ) :   1.1963 B( 18-C , 21-H ) :   0.9999
B( 19-C , 20-C ) :   1.6310 B( 19-C , 22-C ) :   1.0288 B( 22-C , 23-H ) :   0.9398
B( 22-C , 24-H ) :   0.9459 B( 22-C , 25-C ) :   1.0427 B( 25-C , 26-H ) :   0.9592
B( 25-C , 27-H ) :   0.9564 B( 25-C , 28-C ) :   1.0893 B( 28-C , 29-H ) :   0.9747
B( 28-C , 30-H ) :   0.9712 B( 28-C , 31-H ) :   0.9715

Dispersion correction           -0.014028969
FINAL SINGLE POINT ENERGY     -1339.855688156721

DIPOLE MOMENT
-------------
                                X             Y             Z
Electronic contribution:     28.07792      -3.06977      10.48543
Nuclear contribution   :    -28.65576       3.45490     -10.90132
                        -----------------------------------------
Total Dipole Moment    :     -0.57784       0.38512      -0.41589
                        -----------------------------------------
Magnitude (a.u.)       :      0.80943
Magnitude (Debye)      :      2.05741

Rotational constants in cm-1:     0.018005     0.008615     0.006154
Rotational constants in MHz :   539.764571   258.281058   184.504378

                             ****ORCA TERMINATED NORMALLY****
TOTAL RUN TIME: 0 days 0 hours 0 minutes 30 seconds 158 msec
