                         Program Version 4.2.1 -  RELEASE  -
|  1> ! wB97X-D3 SP def2-SVP
|  2> %pal
|  3> nprocs 16
|  4> end
|  5>
|  6> * xyz 0 1
|  7> S 	 1.76545 	 -29.9413 	 60.8286
|  8> C 	 0.170394 	 -30.5116 	 61.2187
|  9> C 	 -0.812056 	 -29.8254 	 60.5593
| 10> C 	 -0.299807 	 -28.8209 	 59.7327
| 11> C 	 1.08574 	 -28.6785 	 59.8103
| 12> H 	 -0.851926 	 -28.209 	 59.0261
| 13> C 	 -2.27317 	 -30.095 	 60.5939
| 14> H 	 -2.60136 	 -30.7365 	 61.3696
| 15> H 	 -2.65311 	 -30.5667 	 59.6615
| 16> C 	 -3.17861 	 -28.8817 	 60.8655
| 17> H 	 -3.36639 	 -28.3312 	 59.9778
| 18> H 	 -4.1892 	 -29.1372 	 61.1285
| 19> C 	 -2.70936 	 -27.8702 	 61.9104
| 20> H 	 -3.54413 	 -27.0948 	 62.1149
| 21> H 	 -2.43035 	 -28.3076 	 62.8793
| 22> H 	 -1.78492 	 -27.3491 	 61.5741
| 23> S 	 3.25507 	 -28.4925 	 58.0881
| 24> C 	 3.51376 	 -27.0703 	 57.1079
| 25> C 	 2.60577 	 -26.1214 	 57.5015
| 26> C 	 1.74781 	 -26.477 	 58.5093
| 27> C 	 1.90656 	 -27.7912 	 58.994
| 28> H 	 2.64865 	 -25.2175 	 56.8929
| 29> C 	 0.649103 	 -25.6164 	 58.9829
| 30> H 	 0.333847 	 -25.9274 	 59.9852
| 31> H 	 -0.220103 	 -25.9288 	 58.433
| 32> C 	 0.948584 	 -24.0957 	 58.9793
| 33> H 	 0.146999 	 -23.3672 	 59.3377
| 34> H 	 1.12597 	 -23.7455 	 57.9505
| 35> C 	 2.13806 	 -23.7966 	 59.9154
| 36> H 	 2.16112 	 -24.4249 	 60.8023
| 37> H 	 2.18882 	 -22.7431 	 60.2236
| 38> H 	 3.09112 	 -24.0023 	 59.3388
| 39> H 	 -0.0217878 	 -31.2938 	 62.0226
| 40> H 	 4.20372 	 -27.0494 	 56.2621
| 41> *
| 42>
| 43>                          ****END OF INPUT****

CARTESIAN COORDINATES (ANGSTROEM)
---------------------------------
  S      1.765450  -29.941300   60.828600
  C      0.170394  -30.511600   61.218700
  C     -0.812056  -29.825400   60.559300
  C     -0.299807  -28.820900   59.732700
  C      1.085740  -28.678500   59.810300
  H     -0.851926  -28.209000   59.026100
  C     -2.273170  -30.095000   60.593900
  H     -2.601360  -30.736500   61.369600
  H     -2.653110  -30.566700   59.661500
  C     -3.178610  -28.881700   60.865500
  H     -3.366390  -28.331200   59.977800
  H     -4.189200  -29.137200   61.128500
  C     -2.709360  -27.870200   61.910400
  H     -3.544130  -27.094800   62.114900
  H     -2.430350  -28.307600   62.879300
  H     -1.784920  -27.349100   61.574100
  S      3.255070  -28.492500   58.088100
  C      3.513760  -27.070300   57.107900
  C      2.605770  -26.121400   57.501500
  C      1.747810  -26.477000   58.509300
  C      1.906560  -27.791200   58.994000
  H      2.648650  -25.217500   56.892900
  C      0.649103  -25.616400   58.982900
  H      0.333847  -25.927400   59.985200
  H     -0.220103  -25.928800   58.433000
  C      0.948584  -24.095700   58.979300
  H      0.146999  -23.367200   59.337700
  H      1.125970  -23.745500   57.950500
  C      2.138060  -23.796600   59.915400
  H      2.161120  -24.424900   60.802300
  H      2.188820  -22.743100   60.223600
  H      3.091120  -24.002300   59.338800
  H     -0.021788  -31.293800   62.022600
  H      4.203720  -27.049400   56.262100

 Total Charge           Charge          ....    0
 Multiplicity           Mult            ....    1
 Number of Electrons    NEL             ....  134
 Basis Dimension        Dim             ....  322

ORBITAL ENERGIES
----------------

  NO   OCC          E(Eh)            E(eV)
   0   2.0000     -88.970370     -2421.0069
   1   2.0000     -88.961737     -2420.7719
   2   2.0000     -10.334982      -281.2292
   3   2.0000     -10.329250      -281.0732
   4   2.0000     -10.319724      -280.8140
   5   2.0000     -10.318672      -280.7853
   6   2.0000     -10.300615      -280.2940
   7   2.0000     -10.299305      -280.2583
   8   2.0000     -10.295375      -280.1514
   9   2.0000     -10.294379      -280.1243
  10   2.0000     -10.290836      -280.0279
  11   2.0000     -10.289690      -279.9967
  12   2.0000     -10.288482      -279.9638
  13   2.0000     -10.283245      -279.8213
  14   2.0000     -10.280685      -279.7517
  15   2.0000     -10.277244      -279.6580
  16   2.0000      -8.085087      -220.0064
  17   2.0000      -8.076474      -219.7720
  18   2.0000      -6.043549      -164.4533
  19   2.0000      -6.039608      -164.3461
  20   2.0000      -6.035892      -164.2450
  21   2.0000      -6.034878      -164.2174
  22   2.0000      -6.030762      -164.1054
  23   2.0000      -6.027544      -164.0178
  24   2.0000      -1.011354       -27.5203
  25   2.0000      -0.991743       -26.9867
  26   2.0000      -0.916146       -24.9296
  27   2.0000      -0.909996       -24.7622
  28   2.0000      -0.872658       -23.7462
  29   2.0000      -0.851399       -23.1677
  30   2.0000      -0.843019       -22.9397
  31   2.0000      -0.816558       -22.2197
  32   2.0000      -0.784868       -21.3573
  33   2.0000      -0.771647       -20.9976
  34   2.0000      -0.709544       -19.3077
  35   2.0000      -0.700336       -19.0571
  36   2.0000      -0.695640       -18.9293
  37   2.0000      -0.654091       -17.7987
  38   2.0000      -0.640189       -17.4204
  39   2.0000      -0.628914       -17.1136
  40   2.0000      -0.602480       -16.3943
  41   2.0000      -0.569538       -15.4979
  42   2.0000      -0.558606       -15.2005
  43   2.0000      -0.553679       -15.0664
  44   2.0000      -0.543058       -14.7774
  45   2.0000      -0.529927       -14.4201
  46   2.0000      -0.523248       -14.2383
  47   2.0000      -0.508622       -13.8403
  48   2.0000      -0.503244       -13.6940
  49   2.0000      -0.498652       -13.5690
  50   2.0000      -0.487257       -13.2589
  51   2.0000      -0.476736       -12.9727
  52   2.0000      -0.475834       -12.9481
  53   2.0000      -0.469304       -12.7704
  54   2.0000      -0.456635       -12.4257
  55   2.0000      -0.449748       -12.2383
  56   2.0000      -0.440379       -11.9833
  57   2.0000      -0.436919       -11.8892
  58   2.0000      -0.432184       -11.7603
  59   2.0000      -0.428263       -11.6536
  60   2.0000      -0.416014       -11.3203
  61   2.0000      -0.409566       -11.1449
  62   2.0000      -0.405562       -11.0359
  63   2.0000      -0.354824        -9.6553
  64   2.0000      -0.336027        -9.1437
  65   2.0000      -0.329663        -8.9706
  66   2.0000      -0.286660        -7.8004
  67   0.0000       0.022844         0.6216
  68   0.0000       0.069951         1.9035
  69   0.0000       0.111781         3.0417
  70   0.0000       0.124418         3.3856
  71   0.0000       0.130054         3.5390

MULLIKEN ATOMIC CHARGES
-----------------------
   0 S :    0.117729
   1 C :   -0.146191
   2 C :   -0.059358
   3 C :    0.006320
   4 C :   -0.148838
   5 H :    0.014476
   6 C :    0.106738
   7 H :    0.007809
   8 H :    0.047044
   9 C :   -0.085620
  10 H :    0.010502
  11 H :    0.017981
  12 C :   -0.087192
  13 H :    0.046376
  14 H :    0.029465
  15 H :    0.041443
  16 S :    0.085755
  17 C :   -0.105649
  18 C :   -0.058271
  19 C :   -0.027192
  20 C :   -0.134751
  21 H :    0.023609
  22 C :    0.077157
  23 H :    0.026216
  24 H :    0.034251
  25 C :   -0.093222
  26 H :    0.039880
  27 H :    0.030702
  28 C :   -0.070405
  29 H :    0.039937
  30 H :    0.036233
  31 H :    0.038595
  32 H :    0.071886
  33 H :    0.066582
Sum of atomic charges:   -0.0000000

LOEWDIN ATOMIC CHARGES
----------------------
   0 S :    0.411463
   1 C :   -0.202877
   2 C :   -0.072343
   3 C :   -0.056003
   4 C :   -0.189300
   5 H :    0.032499
   6 C :   -0.029841
   7 H :    0.025790
   8 H :    0.042205
   9 C :   -0.047213
  10 H :    0.014746
  11 H :    0.023274
  12 C :   -0.075072
  13 H :    0.036385
  14 H :    0.021971
  15 H :    0.025728
  16 S :    0.400586
  17 C :   -0.182386
  18 C :   -0.082075
  19 C :   -0.061702
  20 C :   -0.194558
  21 H :    0.036599
  22 C :   -0.035588
  23 H :    0.032200
  24 H :    0.030253
  25 C :   -0.048901
  26 H :    0.033150
  27 H :    0.020668
  28 C :   -0.071291
  29 H :    0.026467
  30 H :    0.025321
  31 H :    0.030881
  32 H :    0.043930
  33 H :    0.035034

  Mayer bond orders larger than 0.100000
B(  0-S ,  1-C ) :   1.1416 B(  0-S ,  4-C ) :   1.1587 B(  1-C ,  2-C ) :   1.6082
B(  1-C , 32-H ) :   0.9545 B(  2-C ,  3-C ) :   1.2474 B(  2-C ,  6-C ) :   1.0390
B(  3-C ,  4-C ) :   1.5432 B(  3-C ,  5-H ) :   0.9951 B(  4-C , 20-C ) :   1.0538
B(  6-C ,  7-H ) :   0.9389 B(  6-C ,  8-H ) :   0.9381 B(  6-C ,  9-C ) :   1.0573
B(  9-C , 10-H ) :   0.9480 B(  9-C , 11-H ) :   0.9584 B(  9-C , 12-C ) :   1.0843
B( 12-C , 13-H ) :   0.9723 B( 12-C , 14-H ) :   0.9752 B( 12-C , 15-H ) :   0.9663
B( 16-S , 17-C ) :   1.1781 B( 16-S , 20-C ) :   1.1502 B( 17-C , 18-C ) :   1.5566
B( 17-C , 20-C ) :   0.1147 B( 17-C , 33-H ) :   0.9675 B( 18-C , 19-C ) :   1.2778
B( 18-C , 21-H ) :   0.9961 B( 19-C , 20-C ) :   1.5399 B( 19-C , 22-C ) :   1.0395
B( 22-C , 23-H ) :   0.9336 B( 22-C , 24-H ) :   0.9233 B( 22-C , 25-C ) :   1.0617
B( 25-C , 26-H ) :   0.9625 B( 25-C , 27-H ) :   0.9527 B( 25-C , 28-C ) :   1.0679
B( 28-C , 29-H ) :   0.9768 B( 28-C , 30-H ) :   0.9778 B( 28-C , 31-H ) :   0.9716

Dispersion correction           -0.015110698
FINAL SINGLE POINT ENERGY     -1339.880016127573

DIPOLE MOMENT
-------------
                                X             Y             Z
Electronic contribution:     19.80092     -17.81839      -5.96241
Nuclear contribution   :    -20.41256      18.09321       5.77141
                        -----------------------------------------
Total Dipole Moment    :     -0.61164       0.27482      -0.19100
                        -----------------------------------------
Magnitude (a.u.)       :      0.69722
Magnitude (Debye)      :      1.77218

Rotational constants in cm-1:     0.018698     0.009561     0.007147
Rotational constants in MHz :   560.556590   286.624836   214.257908

                             ****ORCA TERMINATED NORMALLY****
TOTAL RUN TIME: 0 days 0 hours 0 minutes 36 seconds 539 msec
