                         Program Version 4.2.1 -  RELEASE  -
|  1> ! wB97X-D3 SP def2-SVP
|  2> %pal
|  3> nprocs 16
|  4> end
|  5>
|  6> * xyz 0 1
|  7> S 	 -95.8634 	 61.0865 	 124.863
|  8> C 	 -95.6834 	 59.3928 	 124.226
|  9> C 	 -94.6556 	 58.7509 	 124.903
| 10> C 	 -93.9683 	 59.6216 	 125.833
| 11> C 	 -94.5112 	 60.9188 	 125.959
| 12> H 	 -93.118 	 59.3328 	 126.506
| 13> C 	 -94.0888 	 57.3179 	 124.639
| 14> H 	 -94.839 	 56.5188 	 124.694
| 15> H 	 -93.368 	 57.1641 	 125.457
| 16> C 	 -93.2885 	 57.2295 	 123.36
| 17> H 	 -93.9105 	 57.2915 	 122.459
| 18> H 	 -92.622 	 58.0672 	 123.319
| 19> C 	 -92.433 	 56.0073 	 123.25
| 20> H 	 -91.8298 	 55.8237 	 124.118
| 21> H 	 -92.9639 	 55.0308 	 123.094
| 22> H 	 -91.6909 	 56.185 	 122.467
| 23> S 	 -95.1279 	 63.0962 	 127.444
| 24> C 	 -93.9194 	 64.2386 	 127.955
| 25> C 	 -92.6747 	 63.7243 	 127.61
| 26> C 	 -92.6826 	 62.5137 	 126.859
| 27> C 	 -93.9688 	 62.0809 	 126.602
| 28> H 	 -91.7705 	 64.2912 	 127.81
| 29> C 	 -91.4029 	 61.9505 	 126.378
| 30> H 	 -91.6431 	 60.9612 	 125.867
| 31> H 	 -90.8646 	 61.5733 	 127.267
| 32> C 	 -90.4822 	 62.8498 	 125.572
| 33> H 	 -90.2265 	 63.6632 	 126.238
| 34> H 	 -91.098 	 63.2274 	 124.743
| 35> C 	 -89.1303 	 62.1509 	 125.056
| 36> H 	 -88.4724 	 61.7091 	 125.806
| 37> H 	 -88.4512 	 62.8743 	 124.523
| 38> H 	 -89.3465 	 61.2206 	 124.496
| 39> H 	 -96.3386 	 58.7871 	 123.638
| 40> H 	 -94.094 	 65.1958 	 128.322
| 41> *
| 42>
| 43>                          ****END OF INPUT****

CARTESIAN COORDINATES (ANGSTROEM)
---------------------------------
  S    -95.863400   61.086500  124.863000
  C    -95.683400   59.392800  124.226000
  C    -94.655600   58.750900  124.903000
  C    -93.968300   59.621600  125.833000
  C    -94.511200   60.918800  125.959000
  H    -93.118000   59.332800  126.506000
  C    -94.088800   57.317900  124.639000
  H    -94.839000   56.518800  124.694000
  H    -93.368000   57.164100  125.457000
  C    -93.288500   57.229500  123.360000
  H    -93.910500   57.291500  122.459000
  H    -92.622000   58.067200  123.319000
  C    -92.433000   56.007300  123.250000
  H    -91.829800   55.823700  124.118000
  H    -92.963900   55.030800  123.094000
  H    -91.690900   56.185000  122.467000
  S    -95.127900   63.096200  127.444000
  C    -93.919400   64.238600  127.955000
  C    -92.674700   63.724300  127.610000
  C    -92.682600   62.513700  126.859000
  C    -93.968800   62.080900  126.602000
  H    -91.770500   64.291200  127.810000
  C    -91.402900   61.950500  126.378000
  H    -91.643100   60.961200  125.867000
  H    -90.864600   61.573300  127.267000
  C    -90.482200   62.849800  125.572000
  H    -90.226500   63.663200  126.238000
  H    -91.098000   63.227400  124.743000
  C    -89.130300   62.150900  125.056000
  H    -88.472400   61.709100  125.806000
  H    -88.451200   62.874300  124.523000
  H    -89.346500   61.220600  124.496000
  H    -96.338600   58.787100  123.638000
  H    -94.094000   65.195800  128.322000

 Total Charge           Charge          ....    0
 Multiplicity           Mult            ....    1
 Number of Electrons    NEL             ....  134
 Basis Dimension        Dim             ....  322

ORBITAL ENERGIES
----------------

  NO   OCC          E(Eh)            E(eV)
   0   2.0000     -88.968726     -2420.9621
   1   2.0000     -88.963990     -2420.8332
   2   2.0000     -10.333956      -281.2012
   3   2.0000     -10.328432      -281.0509
   4   2.0000     -10.319708      -280.8135
   5   2.0000     -10.316729      -280.7325
   6   2.0000     -10.308915      -280.5198
   7   2.0000     -10.303741      -280.3791
   8   2.0000     -10.303354      -280.3685
   9   2.0000     -10.298300      -280.2310
  10   2.0000     -10.295477      -280.1542
  11   2.0000     -10.294580      -280.1298
  12   2.0000     -10.293694      -280.1056
  13   2.0000     -10.291343      -280.0417
  14   2.0000     -10.282502      -279.8011
  15   2.0000     -10.277686      -279.6701
  16   2.0000      -8.082177      -219.9272
  17   2.0000      -8.079101      -219.8435
  18   2.0000      -6.040913      -164.3816
  19   2.0000      -6.037617      -164.2919
  20   2.0000      -6.036756      -164.2685
  21   2.0000      -6.033441      -164.1783
  22   2.0000      -6.032837      -164.1618
  23   2.0000      -6.029920      -164.0825
  24   2.0000      -1.008173       -27.4338
  25   2.0000      -0.979037       -26.6409
  26   2.0000      -0.916950       -24.9515
  27   2.0000      -0.910386       -24.7729
  28   2.0000      -0.874384       -23.7932
  29   2.0000      -0.848590       -23.0913
  30   2.0000      -0.840026       -22.8583
  31   2.0000      -0.811026       -22.0691
  32   2.0000      -0.782669       -21.2975
  33   2.0000      -0.776460       -21.1285
  34   2.0000      -0.713060       -19.4034
  35   2.0000      -0.706005       -19.2114
  36   2.0000      -0.698565       -19.0089
  37   2.0000      -0.664444       -18.0804
  38   2.0000      -0.638494       -17.3743
  39   2.0000      -0.614990       -16.7347
  40   2.0000      -0.599518       -16.3137
  41   2.0000      -0.567786       -15.4502
  42   2.0000      -0.565763       -15.3952
  43   2.0000      -0.561378       -15.2759
  44   2.0000      -0.530726       -14.4418
  45   2.0000      -0.526005       -14.3133
  46   2.0000      -0.519037       -14.1237
  47   2.0000      -0.512727       -13.9520
  48   2.0000      -0.508492       -13.8368
  49   2.0000      -0.498490       -13.5646
  50   2.0000      -0.494246       -13.4491
  51   2.0000      -0.485197       -13.2029
  52   2.0000      -0.465959       -12.6794
  53   2.0000      -0.461052       -12.5458
  54   2.0000      -0.454217       -12.3599
  55   2.0000      -0.451244       -12.2790
  56   2.0000      -0.446796       -12.1579
  57   2.0000      -0.435620       -11.8538
  58   2.0000      -0.435237       -11.8434
  59   2.0000      -0.422432       -11.4950
  60   2.0000      -0.421482       -11.4691
  61   2.0000      -0.416375       -11.3301
  62   2.0000      -0.413417       -11.2496
  63   2.0000      -0.350883        -9.5480
  64   2.0000      -0.332515        -9.0482
  65   2.0000      -0.329446        -8.9647
  66   2.0000      -0.292409        -7.9568
  67   0.0000       0.018686         0.5085
  68   0.0000       0.074005         2.0138
  69   0.0000       0.104391         2.8406
  70   0.0000       0.115283         3.1370
  71   0.0000       0.128854         3.5063

MULLIKEN ATOMIC CHARGES
-----------------------
   0 S :    0.103400
   1 C :   -0.094704
   2 C :   -0.108638
   3 C :   -0.009251
   4 C :   -0.132796
   5 H :    0.041102
   6 C :    0.062984
   7 H :    0.035799
   8 H :    0.015036
   9 C :   -0.050821
  10 H :    0.029776
  11 H :    0.019581
  12 C :   -0.051984
  13 H :    0.013890
  14 H :    0.037289
  15 H :    0.033605
  16 S :    0.096671
  17 C :   -0.060183
  18 C :   -0.052564
  19 C :   -0.031237
  20 C :   -0.140828
  21 H :    0.020316
  22 C :    0.040391
  23 H :    0.013673
  24 H :    0.029679
  25 C :   -0.057939
  26 H :    0.030549
  27 H :    0.048104
  28 C :   -0.074448
  29 H :    0.023045
  30 H :    0.052553
  31 H :    0.035270
  32 H :    0.041992
  33 H :    0.040687
Sum of atomic charges:    0.0000000

LOEWDIN ATOMIC CHARGES
----------------------
   0 S :    0.390070
   1 C :   -0.182325
   2 C :   -0.057785
   3 C :   -0.075831
   4 C :   -0.195323
   5 H :    0.037559
   6 C :   -0.027252
   7 H :    0.029827
   8 H :    0.029979
   9 C :   -0.043290
  10 H :    0.025839
  11 H :    0.024423
  12 C :   -0.069154
  13 H :    0.018485
  14 H :    0.028849
  15 H :    0.030313
  16 S :    0.408151
  17 C :   -0.175785
  18 C :   -0.067176
  19 C :   -0.059331
  20 C :   -0.197157
  21 H :    0.028831
  22 C :   -0.046709
  23 H :    0.031742
  24 H :    0.034843
  25 C :   -0.034148
  26 H :    0.021339
  27 H :    0.032402
  28 C :   -0.077853
  29 H :    0.024264
  30 H :    0.035056
  31 H :    0.028904
  32 H :    0.028289
  33 H :    0.019957

  Mayer bond orders larger than 0.100000
B(  0-S ,  1-C ) :   1.1164 B(  0-S ,  4-C ) :   1.1500 B(  1-C ,  2-C ) :   1.6268
B(  1-C ,  4-C ) :   0.1059 B(  1-C , 32-H ) :   0.9671 B(  2-C ,  3-C ) :   1.2478
B(  2-C ,  6-C ) :   1.0187 B(  3-C ,  4-C ) :   1.5697 B(  3-C ,  5-H ) :   0.9736
B(  4-C , 20-C ) :   1.0405 B(  6-C ,  7-H ) :   0.9415 B(  6-C ,  8-H ) :   0.9420
B(  6-C ,  9-C ) :   1.0719 B(  9-C , 10-H ) :   0.9501 B(  9-C , 11-H ) :   0.9511
B(  9-C , 12-C ) :   1.0946 B( 12-C , 13-H ) :   0.9710 B( 12-C , 14-H ) :   0.9726
B( 12-C , 15-H ) :   0.9733 B( 16-S , 17-C ) :   1.1553 B( 16-S , 20-C ) :   1.1401
B( 17-C , 18-C ) :   1.5886 B( 17-C , 20-C ) :   0.1021 B( 17-C , 33-H ) :   0.9789
B( 18-C , 19-C ) :   1.2457 B( 18-C , 21-H ) :   0.9879 B( 19-C , 20-C ) :   1.5807
B( 19-C , 22-C ) :   1.0577 B( 22-C , 23-H ) :   0.9268 B( 22-C , 24-H ) :   0.9196
B( 22-C , 25-C ) :   1.0577 B( 25-C , 26-H ) :   0.9522 B( 25-C , 27-H ) :   0.9591
B( 25-C , 28-C ) :   1.0682 B( 28-C , 29-H ) :   0.9747 B( 28-C , 30-H ) :   0.9773
B( 28-C , 31-H ) :   0.9761

Dispersion correction           -0.013477276
FINAL SINGLE POINT ENERGY     -1339.876990222756

DIPOLE MOMENT
-------------
                                X             Y             Z
Electronic contribution:    -25.99054      16.84116      10.87937
Nuclear contribution   :     26.72104     -17.13661     -10.94080
                        -----------------------------------------
Total Dipole Moment    :      0.73050      -0.29544      -0.06142
                        -----------------------------------------
Magnitude (a.u.)       :      0.79038
Magnitude (Debye)      :      2.00897

Rotational constants in cm-1:     0.016955     0.008792     0.006207
Rotational constants in MHz :   508.298713   263.563165   186.072445

                             ****ORCA TERMINATED NORMALLY****
TOTAL RUN TIME: 0 days 0 hours 0 minutes 33 seconds 434 msec
