                         Program Version 4.2.1 -  RELEASE  -
|  1> ! wB97X-D3 SP def2-SVP
|  2> %pal
|  3> nprocs 16
|  4> end
|  5>
|  6> * xyz 0 1
|  7> S 	 16.3507 	 0.235951 	 67.2039
|  8> C 	 15.1046 	 0.183482 	 65.9537
|  9> C 	 15.3682 	 1.04149 	 64.91
| 10> C 	 16.5537 	 1.67387 	 65.1058
| 11> C 	 17.1654 	 1.48445 	 66.3381
| 12> H 	 17.064 	 2.30025 	 64.373
| 13> C 	 14.6647 	 1.23791 	 63.4975
| 14> H 	 15.0623 	 0.481329 	 62.867
| 15> H 	 15.0377 	 2.18941 	 63.0645
| 16> C 	 13.1717 	 0.974477 	 63.506
| 17> H 	 12.7976 	 0.745768 	 62.4989
| 18> H 	 12.8881 	 0.0813871 	 64.0536
| 19> C 	 12.3765 	 2.26263 	 64.0036
| 20> H 	 12.8943 	 2.68556 	 64.8445
| 21> H 	 12.2701 	 3.02078 	 63.3265
| 22> H 	 11.3725 	 2.10897 	 64.2931
| 23> S 	 19.5917 	 1.06906 	 67.5261
| 24> C 	 20.6548 	 2.37319 	 67.583
| 25> C 	 20.2664 	 3.61534 	 67.0951
| 26> C 	 18.9157 	 3.46167 	 66.5902
| 27> C 	 18.4022 	 2.12395 	 66.793
| 28> H 	 20.8302 	 4.53366 	 66.9738
| 29> C 	 18.1723 	 4.65004 	 66.0075
| 30> H 	 17.3855 	 4.37198 	 65.3483
| 31> H 	 18.9463 	 5.14622 	 65.4387
| 32> C 	 17.5399 	 5.56486 	 67.0783
| 33> H 	 16.8383 	 4.90289 	 67.5493
| 34> H 	 17.0279 	 6.46564 	 66.608
| 35> C 	 18.5635 	 6.08906 	 68.0881
| 36> H 	 18.844 	 5.38773 	 68.8897
| 37> H 	 18.0783 	 6.93476 	 68.57
| 38> H 	 19.4945 	 6.40103 	 67.5847
| 39> H 	 14.3456 	 -0.582906 	 65.8889
| 40> H 	 21.6705 	 2.2501 	 67.9582
| 41> *
| 42>
| 43>                          ****END OF INPUT****

CARTESIAN COORDINATES (ANGSTROEM)
---------------------------------
  S     16.350700    0.235951   67.203900
  C     15.104600    0.183482   65.953700
  C     15.368200    1.041490   64.910000
  C     16.553700    1.673870   65.105800
  C     17.165400    1.484450   66.338100
  H     17.064000    2.300250   64.373000
  C     14.664700    1.237910   63.497500
  H     15.062300    0.481329   62.867000
  H     15.037700    2.189410   63.064500
  C     13.171700    0.974477   63.506000
  H     12.797600    0.745768   62.498900
  H     12.888100    0.081387   64.053600
  C     12.376500    2.262630   64.003600
  H     12.894300    2.685560   64.844500
  H     12.270100    3.020780   63.326500
  H     11.372500    2.108970   64.293100
  S     19.591700    1.069060   67.526100
  C     20.654800    2.373190   67.583000
  C     20.266400    3.615340   67.095100
  C     18.915700    3.461670   66.590200
  C     18.402200    2.123950   66.793000
  H     20.830200    4.533660   66.973800
  C     18.172300    4.650040   66.007500
  H     17.385500    4.371980   65.348300
  H     18.946300    5.146220   65.438700
  C     17.539900    5.564860   67.078300
  H     16.838300    4.902890   67.549300
  H     17.027900    6.465640   66.608000
  C     18.563500    6.089060   68.088100
  H     18.844000    5.387730   68.889700
  H     18.078300    6.934760   68.570000
  H     19.494500    6.401030   67.584700
  H     14.345600   -0.582906   65.888900
  H     21.670500    2.250100   67.958200

 Total Charge           Charge          ....    0
 Multiplicity           Mult            ....    1
 Number of Electrons    NEL             ....  134
 Basis Dimension        Dim             ....  322

ORBITAL ENERGIES
----------------

  NO   OCC          E(Eh)            E(eV)
   0   2.0000     -88.971588     -2421.0400
   1   2.0000     -88.968484     -2420.9555
   2   2.0000     -10.328450      -281.0514
   3   2.0000     -10.324487      -280.9436
   4   2.0000     -10.315690      -280.7042
   5   2.0000     -10.311203      -280.5821
   6   2.0000     -10.309946      -280.5479
   7   2.0000     -10.298681      -280.2414
   8   2.0000     -10.298188      -280.2279
   9   2.0000     -10.296093      -280.1709
  10   2.0000     -10.292354      -280.0692
  11   2.0000     -10.287201      -279.9290
  12   2.0000     -10.285437      -279.8810
  13   2.0000     -10.281232      -279.7665
  14   2.0000     -10.275423      -279.6085
  15   2.0000     -10.263979      -279.2971
  16   2.0000      -8.087444      -220.0705
  17   2.0000      -8.083152      -219.9537
  18   2.0000      -6.045622      -164.5097
  19   2.0000      -6.041896      -164.4083
  20   2.0000      -6.041553      -164.3990
  21   2.0000      -6.038404      -164.3133
  22   2.0000      -6.037708      -164.2944
  23   2.0000      -6.034027      -164.1942
  24   2.0000      -1.009554       -27.4714
  25   2.0000      -0.988274       -26.8923
  26   2.0000      -0.912055       -24.8183
  27   2.0000      -0.907072       -24.6827
  28   2.0000      -0.864505       -23.5244
  29   2.0000      -0.850550       -23.1446
  30   2.0000      -0.846694       -23.0397
  31   2.0000      -0.806430       -21.9441
  32   2.0000      -0.790423       -21.5085
  33   2.0000      -0.772859       -21.0306
  34   2.0000      -0.713850       -19.4248
  35   2.0000      -0.702071       -19.1043
  36   2.0000      -0.681500       -18.5445
  37   2.0000      -0.664702       -18.0875
  38   2.0000      -0.635230       -17.2855
  39   2.0000      -0.615143       -16.7389
  40   2.0000      -0.592760       -16.1298
  41   2.0000      -0.569794       -15.5049
  42   2.0000      -0.557339       -15.1660
  43   2.0000      -0.554650       -15.0928
  44   2.0000      -0.544329       -14.8120
  45   2.0000      -0.531221       -14.4553
  46   2.0000      -0.516488       -14.0544
  47   2.0000      -0.509504       -13.8643
  48   2.0000      -0.495716       -13.4891
  49   2.0000      -0.491526       -13.3751
  50   2.0000      -0.482687       -13.1346
  51   2.0000      -0.476782       -12.9739
  52   2.0000      -0.473992       -12.8980
  53   2.0000      -0.465941       -12.6789
  54   2.0000      -0.463300       -12.6070
  55   2.0000      -0.453988       -12.3536
  56   2.0000      -0.446049       -12.1376
  57   2.0000      -0.436128       -11.8676
  58   2.0000      -0.431717       -11.7476
  59   2.0000      -0.429687       -11.6924
  60   2.0000      -0.423037       -11.5114
  61   2.0000      -0.417374       -11.3573
  62   2.0000      -0.414784       -11.2868
  63   2.0000      -0.346403        -9.4261
  64   2.0000      -0.336508        -9.1569
  65   2.0000      -0.333674        -9.0797
  66   2.0000      -0.279309        -7.6004
  67   0.0000       0.026059         0.7091
  68   0.0000       0.075523         2.0551
  69   0.0000       0.101535         2.7629
  70   0.0000       0.117753         3.2042
  71   0.0000       0.135531         3.6880

MULLIKEN ATOMIC CHARGES
-----------------------
   0 S :    0.112076
   1 C :   -0.142991
   2 C :   -0.052869
   3 C :   -0.016120
   4 C :   -0.139399
   5 H :    0.014784
   6 C :    0.069953
   7 H :    0.034372
   8 H :    0.033464
   9 C :   -0.062442
  10 H :    0.024317
  11 H :    0.026946
  12 C :   -0.010589
  13 H :    0.026379
  14 H :    0.005522
  15 H :    0.015434
  16 S :    0.133488
  17 C :   -0.078204
  18 C :   -0.029395
  19 C :   -0.089515
  20 C :   -0.158173
  21 H :    0.025038
  22 C :    0.084195
  23 H :    0.010090
  24 H :    0.018472
  25 C :   -0.067751
  26 H :    0.034013
  27 H :    0.044676
  28 C :   -0.065443
  29 H :    0.051483
  30 H :    0.032708
  31 H :    0.022090
  32 H :    0.039906
  33 H :    0.053488
Sum of atomic charges:   -0.0000000

LOEWDIN ATOMIC CHARGES
----------------------
   0 S :    0.411033
   1 C :   -0.200348
   2 C :   -0.063237
   3 C :   -0.075535
   4 C :   -0.204882
   5 H :    0.029791
   6 C :   -0.019926
   7 H :    0.032381
   8 H :    0.034363
   9 C :   -0.036516
  10 H :    0.024799
  11 H :    0.024850
  12 C :   -0.058639
  13 H :    0.025226
  14 H :    0.012484
  15 H :    0.020216
  16 S :    0.440969
  17 C :   -0.201131
  18 C :   -0.070179
  19 C :   -0.041071
  20 C :   -0.211200
  21 H :    0.035249
  22 C :   -0.033673
  23 H :    0.022685
  24 H :    0.025808
  25 C :   -0.035329
  26 H :    0.026461
  27 H :    0.031841
  28 C :   -0.071520
  29 H :    0.030554
  30 H :    0.026739
  31 H :    0.020520
  32 H :    0.022251
  33 H :    0.024965

  Mayer bond orders larger than 0.100000
B(  0-S ,  1-C ) :   1.1390 B(  0-S ,  4-C ) :   1.1668 B(  1-C ,  2-C ) :   1.5876
B(  1-C ,  4-C ) :   0.1093 B(  1-C , 32-H ) :   0.9662 B(  2-C ,  3-C ) :   1.2993
B(  2-C ,  6-C ) :   0.9881 B(  3-C ,  4-C ) :   1.5376 B(  3-C ,  5-H ) :   0.9880
B(  4-C , 20-C ) :   1.0542 B(  6-C ,  7-H ) :   0.9355 B(  6-C ,  8-H ) :   0.9528
B(  6-C ,  9-C ) :   1.0743 B(  9-C , 10-H ) :   0.9566 B(  9-C , 11-H ) :   0.9555
B(  9-C , 12-C ) :   1.0630 B( 12-C , 13-H ) :   0.9799 B( 12-C , 14-H ) :   0.9762
B( 12-C , 15-H ) :   0.9756 B( 16-S , 17-C ) :   1.1918 B( 16-S , 20-C ) :   1.1493
B( 17-C , 18-C ) :   1.5773 B( 17-C , 33-H ) :   0.9593 B( 18-C , 19-C ) :   1.2674
B( 18-C , 21-H ) :   0.9865 B( 19-C , 20-C ) :   1.5604 B( 19-C , 22-C ) :   1.0388
B( 22-C , 23-H ) :   0.9350 B( 22-C , 24-H ) :   0.9318 B( 22-C , 25-C ) :   1.0717
B( 25-C , 26-H ) :   0.9517 B( 25-C , 27-H ) :   0.9588 B( 25-C , 28-C ) :   1.0853
B( 28-C , 29-H ) :   0.9673 B( 28-C , 30-H ) :   0.9730 B( 28-C , 31-H ) :   0.9741

Dispersion correction           -0.014377868
FINAL SINGLE POINT ENERGY     -1339.864492151472

DIPOLE MOMENT
-------------
                                X             Y             Z
Electronic contribution:     14.79905     -18.87485      11.14133
Nuclear contribution   :    -14.81741      19.22213     -11.64024
                        -----------------------------------------
Total Dipole Moment    :     -0.01836       0.34728      -0.49890
                        -----------------------------------------
Magnitude (a.u.)       :      0.60815
Magnitude (Debye)      :      1.54579

Rotational constants in cm-1:     0.020969     0.008196     0.006538
Rotational constants in MHz :   628.632916   245.699971   196.012944

                             ****ORCA TERMINATED NORMALLY****
TOTAL RUN TIME: 0 days 0 hours 0 minutes 35 seconds 331 msec
