                         Program Version 4.2.1 -  RELEASE  -
|  1> ! wB97X-D3 SP def2-SVP
|  2> %pal
|  3> nprocs 16
|  4> end
|  5>
|  6> * xyz 0 1
|  7> S 	 -80.876 	 43.9197 	 127.926
|  8> C 	 -82.5868 	 44.0066 	 127.486
|  9> C 	 -83.2626 	 44.6507 	 128.537
| 10> C 	 -82.41 	 45.2526 	 129.555
| 11> C 	 -81.1368 	 44.834 	 129.384
| 12> H 	 -82.6372 	 45.9196 	 130.355
| 13> C 	 -84.7448 	 44.9491 	 128.527
| 14> H 	 -85.0779 	 44.5172 	 129.493
| 15> H 	 -85.2284 	 44.3289 	 127.728
| 16> C 	 -85.0986 	 46.4643 	 128.293
| 17> H 	 -86.1978 	 46.7468 	 128.33
| 18> H 	 -84.7023 	 47.1091 	 129.108
| 19> C 	 -84.57 	 46.9555 	 127.019
| 20> H 	 -84.8737 	 47.9842 	 126.978
| 21> H 	 -83.4905 	 46.8128 	 126.953
| 22> H 	 -85.0121 	 46.358 	 126.206
| 23> S 	 -78.5846 	 45.61 	 129.636
| 24> C 	 -77.8853 	 45.8166 	 131.222
| 25> C 	 -78.7468 	 45.5073 	 132.222
| 26> C 	 -80.0243 	 45.1767 	 131.7
| 27> C 	 -80.0522 	 45.0388 	 130.308
| 28> H 	 -78.38 	 45.6098 	 133.196
| 29> C 	 -81.2181 	 44.7721 	 132.653
| 30> H 	 -80.7708 	 44.2288 	 133.533
| 31> H 	 -81.8045 	 44.0048 	 132.145
| 32> C 	 -82.023 	 45.9473 	 133.334
| 33> H 	 -82.5115 	 46.268 	 132.459
| 34> H 	 -81.3925 	 46.7598 	 133.734
| 35> C 	 -83.1642 	 45.5169 	 134.307
| 36> H 	 -83.9731 	 46.2137 	 134.219
| 37> H 	 -82.7002 	 45.6158 	 135.331
| 38> H 	 -83.5218 	 44.4573 	 134.209
| 39> H 	 -83.1619 	 43.4406 	 126.77
| 40> H 	 -76.8872 	 46.2086 	 131.342
| 41> *
| 42>
| 43>                          ****END OF INPUT****

CARTESIAN COORDINATES (ANGSTROEM)
---------------------------------
  S    -80.876000   43.919700  127.926000
  C    -82.586800   44.006600  127.486000
  C    -83.262600   44.650700  128.537000
  C    -82.410000   45.252600  129.555000
  C    -81.136800   44.834000  129.384000
  H    -82.637200   45.919600  130.355000
  C    -84.744800   44.949100  128.527000
  H    -85.077900   44.517200  129.493000
  H    -85.228400   44.328900  127.728000
  C    -85.098600   46.464300  128.293000
  H    -86.197800   46.746800  128.330000
  H    -84.702300   47.109100  129.108000
  C    -84.570000   46.955500  127.019000
  H    -84.873700   47.984200  126.978000
  H    -83.490500   46.812800  126.953000
  H    -85.012100   46.358000  126.206000
  S    -78.584600   45.610000  129.636000
  C    -77.885300   45.816600  131.222000
  C    -78.746800   45.507300  132.222000
  C    -80.024300   45.176700  131.700000
  C    -80.052200   45.038800  130.308000
  H    -78.380000   45.609800  133.196000
  C    -81.218100   44.772100  132.653000
  H    -80.770800   44.228800  133.533000
  H    -81.804500   44.004800  132.145000
  C    -82.023000   45.947300  133.334000
  H    -82.511500   46.268000  132.459000
  H    -81.392500   46.759800  133.734000
  C    -83.164200   45.516900  134.307000
  H    -83.973100   46.213700  134.219000
  H    -82.700200   45.615800  135.331000
  H    -83.521800   44.457300  134.209000
  H    -83.161900   43.440600  126.770000
  H    -76.887200   46.208600  131.342000

 Total Charge           Charge          ....    0
 Multiplicity           Mult            ....    1
 Number of Electrons    NEL             ....  134
 Basis Dimension        Dim             ....  322

ORBITAL ENERGIES
----------------

  NO   OCC          E(Eh)            E(eV)
   0   2.0000     -88.967235     -2420.9215
   1   2.0000     -88.964072     -2420.8355
   2   2.0000     -10.327180      -281.0169
   3   2.0000     -10.323857      -280.9264
   4   2.0000     -10.316654      -280.7304
   5   2.0000     -10.314210      -280.6639
   6   2.0000     -10.310060      -280.5510
   7   2.0000     -10.306523      -280.4547
   8   2.0000     -10.299860      -280.2734
   9   2.0000     -10.297609      -280.2122
  10   2.0000     -10.291912      -280.0572
  11   2.0000     -10.290650      -280.0228
  12   2.0000     -10.290126      -280.0086
  13   2.0000     -10.289976      -280.0045
  14   2.0000     -10.287908      -279.9482
  15   2.0000     -10.266821      -279.3744
  16   2.0000      -8.081775      -219.9163
  17   2.0000      -8.079999      -219.8679
  18   2.0000      -6.040449      -164.3690
  19   2.0000      -6.038311      -164.3108
  20   2.0000      -6.036319      -164.2566
  21   2.0000      -6.034332      -164.2025
  22   2.0000      -6.032344      -164.1484
  23   2.0000      -6.030895      -164.1090
  24   2.0000      -1.014686       -27.6110
  25   2.0000      -0.986829       -26.8530
  26   2.0000      -0.913632       -24.8612
  27   2.0000      -0.898934       -24.4612
  28   2.0000      -0.877096       -23.8670
  29   2.0000      -0.853406       -23.2224
  30   2.0000      -0.846558       -23.0360
  31   2.0000      -0.820638       -22.3307
  32   2.0000      -0.779085       -21.2000
  33   2.0000      -0.768388       -20.9089
  34   2.0000      -0.708495       -19.2791
  35   2.0000      -0.694213       -18.8905
  36   2.0000      -0.689143       -18.7525
  37   2.0000      -0.665194       -18.1008
  38   2.0000      -0.639528       -17.4024
  39   2.0000      -0.621520       -16.9124
  40   2.0000      -0.593355       -16.1460
  41   2.0000      -0.569204       -15.4888
  42   2.0000      -0.562601       -15.3092
  43   2.0000      -0.561092       -15.2681
  44   2.0000      -0.540852       -14.7173
  45   2.0000      -0.526428       -14.3248
  46   2.0000      -0.517653       -14.0861
  47   2.0000      -0.515056       -14.0154
  48   2.0000      -0.505369       -13.7518
  49   2.0000      -0.499978       -13.6051
  50   2.0000      -0.490484       -13.3467
  51   2.0000      -0.481897       -13.1131
  52   2.0000      -0.468973       -12.7614
  53   2.0000      -0.468130       -12.7385
  54   2.0000      -0.454285       -12.3617
  55   2.0000      -0.450880       -12.2691
  56   2.0000      -0.445092       -12.1116
  57   2.0000      -0.441692       -12.0191
  58   2.0000      -0.435753       -11.8574
  59   2.0000      -0.421012       -11.4563
  60   2.0000      -0.416221       -11.3260
  61   2.0000      -0.406368       -11.0578
  62   2.0000      -0.404391       -11.0040
  63   2.0000      -0.357750        -9.7349
  64   2.0000      -0.332220        -9.0402
  65   2.0000      -0.328585        -8.9412
  66   2.0000      -0.291612        -7.9352
  67   0.0000       0.027696         0.7536
  68   0.0000       0.075086         2.0432
  69   0.0000       0.109552         2.9811
  70   0.0000       0.116861         3.1800
  71   0.0000       0.126895         3.4530

MULLIKEN ATOMIC CHARGES
-----------------------
   0 S :    0.104846
   1 C :   -0.089633
   2 C :   -0.147161
   3 C :    0.018397
   4 C :   -0.109229
   5 H :    0.002561
   6 C :    0.057759
   7 H :    0.038045
   8 H :    0.021990
   9 C :   -0.104288
  10 H :    0.036596
  11 H :    0.027115
  12 C :   -0.027875
  13 H :    0.031425
  14 H :    0.049780
  15 H :    0.020993
  16 S :    0.100129
  17 C :   -0.097149
  18 C :    0.006245
  19 C :   -0.036170
  20 C :   -0.124025
  21 H :    0.000105
  22 C :   -0.010590
  23 H :    0.024757
  24 H :    0.044163
  25 C :   -0.052259
  26 H :    0.000948
  27 H :    0.044792
  28 C :   -0.066661
  29 H :    0.039376
  30 H :    0.041083
  31 H :    0.047699
  32 H :    0.051831
  33 H :    0.054403
Sum of atomic charges:   -0.0000000

LOEWDIN ATOMIC CHARGES
----------------------
   0 S :    0.397780
   1 C :   -0.207411
   2 C :   -0.053695
   3 C :   -0.065128
   4 C :   -0.184544
   5 H :    0.029067
   6 C :   -0.038999
   7 H :    0.033826
   8 H :    0.029434
   9 C :   -0.050537
  10 H :    0.030478
  11 H :    0.022427
  12 C :   -0.063683
  13 H :    0.026284
  14 H :    0.028130
  15 H :    0.024237
  16 S :    0.421754
  17 C :   -0.176520
  18 C :   -0.064871
  19 C :   -0.052853
  20 C :   -0.212992
  21 H :    0.028368
  22 C :   -0.035095
  23 H :    0.028155
  24 H :    0.030027
  25 C :   -0.043268
  26 H :    0.009501
  27 H :    0.030369
  28 C :   -0.068719
  29 H :    0.024341
  30 H :    0.032309
  31 H :    0.033277
  32 H :    0.032092
  33 H :    0.026458

  Mayer bond orders larger than 0.100000
B(  0-S ,  1-C ) :   1.1032 B(  0-S ,  4-C ) :   1.1484 B(  1-C ,  2-C ) :   1.6355
B(  1-C , 32-H ) :   0.9652 B(  2-C ,  3-C ) :   1.1765 B(  2-C ,  6-C ) :   1.0354
B(  3-C ,  4-C ) :   1.6110 B(  3-C ,  5-H ) :   0.9979 B(  4-C , 20-C ) :   1.0233
B(  6-C ,  7-H ) :   0.9375 B(  6-C ,  8-H ) :   0.9466 B(  6-C ,  9-C ) :   1.0492
B(  9-C , 10-H ) :   0.9572 B(  9-C , 11-H ) :   0.9545 B(  9-C , 12-C ) :   1.0816
B( 12-C , 13-H ) :   0.9689 B( 12-C , 14-H ) :   0.9708 B( 12-C , 15-H ) :   0.9724
B( 16-S , 17-C ) :   1.1659 B( 16-S , 20-C ) :   1.1509 B( 17-C , 18-C ) :   1.6044
B( 17-C , 33-H ) :   0.9676 B( 18-C , 19-C ) :   1.2345 B( 18-C , 21-H ) :   1.0083
B( 19-C , 20-C ) :   1.5872 B( 19-C , 22-C ) :   1.0213 B( 22-C , 23-H ) :   0.9474
B( 22-C , 24-H ) :   0.9502 B( 22-C , 25-C ) :   1.0389 B( 25-C , 26-H ) :   0.9592
B( 25-C , 27-H ) :   0.9582 B( 25-C , 28-C ) :   1.0665 B( 28-C , 29-H ) :   0.9787
B( 28-C , 30-H ) :   0.9795 B( 28-C , 31-H ) :   0.9759

Dispersion correction           -0.014691470
FINAL SINGLE POINT ENERGY     -1339.864812780458

DIPOLE MOMENT
-------------
                                X             Y             Z
Electronic contribution:     24.59592      -7.79429     -11.62063
Nuclear contribution   :    -24.98932       8.03431      12.17581
                        -----------------------------------------
Total Dipole Moment    :     -0.39341       0.24001       0.55518
                        -----------------------------------------
Magnitude (a.u.)       :      0.72152
Magnitude (Debye)      :      1.83397

Rotational constants in cm-1:     0.016579     0.009988     0.007105
Rotational constants in MHz :   497.022941   299.426641   212.995772

                             ****ORCA TERMINATED NORMALLY****
TOTAL RUN TIME: 0 days 0 hours 0 minutes 32 seconds 675 msec
