                         Program Version 4.2.1 -  RELEASE  -
|  1> ! wB97X-D3 SP def2-SVP
|  2> %pal
|  3> nprocs 16
|  4> end
|  5>
|  6> * xyz 0 1
|  7> S 	 -52.9756 	 11.2597 	 90.3384
|  8> C 	 -52.758 	 12.9606 	 90.6538
|  9> C 	 -51.7253 	 13.5804 	 89.9074
| 10> C 	 -51.2914 	 12.6679 	 88.8696
| 11> C 	 -51.9279 	 11.4022 	 88.9429
| 12> H 	 -50.6061 	 12.8167 	 88.0501
| 13> C 	 -51.2225 	 15.0493 	 89.9626
| 14> H 	 -52.0034 	 15.7991 	 89.5998
| 15> H 	 -50.5484 	 15.2297 	 89.0871
| 16> C 	 -50.5487 	 15.5014 	 91.2224
| 17> H 	 -49.8061 	 16.2077 	 90.8674
| 18> H 	 -51.1684 	 16.1439 	 91.8123
| 19> C 	 -49.9205 	 14.3551 	 92.0195
| 20> H 	 -50.6966 	 13.6824 	 92.368
| 21> H 	 -49.1784 	 13.7796 	 91.5746
| 22> H 	 -49.3892 	 14.8475 	 92.8774
| 23> S 	 -51.1618 	 8.74307 	 88.9243
| 24> C 	 -50.976 	 7.92889 	 87.3656
| 25> C 	 -51.0925 	 8.80674 	 86.307
| 26> C 	 -51.5215 	 10.0837 	 86.7558
| 27> C 	 -51.7116 	 10.1797 	 88.1274
| 28> H 	 -50.8075 	 8.47448 	 85.276
| 29> C 	 -51.4141 	 11.3047 	 85.8566
| 30> H 	 -51.1671 	 11.0276 	 84.8727
| 31> H 	 -50.4979 	 11.8367 	 86.1495
| 32> C 	 -52.6396 	 12.1543 	 85.8796
| 33> H 	 -52.5173 	 12.9138 	 85.111
| 34> H 	 -52.8381 	 12.6645 	 86.7787
| 35> C 	 -53.9163 	 11.378 	 85.5789
| 36> H 	 -54.2823 	 10.8344 	 86.4345
| 37> H 	 -53.8522 	 10.5817 	 84.8583
| 38> H 	 -54.5096 	 12.1944 	 85.1422
| 39> H 	 -53.2725 	 13.5629 	 91.3643
| 40> H 	 -50.5846 	 6.88226 	 87.2316
| 41> *
| 42>
| 43>                          ****END OF INPUT****

CARTESIAN COORDINATES (ANGSTROEM)
---------------------------------
  S    -52.975600   11.259700   90.338400
  C    -52.758000   12.960600   90.653800
  C    -51.725300   13.580400   89.907400
  C    -51.291400   12.667900   88.869600
  C    -51.927900   11.402200   88.942900
  H    -50.606100   12.816700   88.050100
  C    -51.222500   15.049300   89.962600
  H    -52.003400   15.799100   89.599800
  H    -50.548400   15.229700   89.087100
  C    -50.548700   15.501400   91.222400
  H    -49.806100   16.207700   90.867400
  H    -51.168400   16.143900   91.812300
  C    -49.920500   14.355100   92.019500
  H    -50.696600   13.682400   92.368000
  H    -49.178400   13.779600   91.574600
  H    -49.389200   14.847500   92.877400
  S    -51.161800    8.743070   88.924300
  C    -50.976000    7.928890   87.365600
  C    -51.092500    8.806740   86.307000
  C    -51.521500   10.083700   86.755800
  C    -51.711600   10.179700   88.127400
  H    -50.807500    8.474480   85.276000
  C    -51.414100   11.304700   85.856600
  H    -51.167100   11.027600   84.872700
  H    -50.497900   11.836700   86.149500
  C    -52.639600   12.154300   85.879600
  H    -52.517300   12.913800   85.111000
  H    -52.838100   12.664500   86.778700
  C    -53.916300   11.378000   85.578900
  H    -54.282300   10.834400   86.434500
  H    -53.852200   10.581700   84.858300
  H    -54.509600   12.194400   85.142200
  H    -53.272500   13.562900   91.364300
  H    -50.584600    6.882260   87.231600

 Total Charge           Charge          ....    0
 Multiplicity           Mult            ....    1
 Number of Electrons    NEL             ....  134
 Basis Dimension        Dim             ....  322

ORBITAL ENERGIES
----------------

  NO   OCC          E(Eh)            E(eV)
   0   2.0000     -88.972996     -2421.0783
   1   2.0000     -88.967835     -2420.9379
   2   2.0000     -10.332846      -281.1710
   3   2.0000     -10.324409      -280.9415
   4   2.0000     -10.320991      -280.8484
   5   2.0000     -10.315881      -280.7094
   6   2.0000     -10.311916      -280.6015
   7   2.0000     -10.301060      -280.3061
   8   2.0000     -10.300779      -280.2985
   9   2.0000     -10.298703      -280.2420
  10   2.0000     -10.297807      -280.2176
  11   2.0000     -10.282752      -279.8079
  12   2.0000     -10.282098      -279.7901
  13   2.0000     -10.271137      -279.4919
  14   2.0000     -10.269413      -279.4449
  15   2.0000     -10.264043      -279.2988
  16   2.0000      -8.087346      -220.0679
  17   2.0000      -8.082443      -219.9344
  18   2.0000      -6.045729      -164.5126
  19   2.0000      -6.041913      -164.4088
  20   2.0000      -6.040926      -164.3819
  21   2.0000      -6.038265      -164.3096
  22   2.0000      -6.037114      -164.2782
  23   2.0000      -6.033084      -164.1686
  24   2.0000      -1.005585       -27.3634
  25   2.0000      -0.981019       -26.6949
  26   2.0000      -0.913978       -24.8706
  27   2.0000      -0.912779       -24.8380
  28   2.0000      -0.864429       -23.5223
  29   2.0000      -0.847890       -23.0723
  30   2.0000      -0.844047       -22.9677
  31   2.0000      -0.807512       -21.9735
  32   2.0000      -0.787153       -21.4195
  33   2.0000      -0.775438       -21.1007
  34   2.0000      -0.704830       -19.1794
  35   2.0000      -0.704133       -19.1604
  36   2.0000      -0.683439       -18.5973
  37   2.0000      -0.660926       -17.9847
  38   2.0000      -0.638404       -17.3718
  39   2.0000      -0.608190       -16.5497
  40   2.0000      -0.591440       -16.0939
  41   2.0000      -0.573532       -15.6066
  42   2.0000      -0.553603       -15.0643
  43   2.0000      -0.552191       -15.0259
  44   2.0000      -0.550416       -14.9776
  45   2.0000      -0.544899       -14.8275
  46   2.0000      -0.507422       -13.8077
  47   2.0000      -0.503028       -13.6881
  48   2.0000      -0.498889       -13.5755
  49   2.0000      -0.489957       -13.3324
  50   2.0000      -0.488128       -13.2826
  51   2.0000      -0.485804       -13.2194
  52   2.0000      -0.476539       -12.9673
  53   2.0000      -0.465626       -12.6703
  54   2.0000      -0.461212       -12.5502
  55   2.0000      -0.448617       -12.2075
  56   2.0000      -0.437990       -11.9183
  57   2.0000      -0.433522       -11.7967
  58   2.0000      -0.429731       -11.6936
  59   2.0000      -0.423567       -11.5258
  60   2.0000      -0.414524       -11.2798
  61   2.0000      -0.411827       -11.2064
  62   2.0000      -0.402549       -10.9539
  63   2.0000      -0.346621        -9.4320
  64   2.0000      -0.334280        -9.0962
  65   2.0000      -0.327038        -8.8992
  66   2.0000      -0.287092        -7.8122
  67   0.0000       0.026630         0.7246
  68   0.0000       0.061674         1.6782
  69   0.0000       0.100658         2.7390
  70   0.0000       0.113625         3.0919
  71   0.0000       0.123967         3.3733

MULLIKEN ATOMIC CHARGES
-----------------------
   0 S :    0.128709
   1 C :   -0.081344
   2 C :   -0.115609
   3 C :    0.042875
   4 C :   -0.194181
   5 H :    0.006551
   6 C :    0.035599
   7 H :    0.044712
   8 H :    0.018233
   9 C :   -0.059166
  10 H :    0.019756
  11 H :    0.020629
  12 C :   -0.011905
  13 H :    0.037091
  14 H :    0.019444
  15 H :    0.031911
  16 S :    0.110893
  17 C :   -0.121056
  18 C :   -0.048767
  19 C :   -0.072364
  20 C :   -0.116800
  21 H :    0.040551
  22 C :    0.090182
  23 H :   -0.008374
  24 H :    0.031108
  25 C :   -0.055507
  26 H :    0.014049
  27 H :    0.041915
  28 C :   -0.042672
  29 H :    0.039822
  30 H :    0.010972
  31 H :    0.036315
  32 H :    0.032440
  33 H :    0.073987
Sum of atomic charges:   -0.0000000

LOEWDIN ATOMIC CHARGES
----------------------
   0 S :    0.420882
   1 C :   -0.198060
   2 C :   -0.056303
   3 C :   -0.055091
   4 C :   -0.195699
   5 H :    0.028165
   6 C :   -0.046271
   7 H :    0.042171
   8 H :    0.033418
   9 C :   -0.047710
  10 H :    0.028138
  11 H :    0.020789
  12 C :   -0.059909
  13 H :    0.026911
  14 H :    0.017422
  15 H :    0.032536
  16 S :    0.409285
  17 C :   -0.191775
  18 C :   -0.076151
  19 C :   -0.060129
  20 C :   -0.214078
  21 H :    0.042966
  22 C :   -0.028597
  23 H :    0.021117
  24 H :    0.029918
  25 C :   -0.040512
  26 H :    0.020840
  27 H :    0.021312
  28 C :   -0.063103
  29 H :    0.026621
  30 H :    0.017290
  31 H :    0.033259
  32 H :    0.020465
  33 H :    0.039880

  Mayer bond orders larger than 0.100000
B(  0-S ,  1-C ) :   1.1530 B(  0-S ,  4-C ) :   1.1591 B(  1-C ,  2-C ) :   1.5970
B(  1-C ,  4-C ) :   0.1038 B(  1-C , 32-H ) :   0.9664 B(  2-C ,  3-C ) :   1.2462
B(  2-C ,  6-C ) :   1.0170 B(  3-C ,  4-C ) :   1.5578 B(  3-C ,  5-H ) :   0.9883
B(  4-C , 20-C ) :   1.0186 B(  6-C ,  7-H ) :   0.9396 B(  6-C ,  8-H ) :   0.9445
B(  6-C ,  9-C ) :   1.0587 B(  9-C , 10-H ) :   0.9539 B(  9-C , 11-H ) :   0.9527
B(  9-C , 12-C ) :   1.1027 B( 12-C , 13-H ) :   0.9612 B( 12-C , 14-H ) :   0.9741
B( 12-C , 15-H ) :   0.9706 B( 16-S , 17-C ) :   1.1565 B( 16-S , 20-C ) :   1.1503
B( 17-C , 18-C ) :   1.6053 B( 17-C , 33-H ) :   0.9590 B( 18-C , 19-C ) :   1.2563
B( 18-C , 21-H ) :   0.9840 B( 19-C , 20-C ) :   1.5860 B( 19-C , 22-C ) :   1.0379
B( 22-C , 23-H ) :   0.9263 B( 22-C , 24-H ) :   0.9333 B( 22-C , 25-C ) :   1.0767
B( 25-C , 26-H ) :   0.9593 B( 25-C , 27-H ) :   0.9475 B( 25-C , 28-C ) :   1.0733
B( 28-C , 29-H ) :   0.9688 B( 28-C , 30-H ) :   0.9784 B( 28-C , 31-H ) :   0.9763

Dispersion correction           -0.015777696
FINAL SINGLE POINT ENERGY     -1339.853255786610

DIPOLE MOMENT
-------------
                                X             Y             Z
Electronic contribution:     -2.77838     -20.45552       6.42055
Nuclear contribution   :      3.19658      20.98327      -6.77405
                        -----------------------------------------
Total Dipole Moment    :      0.41821       0.52775      -0.35350
                        -----------------------------------------
Magnitude (a.u.)       :      0.76051
Magnitude (Debye)      :      1.93307

Rotational constants in cm-1:     0.021944     0.008805     0.007591
Rotational constants in MHz :   657.860022   263.963015   227.573099

                             ****ORCA TERMINATED NORMALLY****
TOTAL RUN TIME: 0 days 0 hours 0 minutes 34 seconds 159 msec
