                         Program Version 4.2.1 -  RELEASE  -
|  1> ! wB97X-D3 SP def2-SVP
|  2> %pal
|  3> nprocs 16
|  4> end
|  5>
|  6> * xyz 0 1
|  7> S 	 -15.4719 	 57.6383 	 59.8473
|  8> C 	 -14.8891 	 56.8262 	 58.3945
|  9> C 	 -14.0809 	 55.7173 	 58.8058
| 10> C 	 -14.0908 	 55.5958 	 60.2404
| 11> C 	 -14.7528 	 56.5113 	 60.9022
| 12> H 	 -13.3638 	 54.9903 	 60.7726
| 13> C 	 -13.3191 	 54.853 	 57.8656
| 14> H 	 -12.2361 	 54.9484 	 57.9328
| 15> H 	 -13.5034 	 55.3347 	 56.9125
| 16> C 	 -13.62 	 53.3062 	 57.827
| 17> H 	 -13.6776 	 52.9313 	 58.859
| 18> H 	 -14.6819 	 53.4561 	 57.4128
| 19> C 	 -12.8786 	 52.4619 	 56.8266
| 20> H 	 -13.3974 	 51.562 	 56.4773
| 21> H 	 -12.7477 	 53.069 	 56.007
| 22> H 	 -11.828 	 52.2809 	 57.1836
| 23> S 	 -14.4756 	 58.314 	 63.0591
| 24> C 	 -14.7267 	 57.7407 	 64.6544
| 25> C 	 -14.8821 	 56.36 	 64.6425
| 26> C 	 -14.7801 	 55.7929 	 63.355
| 27> C 	 -14.7725 	 56.6795 	 62.3326
| 28> H 	 -15.2095 	 55.916 	 65.587
| 29> C 	 -15.1491 	 54.3491 	 63.2157
| 30> H 	 -14.4389 	 53.8522 	 63.8434
| 31> H 	 -15.0192 	 54.0655 	 62.1629
| 32> C 	 -16.5497 	 53.9089 	 63.7182
| 33> H 	 -16.6677 	 53.9238 	 64.7897
| 34> H 	 -16.7069 	 52.8318 	 63.4762
| 35> C 	 -17.5868 	 54.7692 	 63.0192
| 36> H 	 -17.5492 	 54.5377 	 61.9499
| 37> H 	 -17.5503 	 55.881 	 63.1773
| 38> H 	 -18.5418 	 54.454 	 63.4077
| 39> H 	 -15.1902 	 57.0116 	 57.3597
| 40> H 	 -14.5951 	 58.2596 	 65.5925
| 41> *
| 42>
| 43>                          ****END OF INPUT****

CARTESIAN COORDINATES (ANGSTROEM)
---------------------------------
  S    -15.471900   57.638300   59.847300
  C    -14.889100   56.826200   58.394500
  C    -14.080900   55.717300   58.805800
  C    -14.090800   55.595800   60.240400
  C    -14.752800   56.511300   60.902200
  H    -13.363800   54.990300   60.772600
  C    -13.319100   54.853000   57.865600
  H    -12.236100   54.948400   57.932800
  H    -13.503400   55.334700   56.912500
  C    -13.620000   53.306200   57.827000
  H    -13.677600   52.931300   58.859000
  H    -14.681900   53.456100   57.412800
  C    -12.878600   52.461900   56.826600
  H    -13.397400   51.562000   56.477300
  H    -12.747700   53.069000   56.007000
  H    -11.828000   52.280900   57.183600
  S    -14.475600   58.314000   63.059100
  C    -14.726700   57.740700   64.654400
  C    -14.882100   56.360000   64.642500
  C    -14.780100   55.792900   63.355000
  C    -14.772500   56.679500   62.332600
  H    -15.209500   55.916000   65.587000
  C    -15.149100   54.349100   63.215700
  H    -14.438900   53.852200   63.843400
  H    -15.019200   54.065500   62.162900
  C    -16.549700   53.908900   63.718200
  H    -16.667700   53.923800   64.789700
  H    -16.706900   52.831800   63.476200
  C    -17.586800   54.769200   63.019200
  H    -17.549200   54.537700   61.949900
  H    -17.550300   55.881000   63.177300
  H    -18.541800   54.454000   63.407700
  H    -15.190200   57.011600   57.359700
  H    -14.595100   58.259600   65.592500

 Total Charge           Charge          ....    0
 Multiplicity           Mult            ....    1
 Number of Electrons    NEL             ....  134
 Basis Dimension        Dim             ....  322

ORBITAL ENERGIES
----------------

  NO   OCC          E(Eh)            E(eV)
   0   2.0000     -88.967523     -2420.9294
   1   2.0000     -88.963511     -2420.8202
   2   2.0000     -10.328085      -281.0415
   3   2.0000     -10.323918      -280.9281
   4   2.0000     -10.322525      -280.8902
   5   2.0000     -10.316005      -280.7128
   6   2.0000     -10.308978      -280.5215
   7   2.0000     -10.296459      -280.1809
   8   2.0000     -10.294396      -280.1248
   9   2.0000     -10.292867      -280.0831
  10   2.0000     -10.290726      -280.0249
  11   2.0000     -10.286543      -279.9111
  12   2.0000     -10.286234      -279.9027
  13   2.0000     -10.283810      -279.8367
  14   2.0000     -10.279012      -279.7061
  15   2.0000     -10.270741      -279.4811
  16   2.0000      -8.082853      -219.9456
  17   2.0000      -8.078082      -219.8158
  18   2.0000      -6.041433      -164.3957
  19   2.0000      -6.037162      -164.2795
  20   2.0000      -6.036652      -164.2656
  21   2.0000      -6.033589      -164.1823
  22   2.0000      -6.032560      -164.1543
  23   2.0000      -6.028830      -164.0528
  24   2.0000      -1.016551       -27.6617
  25   2.0000      -0.990179       -26.9441
  26   2.0000      -0.914017       -24.8717
  27   2.0000      -0.910679       -24.7808
  28   2.0000      -0.875481       -23.8230
  29   2.0000      -0.855566       -23.2811
  30   2.0000      -0.844422       -22.9779
  31   2.0000      -0.820899       -22.3378
  32   2.0000      -0.783167       -21.3110
  33   2.0000      -0.773441       -21.0464
  34   2.0000      -0.710811       -19.3421
  35   2.0000      -0.696488       -18.9524
  36   2.0000      -0.695571       -18.9275
  37   2.0000      -0.657280       -17.8855
  38   2.0000      -0.647154       -17.6100
  39   2.0000      -0.623803       -16.9745
  40   2.0000      -0.591496       -16.0954
  41   2.0000      -0.572375       -15.5751
  42   2.0000      -0.562201       -15.2983
  43   2.0000      -0.556885       -15.1536
  44   2.0000      -0.539835       -14.6897
  45   2.0000      -0.529943       -14.4205
  46   2.0000      -0.525203       -14.2915
  47   2.0000      -0.516116       -14.0442
  48   2.0000      -0.507639       -13.8136
  49   2.0000      -0.504672       -13.7328
  50   2.0000      -0.495285       -13.4774
  51   2.0000      -0.477553       -12.9949
  52   2.0000      -0.471012       -12.8169
  53   2.0000      -0.464376       -12.6363
  54   2.0000      -0.458365       -12.4727
  55   2.0000      -0.452941       -12.3251
  56   2.0000      -0.446518       -12.1504
  57   2.0000      -0.431036       -11.7291
  58   2.0000      -0.429211       -11.6794
  59   2.0000      -0.422193       -11.4885
  60   2.0000      -0.416969       -11.3463
  61   2.0000      -0.409424       -11.1410
  62   2.0000      -0.401220       -10.9177
  63   2.0000      -0.358647        -9.7593
  64   2.0000      -0.330841        -9.0026
  65   2.0000      -0.327539        -8.9128
  66   2.0000      -0.291674        -7.9368
  67   0.0000       0.027415         0.7460
  68   0.0000       0.070604         1.9212
  69   0.0000       0.113486         3.0881
  70   0.0000       0.117932         3.2091
  71   0.0000       0.123085         3.3493

MULLIKEN ATOMIC CHARGES
-----------------------
   0 S :    0.111050
   1 C :   -0.121590
   2 C :   -0.110522
   3 C :    0.005351
   4 C :   -0.122343
   5 H :    0.025775
   6 C :    0.060122
   7 H :    0.028450
   8 H :    0.001847
   9 C :   -0.129741
  10 H :    0.043499
  11 H :    0.034381
  12 C :    0.008971
  13 H :    0.049489
  14 H :    0.000682
  15 H :    0.034155
  16 S :    0.094741
  17 C :   -0.080349
  18 C :   -0.072396
  19 C :   -0.036121
  20 C :   -0.125431
  21 H :    0.028359
  22 C :    0.071171
  23 H :    0.018627
  24 H :    0.018987
  25 C :   -0.072437
  26 H :    0.020491
  27 H :    0.034816
  28 C :   -0.054391
  29 H :    0.035829
  30 H :    0.058326
  31 H :    0.018804
  32 H :    0.061672
  33 H :    0.059727
Sum of atomic charges:   -0.0000000

LOEWDIN ATOMIC CHARGES
----------------------
   0 S :    0.423230
   1 C :   -0.199426
   2 C :   -0.053106
   3 C :   -0.074883
   4 C :   -0.204162
   5 H :    0.034993
   6 C :   -0.042635
   7 H :    0.027219
   8 H :    0.026655
   9 C :   -0.048386
  10 H :    0.022034
  11 H :    0.034333
  12 C :   -0.063744
  13 H :    0.034879
  14 H :    0.015814
  15 H :    0.031863
  16 S :    0.388710
  17 C :   -0.190635
  18 C :   -0.077389
  19 C :   -0.064364
  20 C :   -0.172395
  21 H :    0.034688
  22 C :   -0.031212
  23 H :    0.027845
  24 H :    0.027703
  25 C :   -0.038765
  26 H :    0.016296
  27 H :    0.031982
  28 C :   -0.068174
  29 H :    0.028062
  30 H :    0.034753
  31 H :    0.019987
  32 H :    0.034157
  33 H :    0.034073

  Mayer bond orders larger than 0.100000
B(  0-S ,  1-C ) :   1.1360 B(  0-S ,  4-C ) :   1.1466 B(  1-C ,  2-C ) :   1.5913
B(  1-C , 32-H ) :   0.9656 B(  2-C ,  3-C ) :   1.2395 B(  2-C ,  6-C ) :   1.0481
B(  3-C ,  4-C ) :   1.6092 B(  3-C ,  5-H ) :   0.9830 B(  4-C , 20-C ) :   1.0346
B(  6-C ,  7-H ) :   0.9323 B(  6-C ,  8-H ) :   0.9345 B(  6-C ,  9-C ) :   1.0306
B(  9-C , 10-H ) :   0.9636 B(  9-C , 11-H ) :   0.9574 B(  9-C , 12-C ) :   1.0809
B( 12-C , 13-H ) :   0.9732 B( 12-C , 14-H ) :   0.9660 B( 12-C , 15-H ) :   0.9697
B( 16-S , 17-C ) :   1.1609 B( 16-S , 20-C ) :   1.1115 B( 17-C , 18-C ) :   1.6177
B( 17-C , 20-C ) :   0.1012 B( 17-C , 33-H ) :   0.9649 B( 18-C , 19-C ) :   1.2155
B( 18-C , 21-H ) :   0.9910 B( 19-C , 20-C ) :   1.6101 B( 19-C , 22-C ) :   1.0617
B( 22-C , 23-H ) :   0.9179 B( 22-C , 24-H ) :   0.9387 B( 22-C , 25-C ) :   1.0800
B( 25-C , 26-H ) :   0.9515 B( 25-C , 27-H ) :   0.9520 B( 25-C , 28-C ) :   1.0779
B( 28-C , 29-H ) :   0.9762 B( 28-C , 30-H ) :   0.9715 B( 28-C , 31-H ) :   0.9724

Dispersion correction           -0.014734641
FINAL SINGLE POINT ENERGY     -1339.858350495237

DIPOLE MOMENT
-------------
                                X             Y             Z
Electronic contribution:      0.68626      25.62846       7.84565
Nuclear contribution   :     -0.58596     -26.23821      -7.86768
                        -----------------------------------------
Total Dipole Moment    :      0.10029      -0.60976      -0.02204
                        -----------------------------------------
Magnitude (a.u.)       :      0.61834
Magnitude (Debye)      :      1.57170

Rotational constants in cm-1:     0.020663     0.008264     0.006890
Rotational constants in MHz :   619.466994   247.751882   206.556346

                             ****ORCA TERMINATED NORMALLY****
TOTAL RUN TIME: 0 days 0 hours 0 minutes 34 seconds 612 msec
