                         Program Version 4.2.1 -  RELEASE  -
|  1> ! wB97X-D3 SP def2-SVP
|  2> %pal
|  3> nprocs 16
|  4> end
|  5>
|  6> * xyz 0 1
|  7> S 	 -83.6959 	 51.2459 	 136.572
|  8> C 	 -84.8243 	 51.614 	 137.855
|  9> C 	 -84.4213 	 52.6446 	 138.654
| 10> C 	 -83.2065 	 53.2065 	 138.257
| 11> C 	 -82.7049 	 52.5202 	 137.147
| 12> H 	 -82.6194 	 54.016 	 138.69
| 13> C 	 -85.0891 	 53.0716 	 139.945
| 14> H 	 -86.0861 	 52.8315 	 139.719
| 15> H 	 -84.9001 	 54.1691 	 139.95
| 16> C 	 -84.4724 	 52.3089 	 141.138
| 17> H 	 -84.248 	 51.2884 	 140.77
| 18> H 	 -83.5197 	 52.7649 	 141.333
| 19> C 	 -85.4259 	 52.3314 	 142.401
| 20> H 	 -84.7824 	 51.936 	 143.145
| 21> H 	 -85.518 	 53.3506 	 142.657
| 22> H 	 -86.3708 	 51.7057 	 142.46
| 23> S 	 -81.4349 	 53.3914 	 134.825
| 24> C 	 -79.7671 	 53.1756 	 134.703
| 25> C 	 -79.1661 	 52.7056 	 135.848
| 26> C 	 -80.1482 	 52.6179 	 136.904
| 27> C 	 -81.4344 	 52.8047 	 136.51
| 28> H 	 -78.0938 	 52.5276 	 135.772
| 29> C 	 -79.7208 	 51.9577 	 138.218
| 30> H 	 -79.6829 	 50.9071 	 137.931
| 31> H 	 -80.3798 	 52.0852 	 139.036
| 32> C 	 -78.3661 	 52.5327 	 138.787
| 33> H 	 -77.4625 	 52.1608 	 138.15
| 34> H 	 -77.9729 	 51.9729 	 139.727
| 35> C 	 -78.3737 	 54.125 	 139.017
| 36> H 	 -77.4388 	 54.4101 	 139.374
| 37> H 	 -79.0728 	 54.3896 	 139.867
| 38> H 	 -78.7788 	 54.6764 	 138.16
| 39> H 	 -85.7488 	 51.0322 	 138.049
| 40> H 	 -79.2798 	 53.4079 	 133.857
| 41> *
| 42>
| 43>                          ****END OF INPUT****

CARTESIAN COORDINATES (ANGSTROEM)
---------------------------------
  S    -83.695900   51.245900  136.572000
  C    -84.824300   51.614000  137.855000
  C    -84.421300   52.644600  138.654000
  C    -83.206500   53.206500  138.257000
  C    -82.704900   52.520200  137.147000
  H    -82.619400   54.016000  138.690000
  C    -85.089100   53.071600  139.945000
  H    -86.086100   52.831500  139.719000
  H    -84.900100   54.169100  139.950000
  C    -84.472400   52.308900  141.138000
  H    -84.248000   51.288400  140.770000
  H    -83.519700   52.764900  141.333000
  C    -85.425900   52.331400  142.401000
  H    -84.782400   51.936000  143.145000
  H    -85.518000   53.350600  142.657000
  H    -86.370800   51.705700  142.460000
  S    -81.434900   53.391400  134.825000
  C    -79.767100   53.175600  134.703000
  C    -79.166100   52.705600  135.848000
  C    -80.148200   52.617900  136.904000
  C    -81.434400   52.804700  136.510000
  H    -78.093800   52.527600  135.772000
  C    -79.720800   51.957700  138.218000
  H    -79.682900   50.907100  137.931000
  H    -80.379800   52.085200  139.036000
  C    -78.366100   52.532700  138.787000
  H    -77.462500   52.160800  138.150000
  H    -77.972900   51.972900  139.727000
  C    -78.373700   54.125000  139.017000
  H    -77.438800   54.410100  139.374000
  H    -79.072800   54.389600  139.867000
  H    -78.778800   54.676400  138.160000
  H    -85.748800   51.032200  138.049000
  H    -79.279800   53.407900  133.857000

 Total Charge           Charge          ....    0
 Multiplicity           Mult            ....    1
 Number of Electrons    NEL             ....  134
 Basis Dimension        Dim             ....  322

ORBITAL ENERGIES
----------------

  NO   OCC          E(Eh)            E(eV)
   0   2.0000     -88.969386     -2420.9801
   1   2.0000     -88.957396     -2420.6538
   2   2.0000     -10.322974      -280.9024
   3   2.0000     -10.318867      -280.7906
   4   2.0000     -10.309205      -280.5277
   5   2.0000     -10.306423      -280.4520
   6   2.0000     -10.303440      -280.3709
   7   2.0000     -10.302957      -280.3577
   8   2.0000     -10.292544      -280.0744
   9   2.0000     -10.291231      -280.0386
  10   2.0000     -10.291226      -280.0385
  11   2.0000     -10.290173      -280.0098
  12   2.0000     -10.289703      -279.9971
  13   2.0000     -10.285872      -279.8928
  14   2.0000     -10.283422      -279.8261
  15   2.0000     -10.280084      -279.7353
  16   2.0000      -8.084586      -219.9928
  17   2.0000      -8.073516      -219.6915
  18   2.0000      -6.042852      -164.4344
  19   2.0000      -6.039142      -164.3334
  20   2.0000      -6.035470      -164.2335
  21   2.0000      -6.031812      -164.1340
  22   2.0000      -6.027885      -164.0271
  23   2.0000      -6.024367      -163.9314
  24   2.0000      -1.011076       -27.5128
  25   2.0000      -0.989460       -26.9246
  26   2.0000      -0.912573       -24.8324
  27   2.0000      -0.897718       -24.4281
  28   2.0000      -0.867117       -23.5954
  29   2.0000      -0.851884       -23.1809
  30   2.0000      -0.837520       -22.7901
  31   2.0000      -0.812664       -22.1137
  32   2.0000      -0.784734       -21.3537
  33   2.0000      -0.773961       -21.0606
  34   2.0000      -0.708297       -19.2737
  35   2.0000      -0.699778       -19.0419
  36   2.0000      -0.695097       -18.9145
  37   2.0000      -0.655966       -17.8497
  38   2.0000      -0.640330       -17.4243
  39   2.0000      -0.616557       -16.7774
  40   2.0000      -0.596173       -16.2227
  41   2.0000      -0.571669       -15.5559
  42   2.0000      -0.559621       -15.2281
  43   2.0000      -0.555294       -15.1103
  44   2.0000      -0.527487       -14.3536
  45   2.0000      -0.521926       -14.2023
  46   2.0000      -0.517840       -14.0911
  47   2.0000      -0.508202       -13.8289
  48   2.0000      -0.496986       -13.5237
  49   2.0000      -0.493152       -13.4194
  50   2.0000      -0.488840       -13.3020
  51   2.0000      -0.480650       -13.0791
  52   2.0000      -0.472667       -12.8619
  53   2.0000      -0.467959       -12.7338
  54   2.0000      -0.457580       -12.4514
  55   2.0000      -0.449335       -12.2270
  56   2.0000      -0.448609       -12.2073
  57   2.0000      -0.440309       -11.9814
  58   2.0000      -0.435596       -11.8532
  59   2.0000      -0.431368       -11.7381
  60   2.0000      -0.417841       -11.3700
  61   2.0000      -0.409860       -11.1528
  62   2.0000      -0.398603       -10.8465
  63   2.0000      -0.337003        -9.1703
  64   2.0000      -0.333400        -9.0723
  65   2.0000      -0.324967        -8.8428
  66   2.0000      -0.298049        -8.1103
  67   0.0000       0.041910         1.1404
  68   0.0000       0.066848         1.8190
  69   0.0000       0.117865         3.2073
  70   0.0000       0.122481         3.3329
  71   0.0000       0.132802         3.6137

MULLIKEN ATOMIC CHARGES
-----------------------
   0 S :    0.138989
   1 C :   -0.146315
   2 C :   -0.112050
   3 C :    0.033458
   4 C :   -0.179115
   5 H :    0.016349
   6 C :    0.106768
   7 H :    0.007644
   8 H :    0.034553
   9 C :   -0.084876
  10 H :    0.038130
  11 H :    0.022992
  12 C :   -0.017787
  13 H :    0.017983
  14 H :    0.023543
  15 H :    0.058439
  16 S :    0.102213
  17 C :   -0.045499
  18 C :   -0.045338
  19 C :   -0.025608
  20 C :   -0.183414
  21 H :    0.028673
  22 C :    0.101178
  23 H :    0.050074
  24 H :    0.016337
  25 C :   -0.162252
  26 H :    0.030866
  27 H :    0.036493
  28 C :   -0.036248
  29 H :    0.026790
  30 H :    0.028350
  31 H :    0.058770
  32 H :    0.051013
  33 H :    0.008899
Sum of atomic charges:    0.0000000

LOEWDIN ATOMIC CHARGES
----------------------
   0 S :    0.432306
   1 C :   -0.213985
   2 C :   -0.066797
   3 C :   -0.062247
   4 C :   -0.203718
   5 H :    0.035724
   6 C :   -0.028151
   7 H :    0.021029
   8 H :    0.034691
   9 C :   -0.031121
  10 H :    0.027464
  11 H :    0.023398
  12 C :   -0.067230
  13 H :    0.022731
  14 H :    0.021263
  15 H :    0.038403
  16 S :    0.406865
  17 C :   -0.174368
  18 C :   -0.076651
  19 C :   -0.053840
  20 C :   -0.201872
  21 H :    0.037362
  22 C :   -0.027363
  23 H :    0.040533
  24 H :    0.021152
  25 C :   -0.059261
  26 H :    0.023274
  27 H :    0.030798
  28 C :   -0.063526
  29 H :    0.017304
  30 H :    0.030393
  31 H :    0.031210
  32 H :    0.031830
  33 H :    0.002400

  Mayer bond orders larger than 0.100000
B(  0-S ,  1-C ) :   1.1312 B(  0-S ,  4-C ) :   1.1874 B(  1-C ,  2-C ) :   1.6192
B(  1-C , 32-H ) :   0.9606 B(  2-C ,  3-C ) :   1.2422 B(  2-C ,  6-C ) :   1.0084
B(  3-C ,  4-C ) :   1.5595 B(  3-C ,  5-H ) :   0.9982 B(  4-C , 20-C ) :   1.0209
B(  6-C ,  7-H ) :   0.9368 B(  6-C ,  8-H ) :   0.9374 B(  6-C ,  9-C ) :   1.0541
B(  9-C , 10-H ) :   0.9609 B(  9-C , 11-H ) :   0.9525 B(  9-C , 12-C ) :   1.0735
B( 12-C , 13-H ) :   0.9726 B( 12-C , 14-H ) :   0.9715 B( 12-C , 15-H ) :   0.9772
B( 16-S , 17-C ) :   1.1779 B( 16-S , 20-C ) :   1.1251 B( 17-C , 18-C ) :   1.6208
B( 17-C , 33-H ) :   0.9772 B( 18-C , 19-C ) :   1.1862 B( 18-C , 21-H ) :   0.9970
B( 19-C , 20-C ) :   1.6442 B( 19-C , 22-C ) :   1.0347 B( 22-C , 23-H ) :   0.9416
B( 22-C , 24-H ) :   0.9408 B( 22-C , 25-C ) :   1.0543 B( 25-C , 26-H ) :   0.9545
B( 25-C , 27-H ) :   0.9590 B( 25-C , 28-C ) :   1.0526 B( 28-C , 29-H ) :   0.9762
B( 28-C , 30-H ) :   0.9752 B( 28-C , 31-H ) :   0.9750

Dispersion correction           -0.014590680
FINAL SINGLE POINT ENERGY     -1339.850832430510

DIPOLE MOMENT
-------------
                                X             Y             Z
Electronic contribution:     -5.03254      -2.77515     -28.17234
Nuclear contribution   :      5.28001       2.71187      28.77284
                        -----------------------------------------
Total Dipole Moment    :      0.24747      -0.06328       0.60050
                        -----------------------------------------
Magnitude (a.u.)       :      0.65257
Magnitude (Debye)      :      1.65869

Rotational constants in cm-1:     0.019371     0.008582     0.006546
Rotational constants in MHz :   580.733876   257.288780   196.244906

                             ****ORCA TERMINATED NORMALLY****
TOTAL RUN TIME: 0 days 0 hours 0 minutes 35 seconds 903 msec
