                         Program Version 4.2.1 -  RELEASE  -
|  1> ! wB97X-D3 SP def2-SVP
|  2> %pal
|  3> nprocs 16
|  4> end
|  5>
|  6> * xyz 0 1
|  7> S 	 26.5132 	 6.67322 	 76.8956
|  8> C 	 27.7594 	 7.45645 	 77.8342
|  9> C 	 28.2748 	 6.6619 	 78.8371
| 10> C 	 27.6649 	 5.38371 	 78.8099
| 11> C 	 26.6474 	 5.21713 	 77.8494
| 12> H 	 28.0284 	 4.58789 	 79.4517
| 13> C 	 29.5255 	 7.01173 	 79.6863
| 14> H 	 29.1506 	 7.39995 	 80.5885
| 15> H 	 30.02 	 7.86587 	 79.1923
| 16> C 	 30.6351 	 5.9554 	 79.9387
| 17> H 	 31.4338 	 6.45762 	 80.3785
| 18> H 	 30.3089 	 5.15527 	 80.6481
| 19> C 	 30.9693 	 5.16835 	 78.7275
| 20> H 	 31.7065 	 4.39067 	 78.9433
| 21> H 	 30.1107 	 4.59482 	 78.4338
| 22> H 	 31.323 	 5.75681 	 77.9087
| 23> S 	 26.2851 	 3.17874 	 76.0206
| 24> C 	 25.8358 	 1.56795 	 76.4896
| 25> C 	 25.56 	 1.58841 	 77.8359
| 26> C 	 25.5101 	 2.94126 	 78.4018
| 27> C 	 26.0194 	 3.92667 	 77.5766
| 28> H 	 25.3939 	 0.708835 	 78.3403
| 29> C 	 25.2773 	 3.13939 	 79.8577
| 30> H 	 26.2478 	 3.51655 	 80.17
| 31> H 	 25.1268 	 2.13359 	 80.3022
| 32> C 	 24.1694 	 4.13328 	 80.3457
| 33> H 	 23.2416 	 4.0754 	 79.8387
| 34> H 	 24.6094 	 5.10455 	 80.1599
| 35> C 	 23.8149 	 3.96822 	 81.7891
| 36> H 	 23.2973 	 4.80475 	 82.1837
| 37> H 	 24.7205 	 4.10089 	 82.396
| 38> H 	 23.348 	 3.0065 	 81.9816
| 39> H 	 28.2085 	 8.34274 	 77.5204
| 40> H 	 25.743 	 0.718599 	 75.8137
| 41> *
| 42>
| 43>                          ****END OF INPUT****

CARTESIAN COORDINATES (ANGSTROEM)
---------------------------------
  S     26.513200    6.673220   76.895600
  C     27.759400    7.456450   77.834200
  C     28.274800    6.661900   78.837100
  C     27.664900    5.383710   78.809900
  C     26.647400    5.217130   77.849400
  H     28.028400    4.587890   79.451700
  C     29.525500    7.011730   79.686300
  H     29.150600    7.399950   80.588500
  H     30.020000    7.865870   79.192300
  C     30.635100    5.955400   79.938700
  H     31.433800    6.457620   80.378500
  H     30.308900    5.155270   80.648100
  C     30.969300    5.168350   78.727500
  H     31.706500    4.390670   78.943300
  H     30.110700    4.594820   78.433800
  H     31.323000    5.756810   77.908700
  S     26.285100    3.178740   76.020600
  C     25.835800    1.567950   76.489600
  C     25.560000    1.588410   77.835900
  C     25.510100    2.941260   78.401800
  C     26.019400    3.926670   77.576600
  H     25.393900    0.708835   78.340300
  C     25.277300    3.139390   79.857700
  H     26.247800    3.516550   80.170000
  H     25.126800    2.133590   80.302200
  C     24.169400    4.133280   80.345700
  H     23.241600    4.075400   79.838700
  H     24.609400    5.104550   80.159900
  C     23.814900    3.968220   81.789100
  H     23.297300    4.804750   82.183700
  H     24.720500    4.100890   82.396000
  H     23.348000    3.006500   81.981600
  H     28.208500    8.342740   77.520400
  H     25.743000    0.718599   75.813700

 Total Charge           Charge          ....    0
 Multiplicity           Mult            ....    1
 Number of Electrons    NEL             ....  134
 Basis Dimension        Dim             ....  322

ORBITAL ENERGIES
----------------

  NO   OCC          E(Eh)            E(eV)
   0   2.0000     -88.971864     -2421.0475
   1   2.0000     -88.957040     -2420.6441
   2   2.0000     -10.335947      -281.2554
   3   2.0000     -10.324872      -280.9541
   4   2.0000     -10.318904      -280.7917
   5   2.0000     -10.311568      -280.5920
   6   2.0000     -10.303545      -280.3737
   7   2.0000     -10.302695      -280.3506
   8   2.0000     -10.298556      -280.2380
   9   2.0000     -10.295613      -280.1579
  10   2.0000     -10.290645      -280.0227
  11   2.0000     -10.287265      -279.9307
  12   2.0000     -10.286300      -279.9045
  13   2.0000     -10.276026      -279.6249
  14   2.0000     -10.269019      -279.4342
  15   2.0000     -10.267893      -279.4036
  16   2.0000      -8.086400      -220.0421
  17   2.0000      -8.072516      -219.6643
  18   2.0000      -6.044841      -164.4885
  19   2.0000      -6.040870      -164.3804
  20   2.0000      -6.037308      -164.2835
  21   2.0000      -6.031119      -164.1151
  22   2.0000      -6.026684      -163.9944
  23   2.0000      -6.023346      -163.9036
  24   2.0000      -1.007762       -27.4226
  25   2.0000      -0.986220       -26.8364
  26   2.0000      -0.915735       -24.9184
  27   2.0000      -0.907618       -24.6975
  28   2.0000      -0.874043       -23.7839
  29   2.0000      -0.855136       -23.2694
  30   2.0000      -0.847862       -23.0715
  31   2.0000      -0.818190       -22.2641
  32   2.0000      -0.787501       -21.4290
  33   2.0000      -0.769433       -20.9373
  34   2.0000      -0.710858       -19.3434
  35   2.0000      -0.700266       -19.0552
  36   2.0000      -0.691845       -18.8261
  37   2.0000      -0.665944       -18.1213
  38   2.0000      -0.642251       -17.4765
  39   2.0000      -0.625334       -17.0162
  40   2.0000      -0.589687       -16.0462
  41   2.0000      -0.575214       -15.6524
  42   2.0000      -0.569973       -15.5098
  43   2.0000      -0.561551       -15.2806
  44   2.0000      -0.546616       -14.8742
  45   2.0000      -0.524027       -14.2595
  46   2.0000      -0.521133       -14.1808
  47   2.0000      -0.516626       -14.0581
  48   2.0000      -0.508366       -13.8333
  49   2.0000      -0.498599       -13.5676
  50   2.0000      -0.491131       -13.3643
  51   2.0000      -0.488794       -13.3008
  52   2.0000      -0.476381       -12.9630
  53   2.0000      -0.469208       -12.7678
  54   2.0000      -0.455903       -12.4058
  55   2.0000      -0.449558       -12.2331
  56   2.0000      -0.446992       -12.1633
  57   2.0000      -0.435632       -11.8542
  58   2.0000      -0.426783       -11.6133
  59   2.0000      -0.420080       -11.4310
  60   2.0000      -0.419679       -11.4201
  61   2.0000      -0.415214       -11.2985
  62   2.0000      -0.408200       -11.1077
  63   2.0000      -0.344138        -9.3645
  64   2.0000      -0.335470        -9.1286
  65   2.0000      -0.320602        -8.7240
  66   2.0000      -0.295598        -8.0436
  67   0.0000       0.026336         0.7166
  68   0.0000       0.070768         1.9257
  69   0.0000       0.115361         3.1391
  70   0.0000       0.123186         3.3521
  71   0.0000       0.131148         3.5687

MULLIKEN ATOMIC CHARGES
-----------------------
   0 S :    0.127214
   1 C :   -0.110931
   2 C :   -0.092988
   3 C :    0.005576
   4 C :   -0.154259
   5 H :    0.028350
   6 C :    0.088950
   7 H :    0.028902
   8 H :    0.020504
   9 C :   -0.062317
  10 H :    0.021424
  11 H :    0.026930
  12 C :   -0.024407
  13 H :    0.027594
  14 H :    0.023107
  15 H :    0.026807
  16 S :    0.083243
  17 C :   -0.088354
  18 C :   -0.013233
  19 C :   -0.069400
  20 C :   -0.109919
  21 H :   -0.007868
  22 C :    0.047041
  23 H :    0.014238
  24 H :    0.013287
  25 C :   -0.036124
  26 H :    0.023650
  27 H :    0.028205
  28 C :   -0.029824
  29 H :    0.021670
  30 H :    0.009370
  31 H :    0.039110
  32 H :    0.026171
  33 H :    0.068281
Sum of atomic charges:   -0.0000000

LOEWDIN ATOMIC CHARGES
----------------------
   0 S :    0.421090
   1 C :   -0.186466
   2 C :   -0.061967
   3 C :   -0.058780
   4 C :   -0.203970
   5 H :    0.028645
   6 C :   -0.023752
   7 H :    0.026958
   8 H :    0.032547
   9 C :   -0.037941
  10 H :    0.018773
  11 H :    0.028153
  12 C :   -0.062064
  13 H :    0.028311
  14 H :    0.025924
  15 H :    0.020289
  16 S :    0.405084
  17 C :   -0.183161
  18 C :   -0.067068
  19 C :   -0.054531
  20 C :   -0.206630
  21 H :    0.015800
  22 C :   -0.035244
  23 H :    0.030790
  24 H :    0.027181
  25 C :   -0.033854
  26 H :    0.019895
  27 H :    0.025711
  28 C :   -0.064910
  29 H :    0.024360
  30 H :    0.024761
  31 H :    0.025400
  32 H :    0.014071
  33 H :    0.036594

  Mayer bond orders larger than 0.100000
B(  0-S ,  1-C ) :   1.1581 B(  0-S ,  4-C ) :   1.1584 B(  1-C ,  2-C ) :   1.5951
B(  1-C , 32-H ) :   0.9693 B(  2-C ,  3-C ) :   1.2971 B(  2-C ,  6-C ) :   0.9987
B(  3-C ,  4-C ) :   1.5328 B(  3-C ,  5-H ) :   0.9730 B(  4-C , 20-C ) :   1.0490
B(  6-C ,  7-H ) :   0.9324 B(  6-C ,  8-H ) :   0.9461 B(  6-C ,  9-C ) :   1.0754
B(  9-C , 10-H ) :   0.9532 B(  9-C , 11-H ) :   0.9487 B(  9-C , 12-C ) :   1.0964
B( 12-C , 13-H ) :   0.9686 B( 12-C , 14-H ) :   0.9633 B( 12-C , 15-H ) :   0.9748
B( 16-S , 17-C ) :   1.1682 B( 16-S , 20-C ) :   1.1280 B( 17-C , 18-C ) :   1.5828
B( 17-C , 33-H ) :   0.9693 B( 18-C , 19-C ) :   1.2475 B( 18-C , 21-H ) :   1.0066
B( 19-C , 20-C ) :   1.5748 B( 19-C , 22-C ) :   1.0535 B( 22-C , 23-H ) :   0.9252
B( 22-C , 24-H ) :   0.9408 B( 22-C , 25-C ) :   1.0519 B( 25-C , 26-H ) :   0.9614
B( 25-C , 27-H ) :   0.9481 B( 25-C , 28-C ) :   1.1063 B( 28-C , 29-H ) :   0.9683
B( 28-C , 30-H ) :   0.9667 B( 28-C , 31-H ) :   0.9746

Dispersion correction           -0.014653903
FINAL SINGLE POINT ENERGY     -1339.864682373825

DIPOLE MOMENT
-------------
                                X             Y             Z
Electronic contribution:     -7.67479       1.12081     -22.82795
Nuclear contribution   :      8.13462      -1.26594      23.39562
                        -----------------------------------------
Total Dipole Moment    :      0.45982      -0.14513       0.56767
                        -----------------------------------------
Magnitude (a.u.)       :      0.74482
Magnitude (Debye)      :      1.89318

Rotational constants in cm-1:     0.015914     0.009476     0.008147
Rotational constants in MHz :   477.093276   284.090930   244.249784

                             ****ORCA TERMINATED NORMALLY****
TOTAL RUN TIME: 0 days 0 hours 0 minutes 36 seconds 253 msec
