                         Program Version 4.2.1 -  RELEASE  -
|  1> ! wB97X-D3 SP def2-SVP
|  2> %pal
|  3> nprocs 16
|  4> end
|  5>
|  6> * xyz 0 1
|  7> S 	 7.41081 	 -9.56425 	 63.6201
|  8> C 	 6.94646 	 -8.84912 	 65.1542
|  9> C 	 7.62622 	 -9.4646 	 66.2634
| 10> C 	 8.76392 	 -10.2216 	 65.791
| 11> C 	 8.85806 	 -10.2649 	 64.3829
| 12> H 	 9.45417 	 -10.7859 	 66.3346
| 13> C 	 7.37488 	 -9.31892 	 67.8232
| 14> H 	 7.78755 	 -10.195 	 68.2865
| 15> H 	 6.33074 	 -9.32576 	 68.0619
| 16> C 	 8.00714 	 -8.04708 	 68.449
| 17> H 	 9.09496 	 -8.06138 	 68.163
| 18> H 	 7.57967 	 -7.22454 	 67.8884
| 19> C 	 7.77405 	 -7.97459 	 69.946
| 20> H 	 8.07584 	 -6.98851 	 70.3219
| 21> H 	 6.83716 	 -8.23638 	 70.3777
| 22> H 	 8.46625 	 -8.66474 	 70.4284
| 23> S 	 10.3049 	 -10.2055 	 62.0954
| 24> C 	 11.4058 	 -11.4761 	 61.6484
| 25> C 	 11.5968 	 -12.3386 	 62.6752
| 26> C 	 10.7098 	 -12.1046 	 63.7961
| 27> C 	 9.90677 	 -10.9697 	 63.6064
| 28> H 	 12.4035 	 -13.1149 	 62.5036
| 29> C 	 10.709 	 -13.0924 	 64.9612
| 30> H 	 10.8337 	 -12.5499 	 65.8913
| 31> H 	 11.5651 	 -13.727 	 65.0151
| 32> C 	 9.44239 	 -14.0574 	 64.8825
| 33> H 	 9.32209 	 -14.6743 	 63.9508
| 34> H 	 8.51926 	 -13.453 	 64.8559
| 35> C 	 9.4472 	 -14.9118 	 66.2159
| 36> H 	 10.2596 	 -15.5719 	 66.4606
| 37> H 	 8.53106 	 -15.5734 	 66.2399
| 38> H 	 9.37456 	 -14.237 	 67.0494
| 39> H 	 6.01585 	 -8.28387 	 65.2204
| 40> H 	 12.0087 	 -11.4408 	 60.7995
| 41> *
| 42>
| 43>                          ****END OF INPUT****

CARTESIAN COORDINATES (ANGSTROEM)
---------------------------------
  S      7.410810   -9.564250   63.620100
  C      6.946460   -8.849120   65.154200
  C      7.626220   -9.464600   66.263400
  C      8.763920  -10.221600   65.791000
  C      8.858060  -10.264900   64.382900
  H      9.454170  -10.785900   66.334600
  C      7.374880   -9.318920   67.823200
  H      7.787550  -10.195000   68.286500
  H      6.330740   -9.325760   68.061900
  C      8.007140   -8.047080   68.449000
  H      9.094960   -8.061380   68.163000
  H      7.579670   -7.224540   67.888400
  C      7.774050   -7.974590   69.946000
  H      8.075840   -6.988510   70.321900
  H      6.837160   -8.236380   70.377700
  H      8.466250   -8.664740   70.428400
  S     10.304900  -10.205500   62.095400
  C     11.405800  -11.476100   61.648400
  C     11.596800  -12.338600   62.675200
  C     10.709800  -12.104600   63.796100
  C      9.906770  -10.969700   63.606400
  H     12.403500  -13.114900   62.503600
  C     10.709000  -13.092400   64.961200
  H     10.833700  -12.549900   65.891300
  H     11.565100  -13.727000   65.015100
  C      9.442390  -14.057400   64.882500
  H      9.322090  -14.674300   63.950800
  H      8.519260  -13.453000   64.855900
  C      9.447200  -14.911800   66.215900
  H     10.259600  -15.571900   66.460600
  H      8.531060  -15.573400   66.239900
  H      9.374560  -14.237000   67.049400
  H      6.015850   -8.283870   65.220400
  H     12.008700  -11.440800   60.799500

 Total Charge           Charge          ....    0
 Multiplicity           Mult            ....    1
 Number of Electrons    NEL             ....  134
 Basis Dimension        Dim             ....  322

ORBITAL ENERGIES
----------------

  NO   OCC          E(Eh)            E(eV)
   0   2.0000     -88.971342     -2421.0333
   1   2.0000     -88.961255     -2420.7588
   2   2.0000     -10.336609      -281.2734
   3   2.0000     -10.330833      -281.1162
   4   2.0000     -10.321924      -280.8738
   5   2.0000     -10.316370      -280.7227
   6   2.0000     -10.309403      -280.5331
   7   2.0000     -10.307542      -280.4825
   8   2.0000     -10.298607      -280.2393
   9   2.0000     -10.296504      -280.1821
  10   2.0000     -10.296127      -280.1719
  11   2.0000     -10.295534      -280.1557
  12   2.0000     -10.295141      -280.1450
  13   2.0000     -10.289950      -280.0038
  14   2.0000     -10.280823      -279.7554
  15   2.0000     -10.278143      -279.6825
  16   2.0000      -8.085133      -220.0076
  17   2.0000      -8.076663      -219.7772
  18   2.0000      -6.043587      -164.4544
  19   2.0000      -6.039946      -164.3553
  20   2.0000      -6.035821      -164.2430
  21   2.0000      -6.035119      -164.2239
  22   2.0000      -6.031033      -164.1128
  23   2.0000      -6.027472      -164.0158
  24   2.0000      -1.002656       -27.2837
  25   2.0000      -0.977187       -26.5906
  26   2.0000      -0.906615       -24.6703
  27   2.0000      -0.898979       -24.4625
  28   2.0000      -0.866191       -23.5702
  29   2.0000      -0.849445       -23.1146
  30   2.0000      -0.840537       -22.8722
  31   2.0000      -0.811884       -22.0925
  32   2.0000      -0.780001       -21.2249
  33   2.0000      -0.769446       -20.9377
  34   2.0000      -0.707276       -19.2460
  35   2.0000      -0.701870       -19.0989
  36   2.0000      -0.692957       -18.8563
  37   2.0000      -0.663133       -18.0448
  38   2.0000      -0.641592       -17.4586
  39   2.0000      -0.618765       -16.8375
  40   2.0000      -0.594508       -16.1774
  41   2.0000      -0.565793       -15.3960
  42   2.0000      -0.558533       -15.1985
  43   2.0000      -0.549594       -14.9552
  44   2.0000      -0.521387       -14.1877
  45   2.0000      -0.520970       -14.1763
  46   2.0000      -0.513960       -13.9856
  47   2.0000      -0.510369       -13.8878
  48   2.0000      -0.505625       -13.7587
  49   2.0000      -0.494283       -13.4501
  50   2.0000      -0.490441       -13.3456
  51   2.0000      -0.481936       -13.1141
  52   2.0000      -0.473341       -12.8803
  53   2.0000      -0.464180       -12.6310
  54   2.0000      -0.456745       -12.4287
  55   2.0000      -0.454094       -12.3565
  56   2.0000      -0.445043       -12.1102
  57   2.0000      -0.438221       -11.9246
  58   2.0000      -0.432266       -11.7625
  59   2.0000      -0.427358       -11.6290
  60   2.0000      -0.422449       -11.4954
  61   2.0000      -0.417890       -11.3714
  62   2.0000      -0.406004       -11.0479
  63   2.0000      -0.352256        -9.5854
  64   2.0000      -0.330275        -8.9872
  65   2.0000      -0.327575        -8.9138
  66   2.0000      -0.285320        -7.7639
  67   0.0000       0.019783         0.5383
  68   0.0000       0.075773         2.0619
  69   0.0000       0.095800         2.6068
  70   0.0000       0.114188         3.1072
  71   0.0000       0.138438         3.7671

MULLIKEN ATOMIC CHARGES
-----------------------
   0 S :    0.120544
   1 C :   -0.128956
   2 C :   -0.085545
   3 C :    0.043267
   4 C :   -0.125463
   5 H :   -0.022789
   6 C :    0.062194
   7 H :    0.014216
   8 H :    0.021248
   9 C :   -0.078292
  10 H :    0.038150
  11 H :    0.027327
  12 C :   -0.019025
  13 H :    0.034842
  14 H :    0.026894
  15 H :    0.021154
  16 S :    0.091526
  17 C :   -0.067576
  18 C :   -0.058794
  19 C :   -0.036368
  20 C :   -0.151340
  21 H :    0.043247
  22 C :    0.065027
  23 H :    0.024639
  24 H :    0.008461
  25 C :   -0.083788
  26 H :    0.046880
  27 H :    0.042428
  28 C :   -0.058978
  29 H :    0.031966
  30 H :    0.037208
  31 H :    0.021041
  32 H :    0.060007
  33 H :    0.034650
Sum of atomic charges:   -0.0000000

LOEWDIN ATOMIC CHARGES
----------------------
   0 S :    0.400964
   1 C :   -0.205559
   2 C :   -0.048629
   3 C :   -0.057084
   4 C :   -0.185700
   5 H :    0.018555
   6 C :   -0.024494
   7 H :    0.023892
   8 H :    0.023909
   9 C :   -0.040470
  10 H :    0.032312
  11 H :    0.021038
  12 C :   -0.067486
  13 H :    0.030841
  14 H :    0.021396
  15 H :    0.027785
  16 S :    0.410591
  17 C :   -0.181812
  18 C :   -0.077542
  19 C :   -0.058526
  20 C :   -0.200623
  21 H :    0.045082
  22 C :   -0.030622
  23 H :    0.026731
  24 H :    0.026362
  25 C :   -0.034187
  26 H :    0.032185
  27 H :    0.028418
  28 C :   -0.073434
  29 H :    0.020303
  30 H :    0.031175
  31 H :    0.020346
  32 H :    0.026860
  33 H :    0.017423

  Mayer bond orders larger than 0.100000
B(  0-S ,  1-C ) :   1.1469 B(  0-S ,  4-C ) :   1.1568 B(  1-C ,  2-C ) :   1.5716
B(  1-C ,  4-C ) :   0.1062 B(  1-C , 32-H ) :   0.9682 B(  2-C ,  3-C ) :   1.2480
B(  2-C ,  6-C ) :   1.0211 B(  3-C ,  4-C ) :   1.5559 B(  3-C ,  5-H ) :   1.0025
B(  4-C , 20-C ) :   1.0529 B(  6-C ,  7-H ) :   0.9453 B(  6-C ,  8-H ) :   0.9449
B(  6-C ,  9-C ) :   1.0600 B(  9-C , 10-H ) :   0.9562 B(  9-C , 11-H ) :   0.9597
B(  9-C , 12-C ) :   1.0718 B( 12-C , 13-H ) :   0.9726 B( 12-C , 14-H ) :   0.9770
B( 12-C , 15-H ) :   0.9713 B( 16-S , 17-C ) :   1.1492 B( 16-S , 20-C ) :   1.1509
B( 17-C , 18-C ) :   1.6341 B( 17-C , 33-H ) :   0.9719 B( 18-C , 19-C ) :   1.2345
B( 18-C , 21-H ) :   0.9799 B( 19-C , 20-C ) :   1.5775 B( 19-C , 22-C ) :   1.0389
B( 22-C , 23-H ) :   0.9423 B( 22-C , 24-H ) :   0.9372 B( 22-C , 25-C ) :   1.0392
B( 25-C , 26-H ) :   0.9609 B( 25-C , 27-H ) :   0.9609 B( 25-C , 28-C ) :   1.0614
B( 28-C , 29-H ) :   0.9798 B( 28-C , 30-H ) :   0.9756 B( 28-C , 31-H ) :   0.9771

Dispersion correction           -0.013837586
FINAL SINGLE POINT ENERGY     -1339.864370253450

DIPOLE MOMENT
-------------
                                X             Y             Z
Electronic contribution:      1.17540       8.81885     -28.47048
Nuclear contribution   :     -1.05233      -9.17922      29.07939
                        -----------------------------------------
Total Dipole Moment    :      0.12307      -0.36037       0.60891
                        -----------------------------------------
Magnitude (a.u.)       :      0.71818
Magnitude (Debye)      :      1.82547

Rotational constants in cm-1:     0.017686     0.008153     0.006442
Rotational constants in MHz :   530.222512   244.434333   193.127009

                             ****ORCA TERMINATED NORMALLY****
TOTAL RUN TIME: 0 days 0 hours 0 minutes 33 seconds 971 msec
