                         Program Version 4.2.1 -  RELEASE  -
|  1> ! wB97X-D3 SP def2-SVP
|  2> %pal
|  3> nprocs 16
|  4> end
|  5>
|  6> * xyz 0 1
|  7> S 	 -15.195 	 35.1613 	 38.6628
|  8> C 	 -14.7376 	 36.6981 	 39.2722
|  9> C 	 -14.1775 	 37.4977 	 38.2826
| 10> C 	 -14.0689 	 36.7993 	 37.0443
| 11> C 	 -14.6558 	 35.5644 	 37.0273
| 12> H 	 -13.5875 	 37.2082 	 36.1438
| 13> C 	 -13.4734 	 38.8439 	 38.4548
| 14> H 	 -13.4331 	 39.4105 	 37.5047
| 15> H 	 -12.4318 	 38.6449 	 38.6753
| 16> C 	 -14.1066 	 39.808 	 39.4803
| 17> H 	 -13.9738 	 39.2889 	 40.4361
| 18> H 	 -13.4854 	 40.7148 	 39.391
| 19> C 	 -15.5735 	 40.2301 	 39.2112
| 20> H 	 -15.6453 	 40.8372 	 38.2342
| 21> H 	 -16.1331 	 39.3288 	 39.2949
| 22> H 	 -15.9472 	 40.787 	 40.0626
| 23> S 	 -13.6165 	 33.0853 	 36.5204
| 24> C 	 -13.6652 	 32.4668 	 34.8497
| 25> C 	 -14.3972 	 33.3224 	 34.1055
| 26> C 	 -14.9407 	 34.4512 	 34.77
| 27> C 	 -14.4551 	 34.5119 	 36.0849
| 28> H 	 -14.4139 	 33.1335 	 33.0133
| 29> C 	 -15.7797 	 35.5295 	 34.0999
| 30> H 	 -15.3354 	 36.4764 	 34.2838
| 31> H 	 -16.7135 	 35.6599 	 34.6796
| 32> C 	 -16.1216 	 35.3229 	 32.6624
| 33> H 	 -16.6941 	 34.4471 	 32.6025
| 34> H 	 -15.1756 	 35.0251 	 32.0323
| 35> C 	 -17.0235 	 36.3907 	 32.1084
| 36> H 	 -16.3947 	 37.29 	 32.3759
| 37> H 	 -17.9198 	 36.5315 	 32.7339
| 38> H 	 -17.3871 	 36.4304 	 31.0865
| 39> H 	 -14.8013 	 37.0151 	 40.2886
| 40> H 	 -13.237 	 31.5272 	 34.5592
| 41> *
| 42>
| 43>                          ****END OF INPUT****

CARTESIAN COORDINATES (ANGSTROEM)
---------------------------------
  S    -15.195000   35.161300   38.662800
  C    -14.737600   36.698100   39.272200
  C    -14.177500   37.497700   38.282600
  C    -14.068900   36.799300   37.044300
  C    -14.655800   35.564400   37.027300
  H    -13.587500   37.208200   36.143800
  C    -13.473400   38.843900   38.454800
  H    -13.433100   39.410500   37.504700
  H    -12.431800   38.644900   38.675300
  C    -14.106600   39.808000   39.480300
  H    -13.973800   39.288900   40.436100
  H    -13.485400   40.714800   39.391000
  C    -15.573500   40.230100   39.211200
  H    -15.645300   40.837200   38.234200
  H    -16.133100   39.328800   39.294900
  H    -15.947200   40.787000   40.062600
  S    -13.616500   33.085300   36.520400
  C    -13.665200   32.466800   34.849700
  C    -14.397200   33.322400   34.105500
  C    -14.940700   34.451200   34.770000
  C    -14.455100   34.511900   36.084900
  H    -14.413900   33.133500   33.013300
  C    -15.779700   35.529500   34.099900
  H    -15.335400   36.476400   34.283800
  H    -16.713500   35.659900   34.679600
  C    -16.121600   35.322900   32.662400
  H    -16.694100   34.447100   32.602500
  H    -15.175600   35.025100   32.032300
  C    -17.023500   36.390700   32.108400
  H    -16.394700   37.290000   32.375900
  H    -17.919800   36.531500   32.733900
  H    -17.387100   36.430400   31.086500
  H    -14.801300   37.015100   40.288600
  H    -13.237000   31.527200   34.559200

 Total Charge           Charge          ....    0
 Multiplicity           Mult            ....    1
 Number of Electrons    NEL             ....  134
 Basis Dimension        Dim             ....  322

ORBITAL ENERGIES
----------------

  NO   OCC          E(Eh)            E(eV)
   0   2.0000     -88.965634     -2420.8780
   1   2.0000     -88.962924     -2420.8042
   2   2.0000     -10.324642      -280.9478
   3   2.0000     -10.320710      -280.8408
   4   2.0000     -10.313884      -280.6551
   5   2.0000     -10.313712      -280.6504
   6   2.0000     -10.301878      -280.3284
   7   2.0000     -10.301130      -280.3080
   8   2.0000     -10.295091      -280.1437
   9   2.0000     -10.293297      -280.0949
  10   2.0000     -10.291688      -280.0511
  11   2.0000     -10.289917      -280.0029
  12   2.0000     -10.288760      -279.9714
  13   2.0000     -10.286987      -279.9232
  14   2.0000     -10.282030      -279.7882
  15   2.0000     -10.281702      -279.7793
  16   2.0000      -8.080732      -219.8879
  17   2.0000      -8.077934      -219.8118
  18   2.0000      -6.039243      -164.3362
  19   2.0000      -6.036400      -164.2588
  20   2.0000      -6.035083      -164.2229
  21   2.0000      -6.032366      -164.1490
  22   2.0000      -6.031577      -164.1276
  23   2.0000      -6.028743      -164.0504
  24   2.0000      -1.011990       -27.5376
  25   2.0000      -0.987099       -26.8603
  26   2.0000      -0.918672       -24.9983
  27   2.0000      -0.909827       -24.7576
  28   2.0000      -0.873938       -23.7811
  29   2.0000      -0.852701       -23.2032
  30   2.0000      -0.846256       -23.0278
  31   2.0000      -0.815851       -22.2004
  32   2.0000      -0.783816       -21.3287
  33   2.0000      -0.772359       -21.0169
  34   2.0000      -0.707789       -19.2599
  35   2.0000      -0.705502       -19.1977
  36   2.0000      -0.695546       -18.9268
  37   2.0000      -0.650187       -17.6925
  38   2.0000      -0.639601       -17.4044
  39   2.0000      -0.613583       -16.6964
  40   2.0000      -0.601879       -16.3780
  41   2.0000      -0.581434       -15.8216
  42   2.0000      -0.568547       -15.4710
  43   2.0000      -0.554316       -15.0837
  44   2.0000      -0.541462       -14.7339
  45   2.0000      -0.533917       -14.5286
  46   2.0000      -0.515850       -14.0370
  47   2.0000      -0.512637       -13.9496
  48   2.0000      -0.503960       -13.7134
  49   2.0000      -0.496033       -13.4977
  50   2.0000      -0.485725       -13.2172
  51   2.0000      -0.483160       -13.1475
  52   2.0000      -0.474327       -12.9071
  53   2.0000      -0.467511       -12.7216
  54   2.0000      -0.459522       -12.5042
  55   2.0000      -0.454638       -12.3713
  56   2.0000      -0.444174       -12.0866
  57   2.0000      -0.441275       -12.0077
  58   2.0000      -0.432732       -11.7752
  59   2.0000      -0.423297       -11.5185
  60   2.0000      -0.417663       -11.3652
  61   2.0000      -0.407446       -11.0872
  62   2.0000      -0.404727       -11.0132
  63   2.0000      -0.349684        -9.5154
  64   2.0000      -0.330761        -9.0005
  65   2.0000      -0.324759        -8.8371
  66   2.0000      -0.293803        -7.9948
  67   0.0000       0.030798         0.8381
  68   0.0000       0.066479         1.8090
  69   0.0000       0.115429         3.1410
  70   0.0000       0.125210         3.4071
  71   0.0000       0.133733         3.6391

MULLIKEN ATOMIC CHARGES
-----------------------
   0 S :    0.109049
   1 C :   -0.116889
   2 C :   -0.086218
   3 C :    0.024092
   4 C :   -0.173796
   5 H :    0.027632
   6 C :    0.047593
   7 H :    0.017863
   8 H :    0.046928
   9 C :   -0.107112
  10 H :    0.029501
  11 H :    0.034185
  12 C :   -0.039198
  13 H :    0.055129
  14 H :    0.027947
  15 H :    0.032543
  16 S :    0.109763
  17 C :   -0.093988
  18 C :   -0.051442
  19 C :   -0.037486
  20 C :   -0.148634
  21 H :    0.028616
  22 C :    0.094255
  23 H :    0.003443
  24 H :    0.029689
  25 C :   -0.075326
  26 H :    0.013607
  27 H :    0.045627
  28 C :   -0.033728
  29 H :    0.020524
  30 H :    0.026855
  31 H :    0.046232
  32 H :    0.041477
  33 H :    0.051267
Sum of atomic charges:    0.0000000

LOEWDIN ATOMIC CHARGES
----------------------
   0 S :    0.413863
   1 C :   -0.204334
   2 C :   -0.067284
   3 C :   -0.052549
   4 C :   -0.194640
   5 H :    0.036274
   6 C :   -0.035386
   7 H :    0.028145
   8 H :    0.035454
   9 C :   -0.045087
  10 H :    0.020465
  11 H :    0.026731
  12 C :   -0.068515
  13 H :    0.039371
  14 H :    0.021245
  15 H :    0.027273
  16 S :    0.408951
  17 C :   -0.176241
  18 C :   -0.078379
  19 C :   -0.054489
  20 C :   -0.215231
  21 H :    0.036857
  22 C :   -0.033025
  23 H :    0.023778
  24 H :    0.041335
  25 C :   -0.052769
  26 H :    0.015472
  27 H :    0.033841
  28 C :   -0.069330
  29 H :    0.030243
  30 H :    0.028532
  31 H :    0.028168
  32 H :    0.023107
  33 H :    0.028153

  Mayer bond orders larger than 0.100000
B(  0-S ,  1-C ) :   1.1534 B(  0-S ,  4-C ) :   1.1384 B(  1-C ,  2-C ) :   1.5854
B(  1-C , 32-H ) :   0.9707 B(  2-C ,  3-C ) :   1.2673 B(  2-C ,  6-C ) :   1.0107
B(  3-C ,  4-C ) :   1.5806 B(  3-C ,  5-H ) :   0.9840 B(  4-C , 20-C ) :   1.0505
B(  6-C ,  7-H ) :   0.9438 B(  6-C ,  8-H ) :   0.9398 B(  6-C ,  9-C ) :   1.0732
B(  9-C , 10-H ) :   0.9535 B(  9-C , 11-H ) :   0.9572 B(  9-C , 12-C ) :   1.0809
B( 12-C , 13-H ) :   0.9728 B( 12-C , 14-H ) :   0.9711 B( 12-C , 15-H ) :   0.9719
B( 16-S , 17-C ) :   1.1376 B( 16-S , 20-C ) :   1.1638 B( 17-C , 18-C ) :   1.6065
B( 17-C , 20-C ) :   0.1003 B( 17-C , 33-H ) :   0.9703 B( 18-C , 19-C ) :   1.2631
B( 18-C , 21-H ) :   0.9789 B( 19-C , 20-C ) :   1.5616 B( 19-C , 22-C ) :   1.0322
B( 22-C , 23-H ) :   0.9198 B( 22-C , 24-H ) :   0.9120 B( 22-C , 25-C ) :   1.0853
B( 25-C , 26-H ) :   0.9440 B( 25-C , 27-H ) :   0.9442 B( 25-C , 28-C ) :   1.0693
B( 28-C , 29-H ) :   0.9747 B( 28-C , 30-H ) :   0.9691 B( 28-C , 31-H ) :   0.9742

Dispersion correction           -0.013686922
FINAL SINGLE POINT ENERGY     -1339.869986251941

DIPOLE MOMENT
-------------
                                X             Y             Z
Electronic contribution:      7.32947     -23.87923       9.98988
Nuclear contribution   :     -7.23294      24.35902     -10.26210
                        -----------------------------------------
Total Dipole Moment    :      0.09653       0.47979      -0.27222
                        -----------------------------------------
Magnitude (a.u.)       :      0.56002
Magnitude (Debye)      :      1.42345

Rotational constants in cm-1:     0.018928     0.008094     0.006219
Rotational constants in MHz :   567.435052   242.652272   186.455575

                             ****ORCA TERMINATED NORMALLY****
TOTAL RUN TIME: 0 days 0 hours 0 minutes 33 seconds 458 msec
