                         Program Version 4.2.1 -  RELEASE  -
|  1> ! wB97X-D3 SP def2-SVP
|  2> %pal
|  3> nprocs 16
|  4> end
|  5>
|  6> * xyz 0 1
|  7> S 	 2.5809 	 -20.2377 	 82.4149
|  8> C 	 2.25274 	 -20.4207 	 84.1731
|  9> C 	 2.92427 	 -19.482 	 84.8696
| 10> C 	 3.31599 	 -18.4275 	 84.0069
| 11> C 	 3.33724 	 -18.6701 	 82.683
| 12> H 	 3.58217 	 -17.3463 	 84.3702
| 13> C 	 3.0933 	 -19.3745 	 86.3413
| 14> H 	 2.1098 	 -19.6964 	 86.5961
| 15> H 	 3.26902 	 -18.3155 	 86.5716
| 16> C 	 4.21712 	 -20.1574 	 87.0249
| 17> H 	 3.95127 	 -21.2331 	 86.9524
| 18> H 	 5.12617 	 -19.9044 	 86.4303
| 19> C 	 4.45714 	 -19.7036 	 88.4843
| 20> H 	 3.54856 	 -19.5757 	 89.0703
| 21> H 	 5.22258 	 -20.3125 	 88.9629
| 22> H 	 4.90317 	 -18.7382 	 88.3743
| 23> S 	 2.43781 	 -16.9493 	 80.7786
| 24> C 	 3.53223 	 -15.881 	 79.9044
| 25> C 	 4.78226 	 -15.8898 	 80.4524
| 26> C 	 4.87857 	 -16.8637 	 81.5377
| 27> C 	 3.68267 	 -17.6194 	 81.7463
| 28> H 	 5.5799 	 -15.2847 	 80.0275
| 29> C 	 6.19734 	 -17.0738 	 82.3062
| 30> H 	 5.94043 	 -17.0858 	 83.3936
| 31> H 	 6.81754 	 -16.1812 	 82.1094
| 32> C 	 6.9806 	 -18.3137 	 81.8137
| 33> H 	 7.17139 	 -18.3366 	 80.7057
| 34> H 	 6.48038 	 -19.1895 	 82.0419
| 35> C 	 8.39278 	 -18.3676 	 82.446
| 36> H 	 9.06088 	 -17.6385 	 81.9884
| 37> H 	 8.94198 	 -19.3309 	 82.3198
| 38> H 	 8.31428 	 -18.2876 	 83.4971
| 39> H 	 2.00262 	 -21.2932 	 84.681
| 40> H 	 3.31519 	 -15.1881 	 79.0966
| 41> *
| 42>
| 43>                          ****END OF INPUT****

CARTESIAN COORDINATES (ANGSTROEM)
---------------------------------
  S      2.580900  -20.237700   82.414900
  C      2.252740  -20.420700   84.173100
  C      2.924270  -19.482000   84.869600
  C      3.315990  -18.427500   84.006900
  C      3.337240  -18.670100   82.683000
  H      3.582170  -17.346300   84.370200
  C      3.093300  -19.374500   86.341300
  H      2.109800  -19.696400   86.596100
  H      3.269020  -18.315500   86.571600
  C      4.217120  -20.157400   87.024900
  H      3.951270  -21.233100   86.952400
  H      5.126170  -19.904400   86.430300
  C      4.457140  -19.703600   88.484300
  H      3.548560  -19.575700   89.070300
  H      5.222580  -20.312500   88.962900
  H      4.903170  -18.738200   88.374300
  S      2.437810  -16.949300   80.778600
  C      3.532230  -15.881000   79.904400
  C      4.782260  -15.889800   80.452400
  C      4.878570  -16.863700   81.537700
  C      3.682670  -17.619400   81.746300
  H      5.579900  -15.284700   80.027500
  C      6.197340  -17.073800   82.306200
  H      5.940430  -17.085800   83.393600
  H      6.817540  -16.181200   82.109400
  C      6.980600  -18.313700   81.813700
  H      7.171390  -18.336600   80.705700
  H      6.480380  -19.189500   82.041900
  C      8.392780  -18.367600   82.446000
  H      9.060880  -17.638500   81.988400
  H      8.941980  -19.330900   82.319800
  H      8.314280  -18.287600   83.497100
  H      2.002620  -21.293200   84.681000
  H      3.315190  -15.188100   79.096600

 Total Charge           Charge          ....    0
 Multiplicity           Mult            ....    1
 Number of Electrons    NEL             ....  134
 Basis Dimension        Dim             ....  322

ORBITAL ENERGIES
----------------

  NO   OCC          E(Eh)            E(eV)
   0   2.0000     -88.968266     -2420.9496
   1   2.0000     -88.963874     -2420.8301
   2   2.0000     -10.327496      -281.0255
   3   2.0000     -10.327276      -281.0195
   4   2.0000     -10.315684      -280.7040
   5   2.0000     -10.310888      -280.5735
   6   2.0000     -10.309970      -280.5486
   7   2.0000     -10.296447      -280.1806
   8   2.0000     -10.296305      -280.1767
   9   2.0000     -10.296147      -280.1724
  10   2.0000     -10.295578      -280.1569
  11   2.0000     -10.294642      -280.1315
  12   2.0000     -10.289453      -279.9903
  13   2.0000     -10.282226      -279.7936
  14   2.0000     -10.281590      -279.7763
  15   2.0000     -10.273376      -279.5528
  16   2.0000      -8.081892      -219.9195
  17   2.0000      -8.078952      -219.8394
  18   2.0000      -6.040709      -164.3761
  19   2.0000      -6.037467      -164.2878
  20   2.0000      -6.036721      -164.2675
  21   2.0000      -6.033298      -164.1744
  22   2.0000      -6.032177      -164.1439
  23   2.0000      -6.029779      -164.0786
  24   2.0000      -1.009837       -27.4791
  25   2.0000      -0.986040       -26.8315
  26   2.0000      -0.918901       -25.0046
  27   2.0000      -0.901494       -24.5309
  28   2.0000      -0.877254       -23.8713
  29   2.0000      -0.849715       -23.1219
  30   2.0000      -0.843562       -22.9545
  31   2.0000      -0.818224       -22.2650
  32   2.0000      -0.784749       -21.3541
  33   2.0000      -0.766384       -20.8544
  34   2.0000      -0.712784       -19.3958
  35   2.0000      -0.704336       -19.1660
  36   2.0000      -0.693499       -18.8711
  37   2.0000      -0.657531       -17.8923
  38   2.0000      -0.635273       -17.2867
  39   2.0000      -0.617268       -16.7967
  40   2.0000      -0.585993       -15.9457
  41   2.0000      -0.577717       -15.7205
  42   2.0000      -0.569951       -15.5091
  43   2.0000      -0.564151       -15.3513
  44   2.0000      -0.531358       -14.4590
  45   2.0000      -0.523475       -14.2445
  46   2.0000      -0.518492       -14.1089
  47   2.0000      -0.509359       -13.8604
  48   2.0000      -0.507595       -13.8124
  49   2.0000      -0.502091       -13.6626
  50   2.0000      -0.494152       -13.4466
  51   2.0000      -0.480073       -13.0635
  52   2.0000      -0.465758       -12.6739
  53   2.0000      -0.462830       -12.5943
  54   2.0000      -0.462403       -12.5826
  55   2.0000      -0.448682       -12.2093
  56   2.0000      -0.443997       -12.0818
  57   2.0000      -0.433911       -11.8073
  58   2.0000      -0.429770       -11.6946
  59   2.0000      -0.424864       -11.5611
  60   2.0000      -0.422472       -11.4961
  61   2.0000      -0.417470       -11.3599
  62   2.0000      -0.413382       -11.2487
  63   2.0000      -0.345329        -9.3969
  64   2.0000      -0.328539        -8.9400
  65   2.0000      -0.325666        -8.8618
  66   2.0000      -0.300403        -8.1744
  67   0.0000       0.030089         0.8188
  68   0.0000       0.067098         1.8258
  69   0.0000       0.113150         3.0790
  70   0.0000       0.116485         3.1697
  71   0.0000       0.127008         3.4561

MULLIKEN ATOMIC CHARGES
-----------------------
   0 S :    0.100424
   1 C :   -0.075249
   2 C :   -0.106398
   3 C :   -0.028195
   4 C :   -0.129083
   5 H :    0.054032
   6 C :    0.069488
   7 H :    0.024616
   8 H :    0.013666
   9 C :   -0.084746
  10 H :    0.034828
  11 H :    0.037854
  12 C :   -0.029047
  13 H :    0.040183
  14 H :    0.042396
  15 H :    0.020146
  16 S :    0.115502
  17 C :   -0.084972
  18 C :   -0.037932
  19 C :   -0.064542
  20 C :   -0.167738
  21 H :    0.026741
  22 C :    0.062580
  23 H :    0.033305
  24 H :    0.017531
  25 C :   -0.048193
  26 H :    0.036400
  27 H :    0.019954
  28 C :   -0.056666
  29 H :    0.032728
  30 H :    0.029989
  31 H :    0.019972
  32 H :    0.025461
  33 H :    0.054965
Sum of atomic charges:   -0.0000000

LOEWDIN ATOMIC CHARGES
----------------------
   0 S :    0.379422
   1 C :   -0.172613
   2 C :   -0.063057
   3 C :   -0.068921
   4 C :   -0.202765
   5 H :    0.044879
   6 C :   -0.034247
   7 H :    0.031134
   8 H :    0.030039
   9 C :   -0.038394
  10 H :    0.023386
  11 H :    0.030580
  12 C :   -0.063406
  13 H :    0.027159
  14 H :    0.030170
  15 H :    0.023174
  16 S :    0.422345
  17 C :   -0.185849
  18 C :   -0.075591
  19 C :   -0.050962
  20 C :   -0.214311
  21 H :    0.035464
  22 C :   -0.034095
  23 H :    0.033122
  24 H :    0.029933
  25 C :   -0.033422
  26 H :    0.032244
  27 H :    0.013874
  28 C :   -0.068918
  29 H :    0.023264
  30 H :    0.029503
  31 H :    0.016136
  32 H :    0.017308
  33 H :    0.033415

  Mayer bond orders larger than 0.100000
B(  0-S ,  1-C ) :   1.1089 B(  0-S ,  4-C ) :   1.1123 B(  1-C ,  2-C ) :   1.6710
B(  1-C , 32-H ) :   0.9588 B(  2-C ,  3-C ) :   1.2097 B(  2-C ,  6-C ) :   1.0062
B(  3-C ,  4-C ) :   1.6384 B(  3-C ,  5-H ) :   0.9631 B(  4-C , 20-C ) :   1.0420
B(  6-C ,  7-H ) :   0.9323 B(  6-C ,  8-H ) :   0.9425 B(  6-C ,  9-C ) :   1.0610
B(  9-C , 10-H ) :   0.9551 B(  9-C , 11-H ) :   0.9578 B(  9-C , 12-C ) :   1.0786
B( 12-C , 13-H ) :   0.9764 B( 12-C , 14-H ) :   0.9739 B( 12-C , 15-H ) :   0.9724
B( 16-S , 17-C ) :   1.1531 B( 16-S , 20-C ) :   1.1565 B( 17-C , 18-C ) :   1.6208
B( 17-C , 33-H ) :   0.9636 B( 18-C , 19-C ) :   1.2518 B( 18-C , 21-H ) :   0.9865
B( 19-C , 20-C ) :   1.5695 B( 19-C , 22-C ) :   1.0452 B( 22-C , 23-H ) :   0.9296
B( 22-C , 24-H ) :   0.9385 B( 22-C , 25-C ) :   1.0621 B( 25-C , 26-H ) :   0.9587
B( 25-C , 27-H ) :   0.9572 B( 25-C , 28-C ) :   1.0826 B( 28-C , 29-H ) :   0.9782
B( 28-C , 30-H ) :   0.9739 B( 28-C , 31-H ) :   0.9741

Dispersion correction           -0.013891218
FINAL SINGLE POINT ENERGY     -1339.856062197019

DIPOLE MOMENT
-------------
                                X             Y             Z
Electronic contribution:    -21.43890       1.95855     -21.08618
Nuclear contribution   :     21.94446      -1.76187      21.63916
                        -----------------------------------------
Total Dipole Moment    :      0.50556       0.19668       0.55298
                        -----------------------------------------
Magnitude (a.u.)       :      0.77464
Magnitude (Debye)      :      1.96897

Rotational constants in cm-1:     0.017304     0.008644     0.006764
Rotational constants in MHz :   518.759606   259.136738   202.780243

                             ****ORCA TERMINATED NORMALLY****
TOTAL RUN TIME: 0 days 0 hours 0 minutes 33 seconds 909 msec
