                         Program Version 4.2.1 -  RELEASE  -
|  1> ! wB97X-D3 SP def2-SVP
|  2> %pal
|  3> nprocs 16
|  4> end
|  5>
|  6> * xyz 0 1
|  7> S 	 -42.801 	 34.4761 	 81.7008
|  8> C 	 -42.9464 	 36.0253 	 80.862
|  9> C 	 -41.8645 	 36.2497 	 79.9753
| 10> C 	 -40.844 	 35.253 	 80.1733
| 11> C 	 -41.2275 	 34.2712 	 81.0592
| 12> H 	 -39.8656 	 35.2886 	 79.5595
| 13> C 	 -41.8021 	 37.3316 	 78.9508
| 14> H 	 -40.9725 	 37.9528 	 79.1956
| 15> H 	 -42.7097 	 37.9941 	 78.9701
| 16> C 	 -41.5789 	 36.9083 	 77.4827
| 17> H 	 -40.5151 	 36.6882 	 77.2964
| 18> H 	 -42.1545 	 36.0319 	 77.2925
| 19> C 	 -41.847 	 38.1236 	 76.4839
| 20> H 	 -41.3075 	 39.0595 	 76.7048
| 21> H 	 -41.5231 	 37.8302 	 75.5022
| 22> H 	 -42.9337 	 38.416 	 76.5357
| 23> S 	 -38.8918 	 33.2796 	 82.1684
| 24> C 	 -38.6284 	 31.581 	 82.022
| 25> C 	 -39.6721 	 30.8003 	 81.4842
| 26> C 	 -40.7616 	 31.6946 	 81.0688
| 27> C 	 -40.482 	 33.0467 	 81.4115
| 28> H 	 -39.5525 	 29.7284 	 81.2709
| 29> C 	 -41.9091 	 31.1939 	 80.3169
| 30> H 	 -42.6942 	 31.9165 	 80.2907
| 31> H 	 -42.343 	 30.3509 	 80.8498
| 32> C 	 -41.7632 	 31.0206 	 78.7758
| 33> H 	 -42.5911 	 30.5115 	 78.2627
| 34> H 	 -40.9498 	 30.2611 	 78.6941
| 35> C 	 -41.3444 	 32.281 	 78.0121
| 36> H 	 -40.3615 	 32.708 	 78.3124
| 37> H 	 -42.0133 	 33.1689 	 78.1602
| 38> H 	 -41.3887 	 32.1106 	 76.8831
| 39> H 	 -43.8285 	 36.6439 	 80.8929
| 40> H 	 -37.6213 	 31.1333 	 82.0168
| 41> *
| 42>
| 43>                          ****END OF INPUT****

CARTESIAN COORDINATES (ANGSTROEM)
---------------------------------
  S    -42.801000   34.476100   81.700800
  C    -42.946400   36.025300   80.862000
  C    -41.864500   36.249700   79.975300
  C    -40.844000   35.253000   80.173300
  C    -41.227500   34.271200   81.059200
  H    -39.865600   35.288600   79.559500
  C    -41.802100   37.331600   78.950800
  H    -40.972500   37.952800   79.195600
  H    -42.709700   37.994100   78.970100
  C    -41.578900   36.908300   77.482700
  H    -40.515100   36.688200   77.296400
  H    -42.154500   36.031900   77.292500
  C    -41.847000   38.123600   76.483900
  H    -41.307500   39.059500   76.704800
  H    -41.523100   37.830200   75.502200
  H    -42.933700   38.416000   76.535700
  S    -38.891800   33.279600   82.168400
  C    -38.628400   31.581000   82.022000
  C    -39.672100   30.800300   81.484200
  C    -40.761600   31.694600   81.068800
  C    -40.482000   33.046700   81.411500
  H    -39.552500   29.728400   81.270900
  C    -41.909100   31.193900   80.316900
  H    -42.694200   31.916500   80.290700
  H    -42.343000   30.350900   80.849800
  C    -41.763200   31.020600   78.775800
  H    -42.591100   30.511500   78.262700
  H    -40.949800   30.261100   78.694100
  C    -41.344400   32.281000   78.012100
  H    -40.361500   32.708000   78.312400
  H    -42.013300   33.168900   78.160200
  H    -41.388700   32.110600   76.883100
  H    -43.828500   36.643900   80.892900
  H    -37.621300   31.133300   82.016800

 Total Charge           Charge          ....    0
 Multiplicity           Mult            ....    1
 Number of Electrons    NEL             ....  134
 Basis Dimension        Dim             ....  322

ORBITAL ENERGIES
----------------

  NO   OCC          E(Eh)            E(eV)
   0   2.0000     -88.970592     -2421.0129
   1   2.0000     -88.969037     -2420.9706
   2   2.0000     -10.329063      -281.0681
   3   2.0000     -10.327440      -281.0239
   4   2.0000     -10.317459      -280.7523
   5   2.0000     -10.315375      -280.6956
   6   2.0000     -10.309178      -280.5270
   7   2.0000     -10.305378      -280.4236
   8   2.0000     -10.301901      -280.3290
   9   2.0000     -10.301359      -280.3142
  10   2.0000     -10.292811      -280.0816
  11   2.0000     -10.292641      -280.0770
  12   2.0000     -10.291361      -280.0422
  13   2.0000     -10.288491      -279.9641
  14   2.0000     -10.283796      -279.8363
  15   2.0000     -10.283541      -279.8294
  16   2.0000      -8.084993      -220.0038
  17   2.0000      -8.083687      -219.9683
  18   2.0000      -6.043365      -164.4483
  19   2.0000      -6.042088      -164.4136
  20   2.0000      -6.039677      -164.3480
  21   2.0000      -6.038233      -164.3087
  22   2.0000      -6.035799      -164.2424
  23   2.0000      -6.034530      -164.2079
  24   2.0000      -1.003470       -27.3058
  25   2.0000      -0.978488       -26.6260
  26   2.0000      -0.911048       -24.7909
  27   2.0000      -0.908782       -24.7292
  28   2.0000      -0.860420       -23.4132
  29   2.0000      -0.848667       -23.0934
  30   2.0000      -0.842588       -22.9280
  31   2.0000      -0.808457       -21.9992
  32   2.0000      -0.783405       -21.3175
  33   2.0000      -0.766914       -20.8688
  34   2.0000      -0.708127       -19.2691
  35   2.0000      -0.698636       -19.0109
  36   2.0000      -0.683253       -18.5923
  37   2.0000      -0.658365       -17.9150
  38   2.0000      -0.634255       -17.2589
  39   2.0000      -0.618711       -16.8360
  40   2.0000      -0.594545       -16.1784
  41   2.0000      -0.570701       -15.5296
  42   2.0000      -0.560998       -15.2655
  43   2.0000      -0.549429       -14.9507
  44   2.0000      -0.540854       -14.7174
  45   2.0000      -0.520508       -14.1637
  46   2.0000      -0.509219       -13.8565
  47   2.0000      -0.503530       -13.7017
  48   2.0000      -0.499412       -13.5897
  49   2.0000      -0.493325       -13.4241
  50   2.0000      -0.481839       -13.1115
  51   2.0000      -0.473212       -12.8767
  52   2.0000      -0.468539       -12.7496
  53   2.0000      -0.461699       -12.5635
  54   2.0000      -0.458638       -12.4802
  55   2.0000      -0.455612       -12.3978
  56   2.0000      -0.447786       -12.1849
  57   2.0000      -0.439907       -11.9705
  58   2.0000      -0.435657       -11.8548
  59   2.0000      -0.429849       -11.6968
  60   2.0000      -0.425533       -11.5793
  61   2.0000      -0.417049       -11.3485
  62   2.0000      -0.397153       -10.8071
  63   2.0000      -0.334887        -9.1127
  64   2.0000      -0.331091        -9.0094
  65   2.0000      -0.327290        -8.9060
  66   2.0000      -0.293137        -7.9767
  67   0.0000       0.032281         0.8784
  68   0.0000       0.066072         1.7979
  69   0.0000       0.103858         2.8261
  70   0.0000       0.110704         3.0124
  71   0.0000       0.122360         3.3296

MULLIKEN ATOMIC CHARGES
-----------------------
   0 S :    0.129777
   1 C :   -0.124849
   2 C :   -0.097304
   3 C :    0.008727
   4 C :   -0.167665
   5 H :    0.047863
   6 C :    0.066805
   7 H :    0.026192
   8 H :    0.023546
   9 C :   -0.085863
  10 H :    0.032211
  11 H :    0.039135
  12 C :   -0.076245
  13 H :    0.034908
  14 H :    0.036933
  15 H :    0.042271
  16 S :    0.129279
  17 C :   -0.103575
  18 C :   -0.047837
  19 C :   -0.039709
  20 C :   -0.165621
  21 H :    0.038450
  22 C :    0.086034
  23 H :   -0.001433
  24 H :    0.034312
  25 C :   -0.061271
  26 H :    0.036261
  27 H :    0.017663
  28 C :   -0.096486
  29 H :    0.044916
  30 H :    0.038307
  31 H :    0.044005
  32 H :    0.042839
  33 H :    0.067424
Sum of atomic charges:   -0.0000000

LOEWDIN ATOMIC CHARGES
----------------------
   0 S :    0.430701
   1 C :   -0.199252
   2 C :   -0.059714
   3 C :   -0.074449
   4 C :   -0.210862
   5 H :    0.047214
   6 C :   -0.038084
   7 H :    0.030326
   8 H :    0.033580
   9 C :   -0.033569
  10 H :    0.024673
  11 H :    0.020211
  12 C :   -0.067649
  13 H :    0.027525
  14 H :    0.023389
  15 H :    0.028928
  16 S :    0.414851
  17 C :   -0.201956
  18 C :   -0.069884
  19 C :   -0.047791
  20 C :   -0.200758
  21 H :    0.038262
  22 C :   -0.044545
  23 H :    0.018872
  24 H :    0.036394
  25 C :   -0.039771
  26 H :    0.028283
  27 H :    0.020495
  28 C :   -0.079861
  29 H :    0.028544
  30 H :    0.026342
  31 H :    0.034880
  32 H :    0.022479
  33 H :    0.032193

  Mayer bond orders larger than 0.100000
B(  0-S ,  1-C ) :   1.1375 B(  0-S ,  4-C ) :   1.1780 B(  1-C ,  2-C ) :   1.5999
B(  1-C , 32-H ) :   0.9694 B(  2-C ,  3-C ) :   1.2416 B(  2-C ,  6-C ) :   1.0407
B(  3-C ,  4-C ) :   1.5691 B(  3-C ,  5-H ) :   0.9786 B(  4-C , 20-C ) :   1.0035
B(  6-C ,  7-H ) :   0.9254 B(  6-C ,  8-H ) :   0.9486 B(  6-C ,  9-C ) :   1.0561
B(  9-C , 10-H ) :   0.9517 B(  9-C , 11-H ) :   0.9640 B(  9-C , 12-C ) :   1.0739
B( 12-C , 13-H ) :   0.9763 B( 12-C , 14-H ) :   0.9774 B( 12-C , 15-H ) :   0.9769
B( 16-S , 17-C ) :   1.1654 B( 16-S , 20-C ) :   1.1388 B( 17-C , 18-C ) :   1.6233
B( 17-C , 33-H ) :   0.9559 B( 18-C , 19-C ) :   1.2214 B( 18-C , 21-H ) :   0.9825
B( 19-C , 20-C ) :   1.5870 B( 19-C , 22-C ) :   1.0703 B( 22-C , 23-H ) :   0.9223
B( 22-C , 24-H ) :   0.9301 B( 22-C , 25-C ) :   1.0496 B( 25-C , 26-H ) :   0.9588
B( 25-C , 27-H ) :   0.9559 B( 25-C , 28-C ) :   1.0712 B( 28-C , 29-H ) :   0.9718
B( 28-C , 30-H ) :   0.9718 B( 28-C , 31-H ) :   0.9719

Dispersion correction           -0.016112953
FINAL SINGLE POINT ENERGY     -1339.872020501755

DIPOLE MOMENT
-------------
                                X             Y             Z
Electronic contribution:      4.89507      -5.70237      26.46673
Nuclear contribution   :     -4.89105       5.75402     -27.18697
                        -----------------------------------------
Total Dipole Moment    :      0.00402       0.05164      -0.72024
                        -----------------------------------------
Magnitude (a.u.)       :      0.72210
Magnitude (Debye)      :      1.83543

Rotational constants in cm-1:     0.020375     0.008405     0.007743
Rotational constants in MHz :   610.816600   251.990022   232.129959

                             ****ORCA TERMINATED NORMALLY****
TOTAL RUN TIME: 0 days 0 hours 0 minutes 29 seconds 639 msec
