                         Program Version 4.2.1 -  RELEASE  -
|  1> ! wB97X-D3 SP def2-SVP
|  2> %pal
|  3> nprocs 16
|  4> end
|  5>
|  6> * xyz 0 1
|  7> S 	 -49.7517 	 60.0967 	 129.717
|  8> C 	 -49.3044 	 59.2551 	 128.305
|  9> C 	 -48.3702 	 58.2697 	 128.614
| 10> C 	 -48.0872 	 58.2193 	 130.024
| 11> C 	 -48.9206 	 59.0299 	 130.815
| 12> H 	 -47.3656 	 57.4568 	 130.428
| 13> C 	 -47.6806 	 57.3176 	 127.571
| 14> H 	 -46.6314 	 57.5581 	 127.593
| 15> H 	 -47.9819 	 57.7179 	 126.553
| 16> C 	 -47.9614 	 55.8759 	 127.72
| 17> H 	 -47.5083 	 55.2719 	 126.841
| 18> H 	 -47.3818 	 55.5134 	 128.52
| 19> C 	 -49.4843 	 55.4505 	 127.762
| 20> H 	 -50.124 	 55.9747 	 127.009
| 21> H 	 -49.7143 	 54.3946 	 127.729
| 22> H 	 -49.9297 	 55.7516 	 128.705
| 23> S 	 -47.3528 	 59.5041 	 133.01
| 24> C 	 -48.0082 	 59.6152 	 134.603
| 25> C 	 -49.3663 	 59.5314 	 134.605
| 26> C 	 -49.9005 	 59.3676 	 133.245
| 27> C 	 -48.9325 	 59.1399 	 132.277
| 28> H 	 -50.0248 	 59.5625 	 135.489
| 29> C 	 -51.385 	 59.1152 	 133.031
| 30> H 	 -51.4648 	 59.2681 	 132.032
| 31> H 	 -51.927 	 59.8942 	 133.508
| 32> C 	 -51.8869 	 57.7238 	 133.557
| 33> H 	 -52.9994 	 57.5678 	 133.318
| 34> H 	 -51.8429 	 57.6499 	 134.677
| 35> C 	 -51.0251 	 56.5129 	 133.107
| 36> H 	 -51.4243 	 55.4929 	 133.038
| 37> H 	 -50.1155 	 56.5445 	 133.704
| 38> H 	 -50.6237 	 56.6862 	 132.145
| 39> H 	 -49.6805 	 59.3508 	 127.308
| 40> H 	 -47.4535 	 59.8647 	 135.478
| 41> *
| 42>
| 43>                          ****END OF INPUT****

CARTESIAN COORDINATES (ANGSTROEM)
---------------------------------
  S    -49.751700   60.096700  129.717000
  C    -49.304400   59.255100  128.305000
  C    -48.370200   58.269700  128.614000
  C    -48.087200   58.219300  130.024000
  C    -48.920600   59.029900  130.815000
  H    -47.365600   57.456800  130.428000
  C    -47.680600   57.317600  127.571000
  H    -46.631400   57.558100  127.593000
  H    -47.981900   57.717900  126.553000
  C    -47.961400   55.875900  127.720000
  H    -47.508300   55.271900  126.841000
  H    -47.381800   55.513400  128.520000
  C    -49.484300   55.450500  127.762000
  H    -50.124000   55.974700  127.009000
  H    -49.714300   54.394600  127.729000
  H    -49.929700   55.751600  128.705000
  S    -47.352800   59.504100  133.010000
  C    -48.008200   59.615200  134.603000
  C    -49.366300   59.531400  134.605000
  C    -49.900500   59.367600  133.245000
  C    -48.932500   59.139900  132.277000
  H    -50.024800   59.562500  135.489000
  C    -51.385000   59.115200  133.031000
  H    -51.464800   59.268100  132.032000
  H    -51.927000   59.894200  133.508000
  C    -51.886900   57.723800  133.557000
  H    -52.999400   57.567800  133.318000
  H    -51.842900   57.649900  134.677000
  C    -51.025100   56.512900  133.107000
  H    -51.424300   55.492900  133.038000
  H    -50.115500   56.544500  133.704000
  H    -50.623700   56.686200  132.145000
  H    -49.680500   59.350800  127.308000
  H    -47.453500   59.864700  135.478000

 Total Charge           Charge          ....    0
 Multiplicity           Mult            ....    1
 Number of Electrons    NEL             ....  134
 Basis Dimension        Dim             ....  322

ORBITAL ENERGIES
----------------

  NO   OCC          E(Eh)            E(eV)
   0   2.0000     -88.969817     -2420.9918
   1   2.0000     -88.963143     -2420.8102
   2   2.0000     -10.337079      -281.2862
   3   2.0000     -10.332598      -281.1643
   4   2.0000     -10.316925      -280.7378
   5   2.0000     -10.312641      -280.6212
   6   2.0000     -10.307724      -280.4874
   7   2.0000     -10.304301      -280.3943
   8   2.0000     -10.302004      -280.3318
   9   2.0000     -10.298732      -280.2427
  10   2.0000     -10.298404      -280.2338
  11   2.0000     -10.297815      -280.2178
  12   2.0000     -10.292608      -280.0761
  13   2.0000     -10.283238      -279.8211
  14   2.0000     -10.280623      -279.7500
  15   2.0000     -10.267197      -279.3846
  16   2.0000      -8.084762      -219.9976
  17   2.0000      -8.078094      -219.8161
  18   2.0000      -6.043311      -164.4468
  19   2.0000      -6.039030      -164.3304
  20   2.0000      -6.036759      -164.2686
  21   2.0000      -6.035654      -164.2385
  22   2.0000      -6.032514      -164.1530
  23   2.0000      -6.028706      -164.0494
  24   2.0000      -1.008558       -27.4442
  25   2.0000      -0.987704       -26.8768
  26   2.0000      -0.910371       -24.7725
  27   2.0000      -0.904202       -24.6046
  28   2.0000      -0.872120       -23.7316
  29   2.0000      -0.842561       -22.9273
  30   2.0000      -0.837507       -22.7897
  31   2.0000      -0.814341       -22.1593
  32   2.0000      -0.786476       -21.4011
  33   2.0000      -0.777900       -21.1677
  34   2.0000      -0.710398       -19.3309
  35   2.0000      -0.700555       -19.0631
  36   2.0000      -0.692990       -18.8572
  37   2.0000      -0.663483       -18.0543
  38   2.0000      -0.632939       -17.2232
  39   2.0000      -0.615808       -16.7570
  40   2.0000      -0.593530       -16.1508
  41   2.0000      -0.570713       -15.5299
  42   2.0000      -0.556680       -15.1480
  43   2.0000      -0.547783       -14.9059
  44   2.0000      -0.541871       -14.7451
  45   2.0000      -0.536826       -14.6078
  46   2.0000      -0.515421       -14.0253
  47   2.0000      -0.511020       -13.9056
  48   2.0000      -0.503639       -13.7047
  49   2.0000      -0.499373       -13.5886
  50   2.0000      -0.481411       -13.0999
  51   2.0000      -0.475907       -12.9501
  52   2.0000      -0.471341       -12.8258
  53   2.0000      -0.464583       -12.6419
  54   2.0000      -0.455843       -12.4041
  55   2.0000      -0.454135       -12.3576
  56   2.0000      -0.441441       -12.0122
  57   2.0000      -0.439733       -11.9657
  58   2.0000      -0.438171       -11.9232
  59   2.0000      -0.421806       -11.4779
  60   2.0000      -0.417201       -11.3526
  61   2.0000      -0.405606       -11.0371
  62   2.0000      -0.402658       -10.9569
  63   2.0000      -0.350500        -9.5376
  64   2.0000      -0.331879        -9.0309
  65   2.0000      -0.327094        -8.9007
  66   2.0000      -0.298791        -8.1305
  67   0.0000       0.025809         0.7023
  68   0.0000       0.072393         1.9699
  69   0.0000       0.104800         2.8518
  70   0.0000       0.118407         3.2220
  71   0.0000       0.131389         3.5753

MULLIKEN ATOMIC CHARGES
-----------------------
   0 S :    0.131681
   1 C :   -0.106715
   2 C :   -0.134717
   3 C :   -0.003060
   4 C :   -0.137763
   5 H :    0.036253
   6 C :    0.079844
   7 H :    0.036690
   8 H :    0.016174
   9 C :   -0.067394
  10 H :    0.038808
  11 H :    0.020377
  12 C :   -0.058131
  13 H :    0.032019
  14 H :    0.035522
  15 H :    0.032552
  16 S :    0.098340
  17 C :   -0.061648
  18 C :   -0.034788
  19 C :   -0.126077
  20 C :   -0.139281
  21 H :    0.031788
  22 C :    0.168226
  23 H :   -0.013137
  24 H :    0.017604
  25 C :   -0.117983
  26 H :    0.047156
  27 H :    0.034876
  28 C :   -0.033791
  29 H :    0.042343
  30 H :    0.031050
  31 H :    0.010572
  32 H :    0.040524
  33 H :    0.052084
Sum of atomic charges:   -0.0000000

LOEWDIN ATOMIC CHARGES
----------------------
   0 S :    0.439029
   1 C :   -0.214453
   2 C :   -0.065314
   3 C :   -0.073409
   4 C :   -0.207217
   5 H :    0.037915
   6 C :   -0.031791
   7 H :    0.033883
   8 H :    0.031197
   9 C :   -0.047181
  10 H :    0.036199
  11 H :    0.017221
  12 C :   -0.070931
  13 H :    0.029679
  14 H :    0.025679
  15 H :    0.025017
  16 S :    0.404584
  17 C :   -0.179822
  18 C :   -0.076121
  19 C :   -0.049144
  20 C :   -0.194176
  21 H :    0.036750
  22 C :   -0.020055
  23 H :    0.008853
  24 H :    0.030356
  25 C :   -0.042325
  26 H :    0.031576
  27 H :    0.025364
  28 C :   -0.074921
  29 H :    0.030066
  30 H :    0.028689
  31 H :    0.018248
  32 H :    0.028656
  33 H :    0.027899

  Mayer bond orders larger than 0.100000
B(  0-S ,  1-C ) :   1.1603 B(  0-S ,  4-C ) :   1.1541 B(  1-C ,  2-C ) :   1.5877
B(  1-C , 32-H ) :   0.9667 B(  2-C ,  3-C ) :   1.2814 B(  2-C ,  6-C ) :   1.0038
B(  3-C ,  4-C ) :   1.5185 B(  3-C ,  5-H ) :   0.9861 B(  4-C , 20-C ) :   1.0608
B(  6-C ,  7-H ) :   0.9418 B(  6-C ,  8-H ) :   0.9413 B(  6-C ,  9-C ) :   1.0815
B(  9-C , 10-H ) :   0.9534 B(  9-C , 11-H ) :   0.9548 B(  9-C , 12-C ) :   1.0577
B( 12-C , 13-H ) :   0.9775 B( 12-C , 14-H ) :   0.9780 B( 12-C , 15-H ) :   0.9726
B( 16-S , 17-C ) :   1.1570 B( 16-S , 20-C ) :   1.1202 B( 17-C , 18-C ) :   1.6144
B( 17-C , 33-H ) :   0.9689 B( 18-C , 19-C ) :   1.2154 B( 18-C , 21-H ) :   0.9881
B( 19-C , 20-C ) :   1.6006 B( 19-C , 22-C ) :   1.0524 B( 22-C , 23-H ) :   0.9256
B( 22-C , 24-H ) :   0.9263 B( 22-C , 25-C ) :   1.0583 B( 25-C , 26-H ) :   0.9601
B( 25-C , 27-H ) :   0.9626 B( 25-C , 28-C ) :   1.0563 B( 28-C , 29-H ) :   0.9763
B( 28-C , 30-H ) :   0.9674 B( 28-C , 31-H ) :   0.9771

Dispersion correction           -0.015691840
FINAL SINGLE POINT ENERGY     -1339.867839043492

DIPOLE MOMENT
-------------
                                X             Y             Z
Electronic contribution:      9.00098      20.37073       5.99644
Nuclear contribution   :     -9.08731     -20.68160      -6.00158
                        -----------------------------------------
Total Dipole Moment    :     -0.08632      -0.31088      -0.00514
                        -----------------------------------------
Magnitude (a.u.)       :      0.32268
Magnitude (Debye)      :      0.82019

Rotational constants in cm-1:     0.020370     0.008605     0.007794
Rotational constants in MHz :   610.664341   257.956543   233.658779

                             ****ORCA TERMINATED NORMALLY****
TOTAL RUN TIME: 0 days 0 hours 0 minutes 36 seconds 263 msec
