                         Program Version 4.2.1 -  RELEASE  -
|  1> ! wB97X-D3 SP def2-SVP
|  2> %pal
|  3> nprocs 16
|  4> end
|  5>
|  6> * xyz 0 1
|  7> S 	 28.2579 	 -1.64613 	 73.6778
|  8> C 	 28.2457 	 -0.249202 	 74.7547
|  9> C 	 29.1845 	 -0.451085 	 75.7883
| 10> C 	 29.9267 	 -1.67535 	 75.5945
| 11> C 	 29.4016 	 -2.48196 	 74.6164
| 12> H 	 30.6721 	 -2.05069 	 76.2193
| 13> C 	 29.3867 	 0.522135 	 76.9429
| 14> H 	 28.4138 	 0.901125 	 77.2645
| 15> H 	 29.8859 	 1.35662 	 76.4682
| 16> C 	 30.2498 	 0.119468 	 78.1297
| 17> H 	 29.8002 	 -0.734144 	 78.689
| 18> H 	 31.151 	 -0.283058 	 77.7615
| 19> C 	 30.5494 	 1.37805 	 79.0037
| 20> H 	 30.8896 	 2.14029 	 78.3388
| 21> H 	 29.5716 	 1.7425 	 79.4195
| 22> H 	 31.2218 	 1.12484 	 79.8404
| 23> S 	 28.6916 	 -5.12704 	 74.873
| 24> C 	 29.899 	 -6.34737 	 74.6852
| 25> C 	 31.028 	 -5.85059 	 74.017
| 26> C 	 30.99 	 -4.48107 	 73.8385
| 27> C 	 29.8058 	 -3.83962 	 74.3054
| 28> H 	 31.8164 	 -6.52029 	 73.6906
| 29> C 	 32.1333 	 -3.65365 	 73.2564
| 30> H 	 32.7016 	 -3.12393 	 74.0309
| 31> H 	 31.5878 	 -2.90718 	 72.7445
| 32> C 	 33.0412 	 -4.27952 	 72.1143
| 33> H 	 32.3688 	 -4.51884 	 71.3018
| 34> H 	 33.397 	 -5.12078 	 72.5813
| 35> C 	 34.3311 	 -3.4735 	 71.9219
| 36> H 	 34.9621 	 -3.90444 	 71.1146
| 37> H 	 35.011 	 -3.37563 	 72.7597
| 38> H 	 34.1196 	 -2.43538 	 71.7345
| 39> H 	 27.4823 	 0.539872 	 74.7245
| 40> H 	 29.6859 	 -7.39124 	 74.9217
| 41> *
| 42>
| 43>                          ****END OF INPUT****

CARTESIAN COORDINATES (ANGSTROEM)
---------------------------------
  S     28.257900   -1.646130   73.677800
  C     28.245700   -0.249202   74.754700
  C     29.184500   -0.451085   75.788300
  C     29.926700   -1.675350   75.594500
  C     29.401600   -2.481960   74.616400
  H     30.672100   -2.050690   76.219300
  C     29.386700    0.522135   76.942900
  H     28.413800    0.901125   77.264500
  H     29.885900    1.356620   76.468200
  C     30.249800    0.119468   78.129700
  H     29.800200   -0.734144   78.689000
  H     31.151000   -0.283058   77.761500
  C     30.549400    1.378050   79.003700
  H     30.889600    2.140290   78.338800
  H     29.571600    1.742500   79.419500
  H     31.221800    1.124840   79.840400
  S     28.691600   -5.127040   74.873000
  C     29.899000   -6.347370   74.685200
  C     31.028000   -5.850590   74.017000
  C     30.990000   -4.481070   73.838500
  C     29.805800   -3.839620   74.305400
  H     31.816400   -6.520290   73.690600
  C     32.133300   -3.653650   73.256400
  H     32.701600   -3.123930   74.030900
  H     31.587800   -2.907180   72.744500
  C     33.041200   -4.279520   72.114300
  H     32.368800   -4.518840   71.301800
  H     33.397000   -5.120780   72.581300
  C     34.331100   -3.473500   71.921900
  H     34.962100   -3.904440   71.114600
  H     35.011000   -3.375630   72.759700
  H     34.119600   -2.435380   71.734500
  H     27.482300    0.539872   74.724500
  H     29.685900   -7.391240   74.921700

 Total Charge           Charge          ....    0
 Multiplicity           Mult            ....    1
 Number of Electrons    NEL             ....  134
 Basis Dimension        Dim             ....  322

ORBITAL ENERGIES
----------------

  NO   OCC          E(Eh)            E(eV)
   0   2.0000     -88.964628     -2420.8506
   1   2.0000     -88.963514     -2420.8203
   2   2.0000     -10.327117      -281.0151
   3   2.0000     -10.324007      -280.9305
   4   2.0000     -10.320638      -280.8388
   5   2.0000     -10.315314      -280.6940
   6   2.0000     -10.306700      -280.4596
   7   2.0000     -10.305686      -280.4320
   8   2.0000     -10.292447      -280.0717
   9   2.0000     -10.291381      -280.0427
  10   2.0000     -10.288625      -279.9677
  11   2.0000     -10.286949      -279.9221
  12   2.0000     -10.285430      -279.8808
  13   2.0000     -10.284932      -279.8672
  14   2.0000     -10.283861      -279.8381
  15   2.0000     -10.279829      -279.7284
  16   2.0000      -8.079164      -219.8452
  17   2.0000      -8.078868      -219.8372
  18   2.0000      -6.037465      -164.2878
  19   2.0000      -6.037275      -164.2826
  20   2.0000      -6.033506      -164.1800
  21   2.0000      -6.033124      -164.1697
  22   2.0000      -6.030346      -164.0941
  23   2.0000      -6.029863      -164.0809
  24   2.0000      -1.005744       -27.3677
  25   2.0000      -0.982625       -26.7386
  26   2.0000      -0.913758       -24.8646
  27   2.0000      -0.905191       -24.6315
  28   2.0000      -0.867771       -23.6132
  29   2.0000      -0.852305       -23.1924
  30   2.0000      -0.844552       -22.9814
  31   2.0000      -0.812504       -22.1094
  32   2.0000      -0.781226       -21.2583
  33   2.0000      -0.767727       -20.8909
  34   2.0000      -0.714417       -19.4403
  35   2.0000      -0.707560       -19.2537
  36   2.0000      -0.689076       -18.7507
  37   2.0000      -0.650842       -17.7103
  38   2.0000      -0.644853       -17.5473
  39   2.0000      -0.618992       -16.8436
  40   2.0000      -0.596184       -16.2230
  41   2.0000      -0.571396       -15.5485
  42   2.0000      -0.570438       -15.5224
  43   2.0000      -0.565969       -15.4008
  44   2.0000      -0.530456       -14.4344
  45   2.0000      -0.522246       -14.2110
  46   2.0000      -0.512848       -13.9553
  47   2.0000      -0.508814       -13.8455
  48   2.0000      -0.505337       -13.7509
  49   2.0000      -0.499831       -13.6011
  50   2.0000      -0.494140       -13.4462
  51   2.0000      -0.476903       -12.9772
  52   2.0000      -0.473142       -12.8748
  53   2.0000      -0.462310       -12.5801
  54   2.0000      -0.459123       -12.4934
  55   2.0000      -0.453203       -12.3323
  56   2.0000      -0.450122       -12.2484
  57   2.0000      -0.441838       -12.0230
  58   2.0000      -0.436023       -11.8648
  59   2.0000      -0.426583       -11.6079
  60   2.0000      -0.417205       -11.3527
  61   2.0000      -0.412256       -11.2181
  62   2.0000      -0.406964       -11.0741
  63   2.0000      -0.337661        -9.1882
  64   2.0000      -0.327404        -8.9091
  65   2.0000      -0.321830        -8.7574
  66   2.0000      -0.298609        -8.1256
  67   0.0000       0.034684         0.9438
  68   0.0000       0.053253         1.4491
  69   0.0000       0.123578         3.3627
  70   0.0000       0.124228         3.3804
  71   0.0000       0.134443         3.6584

MULLIKEN ATOMIC CHARGES
-----------------------
   0 S :    0.119469
   1 C :   -0.140775
   2 C :   -0.086703
   3 C :    0.059269
   4 C :   -0.161860
   5 H :   -0.010770
   6 C :    0.045001
   7 H :    0.027209
   8 H :    0.032761
   9 C :   -0.077152
  10 H :    0.039176
  11 H :    0.019163
  12 C :   -0.040872
  13 H :    0.027323
  14 H :    0.032492
  15 H :    0.048802
  16 S :    0.111033
  17 C :   -0.101230
  18 C :   -0.053585
  19 C :   -0.006745
  20 C :   -0.188614
  21 H :    0.023755
  22 C :    0.045855
  23 H :    0.036772
  24 H :    0.020259
  25 C :   -0.035455
  26 H :    0.044976
  27 H :    0.012707
  28 C :   -0.053652
  29 H :    0.041187
  30 H :    0.026185
  31 H :    0.021777
  32 H :    0.057173
  33 H :    0.065069
Sum of atomic charges:    0.0000000

LOEWDIN ATOMIC CHARGES
----------------------
   0 S :    0.426173
   1 C :   -0.209536
   2 C :   -0.051721
   3 C :   -0.059709
   4 C :   -0.217692
   5 H :    0.020685
   6 C :   -0.035929
   7 H :    0.031022
   8 H :    0.034975
   9 C :   -0.041665
  10 H :    0.027951
  11 H :    0.014179
  12 C :   -0.058794
  13 H :    0.021097
  14 H :    0.029694
  15 H :    0.030835
  16 S :    0.413367
  17 C :   -0.185598
  18 C :   -0.083442
  19 C :   -0.050313
  20 C :   -0.201637
  21 H :    0.033845
  22 C :   -0.032585
  23 H :    0.032090
  24 H :    0.026074
  25 C :   -0.029346
  26 H :    0.030615
  27 H :    0.010702
  28 C :   -0.065835
  29 H :    0.032096
  30 H :    0.027074
  31 H :    0.020330
  32 H :    0.031086
  33 H :    0.029913

  Mayer bond orders larger than 0.100000
B(  0-S ,  1-C ) :   1.1404 B(  0-S ,  4-C ) :   1.1789 B(  1-C ,  2-C ) :   1.5910
B(  1-C ,  4-C ) :   0.1015 B(  1-C , 32-H ) :   0.9721 B(  2-C ,  3-C ) :   1.2507
B(  2-C ,  6-C ) :   1.0049 B(  3-C ,  4-C ) :   1.5655 B(  3-C ,  5-H ) :   0.9998
B(  4-C , 20-C ) :   1.0098 B(  6-C ,  7-H ) :   0.9432 B(  6-C ,  8-H ) :   0.9348
B(  6-C ,  9-C ) :   1.0790 B(  9-C , 10-H ) :   0.9560 B(  9-C , 11-H ) :   0.9442
B(  9-C , 12-C ) :   1.0787 B( 12-C , 13-H ) :   0.9752 B( 12-C , 14-H ) :   0.9760
B( 12-C , 15-H ) :   0.9740 B( 16-S , 17-C ) :   1.2063 B( 16-S , 20-C ) :   1.1515
B( 17-C , 18-C ) :   1.5275 B( 17-C , 20-C ) :   0.1241 B( 17-C , 33-H ) :   0.9657
B( 18-C , 19-C ) :   1.2989 B( 18-C , 21-H ) :   0.9948 B( 19-C , 20-C ) :   1.5442
B( 19-C , 22-C ) :   1.0148 B( 22-C , 23-H ) :   0.9397 B( 22-C , 24-H ) :   0.9314
B( 22-C , 25-C ) :   1.0588 B( 25-C , 26-H ) :   0.9642 B( 25-C , 27-H ) :   0.9537
B( 25-C , 28-C ) :   1.0740 B( 28-C , 29-H ) :   0.9731 B( 28-C , 30-H ) :   0.9738
B( 28-C , 31-H ) :   0.9760

Dispersion correction           -0.013370462
FINAL SINGLE POINT ENERGY     -1339.862332362438

DIPOLE MOMENT
-------------
                                X             Y             Z
Electronic contribution:    -21.08852     -12.63605      -6.84044
Nuclear contribution   :     21.59705      12.76771       7.13485
                        -----------------------------------------
Total Dipole Moment    :      0.50853       0.13166       0.29441
                        -----------------------------------------
Magnitude (a.u.)       :      0.60218
Magnitude (Debye)      :      1.53061

Rotational constants in cm-1:     0.016728     0.007518     0.006581
Rotational constants in MHz :   501.480226   225.395920   197.288863

                             ****ORCA TERMINATED NORMALLY****
TOTAL RUN TIME: 0 days 0 hours 0 minutes 28 seconds 716 msec
