                         Program Version 4.2.1 -  RELEASE  -
|  1> ! wB97X-D3 SP def2-SVP
|  2> %pal
|  3> nprocs 16
|  4> end
|  5>
|  6> * xyz 0 1
|  7> S 	 -63.0871 	 58.8388 	 123.836
|  8> C 	 -63.5962 	 59.4069 	 125.414
|  9> C 	 -63.4476 	 58.5623 	 126.452
| 10> C 	 -62.7057 	 57.4148 	 125.993
| 11> C 	 -62.4876 	 57.3434 	 124.59
| 12> H 	 -62.5054 	 56.596 	 126.775
| 13> C 	 -63.9544 	 58.9127 	 127.852
| 14> H 	 -64.4531 	 58.0412 	 128.202
| 15> H 	 -64.6793 	 59.7988 	 127.754
| 16> C 	 -62.8435 	 59.201 	 128.805
| 17> H 	 -62.2349 	 58.3451 	 128.986
| 18> H 	 -62.1566 	 59.9266 	 128.274
| 19> C 	 -63.3114 	 59.8731 	 130.043
| 20> H 	 -62.5548 	 60.1736 	 130.822
| 21> H 	 -63.7888 	 60.7942 	 129.685
| 22> H 	 -64.1492 	 59.2852 	 130.579
| 23> S 	 -61.0711 	 56.8562 	 122.344
| 24> C 	 -60.5363 	 55.2411 	 121.96
| 25> C 	 -60.4677 	 54.4998 	 123.123
| 26> C 	 -61.1609 	 55.0923 	 124.207
| 27> C 	 -61.6204 	 56.3657 	 123.944
| 28> H 	 -60.1218 	 53.4679 	 123.014
| 29> C 	 -61.4883 	 54.2988 	 125.476
| 30> H 	 -62.5877 	 54.3775 	 125.578
| 31> H 	 -61.0045 	 54.7602 	 126.357
| 32> C 	 -61.0475 	 52.7991 	 125.541
| 33> H 	 -59.9691 	 52.8003 	 125.696
| 34> H 	 -61.2228 	 52.2622 	 124.558
| 35> C 	 -61.7468 	 52.0019 	 126.668
| 36> H 	 -62.8005 	 51.9206 	 126.402
| 37> H 	 -61.6827 	 52.5396 	 127.661
| 38> H 	 -61.3035 	 51.0318 	 126.662
| 39> H 	 -64.0682 	 60.4159 	 125.54
| 40> H 	 -59.9542 	 54.9971 	 121.042
| 41> *
| 42>
| 43>                          ****END OF INPUT****

CARTESIAN COORDINATES (ANGSTROEM)
---------------------------------
  S    -63.087100   58.838800  123.836000
  C    -63.596200   59.406900  125.414000
  C    -63.447600   58.562300  126.452000
  C    -62.705700   57.414800  125.993000
  C    -62.487600   57.343400  124.590000
  H    -62.505400   56.596000  126.775000
  C    -63.954400   58.912700  127.852000
  H    -64.453100   58.041200  128.202000
  H    -64.679300   59.798800  127.754000
  C    -62.843500   59.201000  128.805000
  H    -62.234900   58.345100  128.986000
  H    -62.156600   59.926600  128.274000
  C    -63.311400   59.873100  130.043000
  H    -62.554800   60.173600  130.822000
  H    -63.788800   60.794200  129.685000
  H    -64.149200   59.285200  130.579000
  S    -61.071100   56.856200  122.344000
  C    -60.536300   55.241100  121.960000
  C    -60.467700   54.499800  123.123000
  C    -61.160900   55.092300  124.207000
  C    -61.620400   56.365700  123.944000
  H    -60.121800   53.467900  123.014000
  C    -61.488300   54.298800  125.476000
  H    -62.587700   54.377500  125.578000
  H    -61.004500   54.760200  126.357000
  C    -61.047500   52.799100  125.541000
  H    -59.969100   52.800300  125.696000
  H    -61.222800   52.262200  124.558000
  C    -61.746800   52.001900  126.668000
  H    -62.800500   51.920600  126.402000
  H    -61.682700   52.539600  127.661000
  H    -61.303500   51.031800  126.662000
  H    -64.068200   60.415900  125.540000
  H    -59.954200   54.997100  121.042000

 Total Charge           Charge          ....    0
 Multiplicity           Mult            ....    1
 Number of Electrons    NEL             ....  134
 Basis Dimension        Dim             ....  322

ORBITAL ENERGIES
----------------

  NO   OCC          E(Eh)            E(eV)
   0   2.0000     -88.971577     -2421.0397
   1   2.0000     -88.960149     -2420.7287
   2   2.0000     -10.339841      -281.3614
   3   2.0000     -10.328505      -281.0529
   4   2.0000     -10.316829      -280.7352
   5   2.0000     -10.314256      -280.6652
   6   2.0000     -10.307150      -280.4718
   7   2.0000     -10.304112      -280.3891
   8   2.0000     -10.300115      -280.2804
   9   2.0000     -10.299147      -280.2540
  10   2.0000     -10.297763      -280.2164
  11   2.0000     -10.294046      -280.1152
  12   2.0000     -10.293412      -280.0980
  13   2.0000     -10.287963      -279.9497
  14   2.0000     -10.284894      -279.8662
  15   2.0000     -10.283981      -279.8413
  16   2.0000      -8.085512      -220.0180
  17   2.0000      -8.075318      -219.7406
  18   2.0000      -6.044173      -164.4703
  19   2.0000      -6.040275      -164.3643
  20   2.0000      -6.036005      -164.2480
  21   2.0000      -6.033788      -164.1877
  22   2.0000      -6.029809      -164.0795
  23   2.0000      -6.026050      -163.9771
  24   2.0000      -1.006783       -27.3960
  25   2.0000      -0.985063       -26.8049
  26   2.0000      -0.924234       -25.1497
  27   2.0000      -0.903729       -24.5917
  28   2.0000      -0.873410       -23.7667
  29   2.0000      -0.853340       -23.2206
  30   2.0000      -0.843686       -22.9579
  31   2.0000      -0.810980       -22.0679
  32   2.0000      -0.781115       -21.2552
  33   2.0000      -0.772238       -21.0137
  34   2.0000      -0.708172       -19.2703
  35   2.0000      -0.697390       -18.9769
  36   2.0000      -0.692085       -18.8326
  37   2.0000      -0.653238       -17.7755
  38   2.0000      -0.628051       -17.0901
  39   2.0000      -0.620136       -16.8747
  40   2.0000      -0.594442       -16.1756
  41   2.0000      -0.578818       -15.7504
  42   2.0000      -0.567751       -15.4493
  43   2.0000      -0.565235       -15.3808
  44   2.0000      -0.530163       -14.4265
  45   2.0000      -0.525139       -14.2897
  46   2.0000      -0.516756       -14.0616
  47   2.0000      -0.509423       -13.8621
  48   2.0000      -0.506222       -13.7750
  49   2.0000      -0.493257       -13.4222
  50   2.0000      -0.485547       -13.2124
  51   2.0000      -0.477784       -13.0012
  52   2.0000      -0.473058       -12.8726
  53   2.0000      -0.461109       -12.5474
  54   2.0000      -0.458471       -12.4756
  55   2.0000      -0.450113       -12.2482
  56   2.0000      -0.447815       -12.1857
  57   2.0000      -0.439114       -11.9489
  58   2.0000      -0.432663       -11.7733
  59   2.0000      -0.427455       -11.6316
  60   2.0000      -0.421803       -11.4779
  61   2.0000      -0.413423       -11.2498
  62   2.0000      -0.410304       -11.1649
  63   2.0000      -0.362498        -9.8641
  64   2.0000      -0.335530        -9.1302
  65   2.0000      -0.329585        -8.9685
  66   2.0000      -0.280366        -7.6292
  67   0.0000       0.015849         0.4313
  68   0.0000       0.087211         2.3731
  69   0.0000       0.092013         2.5038
  70   0.0000       0.119276         3.2457
  71   0.0000       0.137213         3.7337

MULLIKEN ATOMIC CHARGES
-----------------------
   0 S :    0.115742
   1 C :   -0.157865
   2 C :   -0.074223
   3 C :   -0.049872
   4 C :   -0.099710
   5 H :    0.037126
   6 C :    0.080001
   7 H :    0.022550
   8 H :    0.035630
   9 C :   -0.068338
  10 H :    0.024301
  11 H :    0.033563
  12 C :   -0.068418
  13 H :    0.051785
  14 H :    0.024355
  15 H :    0.034786
  16 S :    0.075026
  17 C :   -0.106210
  18 C :   -0.054127
  19 C :   -0.044520
  20 C :   -0.116273
  21 H :    0.031778
  22 C :    0.010282
  23 H :    0.043297
  24 H :    0.049068
  25 C :   -0.119358
  26 H :    0.033884
  27 H :    0.041045
  28 C :   -0.032842
  29 H :    0.036064
  30 H :    0.040997
  31 H :    0.037215
  32 H :    0.058889
  33 H :    0.074372
Sum of atomic charges:   -0.0000000

LOEWDIN ATOMIC CHARGES
----------------------
   0 S :    0.391661
   1 C :   -0.194677
   2 C :   -0.070241
   3 C :   -0.069465
   4 C :   -0.188351
   5 H :    0.039952
   6 C :   -0.022228
   7 H :    0.027579
   8 H :    0.040066
   9 C :   -0.051157
  10 H :    0.018697
  11 H :    0.031857
  12 C :   -0.075563
  13 H :    0.033184
  14 H :    0.024593
  15 H :    0.029932
  16 S :    0.392135
  17 C :   -0.193527
  18 C :   -0.077603
  19 C :   -0.064021
  20 C :   -0.180783
  21 H :    0.035558
  22 C :   -0.038050
  23 H :    0.034232
  24 H :    0.033792
  25 C :   -0.047668
  26 H :    0.021501
  27 H :    0.026637
  28 C :   -0.062039
  29 H :    0.026055
  30 H :    0.031208
  31 H :    0.025213
  32 H :    0.033509
  33 H :    0.038012

  Mayer bond orders larger than 0.100000
B(  0-S ,  1-C ) :   1.1335 B(  0-S ,  4-C ) :   1.1263 B(  1-C ,  2-C ) :   1.6424
B(  1-C , 32-H ) :   0.9487 B(  2-C ,  3-C ) :   1.2463 B(  2-C ,  6-C ) :   1.0182
B(  3-C ,  4-C ) :   1.5497 B(  3-C ,  5-H ) :   0.9681 B(  4-C , 20-C ) :   1.1056
B(  6-C ,  7-H ) :   0.9221 B(  6-C ,  8-H ) :   0.9459 B(  6-C ,  9-C ) :   1.0627
B(  9-C , 10-H ) :   0.9490 B(  9-C , 11-H ) :   0.9553 B(  9-C , 12-C ) :   1.0839
B( 12-C , 13-H ) :   0.9729 B( 12-C , 14-H ) :   0.9729 B( 12-C , 15-H ) :   0.9695
B( 16-S , 17-C ) :   1.1583 B( 16-S , 20-C ) :   1.1287 B( 17-C , 18-C ) :   1.6008
B( 17-C , 33-H ) :   0.9561 B( 18-C , 19-C ) :   1.2633 B( 18-C , 21-H ) :   0.9802
B( 19-C , 20-C ) :   1.5888 B( 19-C , 22-C ) :   1.0244 B( 22-C , 23-H ) :   0.9391
B( 22-C , 24-H ) :   0.9275 B( 22-C , 25-C ) :   1.0742 B( 25-C , 26-H ) :   0.9526
B( 25-C , 27-H ) :   0.9513 B( 25-C , 28-C ) :   1.0802 B( 28-C , 29-H ) :   0.9763
B( 28-C , 30-H ) :   0.9742 B( 28-C , 31-H ) :   0.9720

Dispersion correction           -0.013115998
FINAL SINGLE POINT ENERGY     -1339.872741798151

DIPOLE MOMENT
-------------
                                X             Y             Z
Electronic contribution:      2.26074      10.33514     -28.78528
Nuclear contribution   :     -2.26430     -10.65300      29.44951
                        -----------------------------------------
Total Dipole Moment    :     -0.00357      -0.31786       0.66423
                        -----------------------------------------
Magnitude (a.u.)       :      0.73638
Magnitude (Debye)      :      1.87173

Rotational constants in cm-1:     0.016898     0.008271     0.005824
Rotational constants in MHz :   506.579227   247.959567   174.613224

                             ****ORCA TERMINATED NORMALLY****
TOTAL RUN TIME: 0 days 0 hours 0 minutes 33 seconds 84 msec
