                         Program Version 4.2.1 -  RELEASE  -
|  1> ! wB97X-D3 SP def2-SVP
|  2> %pal
|  3> nprocs 16
|  4> end
|  5>
|  6> * xyz 0 1
|  7> S 	 54.2846 	 3.39946 	 84.2999
|  8> C 	 53.9366 	 3.84259 	 82.6587
|  9> C 	 54.0704 	 2.82067 	 81.8018
| 10> C 	 54.3378 	 1.62038 	 82.5041
| 11> C 	 54.4879 	 1.68877 	 83.8754
| 12> H 	 54.3369 	 0.66796 	 81.993
| 13> C 	 53.9806 	 2.9406 	 80.2859
| 14> H 	 53.4546 	 3.935 	 80.0133
| 15> H 	 53.4365 	 1.9888 	 80.028
| 16> C 	 55.267 	 2.84421 	 79.4217
| 17> H 	 55.8334 	 3.65563 	 79.767
| 18> H 	 55.7069 	 1.93001 	 79.5198
| 19> C 	 54.891 	 3.03263 	 78.0228
| 20> H 	 55.8251 	 3.00329 	 77.4228
| 21> H 	 54.1711 	 2.29389 	 77.7184
| 22> H 	 54.48 	 3.98503 	 77.9429
| 23> S 	 53.2236 	 0.0304753 	 85.6281
| 24> C 	 54.2018 	 -1.28929 	 86.3241
| 25> C 	 55.4913 	 -1.16346 	 86.0563
| 26> C 	 55.8542 	 -0.0925217 	 85.1431
| 27> C 	 54.6924 	 0.635126 	 84.8425
| 28> H 	 56.2186 	 -1.75485 	 86.6007
| 29> C 	 57.3016 	 0.263082 	 84.7425
| 30> H 	 57.5593 	 1.12804 	 85.2663
| 31> H 	 57.1611 	 0.680565 	 83.7373
| 32> C 	 58.3883 	 -0.869119 	 84.6707
| 33> H 	 57.9348 	 -1.8052 	 84.425
| 34> H 	 58.8381 	 -1.04049 	 85.6344
| 35> C 	 59.4506 	 -0.64211 	 83.6453
| 36> H 	 60.3903 	 -1.15427 	 83.8064
| 37> H 	 59.7059 	 0.42377 	 83.6731
| 38> H 	 59.1187 	 -0.801563 	 82.5528
| 39> H 	 53.705 	 4.89434 	 82.3992
| 40> H 	 53.7128 	 -1.99139 	 87.0652
| 41> *
| 42>
| 43>                          ****END OF INPUT****

CARTESIAN COORDINATES (ANGSTROEM)
---------------------------------
  S     54.284600    3.399460   84.299900
  C     53.936600    3.842590   82.658700
  C     54.070400    2.820670   81.801800
  C     54.337800    1.620380   82.504100
  C     54.487900    1.688770   83.875400
  H     54.336900    0.667960   81.993000
  C     53.980600    2.940600   80.285900
  H     53.454600    3.935000   80.013300
  H     53.436500    1.988800   80.028000
  C     55.267000    2.844210   79.421700
  H     55.833400    3.655630   79.767000
  H     55.706900    1.930010   79.519800
  C     54.891000    3.032630   78.022800
  H     55.825100    3.003290   77.422800
  H     54.171100    2.293890   77.718400
  H     54.480000    3.985030   77.942900
  S     53.223600    0.030475   85.628100
  C     54.201800   -1.289290   86.324100
  C     55.491300   -1.163460   86.056300
  C     55.854200   -0.092522   85.143100
  C     54.692400    0.635126   84.842500
  H     56.218600   -1.754850   86.600700
  C     57.301600    0.263082   84.742500
  H     57.559300    1.128040   85.266300
  H     57.161100    0.680565   83.737300
  C     58.388300   -0.869119   84.670700
  H     57.934800   -1.805200   84.425000
  H     58.838100   -1.040490   85.634400
  C     59.450600   -0.642110   83.645300
  H     60.390300   -1.154270   83.806400
  H     59.705900    0.423770   83.673100
  H     59.118700   -0.801563   82.552800
  H     53.705000    4.894340   82.399200
  H     53.712800   -1.991390   87.065200

 Total Charge           Charge          ....    0
 Multiplicity           Mult            ....    1
 Number of Electrons    NEL             ....  134
 Basis Dimension        Dim             ....  322

ORBITAL ENERGIES
----------------

  NO   OCC          E(Eh)            E(eV)
   0   2.0000     -88.962063     -2420.7808
   1   2.0000     -88.958340     -2420.6795
   2   2.0000     -10.326749      -281.0051
   3   2.0000     -10.326057      -280.9863
   4   2.0000     -10.318550      -280.7820
   5   2.0000     -10.311812      -280.5987
   6   2.0000     -10.309463      -280.5347
   7   2.0000     -10.301552      -280.3195
   8   2.0000     -10.294397      -280.1248
   9   2.0000     -10.292595      -280.0758
  10   2.0000     -10.290514      -280.0191
  11   2.0000     -10.290444      -280.0172
  12   2.0000     -10.287786      -279.9449
  13   2.0000     -10.282790      -279.8089
  14   2.0000     -10.270383      -279.4713
  15   2.0000     -10.268732      -279.4264
  16   2.0000      -8.076425      -219.7707
  17   2.0000      -8.073455      -219.6899
  18   2.0000      -6.034982      -164.2202
  19   2.0000      -6.031925      -164.1370
  20   2.0000      -6.031202      -164.1174
  21   2.0000      -6.027908      -164.0277
  22   2.0000      -6.026927      -164.0010
  23   2.0000      -6.024235      -163.9278
  24   2.0000      -1.004113       -27.3233
  25   2.0000      -0.982945       -26.7473
  26   2.0000      -0.921788       -25.0831
  27   2.0000      -0.907880       -24.7047
  28   2.0000      -0.876958       -23.8632
  29   2.0000      -0.851192       -23.1621
  30   2.0000      -0.848559       -23.0905
  31   2.0000      -0.815875       -22.2011
  32   2.0000      -0.780771       -21.2459
  33   2.0000      -0.767652       -20.8889
  34   2.0000      -0.709868       -19.3165
  35   2.0000      -0.702904       -19.1270
  36   2.0000      -0.694638       -18.9021
  37   2.0000      -0.649341       -17.6695
  38   2.0000      -0.639960       -17.4142
  39   2.0000      -0.621574       -16.9139
  40   2.0000      -0.598422       -16.2839
  41   2.0000      -0.588340       -16.0096
  42   2.0000      -0.566596       -15.4179
  43   2.0000      -0.563684       -15.3386
  44   2.0000      -0.531313       -14.4578
  45   2.0000      -0.521609       -14.1937
  46   2.0000      -0.517936       -14.0937
  47   2.0000      -0.508356       -13.8331
  48   2.0000      -0.507227       -13.8024
  49   2.0000      -0.495996       -13.4967
  50   2.0000      -0.485771       -13.2185
  51   2.0000      -0.480240       -13.0680
  52   2.0000      -0.467281       -12.7154
  53   2.0000      -0.466611       -12.6971
  54   2.0000      -0.461619       -12.5613
  55   2.0000      -0.453733       -12.3467
  56   2.0000      -0.442604       -12.0439
  57   2.0000      -0.440014       -11.9734
  58   2.0000      -0.431075       -11.7301
  59   2.0000      -0.425432       -11.5766
  60   2.0000      -0.420809       -11.4508
  61   2.0000      -0.418969       -11.4007
  62   2.0000      -0.415139       -11.2965
  63   2.0000      -0.338576        -9.2131
  64   2.0000      -0.325221        -8.8497
  65   2.0000      -0.319860        -8.7038
  66   2.0000      -0.309093        -8.4108
  67   0.0000       0.044133         1.2009
  68   0.0000       0.059054         1.6069
  69   0.0000       0.111696         3.0394
  70   0.0000       0.124052         3.3756
  71   0.0000       0.129271         3.5176

MULLIKEN ATOMIC CHARGES
-----------------------
   0 S :    0.092533
   1 C :   -0.151367
   2 C :   -0.036426
   3 C :    0.047367
   4 C :   -0.185105
   5 H :    0.002965
   6 C :   -0.030041
   7 H :    0.037896
   8 H :    0.030183
   9 C :    0.003513
  10 H :    0.015010
  11 H :    0.005715
  12 C :   -0.000332
  13 H :    0.037433
  14 H :    0.023185
  15 H :    0.005235
  16 S :    0.100741
  17 C :   -0.108325
  18 C :   -0.021234
  19 C :   -0.043052
  20 C :   -0.182213
  21 H :    0.021003
  22 C :    0.098109
  23 H :    0.031891
  24 H :    0.023978
  25 C :   -0.029675
  26 H :    0.025139
  27 H :    0.027735
  28 C :   -0.082809
  29 H :    0.036253
  30 H :    0.026700
  31 H :    0.045871
  32 H :    0.054682
  33 H :    0.077443
Sum of atomic charges:    0.0000000

LOEWDIN ATOMIC CHARGES
----------------------
   0 S :    0.389432
   1 C :   -0.195792
   2 C :   -0.081991
   3 C :   -0.057377
   4 C :   -0.199027
   5 H :    0.027896
   6 C :   -0.033103
   7 H :    0.038214
   8 H :    0.034368
   9 C :   -0.028231
  10 H :    0.019029
  11 H :    0.011104
  12 C :   -0.051785
  13 H :    0.032685
  14 H :    0.023448
  15 H :    0.014838
  16 S :    0.379013
  17 C :   -0.174808
  18 C :   -0.078821
  19 C :   -0.038542
  20 C :   -0.200356
  21 H :    0.033346
  22 C :   -0.027263
  23 H :    0.030116
  24 H :    0.038769
  25 C :   -0.040506
  26 H :    0.023888
  27 H :    0.024126
  28 C :   -0.071628
  29 H :    0.026302
  30 H :    0.024757
  31 H :    0.034503
  32 H :    0.032339
  33 H :    0.041057

  Mayer bond orders larger than 0.100000
B(  0-S ,  1-C ) :   1.1454 B(  0-S ,  4-C ) :   1.1372 B(  1-C ,  2-C ) :   1.6190
B(  1-C , 32-H ) :   0.9628 B(  2-C ,  3-C ) :   1.2468 B(  2-C ,  6-C ) :   1.0120
B(  3-C ,  4-C ) :   1.5931 B(  3-C ,  5-H ) :   0.9961 B(  4-C , 20-C ) :   1.0176
B(  6-C ,  7-H ) :   0.9476 B(  6-C ,  8-H ) :   0.9331 B(  6-C ,  9-C ) :   1.0749
B(  9-C , 10-H ) :   0.9494 B(  9-C , 11-H ) :   0.9476 B(  9-C , 12-C ) :   1.1015
B( 12-C , 13-H ) :   0.9689 B( 12-C , 14-H ) :   0.9706 B( 12-C , 15-H ) :   0.9697
B( 16-S , 17-C ) :   1.1240 B( 16-S , 20-C ) :   1.1405 B( 17-C , 18-C ) :   1.6667
B( 17-C , 33-H ) :   0.9561 B( 18-C , 19-C ) :   1.1997 B( 18-C , 21-H ) :   0.9840
B( 19-C , 20-C ) :   1.6360 B( 19-C , 22-C ) :   1.0258 B( 22-C , 23-H ) :   0.9282
B( 22-C , 24-H ) :   0.9271 B( 22-C , 25-C ) :   1.0456 B( 25-C , 26-H ) :   0.9608
B( 25-C , 27-H ) :   0.9500 B( 25-C , 28-C ) :   1.0932 B( 28-C , 29-H ) :   0.9723
B( 28-C , 30-H ) :   0.9748 B( 28-C , 31-H ) :   0.9730

Dispersion correction           -0.013257058
FINAL SINGLE POINT ENERGY     -1339.861525792221

DIPOLE MOMENT
-------------
                                X             Y             Z
Electronic contribution:    -18.55879       2.46133      22.39300
Nuclear contribution   :     19.10591      -2.66486     -22.75139
                        -----------------------------------------
Total Dipole Moment    :      0.54712      -0.20354      -0.35839
                        -----------------------------------------
Magnitude (a.u.)       :      0.68499
Magnitude (Debye)      :      1.74110

Rotational constants in cm-1:     0.016417     0.008170     0.006310
Rotational constants in MHz :   492.181887   244.923580   189.162945

                             ****ORCA TERMINATED NORMALLY****
TOTAL RUN TIME: 0 days 0 hours 0 minutes 29 seconds 174 msec
