                         Program Version 4.2.1 -  RELEASE  -
|  1> ! wB97X-D3 SP def2-SVP
|  2> %pal
|  3> nprocs 16
|  4> end
|  5>
|  6> * xyz 0 1
|  7> S 	 53.2124 	 15.071 	 50.8384
|  8> C 	 52.4369 	 16.5581 	 50.3434
|  9> C 	 52.2023 	 17.3863 	 51.4337
| 10> C 	 52.6442 	 16.7548 	 52.667
| 11> C 	 53.2 	 15.5073 	 52.5171
| 12> H 	 52.5893 	 17.1337 	 53.7085
| 13> C 	 51.4745 	 18.7576 	 51.5233
| 14> H 	 50.8658 	 18.6021 	 52.4233
| 15> H 	 50.8001 	 18.9119 	 50.6968
| 16> C 	 52.4886 	 19.9117 	 51.6845
| 17> H 	 53.0598 	 19.9887 	 50.7909
| 18> H 	 51.9225 	 20.8706 	 51.7073
| 19> C 	 53.3496 	 19.9021 	 52.9935
| 20> H 	 54.0951 	 19.1029 	 53.0627
| 21> H 	 53.8602 	 20.81 	 53.0509
| 22> H 	 52.7017 	 19.8966 	 53.9321
| 23> S 	 55.5575 	 14.1635 	 53.1818
| 24> C 	 55.4141 	 12.8337 	 54.3666
| 25> C 	 54.2804 	 13.0223 	 55.1679
| 26> C 	 53.4219 	 14.144 	 54.7481
| 27> C 	 53.8654 	 14.651 	 53.515
| 28> H 	 54.0502 	 12.3101 	 55.9207
| 29> C 	 52.1187 	 14.3288 	 55.3709
| 30> H 	 51.3985 	 13.7128 	 54.8377
| 31> H 	 51.8205 	 15.4039 	 55.218
| 32> C 	 52.0039 	 13.9711 	 56.8538
| 33> H 	 52.8007 	 14.392 	 57.453
| 34> H 	 52.023 	 12.8836 	 56.9596
| 35> C 	 50.578 	 14.3146 	 57.4025
| 36> H 	 49.845 	 13.7331 	 56.8864
| 37> H 	 50.3393 	 15.3871 	 57.2428
| 38> H 	 50.638 	 14.0879 	 58.4458
| 39> H 	 52.0928 	 16.7884 	 49.3609
| 40> H 	 56.192 	 12.1143 	 54.6073
| 41> *
| 42>
| 43>                          ****END OF INPUT****

CARTESIAN COORDINATES (ANGSTROEM)
---------------------------------
  S     53.212400   15.071000   50.838400
  C     52.436900   16.558100   50.343400
  C     52.202300   17.386300   51.433700
  C     52.644200   16.754800   52.667000
  C     53.200000   15.507300   52.517100
  H     52.589300   17.133700   53.708500
  C     51.474500   18.757600   51.523300
  H     50.865800   18.602100   52.423300
  H     50.800100   18.911900   50.696800
  C     52.488600   19.911700   51.684500
  H     53.059800   19.988700   50.790900
  H     51.922500   20.870600   51.707300
  C     53.349600   19.902100   52.993500
  H     54.095100   19.102900   53.062700
  H     53.860200   20.810000   53.050900
  H     52.701700   19.896600   53.932100
  S     55.557500   14.163500   53.181800
  C     55.414100   12.833700   54.366600
  C     54.280400   13.022300   55.167900
  C     53.421900   14.144000   54.748100
  C     53.865400   14.651000   53.515000
  H     54.050200   12.310100   55.920700
  C     52.118700   14.328800   55.370900
  H     51.398500   13.712800   54.837700
  H     51.820500   15.403900   55.218000
  C     52.003900   13.971100   56.853800
  H     52.800700   14.392000   57.453000
  H     52.023000   12.883600   56.959600
  C     50.578000   14.314600   57.402500
  H     49.845000   13.733100   56.886400
  H     50.339300   15.387100   57.242800
  H     50.638000   14.087900   58.445800
  H     52.092800   16.788400   49.360900
  H     56.192000   12.114300   54.607300

 Total Charge           Charge          ....    0
 Multiplicity           Mult            ....    1
 Number of Electrons    NEL             ....  134
 Basis Dimension        Dim             ....  322

ORBITAL ENERGIES
----------------

  NO   OCC          E(Eh)            E(eV)
   0   2.0000     -88.963606     -2420.8228
   1   2.0000     -88.962972     -2420.8055
   2   2.0000     -10.331654      -281.1386
   3   2.0000     -10.326789      -281.0062
   4   2.0000     -10.320222      -280.8275
   5   2.0000     -10.313774      -280.6521
   6   2.0000     -10.306398      -280.4513
   7   2.0000     -10.305657      -280.4312
   8   2.0000     -10.296340      -280.1777
   9   2.0000     -10.296300      -280.1766
  10   2.0000     -10.295070      -280.1431
  11   2.0000     -10.290735      -280.0251
  12   2.0000     -10.290645      -280.0227
  13   2.0000     -10.289473      -279.9908
  14   2.0000     -10.280316      -279.7416
  15   2.0000     -10.279769      -279.7267
  16   2.0000      -8.078547      -219.8284
  17   2.0000      -8.076494      -219.7726
  18   2.0000      -6.037095      -164.2777
  19   2.0000      -6.035212      -164.2265
  20   2.0000      -6.032943      -164.1647
  21   2.0000      -6.031295      -164.1199
  22   2.0000      -6.029309      -164.0658
  23   2.0000      -6.026975      -164.0023
  24   2.0000      -1.000789       -27.2328
  25   2.0000      -0.975215       -26.5370
  26   2.0000      -0.912965       -24.8430
  27   2.0000      -0.905005       -24.6264
  28   2.0000      -0.863684       -23.5020
  29   2.0000      -0.849326       -23.1113
  30   2.0000      -0.837957       -22.8020
  31   2.0000      -0.812132       -22.0992
  32   2.0000      -0.783509       -21.3204
  33   2.0000      -0.770632       -20.9700
  34   2.0000      -0.706205       -19.2168
  35   2.0000      -0.702826       -19.1249
  36   2.0000      -0.693944       -18.8832
  37   2.0000      -0.651996       -17.7417
  38   2.0000      -0.641706       -17.4617
  39   2.0000      -0.611801       -16.6479
  40   2.0000      -0.594645       -16.1811
  41   2.0000      -0.575685       -15.6652
  42   2.0000      -0.565695       -15.3933
  43   2.0000      -0.548729       -14.9317
  44   2.0000      -0.538368       -14.6497
  45   2.0000      -0.530740       -14.4422
  46   2.0000      -0.513766       -13.9803
  47   2.0000      -0.507157       -13.8004
  48   2.0000      -0.504380       -13.7249
  49   2.0000      -0.498625       -13.5683
  50   2.0000      -0.486739       -13.2448
  51   2.0000      -0.477533       -12.9943
  52   2.0000      -0.467259       -12.7148
  53   2.0000      -0.464284       -12.6338
  54   2.0000      -0.455299       -12.3893
  55   2.0000      -0.446414       -12.1475
  56   2.0000      -0.441415       -12.0115
  57   2.0000      -0.439554       -11.9609
  58   2.0000      -0.437259       -11.8984
  59   2.0000      -0.431416       -11.7394
  60   2.0000      -0.422936       -11.5087
  61   2.0000      -0.414154       -11.2697
  62   2.0000      -0.409863       -11.1530
  63   2.0000      -0.343178        -9.3384
  64   2.0000      -0.329286        -8.9603
  65   2.0000      -0.321712        -8.7542
  66   2.0000      -0.290883        -7.9153
  67   0.0000       0.027289         0.7426
  68   0.0000       0.068912         1.8752
  69   0.0000       0.102478         2.7886
  70   0.0000       0.117957         3.2098
  71   0.0000       0.131796         3.5863

MULLIKEN ATOMIC CHARGES
-----------------------
   0 S :    0.115918
   1 C :   -0.112172
   2 C :   -0.102480
   3 C :    0.011175
   4 C :   -0.173917
   5 H :    0.027345
   6 C :    0.079345
   7 H :    0.031916
   8 H :    0.021775
   9 C :   -0.062628
  10 H :    0.025671
  11 H :    0.030300
  12 C :   -0.058757
  13 H :    0.053520
  14 H :    0.021319
  15 H :    0.033728
  16 S :    0.096718
  17 C :   -0.090667
  18 C :   -0.048543
  19 C :    0.006979
  20 C :   -0.158370
  21 H :    0.015786
  22 C :    0.047099
  23 H :    0.043223
  24 H :    0.022773
  25 C :   -0.124409
  26 H :    0.037749
  27 H :    0.032793
  28 C :   -0.017913
  29 H :    0.028073
  30 H :    0.032418
  31 H :    0.035239
  32 H :    0.037277
  33 H :    0.061719
Sum of atomic charges:   -0.0000000

LOEWDIN ATOMIC CHARGES
----------------------
   0 S :    0.415234
   1 C :   -0.197595
   2 C :   -0.059525
   3 C :   -0.070949
   4 C :   -0.206220
   5 H :    0.034953
   6 C :   -0.027253
   7 H :    0.033040
   8 H :    0.026739
   9 C :   -0.035988
  10 H :    0.020933
  11 H :    0.027597
  12 C :   -0.066472
  13 H :    0.027584
  14 H :    0.018689
  15 H :    0.031478
  16 S :    0.367190
  17 C :   -0.176363
  18 C :   -0.064345
  19 C :   -0.053236
  20 C :   -0.183055
  21 H :    0.024583
  22 C :   -0.042765
  23 H :    0.040614
  24 H :    0.033609
  25 C :   -0.037927
  26 H :    0.022777
  27 H :    0.023944
  28 C :   -0.054713
  29 H :    0.021686
  30 H :    0.025516
  31 H :    0.025078
  32 H :    0.024501
  33 H :    0.030657

  Mayer bond orders larger than 0.100000
B(  0-S ,  1-C ) :   1.1376 B(  0-S ,  4-C ) :   1.1535 B(  1-C ,  2-C ) :   1.6233
B(  1-C , 32-H ) :   0.9734 B(  2-C ,  3-C ) :   1.2291 B(  2-C ,  6-C ) :   0.9973
B(  3-C ,  4-C ) :   1.5973 B(  3-C ,  5-H ) :   0.9769 B(  4-C , 20-C ) :   1.0394
B(  6-C ,  7-H ) :   0.9474 B(  6-C ,  8-H ) :   0.9462 B(  6-C ,  9-C ) :   1.0699
B(  9-C , 10-H ) :   0.9553 B(  9-C , 11-H ) :   0.9571 B(  9-C , 12-C ) :   1.0781
B( 12-C , 13-H ) :   0.9707 B( 12-C , 14-H ) :   0.9712 B( 12-C , 15-H ) :   0.9734
B( 16-S , 17-C ) :   1.1217 B( 16-S , 20-C ) :   1.1349 B( 17-C , 18-C ) :   1.6469
B( 17-C , 33-H ) :   0.9660 B( 18-C , 19-C ) :   1.1909 B( 18-C , 21-H ) :   0.9900
B( 19-C , 20-C ) :   1.5956 B( 19-C , 22-C ) :   1.0720 B( 22-C , 23-H ) :   0.9189
B( 22-C , 24-H ) :   0.9286 B( 22-C , 25-C ) :   1.0762 B( 25-C , 26-H ) :   0.9639
B( 25-C , 27-H ) :   0.9426 B( 25-C , 28-C ) :   1.0819 B( 28-C , 29-H ) :   0.9743
B( 28-C , 30-H ) :   0.9770 B( 28-C , 31-H ) :   0.9746

Dispersion correction           -0.013996022
FINAL SINGLE POINT ENERGY     -1339.874348983730

DIPOLE MOMENT
-------------
                                X             Y             Z
Electronic contribution:     14.75056     -14.42873     -16.37147
Nuclear contribution   :    -15.24621      14.69429      16.80609
                        -----------------------------------------
Total Dipole Moment    :     -0.49565       0.26556       0.43462
                        -----------------------------------------
Magnitude (a.u.)       :      0.71069
Magnitude (Debye)      :      1.80644

Rotational constants in cm-1:     0.016865     0.008707     0.006872
Rotational constants in MHz :   505.604797   261.035621   206.005189

                             ****ORCA TERMINATED NORMALLY****
TOTAL RUN TIME: 0 days 0 hours 0 minutes 29 seconds 741 msec
