                         Program Version 4.2.1 -  RELEASE  -
|  1> ! wB97X-D3 SP def2-SVP
|  2> %pal
|  3> nprocs 16
|  4> end
|  5>
|  6> * xyz 0 1
|  7> S 	 47.5567 	 5.17002 	 84.4191
|  8> C 	 46.3148 	 5.54111 	 83.1675
|  9> C 	 45.1667 	 6.04732 	 83.7659
| 10> C 	 45.3496 	 6.06439 	 85.1933
| 11> C 	 46.5599 	 5.7291 	 85.7069
| 12> H 	 44.6385 	 6.46067 	 85.8893
| 13> C 	 43.8508 	 6.41607 	 83.0459
| 14> H 	 43.0287 	 6.03884 	 83.6997
| 15> H 	 43.762 	 5.69334 	 82.253
| 16> C 	 43.6248 	 7.78602 	 82.4709
| 17> H 	 43.4203 	 8.43114 	 83.3341
| 18> H 	 44.527 	 8.03796 	 81.9315
| 19> C 	 42.48 	 7.8237 	 81.4862
| 20> H 	 41.5882 	 7.44138 	 82.0208
| 21> H 	 42.1866 	 8.84132 	 81.1175
| 22> H 	 42.6017 	 7.17481 	 80.6119
| 23> S 	 45.8402 	 4.92956 	 88.1848
| 24> C 	 46.7238 	 5.45192 	 89.6422
| 25> C 	 47.8345 	 6.21658 	 89.2474
| 26> C 	 47.9441 	 6.36263 	 87.7978
| 27> C 	 46.8952 	 5.78466 	 87.0975
| 28> H 	 48.5102 	 6.61387 	 90.0076
| 29> C 	 49.0765 	 7.02482 	 87.0545
| 30> H 	 48.7068 	 7.5738 	 86.19
| 31> H 	 49.8506 	 6.33452 	 86.685
| 32> C 	 49.6966 	 8.0799 	 87.9106
| 33> H 	 49.9631 	 7.74016 	 88.8244
| 34> H 	 48.9777 	 8.89459 	 88.1629
| 35> C 	 50.8442 	 8.86106 	 87.4002
| 36> H 	 50.5891 	 9.3302 	 86.4636
| 37> H 	 51.8404 	 8.28504 	 87.1952
| 38> H 	 51.1226 	 9.58887 	 88.2209
| 39> H 	 46.3386 	 5.17338 	 82.1602
| 40> H 	 46.287 	 5.36363 	 90.6954
| 41> *
| 42>
| 43>                          ****END OF INPUT****

CARTESIAN COORDINATES (ANGSTROEM)
---------------------------------
  S     47.556700    5.170020   84.419100
  C     46.314800    5.541110   83.167500
  C     45.166700    6.047320   83.765900
  C     45.349600    6.064390   85.193300
  C     46.559900    5.729100   85.706900
  H     44.638500    6.460670   85.889300
  C     43.850800    6.416070   83.045900
  H     43.028700    6.038840   83.699700
  H     43.762000    5.693340   82.253000
  C     43.624800    7.786020   82.470900
  H     43.420300    8.431140   83.334100
  H     44.527000    8.037960   81.931500
  C     42.480000    7.823700   81.486200
  H     41.588200    7.441380   82.020800
  H     42.186600    8.841320   81.117500
  H     42.601700    7.174810   80.611900
  S     45.840200    4.929560   88.184800
  C     46.723800    5.451920   89.642200
  C     47.834500    6.216580   89.247400
  C     47.944100    6.362630   87.797800
  C     46.895200    5.784660   87.097500
  H     48.510200    6.613870   90.007600
  C     49.076500    7.024820   87.054500
  H     48.706800    7.573800   86.190000
  H     49.850600    6.334520   86.685000
  C     49.696600    8.079900   87.910600
  H     49.963100    7.740160   88.824400
  H     48.977700    8.894590   88.162900
  C     50.844200    8.861060   87.400200
  H     50.589100    9.330200   86.463600
  H     51.840400    8.285040   87.195200
  H     51.122600    9.588870   88.220900
  H     46.338600    5.173380   82.160200
  H     46.287000    5.363630   90.695400

 Total Charge           Charge          ....    0
 Multiplicity           Mult            ....    1
 Number of Electrons    NEL             ....  134
 Basis Dimension        Dim             ....  322

ORBITAL ENERGIES
----------------

  NO   OCC          E(Eh)            E(eV)
   0   2.0000     -88.967522     -2420.9294
   1   2.0000     -88.964434     -2420.8453
   2   2.0000     -10.328808      -281.0612
   3   2.0000     -10.325827      -280.9800
   4   2.0000     -10.325564      -280.9729
   5   2.0000     -10.320577      -280.8372
   6   2.0000     -10.308720      -280.5145
   7   2.0000     -10.306456      -280.4529
   8   2.0000     -10.304672      -280.4044
   9   2.0000     -10.295212      -280.1470
  10   2.0000     -10.289532      -279.9924
  11   2.0000     -10.287367      -279.9335
  12   2.0000     -10.287186      -279.9286
  13   2.0000     -10.284683      -279.8605
  14   2.0000     -10.281241      -279.7668
  15   2.0000     -10.269359      -279.4435
  16   2.0000      -8.081673      -219.9135
  17   2.0000      -8.078749      -219.8339
  18   2.0000      -6.040342      -164.3661
  19   2.0000      -6.037386      -164.2856
  20   2.0000      -6.036166      -164.2524
  21   2.0000      -6.033106      -164.1692
  22   2.0000      -6.032362      -164.1489
  23   2.0000      -6.029592      -164.0735
  24   2.0000      -1.008893       -27.4534
  25   2.0000      -0.980768       -26.6880
  26   2.0000      -0.918927       -25.0053
  27   2.0000      -0.917589       -24.9689
  28   2.0000      -0.875100       -23.8127
  29   2.0000      -0.851184       -23.1619
  30   2.0000      -0.845125       -22.9970
  31   2.0000      -0.814244       -22.1567
  32   2.0000      -0.783431       -21.3182
  33   2.0000      -0.771082       -20.9822
  34   2.0000      -0.703832       -19.1522
  35   2.0000      -0.703039       -19.1307
  36   2.0000      -0.696971       -18.9655
  37   2.0000      -0.657018       -17.8784
  38   2.0000      -0.637640       -17.3511
  39   2.0000      -0.618052       -16.8180
  40   2.0000      -0.599305       -16.3079
  41   2.0000      -0.577197       -15.7063
  42   2.0000      -0.571502       -15.5513
  43   2.0000      -0.563988       -15.3469
  44   2.0000      -0.532613       -14.4931
  45   2.0000      -0.522970       -14.2307
  46   2.0000      -0.521095       -14.1797
  47   2.0000      -0.513176       -13.9642
  48   2.0000      -0.506126       -13.7724
  49   2.0000      -0.502900       -13.6846
  50   2.0000      -0.495582       -13.4855
  51   2.0000      -0.481501       -13.1023
  52   2.0000      -0.466889       -12.7047
  53   2.0000      -0.461743       -12.5647
  54   2.0000      -0.459494       -12.5035
  55   2.0000      -0.449499       -12.2315
  56   2.0000      -0.446183       -12.1413
  57   2.0000      -0.430946       -11.7266
  58   2.0000      -0.427210       -11.6250
  59   2.0000      -0.426740       -11.6122
  60   2.0000      -0.416738       -11.3400
  61   2.0000      -0.413039       -11.2394
  62   2.0000      -0.407099       -11.0777
  63   2.0000      -0.346790        -9.4366
  64   2.0000      -0.333626        -9.0784
  65   2.0000      -0.327845        -8.9211
  66   2.0000      -0.297513        -8.0957
  67   0.0000       0.027226         0.7409
  68   0.0000       0.068482         1.8635
  69   0.0000       0.111310         3.0289
  70   0.0000       0.118793         3.2325
  71   0.0000       0.121058         3.2942

MULLIKEN ATOMIC CHARGES
-----------------------
   0 S :    0.107127
   1 C :   -0.123738
   2 C :   -0.075243
   3 C :    0.010724
   4 C :   -0.141091
   5 H :    0.001743
   6 C :    0.030892
   7 H :    0.028831
   8 H :    0.003471
   9 C :   -0.005456
  10 H :    0.037477
  11 H :    0.029031
  12 C :   -0.074922
  13 H :    0.025007
  14 H :    0.044976
  15 H :    0.034491
  16 S :    0.101436
  17 C :   -0.130859
  18 C :   -0.048079
  19 C :   -0.040099
  20 C :   -0.143322
  21 H :    0.035216
  22 C :    0.111701
  23 H :    0.030716
  24 H :    0.045082
  25 C :   -0.102240
  26 H :   -0.005454
  27 H :    0.027756
  28 C :   -0.060888
  29 H :    0.027626
  30 H :    0.032573
  31 H :    0.040839
  32 H :    0.050569
  33 H :    0.094104
Sum of atomic charges:   -0.0000000

LOEWDIN ATOMIC CHARGES
----------------------
   0 S :    0.401100
   1 C :   -0.177885
   2 C :   -0.057443
   3 C :   -0.065041
   4 C :   -0.209070
   5 H :    0.023661
   6 C :   -0.037727
   7 H :    0.035381
   8 H :    0.025434
   9 C :   -0.040119
  10 H :    0.030482
  11 H :    0.026464
  12 C :   -0.070172
  13 H :    0.026284
  14 H :    0.032239
  15 H :    0.024931
  16 S :    0.404736
  17 C :   -0.195124
  18 C :   -0.072260
  19 C :   -0.056463
  20 C :   -0.195200
  21 H :    0.035030
  22 C :   -0.033802
  23 H :    0.033864
  24 H :    0.035915
  25 C :   -0.051326
  26 H :    0.003629
  27 H :    0.034043
  28 C :   -0.068477
  29 H :    0.018780
  30 H :    0.027003
  31 H :    0.035002
  32 H :    0.026899
  33 H :    0.049228

  Mayer bond orders larger than 0.100000
B(  0-S ,  1-C ) :   1.1358 B(  0-S ,  4-C ) :   1.1288 B(  1-C ,  2-C ) :   1.6099
B(  1-C , 32-H ) :   0.9685 B(  2-C ,  3-C ) :   1.2437 B(  2-C ,  6-C ) :   1.0080
B(  3-C ,  4-C ) :   1.5816 B(  3-C ,  5-H ) :   0.9979 B(  4-C , 20-C ) :   1.0427
B(  6-C ,  7-H ) :   0.9380 B(  6-C ,  8-H ) :   0.9382 B(  6-C ,  9-C ) :   1.0624
B(  9-C , 10-H ) :   0.9517 B(  9-C , 11-H ) :   0.9513 B(  9-C , 12-C ) :   1.0859
B( 12-C , 13-H ) :   0.9729 B( 12-C , 14-H ) :   0.9738 B( 12-C , 15-H ) :   0.9736
B( 16-S , 17-C ) :   1.1514 B( 16-S , 20-C ) :   1.1456 B( 17-C , 18-C ) :   1.5973
B( 17-C , 20-C ) :   0.1008 B( 17-C , 33-H ) :   0.9559 B( 18-C , 19-C ) :   1.2309
B( 18-C , 21-H ) :   0.9872 B( 19-C , 20-C ) :   1.5860 B( 19-C , 22-C ) :   1.0471
B( 22-C , 23-H ) :   0.9257 B( 22-C , 24-H ) :   0.9284 B( 22-C , 25-C ) :   1.0739
B( 25-C , 26-H ) :   0.9441 B( 25-C , 27-H ) :   0.9510 B( 25-C , 28-C ) :   1.0984
B( 28-C , 29-H ) :   0.9709 B( 28-C , 30-H ) :   0.9695 B( 28-C , 31-H ) :   0.9709

Dispersion correction           -0.013241960
FINAL SINGLE POINT ENERGY     -1339.868953532501

DIPOLE MOMENT
-------------
                                X             Y             Z
Electronic contribution:      0.92223     -18.14696       9.70721
Nuclear contribution   :     -1.14822      18.50818      -9.79902
                        -----------------------------------------
Total Dipole Moment    :     -0.22599       0.36122      -0.09181
                        -----------------------------------------
Magnitude (a.u.)       :      0.43587
Magnitude (Debye)      :      1.10789

Rotational constants in cm-1:     0.019889     0.007030     0.006134
Rotational constants in MHz :   596.259350   210.760492   183.883169

                             ****ORCA TERMINATED NORMALLY****
TOTAL RUN TIME: 0 days 0 hours 0 minutes 26 seconds 757 msec
