                         Program Version 4.2.1 -  RELEASE  -
|  1> ! wB97X-D3 SP def2-SVP
|  2> %pal
|  3> nprocs 16
|  4> end
|  5>
|  6> * xyz 0 1
|  7> S 	 52.076 	 4.98177 	 80.8294
|  8> C 	 53.1429 	 3.54366 	 80.8653
|  9> C 	 53.1022 	 2.94913 	 82.1354
| 10> C 	 52.1828 	 3.61855 	 83.0125
| 11> C 	 51.4626 	 4.68419 	 82.4519
| 12> H 	 51.9786 	 3.28237 	 83.9251
| 13> C 	 53.7916 	 1.59633 	 82.4226
| 14> H 	 53.5305 	 1.39465 	 83.438
| 15> H 	 54.8567 	 1.7503 	 82.3658
| 16> C 	 53.6327 	 0.41275 	 81.4402
| 17> H 	 52.5664 	 0.012674 	 81.3962
| 18> H 	 53.9373 	 0.733298 	 80.4543
| 19> C 	 54.3658 	 -0.931925 	 81.7721
| 20> H 	 55.4167 	 -0.663745 	 81.8086
| 21> H 	 54.0364 	 -1.45052 	 82.7199
| 22> H 	 54.2689 	 -1.65799 	 80.9779
| 23> S 	 50.6755 	 5.81617 	 84.8045
| 24> C 	 49.0852 	 6.51808 	 84.907
| 25> C 	 48.4102 	 6.60904 	 83.6647
| 26> C 	 49.1623 	 5.94392 	 82.5627
| 27> C 	 50.3565 	 5.37507 	 83.1249
| 28> H 	 47.468 	 7.17672 	 83.5977
| 29> C 	 48.7514 	 5.9614 	 81.1304
| 30> H 	 47.6828 	 5.70044 	 81.0542
| 31> H 	 49.2123 	 5.17388 	 80.6193
| 32> C 	 48.9792 	 7.31175 	 80.4678
| 33> H 	 50.015 	 7.65277 	 80.5154
| 34> H 	 48.3213 	 8.08109 	 80.945
| 35> C 	 48.6483 	 7.24326 	 78.9918
| 36> H 	 47.5817 	 7.2307 	 78.8374
| 37> H 	 49.1373 	 6.42587 	 78.4919
| 38> H 	 48.9438 	 8.13778 	 78.5197
| 39> H 	 53.7135 	 3.18831 	 80.0871
| 40> H 	 48.6476 	 7.01236 	 85.8375
| 41> *
| 42>
| 43>                          ****END OF INPUT****

CARTESIAN COORDINATES (ANGSTROEM)
---------------------------------
  S     52.076000    4.981770   80.829400
  C     53.142900    3.543660   80.865300
  C     53.102200    2.949130   82.135400
  C     52.182800    3.618550   83.012500
  C     51.462600    4.684190   82.451900
  H     51.978600    3.282370   83.925100
  C     53.791600    1.596330   82.422600
  H     53.530500    1.394650   83.438000
  H     54.856700    1.750300   82.365800
  C     53.632700    0.412750   81.440200
  H     52.566400    0.012674   81.396200
  H     53.937300    0.733298   80.454300
  C     54.365800   -0.931925   81.772100
  H     55.416700   -0.663745   81.808600
  H     54.036400   -1.450520   82.719900
  H     54.268900   -1.657990   80.977900
  S     50.675500    5.816170   84.804500
  C     49.085200    6.518080   84.907000
  C     48.410200    6.609040   83.664700
  C     49.162300    5.943920   82.562700
  C     50.356500    5.375070   83.124900
  H     47.468000    7.176720   83.597700
  C     48.751400    5.961400   81.130400
  H     47.682800    5.700440   81.054200
  H     49.212300    5.173880   80.619300
  C     48.979200    7.311750   80.467800
  H     50.015000    7.652770   80.515400
  H     48.321300    8.081090   80.945000
  C     48.648300    7.243260   78.991800
  H     47.581700    7.230700   78.837400
  H     49.137300    6.425870   78.491900
  H     48.943800    8.137780   78.519700
  H     53.713500    3.188310   80.087100
  H     48.647600    7.012360   85.837500

 Total Charge           Charge          ....    0
 Multiplicity           Mult            ....    1
 Number of Electrons    NEL             ....  134
 Basis Dimension        Dim             ....  322

ORBITAL ENERGIES
----------------

  NO   OCC          E(Eh)            E(eV)
   0   2.0000     -88.971941     -2421.0496
   1   2.0000     -88.969310     -2420.9780
   2   2.0000     -10.333822      -281.1976
   3   2.0000     -10.333646      -281.1928
   4   2.0000     -10.325682      -280.9761
   5   2.0000     -10.315401      -280.6963
   6   2.0000     -10.312401      -280.6147
   7   2.0000     -10.305812      -280.4354
   8   2.0000     -10.305485      -280.4265
   9   2.0000     -10.296146      -280.1724
  10   2.0000     -10.294228      -280.1202
  11   2.0000     -10.287064      -279.9252
  12   2.0000     -10.286755      -279.9168
  13   2.0000     -10.286168      -279.9009
  14   2.0000     -10.285124      -279.8724
  15   2.0000     -10.266922      -279.3772
  16   2.0000      -8.086061      -220.0329
  17   2.0000      -8.082395      -219.9331
  18   2.0000      -6.044584      -164.4815
  19   2.0000      -6.041041      -164.3851
  20   2.0000      -6.040812      -164.3789
  21   2.0000      -6.036985      -164.2747
  22   2.0000      -6.036679      -164.2664
  23   2.0000      -6.033277      -164.1738
  24   2.0000      -0.997128       -27.1332
  25   2.0000      -0.973194       -26.4819
  26   2.0000      -0.915954       -24.9244
  27   2.0000      -0.904924       -24.6242
  28   2.0000      -0.862439       -23.4682
  29   2.0000      -0.853714       -23.2307
  30   2.0000      -0.845064       -22.9954
  31   2.0000      -0.809558       -22.0292
  32   2.0000      -0.786084       -21.3904
  33   2.0000      -0.770003       -20.9528
  34   2.0000      -0.706138       -19.2150
  35   2.0000      -0.698804       -19.0154
  36   2.0000      -0.690062       -18.7775
  37   2.0000      -0.660017       -17.9600
  38   2.0000      -0.641046       -17.4438
  39   2.0000      -0.614833       -16.7305
  40   2.0000      -0.595094       -16.1933
  41   2.0000      -0.571828       -15.5602
  42   2.0000      -0.567513       -15.4428
  43   2.0000      -0.560704       -15.2575
  44   2.0000      -0.527315       -14.3490
  45   2.0000      -0.520975       -14.1765
  46   2.0000      -0.518033       -14.0964
  47   2.0000      -0.513200       -13.9649
  48   2.0000      -0.506323       -13.7777
  49   2.0000      -0.499455       -13.5909
  50   2.0000      -0.491861       -13.3842
  51   2.0000      -0.475816       -12.9476
  52   2.0000      -0.469697       -12.7811
  53   2.0000      -0.464784       -12.6474
  54   2.0000      -0.455711       -12.4005
  55   2.0000      -0.451817       -12.2946
  56   2.0000      -0.446400       -12.1472
  57   2.0000      -0.439511       -11.9597
  58   2.0000      -0.436749       -11.8846
  59   2.0000      -0.429645       -11.6912
  60   2.0000      -0.421602       -11.4724
  61   2.0000      -0.417962       -11.3733
  62   2.0000      -0.403857       -10.9895
  63   2.0000      -0.347067        -9.4442
  64   2.0000      -0.330343        -8.9891
  65   2.0000      -0.328265        -8.9325
  66   2.0000      -0.283514        -7.7148
  67   0.0000       0.020732         0.5641
  68   0.0000       0.075294         2.0489
  69   0.0000       0.101419         2.7598
  70   0.0000       0.109842         2.9889
  71   0.0000       0.121044         3.2938

MULLIKEN ATOMIC CHARGES
-----------------------
   0 S :    0.101716
   1 C :   -0.114201
   2 C :   -0.072309
   3 C :    0.055233
   4 C :   -0.120710
   5 H :   -0.049891
   6 C :    0.112190
   7 H :    0.010954
   8 H :    0.026058
   9 C :   -0.099216
  10 H :    0.041522
  11 H :    0.025478
  12 C :   -0.071760
  13 H :    0.023933
  14 H :    0.048723
  15 H :    0.037255
  16 S :    0.122459
  17 C :   -0.119241
  18 C :   -0.051286
  19 C :   -0.040195
  20 C :   -0.152563
  21 H :    0.033615
  22 C :    0.085022
  23 H :    0.025589
  24 H :    0.004188
  25 C :   -0.094058
  26 H :    0.033805
  27 H :    0.033051
  28 C :   -0.001864
  29 H :    0.019273
  30 H :    0.030138
  31 H :    0.016569
  32 H :    0.019177
  33 H :    0.081346
Sum of atomic charges:   -0.0000000

LOEWDIN ATOMIC CHARGES
----------------------
   0 S :    0.394663
   1 C :   -0.178022
   2 C :   -0.051159
   3 C :   -0.056823
   4 C :   -0.188195
   5 H :    0.001034
   6 C :   -0.029486
   7 H :    0.025151
   8 H :    0.032848
   9 C :   -0.041488
  10 H :    0.030138
  11 H :    0.019372
  12 C :   -0.068353
  13 H :    0.019146
  14 H :    0.032384
  15 H :    0.026625
  16 S :    0.415358
  17 C :   -0.206926
  18 C :   -0.072410
  19 C :   -0.039836
  20 C :   -0.194183
  21 H :    0.035248
  22 C :   -0.038514
  23 H :    0.037647
  24 H :    0.016252
  25 C :   -0.035588
  26 H :    0.024125
  27 H :    0.028672
  28 C :   -0.058533
  29 H :    0.022176
  30 H :    0.024339
  31 H :    0.020884
  32 H :    0.009931
  33 H :    0.043523

  Mayer bond orders larger than 0.100000
B(  0-S ,  1-C ) :   1.1323 B(  0-S ,  4-C ) :   1.1407 B(  1-C ,  2-C ) :   1.5847
B(  1-C , 32-H ) :   0.9829 B(  2-C ,  3-C ) :   1.2672 B(  2-C ,  6-C ) :   1.0226
B(  3-C ,  4-C ) :   1.5265 B(  3-C ,  5-H ) :   1.0096 B(  4-C , 20-C ) :   1.0687
B(  6-C ,  7-H ) :   0.9449 B(  6-C ,  8-H ) :   0.9293 B(  6-C ,  9-C ) :   1.0605
B(  9-C , 10-H ) :   0.9615 B(  9-C , 11-H ) :   0.9521 B(  9-C , 12-C ) :   1.0773
B( 12-C , 13-H ) :   0.9756 B( 12-C , 14-H ) :   0.9774 B( 12-C , 15-H ) :   0.9750
B( 16-S , 17-C ) :   1.1469 B( 16-S , 20-C ) :   1.1435 B( 17-C , 18-C ) :   1.6265
B( 17-C , 33-H ) :   0.9567 B( 18-C , 19-C ) :   1.2110 B( 18-C , 21-H ) :   0.9825
B( 19-C , 20-C ) :   1.5650 B( 19-C , 22-C ) :   1.0667 B( 22-C , 23-H ) :   0.9234
B( 22-C , 24-H ) :   0.9235 B( 22-C , 25-C ) :   1.0630 B( 25-C , 26-H ) :   0.9561
B( 25-C , 27-H ) :   0.9527 B( 25-C , 28-C ) :   1.0948 B( 28-C , 29-H ) :   0.9719
B( 28-C , 30-H ) :   0.9724 B( 28-C , 31-H ) :   0.9709

Dispersion correction           -0.013703506
FINAL SINGLE POINT ENERGY     -1339.862394075326

DIPOLE MOMENT
-------------
                                X             Y             Z
Electronic contribution:     -0.51102      12.28570      13.22614
Nuclear contribution   :      0.37770     -12.46614     -13.39429
                        -----------------------------------------
Total Dipole Moment    :     -0.13331      -0.18044      -0.16815
                        -----------------------------------------
Magnitude (a.u.)       :      0.28037
Magnitude (Debye)      :      0.71264

Rotational constants in cm-1:     0.021015     0.007319     0.005866
Rotational constants in MHz :   630.009409   219.424989   175.862673

                             ****ORCA TERMINATED NORMALLY****
TOTAL RUN TIME: 0 days 0 hours 0 minutes 29 seconds 763 msec
