                         Program Version 4.2.1 -  RELEASE  -
|  1> ! wB97X-D3 SP def2-SVP
|  2> %pal
|  3> nprocs 16
|  4> end
|  5>
|  6> * xyz 0 1
|  7> S 	 -42.4719 	 27.7553 	 90.1265
|  8> C 	 -44.1328 	 27.5366 	 90.5829
|  9> C 	 -44.9948 	 28.3377 	 89.8092
| 10> C 	 -44.1906 	 29.2005 	 88.975
| 11> C 	 -42.815 	 29.0032 	 89.0416
| 12> H 	 -44.5114 	 29.8819 	 88.2567
| 13> C 	 -46.5139 	 28.3216 	 89.7246
| 14> H 	 -46.9966 	 27.3299 	 89.8505
| 15> H 	 -46.904 	 28.6127 	 88.7588
| 16> C 	 -47.2843 	 29.2821 	 90.6071
| 17> H 	 -48.2953 	 29.1565 	 90.411
| 18> H 	 -47.2399 	 28.9895 	 91.71
| 19> C 	 -46.8266 	 30.7601 	 90.3656
| 20> H 	 -47.2102 	 31.4675 	 91.097
| 21> H 	 -45.7252 	 30.8739 	 90.3045
| 22> H 	 -47.2956 	 31.1269 	 89.4213
| 23> S 	 -41.4524 	 31.4327 	 88.4975
| 24> C 	 -40.604 	 31.4484 	 86.9139
| 25> C 	 -40.4369 	 30.1457 	 86.4502
| 26> C 	 -41.1455 	 29.1838 	 87.2591
| 27> C 	 -41.8355 	 29.7119 	 88.2922
| 28> H 	 -39.9363 	 29.8509 	 85.5599
| 29> C 	 -41.2721 	 27.7065 	 86.8051
| 30> H 	 -41.3157 	 27.6875 	 85.6838
| 31> H 	 -42.2159 	 27.3265 	 87.249
| 32> C 	 -40.1045 	 26.7625 	 87.2332
| 33> H 	 -40.491 	 25.7391 	 87.064
| 34> H 	 -39.8112 	 26.8784 	 88.3114
| 35> C 	 -38.8101 	 26.7952 	 86.4048
| 36> H 	 -38.2442 	 27.7485 	 86.5181
| 37> H 	 -38.957 	 26.6583 	 85.3427
| 38> H 	 -38.0519 	 26.0244 	 86.7017
| 39> H 	 -44.5505 	 26.707 	 91.2585
| 40> H 	 -40.2406 	 32.3399 	 86.4893
| 41> *
| 42>
| 43>                          ****END OF INPUT****

CARTESIAN COORDINATES (ANGSTROEM)
---------------------------------
  S    -42.471900   27.755300   90.126500
  C    -44.132800   27.536600   90.582900
  C    -44.994800   28.337700   89.809200
  C    -44.190600   29.200500   88.975000
  C    -42.815000   29.003200   89.041600
  H    -44.511400   29.881900   88.256700
  C    -46.513900   28.321600   89.724600
  H    -46.996600   27.329900   89.850500
  H    -46.904000   28.612700   88.758800
  C    -47.284300   29.282100   90.607100
  H    -48.295300   29.156500   90.411000
  H    -47.239900   28.989500   91.710000
  C    -46.826600   30.760100   90.365600
  H    -47.210200   31.467500   91.097000
  H    -45.725200   30.873900   90.304500
  H    -47.295600   31.126900   89.421300
  S    -41.452400   31.432700   88.497500
  C    -40.604000   31.448400   86.913900
  C    -40.436900   30.145700   86.450200
  C    -41.145500   29.183800   87.259100
  C    -41.835500   29.711900   88.292200
  H    -39.936300   29.850900   85.559900
  C    -41.272100   27.706500   86.805100
  H    -41.315700   27.687500   85.683800
  H    -42.215900   27.326500   87.249000
  C    -40.104500   26.762500   87.233200
  H    -40.491000   25.739100   87.064000
  H    -39.811200   26.878400   88.311400
  C    -38.810100   26.795200   86.404800
  H    -38.244200   27.748500   86.518100
  H    -38.957000   26.658300   85.342700
  H    -38.051900   26.024400   86.701700
  H    -44.550500   26.707000   91.258500
  H    -40.240600   32.339900   86.489300

 Total Charge           Charge          ....    0
 Multiplicity           Mult            ....    1
 Number of Electrons    NEL             ....  134
 Basis Dimension        Dim             ....  322

ORBITAL ENERGIES
----------------

  NO   OCC          E(Eh)            E(eV)
   0   2.0000     -88.969791     -2420.9911
   1   2.0000     -88.965198     -2420.8661
   2   2.0000     -10.323764      -280.9239
   3   2.0000     -10.323477      -280.9161
   4   2.0000     -10.320992      -280.8485
   5   2.0000     -10.320545      -280.8363
   6   2.0000     -10.309380      -280.5325
   7   2.0000     -10.299155      -280.2543
   8   2.0000     -10.298988      -280.2497
   9   2.0000     -10.297195      -280.2009
  10   2.0000     -10.294715      -280.1334
  11   2.0000     -10.292548      -280.0745
  12   2.0000     -10.289946      -280.0037
  13   2.0000     -10.285766      -279.8899
  14   2.0000     -10.280371      -279.7431
  15   2.0000     -10.278888      -279.7027
  16   2.0000      -8.085254      -220.0110
  17   2.0000      -8.078999      -219.8407
  18   2.0000      -6.043572      -164.4540
  19   2.0000      -6.039516      -164.3436
  20   2.0000      -6.037697      -164.2941
  21   2.0000      -6.036292      -164.2559
  22   2.0000      -6.033771      -164.1873
  23   2.0000      -6.029464      -164.0701
  24   2.0000      -1.011652       -27.5284
  25   2.0000      -0.982397       -26.7324
  26   2.0000      -0.914011       -24.8715
  27   2.0000      -0.897882       -24.4326
  28   2.0000      -0.871768       -23.7220
  29   2.0000      -0.845429       -23.0053
  30   2.0000      -0.842566       -22.9274
  31   2.0000      -0.810838       -22.0640
  32   2.0000      -0.783561       -21.3218
  33   2.0000      -0.773215       -21.0403
  34   2.0000      -0.705221       -19.1900
  35   2.0000      -0.700158       -19.0523
  36   2.0000      -0.687868       -18.7178
  37   2.0000      -0.666723       -18.1425
  38   2.0000      -0.645698       -17.5703
  39   2.0000      -0.610207       -16.6046
  40   2.0000      -0.592983       -16.1359
  41   2.0000      -0.574408       -15.6304
  42   2.0000      -0.553572       -15.0634
  43   2.0000      -0.545948       -14.8560
  44   2.0000      -0.541991       -14.7483
  45   2.0000      -0.538638       -14.6571
  46   2.0000      -0.516849       -14.0642
  47   2.0000      -0.505844       -13.7647
  48   2.0000      -0.500092       -13.6082
  49   2.0000      -0.493813       -13.4373
  50   2.0000      -0.488901       -13.3037
  51   2.0000      -0.474331       -12.9072
  52   2.0000      -0.469549       -12.7771
  53   2.0000      -0.465361       -12.6631
  54   2.0000      -0.461662       -12.5625
  55   2.0000      -0.442151       -12.0316
  56   2.0000      -0.439601       -11.9621
  57   2.0000      -0.435341       -11.8462
  58   2.0000      -0.431694       -11.7470
  59   2.0000      -0.429620       -11.6906
  60   2.0000      -0.425522       -11.5790
  61   2.0000      -0.409212       -11.1352
  62   2.0000      -0.406064       -11.0496
  63   2.0000      -0.335466        -9.1285
  64   2.0000      -0.333153        -9.0656
  65   2.0000      -0.328023        -8.9260
  66   2.0000      -0.303902        -8.2696
  67   0.0000       0.034234         0.9316
  68   0.0000       0.063281         1.7220
  69   0.0000       0.103466         2.8154
  70   0.0000       0.111883         3.0445
  71   0.0000       0.130167         3.5420

MULLIKEN ATOMIC CHARGES
-----------------------
   0 S :    0.137333
   1 C :   -0.146121
   2 C :   -0.063758
   3 C :    0.056183
   4 C :   -0.235810
   5 H :   -0.011909
   6 C :    0.055328
   7 H :    0.028785
   8 H :    0.016240
   9 C :   -0.054871
  10 H :    0.012911
  11 H :    0.029681
  12 C :   -0.086408
  13 H :    0.033810
  14 H :    0.058774
  15 H :    0.026278
  16 S :    0.103345
  17 C :   -0.087573
  18 C :    0.011293
  19 C :   -0.033666
  20 C :   -0.134934
  21 H :    0.010048
  22 C :    0.043892
  23 H :    0.031778
  24 H :    0.049588
  25 C :   -0.070874
  26 H :    0.037017
  27 H :    0.042189
  28 C :   -0.083104
  29 H :    0.034357
  30 H :    0.023544
  31 H :    0.041026
  32 H :    0.077479
  33 H :    0.048149
Sum of atomic charges:    0.0000000

LOEWDIN ATOMIC CHARGES
----------------------
   0 S :    0.452750
   1 C :   -0.216475
   2 C :   -0.060472
   3 C :   -0.052058
   4 C :   -0.221314
   5 H :    0.019651
   6 C :   -0.037212
   7 H :    0.034823
   8 H :    0.031534
   9 C :   -0.038035
  10 H :    0.013949
  11 H :    0.024659
  12 C :   -0.073684
  13 H :    0.025178
  14 H :    0.031932
  15 H :    0.026832
  16 S :    0.371248
  17 C :   -0.153292
  18 C :   -0.061005
  19 C :   -0.053546
  20 C :   -0.201046
  21 H :    0.026368
  22 C :   -0.032129
  23 H :    0.033400
  24 H :    0.033380
  25 C :   -0.046184
  26 H :    0.029164
  27 H :    0.028453
  28 C :   -0.079990
  29 H :    0.024997
  30 H :    0.018365
  31 H :    0.033360
  32 H :    0.046946
  33 H :    0.019454

  Mayer bond orders larger than 0.100000
B(  0-S ,  1-C ) :   1.1652 B(  0-S ,  4-C ) :   1.1715 B(  1-C ,  2-C ) :   1.5833
B(  1-C , 32-H ) :   0.9562 B(  2-C ,  3-C ) :   1.2490 B(  2-C ,  6-C ) :   1.0235
B(  3-C ,  4-C ) :   1.5599 B(  3-C ,  5-H ) :   1.0010 B(  4-C , 20-C ) :   1.0319
B(  6-C ,  7-H ) :   0.9415 B(  6-C ,  8-H ) :   0.9438 B(  6-C ,  9-C ) :   1.0792
B(  9-C , 10-H ) :   0.9550 B(  9-C , 11-H ) :   0.9564 B(  9-C , 12-C ) :   1.0649
B( 12-C , 13-H ) :   0.9748 B( 12-C , 14-H ) :   0.9739 B( 12-C , 15-H ) :   0.9743
B( 16-S , 17-C ) :   1.1399 B( 16-S , 20-C ) :   1.1064 B( 17-C , 18-C ) :   1.6064
B( 17-C , 33-H ) :   0.9778 B( 18-C , 19-C ) :   1.2293 B( 18-C , 21-H ) :   0.9925
B( 19-C , 20-C ) :   1.6386 B( 19-C , 22-C ) :   1.0346 B( 22-C , 23-H ) :   0.9424
B( 22-C , 24-H ) :   0.9274 B( 22-C , 25-C ) :   1.0627 B( 25-C , 26-H ) :   0.9567
B( 25-C , 27-H ) :   0.9540 B( 25-C , 28-C ) :   1.0792 B( 28-C , 29-H ) :   0.9739
B( 28-C , 30-H ) :   0.9740 B( 28-C , 31-H ) :   0.9727

Dispersion correction           -0.014997680
FINAL SINGLE POINT ENERGY     -1339.876027457585

DIPOLE MOMENT
-------------
                                X             Y             Z
Electronic contribution:      8.51286       7.47825       5.29524
Nuclear contribution   :     -8.84172      -7.75360      -5.73538
                        -----------------------------------------
Total Dipole Moment    :     -0.32886      -0.27535      -0.44014
                        -----------------------------------------
Magnitude (a.u.)       :      0.61457
Magnitude (Debye)      :      1.56210

Rotational constants in cm-1:     0.022096     0.008355     0.006747
Rotational constants in MHz :   662.424547   250.474391   202.257837

                             ****ORCA TERMINATED NORMALLY****
TOTAL RUN TIME: 0 days 0 hours 0 minutes 30 seconds 227 msec
