                         Program Version 4.2.1 -  RELEASE  -
|  1> ! wB97X-D3 SP def2-SVP
|  2> %pal
|  3> nprocs 16
|  4> end
|  5>
|  6> * xyz 0 1
|  7> S 	 11.2086 	 -8.5424 	 97.257
|  8> C 	 9.73176 	 -9.21261 	 97.9922
|  9> C 	 8.71692 	 -9.20407 	 97.1004
| 10> C 	 9.0621 	 -8.74828 	 95.7706
| 11> C 	 10.3828 	 -8.33553 	 95.736
| 12> H 	 8.42623 	 -8.81301 	 94.9116
| 13> C 	 7.46716 	 -10.026 	 97.32
| 14> H 	 6.64994 	 -9.41735 	 96.9606
| 15> H 	 7.36462 	 -10.0686 	 98.3829
| 16> C 	 7.4595 	 -11.4443 	 96.8108
| 17> H 	 6.56995 	 -11.9238 	 97.1449
| 18> H 	 7.54754 	 -11.3626 	 95.672
| 19> C 	 8.70119 	 -12.3293 	 97.1493
| 20> H 	 9.58848 	 -11.8584 	 96.8632
| 21> H 	 8.73684 	 -12.432 	 98.2031
| 22> H 	 8.64819 	 -13.3047 	 96.614
| 23> S 	 11.9623 	 -6.35082 	 94.8514
| 24> C 	 12.6182 	 -6.51976 	 93.2194
| 25> C 	 11.977 	 -7.42991 	 92.4452
| 26> C 	 11.1992 	 -8.30212 	 93.2872
| 27> C 	 11.0422 	 -7.80408 	 94.5914
| 28> H 	 12.2479 	 -7.45039 	 91.3789
| 29> C 	 10.4963 	 -9.49526 	 92.7109
| 30> H 	 10.1142 	 -10.1212 	 93.5184
| 31> H 	 11.1901 	 -10.208 	 92.2173
| 32> C 	 9.29075 	 -9.16905 	 91.7911
| 33> H 	 9.39944 	 -8.47837 	 90.9999
| 34> H 	 8.66178 	 -8.80636 	 92.5527
| 35> C 	 8.66931 	 -10.4294 	 91.1552
| 36> H 	 7.88356 	 -10.1554 	 90.4956
| 37> H 	 8.37546 	 -11.2128 	 91.8113
| 38> H 	 9.35177 	 -10.8792 	 90.5262
| 39> H 	 9.58316 	 -9.25044 	 99.0684
| 40> H 	 13.3171 	 -5.78053 	 92.7994
| 41> *
| 42>
| 43>                          ****END OF INPUT****

CARTESIAN COORDINATES (ANGSTROEM)
---------------------------------
  S     11.208600   -8.542400   97.257000
  C      9.731760   -9.212610   97.992200
  C      8.716920   -9.204070   97.100400
  C      9.062100   -8.748280   95.770600
  C     10.382800   -8.335530   95.736000
  H      8.426230   -8.813010   94.911600
  C      7.467160  -10.026000   97.320000
  H      6.649940   -9.417350   96.960600
  H      7.364620  -10.068600   98.382900
  C      7.459500  -11.444300   96.810800
  H      6.569950  -11.923800   97.144900
  H      7.547540  -11.362600   95.672000
  C      8.701190  -12.329300   97.149300
  H      9.588480  -11.858400   96.863200
  H      8.736840  -12.432000   98.203100
  H      8.648190  -13.304700   96.614000
  S     11.962300   -6.350820   94.851400
  C     12.618200   -6.519760   93.219400
  C     11.977000   -7.429910   92.445200
  C     11.199200   -8.302120   93.287200
  C     11.042200   -7.804080   94.591400
  H     12.247900   -7.450390   91.378900
  C     10.496300   -9.495260   92.710900
  H     10.114200  -10.121200   93.518400
  H     11.190100  -10.208000   92.217300
  C      9.290750   -9.169050   91.791100
  H      9.399440   -8.478370   90.999900
  H      8.661780   -8.806360   92.552700
  C      8.669310  -10.429400   91.155200
  H      7.883560  -10.155400   90.495600
  H      8.375460  -11.212800   91.811300
  H      9.351770  -10.879200   90.526200
  H      9.583160   -9.250440   99.068400
  H     13.317100   -5.780530   92.799400

 Total Charge           Charge          ....    0
 Multiplicity           Mult            ....    1
 Number of Electrons    NEL             ....  134
 Basis Dimension        Dim             ....  322

ORBITAL ENERGIES
----------------

  NO   OCC          E(Eh)            E(eV)
   0   2.0000     -88.965620     -2420.8776
   1   2.0000     -88.965087     -2420.8631
   2   2.0000     -10.328361      -281.0490
   3   2.0000     -10.323232      -280.9094
   4   2.0000     -10.316612      -280.7293
   5   2.0000     -10.312076      -280.6059
   6   2.0000     -10.307826      -280.4902
   7   2.0000     -10.296210      -280.1741
   8   2.0000     -10.296192      -280.1736
   9   2.0000     -10.294172      -280.1186
  10   2.0000     -10.291465      -280.0450
  11   2.0000     -10.289184      -279.9829
  12   2.0000     -10.284243      -279.8485
  13   2.0000     -10.282488      -279.8007
  14   2.0000     -10.269556      -279.4488
  15   2.0000     -10.266903      -279.3766
  16   2.0000      -8.080229      -219.8742
  17   2.0000      -8.080101      -219.8707
  18   2.0000      -6.038832      -164.3250
  19   2.0000      -6.038515      -164.3164
  20   2.0000      -6.034786      -164.2149
  21   2.0000      -6.034737      -164.2136
  22   2.0000      -6.030887      -164.1088
  23   2.0000      -6.030728      -164.1045
  24   2.0000      -1.009900       -27.4808
  25   2.0000      -0.984365       -26.7859
  26   2.0000      -0.914991       -24.8982
  27   2.0000      -0.910955       -24.7883
  28   2.0000      -0.873296       -23.7636
  29   2.0000      -0.854062       -23.2402
  30   2.0000      -0.843380       -22.9495
  31   2.0000      -0.818051       -22.2603
  32   2.0000      -0.787155       -21.4196
  33   2.0000      -0.774554       -21.0767
  34   2.0000      -0.714471       -19.4417
  35   2.0000      -0.701233       -19.0815
  36   2.0000      -0.693901       -18.8820
  37   2.0000      -0.659499       -17.9459
  38   2.0000      -0.638100       -17.3636
  39   2.0000      -0.622584       -16.9414
  40   2.0000      -0.598198       -16.2778
  41   2.0000      -0.571626       -15.5547
  42   2.0000      -0.564582       -15.3631
  43   2.0000      -0.553672       -15.0662
  44   2.0000      -0.550227       -14.9724
  45   2.0000      -0.528379       -14.3779
  46   2.0000      -0.517965       -14.0945
  47   2.0000      -0.510943       -13.9035
  48   2.0000      -0.504552       -13.7296
  49   2.0000      -0.499882       -13.6025
  50   2.0000      -0.491369       -13.3708
  51   2.0000      -0.476709       -12.9719
  52   2.0000      -0.466869       -12.7041
  53   2.0000      -0.464902       -12.6506
  54   2.0000      -0.460752       -12.5377
  55   2.0000      -0.456420       -12.4198
  56   2.0000      -0.448329       -12.1996
  57   2.0000      -0.444782       -12.1031
  58   2.0000      -0.437499       -11.9050
  59   2.0000      -0.427324       -11.6281
  60   2.0000      -0.419313       -11.4101
  61   2.0000      -0.414705       -11.2847
  62   2.0000      -0.403648       -10.9838
  63   2.0000      -0.344730        -9.3806
  64   2.0000      -0.333021        -9.0620
  65   2.0000      -0.329146        -8.9565
  66   2.0000      -0.294431        -8.0119
  67   0.0000       0.026597         0.7237
  68   0.0000       0.072640         1.9766
  69   0.0000       0.104171         2.8346
  70   0.0000       0.112245         3.0543
  71   0.0000       0.123201         3.3525

MULLIKEN ATOMIC CHARGES
-----------------------
   0 S :    0.108585
   1 C :   -0.131903
   2 C :   -0.101711
   3 C :    0.022319
   4 C :   -0.128850
   5 H :    0.007802
   6 C :    0.079820
   7 H :    0.026209
   8 H :   -0.000436
   9 C :   -0.072396
  10 H :    0.034697
  11 H :    0.027055
  12 C :   -0.031846
  13 H :    0.032484
  14 H :    0.016494
  15 H :    0.042083
  16 S :    0.104773
  17 C :   -0.102899
  18 C :   -0.028466
  19 C :   -0.020312
  20 C :   -0.157750
  21 H :    0.037492
  22 C :    0.026707
  23 H :    0.017286
  24 H :    0.024369
  25 C :   -0.040342
  26 H :    0.026543
  27 H :    0.011155
  28 C :    0.003001
  29 H :    0.023717
  30 H :    0.020149
  31 H :    0.002642
  32 H :    0.062123
  33 H :    0.059403
Sum of atomic charges:    0.0000000

LOEWDIN ATOMIC CHARGES
----------------------
   0 S :    0.393685
   1 C :   -0.193799
   2 C :   -0.063150
   3 C :   -0.059673
   4 C :   -0.189758
   5 H :    0.027659
   6 C :   -0.033437
   7 H :    0.029575
   8 H :    0.021835
   9 C :   -0.035262
  10 H :    0.022046
  11 H :    0.026779
  12 C :   -0.056611
  13 H :    0.018202
  14 H :    0.016241
  15 H :    0.033232
  16 S :    0.397850
  17 C :   -0.173871
  18 C :   -0.069945
  19 C :   -0.047794
  20 C :   -0.205498
  21 H :    0.042453
  22 C :   -0.037375
  23 H :    0.028471
  24 H :    0.027636
  25 C :   -0.025073
  26 H :    0.019985
  27 H :    0.016947
  28 C :   -0.055283
  29 H :    0.025291
  30 H :    0.021544
  31 H :    0.015362
  32 H :    0.032802
  33 H :    0.028938

  Mayer bond orders larger than 0.100000
B(  0-S ,  1-C ) :   1.1062 B(  0-S ,  4-C ) :   1.1551 B(  1-C ,  2-C ) :   1.6438
B(  1-C , 32-H ) :   0.9594 B(  2-C ,  3-C ) :   1.2104 B(  2-C ,  6-C ) :   1.0401
B(  3-C ,  4-C ) :   1.5578 B(  3-C ,  5-H ) :   1.0034 B(  4-C , 20-C ) :   1.0626
B(  6-C ,  7-H ) :   0.9340 B(  6-C ,  8-H ) :   0.9340 B(  6-C ,  9-C ) :   1.0697
B(  9-C , 10-H ) :   0.9564 B(  9-C , 11-H ) :   0.9547 B(  9-C , 12-C ) :   1.0784
B( 12-C , 13-H ) :   0.9707 B( 12-C , 14-H ) :   0.9762 B( 12-C , 15-H ) :   0.9740
B( 16-S , 17-C ) :   1.1426 B( 16-S , 20-C ) :   1.1317 B( 17-C , 18-C ) :   1.6598
B( 17-C , 33-H ) :   0.9603 B( 18-C , 19-C ) :   1.1924 B( 18-C , 21-H ) :   0.9848
B( 19-C , 20-C ) :   1.5985 B( 19-C , 22-C ) :   1.0697 B( 22-C , 23-H ) :   0.9326
B( 22-C , 24-H ) :   0.9335 B( 22-C , 25-C ) :   1.0404 B( 25-C , 26-H ) :   0.9604
B( 25-C , 27-H ) :   0.9560 B( 25-C , 28-C ) :   1.0881 B( 28-C , 29-H ) :   0.9718
B( 28-C , 30-H ) :   0.9733 B( 28-C , 31-H ) :   0.9701

Dispersion correction           -0.015162075
FINAL SINGLE POINT ENERGY     -1339.863265610295

DIPOLE MOMENT
-------------
                                X             Y             Z
Electronic contribution:     18.21981      21.50081      10.41377
Nuclear contribution   :    -18.57850     -21.80001     -10.84605
                        -----------------------------------------
Total Dipole Moment    :     -0.35869      -0.29920      -0.43227
                        -----------------------------------------
Magnitude (a.u.)       :      0.63643
Magnitude (Debye)      :      1.61767

Rotational constants in cm-1:     0.017335     0.010467     0.007103
Rotational constants in MHz :   519.703681   313.799493   212.930152

                             ****ORCA TERMINATED NORMALLY****
TOTAL RUN TIME: 0 days 0 hours 0 minutes 35 seconds 545 msec
