                         Program Version 4.2.1 -  RELEASE  -
|  1> ! wB97X-D3 SP def2-SVP
|  2> %pal
|  3> nprocs 16
|  4> end
|  5>
|  6> * xyz 0 1
|  7> S 	 12.5124 	 -10.4975 	 94.7693
|  8> C 	 11.7937 	 -11.6871 	 95.7303
|  9> C 	 10.7591 	 -11.1204 	 96.5383
| 10> C 	 10.6773 	 -9.74295 	 96.3141
| 11> C 	 11.6512 	 -9.17958 	 95.5014
| 12> H 	 9.93888 	 -9.0814 	 96.706
| 13> C 	 9.69079 	 -11.9137 	 97.2338
| 14> H 	 9.37627 	 -11.4415 	 98.1952
| 15> H 	 10.2556 	 -12.7682 	 97.5309
| 16> C 	 8.476 	 -12.2349 	 96.3596
| 17> H 	 7.70823 	 -12.6513 	 96.9659
| 18> H 	 8.20649 	 -11.3611 	 95.7256
| 19> C 	 8.61485 	 -13.4067 	 95.4135
| 20> H 	 9.52315 	 -13.2393 	 94.8445
| 21> H 	 8.70698 	 -14.3584 	 95.8725
| 22> H 	 7.84791 	 -13.4875 	 94.6328
| 23> S 	 11.9102 	 -6.57122 	 96.2702
| 24> C 	 12.4626 	 -5.42823 	 95.0999
| 25> C 	 12.2117 	 -5.8709 	 93.8
| 26> C 	 11.7548 	 -7.22614 	 93.737
| 27> C 	 11.7093 	 -7.78419 	 95.0089
| 28> H 	 12.5024 	 -5.17627 	 93.0019
| 29> C 	 11.5019 	 -7.93528 	 92.47
| 30> H 	 12.0629 	 -8.90472 	 92.5964
| 31> H 	 12.1096 	 -7.45628 	 91.6947
| 32> C 	 10.0065 	 -8.15181 	 91.9581
| 33> H 	 9.40117 	 -7.32389 	 92.2383
| 34> H 	 9.6041 	 -8.99224 	 92.4261
| 35> C 	 9.94811 	 -8.45266 	 90.4374
| 36> H 	 10.3748 	 -7.67377 	 89.8283
| 37> H 	 8.92269 	 -8.56675 	 90.0319
| 38> H 	 10.6137 	 -9.27723 	 90.1796
| 39> H 	 12.089 	 -12.7282 	 95.6106
| 40> H 	 12.8772 	 -4.44071 	 95.2542
| 41> *
| 42>
| 43>                          ****END OF INPUT****

CARTESIAN COORDINATES (ANGSTROEM)
---------------------------------
  S     12.512400  -10.497500   94.769300
  C     11.793700  -11.687100   95.730300
  C     10.759100  -11.120400   96.538300
  C     10.677300   -9.742950   96.314100
  C     11.651200   -9.179580   95.501400
  H      9.938880   -9.081400   96.706000
  C      9.690790  -11.913700   97.233800
  H      9.376270  -11.441500   98.195200
  H     10.255600  -12.768200   97.530900
  C      8.476000  -12.234900   96.359600
  H      7.708230  -12.651300   96.965900
  H      8.206490  -11.361100   95.725600
  C      8.614850  -13.406700   95.413500
  H      9.523150  -13.239300   94.844500
  H      8.706980  -14.358400   95.872500
  H      7.847910  -13.487500   94.632800
  S     11.910200   -6.571220   96.270200
  C     12.462600   -5.428230   95.099900
  C     12.211700   -5.870900   93.800000
  C     11.754800   -7.226140   93.737000
  C     11.709300   -7.784190   95.008900
  H     12.502400   -5.176270   93.001900
  C     11.501900   -7.935280   92.470000
  H     12.062900   -8.904720   92.596400
  H     12.109600   -7.456280   91.694700
  C     10.006500   -8.151810   91.958100
  H      9.401170   -7.323890   92.238300
  H      9.604100   -8.992240   92.426100
  C      9.948110   -8.452660   90.437400
  H     10.374800   -7.673770   89.828300
  H      8.922690   -8.566750   90.031900
  H     10.613700   -9.277230   90.179600
  H     12.089000  -12.728200   95.610600
  H     12.877200   -4.440710   95.254200

 Total Charge           Charge          ....    0
 Multiplicity           Mult            ....    1
 Number of Electrons    NEL             ....  134
 Basis Dimension        Dim             ....  322

ORBITAL ENERGIES
----------------

  NO   OCC          E(Eh)            E(eV)
   0   2.0000     -88.968577     -2420.9581
   1   2.0000     -88.965658     -2420.8786
   2   2.0000     -10.327797      -281.0336
   3   2.0000     -10.327666      -281.0301
   4   2.0000     -10.317252      -280.7467
   5   2.0000     -10.314976      -280.6848
   6   2.0000     -10.304006      -280.3863
   7   2.0000     -10.301591      -280.3205
   8   2.0000     -10.294512      -280.1279
   9   2.0000     -10.293547      -280.1016
  10   2.0000     -10.291043      -280.0335
  11   2.0000     -10.288000      -279.9507
  12   2.0000     -10.284686      -279.8605
  13   2.0000     -10.284601      -279.8582
  14   2.0000     -10.278463      -279.6912
  15   2.0000     -10.269477      -279.4467
  16   2.0000      -8.084002      -219.9769
  17   2.0000      -8.080649      -219.8856
  18   2.0000      -6.042328      -164.4201
  19   2.0000      -6.039120      -164.3328
  20   2.0000      -6.038179      -164.3072
  21   2.0000      -6.035176      -164.2255
  22   2.0000      -6.035173      -164.2254
  23   2.0000      -6.031376      -164.1221
  24   2.0000      -1.010439       -27.4954
  25   2.0000      -0.988934       -26.9103
  26   2.0000      -0.915693       -24.9173
  27   2.0000      -0.903305       -24.5802
  28   2.0000      -0.866762       -23.5858
  29   2.0000      -0.856420       -23.3044
  30   2.0000      -0.851611       -23.1735
  31   2.0000      -0.813820       -22.1452
  32   2.0000      -0.782748       -21.2997
  33   2.0000      -0.768779       -20.9195
  34   2.0000      -0.713440       -19.4137
  35   2.0000      -0.702412       -19.1136
  36   2.0000      -0.688024       -18.7221
  37   2.0000      -0.664638       -18.0857
  38   2.0000      -0.643909       -17.5217
  39   2.0000      -0.619770       -16.8648
  40   2.0000      -0.590427       -16.0663
  41   2.0000      -0.577320       -15.7097
  42   2.0000      -0.555784       -15.1236
  43   2.0000      -0.551217       -14.9994
  44   2.0000      -0.541178       -14.7262
  45   2.0000      -0.525400       -14.2969
  46   2.0000      -0.522371       -14.2144
  47   2.0000      -0.520835       -14.1726
  48   2.0000      -0.504929       -13.7398
  49   2.0000      -0.497814       -13.5462
  50   2.0000      -0.487993       -13.2790
  51   2.0000      -0.477736       -12.9999
  52   2.0000      -0.470313       -12.7979
  53   2.0000      -0.464834       -12.6488
  54   2.0000      -0.452947       -12.3253
  55   2.0000      -0.449542       -12.2327
  56   2.0000      -0.443298       -12.0628
  57   2.0000      -0.440335       -11.9821
  58   2.0000      -0.435482       -11.8501
  59   2.0000      -0.428926       -11.6717
  60   2.0000      -0.424739       -11.5577
  61   2.0000      -0.415344       -11.3021
  62   2.0000      -0.404404       -11.0044
  63   2.0000      -0.347412        -9.4536
  64   2.0000      -0.330091        -8.9822
  65   2.0000      -0.329407        -8.9636
  66   2.0000      -0.286777        -7.8036
  67   0.0000       0.028202         0.7674
  68   0.0000       0.062525         1.7014
  69   0.0000       0.104305         2.8383
  70   0.0000       0.128430         3.4948
  71   0.0000       0.133307         3.6275

MULLIKEN ATOMIC CHARGES
-----------------------
   0 S :    0.115862
   1 C :   -0.141634
   2 C :   -0.089743
   3 C :    0.015120
   4 C :   -0.120233
   5 H :    0.003140
   6 C :    0.072317
   7 H :    0.035221
   8 H :    0.012855
   9 C :   -0.032521
  10 H :    0.027449
  11 H :    0.043250
  12 C :   -0.057628
  13 H :    0.009799
  14 H :    0.021302
  15 H :    0.032274
  16 S :    0.118438
  17 C :   -0.094795
  18 C :   -0.061914
  19 C :   -0.029487
  20 C :   -0.175149
  21 H :    0.026779
  22 C :    0.028358
  23 H :    0.029284
  24 H :    0.012807
  25 C :    0.012488
  26 H :    0.027176
  27 H :    0.022443
  28 C :   -0.072456
  29 H :    0.018222
  30 H :    0.043882
  31 H :    0.030088
  32 H :    0.063341
  33 H :    0.053666
Sum of atomic charges:    0.0000000

LOEWDIN ATOMIC CHARGES
----------------------
   0 S :    0.455996
   1 C :   -0.218839
   2 C :   -0.068373
   3 C :   -0.063767
   4 C :   -0.208777
   5 H :    0.025717
   6 C :   -0.033573
   7 H :    0.036620
   8 H :    0.027999
   9 C :   -0.038044
  10 H :    0.024509
  11 H :    0.034103
  12 C :   -0.066525
  13 H :    0.018189
  14 H :    0.016611
  15 H :    0.028641
  16 S :    0.414460
  17 C :   -0.194501
  18 C :   -0.074159
  19 C :   -0.062393
  20 C :   -0.192347
  21 H :    0.035265
  22 C :   -0.042467
  23 H :    0.029999
  24 H :    0.028648
  25 C :   -0.021490
  26 H :    0.021512
  27 H :    0.019677
  28 C :   -0.070159
  29 H :    0.019359
  30 H :    0.031352
  31 H :    0.026986
  32 H :    0.029412
  33 H :    0.030361

  Mayer bond orders larger than 0.100000
B(  0-S ,  1-C ) :   1.2013 B(  0-S ,  4-C ) :   1.1716 B(  1-C ,  2-C ) :   1.5002
B(  1-C ,  4-C ) :   0.1075 B(  1-C , 32-H ) :   0.9701 B(  2-C ,  3-C ) :   1.3149
B(  2-C ,  6-C ) :   1.0389 B(  3-C ,  4-C ) :   1.5190 B(  3-C ,  5-H ) :   0.9965
B(  4-C , 20-C ) :   1.0196 B(  6-C ,  7-H ) :   0.9394 B(  6-C ,  8-H ) :   0.9351
B(  6-C ,  9-C ) :   1.0567 B(  9-C , 10-H ) :   0.9558 B(  9-C , 11-H ) :   0.9567
B(  9-C , 12-C ) :   1.0817 B( 12-C , 13-H ) :   0.9702 B( 12-C , 14-H ) :   0.9763
B( 12-C , 15-H ) :   0.9716 B( 16-S , 17-C ) :   1.1569 B( 16-S , 20-C ) :   1.1430
B( 17-C , 18-C ) :   1.6205 B( 17-C , 33-H ) :   0.9665 B( 18-C , 19-C ) :   1.2203
B( 18-C , 21-H ) :   0.9891 B( 19-C , 20-C ) :   1.5808 B( 19-C , 22-C ) :   1.0570
B( 22-C , 23-H ) :   0.9231 B( 22-C , 24-H ) :   0.9366 B( 22-C , 25-C ) :   1.0346
B( 25-C , 26-H ) :   0.9624 B( 25-C , 27-H ) :   0.9538 B( 25-C , 28-C ) :   1.0796
B( 28-C , 29-H ) :   0.9762 B( 28-C , 30-H ) :   0.9751 B( 28-C , 31-H ) :   0.9745

Dispersion correction           -0.014429285
FINAL SINGLE POINT ENERGY     -1339.864405435325

DIPOLE MOMENT
-------------
                                X             Y             Z
Electronic contribution:     16.59591      13.27822      12.91121
Nuclear contribution   :    -16.89794     -13.43147     -13.22541
                        -----------------------------------------
Total Dipole Moment    :     -0.30202      -0.15325      -0.31420
                        -----------------------------------------
Magnitude (a.u.)       :      0.46198
Magnitude (Debye)      :      1.17425

Rotational constants in cm-1:     0.018149     0.008909     0.007073
Rotational constants in MHz :   544.090532   267.085880   212.034465

                             ****ORCA TERMINATED NORMALLY****
TOTAL RUN TIME: 0 days 0 hours 0 minutes 33 seconds 277 msec
