                         Program Version 4.2.1 -  RELEASE  -
|  1> ! wB97X-D3 SP def2-SVP
|  2> %pal
|  3> nprocs 16
|  4> end
|  5>
|  6> * xyz 0 1
|  7> S 	 6.92448 	 -14.7602 	 67.6839
|  8> C 	 8.0418 	 -15.3794 	 68.873
|  9> C 	 8.11052 	 -14.6208 	 70.0183
| 10> C 	 7.2265 	 -13.5329 	 70.0322
| 11> C 	 6.5696 	 -13.5019 	 68.8205
| 12> H 	 7.04326 	 -12.8475 	 70.8965
| 13> C 	 9.13013 	 -14.7595 	 71.1233
| 14> H 	 9.81826 	 -15.559 	 70.8044
| 15> H 	 8.58644 	 -15.1176 	 72.0381
| 16> C 	 9.85786 	 -13.4254 	 71.4903
| 17> H 	 9.21041 	 -12.6255 	 71.3768
| 18> H 	 10.0827 	 -13.3266 	 72.5843
| 19> C 	 11.0867 	 -13.0208 	 70.587
| 20> H 	 11.5491 	 -13.9203 	 70.1686
| 21> H 	 10.7054 	 -12.3213 	 69.8215
| 22> H 	 11.8605 	 -12.516 	 71.1803
| 23> S 	 3.96262 	 -12.5698 	 68.2326
| 24> C 	 3.77465 	 -10.7994 	 68.0387
| 25> C 	 4.98451 	 -10.1493 	 68.0983
| 26> C 	 6.11446 	 -10.9983 	 68.404
| 27> C 	 5.74504 	 -12.3635 	 68.3969
| 28> H 	 5.04373 	 -9.02699 	 68.0882
| 29> C 	 7.46691 	 -10.4617 	 68.7465
| 30> H 	 8.23872 	 -11.2322 	 68.7333
| 31> H 	 7.26325 	 -10.0496 	 69.7582
| 32> C 	 7.96494 	 -9.3012 	 67.7732
| 33> H 	 7.3232 	 -8.46569 	 67.6716
| 34> H 	 7.92788 	 -9.78546 	 66.7843
| 35> C 	 9.33543 	 -8.66128 	 68.1251
| 36> H 	 10.1087 	 -9.44943 	 68.1654
| 37> H 	 9.28582 	 -8.20036 	 69.0633
| 38> H 	 9.57391 	 -7.81694 	 67.5089
| 39> H 	 8.62013 	 -16.2842 	 68.6477
| 40> H 	 2.74567 	 -10.3602 	 67.8974
| 41> *
| 42>
| 43>                          ****END OF INPUT****

CARTESIAN COORDINATES (ANGSTROEM)
---------------------------------
  S      6.924480  -14.760200   67.683900
  C      8.041800  -15.379400   68.873000
  C      8.110520  -14.620800   70.018300
  C      7.226500  -13.532900   70.032200
  C      6.569600  -13.501900   68.820500
  H      7.043260  -12.847500   70.896500
  C      9.130130  -14.759500   71.123300
  H      9.818260  -15.559000   70.804400
  H      8.586440  -15.117600   72.038100
  C      9.857860  -13.425400   71.490300
  H      9.210410  -12.625500   71.376800
  H     10.082700  -13.326600   72.584300
  C     11.086700  -13.020800   70.587000
  H     11.549100  -13.920300   70.168600
  H     10.705400  -12.321300   69.821500
  H     11.860500  -12.516000   71.180300
  S      3.962620  -12.569800   68.232600
  C      3.774650  -10.799400   68.038700
  C      4.984510  -10.149300   68.098300
  C      6.114460  -10.998300   68.404000
  C      5.745040  -12.363500   68.396900
  H      5.043730   -9.026990   68.088200
  C      7.466910  -10.461700   68.746500
  H      8.238720  -11.232200   68.733300
  H      7.263250  -10.049600   69.758200
  C      7.964940   -9.301200   67.773200
  H      7.323200   -8.465690   67.671600
  H      7.927880   -9.785460   66.784300
  C      9.335430   -8.661280   68.125100
  H     10.108700   -9.449430   68.165400
  H      9.285820   -8.200360   69.063300
  H      9.573910   -7.816940   67.508900
  H      8.620130  -16.284200   68.647700
  H      2.745670  -10.360200   67.897400

 Total Charge           Charge          ....    0
 Multiplicity           Mult            ....    1
 Number of Electrons    NEL             ....  134
 Basis Dimension        Dim             ....  322

ORBITAL ENERGIES
----------------

  NO   OCC          E(Eh)            E(eV)
   0   2.0000     -88.968424     -2420.9539
   1   2.0000     -88.961682     -2420.7704
   2   2.0000     -10.325356      -280.9672
   3   2.0000     -10.325302      -280.9657
   4   2.0000     -10.325058      -280.9591
   5   2.0000     -10.311399      -280.5874
   6   2.0000     -10.306818      -280.4628
   7   2.0000     -10.299605      -280.2665
   8   2.0000     -10.299346      -280.2594
   9   2.0000     -10.298040      -280.2239
  10   2.0000     -10.295909      -280.1659
  11   2.0000     -10.294552      -280.1290
  12   2.0000     -10.288816      -279.9729
  13   2.0000     -10.288278      -279.9583
  14   2.0000     -10.283267      -279.8219
  15   2.0000     -10.276743      -279.6444
  16   2.0000      -8.083760      -219.9703
  17   2.0000      -8.075236      -219.7384
  18   2.0000      -6.041980      -164.4106
  19   2.0000      -6.038418      -164.3137
  20   2.0000      -6.034557      -164.2086
  21   2.0000      -6.033834      -164.1890
  22   2.0000      -6.030053      -164.0861
  23   2.0000      -6.025839      -163.9714
  24   2.0000      -1.006342       -27.3839
  25   2.0000      -0.975927       -26.5563
  26   2.0000      -0.907384       -24.6912
  27   2.0000      -0.901901       -24.5420
  28   2.0000      -0.862581       -23.4720
  29   2.0000      -0.852208       -23.1898
  30   2.0000      -0.846216       -23.0267
  31   2.0000      -0.809473       -22.0269
  32   2.0000      -0.782076       -21.2814
  33   2.0000      -0.766637       -20.8613
  34   2.0000      -0.710639       -19.3375
  35   2.0000      -0.702155       -19.1066
  36   2.0000      -0.688691       -18.7402
  37   2.0000      -0.648337       -17.6422
  38   2.0000      -0.638349       -17.3704
  39   2.0000      -0.621576       -16.9139
  40   2.0000      -0.595307       -16.1991
  41   2.0000      -0.564494       -15.3607
  42   2.0000      -0.556349       -15.1390
  43   2.0000      -0.547917       -14.9096
  44   2.0000      -0.531391       -14.4599
  45   2.0000      -0.526517       -14.3272
  46   2.0000      -0.518195       -14.1008
  47   2.0000      -0.512017       -13.9327
  48   2.0000      -0.502861       -13.6835
  49   2.0000      -0.489666       -13.3245
  50   2.0000      -0.486224       -13.2308
  51   2.0000      -0.478722       -13.0267
  52   2.0000      -0.471905       -12.8412
  53   2.0000      -0.458190       -12.4680
  54   2.0000      -0.456040       -12.4095
  55   2.0000      -0.452677       -12.3180
  56   2.0000      -0.449765       -12.2387
  57   2.0000      -0.439142       -11.9497
  58   2.0000      -0.430754       -11.7214
  59   2.0000      -0.427662       -11.6373
  60   2.0000      -0.421499       -11.4696
  61   2.0000      -0.417835       -11.3699
  62   2.0000      -0.415639       -11.3101
  63   2.0000      -0.339511        -9.2386
  64   2.0000      -0.331475        -9.0199
  65   2.0000      -0.321846        -8.7579
  66   2.0000      -0.295526        -8.0417
  67   0.0000       0.037795         1.0285
  68   0.0000       0.063078         1.7164
  69   0.0000       0.112273         3.0551
  70   0.0000       0.112574         3.0633
  71   0.0000       0.125941         3.4270

MULLIKEN ATOMIC CHARGES
-----------------------
   0 S :    0.127141
   1 C :   -0.142022
   2 C :   -0.072728
   3 C :   -0.005763
   4 C :   -0.167757
   5 H :    0.050896
   6 C :    0.068940
   7 H :    0.023349
   8 H :    0.045267
   9 C :   -0.079570
  10 H :    0.000087
  11 H :    0.031885
  12 C :   -0.062976
  13 H :    0.036579
  14 H :    0.047699
  15 H :    0.037613
  16 S :    0.082392
  17 C :   -0.120256
  18 C :   -0.033329
  19 C :   -0.052237
  20 C :   -0.157007
  21 H :    0.038739
  22 C :    0.067272
  23 H :    0.047615
  24 H :    0.042297
  25 C :   -0.107432
  26 H :    0.017698
  27 H :    0.038483
  28 C :   -0.010639
  29 H :    0.034779
  30 H :    0.010683
  31 H :    0.031175
  32 H :    0.048525
  33 H :    0.082602
Sum of atomic charges:    0.0000000

LOEWDIN ATOMIC CHARGES
----------------------
   0 S :    0.419735
   1 C :   -0.205532
   2 C :   -0.069688
   3 C :   -0.061945
   4 C :   -0.196352
   5 H :    0.047255
   6 C :   -0.030780
   7 H :    0.028736
   8 H :    0.040425
   9 C :   -0.044470
  10 H :    0.009921
  11 H :    0.029332
  12 C :   -0.064320
  13 H :    0.024834
  14 H :    0.029119
  15 H :    0.028787
  16 S :    0.358410
  17 C :   -0.176178
  18 C :   -0.081331
  19 C :   -0.052512
  20 C :   -0.197255
  21 H :    0.039572
  22 C :   -0.029723
  23 H :    0.032635
  24 H :    0.038384
  25 C :   -0.038883
  26 H :    0.013721
  27 H :    0.028270
  28 C :   -0.060476
  29 H :    0.026664
  30 H :    0.018137
  31 H :    0.027642
  32 H :    0.026747
  33 H :    0.041120

  Mayer bond orders larger than 0.100000
B(  0-S ,  1-C ) :   1.1292 B(  0-S ,  4-C ) :   1.1823 B(  1-C ,  2-C ) :   1.6248
B(  1-C , 32-H ) :   0.9652 B(  2-C ,  3-C ) :   1.2313 B(  2-C ,  6-C ) :   1.0248
B(  3-C ,  4-C ) :   1.5713 B(  3-C ,  5-H ) :   0.9891 B(  4-C , 20-C ) :   1.0028
B(  6-C ,  7-H ) :   0.9504 B(  6-C ,  8-H ) :   0.9313 B(  6-C ,  9-C ) :   1.0625
B(  9-C , 10-H ) :   0.9592 B(  9-C , 11-H ) :   0.9602 B(  9-C , 12-C ) :   1.0520
B( 12-C , 13-H ) :   0.9817 B( 12-C , 14-H ) :   0.9821 B( 12-C , 15-H ) :   0.9770
B( 16-S , 17-C ) :   1.1424 B( 16-S , 20-C ) :   1.1253 B( 17-C , 18-C ) :   1.6275
B( 17-C , 33-H ) :   0.9598 B( 18-C , 19-C ) :   1.2198 B( 18-C , 21-H ) :   0.9784
B( 19-C , 20-C ) :   1.6088 B( 19-C , 22-C ) :   1.0483 B( 22-C , 23-H ) :   0.9345
B( 22-C , 24-H ) :   0.9260 B( 22-C , 25-C ) :   1.0501 B( 25-C , 26-H ) :   0.9552
B( 25-C , 27-H ) :   0.9606 B( 25-C , 28-C ) :   1.0859 B( 28-C , 29-H ) :   0.9762
B( 28-C , 30-H ) :   0.9708 B( 28-C , 31-H ) :   0.9731

Dispersion correction           -0.015101861
FINAL SINGLE POINT ENERGY     -1339.870854674951

DIPOLE MOMENT
-------------
                                X             Y             Z
Electronic contribution:    -25.58187     -15.32956     -10.06495
Nuclear contribution   :     26.04791      15.84872      10.50761
                        -----------------------------------------
Total Dipole Moment    :      0.46604       0.51917       0.44265
                        -----------------------------------------
Magnitude (a.u.)       :      0.82624
Magnitude (Debye)      :      2.10013

Rotational constants in cm-1:     0.015639     0.010658     0.007280
Rotational constants in MHz :   468.844614   319.524134   218.258331

                             ****ORCA TERMINATED NORMALLY****
TOTAL RUN TIME: 0 days 0 hours 0 minutes 36 seconds 518 msec
