                         Program Version 4.2.1 -  RELEASE  -
|  1> ! wB97X-D3 SP def2-SVP
|  2> %pal
|  3> nprocs 16
|  4> end
|  5>
|  6> * xyz 0 1
|  7> S 	 41.8399 	 26.6529 	 95.6807
|  8> C 	 40.9637 	 27.8147 	 94.7363
|  9> C 	 39.8056 	 27.3813 	 94.1562
| 10> C 	 39.441 	 26.1003 	 94.735
| 11> C 	 40.3313 	 25.7475 	 95.769
| 12> H 	 38.5212 	 25.5634 	 94.5761
| 13> C 	 38.9132 	 28.1274 	 93.1902
| 14> H 	 38.2558 	 27.4362 	 92.6134
| 15> H 	 39.6219 	 28.4991 	 92.3962
| 16> C 	 38.0874 	 29.3144 	 93.719
| 17> H 	 38.6319 	 29.9814 	 94.3322
| 18> H 	 37.668 	 29.8768 	 92.8898
| 19> C 	 36.857 	 28.9036 	 94.5927
| 20> H 	 36.1592 	 28.3809 	 93.9567
| 21> H 	 37.1589 	 28.2046 	 95.3915
| 22> H 	 36.2531 	 29.752 	 94.9467
| 23> S 	 38.7745 	 24.4153 	 97.5008
| 24> C 	 39.2361 	 22.8364 	 98.0914
| 25> C 	 40.3849 	 22.4317 	 97.4672
| 26> C 	 40.9964 	 23.4212 	 96.6997
| 27> C 	 40.2141 	 24.5833 	 96.5564
| 28> H 	 40.7861 	 21.4333 	 97.6624
| 29> C 	 42.3404 	 23.1596 	 96.0124
| 30> H 	 42.7449 	 22.3247 	 96.5545
| 31> H 	 43.0947 	 24.0105 	 96.0783
| 32> C 	 42.3052 	 22.5973 	 94.5622
| 33> H 	 43.2615 	 22.1559 	 94.2665
| 34> H 	 42.1657 	 23.3917 	 93.9003
| 35> C 	 41.363 	 21.4658 	 94.5009
| 36> H 	 40.3007 	 21.7307 	 94.6174
| 37> H 	 41.4197 	 20.6388 	 95.2598
| 38> H 	 41.3601 	 21.0349 	 93.4985
| 39> H 	 41.3606 	 28.7955 	 94.453
| 40> H 	 38.6771 	 22.2862 	 98.8693
| 41> *
| 42>
| 43>                          ****END OF INPUT****

CARTESIAN COORDINATES (ANGSTROEM)
---------------------------------
  S     41.839900   26.652900   95.680700
  C     40.963700   27.814700   94.736300
  C     39.805600   27.381300   94.156200
  C     39.441000   26.100300   94.735000
  C     40.331300   25.747500   95.769000
  H     38.521200   25.563400   94.576100
  C     38.913200   28.127400   93.190200
  H     38.255800   27.436200   92.613400
  H     39.621900   28.499100   92.396200
  C     38.087400   29.314400   93.719000
  H     38.631900   29.981400   94.332200
  H     37.668000   29.876800   92.889800
  C     36.857000   28.903600   94.592700
  H     36.159200   28.380900   93.956700
  H     37.158900   28.204600   95.391500
  H     36.253100   29.752000   94.946700
  S     38.774500   24.415300   97.500800
  C     39.236100   22.836400   98.091400
  C     40.384900   22.431700   97.467200
  C     40.996400   23.421200   96.699700
  C     40.214100   24.583300   96.556400
  H     40.786100   21.433300   97.662400
  C     42.340400   23.159600   96.012400
  H     42.744900   22.324700   96.554500
  H     43.094700   24.010500   96.078300
  C     42.305200   22.597300   94.562200
  H     43.261500   22.155900   94.266500
  H     42.165700   23.391700   93.900300
  C     41.363000   21.465800   94.500900
  H     40.300700   21.730700   94.617400
  H     41.419700   20.638800   95.259800
  H     41.360100   21.034900   93.498500
  H     41.360600   28.795500   94.453000
  H     38.677100   22.286200   98.869300

 Total Charge           Charge          ....    0
 Multiplicity           Mult            ....    1
 Number of Electrons    NEL             ....  134
 Basis Dimension        Dim             ....  322

ORBITAL ENERGIES
----------------

  NO   OCC          E(Eh)            E(eV)
   0   2.0000     -88.970566     -2421.0122
   1   2.0000     -88.964340     -2420.8428
   2   2.0000     -10.328587      -281.0551
   3   2.0000     -10.320883      -280.8455
   4   2.0000     -10.315372      -280.6955
   5   2.0000     -10.311012      -280.5769
   6   2.0000     -10.302447      -280.3438
   7   2.0000     -10.301706      -280.3237
   8   2.0000     -10.299810      -280.2721
   9   2.0000     -10.298626      -280.2398
  10   2.0000     -10.291461      -280.0449
  11   2.0000     -10.290675      -280.0235
  12   2.0000     -10.286529      -279.9107
  13   2.0000     -10.276788      -279.6456
  14   2.0000     -10.276250      -279.6310
  15   2.0000     -10.272040      -279.5164
  16   2.0000      -8.085181      -220.0090
  17   2.0000      -8.079391      -219.8514
  18   2.0000      -6.043644      -164.4559
  19   2.0000      -6.040139      -164.3605
  20   2.0000      -6.037787      -164.2965
  21   2.0000      -6.035570      -164.2362
  22   2.0000      -6.033663      -164.1843
  23   2.0000      -6.030440      -164.0966
  24   2.0000      -1.011102       -27.5135
  25   2.0000      -0.986852       -26.8536
  26   2.0000      -0.910940       -24.7879
  27   2.0000      -0.909407       -24.7462
  28   2.0000      -0.874047       -23.7840
  29   2.0000      -0.852242       -23.1907
  30   2.0000      -0.844390       -22.9770
  31   2.0000      -0.809686       -22.0327
  32   2.0000      -0.782065       -21.2811
  33   2.0000      -0.769224       -20.9317
  34   2.0000      -0.710119       -19.3233
  35   2.0000      -0.703642       -19.1471
  36   2.0000      -0.690829       -18.7984
  37   2.0000      -0.663503       -18.0548
  38   2.0000      -0.637644       -17.3512
  39   2.0000      -0.610073       -16.6009
  40   2.0000      -0.588550       -16.0153
  41   2.0000      -0.573378       -15.6024
  42   2.0000      -0.559416       -15.2225
  43   2.0000      -0.549904       -14.9636
  44   2.0000      -0.545631       -14.8474
  45   2.0000      -0.537204       -14.6181
  46   2.0000      -0.515951       -14.0397
  47   2.0000      -0.508275       -13.8309
  48   2.0000      -0.499185       -13.5835
  49   2.0000      -0.497292       -13.5320
  50   2.0000      -0.488355       -13.2888
  51   2.0000      -0.477373       -12.9900
  52   2.0000      -0.467824       -12.7301
  53   2.0000      -0.465783       -12.6746
  54   2.0000      -0.460427       -12.5289
  55   2.0000      -0.449770       -12.2389
  56   2.0000      -0.441451       -12.0125
  57   2.0000      -0.438734       -11.9386
  58   2.0000      -0.428773       -11.6675
  59   2.0000      -0.425562       -11.5801
  60   2.0000      -0.421182       -11.4609
  61   2.0000      -0.414723       -11.2852
  62   2.0000      -0.403868       -10.9898
  63   2.0000      -0.346822        -9.4375
  64   2.0000      -0.333612        -9.0781
  65   2.0000      -0.330068        -8.9816
  66   2.0000      -0.283434        -7.7126
  67   0.0000       0.026140         0.7113
  68   0.0000       0.063637         1.7317
  69   0.0000       0.094244         2.5645
  70   0.0000       0.124679         3.3927
  71   0.0000       0.130492         3.5509

MULLIKEN ATOMIC CHARGES
-----------------------
   0 S :    0.121409
   1 C :   -0.104876
   2 C :   -0.077574
   3 C :    0.024943
   4 C :   -0.160780
   5 H :    0.018322
   6 C :    0.035948
   7 H :    0.029991
   8 H :    0.038101
   9 C :   -0.031502
  10 H :    0.022189
  11 H :    0.029200
  12 C :   -0.076445
  13 H :    0.012939
  14 H :    0.047100
  15 H :    0.039627
  16 S :    0.109877
  17 C :   -0.113446
  18 C :   -0.043829
  19 C :   -0.022771
  20 C :   -0.166832
  21 H :    0.021974
  22 C :    0.034783
  23 H :    0.007357
  24 H :    0.043283
  25 C :    0.007171
  26 H :    0.023959
  27 H :    0.020373
  28 C :   -0.090182
  29 H :    0.035883
  30 H :    0.029413
  31 H :    0.027197
  32 H :    0.038249
  33 H :    0.068950
Sum of atomic charges:    0.0000000

LOEWDIN ATOMIC CHARGES
----------------------
   0 S :    0.410258
   1 C :   -0.196624
   2 C :   -0.065714
   3 C :   -0.051175
   4 C :   -0.190450
   5 H :    0.028488
   6 C :   -0.038080
   7 H :    0.034936
   8 H :    0.039803
   9 C :   -0.033528
  10 H :    0.017484
  11 H :    0.025994
  12 C :   -0.069962
  13 H :    0.017337
  14 H :    0.028385
  15 H :    0.028922
  16 S :    0.426378
  17 C :   -0.197145
  18 C :   -0.073557
  19 C :   -0.064860
  20 C :   -0.206858
  21 H :    0.033766
  22 C :   -0.036249
  23 H :    0.025674
  24 H :    0.029672
  25 C :   -0.033940
  26 H :    0.027975
  27 H :    0.017498
  28 C :   -0.077461
  29 H :    0.026726
  30 H :    0.028002
  31 H :    0.025999
  32 H :    0.025657
  33 H :    0.036650

  Mayer bond orders larger than 0.100000
B(  0-S ,  1-C ) :   1.1296 B(  0-S ,  4-C ) :   1.1323 B(  1-C ,  2-C ) :   1.6508
B(  1-C , 32-H ) :   0.9606 B(  2-C ,  3-C ) :   1.2053 B(  2-C ,  6-C ) :   1.0232
B(  3-C ,  4-C ) :   1.5730 B(  3-C ,  5-H ) :   0.9933 B(  4-C , 20-C ) :   1.0845
B(  6-C ,  7-H ) :   0.9460 B(  6-C ,  8-H ) :   0.9325 B(  6-C ,  9-C ) :   1.0717
B(  9-C , 10-H ) :   0.9603 B(  9-C , 11-H ) :   0.9545 B(  9-C , 12-C ) :   1.0718
B( 12-C , 13-H ) :   0.9759 B( 12-C , 14-H ) :   0.9779 B( 12-C , 15-H ) :   0.9746
B( 16-S , 17-C ) :   1.1640 B( 16-S , 20-C ) :   1.1657 B( 17-C , 18-C ) :   1.5702
B( 17-C , 20-C ) :   0.1093 B( 17-C , 33-H ) :   0.9667 B( 18-C , 19-C ) :   1.2864
B( 18-C , 21-H ) :   0.9851 B( 19-C , 20-C ) :   1.5210 B( 19-C , 22-C ) :   1.0386
B( 22-C , 23-H ) :   0.9279 B( 22-C , 24-H ) :   0.9455 B( 22-C , 25-C ) :   1.0677
B( 25-C , 26-H ) :   0.9551 B( 25-C , 27-H ) :   0.9531 B( 25-C , 28-C ) :   1.0816
B( 28-C , 29-H ) :   0.9644 B( 28-C , 30-H ) :   0.9731 B( 28-C , 31-H ) :   0.9687

Dispersion correction           -0.015265996
FINAL SINGLE POINT ENERGY     -1339.868179614557

DIPOLE MOMENT
-------------
                                X             Y             Z
Electronic contribution:      4.47389       0.60440      13.66155
Nuclear contribution   :     -4.56927      -0.68358     -14.06541
                        -----------------------------------------
Total Dipole Moment    :     -0.09539      -0.07917      -0.40386
                        -----------------------------------------
Magnitude (a.u.)       :      0.42246
Magnitude (Debye)      :      1.07380

Rotational constants in cm-1:     0.021912     0.008465     0.007255
Rotational constants in MHz :   656.903480   253.775753   217.488571

                             ****ORCA TERMINATED NORMALLY****
TOTAL RUN TIME: 0 days 0 hours 0 minutes 29 seconds 216 msec
