                         Program Version 4.2.1 -  RELEASE  -
|  1> ! wB97X-D3 SP def2-SVP
|  2> %pal
|  3> nprocs 16
|  4> end
|  5>
|  6> * xyz 0 1
|  7> S 	 6.95674 	 79.4449 	 47.8518
|  8> C 	 7.44741 	 77.8578 	 48.5051
|  9> C 	 6.36371 	 77.0813 	 48.6778
| 10> C 	 5.07785 	 77.6803 	 48.3975
| 11> C 	 5.25998 	 78.9081 	 47.7969
| 12> H 	 4.00931 	 77.3239 	 48.421
| 13> C 	 6.36825 	 75.5803 	 49.0698
| 14> H 	 7.1495 	 75.0019 	 48.5494
| 15> H 	 5.44337 	 75.121 	 48.6013
| 16> C 	 6.35707 	 75.1718 	 50.5581
| 17> H 	 7.18522 	 75.6453 	 51.0345
| 18> H 	 5.48929 	 75.5561 	 51.0183
| 19> C 	 6.40778 	 73.6347 	 50.8264
| 20> H 	 5.66384 	 73.0257 	 50.3229
| 21> H 	 7.36464 	 73.0439 	 50.5911
| 22> H 	 6.26992 	 73.4784 	 51.8804
| 23> S 	 4.35157 	 81.5249 	 47.838
| 24> C 	 2.66384 	 81.8812 	 47.5283
| 25> C 	 2.17934 	 80.8197 	 46.7883
| 26> C 	 2.99117 	 79.6686 	 46.7829
| 27> C 	 4.17991 	 79.8381 	 47.4815
| 28> H 	 1.22155 	 80.9378 	 46.3133
| 29> C 	 2.61887 	 78.38 	 46.1204
| 30> H 	 3.36129 	 77.5929 	 46.2243
| 31> H 	 2.54304 	 78.6686 	 45.0679
| 32> C 	 1.29321 	 77.6601 	 46.5723
| 33> H 	 1.14915 	 76.7558 	 45.9581
| 34> H 	 0.431429 	 78.2885 	 46.4045
| 35> C 	 1.33494 	 77.1762 	 48.0195
| 36> H 	 0.442646 	 76.6982 	 48.3016
| 37> H 	 1.4944 	 78.0868 	 48.6554
| 38> H 	 2.09194 	 76.4306 	 48.2611
| 39> H 	 8.46638 	 77.533 	 48.6863
| 40> H 	 2.32783 	 82.8962 	 47.57
| 41> *
| 42>
| 43>                          ****END OF INPUT****

CARTESIAN COORDINATES (ANGSTROEM)
---------------------------------
  S      6.956740   79.444900   47.851800
  C      7.447410   77.857800   48.505100
  C      6.363710   77.081300   48.677800
  C      5.077850   77.680300   48.397500
  C      5.259980   78.908100   47.796900
  H      4.009310   77.323900   48.421000
  C      6.368250   75.580300   49.069800
  H      7.149500   75.001900   48.549400
  H      5.443370   75.121000   48.601300
  C      6.357070   75.171800   50.558100
  H      7.185220   75.645300   51.034500
  H      5.489290   75.556100   51.018300
  C      6.407780   73.634700   50.826400
  H      5.663840   73.025700   50.322900
  H      7.364640   73.043900   50.591100
  H      6.269920   73.478400   51.880400
  S      4.351570   81.524900   47.838000
  C      2.663840   81.881200   47.528300
  C      2.179340   80.819700   46.788300
  C      2.991170   79.668600   46.782900
  C      4.179910   79.838100   47.481500
  H      1.221550   80.937800   46.313300
  C      2.618870   78.380000   46.120400
  H      3.361290   77.592900   46.224300
  H      2.543040   78.668600   45.067900
  C      1.293210   77.660100   46.572300
  H      1.149150   76.755800   45.958100
  H      0.431429   78.288500   46.404500
  C      1.334940   77.176200   48.019500
  H      0.442646   76.698200   48.301600
  H      1.494400   78.086800   48.655400
  H      2.091940   76.430600   48.261100
  H      8.466380   77.533000   48.686300
  H      2.327830   82.896200   47.570000

 Total Charge           Charge          ....    0
 Multiplicity           Mult            ....    1
 Number of Electrons    NEL             ....  134
 Basis Dimension        Dim             ....  322

ORBITAL ENERGIES
----------------

  NO   OCC          E(Eh)            E(eV)
   0   2.0000     -88.966928     -2420.9132
   1   2.0000     -88.959788     -2420.7189
   2   2.0000     -10.333041      -281.1763
   3   2.0000     -10.326060      -280.9864
   4   2.0000     -10.317718      -280.7594
   5   2.0000     -10.316280      -280.7203
   6   2.0000     -10.305288      -280.4211
   7   2.0000     -10.301957      -280.3305
   8   2.0000     -10.299948      -280.2758
   9   2.0000     -10.296517      -280.1825
  10   2.0000     -10.295417      -280.1525
  11   2.0000     -10.291886      -280.0565
  12   2.0000     -10.290092      -280.0076
  13   2.0000     -10.285180      -279.8740
  14   2.0000     -10.283936      -279.8401
  15   2.0000     -10.277869      -279.6750
  16   2.0000      -8.080723      -219.8876
  17   2.0000      -8.075327      -219.7408
  18   2.0000      -6.039481      -164.3426
  19   2.0000      -6.035527      -164.2350
  20   2.0000      -6.033797      -164.1880
  21   2.0000      -6.031109      -164.1148
  22   2.0000      -6.029821      -164.0798
  23   2.0000      -6.025959      -163.9747
  24   2.0000      -1.010184       -27.4885
  25   2.0000      -0.985410       -26.8144
  26   2.0000      -0.908828       -24.7305
  27   2.0000      -0.903075       -24.5739
  28   2.0000      -0.872541       -23.7430
  29   2.0000      -0.852433       -23.1959
  30   2.0000      -0.842825       -22.9344
  31   2.0000      -0.817557       -22.2468
  32   2.0000      -0.781260       -21.2592
  33   2.0000      -0.774256       -21.0686
  34   2.0000      -0.708009       -19.2659
  35   2.0000      -0.705454       -19.1964
  36   2.0000      -0.699700       -19.0398
  37   2.0000      -0.660369       -17.9695
  38   2.0000      -0.641483       -17.4556
  39   2.0000      -0.615757       -16.7556
  40   2.0000      -0.599691       -16.3184
  41   2.0000      -0.565947       -15.4002
  42   2.0000      -0.559298       -15.2193
  43   2.0000      -0.554053       -15.0765
  44   2.0000      -0.543679       -14.7943
  45   2.0000      -0.526451       -14.3255
  46   2.0000      -0.517508       -14.0821
  47   2.0000      -0.514532       -14.0011
  48   2.0000      -0.506300       -13.7771
  49   2.0000      -0.498025       -13.5520
  50   2.0000      -0.488936       -13.3046
  51   2.0000      -0.477788       -13.0013
  52   2.0000      -0.476239       -12.9591
  53   2.0000      -0.465678       -12.6717
  54   2.0000      -0.462804       -12.5935
  55   2.0000      -0.447715       -12.1829
  56   2.0000      -0.443931       -12.0800
  57   2.0000      -0.437174       -11.8961
  58   2.0000      -0.434241       -11.8163
  59   2.0000      -0.423980       -11.5371
  60   2.0000      -0.419817       -11.4238
  61   2.0000      -0.415530       -11.3071
  62   2.0000      -0.406952       -11.0737
  63   2.0000      -0.357211        -9.7202
  64   2.0000      -0.332675        -9.0525
  65   2.0000      -0.324607        -8.8330
  66   2.0000      -0.291498        -7.9321
  67   0.0000       0.023577         0.6416
  68   0.0000       0.070783         1.9261
  69   0.0000       0.097250         2.6463
  70   0.0000       0.122683         3.3384
  71   0.0000       0.124407         3.3853

MULLIKEN ATOMIC CHARGES
-----------------------
   0 S :    0.088653
   1 C :   -0.113808
   2 C :   -0.037506
   3 C :    0.012785
   4 C :   -0.132034
   5 H :    0.010672
   6 C :    0.005561
   7 H :    0.027446
   8 H :    0.021646
   9 C :   -0.007044
  10 H :    0.021966
  11 H :    0.018532
  12 C :   -0.079882
  13 H :    0.026881
  14 H :    0.037242
  15 H :    0.031451
  16 S :    0.084287
  17 C :   -0.090200
  18 C :   -0.030493
  19 C :   -0.042854
  20 C :   -0.141429
  21 H :    0.016444
  22 C :    0.055675
  23 H :    0.023764
  24 H :    0.040427
  25 C :   -0.072422
  26 H :    0.031320
  27 H :    0.027281
  28 C :   -0.060989
  29 H :    0.022419
  30 H :    0.051126
  31 H :    0.041451
  32 H :    0.049548
  33 H :    0.062084
Sum of atomic charges:   -0.0000000

LOEWDIN ATOMIC CHARGES
----------------------
   0 S :    0.369155
   1 C :   -0.180439
   2 C :   -0.063610
   3 C :   -0.067318
   4 C :   -0.171349
   5 H :    0.044452
   6 C :   -0.038843
   7 H :    0.028588
   8 H :    0.031262
   9 C :   -0.031943
  10 H :    0.021687
  11 H :    0.020456
  12 C :   -0.074619
  13 H :    0.021792
  14 H :    0.032518
  15 H :    0.025401
  16 S :    0.404798
  17 C :   -0.178622
  18 C :   -0.067981
  19 C :   -0.068719
  20 C :   -0.197767
  21 H :    0.029554
  22 C :   -0.032750
  23 H :    0.028670
  24 H :    0.038641
  25 C :   -0.036821
  26 H :    0.026197
  27 H :    0.018672
  28 C :   -0.069899
  29 H :    0.021206
  30 H :    0.034371
  31 H :    0.022018
  32 H :    0.034172
  33 H :    0.027069

  Mayer bond orders larger than 0.100000
B(  0-S ,  1-C ) :   1.0986 B(  0-S ,  4-C ) :   1.1278 B(  1-C ,  2-C ) :   1.6708
B(  1-C , 32-H ) :   0.9709 B(  2-C ,  3-C ) :   1.1848 B(  2-C ,  6-C ) :   1.0052
B(  3-C ,  4-C ) :   1.6090 B(  3-C ,  5-H ) :   0.9722 B(  4-C , 20-C ) :   1.0637
B(  6-C ,  7-H ) :   0.9513 B(  6-C ,  8-H ) :   0.9467 B(  6-C ,  9-C ) :   1.0630
B(  9-C , 10-H ) :   0.9558 B(  9-C , 11-H ) :   0.9539 B(  9-C , 12-C ) :   1.0741
B( 12-C , 13-H ) :   0.9767 B( 12-C , 14-H ) :   0.9756 B( 12-C , 15-H ) :   0.9755
B( 16-S , 17-C ) :   1.1620 B( 16-S , 20-C ) :   1.1502 B( 17-C , 18-C ) :   1.5676
B( 17-C , 20-C ) :   0.1051 B( 17-C , 33-H ) :   0.9741 B( 18-C , 19-C ) :   1.2583
B( 18-C , 21-H ) :   0.9964 B( 19-C , 20-C ) :   1.5460 B( 19-C , 22-C ) :   1.0492
B( 22-C , 23-H ) :   0.9363 B( 22-C , 24-H ) :   0.9278 B( 22-C , 25-C ) :   1.0708
B( 25-C , 26-H ) :   0.9559 B( 25-C , 27-H ) :   0.9570 B( 25-C , 28-C ) :   1.0842
B( 28-C , 29-H ) :   0.9657 B( 28-C , 30-H ) :   0.9708 B( 28-C , 31-H ) :   0.9594

Dispersion correction           -0.014543320
FINAL SINGLE POINT ENERGY     -1339.872476053368

DIPOLE MOMENT
-------------
                                X             Y             Z
Electronic contribution:     10.33936      28.83539      -6.69246
Nuclear contribution   :    -10.79999     -29.39343       6.61223
                        -----------------------------------------
Total Dipole Moment    :     -0.46063      -0.55804      -0.08023
                        -----------------------------------------
Magnitude (a.u.)       :      0.72803
Magnitude (Debye)      :      1.85050

Rotational constants in cm-1:     0.019258     0.008631     0.006489
Rotational constants in MHz :   577.327227   258.765652   194.542650

                             ****ORCA TERMINATED NORMALLY****
TOTAL RUN TIME: 0 days 0 hours 0 minutes 32 seconds 569 msec
