                         Program Version 4.2.1 -  RELEASE  -
|  1> ! wB97X-D3 SP def2-SVP
|  2> %pal
|  3> nprocs 16
|  4> end
|  5>
|  6> * xyz 0 1
|  7> S 	 29.1432 	 -9.43261 	 79.85
|  8> C 	 30.2359 	 -9.26578 	 78.5447
|  9> C 	 30.5974 	 -7.9251 	 78.378
| 10> C 	 29.9229 	 -7.04988 	 79.2862
| 11> C 	 29.0736 	 -7.70179 	 80.158
| 12> H 	 30.0548 	 -5.91658 	 79.3351
| 13> C 	 31.573 	 -7.3707 	 77.385
| 14> H 	 31.8723 	 -8.16414 	 76.6466
| 15> H 	 32.4171 	 -7.16034 	 77.9678
| 16> C 	 31.0989 	 -6.16094 	 76.6363
| 17> H 	 30.8433 	 -5.24607 	 77.1847
| 18> H 	 32.0503 	 -5.9608 	 76.0012
| 19> C 	 29.8837 	 -6.41405 	 75.6836
| 20> H 	 30.0377 	 -7.20522 	 74.9701
| 21> H 	 29.0418 	 -6.72395 	 76.2612
| 22> H 	 29.8129 	 -5.45276 	 75.1349
| 23> S 	 28.6342 	 -8.29087 	 82.7834
| 24> C 	 27.6858 	 -7.27653 	 83.8281
| 25> C 	 27.4501 	 -6.05389 	 83.2029
| 26> C 	 27.8113 	 -6.02693 	 81.804
| 27> C 	 28.3965 	 -7.19777 	 81.4018
| 28> H 	 26.9966 	 -5.28684 	 83.8046
| 29> C 	 27.5877 	 -4.83494 	 80.9158
| 30> H 	 26.6424 	 -4.50014 	 81.3357
| 31> H 	 27.4165 	 -5.31001 	 79.9117
| 32> C 	 28.5132 	 -3.63882 	 80.7714
| 33> H 	 28.011 	 -2.9549 	 80.0122
| 34> H 	 29.5641 	 -3.9009 	 80.478
| 35> C 	 28.5313 	 -2.71921 	 81.9584
| 36> H 	 27.5097 	 -2.37826 	 82.3164
| 37> H 	 29.0297 	 -1.80947 	 81.7112
| 38> H 	 29.0687 	 -3.23257 	 82.7776
| 39> H 	 30.6483 	 -10.1316 	 77.946
| 40> H 	 27.5757 	 -7.47672 	 84.9081
| 41> *
| 42>
| 43>                          ****END OF INPUT****

CARTESIAN COORDINATES (ANGSTROEM)
---------------------------------
  S     29.143200   -9.432610   79.850000
  C     30.235900   -9.265780   78.544700
  C     30.597400   -7.925100   78.378000
  C     29.922900   -7.049880   79.286200
  C     29.073600   -7.701790   80.158000
  H     30.054800   -5.916580   79.335100
  C     31.573000   -7.370700   77.385000
  H     31.872300   -8.164140   76.646600
  H     32.417100   -7.160340   77.967800
  C     31.098900   -6.160940   76.636300
  H     30.843300   -5.246070   77.184700
  H     32.050300   -5.960800   76.001200
  C     29.883700   -6.414050   75.683600
  H     30.037700   -7.205220   74.970100
  H     29.041800   -6.723950   76.261200
  H     29.812900   -5.452760   75.134900
  S     28.634200   -8.290870   82.783400
  C     27.685800   -7.276530   83.828100
  C     27.450100   -6.053890   83.202900
  C     27.811300   -6.026930   81.804000
  C     28.396500   -7.197770   81.401800
  H     26.996600   -5.286840   83.804600
  C     27.587700   -4.834940   80.915800
  H     26.642400   -4.500140   81.335700
  H     27.416500   -5.310010   79.911700
  C     28.513200   -3.638820   80.771400
  H     28.011000   -2.954900   80.012200
  H     29.564100   -3.900900   80.478000
  C     28.531300   -2.719210   81.958400
  H     27.509700   -2.378260   82.316400
  H     29.029700   -1.809470   81.711200
  H     29.068700   -3.232570   82.777600
  H     30.648300  -10.131600   77.946000
  H     27.575700   -7.476720   84.908100

 Total Charge           Charge          ....    0
 Multiplicity           Mult            ....    1
 Number of Electrons    NEL             ....  134
 Basis Dimension        Dim             ....  322

ORBITAL ENERGIES
----------------

  NO   OCC          E(Eh)            E(eV)
   0   2.0000     -88.966095     -2420.8905
   1   2.0000     -88.960785     -2420.7460
   2   2.0000     -10.334882      -281.2264
   3   2.0000     -10.330635      -281.1109
   4   2.0000     -10.318786      -280.7884
   5   2.0000     -10.318016      -280.7675
   6   2.0000     -10.303946      -280.3846
   7   2.0000     -10.300831      -280.2999
   8   2.0000     -10.300408      -280.2884
   9   2.0000     -10.297314      -280.2042
  10   2.0000     -10.295927      -280.1664
  11   2.0000     -10.294169      -280.1186
  12   2.0000     -10.293025      -280.0874
  13   2.0000     -10.288540      -279.9654
  14   2.0000     -10.280412      -279.7442
  15   2.0000     -10.275328      -279.6059
  16   2.0000      -8.081183      -219.9002
  17   2.0000      -8.075664      -219.7500
  18   2.0000      -6.039649      -164.3472
  19   2.0000      -6.035497      -164.2342
  20   2.0000      -6.034241      -164.2000
  21   2.0000      -6.032089      -164.1415
  22   2.0000      -6.030114      -164.0877
  23   2.0000      -6.026349      -163.9853
  24   2.0000      -1.006776       -27.3958
  25   2.0000      -0.985177       -26.8080
  26   2.0000      -0.916244       -24.9323
  27   2.0000      -0.913616       -24.8608
  28   2.0000      -0.865084       -23.5401
  29   2.0000      -0.855254       -23.2727
  30   2.0000      -0.843426       -22.9508
  31   2.0000      -0.814752       -22.1705
  32   2.0000      -0.784033       -21.3346
  33   2.0000      -0.774868       -21.0852
  34   2.0000      -0.705010       -19.1843
  35   2.0000      -0.694401       -18.8956
  36   2.0000      -0.683897       -18.6098
  37   2.0000      -0.662102       -18.0167
  38   2.0000      -0.635468       -17.2920
  39   2.0000      -0.622083       -16.9277
  40   2.0000      -0.588047       -16.0016
  41   2.0000      -0.567357       -15.4386
  42   2.0000      -0.560695       -15.2573
  43   2.0000      -0.555062       -15.1040
  44   2.0000      -0.552601       -15.0370
  45   2.0000      -0.534043       -14.5320
  46   2.0000      -0.523986       -14.2584
  47   2.0000      -0.504931       -13.7399
  48   2.0000      -0.502603       -13.6765
  49   2.0000      -0.498614       -13.5680
  50   2.0000      -0.493211       -13.4209
  51   2.0000      -0.479947       -13.0600
  52   2.0000      -0.472250       -12.8506
  53   2.0000      -0.466377       -12.6908
  54   2.0000      -0.455983       -12.4079
  55   2.0000      -0.445329       -12.1180
  56   2.0000      -0.442634       -12.0447
  57   2.0000      -0.436704       -11.8833
  58   2.0000      -0.435037       -11.8380
  59   2.0000      -0.425990       -11.5918
  60   2.0000      -0.420522       -11.4430
  61   2.0000      -0.406693       -11.0667
  62   2.0000      -0.405491       -11.0340
  63   2.0000      -0.354413        -9.6441
  64   2.0000      -0.328364        -8.9352
  65   2.0000      -0.325899        -8.8682
  66   2.0000      -0.290727        -7.9111
  67   0.0000       0.027172         0.7394
  68   0.0000       0.074927         2.0389
  69   0.0000       0.106427         2.8960
  70   0.0000       0.123365         3.3569
  71   0.0000       0.128670         3.5013

MULLIKEN ATOMIC CHARGES
-----------------------
   0 S :    0.109349
   1 C :   -0.139644
   2 C :   -0.123630
   3 C :    0.002512
   4 C :   -0.133282
   5 H :    0.029119
   6 C :    0.113345
   7 H :    0.023518
   8 H :    0.029871
   9 C :   -0.143501
  10 H :    0.040708
  11 H :    0.039147
  12 C :   -0.036703
  13 H :    0.020674
  14 H :    0.043121
  15 H :    0.043920
  16 S :    0.084273
  17 C :   -0.102465
  18 C :   -0.046173
  19 C :   -0.055649
  20 C :   -0.124336
  21 H :    0.016726
  22 C :    0.053513
  23 H :    0.014953
  24 H :    0.040432
  25 C :   -0.064898
  26 H :    0.039880
  27 H :    0.045948
  28 C :   -0.068201
  29 H :    0.030825
  30 H :    0.028963
  31 H :    0.041632
  32 H :    0.073202
  33 H :    0.072850
Sum of atomic charges:   -0.0000000

LOEWDIN ATOMIC CHARGES
----------------------
   0 S :    0.420177
   1 C :   -0.224262
   2 C :   -0.070579
   3 C :   -0.074316
   4 C :   -0.193569
   5 H :    0.041467
   6 C :   -0.036729
   7 H :    0.036554
   8 H :    0.029505
   9 C :   -0.048269
  10 H :    0.022958
  11 H :    0.034962
  12 C :   -0.061525
  13 H :    0.019930
  14 H :    0.024070
  15 H :    0.033382
  16 S :    0.393066
  17 C :   -0.192769
  18 C :   -0.073133
  19 C :   -0.068243
  20 C :   -0.179620
  21 H :    0.029101
  22 C :   -0.040564
  23 H :    0.032808
  24 H :    0.040826
  25 C :   -0.047036
  26 H :    0.037859
  27 H :    0.027262
  28 C :   -0.070847
  29 H :    0.028687
  30 H :    0.021887
  31 H :    0.026355
  32 H :    0.044193
  33 H :    0.036410

  Mayer bond orders larger than 0.100000
B(  0-S ,  1-C ) :   1.1470 B(  0-S ,  4-C ) :   1.1676 B(  1-C ,  2-C ) :   1.5856
B(  1-C , 32-H ) :   0.9612 B(  2-C ,  3-C ) :   1.2615 B(  2-C ,  6-C ) :   1.0192
B(  3-C ,  4-C ) :   1.5560 B(  3-C ,  5-H ) :   0.9770 B(  4-C , 20-C ) :   1.0128
B(  6-C ,  7-H ) :   0.9408 B(  6-C ,  8-H ) :   0.9266 B(  6-C ,  9-C ) :   1.0761
B(  9-C , 10-H ) :   0.9548 B(  9-C , 11-H ) :   0.9550 B(  9-C , 12-C ) :   1.0659
B( 12-C , 13-H ) :   0.9759 B( 12-C , 14-H ) :   0.9748 B( 12-C , 15-H ) :   0.9764
B( 16-S , 17-C ) :   1.1530 B( 16-S , 20-C ) :   1.1394 B( 17-C , 18-C ) :   1.6118
B( 17-C , 33-H ) :   0.9642 B( 18-C , 19-C ) :   1.2163 B( 18-C , 21-H ) :   0.9936
B( 19-C , 20-C ) :   1.6273 B( 19-C , 22-C ) :   1.0315 B( 22-C , 23-H ) :   0.9282
B( 22-C , 24-H ) :   0.9318 B( 22-C , 25-C ) :   1.0781 B( 25-C , 26-H ) :   0.9483
B( 25-C , 27-H ) :   0.9469 B( 25-C , 28-C ) :   1.0871 B( 28-C , 29-H ) :   0.9714
B( 28-C , 30-H ) :   0.9714 B( 28-C , 31-H ) :   0.9739

Dispersion correction           -0.014560886
FINAL SINGLE POINT ENERGY     -1339.873685203494

DIPOLE MOMENT
-------------
                                X             Y             Z
Electronic contribution:     -4.02598     -24.41417      15.34551
Nuclear contribution   :      4.31871      25.04522     -15.54635
                        -----------------------------------------
Total Dipole Moment    :      0.29273       0.63104      -0.20084
                        -----------------------------------------
Magnitude (a.u.)       :      0.72405
Magnitude (Debye)      :      1.84038

Rotational constants in cm-1:     0.017904     0.009813     0.006773
Rotational constants in MHz :   536.743790   294.179393   203.036467

                             ****ORCA TERMINATED NORMALLY****
TOTAL RUN TIME: 0 days 0 hours 0 minutes 30 seconds 516 msec
