                         Program Version 4.2.1 -  RELEASE  -
|  1> ! wB97X-D3 SP def2-SVP
|  2> %pal
|  3> nprocs 16
|  4> end
|  5>
|  6> * xyz 0 1
|  7> S 	 -73.3478 	 38.8796 	 122.422
|  8> C 	 -74.8906 	 39.4402 	 122.329
|  9> C 	 -75.7848 	 38.5761 	 121.753
| 10> C 	 -75.1053 	 37.3442 	 121.395
| 11> C 	 -73.74 	 37.3436 	 121.659
| 12> H 	 -75.4816 	 36.4767 	 120.923
| 13> C 	 -77.2645 	 38.8032 	 121.622
| 14> H 	 -77.4272 	 39.7628 	 122.202
| 15> H 	 -77.839 	 38.097 	 122.235
| 16> C 	 -77.6151 	 38.9847 	 120.115
| 17> H 	 -76.8185 	 39.7226 	 119.792
| 18> H 	 -77.5246 	 38.052 	 119.545
| 19> C 	 -79.0314 	 39.5759 	 119.847
| 20> H 	 -79.081 	 40.6506 	 120.164
| 21> H 	 -79.0752 	 39.6552 	 118.784
| 22> H 	 -79.9162 	 39.063 	 120.176
| 23> S 	 -72.3989 	 35.8697 	 119.853
| 24> C 	 -71.2157 	 34.5996 	 120.356
| 25> C 	 -71.1689 	 34.5503 	 121.725
| 26> C 	 -72.0502 	 35.5014 	 122.362
| 27> C 	 -72.845 	 36.2415 	 121.468
| 28> H 	 -70.3775 	 34.0094 	 122.238
| 29> C 	 -71.9429 	 35.6538 	 123.886
| 30> H 	 -73.0537 	 35.7871 	 123.997
| 31> H 	 -71.2347 	 36.4768 	 124.155
| 32> C 	 -71.5329 	 34.3577 	 124.76
| 33> H 	 -70.5023 	 33.9848 	 124.501
| 34> H 	 -72.2245 	 33.5056 	 124.545
| 35> C 	 -71.7366 	 34.6041 	 126.25
| 36> H 	 -70.9062 	 35.1448 	 126.619
| 37> H 	 -71.683 	 33.6916 	 126.903
| 38> H 	 -72.6701 	 35.0371 	 126.482
| 39> H 	 -75.1912 	 40.4412 	 122.544
| 40> H 	 -70.5489 	 34.0522 	 119.786
| 41> *
| 42>
| 43>                          ****END OF INPUT****

CARTESIAN COORDINATES (ANGSTROEM)
---------------------------------
  S    -73.347800   38.879600  122.422000
  C    -74.890600   39.440200  122.329000
  C    -75.784800   38.576100  121.753000
  C    -75.105300   37.344200  121.395000
  C    -73.740000   37.343600  121.659000
  H    -75.481600   36.476700  120.923000
  C    -77.264500   38.803200  121.622000
  H    -77.427200   39.762800  122.202000
  H    -77.839000   38.097000  122.235000
  C    -77.615100   38.984700  120.115000
  H    -76.818500   39.722600  119.792000
  H    -77.524600   38.052000  119.545000
  C    -79.031400   39.575900  119.847000
  H    -79.081000   40.650600  120.164000
  H    -79.075200   39.655200  118.784000
  H    -79.916200   39.063000  120.176000
  S    -72.398900   35.869700  119.853000
  C    -71.215700   34.599600  120.356000
  C    -71.168900   34.550300  121.725000
  C    -72.050200   35.501400  122.362000
  C    -72.845000   36.241500  121.468000
  H    -70.377500   34.009400  122.238000
  C    -71.942900   35.653800  123.886000
  H    -73.053700   35.787100  123.997000
  H    -71.234700   36.476800  124.155000
  C    -71.532900   34.357700  124.760000
  H    -70.502300   33.984800  124.501000
  H    -72.224500   33.505600  124.545000
  C    -71.736600   34.604100  126.250000
  H    -70.906200   35.144800  126.619000
  H    -71.683000   33.691600  126.903000
  H    -72.670100   35.037100  126.482000
  H    -75.191200   40.441200  122.544000
  H    -70.548900   34.052200  119.786000

 Total Charge           Charge          ....    0
 Multiplicity           Mult            ....    1
 Number of Electrons    NEL             ....  134
 Basis Dimension        Dim             ....  322

ORBITAL ENERGIES
----------------

  NO   OCC          E(Eh)            E(eV)
   0   2.0000     -88.964700     -2420.8526
   1   2.0000     -88.964378     -2420.8438
   2   2.0000     -10.325579      -280.9733
   3   2.0000     -10.324664      -280.9484
   4   2.0000     -10.314754      -280.6787
   5   2.0000     -10.304654      -280.4039
   6   2.0000     -10.304543      -280.4009
   7   2.0000     -10.301214      -280.3103
   8   2.0000     -10.297742      -280.2158
   9   2.0000     -10.297330      -280.2046
  10   2.0000     -10.297083      -280.1979
  11   2.0000     -10.295932      -280.1666
  12   2.0000     -10.292707      -280.0788
  13   2.0000     -10.290992      -280.0321
  14   2.0000     -10.278270      -279.6860
  15   2.0000     -10.272892      -279.5396
  16   2.0000      -8.081239      -219.9017
  17   2.0000      -8.078678      -219.8320
  18   2.0000      -6.039578      -164.3453
  19   2.0000      -6.037312      -164.2836
  20   2.0000      -6.035348      -164.2302
  21   2.0000      -6.033182      -164.1712
  22   2.0000      -6.032205      -164.1446
  23   2.0000      -6.029361      -164.0673
  24   2.0000      -1.011683       -27.5293
  25   2.0000      -0.985794       -26.8248
  26   2.0000      -0.907465       -24.6934
  27   2.0000      -0.896558       -24.3966
  28   2.0000      -0.877644       -23.8819
  29   2.0000      -0.849092       -23.1050
  30   2.0000      -0.845408       -23.0047
  31   2.0000      -0.820690       -22.3321
  32   2.0000      -0.778460       -21.1830
  33   2.0000      -0.762605       -20.7515
  34   2.0000      -0.709731       -19.3128
  35   2.0000      -0.698829       -19.0161
  36   2.0000      -0.692712       -18.8497
  37   2.0000      -0.659401       -17.9432
  38   2.0000      -0.647507       -17.6195
  39   2.0000      -0.612570       -16.6689
  40   2.0000      -0.585451       -15.9309
  41   2.0000      -0.574513       -15.6333
  42   2.0000      -0.569165       -15.4878
  43   2.0000      -0.557774       -15.1778
  44   2.0000      -0.528103       -14.3704
  45   2.0000      -0.523100       -14.2343
  46   2.0000      -0.515691       -14.0327
  47   2.0000      -0.510007       -13.8780
  48   2.0000      -0.508049       -13.8247
  49   2.0000      -0.504349       -13.7240
  50   2.0000      -0.497142       -13.5279
  51   2.0000      -0.479198       -13.0396
  52   2.0000      -0.471471       -12.8294
  53   2.0000      -0.461558       -12.5596
  54   2.0000      -0.459309       -12.4984
  55   2.0000      -0.443791       -12.0762
  56   2.0000      -0.441065       -12.0020
  57   2.0000      -0.435789       -11.8584
  58   2.0000      -0.422449       -11.4954
  59   2.0000      -0.421298       -11.4641
  60   2.0000      -0.419342       -11.4109
  61   2.0000      -0.415463       -11.3053
  62   2.0000      -0.404059       -10.9950
  63   2.0000      -0.345818        -9.4102
  64   2.0000      -0.333221        -9.0674
  65   2.0000      -0.318588        -8.6692
  66   2.0000      -0.298419        -8.1204
  67   0.0000       0.039105         1.0641
  68   0.0000       0.064832         1.7642
  69   0.0000       0.116055         3.1580
  70   0.0000       0.118842         3.2338
  71   0.0000       0.133508         3.6329

MULLIKEN ATOMIC CHARGES
-----------------------
   0 S :    0.142539
   1 C :   -0.095613
   2 C :   -0.115186
   3 C :    0.051330
   4 C :   -0.186841
   5 H :   -0.003084
   6 C :    0.073430
   7 H :    0.011807
   8 H :    0.041062
   9 C :   -0.113214
  10 H :    0.047609
  11 H :    0.046231
  12 C :   -0.031365
  13 H :    0.029615
  14 H :    0.023307
  15 H :    0.039391
  16 S :    0.104025
  17 C :   -0.052013
  18 C :   -0.035658
  19 C :   -0.051005
  20 C :   -0.165202
  21 H :    0.024694
  22 C :    0.018617
  23 H :    0.053943
  24 H :    0.065421
  25 C :   -0.124991
  26 H :    0.040173
  27 H :    0.036123
  28 C :   -0.015263
  29 H :    0.020010
  30 H :    0.029240
  31 H :    0.028583
  32 H :    0.036735
  33 H :    0.025549
Sum of atomic charges:   -0.0000000

LOEWDIN ATOMIC CHARGES
----------------------
   0 S :    0.449379
   1 C :   -0.224085
   2 C :   -0.072311
   3 C :   -0.046019
   4 C :   -0.210209
   5 H :    0.023807
   6 C :   -0.039233
   7 H :    0.032554
   8 H :    0.031226
   9 C :   -0.039411
  10 H :    0.038013
  11 H :    0.026243
  12 C :   -0.070986
  13 H :    0.029666
  14 H :    0.023886
  15 H :    0.023263
  16 S :    0.406454
  17 C :   -0.159846
  18 C :   -0.070779
  19 C :   -0.060465
  20 C :   -0.220866
  21 H :    0.032856
  22 C :   -0.042877
  23 H :    0.046485
  24 H :    0.039977
  25 C :   -0.048199
  26 H :    0.023073
  27 H :    0.028072
  28 C :   -0.064858
  29 H :    0.018981
  30 H :    0.032863
  31 H :    0.021372
  32 H :    0.025590
  33 H :    0.016385

  Mayer bond orders larger than 0.100000
B(  0-S ,  1-C ) :   1.1801 B(  0-S ,  4-C ) :   1.1382 B(  1-C ,  2-C ) :   1.5996
B(  1-C , 32-H ) :   0.9585 B(  2-C ,  3-C ) :   1.2341 B(  2-C ,  6-C ) :   1.0307
B(  3-C ,  4-C ) :   1.5742 B(  3-C ,  5-H ) :   1.0008 B(  4-C , 20-C ) :   1.0441
B(  6-C ,  7-H ) :   0.9413 B(  6-C ,  8-H ) :   0.9410 B(  6-C ,  9-C ) :   1.0350
B(  9-C , 10-H ) :   0.9549 B(  9-C , 11-H ) :   0.9614 B(  9-C , 12-C ) :   1.0828
B( 12-C , 13-H ) :   0.9738 B( 12-C , 14-H ) :   0.9736 B( 12-C , 15-H ) :   0.9761
B( 16-S , 17-C ) :   1.1399 B( 16-S , 20-C ) :   1.1464 B( 17-C , 18-C ) :   1.6219
B( 17-C , 33-H ) :   0.9719 B( 18-C , 19-C ) :   1.2504 B( 18-C , 21-H ) :   0.9816
B( 19-C , 20-C ) :   1.5859 B( 19-C , 22-C ) :   1.0080 B( 22-C , 23-H ) :   0.9390
B( 22-C , 24-H ) :   0.9395 B( 22-C , 25-C ) :   1.0659 B( 25-C , 26-H ) :   0.9510
B( 25-C , 27-H ) :   0.9615 B( 25-C , 28-C ) :   1.0827 B( 28-C , 29-H ) :   0.9747
B( 28-C , 30-H ) :   0.9720 B( 28-C , 31-H ) :   0.9741

Dispersion correction           -0.013557838
FINAL SINGLE POINT ENERGY     -1339.856485244820

DIPOLE MOMENT
-------------
                                X             Y             Z
Electronic contribution:     13.13853       1.71516     -10.62667
Nuclear contribution   :    -13.29893      -1.75962      10.88234
                        -----------------------------------------
Total Dipole Moment    :     -0.16040      -0.04446       0.25567
                        -----------------------------------------
Magnitude (a.u.)       :      0.30508
Magnitude (Debye)      :      0.77544

Rotational constants in cm-1:     0.021341     0.006943     0.005927
Rotational constants in MHz :   639.777459   208.146696   177.697743

                             ****ORCA TERMINATED NORMALLY****
TOTAL RUN TIME: 0 days 0 hours 0 minutes 31 seconds 591 msec
