                         Program Version 4.2.1 -  RELEASE  -
|  1> ! wB97X-D3 SP def2-SVP
|  2> %pal
|  3> nprocs 16
|  4> end
|  5>
|  6> * xyz 0 1
|  7> S 	 -45.5557 	 59.688 	 133.049
|  8> C 	 -45.3517 	 58.3173 	 134.168
|  9> C 	 -46.5628 	 57.8576 	 134.612
| 10> C 	 -47.6602 	 58.598 	 133.914
| 11> C 	 -47.2543 	 59.6405 	 133.162
| 12> H 	 -48.7338 	 58.3965 	 134.076
| 13> C 	 -46.781 	 56.8647 	 135.663
| 14> H 	 -47.7719 	 56.4998 	 135.542
| 15> H 	 -46.774 	 57.4077 	 136.652
| 16> C 	 -45.9857 	 55.5229 	 135.51
| 17> H 	 -45.9173 	 55.2368 	 134.459
| 18> H 	 -44.9533 	 55.5316 	 135.855
| 19> C 	 -46.5614 	 54.2695 	 136.165
| 20> H 	 -46.8458 	 54.3339 	 137.286
| 21> H 	 -47.4603 	 54.0094 	 135.558
| 22> H 	 -45.8374 	 53.5097 	 136.1
| 23> S 	 -47.8908 	 60.5434 	 130.628
| 24> C 	 -49.334 	 61.3468 	 130.297
| 25> C 	 -50.0256 	 61.5863 	 131.464
| 26> C 	 -49.3968 	 61.0475 	 132.655
| 27> C 	 -48.2179 	 60.3757 	 132.359
| 28> H 	 -50.9216 	 62.2262 	 131.4
| 29> C 	 -49.9692 	 61.1917 	 134.041
| 30> H 	 -49.8217 	 60.1683 	 134.526
| 31> H 	 -51.1221 	 61.2922 	 133.927
| 32> C 	 -49.4269 	 62.2456 	 134.908
| 33> H 	 -49.4222 	 63.2144 	 134.392
| 34> H 	 -48.417 	 61.9321 	 135.201
| 35> C 	 -50.2924 	 62.3375 	 136.213
| 36> H 	 -49.7085 	 62.7727 	 136.996
| 37> H 	 -50.5855 	 61.3335 	 136.572
| 38> H 	 -51.1541 	 62.9833 	 136.093
| 39> H 	 -44.4705 	 57.9856 	 134.582
| 40> H 	 -49.6189 	 61.8462 	 129.369
| 41> *
| 42>
| 43>                          ****END OF INPUT****

CARTESIAN COORDINATES (ANGSTROEM)
---------------------------------
  S    -45.555700   59.688000  133.049000
  C    -45.351700   58.317300  134.168000
  C    -46.562800   57.857600  134.612000
  C    -47.660200   58.598000  133.914000
  C    -47.254300   59.640500  133.162000
  H    -48.733800   58.396500  134.076000
  C    -46.781000   56.864700  135.663000
  H    -47.771900   56.499800  135.542000
  H    -46.774000   57.407700  136.652000
  C    -45.985700   55.522900  135.510000
  H    -45.917300   55.236800  134.459000
  H    -44.953300   55.531600  135.855000
  C    -46.561400   54.269500  136.165000
  H    -46.845800   54.333900  137.286000
  H    -47.460300   54.009400  135.558000
  H    -45.837400   53.509700  136.100000
  S    -47.890800   60.543400  130.628000
  C    -49.334000   61.346800  130.297000
  C    -50.025600   61.586300  131.464000
  C    -49.396800   61.047500  132.655000
  C    -48.217900   60.375700  132.359000
  H    -50.921600   62.226200  131.400000
  C    -49.969200   61.191700  134.041000
  H    -49.821700   60.168300  134.526000
  H    -51.122100   61.292200  133.927000
  C    -49.426900   62.245600  134.908000
  H    -49.422200   63.214400  134.392000
  H    -48.417000   61.932100  135.201000
  C    -50.292400   62.337500  136.213000
  H    -49.708500   62.772700  136.996000
  H    -50.585500   61.333500  136.572000
  H    -51.154100   62.983300  136.093000
  H    -44.470500   57.985600  134.582000
  H    -49.618900   61.846200  129.369000

 Total Charge           Charge          ....    0
 Multiplicity           Mult            ....    1
 Number of Electrons    NEL             ....  134
 Basis Dimension        Dim             ....  322

ORBITAL ENERGIES
----------------

  NO   OCC          E(Eh)            E(eV)
   0   2.0000     -88.966364     -2420.8978
   1   2.0000     -88.961377     -2420.7622
   2   2.0000     -10.327341      -281.0212
   3   2.0000     -10.325416      -280.9689
   4   2.0000     -10.311615      -280.5933
   5   2.0000     -10.309750      -280.5426
   6   2.0000     -10.303965      -280.3851
   7   2.0000     -10.303266      -280.3661
   8   2.0000     -10.296371      -280.1785
   9   2.0000     -10.295785      -280.1626
  10   2.0000     -10.295494      -280.1546
  11   2.0000     -10.293627      -280.1038
  12   2.0000     -10.291045      -280.0336
  13   2.0000     -10.285073      -279.8711
  14   2.0000     -10.284280      -279.8495
  15   2.0000     -10.276549      -279.6391
  16   2.0000      -8.081421      -219.9066
  17   2.0000      -8.077129      -219.7899
  18   2.0000      -6.040138      -164.3605
  19   2.0000      -6.035902      -164.2452
  20   2.0000      -6.035559      -164.2359
  21   2.0000      -6.031903      -164.1364
  22   2.0000      -6.031372      -164.1220
  23   2.0000      -6.028018      -164.0307
  24   2.0000      -1.011217       -27.5166
  25   2.0000      -0.987439       -26.8696
  26   2.0000      -0.917509       -24.9667
  27   2.0000      -0.914056       -24.8727
  28   2.0000      -0.874093       -23.7853
  29   2.0000      -0.853646       -23.2289
  30   2.0000      -0.843933       -22.9646
  31   2.0000      -0.815126       -22.1807
  32   2.0000      -0.783193       -21.3118
  33   2.0000      -0.773877       -21.0583
  34   2.0000      -0.710991       -19.3471
  35   2.0000      -0.700475       -19.0609
  36   2.0000      -0.687661       -18.7122
  37   2.0000      -0.658723       -17.9248
  38   2.0000      -0.640793       -17.4369
  39   2.0000      -0.613892       -16.7049
  40   2.0000      -0.593047       -16.1376
  41   2.0000      -0.577918       -15.7260
  42   2.0000      -0.568276       -15.4636
  43   2.0000      -0.564840       -15.3701
  44   2.0000      -0.526328       -14.3221
  45   2.0000      -0.523727       -14.2513
  46   2.0000      -0.517763       -14.0890
  47   2.0000      -0.515331       -14.0229
  48   2.0000      -0.508501       -13.8370
  49   2.0000      -0.506818       -13.7912
  50   2.0000      -0.495015       -13.4700
  51   2.0000      -0.479776       -13.0554
  52   2.0000      -0.476787       -12.9740
  53   2.0000      -0.461797       -12.5661
  54   2.0000      -0.457588       -12.4516
  55   2.0000      -0.448686       -12.2094
  56   2.0000      -0.444661       -12.0998
  57   2.0000      -0.436155       -11.8684
  58   2.0000      -0.431516       -11.7421
  59   2.0000      -0.424742       -11.5578
  60   2.0000      -0.417667       -11.3653
  61   2.0000      -0.412627       -11.2282
  62   2.0000      -0.407678       -11.0935
  63   2.0000      -0.351781        -9.5724
  64   2.0000      -0.327408        -8.9092
  65   2.0000      -0.326242        -8.8775
  66   2.0000      -0.297167        -8.0863
  67   0.0000       0.034670         0.9434
  68   0.0000       0.076584         2.0840
  69   0.0000       0.111840         3.0433
  70   0.0000       0.121731         3.3125
  71   0.0000       0.135759         3.6942

MULLIKEN ATOMIC CHARGES
-----------------------
   0 S :    0.107519
   1 C :   -0.081435
   2 C :   -0.118061
   3 C :   -0.010218
   4 C :   -0.107773
   5 H :    0.031921
   6 C :    0.113750
   7 H :    0.001441
   8 H :    0.063289
   9 C :   -0.101736
  10 H :    0.037165
  11 H :    0.026217
  12 C :   -0.074154
  13 H :    0.044414
  14 H :    0.039661
  15 H :    0.026617
  16 S :    0.107323
  17 C :   -0.085952
  18 C :   -0.065026
  19 C :   -0.021710
  20 C :   -0.163455
  21 H :    0.025166
  22 C :   -0.005157
  23 H :    0.021420
  24 H :    0.033182
  25 C :   -0.041524
  26 H :    0.035165
  27 H :    0.036603
  28 C :   -0.037987
  29 H :    0.024086
  30 H :    0.027564
  31 H :    0.034552
  32 H :    0.013895
  33 H :    0.063235
Sum of atomic charges:    0.0000000

LOEWDIN ATOMIC CHARGES
----------------------
   0 S :    0.405854
   1 C :   -0.173007
   2 C :   -0.057002
   3 C :   -0.063817
   4 C :   -0.214764
   5 H :    0.031828
   6 C :   -0.039132
   7 H :    0.027921
   8 H :    0.048395
   9 C :   -0.044235
  10 H :    0.031998
  11 H :    0.018749
  12 C :   -0.068578
  13 H :    0.032526
  14 H :    0.027063
  15 H :    0.019865
  16 S :    0.422348
  17 C :   -0.211838
  18 C :   -0.081580
  19 C :   -0.059660
  20 C :   -0.187263
  21 H :    0.033890
  22 C :   -0.048145
  23 H :    0.033482
  24 H :    0.035705
  25 C :   -0.038710
  26 H :    0.027897
  27 H :    0.029100
  28 C :   -0.061058
  29 H :    0.021795
  30 H :    0.025963
  31 H :    0.024151
  32 H :    0.012928
  33 H :    0.037332

  Mayer bond orders larger than 0.100000
B(  0-S ,  1-C ) :   1.1108 B(  0-S ,  4-C ) :   1.1342 B(  1-C ,  2-C ) :   1.6442
B(  1-C , 32-H ) :   0.9799 B(  2-C ,  3-C ) :   1.2052 B(  2-C ,  6-C ) :   1.0415
B(  3-C ,  4-C ) :   1.6036 B(  3-C ,  5-H ) :   0.9797 B(  4-C , 20-C ) :   1.0348
B(  6-C ,  7-H ) :   0.9319 B(  6-C ,  8-H ) :   0.9249 B(  6-C ,  9-C ) :   1.0444
B(  9-C , 10-H ) :   0.9596 B(  9-C , 11-H ) :   0.9561 B(  9-C , 12-C ) :   1.0930
B( 12-C , 13-H ) :   0.9739 B( 12-C , 14-H ) :   0.9757 B( 12-C , 15-H ) :   0.9743
B( 16-S , 17-C ) :   1.1732 B( 16-S , 20-C ) :   1.1399 B( 17-C , 18-C ) :   1.6041
B( 17-C , 33-H ) :   0.9625 B( 18-C , 19-C ) :   1.2477 B( 18-C , 21-H ) :   0.9875
B( 19-C , 20-C ) :   1.5921 B( 19-C , 22-C ) :   1.0379 B( 22-C , 23-H ) :   0.9222
B( 22-C , 24-H ) :   0.9382 B( 22-C , 25-C ) :   1.0819 B( 25-C , 26-H ) :   0.9541
B( 25-C , 27-H ) :   0.9497 B( 25-C , 28-C ) :   1.0774 B( 28-C , 29-H ) :   0.9754
B( 28-C , 30-H ) :   0.9734 B( 28-C , 31-H ) :   0.9764

Dispersion correction           -0.013620822
FINAL SINGLE POINT ENERGY     -1339.870385471681

DIPOLE MOMENT
-------------
                                X             Y             Z
Electronic contribution:      9.43271      10.05518     -24.01968
Nuclear contribution   :     -9.73247     -10.22011      24.57789
                        -----------------------------------------
Total Dipole Moment    :     -0.29976      -0.16493       0.55821
                        -----------------------------------------
Magnitude (a.u.)       :      0.65472
Magnitude (Debye)      :      1.66416

Rotational constants in cm-1:     0.018539     0.007827     0.006390
Rotational constants in MHz :   555.797474   234.645036   191.555492

                             ****ORCA TERMINATED NORMALLY****
TOTAL RUN TIME: 0 days 0 hours 0 minutes 33 seconds 604 msec
