                         Program Version 4.2.1 -  RELEASE  -
|  1> ! wB97X-D3 SP def2-SVP
|  2> %pal
|  3> nprocs 16
|  4> end
|  5>
|  6> * xyz 0 1
|  7> S 	 -26.0409 	 55.9442 	 110.485
|  8> C 	 -26.5804 	 55.2112 	 111.963
|  9> C 	 -27.4005 	 56.0063 	 112.696
| 10> C 	 -27.7133 	 57.2201 	 111.958
| 11> C 	 -27.102 	 57.3052 	 110.676
| 12> H 	 -28.4184 	 57.9445 	 112.259
| 13> C 	 -27.8856 	 55.6184 	 114.057
| 14> H 	 -27.102 	 54.9996 	 114.487
| 15> H 	 -28.6824 	 54.9099 	 114.017
| 16> C 	 -28.3668 	 56.7009 	 114.997
| 17> H 	 -28.8235 	 57.4871 	 114.391
| 18> H 	 -29.2222 	 56.5334 	 115.674
| 19> C 	 -27.1336 	 57.2091 	 115.795
| 20> H 	 -27.3273 	 57.9489 	 116.574
| 21> H 	 -26.7168 	 56.4343 	 116.48
| 22> H 	 -26.2523 	 57.5707 	 115.237
| 23> S 	 -25.5895 	 59.0502 	 109.216
| 24> C 	 -26.4471 	 60.2077 	 108.243
| 25> C 	 -27.8014 	 60.1196 	 108.361
| 26> C 	 -28.1926 	 59.0264 	 109.16
| 27> C 	 -27.1267 	 58.4756 	 109.831
| 28> H 	 -28.4612 	 60.6543 	 107.757
| 29> C 	 -29.6165 	 58.5125 	 109.12
| 30> H 	 -29.7665 	 57.6454 	 109.803
| 31> H 	 -29.7265 	 57.9982 	 108.175
| 32> C 	 -30.6703 	 59.5921 	 109.387
| 33> H 	 -31.6815 	 59.0724 	 109.553
| 34> H 	 -30.8507 	 60.1614 	 108.44
| 35> C 	 -30.2747 	 60.5909 	 110.467
| 36> H 	 -31.1657 	 61.2477 	 110.659
| 37> H 	 -29.3041 	 61.1506 	 110.352
| 38> H 	 -30.074 	 60.2567 	 111.468
| 39> H 	 -26.2334 	 54.1598 	 112.202
| 40> H 	 -26.0119 	 60.9236 	 107.536
| 41> *
| 42>
| 43>                          ****END OF INPUT****

CARTESIAN COORDINATES (ANGSTROEM)
---------------------------------
  S    -26.040900   55.944200  110.485000
  C    -26.580400   55.211200  111.963000
  C    -27.400500   56.006300  112.696000
  C    -27.713300   57.220100  111.958000
  C    -27.102000   57.305200  110.676000
  H    -28.418400   57.944500  112.259000
  C    -27.885600   55.618400  114.057000
  H    -27.102000   54.999600  114.487000
  H    -28.682400   54.909900  114.017000
  C    -28.366800   56.700900  114.997000
  H    -28.823500   57.487100  114.391000
  H    -29.222200   56.533400  115.674000
  C    -27.133600   57.209100  115.795000
  H    -27.327300   57.948900  116.574000
  H    -26.716800   56.434300  116.480000
  H    -26.252300   57.570700  115.237000
  S    -25.589500   59.050200  109.216000
  C    -26.447100   60.207700  108.243000
  C    -27.801400   60.119600  108.361000
  C    -28.192600   59.026400  109.160000
  C    -27.126700   58.475600  109.831000
  H    -28.461200   60.654300  107.757000
  C    -29.616500   58.512500  109.120000
  H    -29.766500   57.645400  109.803000
  H    -29.726500   57.998200  108.175000
  C    -30.670300   59.592100  109.387000
  H    -31.681500   59.072400  109.553000
  H    -30.850700   60.161400  108.440000
  C    -30.274700   60.590900  110.467000
  H    -31.165700   61.247700  110.659000
  H    -29.304100   61.150600  110.352000
  H    -30.074000   60.256700  111.468000
  H    -26.233400   54.159800  112.202000
  H    -26.011900   60.923600  107.536000

 Total Charge           Charge          ....    0
 Multiplicity           Mult            ....    1
 Number of Electrons    NEL             ....  134
 Basis Dimension        Dim             ....  322

ORBITAL ENERGIES
----------------

  NO   OCC          E(Eh)            E(eV)
   0   2.0000     -88.966062     -2420.8896
   1   2.0000     -88.964091     -2420.8360
   2   2.0000     -10.327394      -281.0227
   3   2.0000     -10.320729      -280.8413
   4   2.0000     -10.315751      -280.7058
   5   2.0000     -10.313027      -280.6317
   6   2.0000     -10.301253      -280.3113
   7   2.0000     -10.298811      -280.2449
   8   2.0000     -10.297529      -280.2100
   9   2.0000     -10.294275      -280.1215
  10   2.0000     -10.292163      -280.0640
  11   2.0000     -10.290209      -280.0108
  12   2.0000     -10.287680      -279.9420
  13   2.0000     -10.284147      -279.8459
  14   2.0000     -10.280950      -279.7589
  15   2.0000     -10.278734      -279.6986
  16   2.0000      -8.081127      -219.8986
  17   2.0000      -8.079317      -219.8494
  18   2.0000      -6.039618      -164.3464
  19   2.0000      -6.037815      -164.2973
  20   2.0000      -6.035736      -164.2407
  21   2.0000      -6.033628      -164.1834
  22   2.0000      -6.031740      -164.1320
  23   2.0000      -6.030206      -164.0902
  24   2.0000      -1.009766       -27.4771
  25   2.0000      -0.986971       -26.8568
  26   2.0000      -0.915643       -24.9159
  27   2.0000      -0.909244       -24.7418
  28   2.0000      -0.871465       -23.7138
  29   2.0000      -0.847293       -23.0560
  30   2.0000      -0.840714       -22.8770
  31   2.0000      -0.813067       -22.1247
  32   2.0000      -0.785399       -21.3718
  33   2.0000      -0.773985       -21.0612
  34   2.0000      -0.717623       -19.5275
  35   2.0000      -0.698549       -19.0085
  36   2.0000      -0.690132       -18.7794
  37   2.0000      -0.662303       -18.0222
  38   2.0000      -0.640654       -17.4331
  39   2.0000      -0.621786       -16.9197
  40   2.0000      -0.597642       -16.2627
  41   2.0000      -0.564989       -15.3741
  42   2.0000      -0.558584       -15.1998
  43   2.0000      -0.552322       -15.0294
  44   2.0000      -0.536960       -14.6114
  45   2.0000      -0.531174       -14.4540
  46   2.0000      -0.511834       -13.9277
  47   2.0000      -0.507727       -13.8159
  48   2.0000      -0.502564       -13.6755
  49   2.0000      -0.495096       -13.4723
  50   2.0000      -0.493343       -13.4246
  51   2.0000      -0.476587       -12.9686
  52   2.0000      -0.467369       -12.7178
  53   2.0000      -0.460753       -12.5377
  54   2.0000      -0.457837       -12.4584
  55   2.0000      -0.451715       -12.2918
  56   2.0000      -0.447782       -12.1848
  57   2.0000      -0.440218       -11.9789
  58   2.0000      -0.433970       -11.8089
  59   2.0000      -0.427929       -11.6445
  60   2.0000      -0.418395       -11.3851
  61   2.0000      -0.410446       -11.1688
  62   2.0000      -0.403466       -10.9789
  63   2.0000      -0.345848        -9.4110
  64   2.0000      -0.332712        -9.0536
  65   2.0000      -0.326166        -8.8754
  66   2.0000      -0.288004        -7.8370
  67   0.0000       0.033013         0.8983
  68   0.0000       0.070423         1.9163
  69   0.0000       0.111966         3.0467
  70   0.0000       0.125361         3.4112
  71   0.0000       0.129850         3.5334

MULLIKEN ATOMIC CHARGES
-----------------------
   0 S :    0.111826
   1 C :   -0.170423
   2 C :   -0.052434
   3 C :    0.030113
   4 C :   -0.156054
   5 H :   -0.005744
   6 C :    0.090778
   7 H :    0.018083
   8 H :    0.028027
   9 C :   -0.049603
  10 H :    0.021639
  11 H :    0.032571
  12 C :   -0.085245
  13 H :    0.022607
  14 H :    0.023690
  15 H :    0.048513
  16 S :    0.110358
  17 C :   -0.087354
  18 C :    0.006837
  19 C :   -0.090726
  20 C :   -0.154363
  21 H :   -0.006970
  22 C :    0.096540
  23 H :    0.027435
  24 H :    0.036359
  25 C :   -0.100126
  26 H :    0.044939
  27 H :    0.036388
  28 C :   -0.064363
  29 H :    0.039840
  30 H :    0.054044
  31 H :    0.014907
  32 H :    0.070218
  33 H :    0.057693
Sum of atomic charges:   -0.0000000

LOEWDIN ATOMIC CHARGES
----------------------
   0 S :    0.413229
   1 C :   -0.207978
   2 C :   -0.063448
   3 C :   -0.056919
   4 C :   -0.201507
   5 H :    0.018412
   6 C :   -0.033717
   7 H :    0.032937
   8 H :    0.033087
   9 C :   -0.043016
  10 H :    0.025045
  11 H :    0.031716
  12 C :   -0.078625
  13 H :    0.021554
  14 H :    0.027208
  15 H :    0.030908
  16 S :    0.405411
  17 C :   -0.182187
  18 C :   -0.066264
  19 C :   -0.051931
  20 C :   -0.202146
  21 H :    0.022027
  22 C :   -0.036865
  23 H :    0.033652
  24 H :    0.035599
  25 C :   -0.050344
  26 H :    0.036825
  27 H :    0.026434
  28 C :   -0.085972
  29 H :    0.034465
  30 H :    0.039880
  31 H :    0.019864
  32 H :    0.039099
  33 H :    0.033566

  Mayer bond orders larger than 0.100000
B(  0-S ,  1-C ) :   1.1462 B(  0-S ,  4-C ) :   1.1612 B(  1-C ,  2-C ) :   1.6025
B(  1-C , 32-H ) :   0.9613 B(  2-C ,  3-C ) :   1.2467 B(  2-C ,  6-C ) :   1.0186
B(  3-C ,  4-C ) :   1.5408 B(  3-C ,  5-H ) :   0.9996 B(  4-C , 20-C ) :   1.0533
B(  6-C ,  7-H ) :   0.9437 B(  6-C ,  8-H ) :   0.9251 B(  6-C ,  9-C ) :   1.0610
B(  9-C , 10-H ) :   0.9541 B(  9-C , 11-H ) :   0.9558 B(  9-C , 12-C ) :   1.0678
B( 12-C , 13-H ) :   0.9751 B( 12-C , 14-H ) :   0.9738 B( 12-C , 15-H ) :   0.9796
B( 16-S , 17-C ) :   1.1521 B( 16-S , 20-C ) :   1.1240 B( 17-C , 18-C ) :   1.6274
B( 17-C , 33-H ) :   0.9606 B( 18-C , 19-C ) :   1.2370 B( 18-C , 21-H ) :   0.9950
B( 19-C , 20-C ) :   1.6168 B( 19-C , 22-C ) :   1.0409 B( 22-C , 23-H ) :   0.9290
B( 22-C , 24-H ) :   0.9340 B( 22-C , 25-C ) :   1.0578 B( 25-C , 26-H ) :   0.9568
B( 25-C , 27-H ) :   0.9492 B( 25-C , 28-C ) :   1.0791 B( 28-C , 29-H ) :   0.9706
B( 28-C , 30-H ) :   0.9597 B( 28-C , 31-H ) :   0.9723

Dispersion correction           -0.014726896
FINAL SINGLE POINT ENERGY     -1339.867575565842

DIPOLE MOMENT
-------------
                                X             Y             Z
Electronic contribution:     18.98763      -5.08702     -17.51860
Nuclear contribution   :    -19.57860       5.05747      17.68472
                        -----------------------------------------
Total Dipole Moment    :     -0.59097      -0.02955       0.16612
                        -----------------------------------------
Magnitude (a.u.)       :      0.61459
Magnitude (Debye)      :      1.56216

Rotational constants in cm-1:     0.018640     0.009003     0.007216
Rotational constants in MHz :   558.802403   269.915598   216.333423

                             ****ORCA TERMINATED NORMALLY****
TOTAL RUN TIME: 0 days 0 hours 0 minutes 30 seconds 981 msec
