                         Program Version 4.2.1 -  RELEASE  -
|  1> ! wB97X-D3 SP def2-SVP
|  2> %pal
|  3> nprocs 16
|  4> end
|  5>
|  6> * xyz 0 1
|  7> S 	 -59.0575 	 36.939 	 87.731
|  8> C 	 -60.0814 	 35.6459 	 88.4278
|  9> C 	 -59.9618 	 35.6153 	 89.7967
| 10> C 	 -58.97 	 36.5394 	 90.2969
| 11> C 	 -58.318 	 37.2428 	 89.2955
| 12> H 	 -58.7625 	 36.7944 	 91.3325
| 13> C 	 -60.7699 	 34.6806 	 90.7291
| 14> H 	 -61.6921 	 34.2617 	 90.1921
| 15> H 	 -61.2157 	 35.2883 	 91.4321
| 16> C 	 -59.9435 	 33.6592 	 91.4729
| 17> H 	 -59.29 	 34.112 	 92.2519
| 18> H 	 -60.591 	 32.9313 	 92.0254
| 19> C 	 -58.9799 	 32.9036 	 90.5458
| 20> H 	 -58.3216 	 32.3068 	 91.1542
| 21> H 	 -59.5996 	 32.2723 	 89.9123
| 22> H 	 -58.3062 	 33.63 	 90.0198
| 23> S 	 -58.0829 	 39.9042 	 89.5718
| 24> C 	 -56.7143 	 40.6838 	 90.2069
| 25> C 	 -55.7171 	 39.7521 	 90.3778
| 26> C 	 -56.1521 	 38.416 	 90.1801
| 27> C 	 -57.4134 	 38.3244 	 89.6005
| 28> H 	 -54.7766 	 40.0728 	 90.7701
| 29> C 	 -55.1876 	 37.2136 	 90.2616
| 30> H 	 -54.128 	 37.5854 	 90.0193
| 31> H 	 -55.4247 	 36.3915 	 89.5136
| 32> C 	 -55.0164 	 36.5823 	 91.665
| 33> H 	 -54.2629 	 35.7466 	 91.4801
| 34> H 	 -55.9837 	 36.0634 	 91.9786
| 35> C 	 -54.6156 	 37.6345 	 92.7441
| 36> H 	 -55.1649 	 38.5383 	 92.6535
| 37> H 	 -53.5637 	 37.9876 	 92.8192
| 38> H 	 -55.0061 	 37.3047 	 93.649
| 39> H 	 -60.896 	 35.2379 	 87.811
| 40> H 	 -56.6297 	 41.7382 	 90.4569
| 41> *
| 42>
| 43>                          ****END OF INPUT****

CARTESIAN COORDINATES (ANGSTROEM)
---------------------------------
  S    -59.057500   36.939000   87.731000
  C    -60.081400   35.645900   88.427800
  C    -59.961800   35.615300   89.796700
  C    -58.970000   36.539400   90.296900
  C    -58.318000   37.242800   89.295500
  H    -58.762500   36.794400   91.332500
  C    -60.769900   34.680600   90.729100
  H    -61.692100   34.261700   90.192100
  H    -61.215700   35.288300   91.432100
  C    -59.943500   33.659200   91.472900
  H    -59.290000   34.112000   92.251900
  H    -60.591000   32.931300   92.025400
  C    -58.979900   32.903600   90.545800
  H    -58.321600   32.306800   91.154200
  H    -59.599600   32.272300   89.912300
  H    -58.306200   33.630000   90.019800
  S    -58.082900   39.904200   89.571800
  C    -56.714300   40.683800   90.206900
  C    -55.717100   39.752100   90.377800
  C    -56.152100   38.416000   90.180100
  C    -57.413400   38.324400   89.600500
  H    -54.776600   40.072800   90.770100
  C    -55.187600   37.213600   90.261600
  H    -54.128000   37.585400   90.019300
  H    -55.424700   36.391500   89.513600
  C    -55.016400   36.582300   91.665000
  H    -54.262900   35.746600   91.480100
  H    -55.983700   36.063400   91.978600
  C    -54.615600   37.634500   92.744100
  H    -55.164900   38.538300   92.653500
  H    -53.563700   37.987600   92.819200
  H    -55.006100   37.304700   93.649000
  H    -60.896000   35.237900   87.811000
  H    -56.629700   41.738200   90.456900

 Total Charge           Charge          ....    0
 Multiplicity           Mult            ....    1
 Number of Electrons    NEL             ....  134
 Basis Dimension        Dim             ....  322

ORBITAL ENERGIES
----------------

  NO   OCC          E(Eh)            E(eV)
   0   2.0000     -88.967096     -2420.9178
   1   2.0000     -88.961247     -2420.7586
   2   2.0000     -10.331840      -281.1436
   3   2.0000     -10.322566      -280.8913
   4   2.0000     -10.320612      -280.8381
   5   2.0000     -10.314321      -280.6669
   6   2.0000     -10.308658      -280.5129
   7   2.0000     -10.303702      -280.3780
   8   2.0000     -10.299411      -280.2612
   9   2.0000     -10.298906      -280.2475
  10   2.0000     -10.297891      -280.2199
  11   2.0000     -10.293608      -280.1033
  12   2.0000     -10.290316      -280.0137
  13   2.0000     -10.289795      -279.9995
  14   2.0000     -10.272983      -279.5421
  15   2.0000     -10.271054      -279.4896
  16   2.0000      -8.081241      -219.9018
  17   2.0000      -8.077846      -219.8094
  18   2.0000      -6.039790      -164.3510
  19   2.0000      -6.036228      -164.2541
  20   2.0000      -6.035883      -164.2447
  21   2.0000      -6.031937      -164.1373
  22   2.0000      -6.031793      -164.1334
  23   2.0000      -6.028891      -164.0545
  24   2.0000      -1.014084       -27.5946
  25   2.0000      -0.986001       -26.8305
  26   2.0000      -0.913115       -24.8471
  27   2.0000      -0.900743       -24.5105
  28   2.0000      -0.874246       -23.7895
  29   2.0000      -0.843979       -22.9658
  30   2.0000      -0.841297       -22.8929
  31   2.0000      -0.814730       -22.1699
  32   2.0000      -0.785394       -21.3716
  33   2.0000      -0.777126       -21.1467
  34   2.0000      -0.707842       -19.2614
  35   2.0000      -0.689251       -18.7555
  36   2.0000      -0.685217       -18.6457
  37   2.0000      -0.662066       -18.0157
  38   2.0000      -0.643143       -17.5008
  39   2.0000      -0.617698       -16.8084
  40   2.0000      -0.589633       -16.0447
  41   2.0000      -0.568847       -15.4791
  42   2.0000      -0.557336       -15.1659
  43   2.0000      -0.549102       -14.9418
  44   2.0000      -0.545028       -14.8310
  45   2.0000      -0.533272       -14.5111
  46   2.0000      -0.519395       -14.1335
  47   2.0000      -0.512720       -13.9518
  48   2.0000      -0.504635       -13.7318
  49   2.0000      -0.496567       -13.5123
  50   2.0000      -0.487864       -13.2755
  51   2.0000      -0.480001       -13.0615
  52   2.0000      -0.471505       -12.8303
  53   2.0000      -0.465962       -12.6795
  54   2.0000      -0.459190       -12.4952
  55   2.0000      -0.444722       -12.1015
  56   2.0000      -0.439054       -11.9473
  57   2.0000      -0.433246       -11.7892
  58   2.0000      -0.428584       -11.6624
  59   2.0000      -0.422288       -11.4910
  60   2.0000      -0.416844       -11.3429
  61   2.0000      -0.412245       -11.2177
  62   2.0000      -0.405921       -11.0457
  63   2.0000      -0.341005        -9.2792
  64   2.0000      -0.330946        -9.0055
  65   2.0000      -0.326182        -8.8759
  66   2.0000      -0.306701        -8.3458
  67   0.0000       0.035856         0.9757
  68   0.0000       0.060106         1.6356
  69   0.0000       0.111183         3.0254
  70   0.0000       0.116059         3.1581
  71   0.0000       0.129748         3.5306

MULLIKEN ATOMIC CHARGES
-----------------------
   0 S :    0.097295
   1 C :   -0.133739
   2 C :   -0.103052
   3 C :    0.032881
   4 C :   -0.149084
   5 H :    0.025208
   6 C :    0.120570
   7 H :    0.030256
   8 H :    0.008612
   9 C :   -0.118735
  10 H :    0.029571
  11 H :    0.037306
  12 C :   -0.043451
  13 H :    0.022437
  14 H :    0.031395
  15 H :    0.056861
  16 S :    0.116124
  17 C :   -0.096301
  18 C :   -0.027310
  19 C :   -0.014651
  20 C :   -0.170853
  21 H :    0.010233
  22 C :   -0.007417
  23 H :    0.035826
  24 H :    0.051632
  25 C :   -0.100401
  26 H :    0.045125
  27 H :    0.034636
  28 C :   -0.017809
  29 H :    0.014643
  30 H :    0.041946
  31 H :    0.009732
  32 H :    0.067798
  33 H :    0.062714
Sum of atomic charges:    0.0000000

LOEWDIN ATOMIC CHARGES
----------------------
   0 S :    0.385207
   1 C :   -0.186284
   2 C :   -0.058080
   3 C :   -0.055463
   4 C :   -0.197991
   5 H :    0.033996
   6 C :   -0.031691
   7 H :    0.038090
   8 H :    0.021803
   9 C :   -0.048684
  10 H :    0.023952
  11 H :    0.029196
  12 C :   -0.064244
  13 H :    0.020107
  14 H :    0.022898
  15 H :    0.034070
  16 S :    0.447466
  17 C :   -0.202560
  18 C :   -0.075458
  19 C :   -0.063188
  20 C :   -0.213861
  21 H :    0.025805
  22 C :   -0.042206
  23 H :    0.035692
  24 H :    0.037607
  25 C :   -0.046197
  26 H :    0.031754
  27 H :    0.025694
  28 C :   -0.072154
  29 H :    0.023446
  30 H :    0.031618
  31 H :    0.020102
  32 H :    0.034354
  33 H :    0.035204

  Mayer bond orders larger than 0.100000
B(  0-S ,  1-C ) :   1.1239 B(  0-S ,  4-C ) :   1.1464 B(  1-C ,  2-C ) :   1.6324
B(  1-C , 32-H ) :   0.9644 B(  2-C ,  3-C ) :   1.2133 B(  2-C ,  6-C ) :   1.0124
B(  3-C ,  4-C ) :   1.5889 B(  3-C ,  5-H ) :   0.9929 B(  4-C , 20-C ) :   1.0196
B(  6-C ,  7-H ) :   0.9447 B(  6-C ,  8-H ) :   0.9305 B(  6-C ,  9-C ) :   1.0675
B(  9-C , 10-H ) :   0.9545 B(  9-C , 11-H ) :   0.9556 B(  9-C , 12-C ) :   1.0825
B( 12-C , 13-H ) :   0.9747 B( 12-C , 14-H ) :   0.9790 B( 12-C , 15-H ) :   0.9664
B( 16-S , 17-C ) :   1.1870 B( 16-S , 20-C ) :   1.1717 B( 17-C , 18-C ) :   1.5655
B( 17-C , 20-C ) :   0.1022 B( 17-C , 33-H ) :   0.9691 B( 18-C , 19-C ) :   1.2673
B( 18-C , 21-H ) :   0.9923 B( 19-C , 20-C ) :   1.5748 B( 19-C , 22-C ) :   1.0194
B( 22-C , 23-H ) :   0.9497 B( 22-C , 24-H ) :   0.9488 B( 22-C , 25-C ) :   1.0617
B( 25-C , 26-H ) :   0.9582 B( 25-C , 27-H ) :   0.9567 B( 25-C , 28-C ) :   1.0622
B( 28-C , 29-H ) :   0.9665 B( 28-C , 30-H ) :   0.9756 B( 28-C , 31-H ) :   0.9693

Dispersion correction           -0.015230071
FINAL SINGLE POINT ENERGY     -1339.871883224286

DIPOLE MOMENT
-------------
                                X             Y             Z
Electronic contribution:     -8.21192      19.00590     -17.73122
Nuclear contribution   :      8.17243     -19.13938      18.31731
                        -----------------------------------------
Total Dipole Moment    :     -0.03949      -0.13348       0.58608
                        -----------------------------------------
Magnitude (a.u.)       :      0.60239
Magnitude (Debye)      :      1.53114

Rotational constants in cm-1:     0.018628     0.009686     0.007302
Rotational constants in MHz :   558.460292   290.383660   218.902108

                             ****ORCA TERMINATED NORMALLY****
TOTAL RUN TIME: 0 days 0 hours 0 minutes 31 seconds 648 msec
