                         Program Version 4.2.1 -  RELEASE  -
|  1> ! wB97X-D3 SP def2-SVP
|  2> %pal
|  3> nprocs 16
|  4> end
|  5>
|  6> * xyz 0 1
|  7> S 	 -95.9929 	 42.7647 	 126.767
|  8> C 	 -94.6457 	 41.8736 	 126.101
|  9> C 	 -95.0715 	 40.8351 	 125.191
| 10> C 	 -96.5062 	 40.8492 	 125.107
| 11> C 	 -97.1432 	 41.8625 	 125.761
| 12> H 	 -97.0595 	 40.0228 	 124.711
| 13> C 	 -94.2149 	 39.7798 	 124.444
| 14> H 	 -94.8083 	 39.2636 	 123.743
| 15> H 	 -93.8127 	 39.0496 	 125.106
| 16> C 	 -93.0286 	 40.404 	 123.656
| 17> H 	 -93.5445 	 41.2291 	 123.086
| 18> H 	 -92.2587 	 40.7073 	 124.312
| 19> C 	 -92.5582 	 39.3627 	 122.597
| 20> H 	 -91.7402 	 39.8001 	 121.898
| 21> H 	 -92.1029 	 38.5079 	 123.032
| 22> H 	 -93.2704 	 39.1112 	 121.855
| 23> S 	 -99.1394 	 42.4686 	 127.521
| 24> C 	 -100.568 	 43.2136 	 126.863
| 25> C 	 -100.761 	 42.7552 	 125.544
| 26> C 	 -99.5711 	 42.2969 	 124.974
| 27> C 	 -98.5252 	 42.1559 	 125.897
| 28> H 	 -101.712 	 42.9863 	 125.048
| 29> C 	 -99.445 	 42.0852 	 123.437
| 30> H 	 -100.126 	 41.3209 	 123.056
| 31> H 	 -98.3941 	 41.6829 	 123.228
| 32> C 	 -99.4752 	 43.4035 	 122.629
| 33> H 	 -98.8499 	 44.1114 	 123.174
| 34> H 	 -100.6 	 43.7659 	 122.665
| 35> C 	 -99.2046 	 43.3441 	 121.047
| 36> H 	 -99.7727 	 42.6917 	 120.421
| 37> H 	 -98.2521 	 42.9288 	 120.989
| 38> H 	 -99.216 	 44.2774 	 120.606
| 39> H 	 -93.5699 	 42.044 	 126.399
| 40> H 	 -101.425 	 43.5621 	 127.306
| 41> *
| 42>
| 43>                          ****END OF INPUT****

CARTESIAN COORDINATES (ANGSTROEM)
---------------------------------
  S    -95.992900   42.764700  126.767000
  C    -94.645700   41.873600  126.101000
  C    -95.071500   40.835100  125.191000
  C    -96.506200   40.849200  125.107000
  C    -97.143200   41.862500  125.761000
  H    -97.059500   40.022800  124.711000
  C    -94.214900   39.779800  124.444000
  H    -94.808300   39.263600  123.743000
  H    -93.812700   39.049600  125.106000
  C    -93.028600   40.404000  123.656000
  H    -93.544500   41.229100  123.086000
  H    -92.258700   40.707300  124.312000
  C    -92.558200   39.362700  122.597000
  H    -91.740200   39.800100  121.898000
  H    -92.102900   38.507900  123.032000
  H    -93.270400   39.111200  121.855000
  S    -99.139400   42.468600  127.521000
  C    -100.568000   43.213600  126.863000
  C    -100.761000   42.755200  125.544000
  C    -99.571100   42.296900  124.974000
  C    -98.525200   42.155900  125.897000
  H    -101.712000   42.986300  125.048000
  C    -99.445000   42.085200  123.437000
  H    -100.126000   41.320900  123.056000
  H    -98.394100   41.682900  123.228000
  C    -99.475200   43.403500  122.629000
  H    -98.849900   44.111400  123.174000
  H    -100.600000   43.765900  122.665000
  C    -99.204600   43.344100  121.047000
  H    -99.772700   42.691700  120.421000
  H    -98.252100   42.928800  120.989000
  H    -99.216000   44.277400  120.606000
  H    -93.569900   42.044000  126.399000
  H    -101.425000   43.562100  127.306000

 Total Charge           Charge          ....    0
 Multiplicity           Mult            ....    1
 Number of Electrons    NEL             ....  134
 Basis Dimension        Dim             ....  322

ORBITAL ENERGIES
----------------

  NO   OCC          E(Eh)            E(eV)
   0   2.0000     -88.968736     -2420.9624
   1   2.0000     -88.968341     -2420.9516
   2   2.0000     -10.326953      -281.0107
   3   2.0000     -10.326573      -281.0003
   4   2.0000     -10.325890      -280.9817
   5   2.0000     -10.310932      -280.5747
   6   2.0000     -10.310688      -280.5681
   7   2.0000     -10.305358      -280.4230
   8   2.0000     -10.297958      -280.2217
   9   2.0000     -10.297734      -280.2156
  10   2.0000     -10.293767      -280.1077
  11   2.0000     -10.293113      -280.0899
  12   2.0000     -10.291821      -280.0547
  13   2.0000     -10.290605      -280.0216
  14   2.0000     -10.281748      -279.7806
  15   2.0000     -10.269168      -279.4383
  16   2.0000      -8.082900      -219.9469
  17   2.0000      -8.082736      -219.9424
  18   2.0000      -6.041459      -164.3965
  19   2.0000      -6.041205      -164.3895
  20   2.0000      -6.037446      -164.2873
  21   2.0000      -6.037412      -164.2863
  22   2.0000      -6.033687      -164.1850
  23   2.0000      -6.033383      -164.1767
  24   2.0000      -1.007592       -27.4180
  25   2.0000      -0.980173       -26.6719
  26   2.0000      -0.910069       -24.7642
  27   2.0000      -0.896374       -24.3916
  28   2.0000      -0.869146       -23.6507
  29   2.0000      -0.850642       -23.1471
  30   2.0000      -0.843130       -22.9427
  31   2.0000      -0.811020       -22.0690
  32   2.0000      -0.784546       -21.3486
  33   2.0000      -0.771089       -20.9824
  34   2.0000      -0.707836       -19.2612
  35   2.0000      -0.702454       -19.1147
  36   2.0000      -0.691052       -18.8045
  37   2.0000      -0.659700       -17.9513
  38   2.0000      -0.640429       -17.4269
  39   2.0000      -0.618749       -16.8370
  40   2.0000      -0.589130       -16.0310
  41   2.0000      -0.579779       -15.7766
  42   2.0000      -0.564090       -15.3497
  43   2.0000      -0.554347       -15.0845
  44   2.0000      -0.527552       -14.3554
  45   2.0000      -0.520024       -14.1506
  46   2.0000      -0.517268       -14.0756
  47   2.0000      -0.507506       -13.8099
  48   2.0000      -0.502721       -13.6797
  49   2.0000      -0.501581       -13.6487
  50   2.0000      -0.490261       -13.3407
  51   2.0000      -0.480357       -13.0712
  52   2.0000      -0.467859       -12.7311
  53   2.0000      -0.461735       -12.5644
  54   2.0000      -0.456634       -12.4256
  55   2.0000      -0.454350       -12.3635
  56   2.0000      -0.447464       -12.1761
  57   2.0000      -0.439850       -11.9689
  58   2.0000      -0.437934       -11.9168
  59   2.0000      -0.425813       -11.5870
  60   2.0000      -0.422393       -11.4939
  61   2.0000      -0.415493       -11.3061
  62   2.0000      -0.393090       -10.6965
  63   2.0000      -0.348957        -9.4956
  64   2.0000      -0.333802        -9.0832
  65   2.0000      -0.326790        -8.8924
  66   2.0000      -0.283695        -7.7197
  67   0.0000       0.016684         0.4540
  68   0.0000       0.065337         1.7779
  69   0.0000       0.098442         2.6788
  70   0.0000       0.122949         3.3456
  71   0.0000       0.130560         3.5527

MULLIKEN ATOMIC CHARGES
-----------------------
   0 S :    0.117880
   1 C :   -0.145698
   2 C :   -0.105576
   3 C :    0.033670
   4 C :   -0.151932
   5 H :    0.017802
   6 C :    0.101549
   7 H :    0.001615
   8 H :    0.032631
   9 C :   -0.088432
  10 H :    0.047429
  11 H :    0.036035
  12 C :   -0.067986
  13 H :    0.033937
  14 H :    0.030644
  15 H :    0.029473
  16 S :    0.114592
  17 C :   -0.053744
  18 C :   -0.074297
  19 C :   -0.015859
  20 C :   -0.155444
  21 H :    0.033066
  22 C :    0.051768
  23 H :    0.037918
  24 H :    0.021535
  25 C :   -0.134265
  26 H :    0.048815
  27 H :    0.034087
  28 C :    0.012588
  29 H :    0.020929
  30 H :    0.008095
  31 H :    0.026964
  32 H :    0.072710
  33 H :    0.027500
Sum of atomic charges:   -0.0000000

LOEWDIN ATOMIC CHARGES
----------------------
   0 S :    0.407402
   1 C :   -0.209632
   2 C :   -0.059156
   3 C :   -0.060531
   4 C :   -0.193381
   5 H :    0.031089
   6 C :   -0.024510
   7 H :    0.021670
   8 H :    0.027421
   9 C :   -0.031470
  10 H :    0.035058
  11 H :    0.017765
  12 C :   -0.070424
  13 H :    0.035358
  14 H :    0.018500
  15 H :    0.020297
  16 S :    0.408213
  17 C :   -0.180903
  18 C :   -0.064590
  19 C :   -0.056636
  20 C :   -0.195632
  21 H :    0.035013
  22 C :   -0.039153
  23 H :    0.029655
  24 H :    0.031076
  25 C :   -0.040900
  26 H :    0.028463
  27 H :    0.025570
  28 C :   -0.057339
  29 H :    0.024167
  30 H :    0.016738
  31 H :    0.019952
  32 H :    0.038268
  33 H :    0.012586

  Mayer bond orders larger than 0.100000
B(  0-S ,  1-C ) :   1.1582 B(  0-S ,  4-C ) :   1.1313 B(  1-C ,  2-C ) :   1.5681
B(  1-C ,  4-C ) :   0.1036 B(  1-C , 32-H ) :   0.9628 B(  2-C ,  3-C ) :   1.2722
B(  2-C ,  6-C ) :   1.0179 B(  3-C ,  4-C ) :   1.5657 B(  3-C ,  5-H ) :   0.9875
B(  4-C , 20-C ) :   1.0852 B(  6-C ,  7-H ) :   0.9464 B(  6-C ,  8-H ) :   0.9343
B(  6-C ,  9-C ) :   1.0552 B(  9-C , 10-H ) :   0.9627 B(  9-C , 11-H ) :   0.9586
B(  9-C , 12-C ) :   1.0857 B( 12-C , 13-H ) :   0.9733 B( 12-C , 14-H ) :   0.9759
B( 12-C , 15-H ) :   0.9749 B( 16-S , 17-C ) :   1.1530 B( 16-S , 20-C ) :   1.1461
B( 17-C , 18-C ) :   1.5947 B( 17-C , 20-C ) :   0.1103 B( 17-C , 33-H ) :   0.9704
B( 18-C , 19-C ) :   1.2681 B( 18-C , 21-H ) :   0.9830 B( 19-C , 20-C ) :   1.5594
B( 19-C , 22-C ) :   1.0390 B( 22-C , 23-H ) :   0.9406 B( 22-C , 24-H ) :   0.9341
B( 22-C , 25-C ) :   1.0509 B( 25-C , 26-H ) :   0.9591 B( 25-C , 27-H ) :   0.9588
B( 25-C , 28-C ) :   1.0625 B( 28-C , 29-H ) :   0.9758 B( 28-C , 30-H ) :   0.9741
B( 28-C , 31-H ) :   0.9765

Dispersion correction           -0.013443580
FINAL SINGLE POINT ENERGY     -1339.836912620211

DIPOLE MOMENT
-------------
                                X             Y             Z
Electronic contribution:     -9.36376       7.04460      28.91913
Nuclear contribution   :      9.44111      -7.42187     -29.47310
                        -----------------------------------------
Total Dipole Moment    :      0.07736      -0.37726      -0.55397
                        -----------------------------------------
Magnitude (a.u.)       :      0.67468
Magnitude (Debye)      :      1.71490

Rotational constants in cm-1:     0.017875     0.008196     0.006113
Rotational constants in MHz :   535.877977   245.711815   183.256222

                             ****ORCA TERMINATED NORMALLY****
TOTAL RUN TIME: 0 days 0 hours 0 minutes 30 seconds 302 msec
