                         Program Version 4.2.1 -  RELEASE  -
|  1> ! wB97X-D3 SP def2-SVP
|  2> %pal
|  3> nprocs 16
|  4> end
|  5>
|  6> * xyz 0 1
|  7> S 	 -43.391 	 17.9039 	 83.6764
|  8> C 	 -42.0165 	 16.8781 	 84.0398
|  9> C 	 -41.2526 	 17.3841 	 85.1393
| 10> C 	 -41.9134 	 18.6173 	 85.6324
| 11> C 	 -43.0447 	 19.0176 	 84.9155
| 12> H 	 -41.515 	 19.2632 	 86.4286
| 13> C 	 -39.9331 	 16.832 	 85.6059
| 14> H 	 -39.5359 	 16.1259 	 84.892
| 15> H 	 -40.093 	 16.2743 	 86.5618
| 16> C 	 -38.8063 	 17.7976 	 85.7474
| 17> H 	 -38.5746 	 18.2157 	 84.8146
| 18> H 	 -38.9898 	 18.6894 	 86.2939
| 19> C 	 -37.5239 	 17.1222 	 86.3086
| 20> H 	 -36.7232 	 17.8816 	 86.5725
| 21> H 	 -37.7992 	 16.4899 	 87.0949
| 22> H 	 -37.0937 	 16.5566 	 85.4666
| 23> S 	 -44.1806 	 21.3533 	 83.9363
| 24> C 	 -44.8562 	 22.5286 	 84.9864
| 25> C 	 -44.9181 	 21.9496 	 86.2298
| 26> C 	 -44.3666 	 20.6287 	 86.4351
| 27> C 	 -43.9273 	 20.1507 	 85.2363
| 28> H 	 -45.3509 	 22.6171 	 87.0299
| 29> C 	 -44.2518 	 19.8835 	 87.7381
| 30> H 	 -43.9897 	 18.823 	 87.5553
| 31> H 	 -45.2404 	 19.7398 	 88.0989
| 32> C 	 -43.2384 	 20.3267 	 88.8257
| 33> H 	 -43.6609 	 21.2684 	 89.1951
| 34> H 	 -42.3007 	 20.6834 	 88.4015
| 35> C 	 -42.9573 	 19.1897 	 89.7833
| 36> H 	 -42.0873 	 19.2605 	 90.3741
| 37> H 	 -42.922 	 18.1987 	 89.2812
| 38> H 	 -43.6414 	 19.2015 	 90.6135
| 39> H 	 -41.8765 	 15.9502 	 83.4945
| 40> H 	 -45.2521 	 23.4353 	 84.5868
| 41> *
| 42>
| 43>                          ****END OF INPUT****

CARTESIAN COORDINATES (ANGSTROEM)
---------------------------------
  S    -43.391000   17.903900   83.676400
  C    -42.016500   16.878100   84.039800
  C    -41.252600   17.384100   85.139300
  C    -41.913400   18.617300   85.632400
  C    -43.044700   19.017600   84.915500
  H    -41.515000   19.263200   86.428600
  C    -39.933100   16.832000   85.605900
  H    -39.535900   16.125900   84.892000
  H    -40.093000   16.274300   86.561800
  C    -38.806300   17.797600   85.747400
  H    -38.574600   18.215700   84.814600
  H    -38.989800   18.689400   86.293900
  C    -37.523900   17.122200   86.308600
  H    -36.723200   17.881600   86.572500
  H    -37.799200   16.489900   87.094900
  H    -37.093700   16.556600   85.466600
  S    -44.180600   21.353300   83.936300
  C    -44.856200   22.528600   84.986400
  C    -44.918100   21.949600   86.229800
  C    -44.366600   20.628700   86.435100
  C    -43.927300   20.150700   85.236300
  H    -45.350900   22.617100   87.029900
  C    -44.251800   19.883500   87.738100
  H    -43.989700   18.823000   87.555300
  H    -45.240400   19.739800   88.098900
  C    -43.238400   20.326700   88.825700
  H    -43.660900   21.268400   89.195100
  H    -42.300700   20.683400   88.401500
  C    -42.957300   19.189700   89.783300
  H    -42.087300   19.260500   90.374100
  H    -42.922000   18.198700   89.281200
  H    -43.641400   19.201500   90.613500
  H    -41.876500   15.950200   83.494500
  H    -45.252100   23.435300   84.586800

 Total Charge           Charge          ....    0
 Multiplicity           Mult            ....    1
 Number of Electrons    NEL             ....  134
 Basis Dimension        Dim             ....  322

ORBITAL ENERGIES
----------------

  NO   OCC          E(Eh)            E(eV)
   0   2.0000     -88.965465     -2420.8734
   1   2.0000     -88.957654     -2420.6608
   2   2.0000     -10.328272      -281.0466
   3   2.0000     -10.327683      -281.0306
   4   2.0000     -10.319895      -280.8186
   5   2.0000     -10.316294      -280.7206
   6   2.0000     -10.313887      -280.6551
   7   2.0000     -10.306201      -280.4460
   8   2.0000     -10.301040      -280.3056
   9   2.0000     -10.299133      -280.2537
  10   2.0000     -10.294815      -280.1361
  11   2.0000     -10.290060      -280.0068
  12   2.0000     -10.289324      -279.9867
  13   2.0000     -10.281185      -279.7653
  14   2.0000     -10.277142      -279.6552
  15   2.0000     -10.275896      -279.6214
  16   2.0000      -8.080973      -219.8945
  17   2.0000      -8.073170      -219.6821
  18   2.0000      -6.039319      -164.3382
  19   2.0000      -6.035241      -164.2273
  20   2.0000      -6.031992      -164.1388
  21   2.0000      -6.031675      -164.1302
  22   2.0000      -6.027461      -164.0155
  23   2.0000      -6.023972      -163.9206
  24   2.0000      -1.006315       -27.3832
  25   2.0000      -0.982685       -26.7402
  26   2.0000      -0.919848       -25.0303
  27   2.0000      -0.911936       -24.8150
  28   2.0000      -0.870082       -23.6761
  29   2.0000      -0.853558       -23.2265
  30   2.0000      -0.840897       -22.8820
  31   2.0000      -0.809451       -22.0263
  32   2.0000      -0.785311       -21.3694
  33   2.0000      -0.774798       -21.0833
  34   2.0000      -0.712610       -19.3911
  35   2.0000      -0.708332       -19.2747
  36   2.0000      -0.691798       -18.8248
  37   2.0000      -0.657898       -17.9023
  38   2.0000      -0.644023       -17.5247
  39   2.0000      -0.618697       -16.8356
  40   2.0000      -0.603787       -16.4299
  41   2.0000      -0.572289       -15.5728
  42   2.0000      -0.563325       -15.3289
  43   2.0000      -0.561387       -15.2761
  44   2.0000      -0.536462       -14.5979
  45   2.0000      -0.525406       -14.2970
  46   2.0000      -0.519870       -14.1464
  47   2.0000      -0.508159       -13.8277
  48   2.0000      -0.507225       -13.8023
  49   2.0000      -0.503190       -13.6925
  50   2.0000      -0.493329       -13.4242
  51   2.0000      -0.480658       -13.0794
  52   2.0000      -0.470364       -12.7993
  53   2.0000      -0.462829       -12.5942
  54   2.0000      -0.459174       -12.4948
  55   2.0000      -0.454476       -12.3669
  56   2.0000      -0.445825       -12.1315
  57   2.0000      -0.439692       -11.9646
  58   2.0000      -0.432640       -11.7727
  59   2.0000      -0.421827       -11.4785
  60   2.0000      -0.417901       -11.3717
  61   2.0000      -0.414686       -11.2842
  62   2.0000      -0.404614       -11.0101
  63   2.0000      -0.346354        -9.4248
  64   2.0000      -0.329591        -8.9686
  65   2.0000      -0.325919        -8.8687
  66   2.0000      -0.295946        -8.0531
  67   0.0000       0.034691         0.9440
  68   0.0000       0.071247         1.9387
  69   0.0000       0.116287         3.1643
  70   0.0000       0.124140         3.3780
  71   0.0000       0.129533         3.5248

MULLIKEN ATOMIC CHARGES
-----------------------
   0 S :    0.116152
   1 C :   -0.134187
   2 C :   -0.086501
   3 C :    0.010235
   4 C :   -0.140124
   5 H :    0.018107
   6 C :    0.074826
   7 H :    0.015989
   8 H :    0.041821
   9 C :   -0.065091
  10 H :    0.011574
  11 H :    0.015952
  12 C :   -0.055798
  13 H :    0.046243
  14 H :    0.025859
  15 H :    0.031856
  16 S :    0.079673
  17 C :   -0.087557
  18 C :   -0.062685
  19 C :   -0.007942
  20 C :   -0.144626
  21 H :    0.032386
  22 C :    0.047346
  23 H :    0.017758
  24 H :    0.024727
  25 C :   -0.049499
  26 H :    0.026010
  27 H :    0.025195
  28 C :   -0.028985
  29 H :    0.014897
  30 H :    0.044924
  31 H :    0.023810
  32 H :    0.057551
  33 H :    0.060105
Sum of atomic charges:    0.0000000

LOEWDIN ATOMIC CHARGES
----------------------
   0 S :    0.430321
   1 C :   -0.201321
   2 C :   -0.054797
   3 C :   -0.067289
   4 C :   -0.215559
   5 H :    0.031322
   6 C :   -0.036054
   7 H :    0.032762
   8 H :    0.036855
   9 C :   -0.040758
  10 H :    0.019563
  11 H :    0.015350
  12 C :   -0.058645
  13 H :    0.036172
  14 H :    0.014545
  15 H :    0.026818
  16 S :    0.393358
  17 C :   -0.188805
  18 C :   -0.082066
  19 C :   -0.056068
  20 C :   -0.181375
  21 H :    0.034755
  22 C :   -0.033968
  23 H :    0.032669
  24 H :    0.030131
  25 C :   -0.039074
  26 H :    0.025959
  27 H :    0.021603
  28 C :   -0.067989
  29 H :    0.022703
  30 H :    0.034454
  31 H :    0.027935
  32 H :    0.027154
  33 H :    0.029338

  Mayer bond orders larger than 0.100000
B(  0-S ,  1-C ) :   1.1586 B(  0-S ,  4-C ) :   1.1739 B(  1-C ,  2-C ) :   1.5756
B(  1-C , 32-H ) :   0.9713 B(  2-C ,  3-C ) :   1.2446 B(  2-C ,  6-C ) :   1.0351
B(  3-C ,  4-C ) :   1.5633 B(  3-C ,  5-H ) :   0.9893 B(  4-C , 20-C ) :   0.9958
B(  6-C ,  7-H ) :   0.9451 B(  6-C ,  8-H ) :   0.9286 B(  6-C ,  9-C ) :   1.0634
B(  9-C , 10-H ) :   0.9518 B(  9-C , 11-H ) :   0.9553 B(  9-C , 12-C ) :   1.0797
B( 12-C , 13-H ) :   0.9741 B( 12-C , 14-H ) :   0.9778 B( 12-C , 15-H ) :   0.9779
B( 16-S , 17-C ) :   1.1576 B( 16-S , 20-C ) :   1.1414 B( 17-C , 18-C ) :   1.5999
B( 17-C , 33-H ) :   0.9774 B( 18-C , 19-C ) :   1.2122 B( 18-C , 21-H ) :   0.9837
B( 19-C , 20-C ) :   1.6220 B( 19-C , 22-C ) :   1.0466 B( 22-C , 23-H ) :   0.9358
B( 22-C , 24-H ) :   0.9282 B( 22-C , 25-C ) :   1.0414 B( 25-C , 26-H ) :   0.9535
B( 25-C , 27-H ) :   0.9595 B( 25-C , 28-C ) :   1.0750 B( 28-C , 29-H ) :   0.9711
B( 28-C , 30-H ) :   0.9731 B( 28-C , 31-H ) :   0.9718

Dispersion correction           -0.014106109
FINAL SINGLE POINT ENERGY     -1339.869823564234

DIPOLE MOMENT
-------------
                                X             Y             Z
Electronic contribution:    -19.61131       7.47289     -23.16693
Nuclear contribution   :     19.98147      -7.50148      23.78766
                        -----------------------------------------
Total Dipole Moment    :      0.37016      -0.02860       0.62073
                        -----------------------------------------
Magnitude (a.u.)       :      0.72328
Magnitude (Debye)      :      1.83844

Rotational constants in cm-1:     0.016908     0.008940     0.006854
Rotational constants in MHz :   506.889150   268.016092   205.477868

                             ****ORCA TERMINATED NORMALLY****
TOTAL RUN TIME: 0 days 0 hours 0 minutes 29 seconds 771 msec
