                         Program Version 4.2.1 -  RELEASE  -
|  1> ! wB97X-D3 SP def2-SVP
|  2> %pal
|  3> nprocs 16
|  4> end
|  5>
|  6> * xyz 0 1
|  7> S 	 41.9652 	 14.216 	 71.5772
|  8> C 	 40.3897 	 13.7174 	 72.0376
|  9> C 	 39.5179 	 14.82 	 71.9639
| 10> C 	 40.2144 	 16.0908 	 71.7348
| 11> C 	 41.5842 	 15.9726 	 71.5379
| 12> H 	 39.6831 	 16.9977 	 71.5063
| 13> C 	 37.9908 	 14.708 	 72.0277
| 14> H 	 37.6517 	 15.7191 	 72.0769
| 15> H 	 37.6239 	 14.2671 	 73.0193
| 16> C 	 37.2883 	 13.9854 	 70.9038
| 17> H 	 37.4779 	 12.8813 	 70.9197
| 18> H 	 36.229 	 14.1257 	 70.9846
| 19> C 	 37.5415 	 14.6266 	 69.4983
| 20> H 	 37.5075 	 13.8089 	 68.6984
| 21> H 	 36.8618 	 15.4293 	 69.3183
| 22> H 	 38.5571 	 15.067 	 69.2788
| 23> S 	 41.9684 	 18.3611 	 70.2827
| 24> C 	 43.56 	 19.2204 	 70.4074
| 25> C 	 44.4327 	 18.4353 	 71.1921
| 26> C 	 43.8652 	 17.2182 	 71.7155
| 27> C 	 42.5439 	 17.0342 	 71.2854
| 28> H 	 45.4997 	 18.6657 	 71.332
| 29> C 	 44.6384 	 16.3242 	 72.6352
| 30> H 	 45.4718 	 16.0098 	 72.0763
| 31> H 	 44.1471 	 15.2996 	 72.6053
| 32> C 	 44.901 	 16.8058 	 74.0068
| 33> H 	 44.0143 	 16.9609 	 74.5348
| 34> H 	 45.3217 	 17.785 	 73.9237
| 35> C 	 45.9249 	 16.0083 	 74.7827
| 36> H 	 46.863 	 15.9081 	 74.2674
| 37> H 	 45.5386 	 15.0409 	 75.0157
| 38> H 	 46.1247 	 16.3843 	 75.8009
| 39> H 	 40.0309 	 12.71 	 72.2839
| 40> H 	 43.887 	 20.1518 	 69.9476
| 41> *
| 42>
| 43>                          ****END OF INPUT****

CARTESIAN COORDINATES (ANGSTROEM)
---------------------------------
  S     41.965200   14.216000   71.577200
  C     40.389700   13.717400   72.037600
  C     39.517900   14.820000   71.963900
  C     40.214400   16.090800   71.734800
  C     41.584200   15.972600   71.537900
  H     39.683100   16.997700   71.506300
  C     37.990800   14.708000   72.027700
  H     37.651700   15.719100   72.076900
  H     37.623900   14.267100   73.019300
  C     37.288300   13.985400   70.903800
  H     37.477900   12.881300   70.919700
  H     36.229000   14.125700   70.984600
  C     37.541500   14.626600   69.498300
  H     37.507500   13.808900   68.698400
  H     36.861800   15.429300   69.318300
  H     38.557100   15.067000   69.278800
  S     41.968400   18.361100   70.282700
  C     43.560000   19.220400   70.407400
  C     44.432700   18.435300   71.192100
  C     43.865200   17.218200   71.715500
  C     42.543900   17.034200   71.285400
  H     45.499700   18.665700   71.332000
  C     44.638400   16.324200   72.635200
  H     45.471800   16.009800   72.076300
  H     44.147100   15.299600   72.605300
  C     44.901000   16.805800   74.006800
  H     44.014300   16.960900   74.534800
  H     45.321700   17.785000   73.923700
  C     45.924900   16.008300   74.782700
  H     46.863000   15.908100   74.267400
  H     45.538600   15.040900   75.015700
  H     46.124700   16.384300   75.800900
  H     40.030900   12.710000   72.283900
  H     43.887000   20.151800   69.947600

 Total Charge           Charge          ....    0
 Multiplicity           Mult            ....    1
 Number of Electrons    NEL             ....  134
 Basis Dimension        Dim             ....  322

ORBITAL ENERGIES
----------------

  NO   OCC          E(Eh)            E(eV)
   0   2.0000     -88.971393     -2421.0347
   1   2.0000     -88.968689     -2420.9611
   2   2.0000     -10.336549      -281.2718
   3   2.0000     -10.333132      -281.1788
   4   2.0000     -10.329292      -281.0743
   5   2.0000     -10.317497      -280.7534
   6   2.0000     -10.306227      -280.4467
   7   2.0000     -10.305987      -280.4402
   8   2.0000     -10.302357      -280.3414
   9   2.0000     -10.298204      -280.2284
  10   2.0000     -10.293985      -280.1136
  11   2.0000     -10.289375      -279.9881
  12   2.0000     -10.283804      -279.8365
  13   2.0000     -10.280650      -279.7507
  14   2.0000     -10.273771      -279.5635
  15   2.0000     -10.272017      -279.5158
  16   2.0000      -8.084540      -219.9915
  17   2.0000      -8.082474      -219.9353
  18   2.0000      -6.043277      -164.4459
  19   2.0000      -6.041146      -164.3879
  20   2.0000      -6.039275      -164.3370
  21   2.0000      -6.036958      -164.2740
  22   2.0000      -6.035142      -164.2246
  23   2.0000      -6.033251      -164.1731
  24   2.0000      -1.000393       -27.2221
  25   2.0000      -0.976951       -26.5842
  26   2.0000      -0.917275       -24.9603
  27   2.0000      -0.906890       -24.6777
  28   2.0000      -0.869818       -23.6689
  29   2.0000      -0.852646       -23.2017
  30   2.0000      -0.838926       -22.8283
  31   2.0000      -0.811173       -22.0731
  32   2.0000      -0.781961       -21.2782
  33   2.0000      -0.769007       -20.9257
  34   2.0000      -0.712113       -19.3776
  35   2.0000      -0.699794       -19.0424
  36   2.0000      -0.698934       -19.0190
  37   2.0000      -0.664784       -18.0897
  38   2.0000      -0.636967       -17.3328
  39   2.0000      -0.607873       -16.5411
  40   2.0000      -0.593833       -16.1590
  41   2.0000      -0.572709       -15.5842
  42   2.0000      -0.566943       -15.4273
  43   2.0000      -0.547440       -14.8966
  44   2.0000      -0.537577       -14.6282
  45   2.0000      -0.529939       -14.4204
  46   2.0000      -0.518285       -14.1032
  47   2.0000      -0.512700       -13.9513
  48   2.0000      -0.510785       -13.8992
  49   2.0000      -0.498065       -13.5530
  50   2.0000      -0.492059       -13.3896
  51   2.0000      -0.477509       -12.9937
  52   2.0000      -0.467232       -12.7140
  53   2.0000      -0.460841       -12.5401
  54   2.0000      -0.456440       -12.4204
  55   2.0000      -0.451169       -12.2769
  56   2.0000      -0.441090       -12.0027
  57   2.0000      -0.437440       -11.9033
  58   2.0000      -0.426829       -11.6146
  59   2.0000      -0.423324       -11.5192
  60   2.0000      -0.419418       -11.4130
  61   2.0000      -0.412486       -11.2243
  62   2.0000      -0.401762       -10.9325
  63   2.0000      -0.353483        -9.6188
  64   2.0000      -0.333190        -9.0666
  65   2.0000      -0.324237        -8.8230
  66   2.0000      -0.287549        -7.8246
  67   0.0000       0.018496         0.5033
  68   0.0000       0.072703         1.9784
  69   0.0000       0.101284         2.7561
  70   0.0000       0.114752         3.1226
  71   0.0000       0.122470         3.3326

MULLIKEN ATOMIC CHARGES
-----------------------
   0 S :    0.111376
   1 C :   -0.116137
   2 C :   -0.125258
   3 C :    0.018950
   4 C :   -0.127771
   5 H :    0.018885
   6 C :    0.061920
   7 H :    0.003910
   8 H :    0.042800
   9 C :   -0.051547
  10 H :    0.038151
  11 H :    0.030804
  12 C :   -0.105480
  13 H :    0.041440
  14 H :    0.032395
  15 H :    0.045900
  16 S :    0.097720
  17 C :   -0.092113
  18 C :   -0.043150
  19 C :   -0.067744
  20 C :   -0.139206
  21 H :    0.032169
  22 C :    0.080358
  23 H :    0.005476
  24 H :    0.007332
  25 C :    0.000447
  26 H :    0.018620
  27 H :    0.007850
  28 C :   -0.028571
  29 H :    0.027538
  30 H :    0.017746
  31 H :    0.029107
  32 H :    0.060083
  33 H :    0.066001
Sum of atomic charges:    0.0000000

LOEWDIN ATOMIC CHARGES
----------------------
   0 S :    0.416342
   1 C :   -0.212015
   2 C :   -0.063714
   3 C :   -0.069731
   4 C :   -0.180332
   5 H :    0.025449
   6 C :   -0.040029
   7 H :    0.023712
   8 H :    0.039694
   9 C :   -0.043867
  10 H :    0.026302
  11 H :    0.026965
  12 C :   -0.078148
  13 H :    0.035515
  14 H :    0.018885
  15 H :    0.030247
  16 S :    0.388498
  17 C :   -0.175053
  18 C :   -0.065728
  19 C :   -0.054294
  20 C :   -0.190937
  21 H :    0.034891
  22 C :   -0.043552
  23 H :    0.026810
  24 H :    0.024913
  25 C :   -0.034354
  26 H :    0.023359
  27 H :    0.021799
  28 C :   -0.058857
  29 H :    0.023155
  30 H :    0.020384
  31 H :    0.030372
  32 H :    0.037798
  33 H :    0.035522

  Mayer bond orders larger than 0.100000
B(  0-S ,  1-C ) :   1.1531 B(  0-S ,  4-C ) :   1.1376 B(  1-C ,  2-C ) :   1.5799
B(  1-C , 32-H ) :   0.9696 B(  2-C ,  3-C ) :   1.2658 B(  2-C ,  6-C ) :   1.0249
B(  3-C ,  4-C ) :   1.5523 B(  3-C ,  5-H ) :   0.9822 B(  4-C , 20-C ) :   1.0762
B(  6-C ,  7-H ) :   0.9378 B(  6-C ,  8-H ) :   0.9385 B(  6-C ,  9-C ) :   1.0821
B(  9-C , 10-H ) :   0.9605 B(  9-C , 11-H ) :   0.9562 B(  9-C , 12-C ) :   1.0493
B( 12-C , 13-H ) :   0.9759 B( 12-C , 14-H ) :   0.9811 B( 12-C , 15-H ) :   0.9801
B( 16-S , 17-C ) :   1.1312 B( 16-S , 20-C ) :   1.1331 B( 17-C , 18-C ) :   1.6084
B( 17-C , 33-H ) :   0.9686 B( 18-C , 19-C ) :   1.2483 B( 18-C , 21-H ) :   0.9776
B( 19-C , 20-C ) :   1.5712 B( 19-C , 22-C ) :   1.0499 B( 22-C , 23-H ) :   0.9181
B( 22-C , 24-H ) :   0.9085 B( 22-C , 25-C ) :   1.0618 B( 25-C , 26-H ) :   0.9471
B( 25-C , 27-H ) :   0.9508 B( 25-C , 28-C ) :   1.0911 B( 28-C , 29-H ) :   0.9742
B( 28-C , 30-H ) :   0.9731 B( 28-C , 31-H ) :   0.9714

Dispersion correction           -0.014180978
FINAL SINGLE POINT ENERGY     -1339.868650630855

DIPOLE MOMENT
-------------
                                X             Y             Z
Electronic contribution:      3.46246       6.20389      -7.72575
Nuclear contribution   :     -3.47964      -6.20830       7.88994
                        -----------------------------------------
Total Dipole Moment    :     -0.01718      -0.00442       0.16420
                        -----------------------------------------
Magnitude (a.u.)       :      0.16515
Magnitude (Debye)      :      0.41978

Rotational constants in cm-1:     0.021619     0.007989     0.006301
Rotational constants in MHz :   648.116063   239.493309   188.889414

                             ****ORCA TERMINATED NORMALLY****
TOTAL RUN TIME: 0 days 0 hours 0 minutes 27 seconds 923 msec
