                         Program Version 4.2.1 -  RELEASE  -
|  1> ! wB97X-D3 SP def2-SVP
|  2> %pal
|  3> nprocs 16
|  4> end
|  5>
|  6> * xyz 0 1
|  7> S 	 -110.547 	 55.8116 	 115.242
|  8> C 	 -110.577 	 55.3762 	 113.547
|  9> C 	 -109.433 	 54.6674 	 113.141
| 10> C 	 -108.467 	 54.5556 	 114.229
| 11> C 	 -108.974 	 54.9701 	 115.459
| 12> H 	 -107.427 	 54.2498 	 114.238
| 13> C 	 -109.075 	 54.322 	 111.684
| 14> H 	 -108.784 	 55.2753 	 111.294
| 15> H 	 -109.971 	 54.0723 	 111.101
| 16> C 	 -107.993 	 53.2846 	 111.404
| 17> H 	 -107.845 	 53.253 	 110.364
| 18> H 	 -107.132 	 53.6762 	 111.951
| 19> C 	 -108.358 	 51.846 	 111.838
| 20> H 	 -108.213 	 51.7636 	 112.903
| 21> H 	 -109.361 	 51.5762 	 111.59
| 22> H 	 -107.547 	 51.147 	 111.492
| 23> S 	 -108.148 	 56.5086 	 117.506
| 24> C 	 -106.827 	 55.9658 	 118.566
| 25> C 	 -106.587 	 54.6321 	 118.341
| 26> C 	 -107.286 	 54.0333 	 117.264
| 27> C 	 -108.133 	 54.976 	 116.687
| 28> H 	 -105.906 	 54.2109 	 119.092
| 29> C 	 -107.05 	 52.6192 	 116.838
| 30> H 	 -106.04 	 52.4456 	 116.974
| 31> H 	 -107.279 	 52.513 	 115.847
| 32> C 	 -107.826 	 51.5364 	 117.577
| 33> H 	 -107.651 	 51.4382 	 118.674
| 34> H 	 -107.511 	 50.5849 	 117.31
| 35> C 	 -109.337 	 51.6042 	 117.291
| 36> H 	 -109.529 	 51.8641 	 116.215
| 37> H 	 -109.801 	 52.4607 	 117.779
| 38> H 	 -109.852 	 50.68 	 117.388
| 39> H 	 -111.344 	 55.6909 	 112.851
| 40> H 	 -106.366 	 56.5867 	 119.298
| 41> *
| 42>
| 43>                          ****END OF INPUT****

CARTESIAN COORDINATES (ANGSTROEM)
---------------------------------
  S    -110.547000   55.811600  115.242000
  C    -110.577000   55.376200  113.547000
  C    -109.433000   54.667400  113.141000
  C    -108.467000   54.555600  114.229000
  C    -108.974000   54.970100  115.459000
  H    -107.427000   54.249800  114.238000
  C    -109.075000   54.322000  111.684000
  H    -108.784000   55.275300  111.294000
  H    -109.971000   54.072300  111.101000
  C    -107.993000   53.284600  111.404000
  H    -107.845000   53.253000  110.364000
  H    -107.132000   53.676200  111.951000
  C    -108.358000   51.846000  111.838000
  H    -108.213000   51.763600  112.903000
  H    -109.361000   51.576200  111.590000
  H    -107.547000   51.147000  111.492000
  S    -108.148000   56.508600  117.506000
  C    -106.827000   55.965800  118.566000
  C    -106.587000   54.632100  118.341000
  C    -107.286000   54.033300  117.264000
  C    -108.133000   54.976000  116.687000
  H    -105.906000   54.210900  119.092000
  C    -107.050000   52.619200  116.838000
  H    -106.040000   52.445600  116.974000
  H    -107.279000   52.513000  115.847000
  C    -107.826000   51.536400  117.577000
  H    -107.651000   51.438200  118.674000
  H    -107.511000   50.584900  117.310000
  C    -109.337000   51.604200  117.291000
  H    -109.529000   51.864100  116.215000
  H    -109.801000   52.460700  117.779000
  H    -109.852000   50.680000  117.388000
  H    -111.344000   55.690900  112.851000
  H    -106.366000   56.586700  119.298000

 Total Charge           Charge          ....    0
 Multiplicity           Mult            ....    1
 Number of Electrons    NEL             ....  134
 Basis Dimension        Dim             ....  322

ORBITAL ENERGIES
----------------

  NO   OCC          E(Eh)            E(eV)
   0   2.0000     -88.970318     -2421.0054
   1   2.0000     -88.963068     -2420.8081
   2   2.0000     -10.334790      -281.2239
   3   2.0000     -10.330506      -281.1073
   4   2.0000     -10.316233      -280.7190
   5   2.0000     -10.315102      -280.6882
   6   2.0000     -10.310224      -280.5555
   7   2.0000     -10.305212      -280.4191
   8   2.0000     -10.297831      -280.2182
   9   2.0000     -10.294245      -280.1207
  10   2.0000     -10.291490      -280.0457
  11   2.0000     -10.285144      -279.8730
  12   2.0000     -10.280287      -279.7408
  13   2.0000     -10.279993      -279.7328
  14   2.0000     -10.278210      -279.6843
  15   2.0000     -10.268244      -279.4131
  16   2.0000      -8.083848      -219.9727
  17   2.0000      -8.077929      -219.8116
  18   2.0000      -6.042532      -164.4257
  19   2.0000      -6.038603      -164.3187
  20   2.0000      -6.036354      -164.2575
  21   2.0000      -6.034426      -164.2051
  22   2.0000      -6.032509      -164.1529
  23   2.0000      -6.028675      -164.0486
  24   2.0000      -1.003419       -27.3044
  25   2.0000      -0.978047       -26.6140
  26   2.0000      -0.914709       -24.8905
  27   2.0000      -0.910566       -24.7778
  28   2.0000      -0.868137       -23.6232
  29   2.0000      -0.849562       -23.1177
  30   2.0000      -0.841683       -22.9034
  31   2.0000      -0.815171       -22.1819
  32   2.0000      -0.785071       -21.3629
  33   2.0000      -0.775604       -21.1053
  34   2.0000      -0.709497       -19.3064
  35   2.0000      -0.701468       -19.0879
  36   2.0000      -0.692828       -18.8528
  37   2.0000      -0.659885       -17.9564
  38   2.0000      -0.638880       -17.3848
  39   2.0000      -0.621440       -16.9102
  40   2.0000      -0.599962       -16.3258
  41   2.0000      -0.568133       -15.4597
  42   2.0000      -0.561216       -15.2715
  43   2.0000      -0.550693       -14.9851
  44   2.0000      -0.542334       -14.7577
  45   2.0000      -0.538359       -14.6495
  46   2.0000      -0.516637       -14.0584
  47   2.0000      -0.509890       -13.8748
  48   2.0000      -0.502398       -13.6709
  49   2.0000      -0.494120       -13.4457
  50   2.0000      -0.489175       -13.3111
  51   2.0000      -0.485660       -13.2155
  52   2.0000      -0.475231       -12.9317
  53   2.0000      -0.461001       -12.5445
  54   2.0000      -0.455975       -12.4077
  55   2.0000      -0.443539       -12.0693
  56   2.0000      -0.440218       -11.9789
  57   2.0000      -0.437666       -11.9095
  58   2.0000      -0.434091       -11.8122
  59   2.0000      -0.427348       -11.6287
  60   2.0000      -0.425318       -11.5735
  61   2.0000      -0.417415       -11.3584
  62   2.0000      -0.409895       -11.1538
  63   2.0000      -0.351010        -9.5515
  64   2.0000      -0.332356        -9.0439
  65   2.0000      -0.324847        -8.8395
  66   2.0000      -0.287442        -7.8217
  67   0.0000       0.026237         0.7139
  68   0.0000       0.071602         1.9484
  69   0.0000       0.103983         2.8295
  70   0.0000       0.117139         3.1875
  71   0.0000       0.131684         3.5833

MULLIKEN ATOMIC CHARGES
-----------------------
   0 S :    0.110363
   1 C :   -0.126465
   2 C :   -0.067092
   3 C :   -0.014399
   4 C :   -0.126902
   5 H :    0.032694
   6 C :    0.041478
   7 H :    0.037788
   8 H :    0.020711
   9 C :   -0.053790
  10 H :    0.025198
  11 H :    0.028664
  12 C :   -0.043426
  13 H :    0.021697
  14 H :    0.037358
  15 H :    0.038177
  16 S :    0.091755
  17 C :   -0.096923
  18 C :   -0.049530
  19 C :   -0.043983
  20 C :   -0.172861
  21 H :    0.026370
  22 C :    0.184317
  23 H :    0.001763
  24 H :   -0.017310
  25 C :   -0.041915
  26 H :    0.023550
  27 H :    0.000065
  28 C :   -0.064268
  29 H :    0.023371
  30 H :    0.044634
  31 H :    0.029706
  32 H :    0.051016
  33 H :    0.048190
Sum of atomic charges:    0.0000000

LOEWDIN ATOMIC CHARGES
----------------------
   0 S :    0.385052
   1 C :   -0.202800
   2 C :   -0.055665
   3 C :   -0.068193
   4 C :   -0.182125
   5 H :    0.032486
   6 C :   -0.034877
   7 H :    0.034124
   8 H :    0.028210
   9 C :   -0.036576
  10 H :    0.021274
  11 H :    0.024715
  12 C :   -0.064439
  13 H :    0.021877
  14 H :    0.022979
  15 H :    0.034466
  16 S :    0.394402
  17 C :   -0.173832
  18 C :   -0.070082
  19 C :   -0.057902
  20 C :   -0.189420
  21 H :    0.037097
  22 C :   -0.014062
  23 H :    0.025662
  24 H :    0.018254
  25 C :   -0.034508
  26 H :    0.026760
  27 H :    0.014047
  28 C :   -0.069254
  29 H :    0.030005
  30 H :    0.028122
  31 H :    0.021138
  32 H :    0.029166
  33 H :    0.023899

  Mayer bond orders larger than 0.100000
B(  0-S ,  1-C ) :   1.1296 B(  0-S ,  4-C ) :   1.1339 B(  1-C ,  2-C ) :   1.6263
B(  1-C , 32-H ) :   0.9687 B(  2-C ,  3-C ) :   1.2103 B(  2-C ,  6-C ) :   1.0062
B(  3-C ,  4-C ) :   1.6022 B(  3-C ,  5-H ) :   0.9796 B(  4-C , 20-C ) :   1.0336
B(  6-C ,  7-H ) :   0.9384 B(  6-C ,  8-H ) :   0.9404 B(  6-C ,  9-C ) :   1.0904
B(  9-C , 10-H ) :   0.9527 B(  9-C , 11-H ) :   0.9490 B(  9-C , 12-C ) :   1.0791
B( 12-C , 13-H ) :   0.9742 B( 12-C , 14-H ) :   0.9760 B( 12-C , 15-H ) :   0.9728
B( 16-S , 17-C ) :   1.1363 B( 16-S , 20-C ) :   1.1551 B( 17-C , 18-C ) :   1.6309
B( 17-C , 33-H ) :   0.9744 B( 18-C , 19-C ) :   1.2166 B( 18-C , 21-H ) :   0.9876
B( 19-C , 20-C ) :   1.5838 B( 19-C , 22-C ) :   1.0467 B( 22-C , 23-H ) :   0.9156
B( 22-C , 24-H ) :   0.9214 B( 22-C , 25-C ) :   1.0901 B( 25-C , 26-H ) :   0.9526
B( 25-C , 27-H ) :   0.9501 B( 25-C , 28-C ) :   1.0699 B( 28-C , 29-H ) :   0.9721
B( 28-C , 30-H ) :   0.9759 B( 28-C , 31-H ) :   0.9749

Dispersion correction           -0.015367605
FINAL SINGLE POINT ENERGY     -1339.866209534240

DIPOLE MOMENT
-------------
                                X             Y             Z
Electronic contribution:     -5.48568      23.85947      11.95385
Nuclear contribution   :      5.95338     -24.24595     -12.28848
                        -----------------------------------------
Total Dipole Moment    :      0.46770      -0.38649      -0.33463
                        -----------------------------------------
Magnitude (a.u.)       :      0.69289
Magnitude (Debye)      :      1.76117

Rotational constants in cm-1:     0.017896     0.009869     0.007751
Rotational constants in MHz :   536.516271   295.858637   232.362566

                             ****ORCA TERMINATED NORMALLY****
TOTAL RUN TIME: 0 days 0 hours 0 minutes 35 seconds 733 msec
