                         Program Version 4.2.1 -  RELEASE  -
|  1> ! wB97X-D3 SP def2-SVP
|  2> %pal
|  3> nprocs 16
|  4> end
|  5>
|  6> * xyz 0 1
|  7> S 	 8.89937 	 -17.2509 	 91.2008
|  8> C 	 9.57476 	 -17.2324 	 89.5618
|  9> C 	 9.71664 	 -15.9317 	 89.1393
| 10> C 	 9.35665 	 -14.9919 	 90.1517
| 11> C 	 8.74606 	 -15.5598 	 91.2595
| 12> H 	 9.42453 	 -13.9116 	 90.1052
| 13> C 	 10.5291 	 -15.4999 	 87.882
| 14> H 	 10.3692 	 -16.1723 	 87.0028
| 15> H 	 11.5515 	 -15.6972 	 88.0513
| 16> C 	 10.3482 	 -14.0988 	 87.4563
| 17> H 	 9.37413 	 -13.86 	 87.0811
| 18> H 	 10.4687 	 -13.4324 	 88.3204
| 19> C 	 11.3705 	 -13.5819 	 86.4717
| 20> H 	 11.1845 	 -12.462 	 86.4547
| 21> H 	 12.4215 	 -13.7888 	 86.6884
| 22> H 	 11.205 	 -13.9903 	 85.4529
| 23> S 	 8.58381 	 -15.2843 	 93.8896
| 24> C 	 7.7195 	 -13.8573 	 94.5794
| 25> C 	 7.22056 	 -13.0571 	 93.5728
| 26> C 	 7.30339 	 -13.6637 	 92.2753
| 27> C 	 8.01785 	 -14.8353 	 92.2881
| 28> H 	 6.84546 	 -12.1403 	 93.7545
| 29> C 	 6.98684 	 -12.9388 	 91.014
| 30> H 	 5.95873 	 -12.7413 	 91.0647
| 31> H 	 7.24538 	 -13.5211 	 90.1759
| 32> C 	 7.65298 	 -11.5663 	 90.8574
| 33> H 	 8.68215 	 -11.6218 	 91.2268
| 34> H 	 7.10764 	 -10.98 	 91.5994
| 35> C 	 7.65922 	 -10.8964 	 89.4197
| 36> H 	 6.66817 	 -10.7015 	 89.051
| 37> H 	 8.27412 	 -11.5197 	 88.784
| 38> H 	 8.09378 	 -9.89657 	 89.2857
| 39> H 	 9.81481 	 -18.1017 	 89.0238
| 40> H 	 7.72031 	 -13.5737 	 95.5784
| 41> *
| 42>
| 43>                          ****END OF INPUT****

CARTESIAN COORDINATES (ANGSTROEM)
---------------------------------
  S      8.899370  -17.250900   91.200800
  C      9.574760  -17.232400   89.561800
  C      9.716640  -15.931700   89.139300
  C      9.356650  -14.991900   90.151700
  C      8.746060  -15.559800   91.259500
  H      9.424530  -13.911600   90.105200
  C     10.529100  -15.499900   87.882000
  H     10.369200  -16.172300   87.002800
  H     11.551500  -15.697200   88.051300
  C     10.348200  -14.098800   87.456300
  H      9.374130  -13.860000   87.081100
  H     10.468700  -13.432400   88.320400
  C     11.370500  -13.581900   86.471700
  H     11.184500  -12.462000   86.454700
  H     12.421500  -13.788800   86.688400
  H     11.205000  -13.990300   85.452900
  S      8.583810  -15.284300   93.889600
  C      7.719500  -13.857300   94.579400
  C      7.220560  -13.057100   93.572800
  C      7.303390  -13.663700   92.275300
  C      8.017850  -14.835300   92.288100
  H      6.845460  -12.140300   93.754500
  C      6.986840  -12.938800   91.014000
  H      5.958730  -12.741300   91.064700
  H      7.245380  -13.521100   90.175900
  C      7.652980  -11.566300   90.857400
  H      8.682150  -11.621800   91.226800
  H      7.107640  -10.980000   91.599400
  C      7.659220  -10.896400   89.419700
  H      6.668170  -10.701500   89.051000
  H      8.274120  -11.519700   88.784000
  H      8.093780   -9.896570   89.285700
  H      9.814810  -18.101700   89.023800
  H      7.720310  -13.573700   95.578400

 Total Charge           Charge          ....    0
 Multiplicity           Mult            ....    1
 Number of Electrons    NEL             ....  134
 Basis Dimension        Dim             ....  322

ORBITAL ENERGIES
----------------

  NO   OCC          E(Eh)            E(eV)
   0   2.0000     -88.965141     -2420.8646
   1   2.0000     -88.964152     -2420.8376
   2   2.0000     -10.325591      -280.9736
   3   2.0000     -10.325270      -280.9649
   4   2.0000     -10.319481      -280.8073
   5   2.0000     -10.312301      -280.6120
   6   2.0000     -10.304614      -280.4028
   7   2.0000     -10.302479      -280.3447
   8   2.0000     -10.293020      -280.0873
   9   2.0000     -10.291511      -280.0463
  10   2.0000     -10.291431      -280.0441
  11   2.0000     -10.291366      -280.0423
  12   2.0000     -10.285935      -279.8945
  13   2.0000     -10.285020      -279.8696
  14   2.0000     -10.281602      -279.7766
  15   2.0000     -10.280260      -279.7401
  16   2.0000      -8.080541      -219.8827
  17   2.0000      -8.078315      -219.8221
  18   2.0000      -6.038986      -164.3292
  19   2.0000      -6.036963      -164.2741
  20   2.0000      -6.034892      -164.2178
  21   2.0000      -6.032991      -164.1660
  22   2.0000      -6.031388      -164.1224
  23   2.0000      -6.028858      -164.0536
  24   2.0000      -1.011255       -27.5177
  25   2.0000      -0.984391       -26.7866
  26   2.0000      -0.920624       -25.0515
  27   2.0000      -0.911299       -24.7977
  28   2.0000      -0.876120       -23.8404
  29   2.0000      -0.849890       -23.1267
  30   2.0000      -0.844295       -22.9744
  31   2.0000      -0.818009       -22.2592
  32   2.0000      -0.786127       -21.3916
  33   2.0000      -0.778999       -21.1976
  34   2.0000      -0.713309       -19.4101
  35   2.0000      -0.705044       -19.1852
  36   2.0000      -0.694675       -18.9031
  37   2.0000      -0.670948       -18.2574
  38   2.0000      -0.648086       -17.6353
  39   2.0000      -0.622715       -16.9449
  40   2.0000      -0.599151       -16.3037
  41   2.0000      -0.578574       -15.7438
  42   2.0000      -0.571575       -15.5533
  43   2.0000      -0.567761       -15.4496
  44   2.0000      -0.534839       -14.5537
  45   2.0000      -0.525143       -14.2899
  46   2.0000      -0.518893       -14.1198
  47   2.0000      -0.513809       -13.9815
  48   2.0000      -0.506016       -13.7694
  49   2.0000      -0.502586       -13.6761
  50   2.0000      -0.492349       -13.3975
  51   2.0000      -0.489611       -13.3230
  52   2.0000      -0.474980       -12.9249
  53   2.0000      -0.466830       -12.7031
  54   2.0000      -0.464474       -12.6390
  55   2.0000      -0.449462       -12.2305
  56   2.0000      -0.448445       -12.2028
  57   2.0000      -0.444443       -12.0939
  58   2.0000      -0.436331       -11.8732
  59   2.0000      -0.421277       -11.4635
  60   2.0000      -0.417843       -11.3701
  61   2.0000      -0.415335       -11.3018
  62   2.0000      -0.411007       -11.1841
  63   2.0000      -0.349883        -9.5208
  64   2.0000      -0.331379        -9.0173
  65   2.0000      -0.328622        -8.9423
  66   2.0000      -0.292525        -7.9600
  67   0.0000       0.026005         0.7076
  68   0.0000       0.070483         1.9180
  69   0.0000       0.096836         2.6350
  70   0.0000       0.121239         3.2991
  71   0.0000       0.125810         3.4235

MULLIKEN ATOMIC CHARGES
-----------------------
   0 S :    0.112651
   1 C :   -0.111702
   2 C :   -0.041146
   3 C :    0.000844
   4 C :   -0.142945
   5 H :    0.004948
   6 C :    0.082852
   7 H :    0.020591
   8 H :    0.022447
   9 C :   -0.098164
  10 H :    0.029808
  11 H :    0.030442
  12 C :   -0.069988
  13 H :    0.041883
  14 H :    0.034768
  15 H :    0.032225
  16 S :    0.079689
  17 C :   -0.050459
  18 C :   -0.002447
  19 C :   -0.061146
  20 C :   -0.109852
  21 H :   -0.023578
  22 C :    0.121423
  23 H :    0.013903
  24 H :    0.014054
  25 C :   -0.116811
  26 H :    0.037024
  27 H :    0.023658
  28 C :   -0.032337
  29 H :    0.029847
  30 H :    0.027871
  31 H :    0.033179
  32 H :    0.031998
  33 H :    0.034470
Sum of atomic charges:    0.0000000

LOEWDIN ATOMIC CHARGES
----------------------
   0 S :    0.420212
   1 C :   -0.181858
   2 C :   -0.057003
   3 C :   -0.071709
   4 C :   -0.213381
   5 H :    0.026896
   6 C :   -0.031607
   7 H :    0.033991
   8 H :    0.028226
   9 C :   -0.050815
  10 H :    0.023414
  11 H :    0.023416
  12 C :   -0.065810
  13 H :    0.035965
  14 H :    0.023202
  15 H :    0.023914
  16 S :    0.378096
  17 C :   -0.147822
  18 C :   -0.047696
  19 C :   -0.050565
  20 C :   -0.184584
  21 H :    0.011790
  22 C :   -0.025549
  23 H :    0.027053
  24 H :    0.020978
  25 C :   -0.038508
  26 H :    0.021754
  27 H :    0.019503
  28 C :   -0.066729
  29 H :    0.024063
  30 H :    0.023386
  31 H :    0.032256
  32 H :    0.019536
  33 H :    0.015987

  Mayer bond orders larger than 0.100000
B(  0-S ,  1-C ) :   1.1356 B(  0-S ,  4-C ) :   1.1722 B(  1-C ,  2-C ) :   1.5966
B(  1-C ,  4-C ) :   0.1017 B(  1-C , 32-H ) :   0.9842 B(  2-C ,  3-C ) :   1.2499
B(  2-C ,  6-C ) :   1.0079 B(  3-C ,  4-C ) :   1.5553 B(  3-C ,  5-H ) :   0.9871
B(  4-C , 20-C ) :   1.0077 B(  6-C ,  7-H ) :   0.9367 B(  6-C ,  8-H ) :   0.9396
B(  6-C ,  9-C ) :   1.0804 B(  9-C , 10-H ) :   0.9528 B(  9-C , 11-H ) :   0.9430
B(  9-C , 12-C ) :   1.0887 B( 12-C , 13-H ) :   0.9748 B( 12-C , 14-H ) :   0.9744
B( 12-C , 15-H ) :   0.9731 B( 16-S , 17-C ) :   1.1342 B( 16-S , 20-C ) :   1.1297
B( 17-C , 18-C ) :   1.6327 B( 17-C , 33-H ) :   0.9775 B( 18-C , 19-C ) :   1.2021
B( 18-C , 21-H ) :   1.0081 B( 19-C , 20-C ) :   1.6335 B( 19-C , 22-C ) :   1.0652
B( 22-C , 23-H ) :   0.9111 B( 22-C , 24-H ) :   0.9394 B( 22-C , 25-C ) :   1.0488
B( 25-C , 26-H ) :   0.9624 B( 25-C , 27-H ) :   0.9527 B( 25-C , 28-C ) :   1.0743
B( 28-C , 29-H ) :   0.9758 B( 28-C , 30-H ) :   0.9756 B( 28-C , 31-H ) :   0.9743

Dispersion correction           -0.014819057
FINAL SINGLE POINT ENERGY     -1339.859304374839

DIPOLE MOMENT
-------------
                                X             Y             Z
Electronic contribution:     -4.40660     -22.68004      25.26783
Nuclear contribution   :      4.55056      23.37247     -25.73596
                        -----------------------------------------
Total Dipole Moment    :      0.14396       0.69242      -0.46812
                        -----------------------------------------
Magnitude (a.u.)       :      0.84812
Magnitude (Debye)      :      2.15576

Rotational constants in cm-1:     0.016880     0.010322     0.006856
Rotational constants in MHz :   506.037303   309.459466   205.537538

                             ****ORCA TERMINATED NORMALLY****
TOTAL RUN TIME: 0 days 0 hours 0 minutes 36 seconds 35 msec
