                         Program Version 4.2.1 -  RELEASE  -
|  1> ! wB97X-D3 SP def2-SVP
|  2> %pal
|  3> nprocs 16
|  4> end
|  5>
|  6> * xyz 0 1
|  7> S 	 -31.1485 	 67.2822 	 109.953
|  8> C 	 -32.3728 	 67.7848 	 108.793
|  9> C 	 -32.016 	 67.4225 	 107.493
| 10> C 	 -30.8712 	 66.5806 	 107.501
| 11> C 	 -30.3062 	 66.3471 	 108.756
| 12> H 	 -30.3144 	 66.2413 	 106.655
| 13> C 	 -32.7346 	 67.7725 	 106.199
| 14> H 	 -31.9308 	 68.2553 	 105.604
| 15> H 	 -33.4527 	 68.6311 	 106.324
| 16> C 	 -33.2333 	 66.519 	 105.478
| 17> H 	 -33.7454 	 66.985 	 104.739
| 18> H 	 -32.3699 	 65.9857 	 105.07
| 19> C 	 -34.1853 	 65.6971 	 106.333
| 20> H 	 -33.5498 	 65.0633 	 106.976
| 21> H 	 -34.7893 	 66.3351 	 106.956
| 22> H 	 -34.7106 	 65.0923 	 105.595
| 23> S 	 -27.6432 	 66.5243 	 109.432
| 24> C 	 -26.6503 	 65.0702 	 109.435
| 25> C 	 -27.4354 	 63.9323 	 109.266
| 26> C 	 -28.8156 	 64.2999 	 108.936
| 27> C 	 -29.0746 	 65.6236 	 109.071
| 28> H 	 -26.9939 	 62.9231 	 109.218
| 29> C 	 -29.8553 	 63.2649 	 108.508
| 30> H 	 -30.7237 	 63.967 	 108.282
| 31> H 	 -30.1337 	 62.6645 	 109.375
| 32> C 	 -29.4899 	 62.3954 	 107.289
| 33> H 	 -30.4358 	 61.8006 	 107.289
| 34> H 	 -28.6931 	 61.698 	 107.537
| 35> C 	 -29.3044 	 63.145 	 106.007
| 36> H 	 -30.0696 	 63.8572 	 105.897
| 37> H 	 -29.1488 	 62.4227 	 105.199
| 38> H 	 -28.4204 	 63.7699 	 106.036
| 39> H 	 -33.3585 	 68.1915 	 108.991
| 40> H 	 -25.6988 	 64.9567 	 109.759
| 41> *
| 42>
| 43>                          ****END OF INPUT****

CARTESIAN COORDINATES (ANGSTROEM)
---------------------------------
  S    -31.148500   67.282200  109.953000
  C    -32.372800   67.784800  108.793000
  C    -32.016000   67.422500  107.493000
  C    -30.871200   66.580600  107.501000
  C    -30.306200   66.347100  108.756000
  H    -30.314400   66.241300  106.655000
  C    -32.734600   67.772500  106.199000
  H    -31.930800   68.255300  105.604000
  H    -33.452700   68.631100  106.324000
  C    -33.233300   66.519000  105.478000
  H    -33.745400   66.985000  104.739000
  H    -32.369900   65.985700  105.070000
  C    -34.185300   65.697100  106.333000
  H    -33.549800   65.063300  106.976000
  H    -34.789300   66.335100  106.956000
  H    -34.710600   65.092300  105.595000
  S    -27.643200   66.524300  109.432000
  C    -26.650300   65.070200  109.435000
  C    -27.435400   63.932300  109.266000
  C    -28.815600   64.299900  108.936000
  C    -29.074600   65.623600  109.071000
  H    -26.993900   62.923100  109.218000
  C    -29.855300   63.264900  108.508000
  H    -30.723700   63.967000  108.282000
  H    -30.133700   62.664500  109.375000
  C    -29.489900   62.395400  107.289000
  H    -30.435800   61.800600  107.289000
  H    -28.693100   61.698000  107.537000
  C    -29.304400   63.145000  106.007000
  H    -30.069600   63.857200  105.897000
  H    -29.148800   62.422700  105.199000
  H    -28.420400   63.769900  106.036000
  H    -33.358500   68.191500  108.991000
  H    -25.698800   64.956700  109.759000

 Total Charge           Charge          ....    0
 Multiplicity           Mult            ....    1
 Number of Electrons    NEL             ....  134
 Basis Dimension        Dim             ....  322

ORBITAL ENERGIES
----------------

  NO   OCC          E(Eh)            E(eV)
   0   2.0000     -88.966982     -2420.9146
   1   2.0000     -88.964243     -2420.8401
   2   2.0000     -10.330209      -281.0993
   3   2.0000     -10.320533      -280.8360
   4   2.0000     -10.314632      -280.6754
   5   2.0000     -10.312677      -280.6222
   6   2.0000     -10.301262      -280.3116
   7   2.0000     -10.298967      -280.2491
   8   2.0000     -10.298524      -280.2371
   9   2.0000     -10.297260      -280.2027
  10   2.0000     -10.293161      -280.0912
  11   2.0000     -10.290231      -280.0114
  12   2.0000     -10.286792      -279.9178
  13   2.0000     -10.278500      -279.6922
  14   2.0000     -10.277141      -279.6552
  15   2.0000     -10.272754      -279.5359
  16   2.0000      -8.081593      -219.9113
  17   2.0000      -8.079193      -219.8460
  18   2.0000      -6.040056      -164.3583
  19   2.0000      -6.037894      -164.2994
  20   2.0000      -6.036053      -164.2494
  21   2.0000      -6.033656      -164.1841
  22   2.0000      -6.032465      -164.1517
  23   2.0000      -6.029741      -164.0776
  24   2.0000      -1.007453       -27.4142
  25   2.0000      -0.983370       -26.7589
  26   2.0000      -0.918997       -25.0072
  27   2.0000      -0.909459       -24.7476
  28   2.0000      -0.870372       -23.6840
  29   2.0000      -0.849247       -23.1092
  30   2.0000      -0.844420       -22.9778
  31   2.0000      -0.814849       -22.1732
  32   2.0000      -0.785023       -21.3616
  33   2.0000      -0.776525       -21.1303
  34   2.0000      -0.709769       -19.3138
  35   2.0000      -0.698663       -19.0116
  36   2.0000      -0.696065       -18.9409
  37   2.0000      -0.657076       -17.8799
  38   2.0000      -0.640128       -17.4188
  39   2.0000      -0.620943       -16.8967
  40   2.0000      -0.590097       -16.0574
  41   2.0000      -0.572206       -15.5705
  42   2.0000      -0.557919       -15.1818
  43   2.0000      -0.556091       -15.1320
  44   2.0000      -0.546611       -14.8740
  45   2.0000      -0.537006       -14.6127
  46   2.0000      -0.524894       -14.2831
  47   2.0000      -0.514586       -14.0026
  48   2.0000      -0.504506       -13.7283
  49   2.0000      -0.500994       -13.6327
  50   2.0000      -0.491192       -13.3660
  51   2.0000      -0.481447       -13.1008
  52   2.0000      -0.470306       -12.7977
  53   2.0000      -0.460264       -12.5244
  54   2.0000      -0.455793       -12.4028
  55   2.0000      -0.447427       -12.1751
  56   2.0000      -0.444042       -12.0830
  57   2.0000      -0.440181       -11.9779
  58   2.0000      -0.435369       -11.8470
  59   2.0000      -0.425645       -11.5824
  60   2.0000      -0.423494       -11.5239
  61   2.0000      -0.413841       -11.2612
  62   2.0000      -0.400048       -10.8858
  63   2.0000      -0.339781        -9.2459
  64   2.0000      -0.329458        -8.9650
  65   2.0000      -0.325425        -8.8553
  66   2.0000      -0.301455        -8.2030
  67   0.0000       0.039962         1.0874
  68   0.0000       0.059513         1.6194
  69   0.0000       0.112444         3.0598
  70   0.0000       0.121886         3.3167
  71   0.0000       0.123982         3.3737

MULLIKEN ATOMIC CHARGES
-----------------------
   0 S :    0.120317
   1 C :   -0.121733
   2 C :   -0.099775
   3 C :    0.038560
   4 C :   -0.198539
   5 H :    0.006585
   6 C :    0.009898
   7 H :    0.038155
   8 H :    0.030470
   9 C :   -0.038978
  10 H :    0.004279
  11 H :    0.038937
  12 C :   -0.017676
  13 H :    0.043223
  14 H :    0.026965
  15 H :    0.039884
  16 S :    0.111408
  17 C :   -0.047829
  18 C :   -0.044586
  19 C :   -0.065534
  20 C :   -0.140773
  21 H :    0.033916
  22 C :    0.020734
  23 H :    0.038545
  24 H :    0.040972
  25 C :   -0.080648
  26 H :    0.034705
  27 H :    0.029733
  28 C :   -0.001289
  29 H :    0.010799
  30 H :    0.041764
  31 H :    0.030290
  32 H :    0.047040
  33 H :    0.020180
Sum of atomic charges:   -0.0000000

LOEWDIN ATOMIC CHARGES
----------------------
   0 S :    0.413737
   1 C :   -0.204666
   2 C :   -0.062504
   3 C :   -0.064084
   4 C :   -0.197876
   5 H :    0.025837
   6 C :   -0.037256
   7 H :    0.038171
   8 H :    0.032402
   9 C :   -0.035389
  10 H :    0.010871
  11 H :    0.027137
  12 C :   -0.055884
  13 H :    0.030910
  14 H :    0.023685
  15 H :    0.029541
  16 S :    0.407436
  17 C :   -0.166699
  18 C :   -0.067625
  19 C :   -0.060435
  20 C :   -0.218478
  21 H :    0.035756
  22 C :   -0.039251
  23 H :    0.036551
  24 H :    0.033103
  25 C :   -0.043950
  26 H :    0.032554
  27 H :    0.020429
  28 C :   -0.060250
  29 H :    0.017642
  30 H :    0.032692
  31 H :    0.027778
  32 H :    0.029353
  33 H :    0.008761

  Mayer bond orders larger than 0.100000
B(  0-S ,  1-C ) :   1.1417 B(  0-S ,  4-C ) :   1.1655 B(  1-C ,  2-C ) :   1.5978
B(  1-C ,  4-C ) :   0.1047 B(  1-C , 32-H ) :   0.9654 B(  2-C ,  3-C ) :   1.2455
B(  2-C ,  6-C ) :   1.0165 B(  3-C ,  4-C ) :   1.5663 B(  3-C ,  5-H ) :   0.9925
B(  4-C , 20-C ) :   0.9956 B(  6-C ,  7-H ) :   0.9356 B(  6-C ,  8-H ) :   0.9472
B(  6-C ,  9-C ) :   1.0678 B(  9-C , 10-H ) :   0.9519 B(  9-C , 11-H ) :   0.9502
B(  9-C , 12-C ) :   1.0729 B( 12-C , 13-H ) :   0.9704 B( 12-C , 14-H ) :   0.9762
B( 12-C , 15-H ) :   0.9744 B( 16-S , 17-C ) :   1.1460 B( 16-S , 20-C ) :   1.1303
B( 17-C , 18-C ) :   1.6408 B( 17-C , 33-H ) :   0.9728 B( 18-C , 19-C ) :   1.2039
B( 18-C , 21-H ) :   0.9835 B( 19-C , 20-C ) :   1.6522 B( 19-C , 22-C ) :   1.0294
B( 22-C , 23-H ) :   0.9334 B( 22-C , 24-H ) :   0.9356 B( 22-C , 25-C ) :   1.0703
B( 25-C , 26-H ) :   0.9536 B( 25-C , 27-H ) :   0.9541 B( 25-C , 28-C ) :   1.0779
B( 28-C , 29-H ) :   0.9692 B( 28-C , 30-H ) :   0.9694 B( 28-C , 31-H ) :   0.9690

Dispersion correction           -0.016146468
FINAL SINGLE POINT ENERGY     -1339.866635142361

DIPOLE MOMENT
-------------
                                X             Y             Z
Electronic contribution:     13.44976      13.68694      20.54343
Nuclear contribution   :    -13.65394     -14.04711     -21.12343
                        -----------------------------------------
Total Dipole Moment    :     -0.20418      -0.36017      -0.58000
                        -----------------------------------------
Magnitude (a.u.)       :      0.71261
Magnitude (Debye)      :      1.81132

Rotational constants in cm-1:     0.019117     0.010147     0.007561
Rotational constants in MHz :   573.117963   304.193920   226.682969

                             ****ORCA TERMINATED NORMALLY****
TOTAL RUN TIME: 0 days 0 hours 0 minutes 30 seconds 30 msec
