                         Program Version 4.2.1 -  RELEASE  -
|  1> ! wB97X-D3 SP def2-SVP
|  2> %pal
|  3> nprocs 16
|  4> end
|  5>
|  6> * xyz 0 1
|  7> S 	 -109.053 	 56.5159 	 121.12
|  8> C 	 -108.158 	 57.7947 	 121.701
|  9> C 	 -106.768 	 57.5357 	 121.771
| 10> C 	 -106.431 	 56.3709 	 121
| 11> C 	 -107.549 	 55.7956 	 120.446
| 12> H 	 -105.42 	 55.9498 	 120.98
| 13> C 	 -105.691 	 58.2875 	 122.459
| 14> H 	 -104.844 	 57.5472 	 122.523
| 15> H 	 -106.039 	 58.4152 	 123.465
| 16> C 	 -105.381 	 59.6607 	 121.773
| 17> H 	 -104.652 	 60.15 	 122.405
| 18> H 	 -104.972 	 59.4334 	 120.746
| 19> C 	 -106.586 	 60.5452 	 121.661
| 20> H 	 -106.304 	 61.573 	 121.658
| 21> H 	 -107.198 	 60.2276 	 120.79
| 22> H 	 -107.241 	 60.4339 	 122.599
| 23> S 	 -108.656 	 53.2672 	 120.208
| 24> C 	 -108.429 	 52.328 	 118.769
| 25> C 	 -107.612 	 53.0059 	 117.95
| 26> C 	 -106.926 	 54.1181 	 118.556
| 27> C 	 -107.522 	 54.5304 	 119.724
| 28> H 	 -107.437 	 52.6902 	 116.937
| 29> C 	 -105.923 	 54.9517 	 117.718
| 30> H 	 -104.997 	 54.3273 	 117.612
| 31> H 	 -105.655 	 55.8968 	 118.204
| 32> C 	 -106.153 	 55.1939 	 116.263
| 33> H 	 -107.207 	 55.5004 	 116.134
| 34> H 	 -105.902 	 54.3112 	 115.648
| 35> C 	 -105.377 	 56.3795 	 115.627
| 36> H 	 -104.314 	 56.2143 	 115.601
| 37> H 	 -105.623 	 57.312 	 116.22
| 38> H 	 -105.752 	 56.5202 	 114.618
| 39> H 	 -108.566 	 58.63 	 122.259
| 40> H 	 -109.057 	 51.5226 	 118.53
| 41> *
| 42>
| 43>                          ****END OF INPUT****

CARTESIAN COORDINATES (ANGSTROEM)
---------------------------------
  S    -109.053000   56.515900  121.120000
  C    -108.158000   57.794700  121.701000
  C    -106.768000   57.535700  121.771000
  C    -106.431000   56.370900  121.000000
  C    -107.549000   55.795600  120.446000
  H    -105.420000   55.949800  120.980000
  C    -105.691000   58.287500  122.459000
  H    -104.844000   57.547200  122.523000
  H    -106.039000   58.415200  123.465000
  C    -105.381000   59.660700  121.773000
  H    -104.652000   60.150000  122.405000
  H    -104.972000   59.433400  120.746000
  C    -106.586000   60.545200  121.661000
  H    -106.304000   61.573000  121.658000
  H    -107.198000   60.227600  120.790000
  H    -107.241000   60.433900  122.599000
  S    -108.656000   53.267200  120.208000
  C    -108.429000   52.328000  118.769000
  C    -107.612000   53.005900  117.950000
  C    -106.926000   54.118100  118.556000
  C    -107.522000   54.530400  119.724000
  H    -107.437000   52.690200  116.937000
  C    -105.923000   54.951700  117.718000
  H    -104.997000   54.327300  117.612000
  H    -105.655000   55.896800  118.204000
  C    -106.153000   55.193900  116.263000
  H    -107.207000   55.500400  116.134000
  H    -105.902000   54.311200  115.648000
  C    -105.377000   56.379500  115.627000
  H    -104.314000   56.214300  115.601000
  H    -105.623000   57.312000  116.220000
  H    -105.752000   56.520200  114.618000
  H    -108.566000   58.630000  122.259000
  H    -109.057000   51.522600  118.530000

 Total Charge           Charge          ....    0
 Multiplicity           Mult            ....    1
 Number of Electrons    NEL             ....  134
 Basis Dimension        Dim             ....  322

ORBITAL ENERGIES
----------------

  NO   OCC          E(Eh)            E(eV)
   0   2.0000     -88.972162     -2421.0556
   1   2.0000     -88.955048     -2420.5899
   2   2.0000     -10.330617      -281.1104
   3   2.0000     -10.325749      -280.9779
   4   2.0000     -10.310240      -280.5559
   5   2.0000     -10.307036      -280.4687
   6   2.0000     -10.302619      -280.3485
   7   2.0000     -10.298179      -280.2277
   8   2.0000     -10.295332      -280.1502
   9   2.0000     -10.292741      -280.0797
  10   2.0000     -10.292254      -280.0665
  11   2.0000     -10.290412      -280.0164
  12   2.0000     -10.288086      -279.9531
  13   2.0000     -10.285084      -279.8714
  14   2.0000     -10.282811      -279.8095
  15   2.0000     -10.281423      -279.7717
  16   2.0000      -8.087346      -220.0679
  17   2.0000      -8.070579      -219.6116
  18   2.0000      -6.045762      -164.5135
  19   2.0000      -6.042054      -164.4126
  20   2.0000      -6.037888      -164.2993
  21   2.0000      -6.029157      -164.0617
  22   2.0000      -6.024990      -163.9483
  23   2.0000      -6.021194      -163.8450
  24   2.0000      -1.009345       -27.4657
  25   2.0000      -0.989231       -26.9183
  26   2.0000      -0.915938       -24.9239
  27   2.0000      -0.908555       -24.7230
  28   2.0000      -0.874440       -23.7947
  29   2.0000      -0.856910       -23.3177
  30   2.0000      -0.842886       -22.9361
  31   2.0000      -0.814366       -22.1600
  32   2.0000      -0.779834       -21.2204
  33   2.0000      -0.772531       -21.0216
  34   2.0000      -0.703958       -19.1557
  35   2.0000      -0.695256       -18.9189
  36   2.0000      -0.689634       -18.7659
  37   2.0000      -0.655615       -17.8402
  38   2.0000      -0.639581       -17.4039
  39   2.0000      -0.619265       -16.8511
  40   2.0000      -0.601135       -16.3577
  41   2.0000      -0.575963       -15.6728
  42   2.0000      -0.574040       -15.6204
  43   2.0000      -0.548171       -14.9165
  44   2.0000      -0.543723       -14.7955
  45   2.0000      -0.524409       -14.2699
  46   2.0000      -0.517548       -14.0832
  47   2.0000      -0.512970       -13.9586
  48   2.0000      -0.501193       -13.6382
  49   2.0000      -0.496084       -13.4991
  50   2.0000      -0.485916       -13.2225
  51   2.0000      -0.481303       -13.0969
  52   2.0000      -0.472565       -12.8592
  53   2.0000      -0.469640       -12.7796
  54   2.0000      -0.464053       -12.6275
  55   2.0000      -0.452654       -12.3173
  56   2.0000      -0.447678       -12.1819
  57   2.0000      -0.431295       -11.7361
  58   2.0000      -0.426152       -11.5962
  59   2.0000      -0.422313       -11.4917
  60   2.0000      -0.421382       -11.4664
  61   2.0000      -0.418002       -11.3744
  62   2.0000      -0.400756       -10.9051
  63   2.0000      -0.356084        -9.6895
  64   2.0000      -0.326732        -8.8908
  65   2.0000      -0.324060        -8.8181
  66   2.0000      -0.285319        -7.7639
  67   0.0000       0.026688         0.7262
  68   0.0000       0.064163         1.7460
  69   0.0000       0.111158         3.0248
  70   0.0000       0.123715         3.3665
  71   0.0000       0.131788         3.5861

MULLIKEN ATOMIC CHARGES
-----------------------
   0 S :    0.144557
   1 C :   -0.107263
   2 C :   -0.143709
   3 C :    0.009025
   4 C :   -0.124412
   5 H :    0.034686
   6 C :    0.055321
   7 H :    0.028524
   8 H :    0.024895
   9 C :   -0.049601
  10 H :    0.031197
  11 H :    0.040104
  12 C :   -0.073536
  13 H :    0.036650
  14 H :    0.060896
  15 H :    0.025816
  16 S :    0.064121
  17 C :   -0.051716
  18 C :   -0.036872
  19 C :   -0.031349
  20 C :   -0.155453
  21 H :    0.016465
  22 C :    0.064780
  23 H :    0.028978
  24 H :    0.019333
  25 C :   -0.121984
  26 H :    0.033981
  27 H :    0.035399
  28 C :   -0.057932
  29 H :    0.032196
  30 H :    0.040165
  31 H :    0.036947
  32 H :    0.044936
  33 H :    0.044855
Sum of atomic charges:   -0.0000000

LOEWDIN ATOMIC CHARGES
----------------------
   0 S :    0.435447
   1 C :   -0.230368
   2 C :   -0.064714
   3 C :   -0.056109
   4 C :   -0.184241
   5 H :    0.038847
   6 C :   -0.038099
   7 H :    0.036148
   8 H :    0.026571
   9 C :   -0.036817
  10 H :    0.022175
  11 H :    0.032166
  12 C :   -0.070295
  13 H :    0.024131
  14 H :    0.033824
  15 H :    0.027592
  16 S :    0.383326
  17 C :   -0.179367
  18 C :   -0.067158
  19 C :   -0.061448
  20 C :   -0.184560
  21 H :    0.028368
  22 C :   -0.041939
  23 H :    0.039716
  24 H :    0.026777
  25 C :   -0.051157
  26 H :    0.024505
  27 H :    0.022693
  28 C :   -0.061053
  29 H :    0.018339
  30 H :    0.031056
  31 H :    0.027754
  32 H :    0.025596
  33 H :    0.022294

  Mayer bond orders larger than 0.100000
B(  0-S ,  1-C ) :   1.1614 B(  0-S ,  4-C ) :   1.1451 B(  1-C ,  2-C ) :   1.5707
B(  1-C , 32-H ) :   0.9624 B(  2-C ,  3-C ) :   1.2709 B(  2-C ,  6-C ) :   1.0261
B(  3-C ,  4-C ) :   1.5421 B(  3-C ,  5-H ) :   0.9886 B(  4-C , 20-C ) :   1.0689
B(  6-C ,  7-H ) :   0.9448 B(  6-C ,  8-H ) :   0.9311 B(  6-C ,  9-C ) :   1.0635
B(  9-C , 10-H ) :   0.9568 B(  9-C , 11-H ) :   0.9536 B(  9-C , 12-C ) :   1.0876
B( 12-C , 13-H ) :   0.9691 B( 12-C , 14-H ) :   0.9654 B( 12-C , 15-H ) :   0.9704
B( 16-S , 17-C ) :   1.1330 B( 16-S , 20-C ) :   1.1293 B( 17-C , 18-C ) :   1.6282
B( 17-C , 33-H ) :   0.9745 B( 18-C , 19-C ) :   1.2287 B( 18-C , 21-H ) :   0.9905
B( 19-C , 20-C ) :   1.6045 B( 19-C , 22-C ) :   1.0507 B( 22-C , 23-H ) :   0.9219
B( 22-C , 24-H ) :   0.9448 B( 22-C , 25-C ) :   1.0696 B( 25-C , 26-H ) :   0.9580
B( 25-C , 27-H ) :   0.9475 B( 25-C , 28-C ) :   1.0883 B( 28-C , 29-H ) :   0.9774
B( 28-C , 30-H ) :   0.9739 B( 28-C , 31-H ) :   0.9737

Dispersion correction           -0.013918504
FINAL SINGLE POINT ENERGY     -1339.859751527591

DIPOLE MOMENT
-------------
                                X             Y             Z
Electronic contribution:    -17.74140     -18.66975      10.42231
Nuclear contribution   :     18.17821      19.06249     -10.57860
                        -----------------------------------------
Total Dipole Moment    :      0.43682       0.39275      -0.15630
                        -----------------------------------------
Magnitude (a.u.)       :      0.60786
Magnitude (Debye)      :      1.54505

Rotational constants in cm-1:     0.018285     0.008817     0.006571
Rotational constants in MHz :   548.171190   264.329924   196.978896

                             ****ORCA TERMINATED NORMALLY****
TOTAL RUN TIME: 0 days 0 hours 0 minutes 34 seconds 687 msec
