                         Program Version 4.2.1 -  RELEASE  -
|  1> ! wB97X-D3 SP def2-SVP
|  2> %pal
|  3> nprocs 16
|  4> end
|  5>
|  6> * xyz 0 1
|  7> S 	 -10.7319 	 -10.0573 	 87.976
|  8> C 	 -12.1339 	 -9.26556 	 87.1938
|  9> C 	 -13.3315 	 -9.50881 	 87.7577
| 10> C 	 -13.1558 	 -10.4217 	 88.863
| 11> C 	 -11.809 	 -10.8089 	 89.1408
| 12> H 	 -13.8684 	 -10.8307 	 89.5411
| 13> C 	 -14.6985 	 -8.88513 	 87.2913
| 14> H 	 -15.3605 	 -9.69206 	 87.122
| 15> H 	 -14.594 	 -8.46078 	 86.2582
| 16> C 	 -15.2439 	 -7.97101 	 88.3479
| 17> H 	 -15.1803 	 -8.3565 	 89.3863
| 18> H 	 -14.6174 	 -7.08778 	 88.3461
| 19> C 	 -16.5636 	 -7.20988 	 88.0574
| 20> H 	 -17.3907 	 -7.90472 	 87.748
| 21> H 	 -16.9504 	 -6.61166 	 88.911
| 22> H 	 -16.4704 	 -6.43918 	 87.1798
| 23> S 	 -10.1955 	 -10.344 	 91.3977
| 24> C 	 -10.392 	 -11.3921 	 92.7768
| 25> C 	 -11.1804 	 -12.4551 	 92.4245
| 26> C 	 -11.7644 	 -12.4379 	 91.0997
| 27> C 	 -11.3754 	 -11.3045 	 90.4558
| 28> H 	 -11.2482 	 -13.2015 	 93.278
| 29> C 	 -12.6265 	 -13.6197 	 90.6088
| 30> H 	 -13.3003 	 -13.2464 	 89.8291
| 31> H 	 -13.2706 	 -13.8603 	 91.4186
| 32> C 	 -11.886 	 -14.846 	 90.0583
| 33> H 	 -11.1953 	 -14.4181 	 89.3087
| 34> H 	 -12.6144 	 -15.5301 	 89.6279
| 35> C 	 -11.266 	 -15.6691 	 91.1153
| 36> H 	 -10.5203 	 -15.1022 	 91.6549
| 37> H 	 -10.6631 	 -16.5045 	 90.8091
| 38> H 	 -11.8999 	 -16.0791 	 91.9009
| 39> H 	 -11.9387 	 -8.59035 	 86.3288
| 40> H 	 -9.89655 	 -11.3101 	 93.7476
| 41> *
| 42>
| 43>                          ****END OF INPUT****

CARTESIAN COORDINATES (ANGSTROEM)
---------------------------------
  S    -10.731900  -10.057300   87.976000
  C    -12.133900   -9.265560   87.193800
  C    -13.331500   -9.508810   87.757700
  C    -13.155800  -10.421700   88.863000
  C    -11.809000  -10.808900   89.140800
  H    -13.868400  -10.830700   89.541100
  C    -14.698500   -8.885130   87.291300
  H    -15.360500   -9.692060   87.122000
  H    -14.594000   -8.460780   86.258200
  C    -15.243900   -7.971010   88.347900
  H    -15.180300   -8.356500   89.386300
  H    -14.617400   -7.087780   88.346100
  C    -16.563600   -7.209880   88.057400
  H    -17.390700   -7.904720   87.748000
  H    -16.950400   -6.611660   88.911000
  H    -16.470400   -6.439180   87.179800
  S    -10.195500  -10.344000   91.397700
  C    -10.392000  -11.392100   92.776800
  C    -11.180400  -12.455100   92.424500
  C    -11.764400  -12.437900   91.099700
  C    -11.375400  -11.304500   90.455800
  H    -11.248200  -13.201500   93.278000
  C    -12.626500  -13.619700   90.608800
  H    -13.300300  -13.246400   89.829100
  H    -13.270600  -13.860300   91.418600
  C    -11.886000  -14.846000   90.058300
  H    -11.195300  -14.418100   89.308700
  H    -12.614400  -15.530100   89.627900
  C    -11.266000  -15.669100   91.115300
  H    -10.520300  -15.102200   91.654900
  H    -10.663100  -16.504500   90.809100
  H    -11.899900  -16.079100   91.900900
  H    -11.938700   -8.590350   86.328800
  H     -9.896550  -11.310100   93.747600

 Total Charge           Charge          ....    0
 Multiplicity           Mult            ....    1
 Number of Electrons    NEL             ....  134
 Basis Dimension        Dim             ....  322

ORBITAL ENERGIES
----------------

  NO   OCC          E(Eh)            E(eV)
   0   2.0000     -88.967264     -2420.9223
   1   2.0000     -88.962997     -2420.8062
   2   2.0000     -10.332983      -281.1748
   3   2.0000     -10.330209      -281.0993
   4   2.0000     -10.318915      -280.7920
   5   2.0000     -10.314780      -280.6794
   6   2.0000     -10.308497      -280.5085
   7   2.0000     -10.304530      -280.4005
   8   2.0000     -10.301962      -280.3306
   9   2.0000     -10.300186      -280.2823
  10   2.0000     -10.295640      -280.1586
  11   2.0000     -10.294120      -280.1172
  12   2.0000     -10.290652      -280.0229
  13   2.0000     -10.289395      -279.9887
  14   2.0000     -10.285178      -279.8739
  15   2.0000     -10.267311      -279.3877
  16   2.0000      -8.081393      -219.9059
  17   2.0000      -8.077425      -219.7979
  18   2.0000      -6.039906      -164.3542
  19   2.0000      -6.036100      -164.2506
  20   2.0000      -6.036042      -164.2491
  21   2.0000      -6.032136      -164.1428
  22   2.0000      -6.032045      -164.1403
  23   2.0000      -6.027929      -164.0283
  24   2.0000      -1.002176       -27.2706
  25   2.0000      -0.980286       -26.6749
  26   2.0000      -0.912455       -24.8292
  27   2.0000      -0.911594       -24.8057
  28   2.0000      -0.869216       -23.6526
  29   2.0000      -0.850902       -23.1542
  30   2.0000      -0.839092       -22.8329
  31   2.0000      -0.809450       -22.0263
  32   2.0000      -0.786868       -21.4118
  33   2.0000      -0.778628       -21.1875
  34   2.0000      -0.708279       -19.2733
  35   2.0000      -0.696877       -18.9630
  36   2.0000      -0.690060       -18.7775
  37   2.0000      -0.655728       -17.8433
  38   2.0000      -0.640173       -17.4200
  39   2.0000      -0.613857       -16.7039
  40   2.0000      -0.592292       -16.1171
  41   2.0000      -0.567095       -15.4314
  42   2.0000      -0.561029       -15.2664
  43   2.0000      -0.554684       -15.0937
  44   2.0000      -0.541949       -14.7472
  45   2.0000      -0.525506       -14.2998
  46   2.0000      -0.514583       -14.0025
  47   2.0000      -0.509748       -13.8710
  48   2.0000      -0.503826       -13.7098
  49   2.0000      -0.500308       -13.6141
  50   2.0000      -0.489518       -13.3205
  51   2.0000      -0.477039       -12.9809
  52   2.0000      -0.470492       -12.8027
  53   2.0000      -0.464665       -12.6442
  54   2.0000      -0.456748       -12.4287
  55   2.0000      -0.447172       -12.1682
  56   2.0000      -0.440443       -11.9851
  57   2.0000      -0.438087       -11.9210
  58   2.0000      -0.428332       -11.6555
  59   2.0000      -0.426188       -11.5972
  60   2.0000      -0.421604       -11.4724
  61   2.0000      -0.411205       -11.1895
  62   2.0000      -0.403488       -10.9795
  63   2.0000      -0.348555        -9.4847
  64   2.0000      -0.335548        -9.1307
  65   2.0000      -0.329404        -8.9635
  66   2.0000      -0.292348        -7.9552
  67   0.0000       0.029777         0.8103
  68   0.0000       0.067986         1.8500
  69   0.0000       0.111024         3.0211
  70   0.0000       0.126634         3.4459
  71   0.0000       0.132887         3.6160

MULLIKEN ATOMIC CHARGES
-----------------------
   0 S :    0.094519
   1 C :   -0.160561
   2 C :   -0.055900
   3 C :    0.027781
   4 C :   -0.170867
   5 H :    0.008695
   6 C :    0.116645
   7 H :    0.019607
   8 H :    0.028919
   9 C :   -0.083867
  10 H :    0.049980
  11 H :    0.028860
  12 C :   -0.103301
  13 H :    0.032248
  14 H :    0.048553
  15 H :    0.042634
  16 S :    0.103563
  17 C :   -0.108838
  18 C :   -0.067201
  19 C :   -0.045106
  20 C :   -0.156662
  21 H :    0.038697
  22 C :    0.091983
  23 H :    0.017480
  24 H :    0.012554
  25 C :   -0.022886
  26 H :    0.044345
  27 H :    0.031791
  28 C :   -0.047261
  29 H :    0.013567
  30 H :    0.022542
  31 H :    0.022293
  32 H :    0.063242
  33 H :    0.061956
Sum of atomic charges:    0.0000000

LOEWDIN ATOMIC CHARGES
----------------------
   0 S :    0.381024
   1 C :   -0.180038
   2 C :   -0.061704
   3 C :   -0.049499
   4 C :   -0.197108
   5 H :    0.023156
   6 C :   -0.020599
   7 H :    0.023912
   8 H :    0.037718
   9 C :   -0.055389
  10 H :    0.033793
  11 H :    0.030679
  12 C :   -0.079925
  13 H :    0.020706
  14 H :    0.031627
  15 H :    0.033223
  16 S :    0.382945
  17 C :   -0.195318
  18 C :   -0.083049
  19 C :   -0.061596
  20 C :   -0.181363
  21 H :    0.039848
  22 C :   -0.024687
  23 H :    0.030617
  24 H :    0.024180
  25 C :   -0.035380
  26 H :    0.035584
  27 H :    0.028757
  28 C :   -0.074510
  29 H :    0.021991
  30 H :    0.025067
  31 H :    0.025667
  32 H :    0.033167
  33 H :    0.036504

  Mayer bond orders larger than 0.100000
B(  0-S ,  1-C ) :   1.1317 B(  0-S ,  4-C ) :   1.1405 B(  1-C ,  2-C ) :   1.6497
B(  1-C , 32-H ) :   0.9591 B(  2-C ,  3-C ) :   1.2231 B(  2-C ,  6-C ) :   1.0033
B(  3-C ,  4-C ) :   1.5811 B(  3-C ,  5-H ) :   0.9884 B(  4-C , 20-C ) :   1.0399
B(  6-C ,  7-H ) :   0.9357 B(  6-C ,  8-H ) :   0.9444 B(  6-C ,  9-C ) :   1.0550
B(  9-C , 10-H ) :   0.9598 B(  9-C , 11-H ) :   0.9536 B(  9-C , 12-C ) :   1.0666
B( 12-C , 13-H ) :   0.9753 B( 12-C , 14-H ) :   0.9746 B( 12-C , 15-H ) :   0.9773
B( 16-S , 17-C ) :   1.1283 B( 16-S , 20-C ) :   1.1247 B( 17-C , 18-C ) :   1.6687
B( 17-C , 33-H ) :   0.9638 B( 18-C , 19-C ) :   1.1920 B( 18-C , 21-H ) :   0.9744
B( 19-C , 20-C ) :   1.6431 B( 19-C , 22-C ) :   1.0342 B( 22-C , 23-H ) :   0.9251
B( 22-C , 24-H ) :   0.9319 B( 22-C , 25-C ) :   1.0776 B( 25-C , 26-H ) :   0.9507
B( 25-C , 27-H ) :   0.9512 B( 25-C , 28-C ) :   1.0898 B( 28-C , 29-H ) :   0.9669
B( 28-C , 30-H ) :   0.9677 B( 28-C , 31-H ) :   0.9712

Dispersion correction           -0.013886471
FINAL SINGLE POINT ENERGY     -1339.865241598259

DIPOLE MOMENT
-------------
                                X             Y             Z
Electronic contribution:     20.29597       6.47901       1.45278
Nuclear contribution   :    -20.84273      -6.59050      -1.36942
                        -----------------------------------------
Total Dipole Moment    :     -0.54676      -0.11149       0.08336
                        -----------------------------------------
Magnitude (a.u.)       :      0.56420
Magnitude (Debye)      :      1.43408

Rotational constants in cm-1:     0.020200     0.007137     0.006670
Rotational constants in MHz :   605.577869   213.960063   199.963159

                             ****ORCA TERMINATED NORMALLY****
TOTAL RUN TIME: 0 days 0 hours 0 minutes 32 seconds 57 msec
