                         Program Version 4.2.1 -  RELEASE  -
|  1> ! wB97X-D3 SP def2-SVP
|  2> %pal
|  3> nprocs 16
|  4> end
|  5>
|  6> * xyz 0 1
|  7> S 	 -83.6838 	 49.1559 	 127.928
|  8> C 	 -85.1416 	 48.2085 	 127.915
|  9> C 	 -86.0075 	 48.6704 	 128.878
| 10> C 	 -85.4483 	 49.6047 	 129.742
| 11> C 	 -84.1986 	 49.9431 	 129.371
| 12> H 	 -85.8824 	 50.0225 	 130.64
| 13> C 	 -87.3689 	 48.0989 	 129.09
| 14> H 	 -87.2873 	 47.0656 	 128.835
| 15> H 	 -88.0334 	 48.4121 	 128.303
| 16> C 	 -88.0503 	 48.306 	 130.451
| 17> H 	 -88.7713 	 47.432 	 130.482
| 18> H 	 -87.2977 	 48.2723 	 131.23
| 19> C 	 -88.8343 	 49.6515 	 130.503
| 20> H 	 -88.2133 	 50.5136 	 130.254
| 21> H 	 -89.7243 	 49.6614 	 129.892
| 22> H 	 -89.2609 	 49.7606 	 131.498
| 23> S 	 -82.9398 	 52.2428 	 129.014
| 24> C 	 -82.3661 	 53.1028 	 130.429
| 25> C 	 -82.5544 	 52.4514 	 131.616
| 26> C 	 -83.0088 	 51.1146 	 131.373
| 27> C 	 -83.3153 	 50.8696 	 130.003
| 28> H 	 -82.2065 	 52.8557 	 132.562
| 29> C 	 -83.1573 	 50.0683 	 132.421
| 30> H 	 -84.0807 	 49.5223 	 132.181
| 31> H 	 -83.3611 	 50.613 	 133.346
| 32> C 	 -81.9208 	 49.1151 	 132.452
| 33> H 	 -82.1548 	 48.3474 	 133.157
| 34> H 	 -81.0321 	 49.5617 	 132.817
| 35> C 	 -81.5271 	 48.4592 	 131.11
| 36> H 	 -80.5962 	 47.8892 	 131.208
| 37> H 	 -81.2243 	 49.2626 	 130.398
| 38> H 	 -82.3012 	 47.681 	 130.855
| 39> H 	 -85.4186 	 47.4858 	 127.138
| 40> H 	 -81.7871 	 53.9857 	 130.236
| 41> *
| 42>
| 43>                          ****END OF INPUT****

CARTESIAN COORDINATES (ANGSTROEM)
---------------------------------
  S    -83.683800   49.155900  127.928000
  C    -85.141600   48.208500  127.915000
  C    -86.007500   48.670400  128.878000
  C    -85.448300   49.604700  129.742000
  C    -84.198600   49.943100  129.371000
  H    -85.882400   50.022500  130.640000
  C    -87.368900   48.098900  129.090000
  H    -87.287300   47.065600  128.835000
  H    -88.033400   48.412100  128.303000
  C    -88.050300   48.306000  130.451000
  H    -88.771300   47.432000  130.482000
  H    -87.297700   48.272300  131.230000
  C    -88.834300   49.651500  130.503000
  H    -88.213300   50.513600  130.254000
  H    -89.724300   49.661400  129.892000
  H    -89.260900   49.760600  131.498000
  S    -82.939800   52.242800  129.014000
  C    -82.366100   53.102800  130.429000
  C    -82.554400   52.451400  131.616000
  C    -83.008800   51.114600  131.373000
  C    -83.315300   50.869600  130.003000
  H    -82.206500   52.855700  132.562000
  C    -83.157300   50.068300  132.421000
  H    -84.080700   49.522300  132.181000
  H    -83.361100   50.613000  133.346000
  C    -81.920800   49.115100  132.452000
  H    -82.154800   48.347400  133.157000
  H    -81.032100   49.561700  132.817000
  C    -81.527100   48.459200  131.110000
  H    -80.596200   47.889200  131.208000
  H    -81.224300   49.262600  130.398000
  H    -82.301200   47.681000  130.855000
  H    -85.418600   47.485800  127.138000
  H    -81.787100   53.985700  130.236000

 Total Charge           Charge          ....    0
 Multiplicity           Mult            ....    1
 Number of Electrons    NEL             ....  134
 Basis Dimension        Dim             ....  322

ORBITAL ENERGIES
----------------

  NO   OCC          E(Eh)            E(eV)
   0   2.0000     -88.962391     -2420.7897
   1   2.0000     -88.961490     -2420.7652
   2   2.0000     -10.317611      -280.7565
   3   2.0000     -10.317091      -280.7423
   4   2.0000     -10.313536      -280.6456
   5   2.0000     -10.306725      -280.4602
   6   2.0000     -10.302145      -280.3356
   7   2.0000     -10.295683      -280.1598
   8   2.0000     -10.294193      -280.1192
   9   2.0000     -10.291518      -280.0464
  10   2.0000     -10.290046      -280.0064
  11   2.0000     -10.282980      -279.8141
  12   2.0000     -10.280420      -279.7445
  13   2.0000     -10.279448      -279.7180
  14   2.0000     -10.278395      -279.6893
  15   2.0000     -10.275786      -279.6184
  16   2.0000      -8.077887      -219.8105
  17   2.0000      -8.076909      -219.7839
  18   2.0000      -6.036272      -164.2553
  19   2.0000      -6.035258      -164.2277
  20   2.0000      -6.032279      -164.1466
  21   2.0000      -6.031295      -164.1199
  22   2.0000      -6.028749      -164.0506
  23   2.0000      -6.027828      -164.0255
  24   2.0000      -1.014888       -27.6165
  25   2.0000      -0.986514       -26.8444
  26   2.0000      -0.913781       -24.8652
  27   2.0000      -0.905417       -24.6376
  28   2.0000      -0.872675       -23.7467
  29   2.0000      -0.849175       -23.1072
  30   2.0000      -0.843358       -22.9489
  31   2.0000      -0.817430       -22.2434
  32   2.0000      -0.784738       -21.3538
  33   2.0000      -0.766725       -20.8637
  34   2.0000      -0.710326       -19.3289
  35   2.0000      -0.694408       -18.8958
  36   2.0000      -0.688349       -18.7309
  37   2.0000      -0.660196       -17.9648
  38   2.0000      -0.642151       -17.4738
  39   2.0000      -0.630504       -17.1569
  40   2.0000      -0.594121       -16.1669
  41   2.0000      -0.567971       -15.4553
  42   2.0000      -0.552624       -15.0377
  43   2.0000      -0.546451       -14.8697
  44   2.0000      -0.542310       -14.7570
  45   2.0000      -0.530818       -14.4443
  46   2.0000      -0.517070       -14.0702
  47   2.0000      -0.510320       -13.8865
  48   2.0000      -0.501410       -13.6440
  49   2.0000      -0.497668       -13.5422
  50   2.0000      -0.492443       -13.4001
  51   2.0000      -0.477597       -12.9961
  52   2.0000      -0.469694       -12.7810
  53   2.0000      -0.462270       -12.5790
  54   2.0000      -0.457182       -12.4405
  55   2.0000      -0.451015       -12.2727
  56   2.0000      -0.444483       -12.0950
  57   2.0000      -0.438777       -11.9397
  58   2.0000      -0.429890       -11.6979
  59   2.0000      -0.422945       -11.5089
  60   2.0000      -0.418369       -11.3844
  61   2.0000      -0.417277       -11.3547
  62   2.0000      -0.408546       -11.1171
  63   2.0000      -0.345480        -9.4010
  64   2.0000      -0.332037        -9.0352
  65   2.0000      -0.322310        -8.7705
  66   2.0000      -0.286249        -7.7892
  67   0.0000       0.032583         0.8866
  68   0.0000       0.069321         1.8863
  69   0.0000       0.111590         3.0365
  70   0.0000       0.120560         3.2806
  71   0.0000       0.140196         3.8149

MULLIKEN ATOMIC CHARGES
-----------------------
   0 S :    0.117581
   1 C :   -0.136213
   2 C :   -0.077946
   3 C :    0.020441
   4 C :   -0.151660
   5 H :    0.012976
   6 C :    0.084435
   7 H :    0.009796
   8 H :    0.021523
   9 C :   -0.085753
  10 H :    0.042380
  11 H :    0.033712
  12 C :   -0.049834
  13 H :    0.043496
  14 H :    0.026750
  15 H :    0.029664
  16 S :    0.101176
  17 C :   -0.098877
  18 C :   -0.006902
  19 C :   -0.111327
  20 C :   -0.141856
  21 H :    0.022711
  22 C :    0.102283
  23 H :    0.017173
  24 H :    0.018425
  25 C :   -0.039217
  26 H :    0.019780
  27 H :    0.014807
  28 C :   -0.081905
  29 H :    0.026259
  30 H :    0.060575
  31 H :    0.050731
  32 H :    0.049089
  33 H :    0.055729
Sum of atomic charges:    0.0000000

LOEWDIN ATOMIC CHARGES
----------------------
   0 S :    0.423005
   1 C :   -0.210463
   2 C :   -0.061611
   3 C :   -0.069537
   4 C :   -0.199712
   5 H :    0.033274
   6 C :   -0.039295
   7 H :    0.028330
   8 H :    0.032329
   9 C :   -0.038474
  10 H :    0.037006
  11 H :    0.020693
  12 C :   -0.067583
  13 H :    0.025909
  14 H :    0.024207
  15 H :    0.026309
  16 S :    0.413091
  17 C :   -0.176396
  18 C :   -0.070601
  19 C :   -0.054061
  20 C :   -0.213497
  21 H :    0.035510
  22 C :   -0.034230
  23 H :    0.030714
  24 H :    0.031109
  25 C :   -0.034048
  26 H :    0.019996
  27 H :    0.018098
  28 C :   -0.074512
  29 H :    0.025591
  30 H :    0.033305
  31 H :    0.033629
  32 H :    0.030840
  33 H :    0.021073

  Mayer bond orders larger than 0.100000
B(  0-S ,  1-C ) :   1.1310 B(  0-S ,  4-C ) :   1.1725 B(  1-C ,  2-C ) :   1.6093
B(  1-C ,  4-C ) :   0.1035 B(  1-C , 32-H ) :   0.9710 B(  2-C ,  3-C ) :   1.2511
B(  2-C ,  6-C ) :   1.0125 B(  3-C ,  4-C ) :   1.5787 B(  3-C ,  5-H ) :   0.9896
B(  4-C , 20-C ) :   1.0028 B(  6-C ,  7-H ) :   0.9345 B(  6-C ,  8-H ) :   0.9173
B(  6-C ,  9-C ) :   1.0738 B(  9-C , 10-H ) :   0.9536 B(  9-C , 11-H ) :   0.9590
B(  9-C , 12-C ) :   1.0739 B( 12-C , 13-H ) :   0.9778 B( 12-C , 14-H ) :   0.9721
B( 12-C , 15-H ) :   0.9738 B( 16-S , 17-C ) :   1.1715 B( 16-S , 20-C ) :   1.1500
B( 17-C , 18-C ) :   1.5800 B( 17-C , 20-C ) :   0.1068 B( 17-C , 33-H ) :   0.9694
B( 18-C , 19-C ) :   1.2609 B( 18-C , 21-H ) :   0.9930 B( 19-C , 20-C ) :   1.5667
B( 19-C , 22-C ) :   1.0469 B( 22-C , 23-H ) :   0.9302 B( 22-C , 24-H ) :   0.9312
B( 22-C , 25-C ) :   1.0561 B( 25-C , 26-H ) :   0.9555 B( 25-C , 27-H ) :   0.9558
B( 25-C , 28-C ) :   1.0938 B( 28-C , 29-H ) :   0.9701 B( 28-C , 30-H ) :   0.9643
B( 28-C , 31-H ) :   0.9745

Dispersion correction           -0.015807574
FINAL SINGLE POINT ENERGY     -1339.876085826679

DIPOLE MOMENT
-------------
                                X             Y             Z
Electronic contribution:     11.62206      11.13848     -14.97491
Nuclear contribution   :    -11.91443     -11.31392      15.43988
                        -----------------------------------------
Total Dipole Moment    :     -0.29237      -0.17544       0.46497
                        -----------------------------------------
Magnitude (a.u.)       :      0.57659
Magnitude (Debye)      :      1.46559

Rotational constants in cm-1:     0.018950     0.009256     0.008938
Rotational constants in MHz :   568.117869   277.500053   267.939672

                             ****ORCA TERMINATED NORMALLY****
TOTAL RUN TIME: 0 days 0 hours 0 minutes 34 seconds 628 msec
