                         Program Version 4.2.1 -  RELEASE  -
|  1> ! wB97X-D3 SP def2-SVP
|  2> %pal
|  3> nprocs 16
|  4> end
|  5>
|  6> * xyz 0 1
|  7> S 	 -8.58119 	 31.0918 	 33.9916
|  8> C 	 -7.76852 	 31.2013 	 32.4102
|  9> C 	 -7.74999 	 32.5098 	 31.9362
| 10> C 	 -8.423 	 33.4161 	 32.8762
| 11> C 	 -8.84135 	 32.805 	 34.0544
| 12> H 	 -8.60486 	 34.4978 	 32.6528
| 13> C 	 -7.09403 	 32.9953 	 30.6563
| 14> H 	 -7.57524 	 33.9178 	 30.3426
| 15> H 	 -7.25561 	 32.1921 	 29.9064
| 16> C 	 -5.61714 	 33.3141 	 30.8327
| 17> H 	 -5.4275 	 34.2329 	 31.4077
| 18> H 	 -4.98433 	 32.5211 	 31.3519
| 19> C 	 -4.86153 	 33.5896 	 29.5547
| 20> H 	 -3.78713 	 33.6511 	 29.7896
| 21> H 	 -4.97995 	 32.8312 	 28.7536
| 22> H 	 -5.23776 	 34.5827 	 29.1378
| 23> S 	 -8.63044 	 34.5166 	 36.1857
| 24> C 	 -10.1578 	 35.0945 	 36.9383
| 25> C 	 -11.2752 	 34.4488 	 36.4385
| 26> C 	 -10.9546 	 33.5024 	 35.4256
| 27> C 	 -9.61429 	 33.5007 	 35.1283
| 28> H 	 -12.2192 	 34.7938 	 36.836
| 29> C 	 -12.0408 	 32.8254 	 34.5614
| 30> H 	 -12.9606 	 32.7048 	 35.1723
| 31> H 	 -11.6672 	 31.8276 	 34.3219
| 32> C 	 -12.3344 	 33.4649 	 33.1685
| 33> H 	 -12.6216 	 32.7327 	 32.5054
| 34> H 	 -11.3295 	 33.7962 	 32.8007
| 35> C 	 -13.2736 	 34.7521 	 33.2127
| 36> H 	 -14.3088 	 34.6064 	 33.5968
| 37> H 	 -13.3975 	 35.1855 	 32.2611
| 38> H 	 -12.9049 	 35.4999 	 33.9385
| 39> H 	 -7.38726 	 30.4148 	 31.7893
| 40> H 	 -10.1119 	 35.8228 	 37.6847
| 41> *
| 42>
| 43>                          ****END OF INPUT****

CARTESIAN COORDINATES (ANGSTROEM)
---------------------------------
  S     -8.581190   31.091800   33.991600
  C     -7.768520   31.201300   32.410200
  C     -7.749990   32.509800   31.936200
  C     -8.423000   33.416100   32.876200
  C     -8.841350   32.805000   34.054400
  H     -8.604860   34.497800   32.652800
  C     -7.094030   32.995300   30.656300
  H     -7.575240   33.917800   30.342600
  H     -7.255610   32.192100   29.906400
  C     -5.617140   33.314100   30.832700
  H     -5.427500   34.232900   31.407700
  H     -4.984330   32.521100   31.351900
  C     -4.861530   33.589600   29.554700
  H     -3.787130   33.651100   29.789600
  H     -4.979950   32.831200   28.753600
  H     -5.237760   34.582700   29.137800
  S     -8.630440   34.516600   36.185700
  C    -10.157800   35.094500   36.938300
  C    -11.275200   34.448800   36.438500
  C    -10.954600   33.502400   35.425600
  C     -9.614290   33.500700   35.128300
  H    -12.219200   34.793800   36.836000
  C    -12.040800   32.825400   34.561400
  H    -12.960600   32.704800   35.172300
  H    -11.667200   31.827600   34.321900
  C    -12.334400   33.464900   33.168500
  H    -12.621600   32.732700   32.505400
  H    -11.329500   33.796200   32.800700
  C    -13.273600   34.752100   33.212700
  H    -14.308800   34.606400   33.596800
  H    -13.397500   35.185500   32.261100
  H    -12.904900   35.499900   33.938500
  H     -7.387260   30.414800   31.789300
  H    -10.111900   35.822800   37.684700

 Total Charge           Charge          ....    0
 Multiplicity           Mult            ....    1
 Number of Electrons    NEL             ....  134
 Basis Dimension        Dim             ....  322

ORBITAL ENERGIES
----------------

  NO   OCC          E(Eh)            E(eV)
   0   2.0000     -88.970458     -2421.0092
   1   2.0000     -88.964783     -2420.8548
   2   2.0000     -10.331791      -281.1423
   3   2.0000     -10.328332      -281.0482
   4   2.0000     -10.316838      -280.7354
   5   2.0000     -10.316810      -280.7347
   6   2.0000     -10.305854      -280.4365
   7   2.0000     -10.304929      -280.4114
   8   2.0000     -10.301222      -280.3105
   9   2.0000     -10.299274      -280.2575
  10   2.0000     -10.296602      -280.1848
  11   2.0000     -10.294224      -280.1201
  12   2.0000     -10.289988      -280.0048
  13   2.0000     -10.286826      -279.9188
  14   2.0000     -10.284208      -279.8475
  15   2.0000     -10.278270      -279.6859
  16   2.0000      -8.084306      -219.9851
  17   2.0000      -8.078833      -219.8362
  18   2.0000      -6.042944      -164.4369
  19   2.0000      -6.038892      -164.3266
  20   2.0000      -6.037231      -164.2814
  21   2.0000      -6.035017      -164.2212
  22   2.0000      -6.033546      -164.1811
  23   2.0000      -6.029640      -164.0748
  24   2.0000      -1.000447       -27.2235
  25   2.0000      -0.978411       -26.6239
  26   2.0000      -0.914347       -24.8807
  27   2.0000      -0.895853       -24.3774
  28   2.0000      -0.866286       -23.5728
  29   2.0000      -0.847354       -23.0577
  30   2.0000      -0.839811       -22.8524
  31   2.0000      -0.811824       -22.0909
  32   2.0000      -0.781669       -21.2703
  33   2.0000      -0.773103       -21.0372
  34   2.0000      -0.708155       -19.2699
  35   2.0000      -0.691209       -18.8087
  36   2.0000      -0.689994       -18.7757
  37   2.0000      -0.665515       -18.1096
  38   2.0000      -0.636626       -17.3235
  39   2.0000      -0.613460       -16.6931
  40   2.0000      -0.588737       -16.0203
  41   2.0000      -0.574194       -15.6246
  42   2.0000      -0.559236       -15.2176
  43   2.0000      -0.546904       -14.8820
  44   2.0000      -0.540683       -14.7127
  45   2.0000      -0.526437       -14.3251
  46   2.0000      -0.513453       -13.9718
  47   2.0000      -0.510142       -13.8817
  48   2.0000      -0.504943       -13.7402
  49   2.0000      -0.492721       -13.4076
  50   2.0000      -0.486098       -13.2274
  51   2.0000      -0.474431       -12.9099
  52   2.0000      -0.470696       -12.8083
  53   2.0000      -0.464910       -12.6508
  54   2.0000      -0.452708       -12.3188
  55   2.0000      -0.442858       -12.0508
  56   2.0000      -0.439290       -11.9537
  57   2.0000      -0.438132       -11.9222
  58   2.0000      -0.436032       -11.8650
  59   2.0000      -0.426383       -11.6025
  60   2.0000      -0.423242       -11.5170
  61   2.0000      -0.413226       -11.2445
  62   2.0000      -0.411331       -11.1929
  63   2.0000      -0.336284        -9.1508
  64   2.0000      -0.330388        -8.9903
  65   2.0000      -0.326090        -8.8734
  66   2.0000      -0.306144        -8.3306
  67   0.0000       0.037949         1.0326
  68   0.0000       0.059468         1.6182
  69   0.0000       0.108136         2.9425
  70   0.0000       0.111520         3.0346
  71   0.0000       0.128531         3.4975

MULLIKEN ATOMIC CHARGES
-----------------------
   0 S :    0.122956
   1 C :   -0.113224
   2 C :   -0.106249
   3 C :    0.030432
   4 C :   -0.159504
   5 H :    0.035768
   6 C :    0.091928
   7 H :    0.022074
   8 H :    0.032344
   9 C :   -0.099084
  10 H :    0.033987
  11 H :    0.037380
  12 C :   -0.074471
  13 H :    0.042819
  14 H :    0.032446
  15 H :    0.032086
  16 S :    0.101226
  17 C :   -0.087314
  18 C :   -0.029876
  19 C :    0.004223
  20 C :   -0.200898
  21 H :    0.021081
  22 C :    0.060234
  23 H :    0.029043
  24 H :    0.019824
  25 C :   -0.025770
  26 H :    0.017407
  27 H :    0.029658
  28 C :   -0.061690
  29 H :    0.025020
  30 H :    0.029390
  31 H :    0.033862
  32 H :    0.038323
  33 H :    0.034568
Sum of atomic charges:    0.0000000

LOEWDIN ATOMIC CHARGES
----------------------
   0 S :    0.407928
   1 C :   -0.192989
   2 C :   -0.058169
   3 C :   -0.067421
   4 C :   -0.210589
   5 H :    0.037812
   6 C :   -0.030893
   7 H :    0.032574
   8 H :    0.035263
   9 C :   -0.052126
  10 H :    0.029526
  11 H :    0.029930
  12 C :   -0.073117
  13 H :    0.029983
  14 H :    0.021202
  15 H :    0.026725
  16 S :    0.382038
  17 C :   -0.154879
  18 C :   -0.066605
  19 C :   -0.058125
  20 C :   -0.190040
  21 H :    0.034436
  22 C :   -0.029574
  23 H :    0.030162
  24 H :    0.028871
  25 C :   -0.027217
  26 H :    0.013266
  27 H :    0.032782
  28 C :   -0.071602
  29 H :    0.024774
  30 H :    0.018342
  31 H :    0.028811
  32 H :    0.026788
  33 H :    0.012132

  Mayer bond orders larger than 0.100000
B(  0-S ,  1-C ) :   1.1265 B(  0-S ,  4-C ) :   1.1514 B(  1-C ,  2-C ) :   1.6288
B(  1-C , 32-H ) :   0.9678 B(  2-C ,  3-C ) :   1.2364 B(  2-C ,  6-C ) :   1.0317
B(  3-C ,  4-C ) :   1.5871 B(  3-C ,  5-H ) :   0.9789 B(  4-C , 20-C ) :   0.9945
B(  6-C ,  7-H ) :   0.9338 B(  6-C ,  8-H ) :   0.9409 B(  6-C ,  9-C ) :   1.0633
B(  9-C , 10-H ) :   0.9524 B(  9-C , 11-H ) :   0.9601 B(  9-C , 12-C ) :   1.0832
B( 12-C , 13-H ) :   0.9741 B( 12-C , 14-H ) :   0.9754 B( 12-C , 15-H ) :   0.9736
B( 16-S , 17-C ) :   1.1421 B( 16-S , 20-C ) :   1.1503 B( 17-C , 18-C ) :   1.6301
B( 17-C , 33-H ) :   0.9772 B( 18-C , 19-C ) :   1.2008 B( 18-C , 21-H ) :   0.9938
B( 19-C , 20-C ) :   1.6263 B( 19-C , 22-C ) :   1.0530 B( 22-C , 23-H ) :   0.9415
B( 22-C , 24-H ) :   0.9229 B( 22-C , 25-C ) :   1.0645 B( 25-C , 26-H ) :   0.9597
B( 25-C , 27-H ) :   0.9531 B( 25-C , 28-C ) :   1.0615 B( 28-C , 29-H ) :   0.9774
B( 28-C , 30-H ) :   0.9779 B( 28-C , 31-H ) :   0.9770

Dispersion correction           -0.014863722
FINAL SINGLE POINT ENERGY     -1339.880248527282

DIPOLE MOMENT
-------------
                                X             Y             Z
Electronic contribution:      2.47973      -6.50259      21.33015
Nuclear contribution   :     -2.63160       6.76094     -21.80137
                        -----------------------------------------
Total Dipole Moment    :     -0.15187       0.25835      -0.47121
                        -----------------------------------------
Magnitude (a.u.)       :      0.55844
Magnitude (Debye)      :      1.41943

Rotational constants in cm-1:     0.020186     0.007573     0.006971
Rotational constants in MHz :   605.160272   227.033395   208.987295

                             ****ORCA TERMINATED NORMALLY****
TOTAL RUN TIME: 0 days 0 hours 0 minutes 33 seconds 340 msec
