                         Program Version 4.2.1 -  RELEASE  -
|  1> ! wB97X-D3 SP def2-SVP
|  2> %pal
|  3> nprocs 16
|  4> end
|  5>
|  6> * xyz 0 1
|  7> S 	 44.0931 	 11.4695 	 87.506
|  8> C 	 45.6699 	 11.9407 	 87.9104
|  9> C 	 46.4667 	 10.8257 	 88.2845
| 10> C 	 45.7702 	 9.59037 	 88.1688
| 11> C 	 44.4679 	 9.7687 	 87.8292
| 12> H 	 46.1258 	 8.63341 	 88.4735
| 13> C 	 47.8909 	 10.8696 	 88.7594
| 14> H 	 48.2051 	 9.82306 	 88.9145
| 15> H 	 47.8233 	 11.3819 	 89.8134
| 16> C 	 48.9177 	 11.3799 	 87.7278
| 17> H 	 48.405 	 12.2509 	 87.3036
| 18> H 	 49.8017 	 11.7668 	 88.2352
| 19> C 	 49.38 	 10.5125 	 86.5899
| 20> H 	 48.5891 	 10.616 	 85.7682
| 21> H 	 50.3103 	 10.7923 	 86.0877
| 22> H 	 49.3321 	 9.49202 	 86.8471
| 23> S 	 42.0585 	 8.93798 	 88.8445
| 24> C 	 41.3167 	 7.51942 	 88.1843
| 25> C 	 42.1996 	 6.79218 	 87.3889
| 26> C 	 43.4012 	 7.5499 	 87.0759
| 27> C 	 43.4094 	 8.77746 	 87.7278
| 28> H 	 41.9575 	 5.85834 	 86.9083
| 29> C 	 44.4264 	 7.0643 	 86.1006
| 30> H 	 44.64 	 6.03276 	 86.3082
| 31> H 	 45.3448 	 7.67338 	 86.1802
| 32> C 	 43.8843 	 7.23193 	 84.6721
| 33> H 	 43.6861 	 8.32442 	 84.4667
| 34> H 	 42.9093 	 6.7723 	 84.5705
| 35> C 	 44.9217 	 6.73173 	 83.605
| 36> H 	 44.4426 	 6.84355 	 82.6119
| 37> H 	 45.0506 	 5.68145 	 83.7123
| 38> H 	 45.836 	 7.28449 	 83.5962
| 39> H 	 45.8941 	 12.9965 	 87.8874
| 40> H 	 40.3953 	 7.23207 	 88.4979
| 41> *
| 42>
| 43>                          ****END OF INPUT****

CARTESIAN COORDINATES (ANGSTROEM)
---------------------------------
  S     44.093100   11.469500   87.506000
  C     45.669900   11.940700   87.910400
  C     46.466700   10.825700   88.284500
  C     45.770200    9.590370   88.168800
  C     44.467900    9.768700   87.829200
  H     46.125800    8.633410   88.473500
  C     47.890900   10.869600   88.759400
  H     48.205100    9.823060   88.914500
  H     47.823300   11.381900   89.813400
  C     48.917700   11.379900   87.727800
  H     48.405000   12.250900   87.303600
  H     49.801700   11.766800   88.235200
  C     49.380000   10.512500   86.589900
  H     48.589100   10.616000   85.768200
  H     50.310300   10.792300   86.087700
  H     49.332100    9.492020   86.847100
  S     42.058500    8.937980   88.844500
  C     41.316700    7.519420   88.184300
  C     42.199600    6.792180   87.388900
  C     43.401200    7.549900   87.075900
  C     43.409400    8.777460   87.727800
  H     41.957500    5.858340   86.908300
  C     44.426400    7.064300   86.100600
  H     44.640000    6.032760   86.308200
  H     45.344800    7.673380   86.180200
  C     43.884300    7.231930   84.672100
  H     43.686100    8.324420   84.466700
  H     42.909300    6.772300   84.570500
  C     44.921700    6.731730   83.605000
  H     44.442600    6.843550   82.611900
  H     45.050600    5.681450   83.712300
  H     45.836000    7.284490   83.596200
  H     45.894100   12.996500   87.887400
  H     40.395300    7.232070   88.497900

 Total Charge           Charge          ....    0
 Multiplicity           Mult            ....    1
 Number of Electrons    NEL             ....  134
 Basis Dimension        Dim             ....  322

ORBITAL ENERGIES
----------------

  NO   OCC          E(Eh)            E(eV)
   0   2.0000     -88.964213     -2420.8393
   1   2.0000     -88.961814     -2420.7740
   2   2.0000     -10.323727      -280.9229
   3   2.0000     -10.320884      -280.8455
   4   2.0000     -10.313723      -280.6507
   5   2.0000     -10.312002      -280.6039
   6   2.0000     -10.302328      -280.3406
   7   2.0000     -10.301896      -280.3288
   8   2.0000     -10.299693      -280.2689
   9   2.0000     -10.296415      -280.1797
  10   2.0000     -10.290537      -280.0197
  11   2.0000     -10.288432      -279.9625
  12   2.0000     -10.287882      -279.9475
  13   2.0000     -10.283948      -279.8405
  14   2.0000     -10.279024      -279.7065
  15   2.0000     -10.275107      -279.5999
  16   2.0000      -8.079835      -219.8635
  17   2.0000      -8.077082      -219.7886
  18   2.0000      -6.038104      -164.3052
  19   2.0000      -6.035528      -164.2351
  20   2.0000      -6.034094      -164.1960
  21   2.0000      -6.031570      -164.1274
  22   2.0000      -6.030936      -164.1101
  23   2.0000      -6.027823      -164.0254
  24   2.0000      -1.007215       -27.4077
  25   2.0000      -0.984073       -26.7780
  26   2.0000      -0.910649       -24.7800
  27   2.0000      -0.908498       -24.7215
  28   2.0000      -0.869073       -23.6487
  29   2.0000      -0.855557       -23.2809
  30   2.0000      -0.845106       -22.9965
  31   2.0000      -0.813426       -22.1345
  32   2.0000      -0.781381       -21.2625
  33   2.0000      -0.766535       -20.8585
  34   2.0000      -0.702348       -19.1119
  35   2.0000      -0.699438       -19.0327
  36   2.0000      -0.692987       -18.8571
  37   2.0000      -0.665398       -18.1064
  38   2.0000      -0.650071       -17.6893
  39   2.0000      -0.610301       -16.6071
  40   2.0000      -0.598408       -16.2835
  41   2.0000      -0.570505       -15.5242
  42   2.0000      -0.565087       -15.3768
  43   2.0000      -0.556396       -15.1403
  44   2.0000      -0.535553       -14.5731
  45   2.0000      -0.519947       -14.1485
  46   2.0000      -0.516958       -14.0672
  47   2.0000      -0.513668       -13.9776
  48   2.0000      -0.504609       -13.7311
  49   2.0000      -0.495826       -13.4921
  50   2.0000      -0.490645       -13.3511
  51   2.0000      -0.481137       -13.0924
  52   2.0000      -0.474368       -12.9082
  53   2.0000      -0.471046       -12.8178
  54   2.0000      -0.459817       -12.5122
  55   2.0000      -0.452351       -12.3091
  56   2.0000      -0.443537       -12.0693
  57   2.0000      -0.435322       -11.8457
  58   2.0000      -0.434030       -11.8106
  59   2.0000      -0.426023       -11.5927
  60   2.0000      -0.416970       -11.3463
  61   2.0000      -0.409234       -11.1358
  62   2.0000      -0.405076       -11.0227
  63   2.0000      -0.347823        -9.4647
  64   2.0000      -0.326398        -8.8817
  65   2.0000      -0.326020        -8.8715
  66   2.0000      -0.291414        -7.9298
  67   0.0000       0.032897         0.8952
  68   0.0000       0.067914         1.8480
  69   0.0000       0.109611         2.9827
  70   0.0000       0.121970         3.3190
  71   0.0000       0.129065         3.5120

MULLIKEN ATOMIC CHARGES
-----------------------
   0 S :    0.118567
   1 C :   -0.128102
   2 C :   -0.112538
   3 C :    0.062793
   4 C :   -0.184330
   5 H :    0.008836
   6 C :    0.032896
   7 H :    0.013391
   8 H :    0.068790
   9 C :   -0.066317
  10 H :    0.019686
  11 H :    0.028465
  12 C :   -0.043170
  13 H :    0.033673
  14 H :    0.047564
  15 H :    0.017859
  16 S :    0.104737
  17 C :   -0.049010
  18 C :   -0.021244
  19 C :   -0.052374
  20 C :   -0.149741
  21 H :    0.016540
  22 C :    0.096149
  23 H :    0.021028
  24 H :    0.024459
  25 C :   -0.119802
  26 H :    0.038369
  27 H :    0.024177
  28 C :   -0.017025
  29 H :    0.031279
  30 H :    0.022495
  31 H :    0.037658
  32 H :    0.055522
  33 H :    0.018719
Sum of atomic charges:    0.0000000

LOEWDIN ATOMIC CHARGES
----------------------
   0 S :    0.425795
   1 C :   -0.215892
   2 C :   -0.069105
   3 C :   -0.057994
   4 C :   -0.191650
   5 H :    0.031408
   6 C :   -0.041432
   7 H :    0.025269
   8 H :    0.052757
   9 C :   -0.048593
  10 H :    0.022342
  11 H :    0.023633
  12 C :   -0.067141
  13 H :    0.035831
  14 H :    0.032400
  15 H :    0.015965
  16 S :    0.406266
  17 C :   -0.166756
  18 C :   -0.065317
  19 C :   -0.049836
  20 C :   -0.206209
  21 H :    0.027912
  22 C :   -0.032866
  23 H :    0.027437
  24 H :    0.033197
  25 C :   -0.037451
  26 H :    0.031349
  27 H :    0.018934
  28 C :   -0.062504
  29 H :    0.030592
  30 H :    0.018635
  31 H :    0.023243
  32 H :    0.024930
  33 H :    0.004849

  Mayer bond orders larger than 0.100000
B(  0-S ,  1-C ) :   1.1698 B(  0-S ,  4-C ) :   1.1669 B(  1-C ,  2-C ) :   1.5524
B(  1-C ,  4-C ) :   0.1026 B(  1-C , 32-H ) :   0.9749 B(  2-C ,  3-C ) :   1.2670
B(  2-C ,  6-C ) :   1.0224 B(  3-C ,  4-C ) :   1.5743 B(  3-C ,  5-H ) :   0.9946
B(  4-C , 20-C ) :   1.0102 B(  6-C ,  7-H ) :   0.9449 B(  6-C ,  8-H ) :   0.9379
B(  6-C ,  9-C ) :   1.0544 B(  9-C , 10-H ) :   0.9639 B(  9-C , 11-H ) :   0.9569
B(  9-C , 12-C ) :   1.0731 B( 12-C , 13-H ) :   0.9743 B( 12-C , 14-H ) :   0.9751
B( 12-C , 15-H ) :   0.9743 B( 16-S , 17-C ) :   1.1622 B( 16-S , 20-C ) :   1.1435
B( 17-C , 18-C ) :   1.5903 B( 17-C , 33-H ) :   0.9850 B( 18-C , 19-C ) :   1.2276
B( 18-C , 21-H ) :   0.9899 B( 19-C , 20-C ) :   1.6097 B( 19-C , 22-C ) :   1.0596
B( 22-C , 23-H ) :   0.9279 B( 22-C , 24-H ) :   0.9282 B( 22-C , 25-C ) :   1.0633
B( 25-C , 26-H ) :   0.9546 B( 25-C , 27-H ) :   0.9600 B( 25-C , 28-C ) :   1.0783
B( 28-C , 29-H ) :   0.9740 B( 28-C , 30-H ) :   0.9752 B( 28-C , 31-H ) :   0.9758

Dispersion correction           -0.014200882
FINAL SINGLE POINT ENERGY     -1339.878455609905

DIPOLE MOMENT
-------------
                                X             Y             Z
Electronic contribution:    -22.61055       7.60922      15.14317
Nuclear contribution   :     23.00926      -7.91900     -15.31187
                        -----------------------------------------
Total Dipole Moment    :      0.39872      -0.30979      -0.16870
                        -----------------------------------------
Magnitude (a.u.)       :      0.53235
Magnitude (Debye)      :      1.35314

Rotational constants in cm-1:     0.017900     0.009037     0.006823
Rotational constants in MHz :   536.639140   270.917295   204.563232

                             ****ORCA TERMINATED NORMALLY****
TOTAL RUN TIME: 0 days 0 hours 0 minutes 29 seconds 612 msec
