                         Program Version 4.2.1 -  RELEASE  -
|  1> ! wB97X-D3 SP def2-SVP
|  2> %pal
|  3> nprocs 16
|  4> end
|  5>
|  6> * xyz 0 1
|  7> S 	 -8.202 	 45.2213 	 40.2515
|  8> C 	 -9.69777 	 44.9206 	 41.1706
|  9> C 	 -9.3991 	 44.8098 	 42.4785
| 10> C 	 -8.01633 	 44.7771 	 42.7875
| 11> C 	 -7.23399 	 44.9623 	 41.6544
| 12> H 	 -7.52812 	 44.7704 	 43.7687
| 13> C 	 -10.4506 	 44.5659 	 43.5804
| 14> H 	 -11.0022 	 43.6432 	 43.2644
| 15> H 	 -11.2079 	 45.2816 	 43.4534
| 16> C 	 -10.0199 	 44.5861 	 45.0372
| 17> H 	 -10.8538 	 44.2758 	 45.6254
| 18> H 	 -9.28542 	 43.8038 	 44.9959
| 19> C 	 -9.38891 	 45.9567 	 45.5384
| 20> H 	 -8.83812 	 45.7629 	 46.4405
| 21> H 	 -8.70032 	 46.3199 	 44.7895
| 22> H 	 -10.2146 	 46.6819 	 45.7487
| 23> S 	 -4.9149 	 43.8154 	 42.2764
| 24> C 	 -3.40922 	 44.6671 	 42.0038
| 25> C 	 -3.59277 	 45.9754 	 41.6147
| 26> C 	 -4.96412 	 46.2387 	 41.3001
| 27> C 	 -5.80106 	 45.2155 	 41.7467
| 28> H 	 -2.77677 	 46.571 	 41.48
| 29> C 	 -5.49907 	 47.5226 	 40.6972
| 30> H 	 -6.61911 	 47.4691 	 40.4988
| 31> H 	 -5.00076 	 47.6782 	 39.7446
| 32> C 	 -5.4078 	 48.7682 	 41.6005
| 33> H 	 -4.35034 	 49.0663 	 41.44
| 34> H 	 -5.27801 	 48.5528 	 42.6522
| 35> C 	 -6.39758 	 49.8819 	 41.2959
| 36> H 	 -6.33121 	 50.6511 	 42.1291
| 37> H 	 -7.37354 	 49.3872 	 41.3431
| 38> H 	 -6.16502 	 50.311 	 40.3215
| 39> H 	 -10.6717 	 45.0115 	 40.8139
| 40> H 	 -2.42695 	 44.1952 	 42.0264
| 41> *
| 42>
| 43>                          ****END OF INPUT****

CARTESIAN COORDINATES (ANGSTROEM)
---------------------------------
  S     -8.202000   45.221300   40.251500
  C     -9.697770   44.920600   41.170600
  C     -9.399100   44.809800   42.478500
  C     -8.016330   44.777100   42.787500
  C     -7.233990   44.962300   41.654400
  H     -7.528120   44.770400   43.768700
  C    -10.450600   44.565900   43.580400
  H    -11.002200   43.643200   43.264400
  H    -11.207900   45.281600   43.453400
  C    -10.019900   44.586100   45.037200
  H    -10.853800   44.275800   45.625400
  H     -9.285420   43.803800   44.995900
  C     -9.388910   45.956700   45.538400
  H     -8.838120   45.762900   46.440500
  H     -8.700320   46.319900   44.789500
  H    -10.214600   46.681900   45.748700
  S     -4.914900   43.815400   42.276400
  C     -3.409220   44.667100   42.003800
  C     -3.592770   45.975400   41.614700
  C     -4.964120   46.238700   41.300100
  C     -5.801060   45.215500   41.746700
  H     -2.776770   46.571000   41.480000
  C     -5.499070   47.522600   40.697200
  H     -6.619110   47.469100   40.498800
  H     -5.000760   47.678200   39.744600
  C     -5.407800   48.768200   41.600500
  H     -4.350340   49.066300   41.440000
  H     -5.278010   48.552800   42.652200
  C     -6.397580   49.881900   41.295900
  H     -6.331210   50.651100   42.129100
  H     -7.373540   49.387200   41.343100
  H     -6.165020   50.311000   40.321500
  H    -10.671700   45.011500   40.813900
  H     -2.426950   44.195200   42.026400

 Total Charge           Charge          ....    0
 Multiplicity           Mult            ....    1
 Number of Electrons    NEL             ....  134
 Basis Dimension        Dim             ....  322

ORBITAL ENERGIES
----------------

  NO   OCC          E(Eh)            E(eV)
   0   2.0000     -88.967882     -2420.9392
   1   2.0000     -88.965271     -2420.8681
   2   2.0000     -10.326909      -281.0095
   3   2.0000     -10.323283      -280.9108
   4   2.0000     -10.316372      -280.7227
   5   2.0000     -10.305844      -280.4363
   6   2.0000     -10.305609      -280.4299
   7   2.0000     -10.297064      -280.1974
   8   2.0000     -10.291841      -280.0552
   9   2.0000     -10.290951      -280.0310
  10   2.0000     -10.290034      -280.0061
  11   2.0000     -10.286393      -279.9070
  12   2.0000     -10.285070      -279.8710
  13   2.0000     -10.283797      -279.8363
  14   2.0000     -10.282593      -279.8036
  15   2.0000     -10.280281      -279.7407
  16   2.0000      -8.081910      -219.9200
  17   2.0000      -8.080187      -219.8731
  18   2.0000      -6.040484      -164.3699
  19   2.0000      -6.038657      -164.3202
  20   2.0000      -6.036495      -164.2614
  21   2.0000      -6.034665      -164.2116
  22   2.0000      -6.032650      -164.1567
  23   2.0000      -6.030982      -164.1114
  24   2.0000      -1.009410       -27.4675
  25   2.0000      -0.985988       -26.8301
  26   2.0000      -0.910045       -24.7636
  27   2.0000      -0.906919       -24.6785
  28   2.0000      -0.873087       -23.7579
  29   2.0000      -0.851143       -23.1608
  30   2.0000      -0.839160       -22.8347
  31   2.0000      -0.817484       -22.2449
  32   2.0000      -0.785063       -21.3627
  33   2.0000      -0.770794       -20.9744
  34   2.0000      -0.709638       -19.3102
  35   2.0000      -0.699154       -19.0249
  36   2.0000      -0.690487       -18.7891
  37   2.0000      -0.665460       -18.1081
  38   2.0000      -0.637809       -17.3557
  39   2.0000      -0.623066       -16.9545
  40   2.0000      -0.597748       -16.2655
  41   2.0000      -0.571998       -15.5648
  42   2.0000      -0.560850       -15.2615
  43   2.0000      -0.547032       -14.8855
  44   2.0000      -0.536513       -14.5993
  45   2.0000      -0.528038       -14.3686
  46   2.0000      -0.518295       -14.1035
  47   2.0000      -0.516730       -14.0609
  48   2.0000      -0.503416       -13.6987
  49   2.0000      -0.495565       -13.4850
  50   2.0000      -0.488356       -13.2888
  51   2.0000      -0.481418       -13.1000
  52   2.0000      -0.475200       -12.9309
  53   2.0000      -0.466119       -12.6837
  54   2.0000      -0.459757       -12.5106
  55   2.0000      -0.449249       -12.2247
  56   2.0000      -0.448361       -12.2005
  57   2.0000      -0.435573       -11.8525
  58   2.0000      -0.431127       -11.7316
  59   2.0000      -0.429190       -11.6789
  60   2.0000      -0.419160       -11.4059
  61   2.0000      -0.414675       -11.2839
  62   2.0000      -0.396050       -10.7771
  63   2.0000      -0.345381        -9.3983
  64   2.0000      -0.332200        -9.0396
  65   2.0000      -0.328074        -8.9273
  66   2.0000      -0.291461        -7.9311
  67   0.0000       0.034764         0.9460
  68   0.0000       0.066433         1.8077
  69   0.0000       0.112698         3.0667
  70   0.0000       0.118556         3.2261
  71   0.0000       0.131964         3.5909

MULLIKEN ATOMIC CHARGES
-----------------------
   0 S :    0.113053
   1 C :   -0.111167
   2 C :   -0.065197
   3 C :   -0.019861
   4 C :   -0.108803
   5 H :    0.030367
   6 C :    0.053597
   7 H :    0.043221
   8 H :   -0.000002
   9 C :   -0.056593
  10 H :    0.029612
  11 H :    0.026362
  12 C :   -0.058939
  13 H :    0.038024
  14 H :    0.040986
  15 H :    0.045218
  16 S :    0.112357
  17 C :   -0.098547
  18 C :    0.007815
  19 C :   -0.039017
  20 C :   -0.181797
  21 H :   -0.017342
  22 C :    0.046736
  23 H :    0.022855
  24 H :    0.035221
  25 C :   -0.095897
  26 H :    0.009772
  27 H :    0.027504
  28 C :   -0.045784
  29 H :    0.046808
  30 H :    0.045369
  31 H :    0.042899
  32 H :    0.019859
  33 H :    0.061310
Sum of atomic charges:   -0.0000000

LOEWDIN ATOMIC CHARGES
----------------------
   0 S :    0.416702
   1 C :   -0.185667
   2 C :   -0.058797
   3 C :   -0.078731
   4 C :   -0.201444
   5 H :    0.034972
   6 C :   -0.036307
   7 H :    0.041164
   8 H :    0.017017
   9 C :   -0.038141
  10 H :    0.025084
  11 H :    0.020206
  12 C :   -0.061928
  13 H :    0.025928
  14 H :    0.024399
  15 H :    0.032523
  16 S :    0.416790
  17 C :   -0.181689
  18 C :   -0.058492
  19 C :   -0.052719
  20 C :   -0.198871
  21 H :    0.016710
  22 C :   -0.038520
  23 H :    0.023646
  24 H :    0.030306
  25 C :   -0.056046
  26 H :    0.020321
  27 H :    0.022860
  28 C :   -0.063533
  29 H :    0.037053
  30 H :    0.028672
  31 H :    0.027646
  32 H :    0.018078
  33 H :    0.030809

  Mayer bond orders larger than 0.100000
B(  0-S ,  1-C ) :   1.1134 B(  0-S ,  4-C ) :   1.1670 B(  1-C ,  2-C ) :   1.6374
B(  1-C , 32-H ) :   0.9820 B(  2-C ,  3-C ) :   1.2449 B(  2-C ,  6-C ) :   0.9915
B(  3-C ,  4-C ) :   1.5439 B(  3-C ,  5-H ) :   0.9827 B(  4-C , 20-C ) :   1.0102
B(  6-C ,  7-H ) :   0.9421 B(  6-C ,  8-H ) :   0.9305 B(  6-C ,  9-C ) :   1.0754
B(  9-C , 10-H ) :   0.9526 B(  9-C , 11-H ) :   0.9512 B(  9-C , 12-C ) :   1.0676
B( 12-C , 13-H ) :   0.9761 B( 12-C , 14-H ) :   0.9766 B( 12-C , 15-H ) :   0.9746
B( 16-S , 17-C ) :   1.1573 B( 16-S , 20-C ) :   1.1489 B( 17-C , 18-C ) :   1.6155
B( 17-C , 33-H ) :   0.9654 B( 18-C , 19-C ) :   1.2139 B( 18-C , 21-H ) :   1.0081
B( 19-C , 20-C ) :   1.6070 B( 19-C , 22-C ) :   1.0494 B( 22-C , 23-H ) :   0.9419
B( 22-C , 24-H ) :   0.9288 B( 22-C , 25-C ) :   1.0374 B( 25-C , 26-H ) :   0.9467
B( 25-C , 27-H ) :   0.9616 B( 25-C , 28-C ) :   1.0812 B( 28-C , 29-H ) :   0.9733
B( 28-C , 30-H ) :   0.9749 B( 28-C , 31-H ) :   0.9749

Dispersion correction           -0.014498991
FINAL SINGLE POINT ENERGY     -1339.864430766167

DIPOLE MOMENT
-------------
                                X             Y             Z
Electronic contribution:      8.33785     -16.98047     -11.98348
Nuclear contribution   :     -8.40303      17.35202      12.22995
                        -----------------------------------------
Total Dipole Moment    :     -0.06518       0.37155       0.24647
                        -----------------------------------------
Magnitude (a.u.)       :      0.45061
Magnitude (Debye)      :      1.14535

Rotational constants in cm-1:     0.016631     0.009339     0.008186
Rotational constants in MHz :   498.579768   279.973898   245.411210

                             ****ORCA TERMINATED NORMALLY****
TOTAL RUN TIME: 0 days 0 hours 0 minutes 34 seconds 409 msec
