                         Program Version 4.2.1 -  RELEASE  -
|  1> ! wB97X-D3 SP def2-SVP
|  2> %pal
|  3> nprocs 16
|  4> end
|  5>
|  6> * xyz 0 1
|  7> S 	 45.9272 	 5.38389 	 89.2089
|  8> C 	 46.7274 	 6.6678 	 88.4858
|  9> C 	 47.8449 	 6.29699 	 87.8179
| 10> C 	 48.165 	 4.92231 	 87.9233
| 11> C 	 47.1594 	 4.28474 	 88.6333
| 12> H 	 48.9881 	 4.31561 	 87.5945
| 13> C 	 48.7078 	 7.16868 	 86.9578
| 14> H 	 49.4075 	 7.7261 	 87.6712
| 15> H 	 48.0388 	 7.87445 	 86.4761
| 16> C 	 49.6133 	 6.61357 	 85.9199
| 17> H 	 50.2042 	 7.46397 	 85.4576
| 18> H 	 50.3058 	 5.95649 	 86.4627
| 19> C 	 48.829 	 5.73378 	 84.8511
| 20> H 	 48.7115 	 4.67827 	 85.1215
| 21> H 	 47.8876 	 6.07617 	 84.5309
| 22> H 	 49.2085 	 5.69506 	 83.8905
| 23> S 	 47.4836 	 2.46462 	 90.7406
| 24> C 	 47.9082 	 0.820614 	 90.2401
| 25> C 	 47.6666 	 0.601373 	 88.9022
| 26> C 	 47.2855 	 1.79394 	 88.1973
| 27> C 	 47.2419 	 2.90764 	 89.0119
| 28> H 	 47.7379 	 -0.33115 	 88.3955
| 29> C 	 47.2359 	 1.81038 	 86.6605
| 30> H 	 47.9491 	 1.08025 	 86.2787
| 31> H 	 47.6859 	 2.66647 	 86.3527
| 32> C 	 45.789 	 1.70243 	 86.091
| 33> H 	 45.1298 	 2.5822 	 86.4047
| 34> H 	 45.3131 	 0.78064 	 86.4808
| 35> C 	 45.5988 	 1.67498 	 84.5917
| 36> H 	 46.0224 	 2.63135 	 84.1692
| 37> H 	 44.5631 	 1.56491 	 84.3395
| 38> H 	 46.2149 	 0.817002 	 84.1309
| 39> H 	 46.3836 	 7.71236 	 88.4327
| 40> H 	 48.0824 	 0.0138729 	 90.9596
| 41> *
| 42>
| 43>                          ****END OF INPUT****

CARTESIAN COORDINATES (ANGSTROEM)
---------------------------------
  S     45.927200    5.383890   89.208900
  C     46.727400    6.667800   88.485800
  C     47.844900    6.296990   87.817900
  C     48.165000    4.922310   87.923300
  C     47.159400    4.284740   88.633300
  H     48.988100    4.315610   87.594500
  C     48.707800    7.168680   86.957800
  H     49.407500    7.726100   87.671200
  H     48.038800    7.874450   86.476100
  C     49.613300    6.613570   85.919900
  H     50.204200    7.463970   85.457600
  H     50.305800    5.956490   86.462700
  C     48.829000    5.733780   84.851100
  H     48.711500    4.678270   85.121500
  H     47.887600    6.076170   84.530900
  H     49.208500    5.695060   83.890500
  S     47.483600    2.464620   90.740600
  C     47.908200    0.820614   90.240100
  C     47.666600    0.601373   88.902200
  C     47.285500    1.793940   88.197300
  C     47.241900    2.907640   89.011900
  H     47.737900   -0.331150   88.395500
  C     47.235900    1.810380   86.660500
  H     47.949100    1.080250   86.278700
  H     47.685900    2.666470   86.352700
  C     45.789000    1.702430   86.091000
  H     45.129800    2.582200   86.404700
  H     45.313100    0.780640   86.480800
  C     45.598800    1.674980   84.591700
  H     46.022400    2.631350   84.169200
  H     44.563100    1.564910   84.339500
  H     46.214900    0.817002   84.130900
  H     46.383600    7.712360   88.432700
  H     48.082400    0.013873   90.959600

 Total Charge           Charge          ....    0
 Multiplicity           Mult            ....    1
 Number of Electrons    NEL             ....  134
 Basis Dimension        Dim             ....  322

ORBITAL ENERGIES
----------------

  NO   OCC          E(Eh)            E(eV)
   0   2.0000     -88.968359     -2420.9521
   1   2.0000     -88.963507     -2420.8201
   2   2.0000     -10.323517      -280.9172
   3   2.0000     -10.321773      -280.8697
   4   2.0000     -10.319161      -280.7987
   5   2.0000     -10.305553      -280.4284
   6   2.0000     -10.301071      -280.3064
   7   2.0000     -10.298188      -280.2280
   8   2.0000     -10.293677      -280.1052
   9   2.0000     -10.291499      -280.0459
  10   2.0000     -10.291103      -280.0352
  11   2.0000     -10.290454      -280.0175
  12   2.0000     -10.288930      -279.9760
  13   2.0000     -10.287492      -279.9369
  14   2.0000     -10.282874      -279.8112
  15   2.0000     -10.271268      -279.4954
  16   2.0000      -8.084312      -219.9853
  17   2.0000      -8.077375      -219.7965
  18   2.0000      -6.042622      -164.4281
  19   2.0000      -6.038713      -164.3217
  20   2.0000      -6.035982      -164.2474
  21   2.0000      -6.035155      -164.2249
  22   2.0000      -6.032169      -164.1437
  23   2.0000      -6.027915      -164.0279
  24   2.0000      -1.012865       -27.5615
  25   2.0000      -0.982762       -26.7423
  26   2.0000      -0.915922       -24.9235
  27   2.0000      -0.902952       -24.5706
  28   2.0000      -0.873913       -23.7804
  29   2.0000      -0.851058       -23.1585
  30   2.0000      -0.846735       -23.0408
  31   2.0000      -0.814000       -22.1501
  32   2.0000      -0.790014       -21.4974
  33   2.0000      -0.774521       -21.0758
  34   2.0000      -0.711331       -19.3563
  35   2.0000      -0.694335       -18.8938
  36   2.0000      -0.687464       -18.7069
  37   2.0000      -0.662373       -18.0241
  38   2.0000      -0.644467       -17.5368
  39   2.0000      -0.620238       -16.8775
  40   2.0000      -0.596171       -16.2227
  41   2.0000      -0.563568       -15.3355
  42   2.0000      -0.556675       -15.1479
  43   2.0000      -0.555603       -15.1187
  44   2.0000      -0.534908       -14.5556
  45   2.0000      -0.531157       -14.4535
  46   2.0000      -0.517558       -14.0835
  47   2.0000      -0.510874       -13.9016
  48   2.0000      -0.504610       -13.7311
  49   2.0000      -0.498891       -13.5755
  50   2.0000      -0.491956       -13.3868
  51   2.0000      -0.483038       -13.1441
  52   2.0000      -0.467988       -12.7346
  53   2.0000      -0.465910       -12.6781
  54   2.0000      -0.457007       -12.4358
  55   2.0000      -0.449985       -12.2447
  56   2.0000      -0.447473       -12.1763
  57   2.0000      -0.433709       -11.8018
  58   2.0000      -0.429841       -11.6966
  59   2.0000      -0.428008       -11.6467
  60   2.0000      -0.420869       -11.4524
  61   2.0000      -0.413707       -11.2575
  62   2.0000      -0.409287       -11.1373
  63   2.0000      -0.344800        -9.3825
  64   2.0000      -0.330227        -8.9859
  65   2.0000      -0.325517        -8.8578
  66   2.0000      -0.295478        -8.0404
  67   0.0000       0.036397         0.9904
  68   0.0000       0.062496         1.7006
  69   0.0000       0.115891         3.1536
  70   0.0000       0.122040         3.3209
  71   0.0000       0.130794         3.5591

MULLIKEN ATOMIC CHARGES
-----------------------
   0 S :    0.137855
   1 C :   -0.123780
   2 C :   -0.066190
   3 C :    0.026087
   4 C :   -0.189647
   5 H :    0.021105
   6 C :    0.048026
   7 H :    0.048206
   8 H :    0.021175
   9 C :   -0.070595
  10 H :    0.050536
  11 H :    0.031548
  12 C :   -0.023173
  13 H :    0.032131
  14 H :    0.009488
  15 H :    0.003500
  16 S :    0.100913
  17 C :   -0.095763
  18 C :   -0.015041
  19 C :   -0.058526
  20 C :   -0.167331
  21 H :    0.008702
  22 C :    0.174140
  23 H :    0.014044
  24 H :   -0.045744
  25 C :   -0.113116
  26 H :    0.046198
  27 H :    0.029844
  28 C :   -0.054932
  29 H :    0.034195
  30 H :    0.041397
  31 H :    0.032239
  32 H :    0.047168
  33 H :    0.065342
Sum of atomic charges:   -0.0000000

LOEWDIN ATOMIC CHARGES
----------------------
   0 S :    0.440003
   1 C :   -0.225603
   2 C :   -0.069879
   3 C :   -0.049692
   4 C :   -0.197958
   5 H :    0.034064
   6 C :   -0.042643
   7 H :    0.043229
   8 H :    0.025649
   9 C :   -0.039531
  10 H :    0.039124
  11 H :    0.024198
  12 C :   -0.074041
  13 H :    0.027207
  14 H :    0.022233
  15 H :    0.019135
  16 S :    0.371206
  17 C :   -0.178129
  18 C :   -0.066880
  19 C :   -0.048893
  20 C :   -0.185871
  21 H :    0.026936
  22 C :   -0.022408
  23 H :    0.031378
  24 H :    0.010686
  25 C :   -0.047220
  26 H :    0.035892
  27 H :    0.023283
  28 C :   -0.072072
  29 H :    0.027061
  30 H :    0.024642
  31 H :    0.027432
  32 H :    0.035799
  33 H :    0.031660

  Mayer bond orders larger than 0.100000
B(  0-S ,  1-C ) :   1.1407 B(  0-S ,  4-C ) :   1.1621 B(  1-C ,  2-C ) :   1.6326
B(  1-C , 32-H ) :   0.9613 B(  2-C ,  3-C ) :   1.2305 B(  2-C ,  6-C ) :   1.0039
B(  3-C ,  4-C ) :   1.5720 B(  3-C ,  5-H ) :   0.9894 B(  4-C , 20-C ) :   1.0474
B(  6-C ,  7-H ) :   0.9282 B(  6-C ,  8-H ) :   0.9428 B(  6-C ,  9-C ) :   1.1006
B(  9-C , 10-H ) :   0.9533 B(  9-C , 11-H ) :   0.9474 B(  9-C , 12-C ) :   1.0549
B( 12-C , 13-H ) :   0.9764 B( 12-C , 14-H ) :   0.9732 B( 12-C , 15-H ) :   0.9672
B( 16-S , 17-C ) :   1.1403 B( 16-S , 20-C ) :   1.1155 B( 17-C , 18-C ) :   1.6214
B( 17-C , 33-H ) :   0.9635 B( 18-C , 19-C ) :   1.2324 B( 18-C , 21-H ) :   0.9920
B( 19-C , 20-C ) :   1.6228 B( 19-C , 22-C ) :   1.0324 B( 22-C , 23-H ) :   0.9342
B( 22-C , 24-H ) :   0.9134 B( 22-C , 25-C ) :   1.0471 B( 25-C , 26-H ) :   0.9551
B( 25-C , 27-H ) :   0.9587 B( 25-C , 28-C ) :   1.0898 B( 28-C , 29-H ) :   0.9730
B( 28-C , 30-H ) :   0.9737 B( 28-C , 31-H ) :   0.9721

Dispersion correction           -0.015338763
FINAL SINGLE POINT ENERGY     -1339.862708812079

DIPOLE MOMENT
-------------
                                X             Y             Z
Electronic contribution:     -5.06192      -0.38472      28.61003
Nuclear contribution   :      5.31333       0.40633     -29.24888
                        -----------------------------------------
Total Dipole Moment    :      0.25142       0.02161      -0.63885
                        -----------------------------------------
Magnitude (a.u.)       :      0.68688
Magnitude (Debye)      :      1.74590

Rotational constants in cm-1:     0.015971     0.010516     0.007988
Rotational constants in MHz :   478.811716   315.253291   239.475126

                             ****ORCA TERMINATED NORMALLY****
TOTAL RUN TIME: 0 days 0 hours 0 minutes 30 seconds 463 msec
