                         Program Version 4.2.1 -  RELEASE  -
|  1> ! wB97X-D3 SP def2-SVP
|  2> %pal
|  3> nprocs 16
|  4> end
|  5>
|  6> * xyz 0 1
|  7> S 	 -15.0455 	 -11.2996 	 89.0008
|  8> C 	 -13.5335 	 -12.29 	 89.1111
|  9> C 	 -13.7341 	 -13.2671 	 90.0727
| 10> C 	 -15.0658 	 -13.2953 	 90.5801
| 11> C 	 -15.8796 	 -12.1979 	 90.2072
| 12> H 	 -15.4311 	 -14.0812 	 91.2495
| 13> C 	 -12.7908 	 -14.4129 	 90.5458
| 14> H 	 -12.4978 	 -14.9903 	 89.688
| 15> H 	 -13.3461 	 -15.1451 	 91.0809
| 16> C 	 -11.5055 	 -13.9362 	 91.1331
| 17> H 	 -11.1104 	 -13.0869 	 90.5966
| 18> H 	 -11.7379 	 -13.6369 	 92.1886
| 19> C 	 -10.4595 	 -15.0684 	 91.0962
| 20> H 	 -10.0791 	 -15.0468 	 90.1088
| 21> H 	 -9.57748 	 -14.9947 	 91.73
| 22> H 	 -10.8178 	 -16.0958 	 91.1614
| 23> S 	 -18.1272 	 -13.0923 	 91.5072
| 24> C 	 -19.1968 	 -11.9849 	 92.2559
| 25> C 	 -18.87 	 -10.6805 	 91.9419
| 26> C 	 -17.7487 	 -10.5643 	 91.1103
| 27> C 	 -17.1705 	 -11.783 	 90.7726
| 28> H 	 -19.4949 	 -9.90054 	 92.2745
| 29> C 	 -17.4691 	 -9.26505 	 90.4331
| 30> H 	 -18.1109 	 -9.28362 	 89.5489
| 31> H 	 -16.5124 	 -9.19236 	 90.0435
| 32> C 	 -17.706 	 -8.03901 	 91.3236
| 33> H 	 -17.3133 	 -8.25078 	 92.3513
| 34> H 	 -18.7321 	 -7.75867 	 91.5166
| 35> C 	 -16.9251 	 -6.83859 	 90.6734
| 36> H 	 -16.7798 	 -5.90787 	 91.1889
| 37> H 	 -17.4342 	 -6.52278 	 89.6699
| 38> H 	 -15.8534 	 -7.05109 	 90.4805
| 39> H 	 -12.5628 	 -12.0766 	 88.6222
| 40> H 	 -20.0076 	 -12.2674 	 92.9538
| 41> *
| 42>
| 43>                          ****END OF INPUT****

CARTESIAN COORDINATES (ANGSTROEM)
---------------------------------
  S    -15.045500  -11.299600   89.000800
  C    -13.533500  -12.290000   89.111100
  C    -13.734100  -13.267100   90.072700
  C    -15.065800  -13.295300   90.580100
  C    -15.879600  -12.197900   90.207200
  H    -15.431100  -14.081200   91.249500
  C    -12.790800  -14.412900   90.545800
  H    -12.497800  -14.990300   89.688000
  H    -13.346100  -15.145100   91.080900
  C    -11.505500  -13.936200   91.133100
  H    -11.110400  -13.086900   90.596600
  H    -11.737900  -13.636900   92.188600
  C    -10.459500  -15.068400   91.096200
  H    -10.079100  -15.046800   90.108800
  H     -9.577480  -14.994700   91.730000
  H    -10.817800  -16.095800   91.161400
  S    -18.127200  -13.092300   91.507200
  C    -19.196800  -11.984900   92.255900
  C    -18.870000  -10.680500   91.941900
  C    -17.748700  -10.564300   91.110300
  C    -17.170500  -11.783000   90.772600
  H    -19.494900   -9.900540   92.274500
  C    -17.469100   -9.265050   90.433100
  H    -18.110900   -9.283620   89.548900
  H    -16.512400   -9.192360   90.043500
  C    -17.706000   -8.039010   91.323600
  H    -17.313300   -8.250780   92.351300
  H    -18.732100   -7.758670   91.516600
  C    -16.925100   -6.838590   90.673400
  H    -16.779800   -5.907870   91.188900
  H    -17.434200   -6.522780   89.669900
  H    -15.853400   -7.051090   90.480500
  H    -12.562800  -12.076600   88.622200
  H    -20.007600  -12.267400   92.953800

 Total Charge           Charge          ....    0
 Multiplicity           Mult            ....    1
 Number of Electrons    NEL             ....  134
 Basis Dimension        Dim             ....  322

ORBITAL ENERGIES
----------------

  NO   OCC          E(Eh)            E(eV)
   0   2.0000     -88.968533     -2420.9568
   1   2.0000     -88.965782     -2420.8820
   2   2.0000     -10.336307      -281.2652
   3   2.0000     -10.331094      -281.1234
   4   2.0000     -10.320772      -280.8425
   5   2.0000     -10.319600      -280.8106
   6   2.0000     -10.303761      -280.3796
   7   2.0000     -10.302181      -280.3366
   8   2.0000     -10.294236      -280.1204
   9   2.0000     -10.293258      -280.0938
  10   2.0000     -10.287905      -279.9481
  11   2.0000     -10.287712      -279.9429
  12   2.0000     -10.287425      -279.9351
  13   2.0000     -10.286690      -279.9151
  14   2.0000     -10.284727      -279.8617
  15   2.0000     -10.274282      -279.5774
  16   2.0000      -8.082152      -219.9265
  17   2.0000      -8.080701      -219.8870
  18   2.0000      -6.040805      -164.3787
  19   2.0000      -6.039116      -164.3327
  20   2.0000      -6.036634      -164.2652
  21   2.0000      -6.035117      -164.2239
  22   2.0000      -6.032994      -164.1661
  23   2.0000      -6.031635      -164.1291
  24   2.0000      -1.007535       -27.4164
  25   2.0000      -0.983723       -26.7685
  26   2.0000      -0.917068       -24.9547
  27   2.0000      -0.913170       -24.8486
  28   2.0000      -0.868994       -23.6465
  29   2.0000      -0.850292       -23.1376
  30   2.0000      -0.842100       -22.9147
  31   2.0000      -0.807240       -21.9661
  32   2.0000      -0.784157       -21.3380
  33   2.0000      -0.773487       -21.0477
  34   2.0000      -0.714409       -19.4401
  35   2.0000      -0.705658       -19.2019
  36   2.0000      -0.697982       -18.9931
  37   2.0000      -0.661945       -18.0124
  38   2.0000      -0.630747       -17.1635
  39   2.0000      -0.618074       -16.8186
  40   2.0000      -0.604718       -16.4552
  41   2.0000      -0.574703       -15.6385
  42   2.0000      -0.566428       -15.4133
  43   2.0000      -0.563073       -15.3220
  44   2.0000      -0.526373       -14.3233
  45   2.0000      -0.521357       -14.1868
  46   2.0000      -0.519231       -14.1290
  47   2.0000      -0.514059       -13.9882
  48   2.0000      -0.506524       -13.7832
  49   2.0000      -0.500148       -13.6097
  50   2.0000      -0.479500       -13.0479
  51   2.0000      -0.475737       -12.9455
  52   2.0000      -0.471598       -12.8328
  53   2.0000      -0.467900       -12.7322
  54   2.0000      -0.460766       -12.5381
  55   2.0000      -0.451322       -12.2811
  56   2.0000      -0.446909       -12.1610
  57   2.0000      -0.439712       -11.9652
  58   2.0000      -0.434919       -11.8347
  59   2.0000      -0.425343       -11.5742
  60   2.0000      -0.418297       -11.3824
  61   2.0000      -0.414503       -11.2792
  62   2.0000      -0.409858       -11.1528
  63   2.0000      -0.354453        -9.6451
  64   2.0000      -0.332820        -9.0565
  65   2.0000      -0.330023        -8.9804
  66   2.0000      -0.282020        -7.6741
  67   0.0000       0.018575         0.5054
  68   0.0000       0.081395         2.2149
  69   0.0000       0.109470         2.9788
  70   0.0000       0.116802         3.1783
  71   0.0000       0.128420         3.4945

MULLIKEN ATOMIC CHARGES
-----------------------
   0 S :    0.092703
   1 C :   -0.143945
   2 C :   -0.072346
   3 C :   -0.017693
   4 C :   -0.113693
   5 H :    0.020666
   6 C :    0.082452
   7 H :    0.016320
   8 H :    0.012399
   9 C :   -0.062412
  10 H :    0.031761
  11 H :    0.039041
  12 C :   -0.050969
  13 H :    0.014838
  14 H :    0.035338
  15 H :    0.027842
  16 S :    0.093322
  17 C :   -0.091458
  18 C :   -0.027218
  19 C :   -0.042435
  20 C :   -0.134350
  21 H :    0.003177
  22 C :    0.104932
  23 H :    0.050222
  24 H :   -0.005461
  25 C :   -0.092217
  26 H :    0.041427
  27 H :    0.036763
  28 C :   -0.088512
  29 H :    0.025910
  30 H :    0.042038
  31 H :    0.038009
  32 H :    0.062659
  33 H :    0.070890
Sum of atomic charges:    0.0000000

LOEWDIN ATOMIC CHARGES
----------------------
   0 S :    0.408576
   1 C :   -0.201087
   2 C :   -0.054342
   3 C :   -0.083573
   4 C :   -0.195771
   5 H :    0.025841
   6 C :   -0.025640
   7 H :    0.028582
   8 H :    0.025731
   9 C :   -0.036234
  10 H :    0.024229
  11 H :    0.028561
  12 C :   -0.070528
  13 H :    0.021519
  14 H :    0.026419
  15 H :    0.025473
  16 S :    0.416751
  17 C :   -0.191225
  18 C :   -0.073653
  19 C :   -0.053408
  20 C :   -0.189711
  21 H :    0.025879
  22 C :   -0.026645
  23 H :    0.043224
  24 H :    0.010051
  25 C :   -0.040736
  26 H :    0.031130
  27 H :    0.021350
  28 C :   -0.080018
  29 H :    0.019633
  30 H :    0.035549
  31 H :    0.028727
  32 H :    0.036820
  33 H :    0.038522

  Mayer bond orders larger than 0.100000
B(  0-S ,  1-C ) :   1.1177 B(  0-S ,  4-C ) :   1.1711 B(  1-C ,  2-C ) :   1.6005
B(  1-C , 32-H ) :   0.9657 B(  2-C ,  3-C ) :   1.2888 B(  2-C ,  6-C ) :   0.9989
B(  3-C ,  4-C ) :   1.5242 B(  3-C ,  5-H ) :   0.9796 B(  4-C , 20-C ) :   1.0572
B(  6-C ,  7-H ) :   0.9427 B(  6-C ,  8-H ) :   0.9435 B(  6-C ,  9-C ) :   1.0522
B(  9-C , 10-H ) :   0.9646 B(  9-C , 11-H ) :   0.9563 B(  9-C , 12-C ) :   1.0641
B( 12-C , 13-H ) :   0.9723 B( 12-C , 14-H ) :   0.9759 B( 12-C , 15-H ) :   0.9771
B( 16-S , 17-C ) :   1.1811 B( 16-S , 20-C ) :   1.1351 B( 17-C , 18-C ) :   1.5733
B( 17-C , 33-H ) :   0.9615 B( 18-C , 19-C ) :   1.2658 B( 18-C , 21-H ) :   1.0003
B( 19-C , 20-C ) :   1.5524 B( 19-C , 22-C ) :   1.0468 B( 22-C , 23-H ) :   0.9272
B( 22-C , 24-H ) :   0.9290 B( 22-C , 25-C ) :   1.0472 B( 25-C , 26-H ) :   0.9645
B( 25-C , 27-H ) :   0.9508 B( 25-C , 28-C ) :   1.0722 B( 28-C , 29-H ) :   0.9768
B( 28-C , 30-H ) :   0.9733 B( 28-C , 31-H ) :   0.9754

Dispersion correction           -0.013238453
FINAL SINGLE POINT ENERGY     -1339.863976904740

DIPOLE MOMENT
-------------
                                X             Y             Z
Electronic contribution:    -15.55905      -6.53291      -3.88756
Nuclear contribution   :     15.69359       6.64561       4.12619
                        -----------------------------------------
Total Dipole Moment    :      0.13454       0.11270       0.23864
                        -----------------------------------------
Magnitude (a.u.)       :      0.29623
Magnitude (Debye)      :      0.75295

Rotational constants in cm-1:     0.021149     0.007141     0.005884
Rotational constants in MHz :   634.024922   214.076861   176.411855

                             ****ORCA TERMINATED NORMALLY****
TOTAL RUN TIME: 0 days 0 hours 0 minutes 31 seconds 714 msec
