                         Program Version 4.2.1 -  RELEASE  -
|  1> ! wB97X-D3 SP def2-SVP
|  2> %pal
|  3> nprocs 16
|  4> end
|  5>
|  6> * xyz 0 1
|  7> S 	 34.5593 	 17.4299 	 64.0611
|  8> C 	 34.1159 	 18.3718 	 65.4152
|  9> C 	 35.1248 	 18.4226 	 66.3886
| 10> C 	 36.3733 	 17.8684 	 65.9251
| 11> C 	 36.2364 	 17.2473 	 64.6809
| 12> H 	 37.3385 	 17.8722 	 66.424
| 13> C 	 34.9026 	 19.1301 	 67.7006
| 14> H 	 34.9055 	 18.3893 	 68.4677
| 15> H 	 33.8799 	 19.5756 	 67.6985
| 16> C 	 35.7799 	 20.324 	 67.9279
| 17> H 	 36.8359 	 20.041 	 67.7977
| 18> H 	 35.5235 	 21.1595 	 67.2221
| 19> C 	 35.4514 	 20.8535 	 69.3264
| 20> H 	 36.1981 	 21.6112 	 69.3586
| 21> H 	 34.5078 	 21.3838 	 69.4558
| 22> H 	 35.6451 	 20.2088 	 70.1921
| 23> S 	 37.4299 	 17.3478 	 62.2391
| 24> C 	 38.8667 	 16.3704 	 61.9766
| 25> C 	 39.2297 	 15.5945 	 63.0637
| 26> C 	 38.3538 	 15.7822 	 64.1927
| 27> C 	 37.3433 	 16.6529 	 63.9138
| 28> H 	 39.9612 	 14.9068 	 62.8334
| 29> C 	 38.5753 	 14.9312 	 65.4136
| 30> H 	 38.1573 	 15.594 	 66.2759
| 31> H 	 39.6901 	 14.8298 	 65.4195
| 32> C 	 37.7914 	 13.6521 	 65.4834
| 33> H 	 38.3338 	 12.9688 	 66.1336
| 34> H 	 37.6733 	 13.2495 	 64.4929
| 35> C 	 36.4001 	 13.7709 	 65.9139
| 36> H 	 35.8937 	 14.5628 	 65.3461
| 37> H 	 36.181 	 14.0152 	 66.9792
| 38> H 	 35.8552 	 12.8995 	 65.5704
| 39> H 	 33.1582 	 18.7566 	 65.6084
| 40> H 	 39.532 	 16.3505 	 61.0821
| 41> *
| 42>
| 43>                          ****END OF INPUT****

CARTESIAN COORDINATES (ANGSTROEM)
---------------------------------
  S     34.559300   17.429900   64.061100
  C     34.115900   18.371800   65.415200
  C     35.124800   18.422600   66.388600
  C     36.373300   17.868400   65.925100
  C     36.236400   17.247300   64.680900
  H     37.338500   17.872200   66.424000
  C     34.902600   19.130100   67.700600
  H     34.905500   18.389300   68.467700
  H     33.879900   19.575600   67.698500
  C     35.779900   20.324000   67.927900
  H     36.835900   20.041000   67.797700
  H     35.523500   21.159500   67.222100
  C     35.451400   20.853500   69.326400
  H     36.198100   21.611200   69.358600
  H     34.507800   21.383800   69.455800
  H     35.645100   20.208800   70.192100
  S     37.429900   17.347800   62.239100
  C     38.866700   16.370400   61.976600
  C     39.229700   15.594500   63.063700
  C     38.353800   15.782200   64.192700
  C     37.343300   16.652900   63.913800
  H     39.961200   14.906800   62.833400
  C     38.575300   14.931200   65.413600
  H     38.157300   15.594000   66.275900
  H     39.690100   14.829800   65.419500
  C     37.791400   13.652100   65.483400
  H     38.333800   12.968800   66.133600
  H     37.673300   13.249500   64.492900
  C     36.400100   13.770900   65.913900
  H     35.893700   14.562800   65.346100
  H     36.181000   14.015200   66.979200
  H     35.855200   12.899500   65.570400
  H     33.158200   18.756600   65.608400
  H     39.532000   16.350500   61.082100

 Total Charge           Charge          ....    0
 Multiplicity           Mult            ....    1
 Number of Electrons    NEL             ....  134
 Basis Dimension        Dim             ....  322

ORBITAL ENERGIES
----------------

  NO   OCC          E(Eh)            E(eV)
   0   2.0000     -88.968809     -2420.9644
   1   2.0000     -88.964391     -2420.8442
   2   2.0000     -10.334185      -281.2075
   3   2.0000     -10.329687      -281.0851
   4   2.0000     -10.318843      -280.7900
   5   2.0000     -10.307613      -280.4844
   6   2.0000     -10.304637      -280.4034
   7   2.0000     -10.299710      -280.2694
   8   2.0000     -10.298070      -280.2247
   9   2.0000     -10.297923      -280.2207
  10   2.0000     -10.290291      -280.0131
  11   2.0000     -10.287434      -279.9353
  12   2.0000     -10.285137      -279.8728
  13   2.0000     -10.277169      -279.6560
  14   2.0000     -10.274583      -279.5856
  15   2.0000     -10.268072      -279.4084
  16   2.0000      -8.083012      -219.9499
  17   2.0000      -8.078248      -219.8203
  18   2.0000      -6.041527      -164.3983
  19   2.0000      -6.037561      -164.2904
  20   2.0000      -6.036852      -164.2711
  21   2.0000      -6.033836      -164.1890
  22   2.0000      -6.033013      -164.1666
  23   2.0000      -6.028807      -164.0522
  24   2.0000      -1.000493       -27.2248
  25   2.0000      -0.979618       -26.6568
  26   2.0000      -0.918681       -24.9986
  27   2.0000      -0.916557       -24.9408
  28   2.0000      -0.868375       -23.6297
  29   2.0000      -0.855602       -23.2821
  30   2.0000      -0.848051       -23.0766
  31   2.0000      -0.815381       -22.1877
  32   2.0000      -0.781735       -21.2721
  33   2.0000      -0.768590       -20.9144
  34   2.0000      -0.707803       -19.2603
  35   2.0000      -0.693730       -18.8774
  36   2.0000      -0.686835       -18.6897
  37   2.0000      -0.662662       -18.0320
  38   2.0000      -0.642506       -17.4835
  39   2.0000      -0.619598       -16.8601
  40   2.0000      -0.592757       -16.1297
  41   2.0000      -0.571424       -15.5492
  42   2.0000      -0.568986       -15.4829
  43   2.0000      -0.556243       -15.1361
  44   2.0000      -0.541921       -14.7464
  45   2.0000      -0.526980       -14.3398
  46   2.0000      -0.518897       -14.1199
  47   2.0000      -0.503998       -13.7145
  48   2.0000      -0.503172       -13.6920
  49   2.0000      -0.502657       -13.6780
  50   2.0000      -0.495427       -13.4813
  51   2.0000      -0.473786       -12.8924
  52   2.0000      -0.471397       -12.8274
  53   2.0000      -0.462063       -12.5734
  54   2.0000      -0.457585       -12.4515
  55   2.0000      -0.445048       -12.1104
  56   2.0000      -0.442157       -12.0317
  57   2.0000      -0.440470       -11.9858
  58   2.0000      -0.433663       -11.8006
  59   2.0000      -0.427419       -11.6307
  60   2.0000      -0.415967       -11.3190
  61   2.0000      -0.408295       -11.1103
  62   2.0000      -0.400770       -10.9055
  63   2.0000      -0.349478        -9.5098
  64   2.0000      -0.332210        -9.0399
  65   2.0000      -0.326209        -8.8766
  66   2.0000      -0.288364        -7.8468
  67   0.0000       0.030202         0.8218
  68   0.0000       0.067813         1.8453
  69   0.0000       0.104997         2.8571
  70   0.0000       0.117793         3.2053
  71   0.0000       0.131215         3.5706

MULLIKEN ATOMIC CHARGES
-----------------------
   0 S :    0.119708
   1 C :   -0.096803
   2 C :   -0.091223
   3 C :    0.030011
   4 C :   -0.168251
   5 H :    0.028126
   6 C :    0.075296
   7 H :    0.029327
   8 H :    0.009979
   9 C :   -0.108108
  10 H :    0.036919
  11 H :    0.044276
  12 C :   -0.038166
  13 H :    0.016110
  14 H :    0.038509
  15 H :    0.036553
  16 S :    0.095889
  17 C :   -0.102006
  18 C :   -0.029895
  19 C :   -0.037008
  20 C :   -0.159952
  21 H :   -0.005075
  22 C :    0.039311
  23 H :    0.028059
  24 H :    0.038809
  25 C :   -0.000835
  26 H :    0.029415
  27 H :    0.018676
  28 C :   -0.060482
  29 H :    0.024587
  30 H :    0.036971
  31 H :    0.026489
  32 H :    0.030450
  33 H :    0.064331
Sum of atomic charges:   -0.0000000

LOEWDIN ATOMIC CHARGES
----------------------
   0 S :    0.403129
   1 C :   -0.207494
   2 C :   -0.059444
   3 C :   -0.062143
   4 C :   -0.186152
   5 H :    0.033246
   6 C :   -0.038131
   7 H :    0.026338
   8 H :    0.032992
   9 C :   -0.037518
  10 H :    0.022980
  11 H :    0.036496
  12 C :   -0.069373
  13 H :    0.024430
  14 H :    0.027356
  15 H :    0.026225
  16 S :    0.372455
  17 C :   -0.181048
  18 C :   -0.070891
  19 C :   -0.057163
  20 C :   -0.175311
  21 H :    0.021011
  22 C :   -0.037441
  23 H :    0.039806
  24 H :    0.037884
  25 C :   -0.044199
  26 H :    0.026361
  27 H :    0.027934
  28 C :   -0.070259
  29 H :    0.027916
  30 H :    0.025924
  31 H :    0.028426
  32 H :    0.018338
  33 H :    0.037319

  Mayer bond orders larger than 0.100000
B(  0-S ,  1-C ) :   1.1391 B(  0-S ,  4-C ) :   1.1404 B(  1-C ,  2-C ) :   1.6086
B(  1-C , 32-H ) :   0.9687 B(  2-C ,  3-C ) :   1.2309 B(  2-C ,  6-C ) :   1.0267
B(  3-C ,  4-C ) :   1.5806 B(  3-C ,  5-H ) :   0.9844 B(  4-C , 20-C ) :   1.0294
B(  6-C ,  7-H ) :   0.9368 B(  6-C ,  8-H ) :   0.9406 B(  6-C ,  9-C ) :   1.0678
B(  9-C , 10-H ) :   0.9589 B(  9-C , 11-H ) :   0.9516 B(  9-C , 12-C ) :   1.0772
B( 12-C , 13-H ) :   0.9723 B( 12-C , 14-H ) :   0.9736 B( 12-C , 15-H ) :   0.9748
B( 16-S , 17-C ) :   1.1373 B( 16-S , 20-C ) :   1.1098 B( 17-C , 18-C ) :   1.6752
B( 17-C , 33-H ) :   0.9563 B( 18-C , 19-C ) :   1.1749 B( 18-C , 21-H ) :   0.9974
B( 19-C , 20-C ) :   1.6579 B( 19-C , 22-C ) :   1.0386 B( 22-C , 23-H ) :   0.9284
B( 22-C , 24-H ) :   0.9300 B( 22-C , 25-C ) :   1.0687 B( 25-C , 26-H ) :   0.9485
B( 25-C , 27-H ) :   0.9487 B( 25-C , 28-C ) :   1.0975 B( 28-C , 29-H ) :   0.9660
B( 28-C , 30-H ) :   0.9692 B( 28-C , 31-H ) :   0.9679

Dispersion correction           -0.014668996
FINAL SINGLE POINT ENERGY     -1339.860661622705

DIPOLE MOMENT
-------------
                                X             Y             Z
Electronic contribution:     -1.08666       0.36507     -24.61382
Nuclear contribution   :      1.32190      -0.41545      25.11092
                        -----------------------------------------
Total Dipole Moment    :      0.23524      -0.05038       0.49710
                        -----------------------------------------
Magnitude (a.u.)       :      0.55226
Magnitude (Debye)      :      1.40372

Rotational constants in cm-1:     0.019877     0.008066     0.007255
Rotational constants in MHz :   595.910254   241.798942   217.513675

                             ****ORCA TERMINATED NORMALLY****
TOTAL RUN TIME: 0 days 0 hours 0 minutes 31 seconds 508 msec
