                         Program Version 4.2.1 -  RELEASE  -
|  1> ! wB97X-D3 SP def2-SVP
|  2> %pal
|  3> nprocs 16
|  4> end
|  5>
|  6> * xyz 0 1
|  7> S 	 -2.02849 	 -25.3786 	 53.6198
|  8> C 	 -2.5429 	 -26.1937 	 55.1319
|  9> C 	 -2.28616 	 -25.4441 	 56.2823
| 10> C 	 -1.75471 	 -24.1633 	 55.8732
| 11> C 	 -1.52747 	 -23.9226 	 54.5282
| 12> H 	 -1.47585 	 -23.4654 	 56.5818
| 13> C 	 -2.64191 	 -25.8056 	 57.6821
| 14> H 	 -1.69823 	 -25.6017 	 58.256
| 15> H 	 -2.80023 	 -26.8303 	 57.8282
| 16> C 	 -3.87882 	 -24.9955 	 58.1931
| 17> H 	 -3.86187 	 -25.27 	 59.2696
| 18> H 	 -3.72703 	 -23.9375 	 57.9976
| 19> C 	 -5.18225 	 -25.4126 	 57.5837
| 20> H 	 -5.93319 	 -24.7345 	 57.89
| 21> H 	 -5.1917 	 -25.4368 	 56.4801
| 22> H 	 -5.48914 	 -26.3787 	 58.0196
| 23> S 	 -0.207733 	 -23.0082 	 52.213
| 24> C 	 0.374384 	 -21.3873 	 52.0525
| 25> C 	 0.203045 	 -20.7436 	 53.2418
| 26> C 	 -0.490136 	 -21.4831 	 54.2566
| 27> C 	 -0.892639 	 -22.7507 	 53.8425
| 28> H 	 0.571312 	 -19.7249 	 53.3087
| 29> C 	 -0.573948 	 -20.7869 	 55.5811
| 30> H 	 -1.28104 	 -21.328 	 56.1432
| 31> H 	 -1.01618 	 -19.8357 	 55.4243
| 32> C 	 0.675155 	 -20.7114 	 56.3548
| 33> H 	 0.609308 	 -20.1155 	 57.264
| 34> H 	 1.35088 	 -20.0928 	 55.792
| 35> C 	 1.24614 	 -22.1117 	 56.7603
| 36> H 	 0.594845 	 -22.6714 	 57.3309
| 37> H 	 2.18618 	 -22.0482 	 57.3502
| 38> H 	 1.31601 	 -22.7374 	 55.8762
| 39> H 	 -2.98528 	 -27.1613 	 54.9805
| 40> H 	 0.666367 	 -20.8577 	 51.1493
| 41> *
| 42>
| 43>                          ****END OF INPUT****

CARTESIAN COORDINATES (ANGSTROEM)
---------------------------------
  S     -2.028490  -25.378600   53.619800
  C     -2.542900  -26.193700   55.131900
  C     -2.286160  -25.444100   56.282300
  C     -1.754710  -24.163300   55.873200
  C     -1.527470  -23.922600   54.528200
  H     -1.475850  -23.465400   56.581800
  C     -2.641910  -25.805600   57.682100
  H     -1.698230  -25.601700   58.256000
  H     -2.800230  -26.830300   57.828200
  C     -3.878820  -24.995500   58.193100
  H     -3.861870  -25.270000   59.269600
  H     -3.727030  -23.937500   57.997600
  C     -5.182250  -25.412600   57.583700
  H     -5.933190  -24.734500   57.890000
  H     -5.191700  -25.436800   56.480100
  H     -5.489140  -26.378700   58.019600
  S     -0.207733  -23.008200   52.213000
  C      0.374384  -21.387300   52.052500
  C      0.203045  -20.743600   53.241800
  C     -0.490136  -21.483100   54.256600
  C     -0.892639  -22.750700   53.842500
  H      0.571312  -19.724900   53.308700
  C     -0.573948  -20.786900   55.581100
  H     -1.281040  -21.328000   56.143200
  H     -1.016180  -19.835700   55.424300
  C      0.675155  -20.711400   56.354800
  H      0.609308  -20.115500   57.264000
  H      1.350880  -20.092800   55.792000
  C      1.246140  -22.111700   56.760300
  H      0.594845  -22.671400   57.330900
  H      2.186180  -22.048200   57.350200
  H      1.316010  -22.737400   55.876200
  H     -2.985280  -27.161300   54.980500
  H      0.666367  -20.857700   51.149300

 Total Charge           Charge          ....    0
 Multiplicity           Mult            ....    1
 Number of Electrons    NEL             ....  134
 Basis Dimension        Dim             ....  322

ORBITAL ENERGIES
----------------

  NO   OCC          E(Eh)            E(eV)
   0   2.0000     -88.964149     -2420.8376
   1   2.0000     -88.963421     -2420.8178
   2   2.0000     -10.341291      -281.4008
   3   2.0000     -10.339638      -281.3559
   4   2.0000     -10.320271      -280.8289
   5   2.0000     -10.315714      -280.7048
   6   2.0000     -10.307704      -280.4869
   7   2.0000     -10.304804      -280.4080
   8   2.0000     -10.294874      -280.1378
   9   2.0000     -10.293713      -280.1062
  10   2.0000     -10.291450      -280.0446
  11   2.0000     -10.289946      -280.0037
  12   2.0000     -10.283390      -279.8253
  13   2.0000     -10.280504      -279.7467
  14   2.0000     -10.274987      -279.5966
  15   2.0000     -10.272246      -279.5220
  16   2.0000      -8.078061      -219.8152
  17   2.0000      -8.077858      -219.8097
  18   2.0000      -6.036752      -164.2684
  19   2.0000      -6.036542      -164.2627
  20   2.0000      -6.032561      -164.1543
  21   2.0000      -6.032539      -164.1537
  22   2.0000      -6.028652      -164.0480
  23   2.0000      -6.028467      -164.0429
  24   2.0000      -1.002476       -27.2788
  25   2.0000      -0.980950       -26.6930
  26   2.0000      -0.920568       -25.0499
  27   2.0000      -0.915843       -24.9214
  28   2.0000      -0.867570       -23.6078
  29   2.0000      -0.848716       -23.0947
  30   2.0000      -0.842199       -22.9174
  31   2.0000      -0.817977       -22.2583
  32   2.0000      -0.787200       -21.4208
  33   2.0000      -0.780147       -21.2289
  34   2.0000      -0.714981       -19.4556
  35   2.0000      -0.700771       -19.0690
  36   2.0000      -0.693578       -18.8732
  37   2.0000      -0.659486       -17.9455
  38   2.0000      -0.645336       -17.5605
  39   2.0000      -0.631477       -17.1834
  40   2.0000      -0.599303       -16.3079
  41   2.0000      -0.575810       -15.6686
  42   2.0000      -0.565044       -15.3756
  43   2.0000      -0.551736       -15.0135
  44   2.0000      -0.545058       -14.8318
  45   2.0000      -0.536204       -14.5908
  46   2.0000      -0.519155       -14.1269
  47   2.0000      -0.515334       -14.0230
  48   2.0000      -0.501832       -13.6555
  49   2.0000      -0.499692       -13.5973
  50   2.0000      -0.493192       -13.4204
  51   2.0000      -0.478344       -13.0164
  52   2.0000      -0.470594       -12.8055
  53   2.0000      -0.466964       -12.7067
  54   2.0000      -0.459562       -12.5053
  55   2.0000      -0.453796       -12.3484
  56   2.0000      -0.446200       -12.1417
  57   2.0000      -0.438710       -11.9379
  58   2.0000      -0.433345       -11.7919
  59   2.0000      -0.431968       -11.7545
  60   2.0000      -0.418671       -11.3926
  61   2.0000      -0.409785       -11.1508
  62   2.0000      -0.404595       -11.0096
  63   2.0000      -0.360908        -9.8208
  64   2.0000      -0.332002        -9.0342
  65   2.0000      -0.325970        -8.8701
  66   2.0000      -0.287159        -7.8140
  67   0.0000       0.018106         0.4927
  68   0.0000       0.083697         2.2775
  69   0.0000       0.095515         2.5991
  70   0.0000       0.117750         3.2041
  71   0.0000       0.134455         3.6587

MULLIKEN ATOMIC CHARGES
-----------------------
   0 S :    0.076806
   1 C :   -0.139979
   2 C :   -0.069191
   3 C :    0.007690
   4 C :   -0.084148
   5 H :   -0.046524
   6 C :    0.081901
   7 H :    0.038968
   8 H :    0.006105
   9 C :   -0.084157
  10 H :    0.039985
  11 H :    0.035859
  12 C :   -0.033992
  13 H :    0.025677
  14 H :    0.048575
  15 H :    0.024146
  16 S :    0.079528
  17 C :   -0.076301
  18 C :   -0.054427
  19 C :   -0.099675
  20 C :   -0.090850
  21 H :    0.021377
  22 C :    0.115695
  23 H :   -0.007760
  24 H :    0.019125
  25 C :   -0.032447
  26 H :    0.022347
  27 H :    0.010843
  28 C :   -0.040883
  29 H :    0.004561
  30 H :    0.042272
  31 H :    0.043426
  32 H :    0.051078
  33 H :    0.064368
Sum of atomic charges:   -0.0000000

LOEWDIN ATOMIC CHARGES
----------------------
   0 S :    0.363560
   1 C :   -0.173594
   2 C :   -0.058281
   3 C :   -0.060274
   4 C :   -0.171076
   5 H :    0.008450
   6 C :   -0.031429
   7 H :    0.040466
   8 H :    0.022369
   9 C :   -0.035480
  10 H :    0.031220
  11 H :    0.023262
  12 C :   -0.065124
  13 H :    0.023551
  14 H :    0.030815
  15 H :    0.026547
  16 S :    0.392800
  17 C :   -0.189450
  18 C :   -0.074883
  19 C :   -0.058397
  20 C :   -0.180913
  21 H :    0.031312
  22 C :   -0.029708
  23 H :    0.019012
  24 H :    0.031747
  25 C :   -0.034230
  26 H :    0.025571
  27 H :    0.018230
  28 C :   -0.060231
  29 H :    0.010170
  30 H :    0.033430
  31 H :    0.030908
  32 H :    0.021451
  33 H :    0.038199

  Mayer bond orders larger than 0.100000
B(  0-S ,  1-C ) :   1.1363 B(  0-S ,  4-C ) :   1.1278 B(  1-C ,  2-C ) :   1.5885
B(  1-C , 32-H ) :   0.9739 B(  2-C ,  3-C ) :   1.2357 B(  2-C ,  6-C ) :   1.0392
B(  3-C ,  4-C ) :   1.5847 B(  3-C ,  5-H ) :   0.9948 B(  4-C , 20-C ) :   1.0553
B(  6-C ,  7-H ) :   0.9320 B(  6-C ,  8-H ) :   0.9387 B(  6-C ,  9-C ) :   1.0562
B(  9-C , 10-H ) :   0.9550 B(  9-C , 11-H ) :   0.9607 B(  9-C , 12-C ) :   1.0835
B( 12-C , 13-H ) :   0.9693 B( 12-C , 14-H ) :   0.9730 B( 12-C , 15-H ) :   0.9724
B( 16-S , 17-C ) :   1.1488 B( 16-S , 20-C ) :   1.1276 B( 17-C , 18-C ) :   1.6186
B( 17-C , 33-H ) :   0.9636 B( 18-C , 19-C ) :   1.2352 B( 18-C , 21-H ) :   0.9881
B( 19-C , 20-C ) :   1.5926 B( 19-C , 22-C ) :   1.0414 B( 22-C , 23-H ) :   0.9262
B( 22-C , 24-H ) :   0.9216 B( 22-C , 25-C ) :   1.0898 B( 25-C , 26-H ) :   0.9504
B( 25-C , 27-H ) :   0.9494 B( 25-C , 28-C ) :   1.0641 B( 28-C , 29-H ) :   0.9706
B( 28-C , 30-H ) :   0.9715 B( 28-C , 31-H ) :   0.9771

Dispersion correction           -0.015236643
FINAL SINGLE POINT ENERGY     -1339.872014931793

DIPOLE MOMENT
-------------
                                X             Y             Z
Electronic contribution:      4.00061      -4.37798     -25.87889
Nuclear contribution   :     -4.07631       4.68947      26.60635
                        -----------------------------------------
Total Dipole Moment    :     -0.07569       0.31149       0.72747
                        -----------------------------------------
Magnitude (a.u.)       :      0.79496
Magnitude (Debye)      :      2.02063

Rotational constants in cm-1:     0.020685     0.008953     0.006947
Rotational constants in MHz :   620.115867   268.403893   208.255357

                             ****ORCA TERMINATED NORMALLY****
TOTAL RUN TIME: 0 days 0 hours 0 minutes 36 seconds 648 msec
