                         Program Version 4.2.1 -  RELEASE  -
|  1> ! wB97X-D3 SP def2-SVP
|  2> %pal
|  3> nprocs 16
|  4> end
|  5>
|  6> * xyz 0 1
|  7> S 	 0.168131 	 -2.48281 	 79.2268
|  8> C 	 0.240661 	 -0.793674 	 79.4985
|  9> C 	 0.954545 	 -0.432564 	 80.5924
| 10> C 	 1.57027 	 -1.57114 	 81.2369
| 11> C 	 1.22323 	 -2.73696 	 80.5708
| 12> H 	 2.29709 	 -1.53768 	 82.0988
| 13> C 	 1.11354 	 0.960453 	 81.0786
| 14> H 	 1.29643 	 1.66309 	 80.1914
| 15> H 	 2.08021 	 1.11592 	 81.6002
| 16> C 	 -0.0502345 	 1.54488 	 81.8435
| 17> H 	 0.131553 	 2.56876 	 82.1913
| 18> H 	 -0.94783 	 1.68573 	 81.2573
| 19> C 	 -0.487506 	 0.738029 	 83.0306
| 20> H 	 -0.972147 	 -0.213354 	 82.8489
| 21> H 	 0.334187 	 0.528772 	 83.6498
| 22> H 	 -1.23166 	 1.32039 	 83.6006
| 23> S 	 2.75443 	 -4.95211 	 79.8528
| 24> C 	 2.98663 	 -6.29817 	 80.9168
| 25> C 	 2.20648 	 -6.13696 	 82.0138
| 26> C 	 1.49016 	 -4.85028 	 82.1151
| 27> C 	 1.66675 	 -4.09211 	 80.9752
| 28> H 	 2.20919 	 -6.80657 	 82.8557
| 29> C 	 0.529344 	 -4.49821 	 83.2415
| 30> H 	 -0.125308 	 -5.29741 	 83.4832
| 31> H 	 -0.014111 	 -3.75558 	 82.9034
| 32> C 	 1.16454 	 -4.12373 	 84.5787
| 33> H 	 0.312115 	 -4.11471 	 85.2376
| 34> H 	 1.61315 	 -3.15679 	 84.5677
| 35> C 	 2.2182 	 -5.12549 	 85.2416
| 36> H 	 1.72964 	 -6.08676 	 85.4164
| 37> H 	 2.51218 	 -4.66911 	 86.1722
| 38> H 	 3.13218 	 -5.18773 	 84.6301
| 39> H 	 -0.142642 	 0.0420116 	 78.928
| 40> H 	 3.63572 	 -7.14984 	 80.7546
| 41> *
| 42>
| 43>                          ****END OF INPUT****

CARTESIAN COORDINATES (ANGSTROEM)
---------------------------------
  S      0.168131   -2.482810   79.226800
  C      0.240661   -0.793674   79.498500
  C      0.954545   -0.432564   80.592400
  C      1.570270   -1.571140   81.236900
  C      1.223230   -2.736960   80.570800
  H      2.297090   -1.537680   82.098800
  C      1.113540    0.960453   81.078600
  H      1.296430    1.663090   80.191400
  H      2.080210    1.115920   81.600200
  C     -0.050235    1.544880   81.843500
  H      0.131553    2.568760   82.191300
  H     -0.947830    1.685730   81.257300
  C     -0.487506    0.738029   83.030600
  H     -0.972147   -0.213354   82.848900
  H      0.334187    0.528772   83.649800
  H     -1.231660    1.320390   83.600600
  S      2.754430   -4.952110   79.852800
  C      2.986630   -6.298170   80.916800
  C      2.206480   -6.136960   82.013800
  C      1.490160   -4.850280   82.115100
  C      1.666750   -4.092110   80.975200
  H      2.209190   -6.806570   82.855700
  C      0.529344   -4.498210   83.241500
  H     -0.125308   -5.297410   83.483200
  H     -0.014111   -3.755580   82.903400
  C      1.164540   -4.123730   84.578700
  H      0.312115   -4.114710   85.237600
  H      1.613150   -3.156790   84.567700
  C      2.218200   -5.125490   85.241600
  H      1.729640   -6.086760   85.416400
  H      2.512180   -4.669110   86.172200
  H      3.132180   -5.187730   84.630100
  H     -0.142642    0.042012   78.928000
  H      3.635720   -7.149840   80.754600

 Total Charge           Charge          ....    0
 Multiplicity           Mult            ....    1
 Number of Electrons    NEL             ....  134
 Basis Dimension        Dim             ....  322

ORBITAL ENERGIES
----------------

  NO   OCC          E(Eh)            E(eV)
   0   2.0000     -88.972230     -2421.0575
   1   2.0000     -88.957567     -2420.6585
   2   2.0000     -10.329957      -281.0924
   3   2.0000     -10.327158      -281.0162
   4   2.0000     -10.314940      -280.6838
   5   2.0000     -10.307116      -280.4709
   6   2.0000     -10.303748      -280.3792
   7   2.0000     -10.301257      -280.3115
   8   2.0000     -10.296193      -280.1736
   9   2.0000     -10.296017      -280.1689
  10   2.0000     -10.290451      -280.0174
  11   2.0000     -10.283268      -279.8220
  12   2.0000     -10.282935      -279.8129
  13   2.0000     -10.281310      -279.7687
  14   2.0000     -10.276054      -279.6257
  15   2.0000     -10.267725      -279.3990
  16   2.0000      -8.087626      -220.0755
  17   2.0000      -8.072574      -219.6659
  18   2.0000      -6.046070      -164.5219
  19   2.0000      -6.042100      -164.4139
  20   2.0000      -6.038348      -164.3118
  21   2.0000      -6.031207      -164.1175
  22   2.0000      -6.026960      -164.0019
  23   2.0000      -6.023254      -163.9011
  24   2.0000      -1.009458       -27.4688
  25   2.0000      -0.985057       -26.8048
  26   2.0000      -0.918409       -24.9912
  27   2.0000      -0.908580       -24.7237
  28   2.0000      -0.869743       -23.6669
  29   2.0000      -0.853067       -23.2131
  30   2.0000      -0.837610       -22.7925
  31   2.0000      -0.816029       -22.2053
  32   2.0000      -0.789233       -21.4761
  33   2.0000      -0.778354       -21.1801
  34   2.0000      -0.705064       -19.1858
  35   2.0000      -0.703330       -19.1386
  36   2.0000      -0.691232       -18.8094
  37   2.0000      -0.659342       -17.9416
  38   2.0000      -0.636899       -17.3309
  39   2.0000      -0.611320       -16.6349
  40   2.0000      -0.595977       -16.2174
  41   2.0000      -0.576238       -15.6802
  42   2.0000      -0.568053       -15.4575
  43   2.0000      -0.554979       -15.1018
  44   2.0000      -0.545236       -14.8366
  45   2.0000      -0.535013       -14.5585
  46   2.0000      -0.515302       -14.0221
  47   2.0000      -0.508617       -13.8402
  48   2.0000      -0.501331       -13.6419
  49   2.0000      -0.496250       -13.5037
  50   2.0000      -0.493044       -13.4164
  51   2.0000      -0.479639       -13.0516
  52   2.0000      -0.471362       -12.8264
  53   2.0000      -0.467610       -12.7243
  54   2.0000      -0.462790       -12.5932
  55   2.0000      -0.446150       -12.1404
  56   2.0000      -0.442892       -12.0517
  57   2.0000      -0.441202       -12.0057
  58   2.0000      -0.434734       -11.8297
  59   2.0000      -0.427499       -11.6328
  60   2.0000      -0.422206       -11.4888
  61   2.0000      -0.409144       -11.1334
  62   2.0000      -0.408262       -11.1094
  63   2.0000      -0.341001        -9.2791
  64   2.0000      -0.333431        -9.0731
  65   2.0000      -0.322759        -8.7827
  66   2.0000      -0.305286        -8.3073
  67   0.0000       0.041493         1.1291
  68   0.0000       0.068187         1.8555
  69   0.0000       0.118939         3.2365
  70   0.0000       0.121246         3.2993
  71   0.0000       0.123044         3.3482

MULLIKEN ATOMIC CHARGES
-----------------------
   0 S :    0.147504
   1 C :   -0.089847
   2 C :   -0.099320
   3 C :    0.026568
   4 C :   -0.176152
   5 H :    0.040352
   6 C :    0.025794
   7 H :    0.033091
   8 H :    0.029408
   9 C :   -0.041882
  10 H :    0.024715
  11 H :    0.017499
  12 C :   -0.046206
  13 H :    0.038430
  14 H :    0.010620
  15 H :    0.027595
  16 S :    0.087596
  17 C :   -0.076577
  18 C :   -0.026052
  19 C :   -0.057410
  20 C :   -0.176796
  21 H :    0.010485
  22 C :    0.178613
  23 H :    0.014014
  24 H :   -0.020497
  25 C :   -0.090729
  26 H :    0.023234
  27 H :    0.021055
  28 C :   -0.067492
  29 H :    0.035939
  30 H :    0.032086
  31 H :    0.049685
  32 H :    0.033848
  33 H :    0.060831
Sum of atomic charges:    0.0000000

LOEWDIN ATOMIC CHARGES
----------------------
   0 S :    0.439375
   1 C :   -0.208610
   2 C :   -0.069469
   3 C :   -0.059111
   4 C :   -0.208396
   5 H :    0.043815
   6 C :   -0.044391
   7 H :    0.040040
   8 H :    0.033480
   9 C :   -0.044095
  10 H :    0.027482
  11 H :    0.022191
  12 C :   -0.064621
  13 H :    0.025010
  14 H :    0.013793
  15 H :    0.029461
  16 S :    0.386720
  17 C :   -0.187207
  18 C :   -0.074124
  19 C :   -0.047761
  20 C :   -0.191700
  21 H :    0.024500
  22 C :   -0.015433
  23 H :    0.031016
  24 H :    0.010885
  25 C :   -0.028750
  26 H :    0.022354
  27 H :    0.015413
  28 C :   -0.065174
  29 H :    0.022651
  30 H :    0.025487
  31 H :    0.027812
  32 H :    0.031746
  33 H :    0.035610

  Mayer bond orders larger than 0.100000
B(  0-S ,  1-C ) :   1.1298 B(  0-S ,  4-C ) :   1.1685 B(  1-C ,  2-C ) :   1.6506
B(  1-C , 32-H ) :   0.9567 B(  2-C ,  3-C ) :   1.2225 B(  2-C ,  6-C ) :   1.0264
B(  3-C ,  4-C ) :   1.5808 B(  3-C ,  5-H ) :   0.9888 B(  4-C , 20-C ) :   0.9940
B(  6-C ,  7-H ) :   0.9357 B(  6-C ,  8-H ) :   0.9424 B(  6-C ,  9-C ) :   1.0801
B(  9-C , 10-H ) :   0.9516 B(  9-C , 11-H ) :   0.9517 B(  9-C , 12-C ) :   1.0852
B( 12-C , 13-H ) :   0.9710 B( 12-C , 14-H ) :   0.9751 B( 12-C , 15-H ) :   0.9715
B( 16-S , 17-C ) :   1.1427 B( 16-S , 20-C ) :   1.1287 B( 17-C , 18-C ) :   1.6279
B( 17-C , 33-H ) :   0.9689 B( 18-C , 19-C ) :   1.2092 B( 18-C , 21-H ) :   0.9848
B( 19-C , 20-C ) :   1.6403 B( 19-C , 22-C ) :   1.0419 B( 22-C , 23-H ) :   0.9355
B( 22-C , 24-H ) :   0.9149 B( 22-C , 25-C ) :   1.0767 B( 25-C , 26-H ) :   0.9573
B( 25-C , 27-H ) :   0.9558 B( 25-C , 28-C ) :   1.0826 B( 28-C , 29-H ) :   0.9755
B( 28-C , 30-H ) :   0.9729 B( 28-C , 31-H ) :   0.9715

Dispersion correction           -0.015115456
FINAL SINGLE POINT ENERGY     -1339.877288553116

DIPOLE MOMENT
-------------
                                X             Y             Z
Electronic contribution:      4.34735     -12.12462     -25.25192
Nuclear contribution   :     -4.42668      12.44519      25.86830
                        -----------------------------------------
Total Dipole Moment    :     -0.07933       0.32057       0.61639
                        -----------------------------------------
Magnitude (a.u.)       :      0.69928
Magnitude (Debye)      :      1.77743

Rotational constants in cm-1:     0.019127     0.009341     0.006888
Rotational constants in MHz :   573.423383   280.045856   206.502114

                             ****ORCA TERMINATED NORMALLY****
TOTAL RUN TIME: 0 days 0 hours 0 minutes 36 seconds 749 msec
