                         Program Version 4.2.1 -  RELEASE  -
|  1> ! wB97X-D3 SP def2-SVP
|  2> %pal
|  3> nprocs 16
|  4> end
|  5>
|  6> * xyz 0 1
|  7> S 	 -41.6499 	 50.9016 	 107.471
|  8> C 	 -40.1249 	 51.8023 	 107.278
|  9> C 	 -39.0398 	 51.0781 	 107.873
| 10> C 	 -39.4042 	 49.741 	 108.124
| 11> C 	 -40.7706 	 49.495 	 107.907
| 12> H 	 -38.7574 	 49.0066 	 108.577
| 13> C 	 -37.6554 	 51.629 	 108.096
| 14> H 	 -37.4453 	 52.4258 	 107.395
| 15> H 	 -36.8172 	 51.0093 	 107.838
| 16> C 	 -37.4778 	 52.1009 	 109.539
| 17> H 	 -37.5592 	 51.2941 	 110.285
| 18> H 	 -36.4319 	 52.4252 	 109.622
| 19> C 	 -38.3908 	 53.2119 	 109.999
| 20> H 	 -38.1588 	 54.1023 	 109.467
| 21> H 	 -39.4368 	 52.9298 	 109.978
| 22> H 	 -38.2064 	 53.2674 	 111.057
| 23> S 	 -42.4833 	 48.2881 	 109.604
| 24> C 	 -43.0775 	 46.6757 	 109.369
| 25> C 	 -42.4375 	 46.1115 	 108.274
| 26> C 	 -41.4526 	 46.9923 	 107.737
| 27> C 	 -41.4882 	 48.2901 	 108.217
| 28> H 	 -42.7377 	 45.0986 	 108.069
| 29> C 	 -40.6335 	 46.4378 	 106.564
| 30> H 	 -39.9248 	 47.216 	 106.329
| 31> H 	 -41.2112 	 46.1755 	 105.694
| 32> C 	 -39.7307 	 45.2884 	 106.965
| 33> H 	 -40.3531 	 44.4815 	 107.408
| 34> H 	 -39.0748 	 45.712 	 107.76
| 35> C 	 -39.0447 	 44.6618 	 105.708
| 36> H 	 -39.808 	 44.5749 	 105.035
| 37> H 	 -38.7131 	 43.5858 	 105.823
| 38> H 	 -38.2436 	 45.2889 	 105.375
| 39> H 	 -39.9634 	 52.7229 	 106.842
| 40> H 	 -43.9586 	 46.2803 	 109.899
| 41> *
| 42>
| 43>                          ****END OF INPUT****

CARTESIAN COORDINATES (ANGSTROEM)
---------------------------------
  S    -41.649900   50.901600  107.471000
  C    -40.124900   51.802300  107.278000
  C    -39.039800   51.078100  107.873000
  C    -39.404200   49.741000  108.124000
  C    -40.770600   49.495000  107.907000
  H    -38.757400   49.006600  108.577000
  C    -37.655400   51.629000  108.096000
  H    -37.445300   52.425800  107.395000
  H    -36.817200   51.009300  107.838000
  C    -37.477800   52.100900  109.539000
  H    -37.559200   51.294100  110.285000
  H    -36.431900   52.425200  109.622000
  C    -38.390800   53.211900  109.999000
  H    -38.158800   54.102300  109.467000
  H    -39.436800   52.929800  109.978000
  H    -38.206400   53.267400  111.057000
  S    -42.483300   48.288100  109.604000
  C    -43.077500   46.675700  109.369000
  C    -42.437500   46.111500  108.274000
  C    -41.452600   46.992300  107.737000
  C    -41.488200   48.290100  108.217000
  H    -42.737700   45.098600  108.069000
  C    -40.633500   46.437800  106.564000
  H    -39.924800   47.216000  106.329000
  H    -41.211200   46.175500  105.694000
  C    -39.730700   45.288400  106.965000
  H    -40.353100   44.481500  107.408000
  H    -39.074800   45.712000  107.760000
  C    -39.044700   44.661800  105.708000
  H    -39.808000   44.574900  105.035000
  H    -38.713100   43.585800  105.823000
  H    -38.243600   45.288900  105.375000
  H    -39.963400   52.722900  106.842000
  H    -43.958600   46.280300  109.899000

 Total Charge           Charge          ....    0
 Multiplicity           Mult            ....    1
 Number of Electrons    NEL             ....  134
 Basis Dimension        Dim             ....  322

ORBITAL ENERGIES
----------------

  NO   OCC          E(Eh)            E(eV)
   0   2.0000     -88.974323     -2421.1144
   1   2.0000     -88.959022     -2420.6980
   2   2.0000     -10.328833      -281.0618
   3   2.0000     -10.321806      -280.8706
   4   2.0000     -10.316611      -280.7293
   5   2.0000     -10.314779      -280.6794
   6   2.0000     -10.305812      -280.4354
   7   2.0000     -10.301508      -280.3183
   8   2.0000     -10.296060      -280.1700
   9   2.0000     -10.291410      -280.0435
  10   2.0000     -10.289910      -280.0027
  11   2.0000     -10.285611      -279.8857
  12   2.0000     -10.285067      -279.8709
  13   2.0000     -10.280455      -279.7454
  14   2.0000     -10.273741      -279.5627
  15   2.0000     -10.267001      -279.3793
  16   2.0000      -8.088595      -220.1019
  17   2.0000      -8.075186      -219.7370
  18   2.0000      -6.046993      -164.5470
  19   2.0000      -6.043183      -164.4434
  20   2.0000      -6.039471      -164.3424
  21   2.0000      -6.033589      -164.1823
  22   2.0000      -6.029303      -164.0657
  23   2.0000      -6.026147      -163.9798
  24   2.0000      -1.012765       -27.5587
  25   2.0000      -0.985853       -26.8264
  26   2.0000      -0.917589       -24.9689
  27   2.0000      -0.908786       -24.7293
  28   2.0000      -0.870683       -23.6925
  29   2.0000      -0.851736       -23.1769
  30   2.0000      -0.843798       -22.9609
  31   2.0000      -0.813790       -22.1444
  32   2.0000      -0.788507       -21.4564
  33   2.0000      -0.772235       -21.0136
  34   2.0000      -0.707913       -19.2633
  35   2.0000      -0.693453       -18.8698
  36   2.0000      -0.690589       -18.7919
  37   2.0000      -0.657885       -17.9020
  38   2.0000      -0.644424       -17.5357
  39   2.0000      -0.624438       -16.9918
  40   2.0000      -0.595814       -16.2129
  41   2.0000      -0.576108       -15.6767
  42   2.0000      -0.571695       -15.5566
  43   2.0000      -0.555253       -15.1092
  44   2.0000      -0.550314       -14.9748
  45   2.0000      -0.523049       -14.2329
  46   2.0000      -0.517444       -14.0804
  47   2.0000      -0.514383       -13.9971
  48   2.0000      -0.504879       -13.7385
  49   2.0000      -0.503026       -13.6880
  50   2.0000      -0.489669       -13.3246
  51   2.0000      -0.476333       -12.9617
  52   2.0000      -0.469856       -12.7854
  53   2.0000      -0.463384       -12.6093
  54   2.0000      -0.457379       -12.4459
  55   2.0000      -0.451050       -12.2737
  56   2.0000      -0.443058       -12.0562
  57   2.0000      -0.438985       -11.9454
  58   2.0000      -0.432277       -11.7629
  59   2.0000      -0.421986       -11.4828
  60   2.0000      -0.414611       -11.2821
  61   2.0000      -0.414007       -11.2657
  62   2.0000      -0.406285       -11.0556
  63   2.0000      -0.340130        -9.2554
  64   2.0000      -0.333526        -9.0757
  65   2.0000      -0.324724        -8.8362
  66   2.0000      -0.295885        -8.0514
  67   0.0000       0.031633         0.8608
  68   0.0000       0.059483         1.6186
  69   0.0000       0.110326         3.0021
  70   0.0000       0.123219         3.3530
  71   0.0000       0.125379         3.4117

MULLIKEN ATOMIC CHARGES
-----------------------
   0 S :    0.139031
   1 C :   -0.080296
   2 C :   -0.105375
   3 C :    0.061292
   4 C :   -0.183625
   5 H :    0.013155
   6 C :    0.088109
   7 H :    0.009778
   8 H :    0.019114
   9 C :   -0.105173
  10 H :    0.026658
  11 H :    0.024033
  12 C :   -0.012171
  13 H :    0.027353
  14 H :    0.040667
  15 H :    0.021753
  16 S :    0.100507
  17 C :   -0.115681
  18 C :   -0.033199
  19 C :   -0.035866
  20 C :   -0.139774
  21 H :    0.021726
  22 C :    0.084038
  23 H :    0.009943
  24 H :    0.030483
  25 C :   -0.133382
  26 H :    0.027140
  27 H :    0.034941
  28 C :    0.000991
  29 H :    0.002254
  30 H :    0.037821
  31 H :    0.036602
  32 H :    0.016580
  33 H :    0.070573
Sum of atomic charges:    0.0000000

LOEWDIN ATOMIC CHARGES
----------------------
   0 S :    0.431895
   1 C :   -0.181766
   2 C :   -0.050207
   3 C :   -0.054818
   4 C :   -0.210501
   5 H :    0.032180
   6 C :   -0.037698
   7 H :    0.029233
   8 H :    0.030078
   9 C :   -0.040528
  10 H :    0.023491
  11 H :    0.024054
  12 C :   -0.059847
  13 H :    0.019631
  14 H :    0.027306
  15 H :    0.027984
  16 S :    0.425526
  17 C :   -0.196561
  18 C :   -0.071048
  19 C :   -0.059594
  20 C :   -0.220920
  21 H :    0.032512
  22 C :   -0.031822
  23 H :    0.025605
  24 H :    0.025431
  25 C :   -0.041790
  26 H :    0.019391
  27 H :    0.025627
  28 C :   -0.057874
  29 H :    0.011419
  30 H :    0.034434
  31 H :    0.023757
  32 H :    0.010489
  33 H :    0.034929

  Mayer bond orders larger than 0.100000
B(  0-S ,  1-C ) :   1.1477 B(  0-S ,  4-C ) :   1.1771 B(  1-C ,  2-C ) :   1.5557
B(  1-C ,  4-C ) :   0.1190 B(  1-C , 32-H ) :   0.9794 B(  2-C ,  3-C ) :   1.2815
B(  2-C ,  6-C ) :   1.0310 B(  3-C ,  4-C ) :   1.5285 B(  3-C ,  5-H ) :   0.9962
B(  4-C , 20-C ) :   1.0192 B(  6-C ,  7-H ) :   0.9366 B(  6-C ,  8-H ) :   0.9412
B(  6-C ,  9-C ) :   1.0685 B(  9-C , 10-H ) :   0.9593 B(  9-C , 11-H ) :   0.9531
B(  9-C , 12-C ) :   1.0855 B( 12-C , 13-H ) :   0.9765 B( 12-C , 14-H ) :   0.9695
B( 12-C , 15-H ) :   0.9687 B( 16-S , 17-C ) :   1.1697 B( 16-S , 20-C ) :   1.1621
B( 17-C , 18-C ) :   1.5944 B( 17-C , 20-C ) :   0.1038 B( 17-C , 33-H ) :   0.9639
B( 18-C , 19-C ) :   1.2269 B( 18-C , 21-H ) :   0.9977 B( 19-C , 20-C ) :   1.5846
B( 19-C , 22-C ) :   1.0485 B( 22-C , 23-H ) :   0.9315 B( 22-C , 24-H ) :   0.9440
B( 22-C , 25-C ) :   1.0552 B( 25-C , 26-H ) :   0.9606 B( 25-C , 27-H ) :   0.9578
B( 25-C , 28-C ) :   1.0668 B( 28-C , 29-H ) :   0.9698 B( 28-C , 30-H ) :   0.9751
B( 28-C , 31-H ) :   0.9776

Dispersion correction           -0.014143012
FINAL SINGLE POINT ENERGY     -1339.859789054452

DIPOLE MOMENT
-------------
                                X             Y             Z
Electronic contribution:    -20.66187       4.31764       3.33422
Nuclear contribution   :     21.10138      -4.42512      -3.41134
                        -----------------------------------------
Total Dipole Moment    :      0.43951      -0.10748      -0.07712
                        -----------------------------------------
Magnitude (a.u.)       :      0.45899
Magnitude (Debye)      :      1.16665

Rotational constants in cm-1:     0.019712     0.008090     0.006714
Rotational constants in MHz :   590.937674   242.522828   201.289036

                             ****ORCA TERMINATED NORMALLY****
TOTAL RUN TIME: 0 days 0 hours 0 minutes 29 seconds 882 msec
