                         Program Version 4.2.1 -  RELEASE  -
|  1> ! wB97X-D3 SP def2-SVP
|  2> %pal
|  3> nprocs 16
|  4> end
|  5>
|  6> * xyz 0 1
|  7> S 	 44.4738 	 10.5709 	 53.1689
|  8> C 	 43.6869 	 9.37654 	 52.164
|  9> C 	 44.6852 	 8.555 	 51.5921
| 10> C 	 46.0234 	 8.93318 	 51.9419
| 11> C 	 46.0731 	 9.95862 	 52.8867
| 12> H 	 46.9862 	 8.57009 	 51.5471
| 13> C 	 44.4552 	 7.27086 	 50.7381
| 14> H 	 43.5304 	 7.26513 	 50.2388
| 15> H 	 44.5015 	 6.50993 	 51.4684
| 16> C 	 45.4455 	 6.86375 	 49.7317
| 17> H 	 46.3487 	 6.57401 	 50.2217
| 18> H 	 45.0657 	 6.00737 	 49.2542
| 19> C 	 45.648 	 8.02554 	 48.708
| 20> H 	 45.9649 	 8.89029 	 49.2593
| 21> H 	 46.372 	 7.83285 	 47.9592
| 22> H 	 44.6123 	 8.2793 	 48.3262
| 23> S 	 48.5037 	 9.79972 	 54.2905
| 24> C 	 49.4121 	 11.2468 	 54.6347
| 25> C 	 48.8532 	 12.357 	 54.0443
| 26> C 	 47.6457 	 12.0582 	 53.3319
| 27> C 	 47.2945 	 10.7111 	 53.3834
| 28> H 	 49.3444 	 13.3291 	 54.157
| 29> C 	 46.832 	 13.1288 	 52.6995
| 30> H 	 47.0785 	 14.0132 	 53.2531
| 31> H 	 45.8758 	 12.9778 	 52.9232
| 32> C 	 47.1251 	 13.2615 	 51.209
| 33> H 	 47.1087 	 12.2284 	 50.8187
| 34> H 	 48.0324 	 13.8167 	 51.0604
| 35> C 	 46.0079 	 14.0173 	 50.4816
| 36> H 	 46.2819 	 14.3168 	 49.5092
| 37> H 	 45.8392 	 14.9505 	 50.979
| 38> H 	 45.1351 	 13.3709 	 50.3494
| 39> H 	 42.623 	 9.14878 	 52.1428
| 40> H 	 50.3288 	 11.1445 	 55.169
| 41> *
| 42>
| 43>                          ****END OF INPUT****

CARTESIAN COORDINATES (ANGSTROEM)
---------------------------------
  S     44.473800   10.570900   53.168900
  C     43.686900    9.376540   52.164000
  C     44.685200    8.555000   51.592100
  C     46.023400    8.933180   51.941900
  C     46.073100    9.958620   52.886700
  H     46.986200    8.570090   51.547100
  C     44.455200    7.270860   50.738100
  H     43.530400    7.265130   50.238800
  H     44.501500    6.509930   51.468400
  C     45.445500    6.863750   49.731700
  H     46.348700    6.574010   50.221700
  H     45.065700    6.007370   49.254200
  C     45.648000    8.025540   48.708000
  H     45.964900    8.890290   49.259300
  H     46.372000    7.832850   47.959200
  H     44.612300    8.279300   48.326200
  S     48.503700    9.799720   54.290500
  C     49.412100   11.246800   54.634700
  C     48.853200   12.357000   54.044300
  C     47.645700   12.058200   53.331900
  C     47.294500   10.711100   53.383400
  H     49.344400   13.329100   54.157000
  C     46.832000   13.128800   52.699500
  H     47.078500   14.013200   53.253100
  H     45.875800   12.977800   52.923200
  C     47.125100   13.261500   51.209000
  H     47.108700   12.228400   50.818700
  H     48.032400   13.816700   51.060400
  C     46.007900   14.017300   50.481600
  H     46.281900   14.316800   49.509200
  H     45.839200   14.950500   50.979000
  H     45.135100   13.370900   50.349400
  H     42.623000    9.148780   52.142800
  H     50.328800   11.144500   55.169000

 Total Charge           Charge          ....    0
 Multiplicity           Mult            ....    1
 Number of Electrons    NEL             ....  134
 Basis Dimension        Dim             ....  322

ORBITAL ENERGIES
----------------

  NO   OCC          E(Eh)            E(eV)
   0   2.0000     -88.969158     -2420.9739
   1   2.0000     -88.963738     -2420.8264
   2   2.0000     -10.336373      -281.2670
   3   2.0000     -10.330777      -281.1147
   4   2.0000     -10.320112      -280.8245
   5   2.0000     -10.315959      -280.7115
   6   2.0000     -10.310565      -280.5647
   7   2.0000     -10.301342      -280.3138
   8   2.0000     -10.299423      -280.2615
   9   2.0000     -10.295996      -280.1683
  10   2.0000     -10.281707      -279.7795
  11   2.0000     -10.280107      -279.7359
  12   2.0000     -10.276659      -279.6421
  13   2.0000     -10.274429      -279.5814
  14   2.0000     -10.270984      -279.4877
  15   2.0000     -10.265705      -279.3440
  16   2.0000      -8.083458      -219.9621
  17   2.0000      -8.078522      -219.8277
  18   2.0000      -6.041984      -164.4107
  19   2.0000      -6.037788      -164.2966
  20   2.0000      -6.036981      -164.2746
  21   2.0000      -6.034466      -164.2062
  22   2.0000      -6.032930      -164.1644
  23   2.0000      -6.029448      -164.0696
  24   2.0000      -1.003539       -27.3077
  25   2.0000      -0.984430       -26.7877
  26   2.0000      -0.921558       -25.0769
  27   2.0000      -0.914227       -24.8774
  28   2.0000      -0.863425       -23.4950
  29   2.0000      -0.851277       -23.1644
  30   2.0000      -0.840834       -22.8803
  31   2.0000      -0.814001       -22.1501
  32   2.0000      -0.786379       -21.3985
  33   2.0000      -0.775160       -21.0932
  34   2.0000      -0.704906       -19.1815
  35   2.0000      -0.700673       -19.0663
  36   2.0000      -0.687564       -18.7096
  37   2.0000      -0.666265       -18.1300
  38   2.0000      -0.636849       -17.3296
  39   2.0000      -0.623147       -16.9567
  40   2.0000      -0.599971       -16.3260
  41   2.0000      -0.577032       -15.7018
  42   2.0000      -0.572030       -15.5657
  43   2.0000      -0.561176       -15.2704
  44   2.0000      -0.539234       -14.6733
  45   2.0000      -0.520813       -14.1720
  46   2.0000      -0.519200       -14.1282
  47   2.0000      -0.515913       -14.0387
  48   2.0000      -0.509286       -13.8584
  49   2.0000      -0.495537       -13.4843
  50   2.0000      -0.485244       -13.2042
  51   2.0000      -0.482036       -13.1169
  52   2.0000      -0.478467       -13.0197
  53   2.0000      -0.466700       -12.6996
  54   2.0000      -0.456369       -12.4184
  55   2.0000      -0.446610       -12.1529
  56   2.0000      -0.444151       -12.0860
  57   2.0000      -0.432400       -11.7662
  58   2.0000      -0.428097       -11.6491
  59   2.0000      -0.426246       -11.5987
  60   2.0000      -0.423270       -11.5178
  61   2.0000      -0.415420       -11.3041
  62   2.0000      -0.412987       -11.2379
  63   2.0000      -0.344899        -9.3852
  64   2.0000      -0.331684        -9.0256
  65   2.0000      -0.327647        -8.9157
  66   2.0000      -0.297022        -8.0824
  67   0.0000       0.032580         0.8865
  68   0.0000       0.066912         1.8208
  69   0.0000       0.114215         3.1079
  70   0.0000       0.122615         3.3365
  71   0.0000       0.131864         3.5882

MULLIKEN ATOMIC CHARGES
-----------------------
   0 S :    0.109656
   1 C :   -0.124742
   2 C :   -0.121321
   3 C :    0.016142
   4 C :   -0.137507
   5 H :    0.030753
   6 C :    0.101550
   7 H :    0.008267
   8 H :    0.030285
   9 C :   -0.054585
  10 H :    0.016675
  11 H :    0.019436
  12 C :   -0.039663
  13 H :    0.026495
  14 H :    0.033566
  15 H :    0.028664
  16 S :    0.096097
  17 C :   -0.094107
  18 C :   -0.030063
  19 C :   -0.080273
  20 C :   -0.167329
  21 H :    0.027291
  22 C :    0.171230
  23 H :   -0.000021
  24 H :   -0.028855
  25 C :   -0.073615
  26 H :    0.041370
  27 H :    0.026348
  28 C :   -0.011376
  29 H :    0.010890
  30 H :    0.017227
  31 H :    0.038299
  32 H :    0.059039
  33 H :    0.054176
Sum of atomic charges:    0.0000000

LOEWDIN ATOMIC CHARGES
----------------------
   0 S :    0.427710
   1 C :   -0.211153
   2 C :   -0.055760
   3 C :   -0.075872
   4 C :   -0.196620
   5 H :    0.037206
   6 C :   -0.024727
   7 H :    0.021029
   8 H :    0.033160
   9 C :   -0.035510
  10 H :    0.016005
  11 H :    0.022370
  12 C :   -0.059167
  13 H :    0.022226
  14 H :    0.018213
  15 H :    0.032184
  16 S :    0.401888
  17 C :   -0.177919
  18 C :   -0.073697
  19 C :   -0.050698
  20 C :   -0.201269
  21 H :    0.036767
  22 C :   -0.024576
  23 H :    0.029004
  24 H :    0.000492
  25 C :   -0.028448
  26 H :    0.030650
  27 H :    0.022557
  28 C :   -0.060085
  29 H :    0.017123
  30 H :    0.020437
  31 H :    0.028887
  32 H :    0.034581
  33 H :    0.023009

  Mayer bond orders larger than 0.100000
B(  0-S ,  1-C ) :   1.1433 B(  0-S ,  4-C ) :   1.1806 B(  1-C ,  2-C ) :   1.5913
B(  1-C ,  4-C ) :   0.1021 B(  1-C , 32-H ) :   0.9721 B(  2-C ,  3-C ) :   1.2510
B(  2-C ,  6-C ) :   1.0013 B(  3-C ,  4-C ) :   1.5642 B(  3-C ,  5-H ) :   0.9814
B(  4-C , 20-C ) :   0.9862 B(  6-C ,  7-H ) :   0.9468 B(  6-C ,  8-H ) :   0.9305
B(  6-C ,  9-C ) :   1.0993 B(  9-C , 10-H ) :   0.9423 B(  9-C , 11-H ) :   0.9494
B(  9-C , 12-C ) :   1.0794 B( 12-C , 13-H ) :   0.9733 B( 12-C , 14-H ) :   0.9767
B( 12-C , 15-H ) :   0.9727 B( 16-S , 17-C ) :   1.1691 B( 16-S , 20-C ) :   1.1429
B( 17-C , 18-C ) :   1.5892 B( 17-C , 33-H ) :   0.9719 B( 18-C , 19-C ) :   1.2483
B( 18-C , 21-H ) :   0.9914 B( 19-C , 20-C ) :   1.5937 B( 19-C , 22-C ) :   1.0396
B( 22-C , 23-H ) :   0.9104 B( 22-C , 24-H ) :   0.9225 B( 22-C , 25-C ) :   1.0569
B( 25-C , 26-H ) :   0.9633 B( 25-C , 27-H ) :   0.9538 B( 25-C , 28-C ) :   1.0949
B( 28-C , 29-H ) :   0.9720 B( 28-C , 30-H ) :   0.9695 B( 28-C , 31-H ) :   0.9760

Dispersion correction           -0.014935667
FINAL SINGLE POINT ENERGY     -1339.869328293152

DIPOLE MOMENT
-------------
                                X             Y             Z
Electronic contribution:      3.73728      -2.56204      21.97055
Nuclear contribution   :     -3.68500       2.56823     -22.30158
                        -----------------------------------------
Total Dipole Moment    :      0.05228       0.00619      -0.33103
                        -----------------------------------------
Magnitude (a.u.)       :      0.33519
Magnitude (Debye)      :      0.85199

Rotational constants in cm-1:     0.017847     0.009168     0.007835
Rotational constants in MHz :   535.053121   274.843145   234.879381

                             ****ORCA TERMINATED NORMALLY****
TOTAL RUN TIME: 0 days 0 hours 0 minutes 35 seconds 385 msec
