                         Program Version 4.2.1 -  RELEASE  -
|  1> ! wB97X-D3 SP def2-SVP
|  2> %pal
|  3> nprocs 16
|  4> end
|  5>
|  6> * xyz 0 1
|  7> S 	 -29.284 	 74.8329 	 158.501
|  8> C 	 -28.1097 	 75.927 	 157.715
|  9> C 	 -28.6562 	 77.1592 	 157.632
| 10> C 	 -29.9769 	 77.2263 	 158.117
| 11> C 	 -30.4105 	 76.0831 	 158.731
| 12> H 	 -30.5791 	 78.1802 	 158.254
| 13> C 	 -28.0983 	 78.4968 	 157.041
| 14> H 	 -26.9968 	 78.496 	 156.983
| 15> H 	 -28.2752 	 79.3114 	 157.758
| 16> C 	 -28.6554 	 78.9921 	 155.632
| 17> H 	 -27.9279 	 79.8351 	 155.424
| 18> H 	 -28.3666 	 78.2163 	 154.858
| 19> C 	 -30.1538 	 79.4302 	 155.604
| 20> H 	 -30.8075 	 78.5762 	 155.537
| 21> H 	 -30.3285 	 79.8918 	 156.59
| 22> H 	 -30.3615 	 80.0817 	 154.709
| 23> S 	 -31.5307 	 75.81 	 161.139
| 24> C 	 -33.2972 	 75.837 	 161.238
| 25> C 	 -33.8726 	 75.6257 	 159.975
| 26> C 	 -32.9586 	 75.6805 	 158.925
| 27> C 	 -31.6711 	 75.9443 	 159.403
| 28> H 	 -34.9799 	 75.5418 	 159.814
| 29> C 	 -33.3735 	 75.368 	 157.478
| 30> H 	 -32.6663 	 75.7913 	 156.776
| 31> H 	 -34.3007 	 75.9141 	 157.343
| 32> C 	 -33.7679 	 73.8794 	 157.205
| 33> H 	 -34.4614 	 73.9363 	 156.451
| 34> H 	 -34.3894 	 73.3041 	 157.938
| 35> C 	 -32.6682 	 72.905 	 156.849
| 36> H 	 -33.0919 	 71.9295 	 156.649
| 37> H 	 -32.0717 	 72.774 	 157.798
| 38> H 	 -32.0175 	 73.3212 	 156.082
| 39> H 	 -27.0188 	 75.8337 	 157.778
| 40> H 	 -33.8551 	 75.8267 	 162.146
| 41> *
| 42>
| 43>                          ****END OF INPUT****

CARTESIAN COORDINATES (ANGSTROEM)
---------------------------------
  S    -29.284000   74.832900  158.501000
  C    -28.109700   75.927000  157.715000
  C    -28.656200   77.159200  157.632000
  C    -29.976900   77.226300  158.117000
  C    -30.410500   76.083100  158.731000
  H    -30.579100   78.180200  158.254000
  C    -28.098300   78.496800  157.041000
  H    -26.996800   78.496000  156.983000
  H    -28.275200   79.311400  157.758000
  C    -28.655400   78.992100  155.632000
  H    -27.927900   79.835100  155.424000
  H    -28.366600   78.216300  154.858000
  C    -30.153800   79.430200  155.604000
  H    -30.807500   78.576200  155.537000
  H    -30.328500   79.891800  156.590000
  H    -30.361500   80.081700  154.709000
  S    -31.530700   75.810000  161.139000
  C    -33.297200   75.837000  161.238000
  C    -33.872600   75.625700  159.975000
  C    -32.958600   75.680500  158.925000
  C    -31.671100   75.944300  159.403000
  H    -34.979900   75.541800  159.814000
  C    -33.373500   75.368000  157.478000
  H    -32.666300   75.791300  156.776000
  H    -34.300700   75.914100  157.343000
  C    -33.767900   73.879400  157.205000
  H    -34.461400   73.936300  156.451000
  H    -34.389400   73.304100  157.938000
  C    -32.668200   72.905000  156.849000
  H    -33.091900   71.929500  156.649000
  H    -32.071700   72.774000  157.798000
  H    -32.017500   73.321200  156.082000
  H    -27.018800   75.833700  157.778000
  H    -33.855100   75.826700  162.146000

 Total Charge           Charge          ....    0
 Multiplicity           Mult            ....    1
 Number of Electrons    NEL             ....  134
 Basis Dimension        Dim             ....  322

ORBITAL ENERGIES
----------------

  NO   OCC          E(Eh)            E(eV)
   0   2.0000     -88.968264     -2420.9496
   1   2.0000     -88.963015     -2420.8067
   2   2.0000     -10.322469      -280.8887
   3   2.0000     -10.320200      -280.8269
   4   2.0000     -10.319365      -280.8042
   5   2.0000     -10.310683      -280.5679
   6   2.0000     -10.303241      -280.3654
   7   2.0000     -10.301073      -280.3064
   8   2.0000     -10.300406      -280.2883
   9   2.0000     -10.298648      -280.2405
  10   2.0000     -10.297172      -280.2003
  11   2.0000     -10.296936      -280.1939
  12   2.0000     -10.287847      -279.9466
  13   2.0000     -10.286905      -279.9209
  14   2.0000     -10.281764      -279.7810
  15   2.0000     -10.273517      -279.5566
  16   2.0000      -8.082755      -219.9429
  17   2.0000      -8.078195      -219.8189
  18   2.0000      -6.041130      -164.3875
  19   2.0000      -6.037503      -164.2888
  20   2.0000      -6.036746      -164.2682
  21   2.0000      -6.033464      -164.1789
  22   2.0000      -6.032554      -164.1541
  23   2.0000      -6.028946      -164.0560
  24   2.0000      -1.012037       -27.5389
  25   2.0000      -0.985984       -26.8300
  26   2.0000      -0.906828       -24.6761
  27   2.0000      -0.899758       -24.4837
  28   2.0000      -0.868791       -23.6410
  29   2.0000      -0.853336       -23.2205
  30   2.0000      -0.839966       -22.8566
  31   2.0000      -0.809025       -22.0147
  32   2.0000      -0.785062       -21.3626
  33   2.0000      -0.775421       -21.1003
  34   2.0000      -0.704706       -19.1760
  35   2.0000      -0.696295       -18.9471
  36   2.0000      -0.693201       -18.8629
  37   2.0000      -0.660241       -17.9661
  38   2.0000      -0.635327       -17.2881
  39   2.0000      -0.611378       -16.6364
  40   2.0000      -0.596462       -16.2306
  41   2.0000      -0.562838       -15.3156
  42   2.0000      -0.550877       -14.9901
  43   2.0000      -0.542273       -14.7560
  44   2.0000      -0.535863       -14.5816
  45   2.0000      -0.533038       -14.5047
  46   2.0000      -0.523512       -14.2455
  47   2.0000      -0.510779       -13.8990
  48   2.0000      -0.498916       -13.5762
  49   2.0000      -0.494530       -13.4568
  50   2.0000      -0.486298       -13.2328
  51   2.0000      -0.473784       -12.8923
  52   2.0000      -0.470767       -12.8102
  53   2.0000      -0.467444       -12.7198
  54   2.0000      -0.455697       -12.4001
  55   2.0000      -0.445932       -12.1344
  56   2.0000      -0.441689       -12.0190
  57   2.0000      -0.434216       -11.8156
  58   2.0000      -0.432173       -11.7600
  59   2.0000      -0.428938       -11.6720
  60   2.0000      -0.425217       -11.5707
  61   2.0000      -0.409679       -11.1479
  62   2.0000      -0.405733       -11.0406
  63   2.0000      -0.337316        -9.1788
  64   2.0000      -0.330488        -8.9930
  65   2.0000      -0.322272        -8.7695
  66   2.0000      -0.305467        -8.3122
  67   0.0000       0.037131         1.0104
  68   0.0000       0.053801         1.4640
  69   0.0000       0.106598         2.9007
  70   0.0000       0.120617         3.2822
  71   0.0000       0.124508         3.3880

MULLIKEN ATOMIC CHARGES
-----------------------
   0 S :    0.105435
   1 C :   -0.131837
   2 C :   -0.061648
   3 C :    0.000001
   4 C :   -0.156849
   5 H :    0.032944
   6 C :    0.016883
   7 H :    0.019118
   8 H :    0.031731
   9 C :   -0.110885
  10 H :    0.039943
  11 H :    0.042463
  12 C :   -0.046887
  13 H :    0.041300
  14 H :    0.034777
  15 H :    0.054689
  16 S :    0.118118
  17 C :   -0.080438
  18 C :   -0.059737
  19 C :   -0.003398
  20 C :   -0.210644
  21 H :    0.034664
  22 C :    0.108506
  23 H :    0.030109
  24 H :    0.017254
  25 C :   -0.069065
  26 H :   -0.000197
  27 H :    0.023940
  28 C :   -0.037953
  29 H :    0.032746
  30 H :    0.034879
  31 H :    0.036147
  32 H :    0.065739
  33 H :    0.048153
Sum of atomic charges:   -0.0000000

LOEWDIN ATOMIC CHARGES
----------------------
   0 S :    0.409938
   1 C :   -0.205851
   2 C :   -0.063862
   3 C :   -0.079393
   4 C :   -0.217064
   5 H :    0.041745
   6 C :   -0.035651
   7 H :    0.027301
   8 H :    0.028956
   9 C :   -0.045111
  10 H :    0.029949
  11 H :    0.028450
  12 C :   -0.071121
  13 H :    0.024649
  14 H :    0.026346
  15 H :    0.037123
  16 S :    0.411477
  17 C :   -0.176412
  18 C :   -0.072219
  19 C :   -0.054090
  20 C :   -0.205111
  21 H :    0.039354
  22 C :   -0.018993
  23 H :    0.032590
  24 H :    0.033083
  25 C :   -0.043969
  26 H :    0.009379
  27 H :    0.032647
  28 C :   -0.063995
  29 H :    0.025664
  30 H :    0.030424
  31 H :    0.023011
  32 H :    0.038546
  33 H :    0.022208

  Mayer bond orders larger than 0.100000
B(  0-S ,  1-C ) :   1.1138 B(  0-S ,  4-C ) :   1.1688 B(  1-C ,  2-C ) :   1.6565
B(  1-C , 32-H ) :   0.9532 B(  2-C ,  3-C ) :   1.2393 B(  2-C ,  6-C ) :   1.0036
B(  3-C ,  4-C ) :   1.5902 B(  3-C ,  5-H ) :   0.9818 B(  4-C , 20-C ) :   1.0147
B(  6-C ,  7-H ) :   0.9468 B(  6-C ,  8-H ) :   0.9462 B(  6-C ,  9-C ) :   1.0682
B(  9-C , 10-H ) :   0.9577 B(  9-C , 11-H ) :   0.9566 B(  9-C , 12-C ) :   1.0632
B( 12-C , 13-H ) :   0.9725 B( 12-C , 14-H ) :   0.9724 B( 12-C , 15-H ) :   0.9717
B( 16-S , 17-C ) :   1.1567 B( 16-S , 20-C ) :   1.1570 B( 17-C , 18-C ) :   1.5874
B( 17-C , 20-C ) :   0.1175 B( 17-C , 33-H ) :   0.9736 B( 18-C , 19-C ) :   1.2682
B( 18-C , 21-H ) :   0.9762 B( 19-C , 20-C ) :   1.5734 B( 19-C , 22-C ) :   1.0454
B( 22-C , 23-H ) :   0.9362 B( 22-C , 24-H ) :   0.9278 B( 22-C , 25-C ) :   1.0563
B( 25-C , 26-H ) :   0.9521 B( 25-C , 27-H ) :   0.9557 B( 25-C , 28-C ) :   1.0841
B( 28-C , 29-H ) :   0.9701 B( 28-C , 30-H ) :   0.9760 B( 28-C , 31-H ) :   0.9758

Dispersion correction           -0.015125266
FINAL SINGLE POINT ENERGY     -1339.856872471684

DIPOLE MOMENT
-------------
                                X             Y             Z
Electronic contribution:      4.81983      -6.60959      20.48331
Nuclear contribution   :     -5.15350       6.91304     -20.73479
                        -----------------------------------------
Total Dipole Moment    :     -0.33367       0.30345      -0.25148
                        -----------------------------------------
Magnitude (a.u.)       :      0.51639
Magnitude (Debye)      :      1.31255

Rotational constants in cm-1:     0.018384     0.008822     0.008181
Rotational constants in MHz :   551.131469   264.482553   245.268544

                             ****ORCA TERMINATED NORMALLY****
TOTAL RUN TIME: 0 days 0 hours 0 minutes 35 seconds 282 msec
