                         Program Version 4.2.1 -  RELEASE  -
|  1> ! wB97X-D3 SP def2-SVP
|  2> %pal
|  3> nprocs 16
|  4> end
|  5>
|  6> * xyz 0 1
|  7> S 	 -8.78106 	 49.3206 	 42.8955
|  8> C 	 -10.4856 	 49.0344 	 42.9885
|  9> C 	 -10.9578 	 47.8484 	 42.5293
| 10> C 	 -9.83778 	 47.1361 	 42.1084
| 11> C 	 -8.60785 	 47.7899 	 42.1642
| 12> H 	 -10.0746 	 46.1554 	 41.6425
| 13> C 	 -12.4312 	 47.4558 	 42.5131
| 14> H 	 -12.6349 	 46.9156 	 41.5387
| 15> H 	 -13.0732 	 48.2979 	 42.4508
| 16> C 	 -12.9761 	 46.5459 	 43.6249
| 17> H 	 -13.9743 	 46.1374 	 43.2867
| 18> H 	 -12.4784 	 45.5594 	 43.7218
| 19> C 	 -13.0781 	 47.1733 	 44.9467
| 20> H 	 -13.3824 	 46.4539 	 45.7208
| 21> H 	 -12.1563 	 47.6731 	 45.2648
| 22> H 	 -13.7686 	 47.9959 	 44.9003
| 23> S 	 -6.73464 	 48.1565 	 40.2073
| 24> C 	 -5.26148 	 47.1278 	 40.195
| 25> C 	 -5.32399 	 46.1648 	 41.1653
| 26> C 	 -6.4728 	 46.2954 	 42.0258
| 27> C 	 -7.29029 	 47.341 	 41.6601
| 28> H 	 -4.53727 	 45.4007 	 41.2366
| 29> C 	 -6.86355 	 45.2991 	 43.0666
| 30> H 	 -7.59475 	 45.6542 	 43.8114
| 31> H 	 -6.19133 	 45.1452 	 43.8338
| 32> C 	 -7.12269 	 43.9337 	 42.5495
| 33> H 	 -6.1573 	 43.5233 	 42.1543
| 34> H 	 -7.75747 	 44.0284 	 41.6723
| 35> C 	 -7.80954 	 42.9383 	 43.4662
| 36> H 	 -8.83992 	 43.1719 	 43.4922
| 37> H 	 -7.38462 	 42.9128 	 44.4438
| 38> H 	 -7.74084 	 41.9622 	 43.0668
| 39> H 	 -11.1895 	 49.8913 	 43.2016
| 40> H 	 -4.34745 	 47.1198 	 39.587
| 41> *
| 42>
| 43>                          ****END OF INPUT****

CARTESIAN COORDINATES (ANGSTROEM)
---------------------------------
  S     -8.781060   49.320600   42.895500
  C    -10.485600   49.034400   42.988500
  C    -10.957800   47.848400   42.529300
  C     -9.837780   47.136100   42.108400
  C     -8.607850   47.789900   42.164200
  H    -10.074600   46.155400   41.642500
  C    -12.431200   47.455800   42.513100
  H    -12.634900   46.915600   41.538700
  H    -13.073200   48.297900   42.450800
  C    -12.976100   46.545900   43.624900
  H    -13.974300   46.137400   43.286700
  H    -12.478400   45.559400   43.721800
  C    -13.078100   47.173300   44.946700
  H    -13.382400   46.453900   45.720800
  H    -12.156300   47.673100   45.264800
  H    -13.768600   47.995900   44.900300
  S     -6.734640   48.156500   40.207300
  C     -5.261480   47.127800   40.195000
  C     -5.323990   46.164800   41.165300
  C     -6.472800   46.295400   42.025800
  C     -7.290290   47.341000   41.660100
  H     -4.537270   45.400700   41.236600
  C     -6.863550   45.299100   43.066600
  H     -7.594750   45.654200   43.811400
  H     -6.191330   45.145200   43.833800
  C     -7.122690   43.933700   42.549500
  H     -6.157300   43.523300   42.154300
  H     -7.757470   44.028400   41.672300
  C     -7.809540   42.938300   43.466200
  H     -8.839920   43.171900   43.492200
  H     -7.384620   42.912800   44.443800
  H     -7.740840   41.962200   43.066800
  H    -11.189500   49.891300   43.201600
  H     -4.347450   47.119800   39.587000

 Total Charge           Charge          ....    0
 Multiplicity           Mult            ....    1
 Number of Electrons    NEL             ....  134
 Basis Dimension        Dim             ....  322

ORBITAL ENERGIES
----------------

  NO   OCC          E(Eh)            E(eV)
   0   2.0000     -88.969023     -2420.9702
   1   2.0000     -88.965614     -2420.8774
   2   2.0000     -10.326856      -281.0081
   3   2.0000     -10.325301      -280.9657
   4   2.0000     -10.319194      -280.7995
   5   2.0000     -10.311108      -280.5795
   6   2.0000     -10.301869      -280.3281
   7   2.0000     -10.300465      -280.2899
   8   2.0000     -10.295630      -280.1583
   9   2.0000     -10.294877      -280.1378
  10   2.0000     -10.294498      -280.1275
  11   2.0000     -10.289919      -280.0029
  12   2.0000     -10.279919      -279.7308
  13   2.0000     -10.276000      -279.6242
  14   2.0000     -10.272017      -279.5158
  15   2.0000     -10.267665      -279.3974
  16   2.0000      -8.084981      -220.0035
  17   2.0000      -8.079441      -219.8528
  18   2.0000      -6.043138      -164.4422
  19   2.0000      -6.039428      -164.3412
  20   2.0000      -6.038147      -164.3063
  21   2.0000      -6.035912      -164.2455
  22   2.0000      -6.034155      -164.1977
  23   2.0000      -6.029942      -164.0831
  24   2.0000      -1.012651       -27.5556
  25   2.0000      -0.985685       -26.8218
  26   2.0000      -0.918008       -24.9803
  27   2.0000      -0.915325       -24.9072
  28   2.0000      -0.872732       -23.7482
  29   2.0000      -0.852532       -23.1986
  30   2.0000      -0.848784       -23.0966
  31   2.0000      -0.813604       -22.1393
  32   2.0000      -0.791141       -21.5280
  33   2.0000      -0.777291       -21.1512
  34   2.0000      -0.706477       -19.2242
  35   2.0000      -0.698348       -19.0030
  36   2.0000      -0.690322       -18.7846
  37   2.0000      -0.656077       -17.8528
  38   2.0000      -0.637961       -17.3598
  39   2.0000      -0.626228       -17.0405
  40   2.0000      -0.603366       -16.4184
  41   2.0000      -0.569300       -15.4914
  42   2.0000      -0.562238       -15.2993
  43   2.0000      -0.554729       -15.0949
  44   2.0000      -0.541706       -14.7406
  45   2.0000      -0.527507       -14.3542
  46   2.0000      -0.519402       -14.1336
  47   2.0000      -0.513639       -13.9768
  48   2.0000      -0.507883       -13.8202
  49   2.0000      -0.488520       -13.2933
  50   2.0000      -0.486228       -13.2309
  51   2.0000      -0.477890       -13.0040
  52   2.0000      -0.474105       -12.9010
  53   2.0000      -0.465300       -12.6615
  54   2.0000      -0.458184       -12.4678
  55   2.0000      -0.448251       -12.1975
  56   2.0000      -0.444321       -12.0906
  57   2.0000      -0.440254       -11.9799
  58   2.0000      -0.434427       -11.8214
  59   2.0000      -0.431997       -11.7552
  60   2.0000      -0.426153       -11.5962
  61   2.0000      -0.407293       -11.0830
  62   2.0000      -0.399186       -10.8624
  63   2.0000      -0.341176        -9.2839
  64   2.0000      -0.334593        -9.1047
  65   2.0000      -0.323890        -8.8135
  66   2.0000      -0.304083        -8.2745
  67   0.0000       0.039508         1.0751
  68   0.0000       0.065574         1.7844
  69   0.0000       0.112864         3.0712
  70   0.0000       0.119049         3.2395
  71   0.0000       0.126081         3.4309

MULLIKEN ATOMIC CHARGES
-----------------------
   0 S :    0.143359
   1 C :   -0.154121
   2 C :   -0.078453
   3 C :    0.040509
   4 C :   -0.177315
   5 H :    0.008917
   6 C :    0.074194
   7 H :    0.032746
   8 H :    0.014070
   9 C :   -0.078229
  10 H :    0.025196
  11 H :    0.022118
  12 C :   -0.026861
  13 H :    0.039967
  14 H :    0.033828
  15 H :    0.011553
  16 S :    0.108928
  17 C :   -0.086299
  18 C :   -0.059226
  19 C :    0.012820
  20 C :   -0.169616
  21 H :    0.029343
  22 C :    0.112658
  23 H :    0.013093
  24 H :   -0.016294
  25 C :   -0.115789
  26 H :    0.024113
  27 H :    0.021201
  28 C :    0.013591
  29 H :    0.023923
  30 H :    0.020392
  31 H :    0.021369
  32 H :    0.056620
  33 H :    0.057694
Sum of atomic charges:    0.0000000

LOEWDIN ATOMIC CHARGES
----------------------
   0 S :    0.442524
   1 C :   -0.204701
   2 C :   -0.074944
   3 C :   -0.057720
   4 C :   -0.221363
   5 H :    0.033672
   6 C :   -0.025471
   7 H :    0.040587
   8 H :    0.026756
   9 C :   -0.051430
  10 H :    0.029358
  11 H :    0.024311
  12 C :   -0.068922
  13 H :    0.031577
  14 H :    0.028408
  15 H :    0.019769
  16 S :    0.386198
  17 C :   -0.179565
  18 C :   -0.069671
  19 C :   -0.049284
  20 C :   -0.195438
  21 H :    0.035178
  22 C :   -0.046724
  23 H :    0.037084
  24 H :    0.020996
  25 C :   -0.039910
  26 H :    0.022647
  27 H :    0.020241
  28 C :   -0.052207
  29 H :    0.023393
  30 H :    0.020232
  31 H :    0.025022
  32 H :    0.030667
  33 H :    0.038732

  Mayer bond orders larger than 0.100000
B(  0-S ,  1-C ) :   1.1679 B(  0-S ,  4-C ) :   1.1763 B(  1-C ,  2-C ) :   1.5993
B(  1-C , 32-H ) :   0.9489 B(  2-C ,  3-C ) :   1.3018 B(  2-C ,  6-C ) :   1.0191
B(  3-C ,  4-C ) :   1.5392 B(  3-C ,  5-H ) :   0.9911 B(  4-C , 20-C ) :   0.9926
B(  6-C ,  7-H ) :   0.9334 B(  6-C ,  8-H ) :   0.9410 B(  6-C ,  9-C ) :   1.0745
B(  9-C , 10-H ) :   0.9474 B(  9-C , 11-H ) :   0.9530 B(  9-C , 12-C ) :   1.0877
B( 12-C , 13-H ) :   0.9691 B( 12-C , 14-H ) :   0.9719 B( 12-C , 15-H ) :   0.9696
B( 16-S , 17-C ) :   1.1242 B( 16-S , 20-C ) :   1.1356 B( 17-C , 18-C ) :   1.6649
B( 17-C , 33-H ) :   0.9604 B( 18-C , 19-C ) :   1.2036 B( 18-C , 21-H ) :   0.9816
B( 19-C , 20-C ) :   1.6420 B( 19-C , 22-C ) :   1.0628 B( 22-C , 23-H ) :   0.9220
B( 22-C , 24-H ) :   0.9041 B( 22-C , 25-C ) :   1.0524 B( 25-C , 26-H ) :   0.9507
B( 25-C , 27-H ) :   0.9584 B( 25-C , 28-C ) :   1.0926 B( 28-C , 29-H ) :   0.9733
B( 28-C , 30-H ) :   0.9729 B( 28-C , 31-H ) :   0.9694

Dispersion correction           -0.014298099
FINAL SINGLE POINT ENERGY     -1339.865309750879

DIPOLE MOMENT
-------------
                                X             Y             Z
Electronic contribution:     16.12094      21.42856     -12.71694
Nuclear contribution   :    -16.44143     -21.96785      12.86684
                        -----------------------------------------
Total Dipole Moment    :     -0.32049      -0.53929       0.14990
                        -----------------------------------------
Magnitude (a.u.)       :      0.64499
Magnitude (Debye)      :      1.63944

Rotational constants in cm-1:     0.018539     0.008938     0.006663
Rotational constants in MHz :   555.772860   267.952633   199.764632

                             ****ORCA TERMINATED NORMALLY****
TOTAL RUN TIME: 0 days 0 hours 0 minutes 33 seconds 527 msec
