                         Program Version 4.2.1 -  RELEASE  -
|  1> ! wB97X-D3 SP def2-SVP
|  2> %pal
|  3> nprocs 16
|  4> end
|  5>
|  6> * xyz 0 1
|  7> S 	 45.1063 	 6.42057 	 85.9617
|  8> C 	 45.4066 	 7.58149 	 87.2046
|  9> C 	 46.3725 	 7.15631 	 88.0554
| 10> C 	 46.7938 	 5.78442 	 87.7916
| 11> C 	 46.2396 	 5.28147 	 86.6744
| 12> H 	 47.4583 	 5.14387 	 88.4037
| 13> C 	 46.8713 	 7.9388 	 89.2783
| 14> H 	 46.3884 	 7.57051 	 90.2043
| 15> H 	 46.6425 	 8.97422 	 89.1208
| 16> C 	 48.388 	 7.82085 	 89.6054
| 17> H 	 48.7149 	 8.50389 	 90.3921
| 18> H 	 48.6111 	 6.82194 	 90.0044
| 19> C 	 49.3807 	 8.11233 	 88.4408
| 20> H 	 49.2258 	 9.1274 	 88.0638
| 21> H 	 50.383 	 8.07678 	 88.7637
| 22> H 	 49.2232 	 7.2584 	 87.745
| 23> S 	 45.1627 	 3.30369 	 85.2256
| 24> C 	 46.216 	 2.00719 	 84.5979
| 25> C 	 47.4513 	 2.08691 	 85.1373
| 26> C 	 47.6389 	 3.13761 	 86.0204
| 27> C 	 46.4719 	 3.922 	 86.1056
| 28> H 	 48.1453 	 1.39781 	 84.7129
| 29> C 	 49.0381 	 3.48246 	 86.5341
| 30> H 	 49.7605 	 2.59488 	 86.3584
| 31> H 	 48.9091 	 3.57764 	 87.5486
| 32> C 	 49.7212 	 4.75549 	 85.8921
| 33> H 	 49.1174 	 5.63571 	 86.0518
| 34> H 	 49.8215 	 4.53232 	 84.7968
| 35> C 	 51.1516 	 5.02062 	 86.5279
| 36> H 	 51.9846 	 4.39453 	 86.1413
| 37> H 	 51.1319 	 4.82274 	 87.5807
| 38> H 	 51.354 	 6.0379 	 86.3513
| 39> H 	 44.9656 	 8.58303 	 87.1694
| 40> H 	 46.0295 	 1.39891 	 83.7695
| 41> *
| 42>
| 43>                          ****END OF INPUT****

CARTESIAN COORDINATES (ANGSTROEM)
---------------------------------
  S     45.106300    6.420570   85.961700
  C     45.406600    7.581490   87.204600
  C     46.372500    7.156310   88.055400
  C     46.793800    5.784420   87.791600
  C     46.239600    5.281470   86.674400
  H     47.458300    5.143870   88.403700
  C     46.871300    7.938800   89.278300
  H     46.388400    7.570510   90.204300
  H     46.642500    8.974220   89.120800
  C     48.388000    7.820850   89.605400
  H     48.714900    8.503890   90.392100
  H     48.611100    6.821940   90.004400
  C     49.380700    8.112330   88.440800
  H     49.225800    9.127400   88.063800
  H     50.383000    8.076780   88.763700
  H     49.223200    7.258400   87.745000
  S     45.162700    3.303690   85.225600
  C     46.216000    2.007190   84.597900
  C     47.451300    2.086910   85.137300
  C     47.638900    3.137610   86.020400
  C     46.471900    3.922000   86.105600
  H     48.145300    1.397810   84.712900
  C     49.038100    3.482460   86.534100
  H     49.760500    2.594880   86.358400
  H     48.909100    3.577640   87.548600
  C     49.721200    4.755490   85.892100
  H     49.117400    5.635710   86.051800
  H     49.821500    4.532320   84.796800
  C     51.151600    5.020620   86.527900
  H     51.984600    4.394530   86.141300
  H     51.131900    4.822740   87.580700
  H     51.354000    6.037900   86.351300
  H     44.965600    8.583030   87.169400
  H     46.029500    1.398910   83.769500

 Total Charge           Charge          ....    0
 Multiplicity           Mult            ....    1
 Number of Electrons    NEL             ....  134
 Basis Dimension        Dim             ....  322

ORBITAL ENERGIES
----------------

  NO   OCC          E(Eh)            E(eV)
   0   2.0000     -88.967115     -2420.9183
   1   2.0000     -88.964249     -2420.8403
   2   2.0000     -10.329316      -281.0750
   3   2.0000     -10.327722      -281.0316
   4   2.0000     -10.312724      -280.6235
   5   2.0000     -10.306984      -280.4673
   6   2.0000     -10.303971      -280.3853
   7   2.0000     -10.301899      -280.3289
   8   2.0000     -10.295681      -280.1597
   9   2.0000     -10.295411      -280.1524
  10   2.0000     -10.294554      -280.1291
  11   2.0000     -10.293022      -280.0874
  12   2.0000     -10.288614      -279.9674
  13   2.0000     -10.284843      -279.8648
  14   2.0000     -10.276707      -279.6434
  15   2.0000     -10.275407      -279.6080
  16   2.0000      -8.082360      -219.9322
  17   2.0000      -8.079570      -219.8563
  18   2.0000      -6.040716      -164.3762
  19   2.0000      -6.038202      -164.3078
  20   2.0000      -6.036782      -164.2692
  21   2.0000      -6.034042      -164.1946
  22   2.0000      -6.033261      -164.1734
  23   2.0000      -6.030105      -164.0875
  24   2.0000      -1.013467       -27.5778
  25   2.0000      -0.990669       -26.9575
  26   2.0000      -0.906495       -24.6670
  27   2.0000      -0.899476       -24.4760
  28   2.0000      -0.874994       -23.8098
  29   2.0000      -0.851094       -23.1595
  30   2.0000      -0.841487       -22.8980
  31   2.0000      -0.822730       -22.3876
  32   2.0000      -0.781659       -21.2700
  33   2.0000      -0.772286       -21.0150
  34   2.0000      -0.708604       -19.2821
  35   2.0000      -0.696193       -18.9444
  36   2.0000      -0.690333       -18.7849
  37   2.0000      -0.663527       -18.0555
  38   2.0000      -0.640514       -17.4293
  39   2.0000      -0.624075       -16.9819
  40   2.0000      -0.593463       -16.1490
  41   2.0000      -0.565604       -15.3909
  42   2.0000      -0.562915       -15.3177
  43   2.0000      -0.552987       -15.0475
  44   2.0000      -0.542238       -14.7550
  45   2.0000      -0.523089       -14.2340
  46   2.0000      -0.517624       -14.0853
  47   2.0000      -0.511207       -13.9107
  48   2.0000      -0.504093       -13.7171
  49   2.0000      -0.501110       -13.6359
  50   2.0000      -0.490586       -13.3495
  51   2.0000      -0.483811       -13.1652
  52   2.0000      -0.475894       -12.9497
  53   2.0000      -0.463233       -12.6052
  54   2.0000      -0.459221       -12.4960
  55   2.0000      -0.447342       -12.1728
  56   2.0000      -0.446185       -12.1413
  57   2.0000      -0.433742       -11.8027
  58   2.0000      -0.431753       -11.7486
  59   2.0000      -0.425322       -11.5736
  60   2.0000      -0.422121       -11.4865
  61   2.0000      -0.419094       -11.4041
  62   2.0000      -0.409716       -11.1489
  63   2.0000      -0.360011        -9.7964
  64   2.0000      -0.337710        -9.1896
  65   2.0000      -0.327593        -8.9143
  66   2.0000      -0.288373        -7.8470
  67   0.0000       0.024566         0.6685
  68   0.0000       0.084474         2.2987
  69   0.0000       0.107122         2.9149
  70   0.0000       0.121944         3.3183
  71   0.0000       0.126650         3.4463

MULLIKEN ATOMIC CHARGES
-----------------------
   0 S :    0.100392
   1 C :   -0.134659
   2 C :   -0.080526
   3 C :   -0.029048
   4 C :   -0.096088
   5 H :    0.024298
   6 C :    0.104359
   7 H :    0.051711
   8 H :    0.013880
   9 C :   -0.129402
  10 H :    0.029606
  11 H :    0.023917
  12 C :   -0.039934
  13 H :    0.035920
  14 H :    0.022152
  15 H :    0.035506
  16 S :    0.103217
  17 C :   -0.075793
  18 C :   -0.040574
  19 C :   -0.013047
  20 C :   -0.157969
  21 H :    0.009659
  22 C :    0.055515
  23 H :    0.034841
  24 H :    0.005254
  25 C :   -0.094885
  26 H :    0.051626
  27 H :    0.043194
  28 C :   -0.033551
  29 H :    0.037804
  30 H :    0.021329
  31 H :    0.030955
  32 H :    0.058190
  33 H :    0.032150
Sum of atomic charges:    0.0000000

LOEWDIN ATOMIC CHARGES
----------------------
   0 S :    0.397054
   1 C :   -0.201912
   2 C :   -0.063346
   3 C :   -0.074668
   4 C :   -0.183994
   5 H :    0.036593
   6 C :   -0.027566
   7 H :    0.041213
   8 H :    0.024565
   9 C :   -0.046553
  10 H :    0.024206
  11 H :    0.018722
  12 C :   -0.064581
  13 H :    0.026536
  14 H :    0.018447
  15 H :    0.028270
  16 S :    0.418472
  17 C :   -0.172790
  18 C :   -0.064661
  19 C :   -0.063558
  20 C :   -0.203794
  21 H :    0.032584
  22 C :   -0.029497
  23 H :    0.040106
  24 H :    0.010774
  25 C :   -0.032094
  26 H :    0.020266
  27 H :    0.031472
  28 C :   -0.063643
  29 H :    0.029381
  30 H :    0.019987
  31 H :    0.021089
  32 H :    0.034602
  33 H :    0.018322

  Mayer bond orders larger than 0.100000
B(  0-S ,  1-C ) :   1.1212 B(  0-S ,  4-C ) :   1.1372 B(  1-C ,  2-C ) :   1.6551
B(  1-C , 32-H ) :   0.9650 B(  2-C ,  3-C ) :   1.1848 B(  2-C ,  6-C ) :   1.0232
B(  3-C ,  4-C ) :   1.6257 B(  3-C ,  5-H ) :   0.9910 B(  4-C , 20-C ) :   1.0374
B(  6-C ,  7-H ) :   0.9403 B(  6-C ,  8-H ) :   0.9419 B(  6-C ,  9-C ) :   1.0660
B(  9-C , 10-H ) :   0.9598 B(  9-C , 11-H ) :   0.9538 B(  9-C , 12-C ) :   1.0805
B( 12-C , 13-H ) :   0.9752 B( 12-C , 14-H ) :   0.9716 B( 12-C , 15-H ) :   0.9701
B( 16-S , 17-C ) :   1.1318 B( 16-S , 20-C ) :   1.1741 B( 17-C , 18-C ) :   1.6331
B( 17-C , 33-H ) :   0.9700 B( 18-C , 19-C ) :   1.2625 B( 18-C , 21-H ) :   0.9926
B( 19-C , 20-C ) :   1.5452 B( 19-C , 22-C ) :   1.0310 B( 22-C , 23-H ) :   0.9440
B( 22-C , 24-H ) :   0.9246 B( 22-C , 25-C ) :   1.0583 B( 25-C , 26-H ) :   0.9566
B( 25-C , 27-H ) :   0.9562 B( 25-C , 28-C ) :   1.0699 B( 28-C , 29-H ) :   0.9759
B( 28-C , 30-H ) :   0.9765 B( 28-C , 31-H ) :   0.9760

Dispersion correction           -0.016086816
FINAL SINGLE POINT ENERGY     -1339.875521175891

DIPOLE MOMENT
-------------
                                X             Y             Z
Electronic contribution:    -27.87404      -9.71818     -12.28713
Nuclear contribution   :     28.50555       9.88224      12.49836
                        -----------------------------------------
Total Dipole Moment    :      0.63152       0.16407       0.21123
                        -----------------------------------------
Magnitude (a.u.)       :      0.68582
Magnitude (Debye)      :      1.74322

Rotational constants in cm-1:     0.018195     0.010917     0.007408
Rotational constants in MHz :   545.473022   327.270928   222.082211

                             ****ORCA TERMINATED NORMALLY****
TOTAL RUN TIME: 0 days 0 hours 0 minutes 30 seconds 961 msec
