                         Program Version 4.2.1 -  RELEASE  -
|  1> ! wB97X-D3 SP def2-SVP
|  2> %pal
|  3> nprocs 16
|  4> end
|  5>
|  6> * xyz 0 1
|  7> S 	 -40.2916 	 -0.504898 	 95.3525
|  8> C 	 -40.5719 	 -2.13984 	 94.9803
|  9> C 	 -39.7155 	 -2.94279 	 95.7098
| 10> C 	 -38.6714 	 -2.19208 	 96.4102
| 11> C 	 -38.8625 	 -0.868669 	 96.2735
| 12> H 	 -37.8623 	 -2.61729 	 96.988
| 13> C 	 -39.8479 	 -4.49673 	 95.7113
| 14> H 	 -40.2477 	 -4.86435 	 94.7336
| 15> H 	 -40.6256 	 -4.6341 	 96.3719
| 16> C 	 -38.6407 	 -5.39153 	 96.1673
| 17> H 	 -38.2794 	 -4.96616 	 97.0785
| 18> H 	 -38.98 	 -6.41744 	 96.3287
| 19> C 	 -37.5039 	 -5.36036 	 95.2925
| 20> H 	 -36.5398 	 -5.85387 	 95.7233
| 21> H 	 -37.7704 	 -5.90406 	 94.3577
| 22> H 	 -37.1634 	 -4.33087 	 95.0462
| 23> S 	 -38.3993 	 0.702778 	 98.5022
| 24> C 	 -37.0878 	 1.79992 	 98.6006
| 25> C 	 -36.26 	 1.63584 	 97.5143
| 26> C 	 -36.7626 	 0.645907 	 96.5654
| 27> C 	 -38.0185 	 0.196442 	 96.8713
| 28> H 	 -35.2898 	 2.17863 	 97.4943
| 29> C 	 -35.9595 	 0.33164 	 95.3329
| 30> H 	 -36.129 	 1.2251 	 94.7468
| 31> H 	 -36.4483 	 -0.429126 	 94.7916
| 32> C 	 -34.4644 	 0.044174 	 95.5215
| 33> H 	 -34.365 	 -0.758505 	 96.2796
| 34> H 	 -34.0171 	 0.943049 	 95.9541
| 35> C 	 -33.8188 	 -0.285711 	 94.2008
| 36> H 	 -34.1199 	 -1.25076 	 93.7528
| 37> H 	 -32.7666 	 -0.34435 	 94.4093
| 38> H 	 -34.1453 	 0.588778 	 93.6292
| 39> H 	 -41.496 	 -2.42478 	 94.5462
| 40> H 	 -37.0248 	 2.42887 	 99.4799
| 41> *
| 42>
| 43>                          ****END OF INPUT****

CARTESIAN COORDINATES (ANGSTROEM)
---------------------------------
  S    -40.291600   -0.504898   95.352500
  C    -40.571900   -2.139840   94.980300
  C    -39.715500   -2.942790   95.709800
  C    -38.671400   -2.192080   96.410200
  C    -38.862500   -0.868669   96.273500
  H    -37.862300   -2.617290   96.988000
  C    -39.847900   -4.496730   95.711300
  H    -40.247700   -4.864350   94.733600
  H    -40.625600   -4.634100   96.371900
  C    -38.640700   -5.391530   96.167300
  H    -38.279400   -4.966160   97.078500
  H    -38.980000   -6.417440   96.328700
  C    -37.503900   -5.360360   95.292500
  H    -36.539800   -5.853870   95.723300
  H    -37.770400   -5.904060   94.357700
  H    -37.163400   -4.330870   95.046200
  S    -38.399300    0.702778   98.502200
  C    -37.087800    1.799920   98.600600
  C    -36.260000    1.635840   97.514300
  C    -36.762600    0.645907   96.565400
  C    -38.018500    0.196442   96.871300
  H    -35.289800    2.178630   97.494300
  C    -35.959500    0.331640   95.332900
  H    -36.129000    1.225100   94.746800
  H    -36.448300   -0.429126   94.791600
  C    -34.464400    0.044174   95.521500
  H    -34.365000   -0.758505   96.279600
  H    -34.017100    0.943049   95.954100
  C    -33.818800   -0.285711   94.200800
  H    -34.119900   -1.250760   93.752800
  H    -32.766600   -0.344350   94.409300
  H    -34.145300    0.588778   93.629200
  H    -41.496000   -2.424780   94.546200
  H    -37.024800    2.428870   99.479900

 Total Charge           Charge          ....    0
 Multiplicity           Mult            ....    1
 Number of Electrons    NEL             ....  134
 Basis Dimension        Dim             ....  322

ORBITAL ENERGIES
----------------

  NO   OCC          E(Eh)            E(eV)
   0   2.0000     -88.961637     -2420.7692
   1   2.0000     -88.955452     -2420.6009
   2   2.0000     -10.326055      -280.9862
   3   2.0000     -10.321395      -280.8594
   4   2.0000     -10.315847      -280.7085
   5   2.0000     -10.307934      -280.4931
   6   2.0000     -10.307444      -280.4798
   7   2.0000     -10.303240      -280.3654
   8   2.0000     -10.296593      -280.1846
   9   2.0000     -10.296027      -280.1691
  10   2.0000     -10.292037      -280.0606
  11   2.0000     -10.286779      -279.9175
  12   2.0000     -10.282558      -279.8026
  13   2.0000     -10.281107      -279.7632
  14   2.0000     -10.280824      -279.7554
  15   2.0000     -10.278160      -279.6830
  16   2.0000      -8.077830      -219.8089
  17   2.0000      -8.071583      -219.6390
  18   2.0000      -6.036171      -164.2526
  19   2.0000      -6.032124      -164.1424
  20   2.0000      -6.030036      -164.0856
  21   2.0000      -6.028683      -164.0488
  22   2.0000      -6.025838      -163.9714
  23   2.0000      -6.022380      -163.8773
  24   2.0000      -1.010685       -27.5021
  25   2.0000      -0.989957       -26.9381
  26   2.0000      -0.915358       -24.9081
  27   2.0000      -0.914521       -24.8854
  28   2.0000      -0.874564       -23.7981
  29   2.0000      -0.851931       -23.1822
  30   2.0000      -0.849405       -23.1135
  31   2.0000      -0.819237       -22.2926
  32   2.0000      -0.781179       -21.2570
  33   2.0000      -0.770734       -20.9727
  34   2.0000      -0.701825       -19.0976
  35   2.0000      -0.697899       -18.9908
  36   2.0000      -0.685561       -18.6551
  37   2.0000      -0.653241       -17.7756
  38   2.0000      -0.648880       -17.6569
  39   2.0000      -0.622776       -16.9466
  40   2.0000      -0.601005       -16.3542
  41   2.0000      -0.573579       -15.6079
  42   2.0000      -0.569144       -15.4872
  43   2.0000      -0.553024       -15.0486
  44   2.0000      -0.547665       -14.9027
  45   2.0000      -0.533943       -14.5293
  46   2.0000      -0.521608       -14.1937
  47   2.0000      -0.513640       -13.9769
  48   2.0000      -0.505374       -13.7519
  49   2.0000      -0.500543       -13.6205
  50   2.0000      -0.485921       -13.2226
  51   2.0000      -0.481241       -13.0952
  52   2.0000      -0.473311       -12.8795
  53   2.0000      -0.468461       -12.7475
  54   2.0000      -0.457174       -12.4403
  55   2.0000      -0.451753       -12.2928
  56   2.0000      -0.445939       -12.1346
  57   2.0000      -0.435641       -11.8544
  58   2.0000      -0.432443       -11.7674
  59   2.0000      -0.422587       -11.4992
  60   2.0000      -0.415889       -11.3169
  61   2.0000      -0.410967       -11.1830
  62   2.0000      -0.407918       -11.1000
  63   2.0000      -0.339109        -9.2276
  64   2.0000      -0.323883        -8.8133
  65   2.0000      -0.319478        -8.6934
  66   2.0000      -0.314144        -8.5483
  67   0.0000       0.050992         1.3876
  68   0.0000       0.060274         1.6401
  69   0.0000       0.114485         3.1153
  70   0.0000       0.129959         3.5364
  71   0.0000       0.130228         3.5437

MULLIKEN ATOMIC CHARGES
-----------------------
   0 S :    0.115449
   1 C :   -0.105042
   2 C :   -0.117675
   3 C :    0.047207
   4 C :   -0.179978
   5 H :    0.016954
   6 C :    0.069855
   7 H :    0.028540
   8 H :    0.021255
   9 C :   -0.032397
  10 H :    0.014191
  11 H :    0.033035
  12 C :   -0.088128
  13 H :    0.042664
  14 H :    0.029449
  15 H :    0.035527
  16 S :    0.090048
  17 C :   -0.095206
  18 C :   -0.047792
  19 C :   -0.032039
  20 C :   -0.157814
  21 H :    0.037367
  22 C :    0.079763
  23 H :    0.032819
  24 H :    0.007692
  25 C :   -0.105517
  26 H :    0.031864
  27 H :    0.026533
  28 C :   -0.018640
  29 H :    0.042617
  30 H :    0.034322
  31 H :    0.034825
  32 H :    0.044081
  33 H :    0.064173
Sum of atomic charges:   -0.0000000

LOEWDIN ATOMIC CHARGES
----------------------
   0 S :    0.429421
   1 C :   -0.210072
   2 C :   -0.054489
   3 C :   -0.063399
   4 C :   -0.201235
   5 H :    0.034591
   6 C :   -0.027139
   7 H :    0.032603
   8 H :    0.023124
   9 C :   -0.046405
  10 H :    0.019583
  11 H :    0.030430
  12 C :   -0.076030
  13 H :    0.034458
  14 H :    0.024872
  15 H :    0.025773
  16 S :    0.410364
  17 C :   -0.186261
  18 C :   -0.085483
  19 C :   -0.048199
  20 C :   -0.211275
  21 H :    0.037039
  22 C :   -0.033566
  23 H :    0.035812
  24 H :    0.022147
  25 C :   -0.039281
  26 H :    0.023330
  27 H :    0.021919
  28 C :   -0.061460
  29 H :    0.029388
  30 H :    0.025915
  31 H :    0.031503
  32 H :    0.022502
  33 H :    0.029520

  Mayer bond orders larger than 0.100000
B(  0-S ,  1-C ) :   1.1465 B(  0-S ,  4-C ) :   1.1710 B(  1-C ,  2-C ) :   1.6236
B(  1-C , 32-H ) :   0.9752 B(  2-C ,  3-C ) :   1.2185 B(  2-C ,  6-C ) :   0.9887
B(  3-C ,  4-C ) :   1.6060 B(  3-C ,  5-H ) :   0.9981 B(  4-C , 20-C ) :   0.9747
B(  6-C ,  7-H ) :   0.9495 B(  6-C ,  8-H ) :   0.9316 B(  6-C ,  9-C ) :   1.0819
B(  9-C , 10-H ) :   0.9437 B(  9-C , 11-H ) :   0.9500 B(  9-C , 12-C ) :   1.0969
B( 12-C , 13-H ) :   0.9699 B( 12-C , 14-H ) :   0.9703 B( 12-C , 15-H ) :   0.9698
B( 16-S , 17-C ) :   1.1782 B( 16-S , 20-C ) :   1.1384 B( 17-C , 18-C ) :   1.5944
B( 17-C , 33-H ) :   0.9716 B( 18-C , 19-C ) :   1.2096 B( 18-C , 21-H ) :   0.9878
B( 19-C , 20-C ) :   1.6250 B( 19-C , 22-C ) :   1.0458 B( 22-C , 23-H ) :   0.9271
B( 22-C , 24-H ) :   0.9326 B( 22-C , 25-C ) :   1.0610 B( 25-C , 26-H ) :   0.9572
B( 25-C , 27-H ) :   0.9491 B( 25-C , 28-C ) :   1.0821 B( 28-C , 29-H ) :   0.9747
B( 28-C , 30-H ) :   0.9725 B( 28-C , 31-H ) :   0.9718

Dispersion correction           -0.014055495
FINAL SINGLE POINT ENERGY     -1339.872142994320

DIPOLE MOMENT
-------------
                                X             Y             Z
Electronic contribution:    -18.83309      17.28030      10.45110
Nuclear contribution   :     19.22590     -17.65757     -10.45300
                        -----------------------------------------
Total Dipole Moment    :      0.39281      -0.37727      -0.00189
                        -----------------------------------------
Magnitude (a.u.)       :      0.54464
Magnitude (Debye)      :      1.38437

Rotational constants in cm-1:     0.016035     0.009236     0.007188
Rotational constants in MHz :   480.705122   276.893343   215.490673

                             ****ORCA TERMINATED NORMALLY****
TOTAL RUN TIME: 0 days 0 hours 0 minutes 29 seconds 702 msec
