                         Program Version 4.2.1 -  RELEASE  -
|  1> ! wB97X-D3 SP def2-SVP
|  2> %pal
|  3> nprocs 16
|  4> end
|  5>
|  6> * xyz 0 1
|  7> S 	 -42.3133 	 49.6934 	 102.485
|  8> C 	 -41.7459 	 51.2059 	 103.236
|  9> C 	 -41.1989 	 50.9552 	 104.468
| 10> C 	 -41.1986 	 49.5902 	 104.813
| 11> C 	 -41.7334 	 48.7755 	 103.866
| 12> H 	 -40.6953 	 49.1992 	 105.75
| 13> C 	 -40.5812 	 51.9617 	 105.47
| 14> H 	 -40.4514 	 52.8362 	 104.864
| 15> H 	 -39.6223 	 51.4448 	 105.738
| 16> C 	 -41.2891 	 52.3899 	 106.781
| 17> H 	 -41.2555 	 51.5763 	 107.525
| 18> H 	 -40.8645 	 53.2668 	 107.245
| 19> C 	 -42.8293 	 52.5477 	 106.615
| 20> H 	 -43.0881 	 53.2628 	 105.818
| 21> H 	 -43.1712 	 51.5116 	 106.39
| 22> H 	 -43.331 	 52.9131 	 107.471
| 23> S 	 -42.7948 	 46.3808 	 103.103
| 24> C 	 -41.8374 	 44.9886 	 103.35
| 25> C 	 -40.5831 	 45.249 	 103.795
| 26> C 	 -40.371 	 46.6093 	 104.051
| 27> C 	 -41.4911 	 47.3834 	 103.741
| 28> H 	 -39.9266 	 44.4078 	 103.85
| 29> C 	 -38.9994 	 47.0691 	 104.432
| 30> H 	 -38.4111 	 46.2435 	 104.845
| 31> H 	 -39.1118 	 47.7578 	 105.276
| 32> C 	 -38.1635 	 47.798 	 103.383
| 33> H 	 -38.8053 	 48.6885 	 103.04
| 34> H 	 -37.9527 	 47.1955 	 102.478
| 35> C 	 -36.9539 	 48.3478 	 103.94
| 36> H 	 -36.4375 	 48.99 	 103.229
| 37> H 	 -36.1747 	 47.6829 	 104.106
| 38> H 	 -36.9982 	 49.0204 	 104.792
| 39> H 	 -41.9252 	 52.2245 	 102.866
| 40> H 	 -42.1965 	 43.8884 	 103.222
| 41> *
| 42>
| 43>                          ****END OF INPUT****

CARTESIAN COORDINATES (ANGSTROEM)
---------------------------------
  S    -42.313300   49.693400  102.485000
  C    -41.745900   51.205900  103.236000
  C    -41.198900   50.955200  104.468000
  C    -41.198600   49.590200  104.813000
  C    -41.733400   48.775500  103.866000
  H    -40.695300   49.199200  105.750000
  C    -40.581200   51.961700  105.470000
  H    -40.451400   52.836200  104.864000
  H    -39.622300   51.444800  105.738000
  C    -41.289100   52.389900  106.781000
  H    -41.255500   51.576300  107.525000
  H    -40.864500   53.266800  107.245000
  C    -42.829300   52.547700  106.615000
  H    -43.088100   53.262800  105.818000
  H    -43.171200   51.511600  106.390000
  H    -43.331000   52.913100  107.471000
  S    -42.794800   46.380800  103.103000
  C    -41.837400   44.988600  103.350000
  C    -40.583100   45.249000  103.795000
  C    -40.371000   46.609300  104.051000
  C    -41.491100   47.383400  103.741000
  H    -39.926600   44.407800  103.850000
  C    -38.999400   47.069100  104.432000
  H    -38.411100   46.243500  104.845000
  H    -39.111800   47.757800  105.276000
  C    -38.163500   47.798000  103.383000
  H    -38.805300   48.688500  103.040000
  H    -37.952700   47.195500  102.478000
  C    -36.953900   48.347800  103.940000
  H    -36.437500   48.990000  103.229000
  H    -36.174700   47.682900  104.106000
  H    -36.998200   49.020400  104.792000
  H    -41.925200   52.224500  102.866000
  H    -42.196500   43.888400  103.222000

 Total Charge           Charge          ....    0
 Multiplicity           Mult            ....    1
 Number of Electrons    NEL             ....  134
 Basis Dimension        Dim             ....  322

ORBITAL ENERGIES
----------------

  NO   OCC          E(Eh)            E(eV)
   0   2.0000     -88.966401     -2420.8988
   1   2.0000     -88.966370     -2420.8980
   2   2.0000     -10.324623      -280.9473
   3   2.0000     -10.323258      -280.9101
   4   2.0000     -10.317981      -280.7665
   5   2.0000     -10.316919      -280.7376
   6   2.0000     -10.301421      -280.3159
   7   2.0000     -10.300225      -280.2834
   8   2.0000     -10.297962      -280.2218
   9   2.0000     -10.292262      -280.0667
  10   2.0000     -10.290535      -280.0197
  11   2.0000     -10.288299      -279.9588
  12   2.0000     -10.285638      -279.8864
  13   2.0000     -10.284673      -279.8602
  14   2.0000     -10.274757      -279.5904
  15   2.0000     -10.264451      -279.3099
  16   2.0000      -8.081875      -219.9190
  17   2.0000      -8.080698      -219.8870
  18   2.0000      -6.040234      -164.3631
  19   2.0000      -6.039408      -164.3407
  20   2.0000      -6.036323      -164.2567
  21   2.0000      -6.035337      -164.2299
  22   2.0000      -6.032720      -164.1587
  23   2.0000      -6.031176      -164.1166
  24   2.0000      -1.013303       -27.5734
  25   2.0000      -0.988146       -26.8888
  26   2.0000      -0.918478       -24.9930
  27   2.0000      -0.907525       -24.6950
  28   2.0000      -0.872402       -23.7393
  29   2.0000      -0.863523       -23.4977
  30   2.0000      -0.845246       -23.0003
  31   2.0000      -0.814122       -22.1534
  32   2.0000      -0.785994       -21.3880
  33   2.0000      -0.773191       -21.0396
  34   2.0000      -0.711090       -19.3497
  35   2.0000      -0.698167       -18.9981
  36   2.0000      -0.691786       -18.8244
  37   2.0000      -0.660123       -17.9629
  38   2.0000      -0.631244       -17.1770
  39   2.0000      -0.624159       -16.9842
  40   2.0000      -0.596981       -16.2447
  41   2.0000      -0.571289       -15.5456
  42   2.0000      -0.560010       -15.2387
  43   2.0000      -0.549109       -14.9420
  44   2.0000      -0.547354       -14.8943
  45   2.0000      -0.525671       -14.3042
  46   2.0000      -0.518080       -14.0977
  47   2.0000      -0.515465       -14.0265
  48   2.0000      -0.504228       -13.7207
  49   2.0000      -0.499178       -13.5833
  50   2.0000      -0.488826       -13.3016
  51   2.0000      -0.483873       -13.1669
  52   2.0000      -0.470835       -12.8121
  53   2.0000      -0.467356       -12.7174
  54   2.0000      -0.457285       -12.4434
  55   2.0000      -0.449010       -12.2182
  56   2.0000      -0.443103       -12.0574
  57   2.0000      -0.437199       -11.8968
  58   2.0000      -0.432297       -11.7634
  59   2.0000      -0.425589       -11.5809
  60   2.0000      -0.417104       -11.3500
  61   2.0000      -0.412503       -11.2248
  62   2.0000      -0.403928       -10.9914
  63   2.0000      -0.352433        -9.5902
  64   2.0000      -0.336216        -9.1489
  65   2.0000      -0.333189        -9.0665
  66   2.0000      -0.286151        -7.7866
  67   0.0000       0.024744         0.6733
  68   0.0000       0.072388         1.9698
  69   0.0000       0.102115         2.7787
  70   0.0000       0.115019         3.1298
  71   0.0000       0.139050         3.7837

MULLIKEN ATOMIC CHARGES
-----------------------
   0 S :    0.097017
   1 C :   -0.125811
   2 C :   -0.118233
   3 C :   -0.037876
   4 C :   -0.088094
   5 H :    0.038930
   6 C :    0.078795
   7 H :    0.016245
   8 H :    0.039984
   9 C :   -0.064866
  10 H :    0.023961
  11 H :    0.035967
  12 C :   -0.064713
  13 H :    0.027108
  14 H :    0.049829
  15 H :    0.026777
  16 S :    0.113963
  17 C :   -0.113649
  18 C :   -0.045426
  19 C :   -0.000548
  20 C :   -0.168436
  21 H :    0.007482
  22 C :    0.076611
  23 H :    0.013459
  24 H :    0.000359
  25 C :   -0.064446
  26 H :    0.044471
  27 H :    0.034457
  28 C :   -0.006481
  29 H :    0.013921
  30 H :    0.005747
  31 H :    0.020664
  32 H :    0.051191
  33 H :    0.081641
Sum of atomic charges:    0.0000000

LOEWDIN ATOMIC CHARGES
----------------------
   0 S :    0.387263
   1 C :   -0.191212
   2 C :   -0.068894
   3 C :   -0.075489
   4 C :   -0.190389
   5 H :    0.041451
   6 C :   -0.028307
   7 H :    0.025570
   8 H :    0.039087
   9 C :   -0.040662
  10 H :    0.023802
  11 H :    0.023271
  12 C :   -0.065466
  13 H :    0.021387
  14 H :    0.033594
  15 H :    0.017855
  16 S :    0.416807
  17 C :   -0.206317
  18 C :   -0.077833
  19 C :   -0.049603
  20 C :   -0.197772
  21 H :    0.031395
  22 C :   -0.033990
  23 H :    0.028721
  24 H :    0.026553
  25 C :   -0.043387
  26 H :    0.038014
  27 H :    0.030166
  28 C :   -0.070417
  29 H :    0.031650
  30 H :    0.015535
  31 H :    0.025477
  32 H :    0.032954
  33 H :    0.049188

  Mayer bond orders larger than 0.100000
B(  0-S ,  1-C ) :   1.1177 B(  0-S ,  4-C ) :   1.1374 B(  1-C ,  2-C ) :   1.6367
B(  1-C , 32-H ) :   0.9612 B(  2-C ,  3-C ) :   1.2290 B(  2-C ,  6-C ) :   1.0083
B(  3-C ,  4-C ) :   1.5849 B(  3-C ,  5-H ) :   0.9898 B(  4-C , 20-C ) :   1.0515
B(  6-C ,  7-H ) :   0.9400 B(  6-C ,  8-H ) :   0.9426 B(  6-C ,  9-C ) :   1.0629
B(  9-C , 10-H ) :   0.9573 B(  9-C , 11-H ) :   0.9605 B(  9-C , 12-C ) :   1.0766
B( 12-C , 13-H ) :   0.9794 B( 12-C , 14-H ) :   0.9712 B( 12-C , 15-H ) :   0.9762
B( 16-S , 17-C ) :   1.1672 B( 16-S , 20-C ) :   1.1348 B( 17-C , 18-C ) :   1.6161
B( 17-C , 33-H ) :   0.9491 B( 18-C , 19-C ) :   1.2473 B( 18-C , 21-H ) :   0.9994
B( 19-C , 20-C ) :   1.5649 B( 19-C , 22-C ) :   1.0501 B( 22-C , 23-H ) :   0.9285
B( 22-C , 24-H ) :   0.9222 B( 22-C , 25-C ) :   1.0730 B( 25-C , 26-H ) :   0.9479
B( 25-C , 27-H ) :   0.9483 B( 25-C , 28-C ) :   1.1050 B( 28-C , 29-H ) :   0.9597
B( 28-C , 30-H ) :   0.9653 B( 28-C , 31-H ) :   0.9670

Dispersion correction           -0.015230913
FINAL SINGLE POINT ENERGY     -1339.869098230624

DIPOLE MOMENT
-------------
                                X             Y             Z
Electronic contribution:    -17.43098     -13.83257     -14.47725
Nuclear contribution   :     18.03431      13.91631      14.83764
                        -----------------------------------------
Total Dipole Moment    :      0.60333       0.08374       0.36039
                        -----------------------------------------
Magnitude (a.u.)       :      0.70774
Magnitude (Debye)      :      1.79894

Rotational constants in cm-1:     0.018610     0.009370     0.007473
Rotational constants in MHz :   557.919879   280.891176   224.032014

                             ****ORCA TERMINATED NORMALLY****
TOTAL RUN TIME: 0 days 0 hours 0 minutes 31 seconds 894 msec
