                         Program Version 4.2.1 -  RELEASE  -
|  1> ! wB97X-D3 SP def2-SVP
|  2> %pal
|  3> nprocs 16
|  4> end
|  5>
|  6> * xyz 0 1
|  7> S 	 2.11592 	 -24.0803 	 64.5786
|  8> C 	 0.670779 	 -24.2648 	 65.5204
|  9> C 	 -0.147045 	 -25.2106 	 64.9812
| 10> C 	 0.393375 	 -25.9179 	 63.8324
| 11> C 	 1.72603 	 -25.5023 	 63.609
| 12> H 	 -0.0853136 	 -26.6991 	 63.2329
| 13> C 	 -1.61572 	 -25.3448 	 65.3974
| 14> H 	 -1.80223 	 -25.0155 	 66.4136
| 15> H 	 -1.61367 	 -26.4214 	 65.5485
| 16> C 	 -2.63301 	 -24.9309 	 64.3725
| 17> H 	 -2.41123 	 -25.2509 	 63.3436
| 18> H 	 -3.5155 	 -25.5124 	 64.5664
| 19> C 	 -3.008 	 -23.4955 	 64.273
| 20> H 	 -3.55493 	 -23.142 	 65.1666
| 21> H 	 -2.11152 	 -22.9503 	 64.1538
| 22> H 	 -3.41979 	 -23.3142 	 63.2949
| 23> S 	 3.96463 	 -27.042 	 63.4102
| 24> C 	 4.78117 	 -27.1161 	 61.7961
| 25> C 	 4.0301 	 -26.5836 	 60.7631
| 26> C 	 2.86191 	 -25.917 	 61.2484
| 27> C 	 2.72276 	 -26.0333 	 62.6526
| 28> H 	 4.44433 	 -26.6833 	 59.7178
| 29> C 	 1.98348 	 -25.1746 	 60.2407
| 30> H 	 1.06379 	 -25.169 	 60.749
| 31> H 	 1.86042 	 -25.8318 	 59.4509
| 32> C 	 2.41678 	 -23.7981 	 59.7444
| 33> H 	 1.67896 	 -23.4989 	 59.0121
| 34> H 	 3.34711 	 -23.9071 	 59.2424
| 35> C 	 2.59341 	 -22.7061 	 60.7697
| 36> H 	 1.73499 	 -22.7464 	 61.3716
| 37> H 	 2.60192 	 -21.7201 	 60.373
| 38> H 	 3.41785 	 -22.8754 	 61.4504
| 39> H 	 0.524009 	 -23.5312 	 66.3157
| 40> H 	 5.80949 	 -27.5137 	 61.6828
| 41> *
| 42>
| 43>                          ****END OF INPUT****

CARTESIAN COORDINATES (ANGSTROEM)
---------------------------------
  S      2.115920  -24.080300   64.578600
  C      0.670779  -24.264800   65.520400
  C     -0.147045  -25.210600   64.981200
  C      0.393375  -25.917900   63.832400
  C      1.726030  -25.502300   63.609000
  H     -0.085314  -26.699100   63.232900
  C     -1.615720  -25.344800   65.397400
  H     -1.802230  -25.015500   66.413600
  H     -1.613670  -26.421400   65.548500
  C     -2.633010  -24.930900   64.372500
  H     -2.411230  -25.250900   63.343600
  H     -3.515500  -25.512400   64.566400
  C     -3.008000  -23.495500   64.273000
  H     -3.554930  -23.142000   65.166600
  H     -2.111520  -22.950300   64.153800
  H     -3.419790  -23.314200   63.294900
  S      3.964630  -27.042000   63.410200
  C      4.781170  -27.116100   61.796100
  C      4.030100  -26.583600   60.763100
  C      2.861910  -25.917000   61.248400
  C      2.722760  -26.033300   62.652600
  H      4.444330  -26.683300   59.717800
  C      1.983480  -25.174600   60.240700
  H      1.063790  -25.169000   60.749000
  H      1.860420  -25.831800   59.450900
  C      2.416780  -23.798100   59.744400
  H      1.678960  -23.498900   59.012100
  H      3.347110  -23.907100   59.242400
  C      2.593410  -22.706100   60.769700
  H      1.734990  -22.746400   61.371600
  H      2.601920  -21.720100   60.373000
  H      3.417850  -22.875400   61.450400
  H      0.524009  -23.531200   66.315700
  H      5.809490  -27.513700   61.682800

 Total Charge           Charge          ....    0
 Multiplicity           Mult            ....    1
 Number of Electrons    NEL             ....  134
 Basis Dimension        Dim             ....  322

ORBITAL ENERGIES
----------------

  NO   OCC          E(Eh)            E(eV)
   0   2.0000     -88.965921     -2420.8858
   1   2.0000     -88.961029     -2420.7527
   2   2.0000     -10.333431      -281.1870
   3   2.0000     -10.330076      -281.0956
   4   2.0000     -10.322587      -280.8919
   5   2.0000     -10.310967      -280.5757
   6   2.0000     -10.308203      -280.5005
   7   2.0000     -10.303591      -280.3750
   8   2.0000     -10.301577      -280.3202
   9   2.0000     -10.299040      -280.2511
  10   2.0000     -10.287746      -279.9438
  11   2.0000     -10.280521      -279.7472
  12   2.0000     -10.279843      -279.7288
  13   2.0000     -10.278802      -279.7004
  14   2.0000     -10.269031      -279.4345
  15   2.0000     -10.260930      -279.2141
  16   2.0000      -8.079506      -219.8545
  17   2.0000      -8.076080      -219.7613
  18   2.0000      -6.038012      -164.3026
  19   2.0000      -6.034442      -164.2055
  20   2.0000      -6.034359      -164.2033
  21   2.0000      -6.030628      -164.1017
  22   2.0000      -6.030148      -164.0887
  23   2.0000      -6.026888      -164.0000
  24   2.0000      -0.998286       -27.1647
  25   2.0000      -0.976499       -26.5719
  26   2.0000      -0.915330       -24.9074
  27   2.0000      -0.909966       -24.7614
  28   2.0000      -0.866295       -23.5731
  29   2.0000      -0.848111       -23.0783
  30   2.0000      -0.847425       -23.0596
  31   2.0000      -0.813320       -22.1316
  32   2.0000      -0.787871       -21.4391
  33   2.0000      -0.772545       -21.0220
  34   2.0000      -0.708702       -19.2848
  35   2.0000      -0.697930       -18.9916
  36   2.0000      -0.685920       -18.6648
  37   2.0000      -0.654078       -17.7984
  38   2.0000      -0.645239       -17.5579
  39   2.0000      -0.616213       -16.7680
  40   2.0000      -0.591211       -16.0877
  41   2.0000      -0.563965       -15.3463
  42   2.0000      -0.555430       -15.1140
  43   2.0000      -0.552784       -15.0420
  44   2.0000      -0.547677       -14.9030
  45   2.0000      -0.539362       -14.6768
  46   2.0000      -0.524352       -14.2683
  47   2.0000      -0.514409       -13.9978
  48   2.0000      -0.499416       -13.5898
  49   2.0000      -0.495430       -13.4813
  50   2.0000      -0.487592       -13.2680
  51   2.0000      -0.471896       -12.8410
  52   2.0000      -0.465648       -12.6709
  53   2.0000      -0.464279       -12.6337
  54   2.0000      -0.455457       -12.3936
  55   2.0000      -0.449326       -12.2268
  56   2.0000      -0.442534       -12.0420
  57   2.0000      -0.438791       -11.9401
  58   2.0000      -0.436691       -11.8830
  59   2.0000      -0.425161       -11.5692
  60   2.0000      -0.422546       -11.4981
  61   2.0000      -0.413172       -11.2430
  62   2.0000      -0.399702       -10.8764
  63   2.0000      -0.337781        -9.1915
  64   2.0000      -0.326863        -8.8944
  65   2.0000      -0.317306        -8.6343
  66   2.0000      -0.304655        -8.2901
  67   0.0000       0.036646         0.9972
  68   0.0000       0.056652         1.5416
  69   0.0000       0.103496         2.8163
  70   0.0000       0.109519         2.9802
  71   0.0000       0.133045         3.6203

MULLIKEN ATOMIC CHARGES
-----------------------
   0 S :    0.105528
   1 C :   -0.133234
   2 C :   -0.096274
   3 C :    0.052318
   4 C :   -0.188054
   5 H :    0.028902
   6 C :    0.085844
   7 H :    0.013529
   8 H :    0.019591
   9 C :   -0.066924
  10 H :    0.015798
  11 H :    0.016354
  12 C :    0.003754
  13 H :    0.041162
  14 H :    0.008429
  15 H :    0.021698
  16 S :    0.108362
  17 C :   -0.119587
  18 C :   -0.051919
  19 C :   -0.046619
  20 C :   -0.192054
  21 H :    0.047952
  22 C :    0.142038
  23 H :   -0.002042
  24 H :    0.004093
  25 C :   -0.042566
  26 H :    0.026786
  27 H :    0.013220
  28 C :   -0.005567
  29 H :    0.002284
  30 H :    0.025173
  31 H :    0.035370
  32 H :    0.058008
  33 H :    0.068649
Sum of atomic charges:   -0.0000000

LOEWDIN ATOMIC CHARGES
----------------------
   0 S :    0.404217
   1 C :   -0.202188
   2 C :   -0.067741
   3 C :   -0.058458
   4 C :   -0.195484
   5 H :    0.037626
   6 C :   -0.033329
   7 H :    0.028958
   8 H :    0.034162
   9 C :   -0.046926
  10 H :    0.027160
  11 H :    0.022303
  12 C :   -0.062978
  13 H :    0.029048
  14 H :    0.021296
  15 H :    0.029648
  16 S :    0.378895
  17 C :   -0.169046
  18 C :   -0.079939
  19 C :   -0.048697
  20 C :   -0.205088
  21 H :    0.046520
  22 C :   -0.021486
  23 H :    0.022921
  24 H :    0.025027
  25 C :   -0.031761
  26 H :    0.026785
  27 H :    0.017191
  28 C :   -0.058307
  29 H :    0.016687
  30 H :    0.024439
  31 H :    0.026690
  32 H :    0.029614
  33 H :    0.032239

  Mayer bond orders larger than 0.100000
B(  0-S ,  1-C ) :   1.1352 B(  0-S ,  4-C ) :   1.1709 B(  1-C ,  2-C ) :   1.6135
B(  1-C , 32-H ) :   0.9746 B(  2-C ,  3-C ) :   1.2181 B(  2-C ,  6-C ) :   1.0132
B(  3-C ,  4-C ) :   1.5753 B(  3-C ,  5-H ) :   0.9937 B(  4-C , 20-C ) :   1.0084
B(  6-C ,  7-H ) :   0.9462 B(  6-C ,  8-H ) :   0.9282 B(  6-C ,  9-C ) :   1.0702
B(  9-C , 10-H ) :   0.9528 B(  9-C , 11-H ) :   0.9480 B(  9-C , 12-C ) :   1.0911
B( 12-C , 13-H ) :   0.9733 B( 12-C , 14-H ) :   0.9676 B( 12-C , 15-H ) :   0.9666
B( 16-S , 17-C ) :   1.1393 B( 16-S , 20-C ) :   1.1450 B( 17-C , 18-C ) :   1.6430
B( 17-C , 20-C ) :   0.1023 B( 17-C , 33-H ) :   0.9614 B( 18-C , 19-C ) :   1.2083
B( 18-C , 21-H ) :   0.9788 B( 19-C , 20-C ) :   1.6096 B( 19-C , 22-C ) :   1.0282
B( 22-C , 23-H ) :   0.9214 B( 22-C , 24-H ) :   0.9250 B( 22-C , 25-C ) :   1.0821
B( 25-C , 26-H ) :   0.9507 B( 25-C , 27-H ) :   0.9531 B( 25-C , 28-C ) :   1.0825
B( 28-C , 29-H ) :   0.9716 B( 28-C , 30-H ) :   0.9709 B( 28-C , 31-H ) :   0.9728

Dispersion correction           -0.015221007
FINAL SINGLE POINT ENERGY     -1339.860742205987

DIPOLE MOMENT
-------------
                                X             Y             Z
Electronic contribution:     19.46618     -11.14575       9.44922
Nuclear contribution   :    -19.88241      11.21404      -9.84224
                        -----------------------------------------
Total Dipole Moment    :     -0.41623       0.06829      -0.39302
                        -----------------------------------------
Magnitude (a.u.)       :      0.57652
Magnitude (Debye)      :      1.46540

Rotational constants in cm-1:     0.020356     0.008625     0.007346
Rotational constants in MHz :   610.255947   258.585230   220.233772

                             ****ORCA TERMINATED NORMALLY****
TOTAL RUN TIME: 0 days 0 hours 0 minutes 34 seconds 782 msec
