                         Program Version 4.2.1 -  RELEASE  -
|  1> ! wB97X-D3 SP def2-SVP
|  2> %pal
|  3> nprocs 16
|  4> end
|  5>
|  6> * xyz 0 1
|  7> S 	 -69.8694 	 37.1118 	 125.397
|  8> C 	 -68.4397 	 37.1234 	 126.522
|  9> C 	 -68.4759 	 38.1688 	 127.409
| 10> C 	 -69.7117 	 38.8046 	 127.332
| 11> C 	 -70.6729 	 38.2964 	 126.413
| 12> H 	 -69.9884 	 39.7301 	 127.937
| 13> C 	 -67.3436 	 38.599 	 128.298
| 14> H 	 -67.1636 	 39.649 	 128.165
| 15> H 	 -66.3568 	 38.0965 	 128.044
| 16> C 	 -67.6311 	 38.1099 	 129.744
| 17> H 	 -68.5584 	 38.4674 	 130.22
| 18> H 	 -67.8655 	 37.0976 	 129.672
| 19> C 	 -66.4424 	 38.3886 	 130.669
| 20> H 	 -66.1207 	 39.4038 	 130.688
| 21> H 	 -66.882 	 38.1406 	 131.648
| 22> H 	 -65.5595 	 37.8277 	 130.542
| 23> S 	 -73.0105 	 39.0661 	 127.574
| 24> C 	 -74.4184 	 39.2687 	 126.555
| 25> C 	 -74.1803 	 38.9539 	 125.22
| 26> C 	 -72.835 	 38.6202 	 124.929
| 27> C 	 -72.071 	 38.6931 	 126.127
| 28> H 	 -75.0263 	 39.03 	 124.521
| 29> C 	 -72.4427 	 38.3556 	 123.546
| 30> H 	 -73.2876 	 37.8242 	 123.055
| 31> H 	 -71.6178 	 37.6903 	 123.456
| 32> C 	 -72.0579 	 39.7054 	 122.821
| 33> H 	 -71.0524 	 39.9563 	 123.059
| 34> H 	 -72.6305 	 40.4981 	 123.255
| 35> C 	 -72.2405 	 39.616 	 121.314
| 36> H 	 -73.0531 	 38.9778 	 121.065
| 37> H 	 -71.3438 	 39.0562 	 120.949
| 38> H 	 -72.251 	 40.5423 	 120.804
| 39> H 	 -67.6102 	 36.4613 	 126.375
| 40> H 	 -75.3665 	 39.6121 	 127.085
| 41> *
| 42>
| 43>                          ****END OF INPUT****

CARTESIAN COORDINATES (ANGSTROEM)
---------------------------------
  S    -69.869400   37.111800  125.397000
  C    -68.439700   37.123400  126.522000
  C    -68.475900   38.168800  127.409000
  C    -69.711700   38.804600  127.332000
  C    -70.672900   38.296400  126.413000
  H    -69.988400   39.730100  127.937000
  C    -67.343600   38.599000  128.298000
  H    -67.163600   39.649000  128.165000
  H    -66.356800   38.096500  128.044000
  C    -67.631100   38.109900  129.744000
  H    -68.558400   38.467400  130.220000
  H    -67.865500   37.097600  129.672000
  C    -66.442400   38.388600  130.669000
  H    -66.120700   39.403800  130.688000
  H    -66.882000   38.140600  131.648000
  H    -65.559500   37.827700  130.542000
  S    -73.010500   39.066100  127.574000
  C    -74.418400   39.268700  126.555000
  C    -74.180300   38.953900  125.220000
  C    -72.835000   38.620200  124.929000
  C    -72.071000   38.693100  126.127000
  H    -75.026300   39.030000  124.521000
  C    -72.442700   38.355600  123.546000
  H    -73.287600   37.824200  123.055000
  H    -71.617800   37.690300  123.456000
  C    -72.057900   39.705400  122.821000
  H    -71.052400   39.956300  123.059000
  H    -72.630500   40.498100  123.255000
  C    -72.240500   39.616000  121.314000
  H    -73.053100   38.977800  121.065000
  H    -71.343800   39.056200  120.949000
  H    -72.251000   40.542300  120.804000
  H    -67.610200   36.461300  126.375000
  H    -75.366500   39.612100  127.085000

 Total Charge           Charge          ....    0
 Multiplicity           Mult            ....    1
 Number of Electrons    NEL             ....  134
 Basis Dimension        Dim             ....  322

ORBITAL ENERGIES
----------------

  NO   OCC          E(Eh)            E(eV)
   0   2.0000     -88.967869     -2420.9388
   1   2.0000     -88.963737     -2420.8264
   2   2.0000     -10.334528      -281.2168
   3   2.0000     -10.332812      -281.1701
   4   2.0000     -10.322660      -280.8939
   5   2.0000     -10.312645      -280.6213
   6   2.0000     -10.305906      -280.4379
   7   2.0000     -10.297629      -280.2127
   8   2.0000     -10.297295      -280.2036
   9   2.0000     -10.297131      -280.1992
  10   2.0000     -10.296831      -280.1910
  11   2.0000     -10.291307      -280.0407
  12   2.0000     -10.283264      -279.8218
  13   2.0000     -10.280254      -279.7399
  14   2.0000     -10.272039      -279.5164
  15   2.0000     -10.271810      -279.5102
  16   2.0000      -8.082352      -219.9320
  17   2.0000      -8.077127      -219.7898
  18   2.0000      -6.040725      -164.3765
  19   2.0000      -6.036992      -164.2749
  20   2.0000      -6.035642      -164.2382
  21   2.0000      -6.033195      -164.1716
  22   2.0000      -6.032008      -164.1393
  23   2.0000      -6.027813      -164.0251
  24   2.0000      -1.000602       -27.2278
  25   2.0000      -0.979771       -26.6609
  26   2.0000      -0.913150       -24.8481
  27   2.0000      -0.912063       -24.8185
  28   2.0000      -0.865622       -23.5548
  29   2.0000      -0.857135       -23.3238
  30   2.0000      -0.838694       -22.8220
  31   2.0000      -0.805082       -21.9074
  32   2.0000      -0.785984       -21.3877
  33   2.0000      -0.769698       -20.9445
  34   2.0000      -0.709872       -19.3166
  35   2.0000      -0.707708       -19.2577
  36   2.0000      -0.689590       -18.7647
  37   2.0000      -0.665909       -18.1203
  38   2.0000      -0.629277       -17.1235
  39   2.0000      -0.618816       -16.8388
  40   2.0000      -0.600351       -16.3364
  41   2.0000      -0.565719       -15.3940
  42   2.0000      -0.560996       -15.2655
  43   2.0000      -0.554152       -15.0792
  44   2.0000      -0.530395       -14.4328
  45   2.0000      -0.528701       -14.3867
  46   2.0000      -0.520035       -14.1509
  47   2.0000      -0.509494       -13.8640
  48   2.0000      -0.503506       -13.7011
  49   2.0000      -0.497434       -13.5359
  50   2.0000      -0.489181       -13.3113
  51   2.0000      -0.474510       -12.9121
  52   2.0000      -0.465390       -12.6639
  53   2.0000      -0.459898       -12.5145
  54   2.0000      -0.455982       -12.4079
  55   2.0000      -0.453939       -12.3523
  56   2.0000      -0.449218       -12.2238
  57   2.0000      -0.441855       -12.0235
  58   2.0000      -0.438951       -11.9445
  59   2.0000      -0.423506       -11.5242
  60   2.0000      -0.422976       -11.5098
  61   2.0000      -0.416928       -11.3452
  62   2.0000      -0.410915       -11.1816
  63   2.0000      -0.348559        -9.4848
  64   2.0000      -0.333257        -9.0684
  65   2.0000      -0.328742        -8.9455
  66   2.0000      -0.276603        -7.5268
  67   0.0000       0.018916         0.5147
  68   0.0000       0.077937         2.1208
  69   0.0000       0.097011         2.6398
  70   0.0000       0.112354         3.0573
  71   0.0000       0.132527         3.6063

MULLIKEN ATOMIC CHARGES
-----------------------
   0 S :    0.073733
   1 C :   -0.127763
   2 C :   -0.050984
   3 C :   -0.026905
   4 C :   -0.129447
   5 H :    0.031604
   6 C :    0.066096
   7 H :    0.034503
   8 H :    0.026128
   9 C :   -0.075695
  10 H :    0.029767
  11 H :    0.013582
  12 C :   -0.011314
  13 H :    0.023361
  14 H :    0.029625
  15 H :    0.024358
  16 S :    0.108302
  17 C :   -0.130077
  18 C :   -0.037426
  19 C :   -0.048760
  20 C :   -0.139048
  21 H :    0.028609
  22 C :    0.051999
  23 H :    0.033050
  24 H :    0.019344
  25 C :   -0.044114
  26 H :    0.024730
  27 H :    0.023911
  28 C :   -0.022205
  29 H :    0.020933
  30 H :    0.025621
  31 H :    0.034631
  32 H :    0.037109
  33 H :    0.082742
Sum of atomic charges:    0.0000000

LOEWDIN ATOMIC CHARGES
----------------------
   0 S :    0.378523
   1 C :   -0.172379
   2 C :   -0.066412
   3 C :   -0.083380
   4 C :   -0.188815
   5 H :    0.036454
   6 C :   -0.025786
   7 H :    0.029040
   8 H :    0.037497
   9 C :   -0.035447
  10 H :    0.027105
  11 H :    0.019190
  12 C :   -0.061762
  13 H :    0.021598
  14 H :    0.032738
  15 H :    0.017706
  16 S :    0.409127
  17 C :   -0.196546
  18 C :   -0.070440
  19 C :   -0.057894
  20 C :   -0.193641
  21 H :    0.037013
  22 C :   -0.032355
  23 H :    0.037315
  24 H :    0.014804
  25 C :   -0.025504
  26 H :    0.023044
  27 H :    0.018552
  28 C :   -0.061615
  29 H :    0.018645
  30 H :    0.032492
  31 H :    0.022194
  32 H :    0.019567
  33 H :    0.039371

  Mayer bond orders larger than 0.100000
B(  0-S ,  1-C ) :   1.1261 B(  0-S ,  4-C ) :   1.1486 B(  1-C ,  2-C ) :   1.5984
B(  1-C ,  4-C ) :   0.1030 B(  1-C , 32-H ) :   0.9709 B(  2-C ,  3-C ) :   1.2663
B(  2-C ,  6-C ) :   1.0254 B(  3-C ,  4-C ) :   1.5380 B(  3-C ,  5-H ) :   0.9762
B(  4-C , 20-C ) :   1.0663 B(  6-C ,  7-H ) :   0.9406 B(  6-C ,  8-H ) :   0.9447
B(  6-C ,  9-C ) :   1.0467 B(  9-C , 10-H ) :   0.9611 B(  9-C , 11-H ) :   0.9509
B(  9-C , 12-C ) :   1.0796 B( 12-C , 13-H ) :   0.9744 B( 12-C , 14-H ) :   0.9739
B( 12-C , 15-H ) :   0.9756 B( 16-S , 17-C ) :   1.1583 B( 16-S , 20-C ) :   1.1585
B( 17-C , 18-C ) :   1.5884 B( 17-C , 20-C ) :   0.1015 B( 17-C , 33-H ) :   0.9602
B( 18-C , 19-C ) :   1.2501 B( 18-C , 21-H ) :   0.9891 B( 19-C , 20-C ) :   1.5332
B( 19-C , 22-C ) :   1.0703 B( 22-C , 23-H ) :   0.9358 B( 22-C , 24-H ) :   0.9246
B( 22-C , 25-C ) :   1.0357 B( 25-C , 26-H ) :   0.9534 B( 25-C , 27-H ) :   0.9661
B( 25-C , 28-C ) :   1.0762 B( 28-C , 29-H ) :   0.9795 B( 28-C , 30-H ) :   0.9728
B( 28-C , 31-H ) :   0.9747

Dispersion correction           -0.013708449
FINAL SINGLE POINT ENERGY     -1339.866157500891

DIPOLE MOMENT
-------------
                                X             Y             Z
Electronic contribution:    -11.88312      -4.60492       2.20674
Nuclear contribution   :     12.01392       4.82547      -2.24937
                        -----------------------------------------
Total Dipole Moment    :      0.13080       0.22055      -0.04263
                        -----------------------------------------
Magnitude (a.u.)       :      0.25994
Magnitude (Debye)      :      0.66071

Rotational constants in cm-1:     0.022870     0.007273     0.005965
Rotational constants in MHz :   685.632265   218.034325   178.829137

                             ****ORCA TERMINATED NORMALLY****
TOTAL RUN TIME: 0 days 0 hours 0 minutes 32 seconds 460 msec
