                         Program Version 4.2.1 -  RELEASE  -
|  1> ! wB97X-D3 SP def2-SVP
|  2> %pal
|  3> nprocs 16
|  4> end
|  5>
|  6> * xyz 0 1
|  7> S 	 -6.05182 	 32.0246 	 56.8312
|  8> C 	 -6.29373 	 30.4408 	 57.525
|  9> C 	 -5.94841 	 29.4599 	 56.6068
| 10> C 	 -5.6582 	 30.0198 	 55.3248
| 11> C 	 -5.58809 	 31.3619 	 55.2847
| 12> H 	 -5.27652 	 29.4546 	 54.464
| 13> C 	 -5.90603 	 27.9898 	 56.8044
| 14> H 	 -6.79456 	 27.6242 	 56.3648
| 15> H 	 -5.99438 	 27.7258 	 57.8471
| 16> C 	 -4.80577 	 27.2213 	 56.0654
| 17> H 	 -4.8305 	 26.1254 	 56.3133
| 18> H 	 -4.91092 	 27.3807 	 54.9689
| 19> C 	 -3.32475 	 27.6231 	 56.4069
| 20> H 	 -3.23431 	 28.7346 	 56.4313
| 21> H 	 -3.19162 	 27.4057 	 57.4575
| 22> H 	 -2.51704 	 27.1787 	 55.8181
| 23> S 	 -4.66804 	 33.8743 	 54.6255
| 24> C 	 -4.2652 	 34.1638 	 52.9384
| 25> C 	 -4.36426 	 32.9603 	 52.1896
| 26> C 	 -4.81288 	 31.8817 	 52.9002
| 27> C 	 -5.04306 	 32.1928 	 54.2492
| 28> H 	 -4.07407 	 32.9525 	 51.1747
| 29> C 	 -5.06659 	 30.5931 	 52.1465
| 30> H 	 -4.42563 	 29.8133 	 52.5361
| 31> H 	 -4.69636 	 30.717 	 51.15
| 32> C 	 -6.54189 	 30.1255 	 52.0695
| 33> H 	 -6.89747 	 29.8566 	 53.0138
| 34> H 	 -6.55073 	 29.3681 	 51.277
| 35> C 	 -7.45996 	 31.1498 	 51.4024
| 36> H 	 -7.13583 	 31.5419 	 50.4534
| 37> H 	 -7.55321 	 32.0034 	 52.0372
| 38> H 	 -8.44785 	 30.7105 	 51.3026
| 39> H 	 -6.57553 	 30.259 	 58.5032
| 40> H 	 -3.96628 	 35.0783 	 52.4819
| 41> *
| 42>
| 43>                          ****END OF INPUT****

CARTESIAN COORDINATES (ANGSTROEM)
---------------------------------
  S     -6.051820   32.024600   56.831200
  C     -6.293730   30.440800   57.525000
  C     -5.948410   29.459900   56.606800
  C     -5.658200   30.019800   55.324800
  C     -5.588090   31.361900   55.284700
  H     -5.276520   29.454600   54.464000
  C     -5.906030   27.989800   56.804400
  H     -6.794560   27.624200   56.364800
  H     -5.994380   27.725800   57.847100
  C     -4.805770   27.221300   56.065400
  H     -4.830500   26.125400   56.313300
  H     -4.910920   27.380700   54.968900
  C     -3.324750   27.623100   56.406900
  H     -3.234310   28.734600   56.431300
  H     -3.191620   27.405700   57.457500
  H     -2.517040   27.178700   55.818100
  S     -4.668040   33.874300   54.625500
  C     -4.265200   34.163800   52.938400
  C     -4.364260   32.960300   52.189600
  C     -4.812880   31.881700   52.900200
  C     -5.043060   32.192800   54.249200
  H     -4.074070   32.952500   51.174700
  C     -5.066590   30.593100   52.146500
  H     -4.425630   29.813300   52.536100
  H     -4.696360   30.717000   51.150000
  C     -6.541890   30.125500   52.069500
  H     -6.897470   29.856600   53.013800
  H     -6.550730   29.368100   51.277000
  C     -7.459960   31.149800   51.402400
  H     -7.135830   31.541900   50.453400
  H     -7.553210   32.003400   52.037200
  H     -8.447850   30.710500   51.302600
  H     -6.575530   30.259000   58.503200
  H     -3.966280   35.078300   52.481900

 Total Charge           Charge          ....    0
 Multiplicity           Mult            ....    1
 Number of Electrons    NEL             ....  134
 Basis Dimension        Dim             ....  322

ORBITAL ENERGIES
----------------

  NO   OCC          E(Eh)            E(eV)
   0   2.0000     -88.974124     -2421.1090
   1   2.0000     -88.962970     -2420.8055
   2   2.0000     -10.329241      -281.0729
   3   2.0000     -10.325204      -280.9631
   4   2.0000     -10.319699      -280.8133
   5   2.0000     -10.309024      -280.5228
   6   2.0000     -10.301124      -280.3078
   7   2.0000     -10.298835      -280.2456
   8   2.0000     -10.297091      -280.1981
   9   2.0000     -10.291744      -280.0526
  10   2.0000     -10.289341      -279.9872
  11   2.0000     -10.288347      -279.9602
  12   2.0000     -10.286588      -279.9123
  13   2.0000     -10.282413      -279.7987
  14   2.0000     -10.276361      -279.6340
  15   2.0000     -10.267338      -279.3885
  16   2.0000      -8.087951      -220.0843
  17   2.0000      -8.078086      -219.8159
  18   2.0000      -6.046375      -164.5302
  19   2.0000      -6.042583      -164.4270
  20   2.0000      -6.038872      -164.3261
  21   2.0000      -6.036711      -164.2672
  22   2.0000      -6.032603      -164.1555
  23   2.0000      -6.028659      -164.0481
  24   2.0000      -1.012384       -27.5484
  25   2.0000      -0.986810       -26.8525
  26   2.0000      -0.916074       -24.9276
  27   2.0000      -0.912026       -24.8175
  28   2.0000      -0.871566       -23.7165
  29   2.0000      -0.857688       -23.3389
  30   2.0000      -0.841461       -22.8973
  31   2.0000      -0.814787       -22.1715
  32   2.0000      -0.788751       -21.4630
  33   2.0000      -0.777072       -21.1452
  34   2.0000      -0.713893       -19.4260
  35   2.0000      -0.700455       -19.0603
  36   2.0000      -0.691545       -18.8179
  37   2.0000      -0.667213       -18.1558
  38   2.0000      -0.642905       -17.4943
  39   2.0000      -0.628482       -17.1019
  40   2.0000      -0.597511       -16.2591
  41   2.0000      -0.568771       -15.4770
  42   2.0000      -0.560683       -15.2570
  43   2.0000      -0.555343       -15.1117
  44   2.0000      -0.547819       -14.9069
  45   2.0000      -0.534864       -14.5544
  46   2.0000      -0.524400       -14.2697
  47   2.0000      -0.508554       -13.8385
  48   2.0000      -0.506699       -13.7880
  49   2.0000      -0.498232       -13.5576
  50   2.0000      -0.495360       -13.4794
  51   2.0000      -0.481474       -13.1016
  52   2.0000      -0.475044       -12.9266
  53   2.0000      -0.464325       -12.6349
  54   2.0000      -0.461395       -12.5552
  55   2.0000      -0.450120       -12.2484
  56   2.0000      -0.445376       -12.1193
  57   2.0000      -0.441513       -12.0142
  58   2.0000      -0.434716       -11.8292
  59   2.0000      -0.424669       -11.5558
  60   2.0000      -0.418000       -11.3744
  61   2.0000      -0.412721       -11.2307
  62   2.0000      -0.408896       -11.1266
  63   2.0000      -0.362631        -9.8677
  64   2.0000      -0.341578        -9.2948
  65   2.0000      -0.326804        -8.8928
  66   2.0000      -0.276187        -7.5154
  67   0.0000       0.014749         0.4013
  68   0.0000       0.082335         2.2405
  69   0.0000       0.098877         2.6906
  70   0.0000       0.120080         3.2675
  71   0.0000       0.132484         3.6051

MULLIKEN ATOMIC CHARGES
-----------------------
   0 S :    0.087189
   1 C :   -0.086420
   2 C :   -0.099763
   3 C :   -0.039603
   4 C :   -0.091981
   5 H :    0.007493
   6 C :    0.135767
   7 H :    0.029913
   8 H :    0.012029
   9 C :   -0.136019
  10 H :    0.045393
  11 H :    0.041498
  12 C :   -0.064412
  13 H :    0.039939
  14 H :    0.017618
  15 H :    0.047638
  16 S :    0.120831
  17 C :   -0.083711
  18 C :   -0.035280
  19 C :   -0.045986
  20 C :   -0.122723
  21 H :    0.000708
  22 C :    0.064617
  23 H :    0.039822
  24 H :   -0.001539
  25 C :   -0.039042
  26 H :    0.030616
  27 H :    0.029609
  28 C :   -0.045869
  29 H :    0.018679
  30 H :    0.031122
  31 H :    0.031822
  32 H :    0.014673
  33 H :    0.045369
Sum of atomic charges:   -0.0000000

LOEWDIN ATOMIC CHARGES
----------------------
   0 S :    0.394641
   1 C :   -0.188841
   2 C :   -0.055096
   3 C :   -0.078985
   4 C :   -0.182632
   5 H :    0.032501
   6 C :   -0.031391
   7 H :    0.037168
   8 H :    0.028547
   9 C :   -0.043809
  10 H :    0.033193
  11 H :    0.023116
  12 C :   -0.077109
  13 H :    0.029274
  14 H :    0.021172
  15 H :    0.027601
  16 S :    0.411651
  17 C :   -0.182910
  18 C :   -0.062488
  19 C :   -0.059273
  20 C :   -0.189874
  21 H :    0.025011
  22 C :   -0.029107
  23 H :    0.028737
  24 H :    0.027018
  25 C :   -0.028771
  26 H :    0.014948
  27 H :    0.029671
  28 C :   -0.059283
  29 H :    0.019949
  30 H :    0.020998
  31 H :    0.027103
  32 H :    0.013392
  33 H :    0.023878

  Mayer bond orders larger than 0.100000
B(  0-S ,  1-C ) :   1.1211 B(  0-S ,  4-C ) :   1.1299 B(  1-C ,  2-C ) :   1.6120
B(  1-C , 32-H ) :   0.9801 B(  2-C ,  3-C ) :   1.2295 B(  2-C ,  6-C ) :   1.0286
B(  3-C ,  4-C ) :   1.5953 B(  3-C ,  5-H ) :   0.9707 B(  4-C , 20-C ) :   1.1114
B(  6-C ,  7-H ) :   0.9232 B(  6-C ,  8-H ) :   0.9387 B(  6-C ,  9-C ) :   1.0725
B(  9-C , 10-H ) :   0.9566 B(  9-C , 11-H ) :   0.9524 B(  9-C , 12-C ) :   1.0667
B( 12-C , 13-H ) :   0.9736 B( 12-C , 14-H ) :   0.9739 B( 12-C , 15-H ) :   0.9776
B( 16-S , 17-C ) :   1.1629 B( 16-S , 20-C ) :   1.1446 B( 17-C , 18-C ) :   1.5527
B( 17-C , 20-C ) :   0.1179 B( 17-C , 33-H ) :   0.9721 B( 18-C , 19-C ) :   1.3164
B( 18-C , 21-H ) :   0.9917 B( 19-C , 20-C ) :   1.5217 B( 19-C , 22-C ) :   1.0353
B( 22-C , 23-H ) :   0.9245 B( 22-C , 24-H ) :   0.9247 B( 22-C , 25-C ) :   1.0733
B( 25-C , 26-H ) :   0.9542 B( 25-C , 27-H ) :   0.9568 B( 25-C , 28-C ) :   1.0809
B( 28-C , 29-H ) :   0.9759 B( 28-C , 30-H ) :   0.9731 B( 28-C , 31-H ) :   0.9738

Dispersion correction           -0.015558440
FINAL SINGLE POINT ENERGY     -1339.876799383533

DIPOLE MOMENT
-------------
                                X             Y             Z
Electronic contribution:      0.56657      23.41148      10.53903
Nuclear contribution   :     -0.48497     -23.96229     -10.93316
                        -----------------------------------------
Total Dipole Moment    :      0.08160      -0.55082      -0.39414
                        -----------------------------------------
Magnitude (a.u.)       :      0.68220
Magnitude (Debye)      :      1.73402

Rotational constants in cm-1:     0.018585     0.010130     0.008145
Rotational constants in MHz :   557.179057   303.703471   244.166871

                             ****ORCA TERMINATED NORMALLY****
TOTAL RUN TIME: 0 days 0 hours 0 minutes 37 seconds 914 msec
