                         Program Version 4.2.1 -  RELEASE  -
|  1> ! wB97X-D3 SP def2-SVP
|  2> %pal
|  3> nprocs 16
|  4> end
|  5>
|  6> * xyz 0 1
|  7> S 	 -68.4537 	 38.4216 	 124.606
|  8> C 	 -68.553 	 39.9298 	 125.548
|  9> C 	 -67.6108 	 40.8568 	 125.061
| 10> C 	 -66.844 	 40.3209 	 123.983
| 11> C 	 -67.0881 	 38.9889 	 123.723
| 12> H 	 -66.1597 	 40.8759 	 123.432
| 13> C 	 -67.5627 	 42.3041 	 125.352
| 14> H 	 -66.8266 	 42.3921 	 126.16
| 15> H 	 -68.4636 	 42.6241 	 125.801
| 16> C 	 -67.2019 	 43.3735 	 124.3
| 17> H 	 -67.6934 	 43.0217 	 123.379
| 18> H 	 -67.6549 	 44.3138 	 124.459
| 19> C 	 -65.6704 	 43.7369 	 124.243
| 20> H 	 -65.5553 	 44.5402 	 123.481
| 21> H 	 -65.2856 	 44.1271 	 125.219
| 22> H 	 -65.1015 	 42.8617 	 123.919
| 23> S 	 -67.5967 	 37.2497 	 121.539
| 24> C 	 -66.2296 	 36.5527 	 120.749
| 25> C 	 -64.9825 	 37.0191 	 121.202
| 26> C 	 -65.1357 	 37.9118 	 122.323
| 27> C 	 -66.4697 	 38.1762 	 122.619
| 28> H 	 -64.0251 	 36.597 	 120.791
| 29> C 	 -63.9065 	 38.4966 	 123.03
| 30> H 	 -63.3151 	 37.6806 	 123.458
| 31> H 	 -64.1713 	 39.1028 	 123.925
| 32> C 	 -62.9328 	 39.3746 	 122.268
| 33> H 	 -62.5747 	 38.8985 	 121.387
| 34> H 	 -61.9871 	 39.5918 	 122.793
| 35> C 	 -63.6754 	 40.6952 	 121.894
| 36> H 	 -63.3119 	 41.1212 	 120.979
| 37> H 	 -63.5312 	 41.4179 	 122.707
| 38> H 	 -64.6905 	 40.6188 	 121.73
| 39> H 	 -69.2514 	 40.1605 	 126.335
| 40> H 	 -66.352 	 35.9063 	 119.867
| 41> *
| 42>
| 43>                          ****END OF INPUT****

CARTESIAN COORDINATES (ANGSTROEM)
---------------------------------
  S    -68.453700   38.421600  124.606000
  C    -68.553000   39.929800  125.548000
  C    -67.610800   40.856800  125.061000
  C    -66.844000   40.320900  123.983000
  C    -67.088100   38.988900  123.723000
  H    -66.159700   40.875900  123.432000
  C    -67.562700   42.304100  125.352000
  H    -66.826600   42.392100  126.160000
  H    -68.463600   42.624100  125.801000
  C    -67.201900   43.373500  124.300000
  H    -67.693400   43.021700  123.379000
  H    -67.654900   44.313800  124.459000
  C    -65.670400   43.736900  124.243000
  H    -65.555300   44.540200  123.481000
  H    -65.285600   44.127100  125.219000
  H    -65.101500   42.861700  123.919000
  S    -67.596700   37.249700  121.539000
  C    -66.229600   36.552700  120.749000
  C    -64.982500   37.019100  121.202000
  C    -65.135700   37.911800  122.323000
  C    -66.469700   38.176200  122.619000
  H    -64.025100   36.597000  120.791000
  C    -63.906500   38.496600  123.030000
  H    -63.315100   37.680600  123.458000
  H    -64.171300   39.102800  123.925000
  C    -62.932800   39.374600  122.268000
  H    -62.574700   38.898500  121.387000
  H    -61.987100   39.591800  122.793000
  C    -63.675400   40.695200  121.894000
  H    -63.311900   41.121200  120.979000
  H    -63.531200   41.417900  122.707000
  H    -64.690500   40.618800  121.730000
  H    -69.251400   40.160500  126.335000
  H    -66.352000   35.906300  119.867000

 Total Charge           Charge          ....    0
 Multiplicity           Mult            ....    1
 Number of Electrons    NEL             ....  134
 Basis Dimension        Dim             ....  322

ORBITAL ENERGIES
----------------

  NO   OCC          E(Eh)            E(eV)
   0   2.0000     -88.969802     -2420.9914
   1   2.0000     -88.968066     -2420.9441
   2   2.0000     -10.335776      -281.2508
   3   2.0000     -10.329911      -281.0912
   4   2.0000     -10.322272      -280.8833
   5   2.0000     -10.316069      -280.7145
   6   2.0000     -10.311717      -280.5961
   7   2.0000     -10.303160      -280.3632
   8   2.0000     -10.301260      -280.3115
   9   2.0000     -10.293201      -280.0922
  10   2.0000     -10.289685      -279.9966
  11   2.0000     -10.289487      -279.9912
  12   2.0000     -10.286344      -279.9057
  13   2.0000     -10.285522      -279.8833
  14   2.0000     -10.285064      -279.8708
  15   2.0000     -10.268836      -279.4292
  16   2.0000      -8.083938      -219.9751
  17   2.0000      -8.082427      -219.9340
  18   2.0000      -6.042380      -164.4215
  19   2.0000      -6.041026      -164.3847
  20   2.0000      -6.038620      -164.3192
  21   2.0000      -6.036926      -164.2731
  22   2.0000      -6.034717      -164.2130
  23   2.0000      -6.033174      -164.1710
  24   2.0000      -1.001444       -27.2507
  25   2.0000      -0.979996       -26.6670
  26   2.0000      -0.912298       -24.8249
  27   2.0000      -0.909396       -24.7459
  28   2.0000      -0.861109       -23.4320
  29   2.0000      -0.850184       -23.1347
  30   2.0000      -0.842178       -22.9168
  31   2.0000      -0.811746       -22.0887
  32   2.0000      -0.784873       -21.3575
  33   2.0000      -0.774469       -21.0744
  34   2.0000      -0.710989       -19.3470
  35   2.0000      -0.704076       -19.1589
  36   2.0000      -0.691603       -18.8195
  37   2.0000      -0.654189       -17.8014
  38   2.0000      -0.639484       -17.4012
  39   2.0000      -0.626253       -17.0412
  40   2.0000      -0.598319       -16.2811
  41   2.0000      -0.563435       -15.3318
  42   2.0000      -0.553024       -15.0486
  43   2.0000      -0.546355       -14.8671
  44   2.0000      -0.544385       -14.8135
  45   2.0000      -0.539251       -14.6738
  46   2.0000      -0.515156       -14.0181
  47   2.0000      -0.506568       -13.7844
  48   2.0000      -0.501744       -13.6531
  49   2.0000      -0.495548       -13.4845
  50   2.0000      -0.489063       -13.3081
  51   2.0000      -0.485324       -13.2063
  52   2.0000      -0.466582       -12.6963
  53   2.0000      -0.465005       -12.6534
  54   2.0000      -0.459922       -12.5151
  55   2.0000      -0.455525       -12.3955
  56   2.0000      -0.449045       -12.2191
  57   2.0000      -0.439443       -11.9578
  58   2.0000      -0.431063       -11.7298
  59   2.0000      -0.426210       -11.5978
  60   2.0000      -0.420997       -11.4559
  61   2.0000      -0.417529       -11.3615
  62   2.0000      -0.406177       -11.0527
  63   2.0000      -0.344302        -9.3689
  64   2.0000      -0.334382        -9.0990
  65   2.0000      -0.327403        -8.9091
  66   2.0000      -0.289430        -7.8758
  67   0.0000       0.029123         0.7925
  68   0.0000       0.067040         1.8243
  69   0.0000       0.104473         2.8429
  70   0.0000       0.123119         3.3502
  71   0.0000       0.124004         3.3743

MULLIKEN ATOMIC CHARGES
-----------------------
   0 S :    0.109726
   1 C :   -0.127792
   2 C :   -0.065903
   3 C :    0.049811
   4 C :   -0.115010
   5 H :   -0.051291
   6 C :    0.073448
   7 H :    0.028470
   8 H :    0.007085
   9 C :   -0.069291
  10 H :    0.036566
  11 H :    0.020482
  12 C :   -0.080931
  13 H :    0.041841
  14 H :    0.046289
  15 H :    0.034919
  16 S :    0.105559
  17 C :   -0.106890
  18 C :   -0.046817
  19 C :   -0.022897
  20 C :   -0.165860
  21 H :    0.045156
  22 C :    0.044575
  23 H :    0.030387
  24 H :    0.028169
  25 C :   -0.047427
  26 H :    0.012103
  27 H :    0.033485
  28 C :   -0.057125
  29 H :    0.020625
  30 H :    0.038291
  31 H :    0.036715
  32 H :    0.043919
  33 H :    0.069612
Sum of atomic charges:   -0.0000000

LOEWDIN ATOMIC CHARGES
----------------------
   0 S :    0.410516
   1 C :   -0.196469
   2 C :   -0.055107
   3 C :   -0.060745
   4 C :   -0.195699
   5 H :    0.014205
   6 C :   -0.038703
   7 H :    0.036483
   8 H :    0.026306
   9 C :   -0.039568
  10 H :    0.028885
  11 H :    0.022068
  12 C :   -0.067344
  13 H :    0.030416
  14 H :    0.031253
  15 H :    0.018372
  16 S :    0.388873
  17 C :   -0.190810
  18 C :   -0.077792
  19 C :   -0.051398
  20 C :   -0.178614
  21 H :    0.042699
  22 C :   -0.036025
  23 H :    0.032711
  24 H :    0.033904
  25 C :   -0.035996
  26 H :    0.013583
  27 H :    0.031030
  28 C :   -0.061023
  29 H :    0.024844
  30 H :    0.026608
  31 H :    0.013443
  32 H :    0.026964
  33 H :    0.032130

  Mayer bond orders larger than 0.100000
B(  0-S ,  1-C ) :   1.1314 B(  0-S ,  4-C ) :   1.1672 B(  1-C ,  2-C ) :   1.5864
B(  1-C , 32-H ) :   0.9703 B(  2-C ,  3-C ) :   1.2621 B(  2-C ,  6-C ) :   1.0296
B(  3-C ,  4-C ) :   1.5488 B(  3-C ,  5-H ) :   0.9971 B(  4-C , 20-C ) :   1.0216
B(  6-C ,  7-H ) :   0.9221 B(  6-C ,  8-H ) :   0.9397 B(  6-C ,  9-C ) :   1.0652
B(  9-C , 10-H ) :   0.9573 B(  9-C , 11-H ) :   0.9565 B(  9-C , 12-C ) :   1.0686
B( 12-C , 13-H ) :   0.9736 B( 12-C , 14-H ) :   0.9695 B( 12-C , 15-H ) :   0.9810
B( 16-S , 17-C ) :   1.1653 B( 16-S , 20-C ) :   1.1249 B( 17-C , 18-C ) :   1.6135
B( 17-C , 33-H ) :   0.9619 B( 18-C , 19-C ) :   1.2253 B( 18-C , 21-H ) :   0.9812
B( 19-C , 20-C ) :   1.6191 B( 19-C , 22-C ) :   1.0431 B( 22-C , 23-H ) :   0.9299
B( 22-C , 24-H ) :   0.9388 B( 22-C , 25-C ) :   1.0767 B( 25-C , 26-H ) :   0.9576
B( 25-C , 27-H ) :   0.9558 B( 25-C , 28-C ) :   1.0619 B( 28-C , 29-H ) :   0.9682
B( 28-C , 30-H ) :   0.9741 B( 28-C , 31-H ) :   0.9735

Dispersion correction           -0.015554206
FINAL SINGLE POINT ENERGY     -1339.871720579001

DIPOLE MOMENT
-------------
                                X             Y             Z
Electronic contribution:    -18.78586     -24.57176      -1.35337
Nuclear contribution   :     19.22162      25.07659       1.28415
                        -----------------------------------------
Total Dipole Moment    :      0.43576       0.50483      -0.06922
                        -----------------------------------------
Magnitude (a.u.)       :      0.67047
Magnitude (Debye)      :      1.70421

Rotational constants in cm-1:     0.017245     0.010509     0.007289
Rotational constants in MHz :   516.980152   315.045129   218.530287

                             ****ORCA TERMINATED NORMALLY****
TOTAL RUN TIME: 0 days 0 hours 0 minutes 34 seconds 283 msec
