                         Program Version 4.2.1 -  RELEASE  -
|  1> ! wB97X-D3 SP def2-SVP
|  2> %pal
|  3> nprocs 16
|  4> end
|  5>
|  6> * xyz 0 1
|  7> S 	 -7.78016 	 42.7293 	 39.2065
|  8> C 	 -9.03463 	 41.5329 	 38.8715
|  9> C 	 -8.61059 	 40.7355 	 37.8022
| 10> C 	 -7.21124 	 41.0115 	 37.4406
| 11> C 	 -6.63953 	 42.083 	 38.111
| 12> H 	 -6.60351 	 40.5516 	 36.693
| 13> C 	 -9.37321 	 39.595 	 37.2496
| 14> H 	 -10.0171 	 39.9534 	 36.4439
| 15> H 	 -10.0737 	 39.2956 	 38.0393
| 16> C 	 -8.69892 	 38.2524 	 36.7939
| 17> H 	 -7.89306 	 38.4068 	 36.1229
| 18> H 	 -8.18389 	 37.6768 	 37.6463
| 19> C 	 -9.73312 	 37.2248 	 36.2846
| 20> H 	 -9.18974 	 36.488 	 35.7251
| 21> H 	 -10.3404 	 36.7608 	 37.043
| 22> H 	 -10.4738 	 37.7844 	 35.7502
| 23> S 	 -4.51644 	 43.0789 	 39.6731
| 24> C 	 -2.92599 	 43.1576 	 38.8933
| 25> C 	 -2.98591 	 42.9909 	 37.5417
| 26> C 	 -4.27135 	 42.7067 	 37.019
| 27> C 	 -5.27841 	 42.5917 	 38.0605
| 28> H 	 -2.05106 	 43.1814 	 36.9943
| 29> C 	 -4.48455 	 42.5195 	 35.5101
| 30> H 	 -4.75101 	 43.5119 	 35.2998
| 31> H 	 -5.4522 	 42.0114 	 35.3409
| 32> C 	 -3.29114 	 42.0563 	 34.6069
| 33> H 	 -3.14201 	 41.064 	 34.7506
| 34> H 	 -2.35086 	 42.4097 	 34.9827
| 35> C 	 -3.46335 	 42.4122 	 33.1655
| 36> H 	 -3.75766 	 43.5042 	 33.123
| 37> H 	 -4.30646 	 41.9046 	 32.7651
| 38> H 	 -2.55035 	 42.2201 	 32.5704
| 39> H 	 -10.0328 	 41.5349 	 39.3426
| 40> H 	 -2.02278 	 43.439 	 39.426
| 41> *
| 42>
| 43>                          ****END OF INPUT****

CARTESIAN COORDINATES (ANGSTROEM)
---------------------------------
  S     -7.780160   42.729300   39.206500
  C     -9.034630   41.532900   38.871500
  C     -8.610590   40.735500   37.802200
  C     -7.211240   41.011500   37.440600
  C     -6.639530   42.083000   38.111000
  H     -6.603510   40.551600   36.693000
  C     -9.373210   39.595000   37.249600
  H    -10.017100   39.953400   36.443900
  H    -10.073700   39.295600   38.039300
  C     -8.698920   38.252400   36.793900
  H     -7.893060   38.406800   36.122900
  H     -8.183890   37.676800   37.646300
  C     -9.733120   37.224800   36.284600
  H     -9.189740   36.488000   35.725100
  H    -10.340400   36.760800   37.043000
  H    -10.473800   37.784400   35.750200
  S     -4.516440   43.078900   39.673100
  C     -2.925990   43.157600   38.893300
  C     -2.985910   42.990900   37.541700
  C     -4.271350   42.706700   37.019000
  C     -5.278410   42.591700   38.060500
  H     -2.051060   43.181400   36.994300
  C     -4.484550   42.519500   35.510100
  H     -4.751010   43.511900   35.299800
  H     -5.452200   42.011400   35.340900
  C     -3.291140   42.056300   34.606900
  H     -3.142010   41.064000   34.750600
  H     -2.350860   42.409700   34.982700
  C     -3.463350   42.412200   33.165500
  H     -3.757660   43.504200   33.123000
  H     -4.306460   41.904600   32.765100
  H     -2.550350   42.220100   32.570400
  H    -10.032800   41.534900   39.342600
  H     -2.022780   43.439000   39.426000

 Total Charge           Charge          ....    0
 Multiplicity           Mult            ....    1
 Number of Electrons    NEL             ....  134
 Basis Dimension        Dim             ....  322

ORBITAL ENERGIES
----------------

  NO   OCC          E(Eh)            E(eV)
   0   2.0000     -88.965489     -2420.8740
   1   2.0000     -88.961376     -2420.7621
   2   2.0000     -10.339940      -281.3641
   3   2.0000     -10.328434      -281.0510
   4   2.0000     -10.319944      -280.8199
   5   2.0000     -10.318600      -280.7834
   6   2.0000     -10.318513      -280.7810
   7   2.0000     -10.307824      -280.4902
   8   2.0000     -10.295923      -280.1663
   9   2.0000     -10.294367      -280.1240
  10   2.0000     -10.293197      -280.0921
  11   2.0000     -10.293018      -280.0873
  12   2.0000     -10.292459      -280.0721
  13   2.0000     -10.282901      -279.8120
  14   2.0000     -10.282037      -279.7884
  15   2.0000     -10.275520      -279.6111
  16   2.0000      -8.078486      -219.8268
  17   2.0000      -8.076738      -219.7792
  18   2.0000      -6.037145      -164.2791
  19   2.0000      -6.035333      -164.2298
  20   2.0000      -6.033326      -164.1751
  21   2.0000      -6.031005      -164.1120
  22   2.0000      -6.029087      -164.0598
  23   2.0000      -6.027513      -164.0170
  24   2.0000      -1.000241       -27.2179
  25   2.0000      -0.975130       -26.5346
  26   2.0000      -0.913247       -24.8507
  27   2.0000      -0.909263       -24.7423
  28   2.0000      -0.869772       -23.6677
  29   2.0000      -0.855121       -23.2690
  30   2.0000      -0.842415       -22.9233
  31   2.0000      -0.815523       -22.1915
  32   2.0000      -0.782609       -21.2959
  33   2.0000      -0.768789       -20.9198
  34   2.0000      -0.719906       -19.5896
  35   2.0000      -0.709484       -19.3061
  36   2.0000      -0.693992       -18.8845
  37   2.0000      -0.652391       -17.7525
  38   2.0000      -0.640896       -17.4397
  39   2.0000      -0.615976       -16.7616
  40   2.0000      -0.596638       -16.2353
  41   2.0000      -0.568987       -15.4829
  42   2.0000      -0.564368       -15.3572
  43   2.0000      -0.559034       -15.2121
  44   2.0000      -0.540673       -14.7125
  45   2.0000      -0.531406       -14.4603
  46   2.0000      -0.514276       -13.9942
  47   2.0000      -0.506581       -13.7848
  48   2.0000      -0.502332       -13.6691
  49   2.0000      -0.499589       -13.5945
  50   2.0000      -0.495519       -13.4838
  51   2.0000      -0.483322       -13.1519
  52   2.0000      -0.477319       -12.9885
  53   2.0000      -0.465337       -12.6625
  54   2.0000      -0.457997       -12.4627
  55   2.0000      -0.452458       -12.3120
  56   2.0000      -0.449321       -12.2267
  57   2.0000      -0.440307       -11.9813
  58   2.0000      -0.431359       -11.7379
  59   2.0000      -0.425488       -11.5781
  60   2.0000      -0.421969       -11.4824
  61   2.0000      -0.413634       -11.2556
  62   2.0000      -0.405483       -11.0338
  63   2.0000      -0.352380        -9.5888
  64   2.0000      -0.331481        -9.0201
  65   2.0000      -0.323080        -8.7915
  66   2.0000      -0.281965        -7.6727
  67   0.0000       0.018968         0.5162
  68   0.0000       0.072405         1.9703
  69   0.0000       0.104631         2.8472
  70   0.0000       0.123021         3.3476
  71   0.0000       0.136366         3.7107

MULLIKEN ATOMIC CHARGES
-----------------------
   0 S :    0.094178
   1 C :   -0.137231
   2 C :   -0.061704
   3 C :    0.016302
   4 C :   -0.137882
   5 H :   -0.001254
   6 C :    0.033505
   7 H :    0.040818
   8 H :    0.022857
   9 C :   -0.096690
  10 H :    0.025977
  11 H :    0.039107
  12 C :   -0.018817
  13 H :    0.038028
  14 H :    0.029098
  15 H :    0.012112
  16 S :    0.085776
  17 C :   -0.086676
  18 C :   -0.062034
  19 C :   -0.027833
  20 C :   -0.151378
  21 H :    0.032514
  22 C :    0.074687
  23 H :    0.024105
  24 H :    0.017666
  25 C :   -0.000210
  26 H :    0.006152
  27 H :    0.009627
  28 C :   -0.056061
  29 H :    0.033851
  30 H :    0.026638
  31 H :    0.048208
  32 H :    0.067178
  33 H :    0.059386
Sum of atomic charges:   -0.0000000

LOEWDIN ATOMIC CHARGES
----------------------
   0 S :    0.411757
   1 C :   -0.202473
   2 C :   -0.057770
   3 C :   -0.071479
   4 C :   -0.205519
   5 H :    0.022800
   6 C :   -0.043801
   7 H :    0.034816
   8 H :    0.035008
   9 C :   -0.040424
  10 H :    0.013145
  11 H :    0.034075
  12 C :   -0.058220
  13 H :    0.028362
  14 H :    0.024599
  15 H :    0.018971
  16 S :    0.357866
  17 C :   -0.167627
  18 C :   -0.086685
  19 C :   -0.037268
  20 C :   -0.179134
  21 H :    0.037912
  22 C :   -0.030041
  23 H :    0.033046
  24 H :    0.033315
  25 C :   -0.033837
  26 H :    0.013320
  27 H :    0.021791
  28 C :   -0.061129
  29 H :    0.032462
  30 H :    0.020639
  31 H :    0.033125
  32 H :    0.037513
  33 H :    0.030884

  Mayer bond orders larger than 0.100000
B(  0-S ,  1-C ) :   1.1296 B(  0-S ,  4-C ) :   1.1619 B(  1-C ,  2-C ) :   1.5951
B(  1-C , 32-H ) :   0.9695 B(  2-C ,  3-C ) :   1.2256 B(  2-C ,  6-C ) :   1.0373
B(  3-C ,  4-C ) :   1.5704 B(  3-C ,  5-H ) :   0.9929 B(  4-C , 20-C ) :   1.0690
B(  6-C ,  7-H ) :   0.9221 B(  6-C ,  8-H ) :   0.9484 B(  6-C ,  9-C ) :   1.0643
B(  9-C , 10-H ) :   0.9568 B(  9-C , 11-H ) :   0.9574 B(  9-C , 12-C ) :   1.0741
B( 12-C , 13-H ) :   0.9735 B( 12-C , 14-H ) :   0.9762 B( 12-C , 15-H ) :   0.9757
B( 16-S , 17-C ) :   1.1491 B( 16-S , 20-C ) :   1.1163 B( 17-C , 18-C ) :   1.6280
B( 17-C , 20-C ) :   0.1087 B( 17-C , 33-H ) :   0.9614 B( 18-C , 19-C ) :   1.2459
B( 18-C , 21-H ) :   0.9806 B( 19-C , 20-C ) :   1.5558 B( 19-C , 22-C ) :   1.0166
B( 22-C , 23-H ) :   0.9249 B( 22-C , 24-H ) :   0.9337 B( 22-C , 25-C ) :   1.0468
B( 25-C , 26-H ) :   0.9481 B( 25-C , 27-H ) :   0.9464 B( 25-C , 28-C ) :   1.0892
B( 28-C , 29-H ) :   0.9762 B( 28-C , 30-H ) :   0.9755 B( 28-C , 31-H ) :   0.9720

Dispersion correction           -0.012927527
FINAL SINGLE POINT ENERGY     -1339.854899471906

DIPOLE MOMENT
-------------
                                X             Y             Z
Electronic contribution:      2.42287      17.37810      25.05150
Nuclear contribution   :     -2.25604     -17.73133     -25.74678
                        -----------------------------------------
Total Dipole Moment    :      0.16684      -0.35323      -0.69529
                        -----------------------------------------
Magnitude (a.u.)       :      0.79751
Magnitude (Debye)      :      2.02712

Rotational constants in cm-1:     0.015625     0.008293     0.005945
Rotational constants in MHz :   468.433841   248.623096   178.230648

                             ****ORCA TERMINATED NORMALLY****
TOTAL RUN TIME: 0 days 0 hours 0 minutes 32 seconds 32 msec
