                         Program Version 4.2.1 -  RELEASE  -
|  1> ! wB97X-D3 SP def2-SVP
|  2> %pal
|  3> nprocs 16
|  4> end
|  5>
|  6> * xyz 0 1
|  7> S 	 -32.9532 	 63.345 	 109.75
|  8> C 	 -32.6487 	 64.4965 	 108.456
|  9> C 	 -31.8243 	 65.5414 	 108.858
| 10> C 	 -31.3363 	 65.3539 	 110.203
| 11> C 	 -31.7587 	 64.1318 	 110.736
| 12> H 	 -30.5926 	 66.0176 	 110.651
| 13> C 	 -31.3501 	 66.6945 	 107.942
| 14> H 	 -31.3391 	 67.5185 	 108.575
| 15> H 	 -32.0543 	 66.9271 	 107.131
| 16> C 	 -29.9157 	 66.7087 	 107.387
| 17> H 	 -29.6163 	 67.6857 	 107.118
| 18> H 	 -29.1445 	 66.316 	 108.065
| 19> C 	 -29.7177 	 65.8652 	 106.041
| 20> H 	 -28.6679 	 65.7687 	 105.843
| 21> H 	 -30.0571 	 64.8514 	 106.148
| 22> H 	 -30.2345 	 66.3398 	 105.203
| 23> S 	 -32.9856 	 63.2995 	 113.021
| 24> C 	 -31.9368 	 62.7353 	 114.363
| 25> C 	 -30.6229 	 62.8683 	 114.077
| 26> C 	 -30.4116 	 63.4191 	 112.794
| 27> C 	 -31.5745 	 63.7279 	 112.069
| 28> H 	 -29.9382 	 62.4175 	 114.773
| 29> C 	 -29.1062 	 63.3957 	 112.05
| 30> H 	 -29.1571 	 63.2231 	 111.018
| 31> H 	 -28.6186 	 62.4814 	 112.384
| 32> C 	 -28.2772 	 64.6073 	 112.254
| 33> H 	 -28.4205 	 64.929 	 113.286
| 34> H 	 -28.6483 	 65.3827 	 111.525
| 35> C 	 -26.8214 	 64.389 	 112.081
| 36> H 	 -26.6308 	 64.3582 	 110.993
| 37> H 	 -26.3765 	 63.4761 	 112.447
| 38> H 	 -26.3354 	 65.3251 	 112.37
| 39> H 	 -32.8093 	 64.341 	 107.431
| 40> H 	 -32.3883 	 62.3362 	 115.232
| 41> *
| 42>
| 43>                          ****END OF INPUT****

CARTESIAN COORDINATES (ANGSTROEM)
---------------------------------
  S    -32.953200   63.345000  109.750000
  C    -32.648700   64.496500  108.456000
  C    -31.824300   65.541400  108.858000
  C    -31.336300   65.353900  110.203000
  C    -31.758700   64.131800  110.736000
  H    -30.592600   66.017600  110.651000
  C    -31.350100   66.694500  107.942000
  H    -31.339100   67.518500  108.575000
  H    -32.054300   66.927100  107.131000
  C    -29.915700   66.708700  107.387000
  H    -29.616300   67.685700  107.118000
  H    -29.144500   66.316000  108.065000
  C    -29.717700   65.865200  106.041000
  H    -28.667900   65.768700  105.843000
  H    -30.057100   64.851400  106.148000
  H    -30.234500   66.339800  105.203000
  S    -32.985600   63.299500  113.021000
  C    -31.936800   62.735300  114.363000
  C    -30.622900   62.868300  114.077000
  C    -30.411600   63.419100  112.794000
  C    -31.574500   63.727900  112.069000
  H    -29.938200   62.417500  114.773000
  C    -29.106200   63.395700  112.050000
  H    -29.157100   63.223100  111.018000
  H    -28.618600   62.481400  112.384000
  C    -28.277200   64.607300  112.254000
  H    -28.420500   64.929000  113.286000
  H    -28.648300   65.382700  111.525000
  C    -26.821400   64.389000  112.081000
  H    -26.630800   64.358200  110.993000
  H    -26.376500   63.476100  112.447000
  H    -26.335400   65.325100  112.370000
  H    -32.809300   64.341000  107.431000
  H    -32.388300   62.336200  115.232000

 Total Charge           Charge          ....    0
 Multiplicity           Mult            ....    1
 Number of Electrons    NEL             ....  134
 Basis Dimension        Dim             ....  322

ORBITAL ENERGIES
----------------

  NO   OCC          E(Eh)            E(eV)
   0   2.0000     -88.970727     -2421.0166
   1   2.0000     -88.960997     -2420.7518
   2   2.0000     -10.328911      -281.0640
   3   2.0000     -10.320993      -280.8485
   4   2.0000     -10.314430      -280.6699
   5   2.0000     -10.311079      -280.5787
   6   2.0000     -10.307138      -280.4715
   7   2.0000     -10.300843      -280.3002
   8   2.0000     -10.299512      -280.2640
   9   2.0000     -10.293433      -280.0986
  10   2.0000     -10.293308      -280.0951
  11   2.0000     -10.290845      -280.0281
  12   2.0000     -10.278817      -279.7008
  13   2.0000     -10.275857      -279.6203
  14   2.0000     -10.274567      -279.5852
  15   2.0000     -10.272919      -279.5403
  16   2.0000      -8.085382      -220.0144
  17   2.0000      -8.075401      -219.7428
  18   2.0000      -6.043953      -164.4643
  19   2.0000      -6.039892      -164.3538
  20   2.0000      -6.036073      -164.2499
  21   2.0000      -6.033904      -164.1909
  22   2.0000      -6.029995      -164.0845
  23   2.0000      -6.026151      -163.9799
  24   2.0000      -1.009707       -27.4755
  25   2.0000      -0.981756       -26.7149
  26   2.0000      -0.919103       -25.0101
  27   2.0000      -0.908920       -24.7330
  28   2.0000      -0.875397       -23.8208
  29   2.0000      -0.852777       -23.2052
  30   2.0000      -0.845518       -23.0077
  31   2.0000      -0.816493       -22.2179
  32   2.0000      -0.787911       -21.4402
  33   2.0000      -0.772500       -21.0208
  34   2.0000      -0.712811       -19.3966
  35   2.0000      -0.701250       -19.0820
  36   2.0000      -0.691086       -18.8054
  37   2.0000      -0.663882       -18.0652
  38   2.0000      -0.638632       -17.3781
  39   2.0000      -0.623684       -16.9713
  40   2.0000      -0.605394       -16.4736
  41   2.0000      -0.572299       -15.5730
  42   2.0000      -0.566744       -15.4219
  43   2.0000      -0.545824       -14.8526
  44   2.0000      -0.544491       -14.8163
  45   2.0000      -0.533148       -14.5077
  46   2.0000      -0.520771       -14.1709
  47   2.0000      -0.519011       -14.1230
  48   2.0000      -0.510731       -13.8977
  49   2.0000      -0.500393       -13.6164
  50   2.0000      -0.492382       -13.3984
  51   2.0000      -0.475725       -12.9451
  52   2.0000      -0.469667       -12.7803
  53   2.0000      -0.464981       -12.6528
  54   2.0000      -0.462968       -12.5980
  55   2.0000      -0.450161       -12.2495
  56   2.0000      -0.445599       -12.1254
  57   2.0000      -0.439229       -11.9520
  58   2.0000      -0.435610       -11.8535
  59   2.0000      -0.426764       -11.6128
  60   2.0000      -0.416317       -11.3285
  61   2.0000      -0.410588       -11.1727
  62   2.0000      -0.404348       -11.0029
  63   2.0000      -0.351549        -9.5661
  64   2.0000      -0.333862        -9.0849
  65   2.0000      -0.330266        -8.9870
  66   2.0000      -0.286223        -7.7885
  67   0.0000       0.025592         0.6964
  68   0.0000       0.064245         1.7482
  69   0.0000       0.108045         2.9400
  70   0.0000       0.120035         3.2663
  71   0.0000       0.124323         3.3830

MULLIKEN ATOMIC CHARGES
-----------------------
   0 S :    0.119239
   1 C :   -0.092773
   2 C :   -0.099305
   3 C :    0.023977
   4 C :   -0.146479
   5 H :    0.023018
   6 C :    0.102040
   7 H :    0.010447
   8 H :    0.028197
   9 C :   -0.073922
  10 H :    0.023733
  11 H :    0.029428
  12 C :   -0.067730
  13 H :    0.027754
  14 H :    0.027461
  15 H :    0.033941
  16 S :    0.081923
  17 C :   -0.097359
  18 C :   -0.009211
  19 C :   -0.020230
  20 C :   -0.145586
  21 H :    0.020789
  22 C :    0.069657
  23 H :    0.012971
  24 H :    0.007718
  25 C :   -0.080421
  26 H :    0.025765
  27 H :    0.030030
  28 C :   -0.023301
  29 H :    0.012061
  30 H :    0.034581
  31 H :    0.032191
  32 H :    0.033760
  33 H :    0.045637
Sum of atomic charges:   -0.0000000

LOEWDIN ATOMIC CHARGES
----------------------
   0 S :    0.413832
   1 C :   -0.192705
   2 C :   -0.052730
   3 C :   -0.054887
   4 C :   -0.195645
   5 H :    0.032101
   6 C :   -0.029307
   7 H :    0.026389
   8 H :    0.034447
   9 C :   -0.032497
  10 H :    0.018963
  11 H :    0.025392
  12 C :   -0.066218
  13 H :    0.022527
  14 H :    0.019766
  15 H :    0.022637
  16 S :    0.374510
  17 C :   -0.157101
  18 C :   -0.068730
  19 C :   -0.054379
  20 C :   -0.195239
  21 H :    0.037168
  22 C :   -0.032891
  23 H :    0.022695
  24 H :    0.028049
  25 C :   -0.046080
  26 H :    0.021310
  27 H :    0.028721
  28 C :   -0.067203
  29 H :    0.025264
  30 H :    0.023417
  31 H :    0.029785
  32 H :    0.019139
  33 H :    0.019501

  Mayer bond orders larger than 0.100000
B(  0-S ,  1-C ) :   1.1260 B(  0-S ,  4-C ) :   1.1508 B(  1-C ,  2-C ) :   1.6204
B(  1-C , 32-H ) :   0.9693 B(  2-C ,  3-C ) :   1.2444 B(  2-C ,  6-C ) :   1.0257
B(  3-C ,  4-C ) :   1.5375 B(  3-C ,  5-H ) :   0.9875 B(  4-C , 20-C ) :   1.0843
B(  6-C ,  7-H ) :   0.9282 B(  6-C ,  8-H ) :   0.9459 B(  6-C ,  9-C ) :   1.0659
B(  9-C , 10-H ) :   0.9578 B(  9-C , 11-H ) :   0.9594 B(  9-C , 12-C ) :   1.0745
B( 12-C , 13-H ) :   0.9772 B( 12-C , 14-H ) :   0.9799 B( 12-C , 15-H ) :   0.9787
B( 16-S , 17-C ) :   1.1400 B( 16-S , 20-C ) :   1.1276 B( 17-C , 18-C ) :   1.6211
B( 17-C , 33-H ) :   0.9732 B( 18-C , 19-C ) :   1.2282 B( 18-C , 21-H ) :   0.9967
B( 19-C , 20-C ) :   1.5868 B( 19-C , 22-C ) :   1.0444 B( 22-C , 23-H ) :   0.9282
B( 22-C , 24-H ) :   0.9407 B( 22-C , 25-C ) :   1.0594 B( 25-C , 26-H ) :   0.9627
B( 25-C , 27-H ) :   0.9391 B( 25-C , 28-C ) :   1.0933 B( 28-C , 29-H ) :   0.9671
B( 28-C , 30-H ) :   0.9758 B( 28-C , 31-H ) :   0.9696

Dispersion correction           -0.014456162
FINAL SINGLE POINT ENERGY     -1339.862010062009

DIPOLE MOMENT
-------------
                                X             Y             Z
Electronic contribution:    -26.03508     -11.79417      13.20454
Nuclear contribution   :     26.67020      11.95742     -13.39838
                        -----------------------------------------
Total Dipole Moment    :      0.63512       0.16325      -0.19384
                        -----------------------------------------
Magnitude (a.u.)       :      0.68381
Magnitude (Debye)      :      1.73811

Rotational constants in cm-1:     0.018212     0.009476     0.006714
Rotational constants in MHz :   545.995795   284.086614   201.280206

                             ****ORCA TERMINATED NORMALLY****
TOTAL RUN TIME: 0 days 0 hours 0 minutes 26 seconds 738 msec
