                         Program Version 4.2.1 -  RELEASE  -
|  1> ! wB97X-D3 SP def2-SVP
|  2> %pal
|  3> nprocs 16
|  4> end
|  5>
|  6> * xyz 0 1
|  7> S 	 -89.9596 	 42.4734 	 117.759
|  8> C 	 -89.6997 	 43.8718 	 118.802
|  9> C 	 -90.8714 	 44.3005 	 119.387
| 10> C 	 -91.9685 	 43.5407 	 118.911
| 11> C 	 -91.7054 	 42.6324 	 117.947
| 12> H 	 -93.0116 	 43.6622 	 119.209
| 13> C 	 -90.9239 	 45.538 	 120.298
| 14> H 	 -90.258 	 46.335 	 119.888
| 15> H 	 -90.4561 	 45.1633 	 121.156
| 16> C 	 -92.285 	 46.0375 	 120.639
| 17> H 	 -92.7476 	 46.4362 	 119.767
| 18> H 	 -92.8643 	 45.171 	 120.88
| 19> C 	 -92.4016 	 47.1422 	 121.676
| 20> H 	 -93.3901 	 47.4803 	 121.607
| 21> H 	 -92.113 	 46.7167 	 122.659
| 22> H 	 -91.7065 	 47.9368 	 121.529
| 23> S 	 -92.414 	 41.7389 	 115.351
| 24> C 	 -93.7852 	 40.6636 	 115.266
| 25> C 	 -94.3549 	 40.4987 	 116.52
| 26> C 	 -93.7169 	 41.1701 	 117.611
| 27> C 	 -92.6169 	 41.8543 	 117.147
| 28> H 	 -95.3078 	 39.9089 	 116.591
| 29> C 	 -94.2167 	 41.1127 	 119.054
| 30> H 	 -93.4046 	 41.2288 	 119.807
| 31> H 	 -94.5342 	 40.0466 	 119.079
| 32> C 	 -95.4241 	 42.0192 	 119.39
| 33> H 	 -95.2055 	 43.1149 	 119.41
| 34> H 	 -95.6438 	 41.9181 	 120.47
| 35> C 	 -96.6083 	 41.8829 	 118.375
| 36> H 	 -97.0384 	 40.9041 	 118.23
| 37> H 	 -96.379 	 42.2076 	 117.318
| 38> H 	 -97.3691 	 42.4717 	 118.771
| 39> H 	 -88.6774 	 44.2373 	 118.959
| 40> H 	 -94.1175 	 40.2278 	 114.4
| 41> *
| 42>
| 43>                          ****END OF INPUT****

CARTESIAN COORDINATES (ANGSTROEM)
---------------------------------
  S    -89.959600   42.473400  117.759000
  C    -89.699700   43.871800  118.802000
  C    -90.871400   44.300500  119.387000
  C    -91.968500   43.540700  118.911000
  C    -91.705400   42.632400  117.947000
  H    -93.011600   43.662200  119.209000
  C    -90.923900   45.538000  120.298000
  H    -90.258000   46.335000  119.888000
  H    -90.456100   45.163300  121.156000
  C    -92.285000   46.037500  120.639000
  H    -92.747600   46.436200  119.767000
  H    -92.864300   45.171000  120.880000
  C    -92.401600   47.142200  121.676000
  H    -93.390100   47.480300  121.607000
  H    -92.113000   46.716700  122.659000
  H    -91.706500   47.936800  121.529000
  S    -92.414000   41.738900  115.351000
  C    -93.785200   40.663600  115.266000
  C    -94.354900   40.498700  116.520000
  C    -93.716900   41.170100  117.611000
  C    -92.616900   41.854300  117.147000
  H    -95.307800   39.908900  116.591000
  C    -94.216700   41.112700  119.054000
  H    -93.404600   41.228800  119.807000
  H    -94.534200   40.046600  119.079000
  C    -95.424100   42.019200  119.390000
  H    -95.205500   43.114900  119.410000
  H    -95.643800   41.918100  120.470000
  C    -96.608300   41.882900  118.375000
  H    -97.038400   40.904100  118.230000
  H    -96.379000   42.207600  117.318000
  H    -97.369100   42.471700  118.771000
  H    -88.677400   44.237300  118.959000
  H    -94.117500   40.227800  114.400000

 Total Charge           Charge          ....    0
 Multiplicity           Mult            ....    1
 Number of Electrons    NEL             ....  134
 Basis Dimension        Dim             ....  322

ORBITAL ENERGIES
----------------

  NO   OCC          E(Eh)            E(eV)
   0   2.0000     -88.966223     -2420.8940
   1   2.0000     -88.959176     -2420.7023
   2   2.0000     -10.326291      -280.9927
   3   2.0000     -10.321746      -280.8690
   4   2.0000     -10.313681      -280.6495
   5   2.0000     -10.311693      -280.5954
   6   2.0000     -10.303456      -280.3713
   7   2.0000     -10.301461      -280.3170
   8   2.0000     -10.300630      -280.2944
   9   2.0000     -10.300584      -280.2931
  10   2.0000     -10.297881      -280.2196
  11   2.0000     -10.289078      -279.9801
  12   2.0000     -10.288619      -279.9675
  13   2.0000     -10.279679      -279.7243
  14   2.0000     -10.277670      -279.6696
  15   2.0000     -10.275177      -279.6018
  16   2.0000      -8.080109      -219.8709
  17   2.0000      -8.073901      -219.7020
  18   2.0000      -6.038673      -164.3206
  19   2.0000      -6.034813      -164.2156
  20   2.0000      -6.032364      -164.1490
  21   2.0000      -6.030779      -164.1058
  22   2.0000      -6.028488      -164.0435
  23   2.0000      -6.024639      -163.9388
  24   2.0000      -1.004398       -27.3311
  25   2.0000      -0.981088       -26.6968
  26   2.0000      -0.918758       -25.0007
  27   2.0000      -0.906182       -24.6585
  28   2.0000      -0.871983       -23.7279
  29   2.0000      -0.849996       -23.1296
  30   2.0000      -0.841043       -22.8859
  31   2.0000      -0.815252       -22.1841
  32   2.0000      -0.789861       -21.4932
  33   2.0000      -0.776397       -21.1268
  34   2.0000      -0.716929       -19.5086
  35   2.0000      -0.704753       -19.1773
  36   2.0000      -0.689847       -18.7717
  37   2.0000      -0.656955       -17.8766
  38   2.0000      -0.644055       -17.5256
  39   2.0000      -0.617747       -16.8098
  40   2.0000      -0.592002       -16.1092
  41   2.0000      -0.575911       -15.6713
  42   2.0000      -0.563182       -15.3250
  43   2.0000      -0.549275       -14.9465
  44   2.0000      -0.545478       -14.8432
  45   2.0000      -0.533256       -14.5106
  46   2.0000      -0.515802       -14.0357
  47   2.0000      -0.507235       -13.8026
  48   2.0000      -0.503710       -13.7066
  49   2.0000      -0.501672       -13.6512
  50   2.0000      -0.490124       -13.3369
  51   2.0000      -0.483478       -13.1561
  52   2.0000      -0.478234       -13.0134
  53   2.0000      -0.466972       -12.7070
  54   2.0000      -0.457211       -12.4414
  55   2.0000      -0.449337       -12.2271
  56   2.0000      -0.444967       -12.1082
  57   2.0000      -0.437683       -11.9100
  58   2.0000      -0.435137       -11.8407
  59   2.0000      -0.431843       -11.7511
  60   2.0000      -0.421581       -11.4718
  61   2.0000      -0.412296       -11.2192
  62   2.0000      -0.406765       -11.0686
  63   2.0000      -0.346203        -9.4207
  64   2.0000      -0.333439        -9.0733
  65   2.0000      -0.327173        -8.9028
  66   2.0000      -0.288555        -7.8520
  67   0.0000       0.028151         0.7660
  68   0.0000       0.073597         2.0027
  69   0.0000       0.111253         3.0274
  70   0.0000       0.126548         3.4435
  71   0.0000       0.127059         3.4575

MULLIKEN ATOMIC CHARGES
-----------------------
   0 S :    0.097254
   1 C :   -0.160316
   2 C :   -0.067303
   3 C :    0.009545
   4 C :   -0.152525
   5 H :   -0.016052
   6 C :    0.107359
   7 H :    0.039253
   8 H :    0.016030
   9 C :   -0.108951
  10 H :    0.018850
  11 H :    0.024092
  12 C :    0.015676
  13 H :    0.029655
  14 H :    0.026746
  15 H :    0.020662
  16 S :    0.110934
  17 C :   -0.059166
  18 C :   -0.062001
  19 C :   -0.027288
  20 C :   -0.155940
  21 H :    0.031403
  22 C :    0.058202
  23 H :    0.044789
  24 H :    0.036020
  25 C :   -0.083490
  26 H :    0.039752
  27 H :    0.035344
  28 C :   -0.054601
  29 H :    0.024253
  30 H :    0.061347
  31 H :    0.021571
  32 H :    0.054323
  33 H :    0.024571
Sum of atomic charges:    0.0000000

LOEWDIN ATOMIC CHARGES
----------------------
   0 S :    0.385849
   1 C :   -0.191663
   2 C :   -0.061168
   3 C :   -0.071368
   4 C :   -0.184246
   5 H :    0.028658
   6 C :   -0.027373
   7 H :    0.037015
   8 H :    0.026094
   9 C :   -0.045200
  10 H :    0.020862
  11 H :    0.020437
  12 C :   -0.049312
  13 H :    0.023433
  14 H :    0.027626
  15 H :    0.021762
  16 S :    0.382874
  17 C :   -0.173105
  18 C :   -0.075162
  19 C :   -0.055356
  20 C :   -0.180154
  21 H :    0.036127
  22 C :   -0.035942
  23 H :    0.036363
  24 H :    0.038672
  25 C :   -0.043822
  26 H :    0.026682
  27 H :    0.029671
  28 C :   -0.066763
  29 H :    0.019126
  30 H :    0.039125
  31 H :    0.019231
  32 H :    0.028627
  33 H :    0.012399

  Mayer bond orders larger than 0.100000
B(  0-S ,  1-C ) :   1.1385 B(  0-S ,  4-C ) :   1.1392 B(  1-C ,  2-C ) :   1.6115
B(  1-C , 32-H ) :   0.9732 B(  2-C ,  3-C ) :   1.2405 B(  2-C ,  6-C ) :   0.9854
B(  3-C ,  4-C ) :   1.5874 B(  3-C ,  5-H ) :   0.9903 B(  4-C , 20-C ) :   1.0627
B(  6-C ,  7-H ) :   0.9433 B(  6-C ,  8-H ) :   0.9244 B(  6-C ,  9-C ) :   1.0971
B(  9-C , 10-H ) :   0.9526 B(  9-C , 11-H ) :   0.9411 B(  9-C , 12-C ) :   1.0892
B( 12-C , 13-H ) :   0.9723 B( 12-C , 14-H ) :   0.9740 B( 12-C , 15-H ) :   0.9731
B( 16-S , 17-C ) :   1.1395 B( 16-S , 20-C ) :   1.1261 B( 17-C , 18-C ) :   1.6194
B( 17-C , 33-H ) :   0.9798 B( 18-C , 19-C ) :   1.2269 B( 18-C , 21-H ) :   0.9771
B( 19-C , 20-C ) :   1.6082 B( 19-C , 22-C ) :   1.0274 B( 22-C , 23-H ) :   0.9329
B( 22-C , 24-H ) :   0.9355 B( 22-C , 25-C ) :   1.0681 B( 25-C , 26-H ) :   0.9468
B( 25-C , 27-H ) :   0.9562 B( 25-C , 28-C ) :   1.0682 B( 28-C , 29-H ) :   0.9774
B( 28-C , 30-H ) :   0.9673 B( 28-C , 31-H ) :   0.9711

Dispersion correction           -0.014668706
FINAL SINGLE POINT ENERGY     -1339.875549448783

DIPOLE MOMENT
-------------
                                X             Y             Z
Electronic contribution:     17.41837     -13.14821     -20.90427
Nuclear contribution   :    -17.96555      13.41032      21.42335
                        -----------------------------------------
Total Dipole Moment    :     -0.54718       0.26211       0.51908
                        -----------------------------------------
Magnitude (a.u.)       :      0.79846
Magnitude (Debye)      :      2.02954

Rotational constants in cm-1:     0.017874     0.009341     0.006716
Rotational constants in MHz :   535.849544   280.047397   201.352364

                             ****ORCA TERMINATED NORMALLY****
TOTAL RUN TIME: 0 days 0 hours 0 minutes 34 seconds 816 msec
