                         Program Version 4.2.1 -  RELEASE  -
|  1> ! wB97X-D3 SP def2-SVP
|  2> %pal
|  3> nprocs 16
|  4> end
|  5>
|  6> * xyz 0 1
|  7> S 	 -85.0361 	 39.9972 	 129.948
|  8> C 	 -84.8475 	 38.6603 	 131.013
|  9> C 	 -84.6275 	 39.0371 	 132.325
| 10> C 	 -84.9629 	 40.464 	 132.542
| 11> C 	 -85.2843 	 41.0884 	 131.313
| 12> H 	 -84.9833 	 41.1013 	 133.457
| 13> C 	 -84.096 	 38.2054 	 133.467
| 14> H 	 -83.7626 	 38.8589 	 134.314
| 15> H 	 -83.077 	 37.9181 	 133.266
| 16> C 	 -85.0231 	 37.045 	 133.813
| 17> H 	 -85.0717 	 36.2175 	 133.068
| 18> H 	 -84.5978 	 36.5728 	 134.722
| 19> C 	 -86.4127 	 37.5261 	 134.058
| 20> H 	 -86.9538 	 36.8343 	 134.679
| 21> H 	 -86.45 	 38.4071 	 134.77
| 22> H 	 -86.9415 	 37.7639 	 133.136
| 23> S 	 -87.0955 	 43.062 	 130.62
| 24> C 	 -86.5698 	 44.7479 	 130.58
| 25> C 	 -85.2815 	 44.848 	 131.077
| 26> C 	 -84.7173 	 43.6101 	 131.526
| 27> C 	 -85.4843 	 42.5075 	 131.068
| 28> H 	 -84.771 	 45.8237 	 131.102
| 29> C 	 -83.407 	 43.5275 	 132.274
| 30> H 	 -83.6751 	 42.923 	 133.162
| 31> H 	 -83.088 	 44.4664 	 132.67
| 32> C 	 -82.1413 	 43.0324 	 131.6
| 33> H 	 -81.9099 	 43.6077 	 130.738
| 34> H 	 -82.2135 	 42.007 	 131.2
| 35> C 	 -80.9591 	 43.1922 	 132.579
| 36> H 	 -81.0926 	 42.4552 	 133.411
| 37> H 	 -80.7894 	 44.2535 	 132.803
| 38> H 	 -80.0541 	 42.8187 	 132.189
| 39> H 	 -84.6672 	 37.6562 	 130.614
| 40> H 	 -87.1873 	 45.5508 	 130.282
| 41> *
| 42>
| 43>                          ****END OF INPUT****

CARTESIAN COORDINATES (ANGSTROEM)
---------------------------------
  S    -85.036100   39.997200  129.948000
  C    -84.847500   38.660300  131.013000
  C    -84.627500   39.037100  132.325000
  C    -84.962900   40.464000  132.542000
  C    -85.284300   41.088400  131.313000
  H    -84.983300   41.101300  133.457000
  C    -84.096000   38.205400  133.467000
  H    -83.762600   38.858900  134.314000
  H    -83.077000   37.918100  133.266000
  C    -85.023100   37.045000  133.813000
  H    -85.071700   36.217500  133.068000
  H    -84.597800   36.572800  134.722000
  C    -86.412700   37.526100  134.058000
  H    -86.953800   36.834300  134.679000
  H    -86.450000   38.407100  134.770000
  H    -86.941500   37.763900  133.136000
  S    -87.095500   43.062000  130.620000
  C    -86.569800   44.747900  130.580000
  C    -85.281500   44.848000  131.077000
  C    -84.717300   43.610100  131.526000
  C    -85.484300   42.507500  131.068000
  H    -84.771000   45.823700  131.102000
  C    -83.407000   43.527500  132.274000
  H    -83.675100   42.923000  133.162000
  H    -83.088000   44.466400  132.670000
  C    -82.141300   43.032400  131.600000
  H    -81.909900   43.607700  130.738000
  H    -82.213500   42.007000  131.200000
  C    -80.959100   43.192200  132.579000
  H    -81.092600   42.455200  133.411000
  H    -80.789400   44.253500  132.803000
  H    -80.054100   42.818700  132.189000
  H    -84.667200   37.656200  130.614000
  H    -87.187300   45.550800  130.282000

 Total Charge           Charge          ....    0
 Multiplicity           Mult            ....    1
 Number of Electrons    NEL             ....  134
 Basis Dimension        Dim             ....  322

ORBITAL ENERGIES
----------------

  NO   OCC          E(Eh)            E(eV)
   0   2.0000     -88.965075     -2420.8628
   1   2.0000     -88.962834     -2420.8018
   2   2.0000     -10.328920      -281.0642
   3   2.0000     -10.325382      -280.9679
   4   2.0000     -10.315964      -280.7117
   5   2.0000     -10.313408      -280.6421
   6   2.0000     -10.307192      -280.4729
   7   2.0000     -10.307157      -280.4720
   8   2.0000     -10.305063      -280.4150
   9   2.0000     -10.295781      -280.1625
  10   2.0000     -10.292767      -280.0804
  11   2.0000     -10.289352      -279.9875
  12   2.0000     -10.288817      -279.9730
  13   2.0000     -10.281215      -279.7661
  14   2.0000     -10.278082      -279.6808
  15   2.0000     -10.271970      -279.5145
  16   2.0000      -8.080106      -219.8709
  17   2.0000      -8.077117      -219.7895
  18   2.0000      -6.038548      -164.3173
  19   2.0000      -6.035643      -164.2382
  20   2.0000      -6.034672      -164.2118
  21   2.0000      -6.031698      -164.1308
  22   2.0000      -6.030818      -164.1069
  23   2.0000      -6.027873      -164.0268
  24   2.0000      -1.000225       -27.2175
  25   2.0000      -0.978783       -26.6340
  26   2.0000      -0.915012       -24.8987
  27   2.0000      -0.910410       -24.7735
  28   2.0000      -0.866150       -23.5691
  29   2.0000      -0.848753       -23.0957
  30   2.0000      -0.843502       -22.9529
  31   2.0000      -0.808536       -22.0014
  32   2.0000      -0.782863       -21.3028
  33   2.0000      -0.770026       -20.9535
  34   2.0000      -0.705837       -19.2068
  35   2.0000      -0.699553       -19.0358
  36   2.0000      -0.690207       -18.7815
  37   2.0000      -0.659376       -17.9425
  38   2.0000      -0.641691       -17.4613
  39   2.0000      -0.606623       -16.5071
  40   2.0000      -0.595708       -16.2100
  41   2.0000      -0.575611       -15.6632
  42   2.0000      -0.571015       -15.5381
  43   2.0000      -0.551129       -14.9970
  44   2.0000      -0.540575       -14.7098
  45   2.0000      -0.523386       -14.2420
  46   2.0000      -0.515565       -14.0292
  47   2.0000      -0.511437       -13.9169
  48   2.0000      -0.501038       -13.6339
  49   2.0000      -0.491062       -13.3625
  50   2.0000      -0.486955       -13.2507
  51   2.0000      -0.481077       -13.0908
  52   2.0000      -0.472660       -12.8617
  53   2.0000      -0.461602       -12.5608
  54   2.0000      -0.457945       -12.4613
  55   2.0000      -0.443392       -12.0653
  56   2.0000      -0.438532       -11.9331
  57   2.0000      -0.432510       -11.7692
  58   2.0000      -0.428810       -11.6685
  59   2.0000      -0.421278       -11.4636
  60   2.0000      -0.420512       -11.4427
  61   2.0000      -0.414629       -11.2826
  62   2.0000      -0.413392       -11.2490
  63   2.0000      -0.337291        -9.1781
  64   2.0000      -0.324784        -8.8378
  65   2.0000      -0.322302        -8.7703
  66   2.0000      -0.297076        -8.0839
  67   0.0000       0.028053         0.7634
  68   0.0000       0.061879         1.6838
  69   0.0000       0.103103         2.8056
  70   0.0000       0.113247         3.0816
  71   0.0000       0.138264         3.7624

MULLIKEN ATOMIC CHARGES
-----------------------
   0 S :    0.117340
   1 C :   -0.110032
   2 C :   -0.121976
   3 C :    0.021161
   4 C :   -0.180175
   5 H :    0.042694
   6 C :    0.078463
   7 H :    0.019249
   8 H :    0.020256
   9 C :   -0.074294
  10 H :    0.038318
  11 H :    0.026900
  12 C :   -0.046176
  13 H :    0.022124
  14 H :    0.022589
  15 H :    0.055704
  16 S :    0.103669
  17 C :   -0.082802
  18 C :   -0.034730
  19 C :   -0.027589
  20 C :   -0.156446
  21 H :    0.028022
  22 C :    0.081945
  23 H :    0.016394
  24 H :   -0.005325
  25 C :   -0.047214
  26 H :    0.016770
  27 H :    0.033538
  28 C :   -0.047944
  29 H :    0.032071
  30 H :    0.041981
  31 H :    0.013014
  32 H :    0.055206
  33 H :    0.047292
Sum of atomic charges:    0.0000000

LOEWDIN ATOMIC CHARGES
----------------------
   0 S :    0.416351
   1 C :   -0.209948
   2 C :   -0.057766
   3 C :   -0.061047
   4 C :   -0.199425
   5 H :    0.039984
   6 C :   -0.043967
   7 H :    0.037605
   8 H :    0.029726
   9 C :   -0.045564
  10 H :    0.028353
  11 H :    0.026837
  12 C :   -0.071058
  13 H :    0.023178
  14 H :    0.029929
  15 H :    0.030076
  16 S :    0.400133
  17 C :   -0.175189
  18 C :   -0.074036
  19 C :   -0.046106
  20 C :   -0.211819
  21 H :    0.035453
  22 C :   -0.035342
  23 H :    0.033261
  24 H :    0.025470
  25 C :   -0.035649
  26 H :    0.018992
  27 H :    0.026364
  28 C :   -0.065254
  29 H :    0.031740
  30 H :    0.028352
  31 H :    0.018567
  32 H :    0.029535
  33 H :    0.022265

  Mayer bond orders larger than 0.100000
B(  0-S ,  1-C ) :   1.1452 B(  0-S ,  4-C ) :   1.1596 B(  1-C ,  2-C ) :   1.6187
B(  1-C , 32-H ) :   0.9673 B(  2-C ,  3-C ) :   1.2097 B(  2-C ,  6-C ) :   1.0199
B(  3-C ,  4-C ) :   1.5831 B(  3-C ,  5-H ) :   0.9844 B(  4-C , 20-C ) :   1.0309
B(  6-C ,  7-H ) :   0.9409 B(  6-C ,  8-H ) :   0.9321 B(  6-C ,  9-C ) :   1.0689
B(  9-C , 10-H ) :   0.9554 B(  9-C , 11-H ) :   0.9541 B(  9-C , 12-C ) :   1.0849
B( 12-C , 13-H ) :   0.9694 B( 12-C , 14-H ) :   0.9729 B( 12-C , 15-H ) :   0.9674
B( 16-S , 17-C ) :   1.1591 B( 16-S , 20-C ) :   1.1489 B( 17-C , 18-C ) :   1.5888
B( 17-C , 20-C ) :   0.1084 B( 17-C , 33-H ) :   0.9755 B( 18-C , 19-C ) :   1.2545
B( 18-C , 21-H ) :   0.9867 B( 19-C , 20-C ) :   1.5552 B( 19-C , 22-C ) :   1.0445
B( 22-C , 23-H ) :   0.9241 B( 22-C , 24-H ) :   0.9313 B( 22-C , 25-C ) :   1.0666
B( 25-C , 26-H ) :   0.9525 B( 25-C , 27-H ) :   0.9510 B( 25-C , 28-C ) :   1.0898
B( 28-C , 29-H ) :   0.9740 B( 28-C , 30-H ) :   0.9732 B( 28-C , 31-H ) :   0.9706

Dispersion correction           -0.015062244
FINAL SINGLE POINT ENERGY     -1339.864882513687

DIPOLE MOMENT
-------------
                                X             Y             Z
Electronic contribution:    -15.36398       7.54368     -17.81986
Nuclear contribution   :     15.95082      -7.53724      18.32010
                        -----------------------------------------
Total Dipole Moment    :      0.58684       0.00644       0.50025
                        -----------------------------------------
Magnitude (a.u.)       :      0.77115
Magnitude (Debye)      :      1.96010

Rotational constants in cm-1:     0.018224     0.009033     0.007236
Rotational constants in MHz :   546.329493   270.814518   216.920012

                             ****ORCA TERMINATED NORMALLY****
TOTAL RUN TIME: 0 days 0 hours 0 minutes 35 seconds 950 msec
