                         Program Version 4.2.1 -  RELEASE  -
|  1> ! wB97X-D3 SP def2-SVP
|  2> %pal
|  3> nprocs 16
|  4> end
|  5>
|  6> * xyz 0 1
|  7> S 	 -7.64904 	 42.9555 	 36.3884
|  8> C 	 -7.56674 	 41.5878 	 35.2279
|  9> C 	 -6.36326 	 41.7004 	 34.4894
| 10> C 	 -5.69905 	 42.925 	 34.71
| 11> C 	 -6.17548 	 43.614 	 35.75
| 12> H 	 -4.93062 	 43.3404 	 34.0808
| 13> C 	 -5.85754 	 40.7326 	 33.4373
| 14> H 	 -4.92469 	 40.4604 	 33.8226
| 15> H 	 -5.63483 	 41.2821 	 32.5158
| 16> C 	 -6.73986 	 39.4436 	 33.3186
| 17> H 	 -6.82436 	 38.9579 	 34.2199
| 18> H 	 -7.74869 	 39.8402 	 32.8966
| 19> C 	 -6.12538 	 38.4203 	 32.3514
| 20> H 	 -6.70323 	 37.656 	 31.9632
| 21> H 	 -5.6536 	 39.0791 	 31.6077
| 22> H 	 -5.31003 	 37.8317 	 32.7999
| 23> S 	 -7.05104 	 46.1337 	 35.803
| 24> C 	 -5.94472 	 47.3374 	 36.1949
| 25> C 	 -4.67064 	 46.9443 	 36.5036
| 26> C 	 -4.55414 	 45.5734 	 36.4181
| 27> C 	 -5.76894 	 44.9801 	 35.9705
| 28> H 	 -3.97526 	 47.7738 	 36.6351
| 29> C 	 -3.24875 	 44.8921 	 36.7059
| 30> H 	 -3.54436 	 44 	 37.2933
| 31> H 	 -2.69443 	 45.6079 	 37.3601
| 32> C 	 -2.34399 	 44.4481 	 35.5125
| 33> H 	 -2.28091 	 45.4164 	 34.966
| 34> H 	 -2.88352 	 43.6339 	 34.9548
| 35> C 	 -0.995536 	 43.895 	 36.0502
| 36> H 	 -0.504313 	 44.6346 	 36.5856
| 37> H 	 -0.295517 	 43.5922 	 35.2517
| 38> H 	 -1.20457 	 43.0419 	 36.7843
| 39> H 	 -8.18791 	 40.6871 	 35.429
| 40> H 	 -6.22611 	 48.4157 	 36.1688
| 41> *
| 42>
| 43>                          ****END OF INPUT****

CARTESIAN COORDINATES (ANGSTROEM)
---------------------------------
  S     -7.649040   42.955500   36.388400
  C     -7.566740   41.587800   35.227900
  C     -6.363260   41.700400   34.489400
  C     -5.699050   42.925000   34.710000
  C     -6.175480   43.614000   35.750000
  H     -4.930620   43.340400   34.080800
  C     -5.857540   40.732600   33.437300
  H     -4.924690   40.460400   33.822600
  H     -5.634830   41.282100   32.515800
  C     -6.739860   39.443600   33.318600
  H     -6.824360   38.957900   34.219900
  H     -7.748690   39.840200   32.896600
  C     -6.125380   38.420300   32.351400
  H     -6.703230   37.656000   31.963200
  H     -5.653600   39.079100   31.607700
  H     -5.310030   37.831700   32.799900
  S     -7.051040   46.133700   35.803000
  C     -5.944720   47.337400   36.194900
  C     -4.670640   46.944300   36.503600
  C     -4.554140   45.573400   36.418100
  C     -5.768940   44.980100   35.970500
  H     -3.975260   47.773800   36.635100
  C     -3.248750   44.892100   36.705900
  H     -3.544360   44.000000   37.293300
  H     -2.694430   45.607900   37.360100
  C     -2.343990   44.448100   35.512500
  H     -2.280910   45.416400   34.966000
  H     -2.883520   43.633900   34.954800
  C     -0.995536   43.895000   36.050200
  H     -0.504313   44.634600   36.585600
  H     -0.295517   43.592200   35.251700
  H     -1.204570   43.041900   36.784300
  H     -8.187910   40.687100   35.429000
  H     -6.226110   48.415700   36.168800

 Total Charge           Charge          ....    0
 Multiplicity           Mult            ....    1
 Number of Electrons    NEL             ....  134
 Basis Dimension        Dim             ....  322

ORBITAL ENERGIES
----------------

  NO   OCC          E(Eh)            E(eV)
   0   2.0000     -88.966041     -2420.8890
   1   2.0000     -88.962664     -2420.7972
   2   2.0000     -10.320487      -280.8347
   3   2.0000     -10.319573      -280.8099
   4   2.0000     -10.318991      -280.7940
   5   2.0000     -10.306685      -280.4592
   6   2.0000     -10.304590      -280.4022
   7   2.0000     -10.299879      -280.2740
   8   2.0000     -10.296239      -280.1749
   9   2.0000     -10.292001      -280.0596
  10   2.0000     -10.291910      -280.0571
  11   2.0000     -10.291746      -280.0526
  12   2.0000     -10.284438      -279.8538
  13   2.0000     -10.284154      -279.8461
  14   2.0000     -10.282455      -279.7998
  15   2.0000     -10.274488      -279.5830
  16   2.0000      -8.082434      -219.9342
  17   2.0000      -8.077289      -219.7942
  18   2.0000      -6.040468      -164.3695
  19   2.0000      -6.036744      -164.2682
  20   2.0000      -6.035841      -164.2436
  21   2.0000      -6.033552      -164.1813
  22   2.0000      -6.031833      -164.1345
  23   2.0000      -6.027979      -164.0296
  24   2.0000      -1.015155       -27.6238
  25   2.0000      -0.988106       -26.8877
  26   2.0000      -0.913277       -24.8515
  27   2.0000      -0.907215       -24.6866
  28   2.0000      -0.869177       -23.6515
  29   2.0000      -0.855699       -23.2847
  30   2.0000      -0.852071       -23.1860
  31   2.0000      -0.812709       -22.1149
  32   2.0000      -0.782684       -21.2979
  33   2.0000      -0.765035       -20.8177
  34   2.0000      -0.715845       -19.4791
  35   2.0000      -0.700644       -19.0655
  36   2.0000      -0.683496       -18.5989
  37   2.0000      -0.659395       -17.9431
  38   2.0000      -0.640125       -17.4187
  39   2.0000      -0.615494       -16.7484
  40   2.0000      -0.591120       -16.0852
  41   2.0000      -0.577791       -15.7225
  42   2.0000      -0.568497       -15.4696
  43   2.0000      -0.561204       -15.2711
  44   2.0000      -0.530359       -14.4318
  45   2.0000      -0.523643       -14.2491
  46   2.0000      -0.517410       -14.0794
  47   2.0000      -0.514027       -13.9874
  48   2.0000      -0.499500       -13.5921
  49   2.0000      -0.497413       -13.5353
  50   2.0000      -0.488796       -13.3008
  51   2.0000      -0.481251       -13.0955
  52   2.0000      -0.470212       -12.7951
  53   2.0000      -0.467305       -12.7160
  54   2.0000      -0.452966       -12.3258
  55   2.0000      -0.451104       -12.2752
  56   2.0000      -0.442373       -12.0376
  57   2.0000      -0.433208       -11.7882
  58   2.0000      -0.432152       -11.7594
  59   2.0000      -0.424491       -11.5510
  60   2.0000      -0.423428       -11.5221
  61   2.0000      -0.421511       -11.4699
  62   2.0000      -0.416951       -11.3458
  63   2.0000      -0.347052        -9.4438
  64   2.0000      -0.333832        -9.0840
  65   2.0000      -0.325055        -8.8452
  66   2.0000      -0.288502        -7.8505
  67   0.0000       0.034627         0.9423
  68   0.0000       0.066405         1.8070
  69   0.0000       0.114304         3.1104
  70   0.0000       0.123736         3.3670
  71   0.0000       0.132805         3.6138

MULLIKEN ATOMIC CHARGES
-----------------------
   0 S :    0.088967
   1 C :   -0.159844
   2 C :   -0.086407
   3 C :   -0.001483
   4 C :   -0.112825
   5 H :    0.026744
   6 C :    0.069334
   7 H :    0.014233
   8 H :    0.041153
   9 C :   -0.085751
  10 H :    0.021685
  11 H :    0.052817
  12 C :   -0.017042
  13 H :    0.022666
  14 H :    0.025575
  15 H :    0.022929
  16 S :    0.139854
  17 C :   -0.111320
  18 C :   -0.055949
  19 C :    0.001817
  20 C :   -0.198045
  21 H :    0.020482
  22 C :    0.024840
  23 H :    0.034284
  24 H :    0.025029
  25 C :   -0.086493
  26 H :    0.038312
  27 H :    0.040342
  28 C :   -0.027184
  29 H :    0.011626
  30 H :    0.043341
  31 H :    0.041528
  32 H :    0.078576
  33 H :    0.056208
Sum of atomic charges:    0.0000000

LOEWDIN ATOMIC CHARGES
----------------------
   0 S :    0.382783
   1 C :   -0.203281
   2 C :   -0.052058
   3 C :   -0.064562
   4 C :   -0.199129
   5 H :    0.032312
   6 C :   -0.029753
   7 H :    0.025563
   8 H :    0.035821
   9 C :   -0.033876
  10 H :    0.011863
  11 H :    0.037261
  12 C :   -0.064142
  13 H :    0.015704
  14 H :    0.028149
  15 H :    0.027156
  16 S :    0.452942
  17 C :   -0.210134
  18 C :   -0.084304
  19 C :   -0.057978
  20 C :   -0.206633
  21 H :    0.038385
  22 C :   -0.038217
  23 H :    0.032980
  24 H :    0.032122
  25 C :   -0.042410
  26 H :    0.028366
  27 H :    0.026610
  28 C :   -0.065955
  29 H :    0.012725
  30 H :    0.029901
  31 H :    0.036834
  32 H :    0.035301
  33 H :    0.029653

  Mayer bond orders larger than 0.100000
B(  0-S ,  1-C ) :   1.1078 B(  0-S ,  4-C ) :   1.1527 B(  1-C ,  2-C ) :   1.6088
B(  1-C , 32-H ) :   0.9581 B(  2-C ,  3-C ) :   1.2370 B(  2-C ,  6-C ) :   1.0098
B(  3-C ,  4-C ) :   1.5903 B(  3-C ,  5-H ) :   0.9858 B(  4-C , 20-C ) :   1.0320
B(  6-C ,  7-H ) :   0.9289 B(  6-C ,  8-H ) :   0.9367 B(  6-C ,  9-C ) :   1.0828
B(  9-C , 10-H ) :   0.9545 B(  9-C , 11-H ) :   0.9523 B(  9-C , 12-C ) :   1.0774
B( 12-C , 13-H ) :   0.9739 B( 12-C , 14-H ) :   0.9772 B( 12-C , 15-H ) :   0.9729
B( 16-S , 17-C ) :   1.1900 B( 16-S , 20-C ) :   1.1759 B( 17-C , 18-C ) :   1.5939
B( 17-C , 20-C ) :   0.1021 B( 17-C , 33-H ) :   0.9565 B( 18-C , 19-C ) :   1.2646
B( 18-C , 21-H ) :   0.9949 B( 19-C , 20-C ) :   1.5430 B( 19-C , 22-C ) :   1.0447
B( 22-C , 23-H ) :   0.9208 B( 22-C , 24-H ) :   0.9420 B( 22-C , 25-C ) :   1.0551
B( 25-C , 26-H ) :   0.9570 B( 25-C , 27-H ) :   0.9480 B( 25-C , 28-C ) :   1.0768
B( 28-C , 29-H ) :   0.9743 B( 28-C , 30-H ) :   0.9740 B( 28-C , 31-H ) :   0.9719

Dispersion correction           -0.013804326
FINAL SINGLE POINT ENERGY     -1339.852550482206

DIPOLE MOMENT
-------------
                                X             Y             Z
Electronic contribution:    -20.48981      17.80551      10.68715
Nuclear contribution   :     21.03688     -17.98816     -10.97664
                        -----------------------------------------
Total Dipole Moment    :      0.54707      -0.18264      -0.28949
                        -----------------------------------------
Magnitude (a.u.)       :      0.64533
Magnitude (Debye)      :      1.64030

Rotational constants in cm-1:     0.018484     0.008350     0.006237
Rotational constants in MHz :   554.150910   250.338845   186.965711

                             ****ORCA TERMINATED NORMALLY****
TOTAL RUN TIME: 0 days 0 hours 0 minutes 33 seconds 445 msec
