                         Program Version 4.2.1 -  RELEASE  -
|  1> ! wB97X-D3 SP def2-SVP
|  2> %pal
|  3> nprocs 16
|  4> end
|  5>
|  6> * xyz 0 1
|  7> S 	 -113.147 	 54.179 	 111.309
|  8> C 	 -113.261 	 52.3874 	 111.041
|  9> C 	 -113.015 	 51.6524 	 112.229
| 10> C 	 -112.811 	 52.5685 	 113.345
| 11> C 	 -112.947 	 53.8725 	 113.041
| 12> H 	 -112.635 	 52.2192 	 114.409
| 13> C 	 -112.864 	 50.1594 	 112.371
| 14> H 	 -112.495 	 49.8962 	 113.357
| 15> H 	 -112.118 	 49.9592 	 111.678
| 16> C 	 -114.051 	 49.245 	 112.025
| 17> H 	 -114.843 	 49.2873 	 112.863
| 18> H 	 -114.435 	 49.6258 	 111.077
| 19> C 	 -113.579 	 47.7634 	 111.853
| 20> H 	 -113.411 	 47.3519 	 112.883
| 21> H 	 -114.292 	 47.0971 	 111.4
| 22> H 	 -112.71 	 47.5622 	 111.275
| 23> S 	 -111.655 	 56.2435 	 113.583
| 24> C 	 -112.062 	 57.196 	 114.975
| 25> C 	 -112.908 	 56.4749 	 115.781
| 26> C 	 -113.379 	 55.2832 	 115.197
| 27> C 	 -112.767 	 54.9808 	 113.98
| 28> H 	 -113.216 	 56.9108 	 116.759
| 29> C 	 -114.443 	 54.4053 	 115.893
| 30> H 	 -115.011 	 53.777 	 115.193
| 31> H 	 -115.311 	 54.8701 	 116.348
| 32> C 	 -113.737 	 53.6532 	 117.034
| 33> H 	 -113.274 	 54.3786 	 117.722
| 34> H 	 -112.981 	 53.0238 	 116.659
| 35> C 	 -114.75 	 52.9044 	 117.884
| 36> H 	 -115.505 	 52.2967 	 117.336
| 37> H 	 -115.402 	 53.6204 	 118.378
| 38> H 	 -114.417 	 52.2001 	 118.655
| 39> H 	 -113.321 	 51.7534 	 110.136
| 40> H 	 -111.575 	 58.1358 	 115.19
| 41> *
| 42>
| 43>                          ****END OF INPUT****

CARTESIAN COORDINATES (ANGSTROEM)
---------------------------------
  S    -113.147000   54.179000  111.309000
  C    -113.261000   52.387400  111.041000
  C    -113.015000   51.652400  112.229000
  C    -112.811000   52.568500  113.345000
  C    -112.947000   53.872500  113.041000
  H    -112.635000   52.219200  114.409000
  C    -112.864000   50.159400  112.371000
  H    -112.495000   49.896200  113.357000
  H    -112.118000   49.959200  111.678000
  C    -114.051000   49.245000  112.025000
  H    -114.843000   49.287300  112.863000
  H    -114.435000   49.625800  111.077000
  C    -113.579000   47.763400  111.853000
  H    -113.411000   47.351900  112.883000
  H    -114.292000   47.097100  111.400000
  H    -112.710000   47.562200  111.275000
  S    -111.655000   56.243500  113.583000
  C    -112.062000   57.196000  114.975000
  C    -112.908000   56.474900  115.781000
  C    -113.379000   55.283200  115.197000
  C    -112.767000   54.980800  113.980000
  H    -113.216000   56.910800  116.759000
  C    -114.443000   54.405300  115.893000
  H    -115.011000   53.777000  115.193000
  H    -115.311000   54.870100  116.348000
  C    -113.737000   53.653200  117.034000
  H    -113.274000   54.378600  117.722000
  H    -112.981000   53.023800  116.659000
  C    -114.750000   52.904400  117.884000
  H    -115.505000   52.296700  117.336000
  H    -115.402000   53.620400  118.378000
  H    -114.417000   52.200100  118.655000
  H    -113.321000   51.753400  110.136000
  H    -111.575000   58.135800  115.190000

 Total Charge           Charge          ....    0
 Multiplicity           Mult            ....    1
 Number of Electrons    NEL             ....  134
 Basis Dimension        Dim             ....  322

ORBITAL ENERGIES
----------------

  NO   OCC          E(Eh)            E(eV)
   0   2.0000     -88.972683     -2421.0698
   1   2.0000     -88.963223     -2420.8124
   2   2.0000     -10.329267      -281.0736
   3   2.0000     -10.325994      -280.9846
   4   2.0000     -10.322897      -280.9003
   5   2.0000     -10.315425      -280.6970
   6   2.0000     -10.307289      -280.4756
   7   2.0000     -10.304773      -280.4071
   8   2.0000     -10.300569      -280.2927
   9   2.0000     -10.297449      -280.2078
  10   2.0000     -10.295080      -280.1434
  11   2.0000     -10.292299      -280.0677
  12   2.0000     -10.288561      -279.9660
  13   2.0000     -10.284775      -279.8630
  14   2.0000     -10.281679      -279.7787
  15   2.0000     -10.277706      -279.6706
  16   2.0000      -8.085532      -220.0185
  17   2.0000      -8.078777      -219.8347
  18   2.0000      -6.044387      -164.4761
  19   2.0000      -6.040495      -164.3702
  20   2.0000      -6.037157      -164.2794
  21   2.0000      -6.035820      -164.2430
  22   2.0000      -6.033049      -164.1676
  23   2.0000      -6.029737      -164.0775
  24   2.0000      -1.008113       -27.4321
  25   2.0000      -0.979818       -26.6622
  26   2.0000      -0.913398       -24.8548
  27   2.0000      -0.910987       -24.7892
  28   2.0000      -0.866691       -23.5839
  29   2.0000      -0.849740       -23.1226
  30   2.0000      -0.843533       -22.9537
  31   2.0000      -0.814825       -22.1725
  32   2.0000      -0.782188       -21.2844
  33   2.0000      -0.771416       -20.9913
  34   2.0000      -0.707682       -19.2570
  35   2.0000      -0.705001       -19.1841
  36   2.0000      -0.698367       -19.0035
  37   2.0000      -0.660441       -17.9715
  38   2.0000      -0.632673       -17.2159
  39   2.0000      -0.615102       -16.7378
  40   2.0000      -0.602184       -16.3862
  41   2.0000      -0.577195       -15.7063
  42   2.0000      -0.565015       -15.3748
  43   2.0000      -0.557820       -15.1791
  44   2.0000      -0.522929       -14.2296
  45   2.0000      -0.519336       -14.1318
  46   2.0000      -0.515117       -14.0171
  47   2.0000      -0.512300       -13.9404
  48   2.0000      -0.506791       -13.7905
  49   2.0000      -0.500131       -13.6093
  50   2.0000      -0.493488       -13.4285
  51   2.0000      -0.475622       -12.9423
  52   2.0000      -0.467312       -12.7162
  53   2.0000      -0.465879       -12.6772
  54   2.0000      -0.454422       -12.3655
  55   2.0000      -0.449442       -12.2299
  56   2.0000      -0.445275       -12.1165
  57   2.0000      -0.437239       -11.8979
  58   2.0000      -0.432811       -11.7774
  59   2.0000      -0.427467       -11.6320
  60   2.0000      -0.424322       -11.5464
  61   2.0000      -0.418089       -11.3768
  62   2.0000      -0.417064       -11.3489
  63   2.0000      -0.346273        -9.4226
  64   2.0000      -0.330865        -9.0033
  65   2.0000      -0.329831        -8.9751
  66   2.0000      -0.294218        -8.0061
  67   0.0000       0.030215         0.8222
  68   0.0000       0.068212         1.8562
  69   0.0000       0.100344         2.7305
  70   0.0000       0.127705         3.4750
  71   0.0000       0.131782         3.5860

MULLIKEN ATOMIC CHARGES
-----------------------
   0 S :    0.118181
   1 C :   -0.117964
   2 C :   -0.111443
   3 C :    0.006211
   4 C :   -0.125027
   5 H :    0.032057
   6 C :    0.091938
   7 H :    0.016243
   8 H :    0.017728
   9 C :   -0.083278
  10 H :    0.052374
  11 H :    0.026993
  12 C :   -0.058431
  13 H :    0.034215
  14 H :    0.030993
  15 H :    0.024613
  16 S :    0.101619
  17 C :   -0.099909
  18 C :   -0.040810
  19 C :   -0.016491
  20 C :   -0.162900
  21 H :    0.033481
  22 C :    0.047761
  23 H :    0.030352
  24 H :    0.013007
  25 C :   -0.047921
  26 H :    0.034328
  27 H :    0.020347
  28 C :   -0.055200
  29 H :    0.019411
  30 H :    0.019135
  31 H :    0.036646
  32 H :    0.051027
  33 H :    0.060717
Sum of atomic charges:    0.0000000

LOEWDIN ATOMIC CHARGES
----------------------
   0 S :    0.379314
   1 C :   -0.197260
   2 C :   -0.052838
   3 C :   -0.065960
   4 C :   -0.187131
   5 H :    0.041620
   6 C :   -0.032595
   7 H :    0.028799
   8 H :    0.027622
   9 C :   -0.034462
  10 H :    0.036217
  11 H :    0.019855
  12 C :   -0.071737
  13 H :    0.031279
  14 H :    0.025242
  15 H :    0.019832
  16 S :    0.419478
  17 C :   -0.188759
  18 C :   -0.076409
  19 C :   -0.055583
  20 C :   -0.206028
  21 H :    0.038539
  22 C :   -0.030895
  23 H :    0.032348
  24 H :    0.027937
  25 C :   -0.033547
  26 H :    0.030308
  27 H :    0.013267
  28 C :   -0.076994
  29 H :    0.024440
  30 H :    0.022853
  31 H :    0.026493
  32 H :    0.034761
  33 H :    0.029995

  Mayer bond orders larger than 0.100000
B(  0-S ,  1-C ) :   1.1086 B(  0-S ,  4-C ) :   1.1188 B(  1-C ,  2-C ) :   1.6474
B(  1-C , 32-H ) :   0.9575 B(  2-C ,  3-C ) :   1.2163 B(  2-C ,  6-C ) :   1.0144
B(  3-C ,  4-C ) :   1.6212 B(  3-C ,  5-H ) :   0.9794 B(  4-C , 20-C ) :   1.0279
B(  6-C ,  7-H ) :   0.9441 B(  6-C ,  8-H ) :   0.9312 B(  6-C ,  9-C ) :   1.0618
B(  9-C , 10-H ) :   0.9580 B(  9-C , 11-H ) :   0.9586 B(  9-C , 12-C ) :   1.0692
B( 12-C , 13-H ) :   0.9766 B( 12-C , 14-H ) :   0.9756 B( 12-C , 15-H ) :   0.9775
B( 16-S , 17-C ) :   1.1667 B( 16-S , 20-C ) :   1.1582 B( 17-C , 18-C ) :   1.5806
B( 17-C , 20-C ) :   0.1025 B( 17-C , 33-H ) :   0.9711 B( 18-C , 19-C ) :   1.2658
B( 18-C , 21-H ) :   0.9845 B( 19-C , 20-C ) :   1.5787 B( 19-C , 22-C ) :   1.0346
B( 22-C , 23-H ) :   0.9373 B( 22-C , 24-H ) :   0.9456 B( 22-C , 25-C ) :   1.0463
B( 25-C , 26-H ) :   0.9574 B( 25-C , 27-H ) :   0.9566 B( 25-C , 28-C ) :   1.0740
B( 28-C , 29-H ) :   0.9724 B( 28-C , 30-H ) :   0.9720 B( 28-C , 31-H ) :   0.9750

Dispersion correction           -0.013750924
FINAL SINGLE POINT ENERGY     -1339.871102980512

DIPOLE MOMENT
-------------
                                X             Y             Z
Electronic contribution:     10.10554      26.99725     -13.92024
Nuclear contribution   :    -10.19762     -27.53635      14.37326
                        -----------------------------------------
Total Dipole Moment    :     -0.09208      -0.53910       0.45301
                        -----------------------------------------
Magnitude (a.u.)       :      0.71016
Magnitude (Debye)      :      1.80508

Rotational constants in cm-1:     0.018385     0.008279     0.006052
Rotational constants in MHz :   551.160011   248.187410   181.444756

                             ****ORCA TERMINATED NORMALLY****
TOTAL RUN TIME: 0 days 0 hours 0 minutes 32 seconds 848 msec
