                         Program Version 4.2.1 -  RELEASE  -
|  1> ! wB97X-D3 SP def2-SVP
|  2> %pal
|  3> nprocs 16
|  4> end
|  5>
|  6> * xyz 0 1
|  7> S 	 -68.8924 	 38.5848 	 134.742
|  8> C 	 -68.8803 	 38.6685 	 132.935
|  9> C 	 -68.649 	 37.4103 	 132.344
| 10> C 	 -68.6022 	 36.3721 	 133.347
| 11> C 	 -68.7314 	 36.833 	 134.656
| 12> H 	 -68.462 	 35.3206 	 133.113
| 13> C 	 -68.2929 	 37.1872 	 130.842
| 14> H 	 -69.0357 	 37.7574 	 130.268
| 15> H 	 -68.485 	 36.1786 	 130.573
| 16> C 	 -66.8169 	 37.4739 	 130.47
| 17> H 	 -66.8533 	 37.3487 	 129.437
| 18> H 	 -66.5753 	 38.5937 	 130.59
| 19> C 	 -65.71 	 36.6209 	 131.041
| 20> H 	 -65.858 	 36.6517 	 132.153
| 21> H 	 -65.8173 	 35.5361 	 130.767
| 22> H 	 -64.6346 	 36.9439 	 130.79
| 23> S 	 -67.2837 	 36.6119 	 136.901
| 24> C 	 -67.6127 	 35.3108 	 138.047
| 25> C 	 -68.5888 	 34.4962 	 137.56
| 26> C 	 -69.1206 	 34.8516 	 136.294
| 27> C 	 -68.5511 	 36.0314 	 135.838
| 28> H 	 -68.7873 	 33.6142 	 138.157
| 29> C 	 -70.2592 	 34.0707 	 135.702
| 30> H 	 -70.69 	 34.6441 	 134.96
| 31> H 	 -71.0054 	 33.7938 	 136.322
| 32> C 	 -69.7383 	 32.8196 	 134.872
| 33> H 	 -69.0921 	 33.2104 	 134.109
| 34> H 	 -70.5701 	 32.2281 	 134.329
| 35> C 	 -68.9912 	 31.8992 	 135.881
| 36> H 	 -67.942 	 32.3166 	 136.13
| 37> H 	 -68.9376 	 30.8828 	 135.531
| 38> H 	 -69.5702 	 31.808 	 136.739
| 39> H 	 -68.9043 	 39.6011 	 132.375
| 40> H 	 -67.1898 	 35.1346 	 139.03
| 41> *
| 42>
| 43>                          ****END OF INPUT****

CARTESIAN COORDINATES (ANGSTROEM)
---------------------------------
  S    -68.892400   38.584800  134.742000
  C    -68.880300   38.668500  132.935000
  C    -68.649000   37.410300  132.344000
  C    -68.602200   36.372100  133.347000
  C    -68.731400   36.833000  134.656000
  H    -68.462000   35.320600  133.113000
  C    -68.292900   37.187200  130.842000
  H    -69.035700   37.757400  130.268000
  H    -68.485000   36.178600  130.573000
  C    -66.816900   37.473900  130.470000
  H    -66.853300   37.348700  129.437000
  H    -66.575300   38.593700  130.590000
  C    -65.710000   36.620900  131.041000
  H    -65.858000   36.651700  132.153000
  H    -65.817300   35.536100  130.767000
  H    -64.634600   36.943900  130.790000
  S    -67.283700   36.611900  136.901000
  C    -67.612700   35.310800  138.047000
  C    -68.588800   34.496200  137.560000
  C    -69.120600   34.851600  136.294000
  C    -68.551100   36.031400  135.838000
  H    -68.787300   33.614200  138.157000
  C    -70.259200   34.070700  135.702000
  H    -70.690000   34.644100  134.960000
  H    -71.005400   33.793800  136.322000
  C    -69.738300   32.819600  134.872000
  H    -69.092100   33.210400  134.109000
  H    -70.570100   32.228100  134.329000
  C    -68.991200   31.899200  135.881000
  H    -67.942000   32.316600  136.130000
  H    -68.937600   30.882800  135.531000
  H    -69.570200   31.808000  136.739000
  H    -68.904300   39.601100  132.375000
  H    -67.189800   35.134600  139.030000

 Total Charge           Charge          ....    0
 Multiplicity           Mult            ....    1
 Number of Electrons    NEL             ....  134
 Basis Dimension        Dim             ....  322

ORBITAL ENERGIES
----------------

  NO   OCC          E(Eh)            E(eV)
   0   2.0000     -88.971214     -2421.0298
   1   2.0000     -88.963930     -2420.8316
   2   2.0000     -10.331278      -281.1284
   3   2.0000     -10.326285      -280.9925
   4   2.0000     -10.321947      -280.8744
   5   2.0000     -10.312961      -280.6299
   6   2.0000     -10.309083      -280.5244
   7   2.0000     -10.302193      -280.3369
   8   2.0000     -10.299463      -280.2626
   9   2.0000     -10.298958      -280.2489
  10   2.0000     -10.294457      -280.1264
  11   2.0000     -10.289617      -279.9947
  12   2.0000     -10.289368      -279.9879
  13   2.0000     -10.287202      -279.9290
  14   2.0000     -10.277392      -279.6620
  15   2.0000     -10.274959      -279.5958
  16   2.0000      -8.084553      -219.9919
  17   2.0000      -8.078518      -219.8277
  18   2.0000      -6.043170      -164.4430
  19   2.0000      -6.039349      -164.3390
  20   2.0000      -6.037095      -164.2777
  21   2.0000      -6.035188      -164.2258
  22   2.0000      -6.033057      -164.1678
  23   2.0000      -6.029190      -164.0626
  24   2.0000      -1.005330       -27.3564
  25   2.0000      -0.976417       -26.5697
  26   2.0000      -0.910387       -24.7729
  27   2.0000      -0.907386       -24.6912
  28   2.0000      -0.869062       -23.6484
  29   2.0000      -0.845562       -23.0089
  30   2.0000      -0.839678       -22.8488
  31   2.0000      -0.813227       -22.1290
  32   2.0000      -0.786435       -21.4000
  33   2.0000      -0.774538       -21.0762
  34   2.0000      -0.707923       -19.2636
  35   2.0000      -0.698231       -18.9998
  36   2.0000      -0.693653       -18.8753
  37   2.0000      -0.660363       -17.9694
  38   2.0000      -0.636882       -17.3304
  39   2.0000      -0.614705       -16.7270
  40   2.0000      -0.598897       -16.2968
  41   2.0000      -0.570848       -15.5336
  42   2.0000      -0.555401       -15.1132
  43   2.0000      -0.548217       -14.9178
  44   2.0000      -0.538909       -14.6645
  45   2.0000      -0.537822       -14.6349
  46   2.0000      -0.512800       -13.9540
  47   2.0000      -0.508393       -13.8341
  48   2.0000      -0.498407       -13.5623
  49   2.0000      -0.495010       -13.4699
  50   2.0000      -0.489607       -13.3229
  51   2.0000      -0.481247       -13.0954
  52   2.0000      -0.474694       -12.9171
  53   2.0000      -0.464570       -12.6416
  54   2.0000      -0.459500       -12.5036
  55   2.0000      -0.447405       -12.1745
  56   2.0000      -0.442354       -12.0371
  57   2.0000      -0.438498       -11.9321
  58   2.0000      -0.430954       -11.7269
  59   2.0000      -0.423981       -11.5371
  60   2.0000      -0.419469       -11.4143
  61   2.0000      -0.414516       -11.2796
  62   2.0000      -0.410346       -11.1661
  63   2.0000      -0.344765        -9.3815
  64   2.0000      -0.334004        -9.0887
  65   2.0000      -0.328944        -8.9510
  66   2.0000      -0.291311        -7.9270
  67   0.0000       0.026769         0.7284
  68   0.0000       0.067150         1.8273
  69   0.0000       0.106771         2.9054
  70   0.0000       0.123661         3.3650
  71   0.0000       0.127667         3.4740

MULLIKEN ATOMIC CHARGES
-----------------------
   0 S :    0.112846
   1 C :   -0.127799
   2 C :   -0.108696
   3 C :    0.036427
   4 C :   -0.151385
   5 H :    0.008482
   6 C :    0.080349
   7 H :    0.035119
   8 H :    0.006577
   9 C :   -0.054070
  10 H :    0.015902
  11 H :    0.036491
  12 C :   -0.091549
  13 H :    0.050708
  14 H :    0.033274
  15 H :    0.058838
  16 S :    0.100646
  17 C :   -0.089147
  18 C :   -0.051372
  19 C :   -0.029429
  20 C :   -0.160529
  21 H :    0.018591
  22 C :    0.154053
  23 H :   -0.004606
  24 H :    0.008708
  25 C :   -0.112945
  26 H :    0.023563
  27 H :    0.044807
  28 C :   -0.053424
  29 H :    0.068706
  30 H :    0.025075
  31 H :    0.011148
  32 H :    0.052822
  33 H :    0.051816
Sum of atomic charges:   -0.0000000

LOEWDIN ATOMIC CHARGES
----------------------
   0 S :    0.385741
   1 C :   -0.183526
   2 C :   -0.060174
   3 C :   -0.062257
   4 C :   -0.195278
   5 H :    0.029139
   6 C :   -0.024258
   7 H :    0.037397
   8 H :    0.022824
   9 C :   -0.045536
  10 H :    0.014929
  11 H :    0.031934
  12 C :   -0.079747
  13 H :    0.032977
  14 H :    0.026956
  15 H :    0.040375
  16 S :    0.396029
  17 C :   -0.186797
  18 C :   -0.070609
  19 C :   -0.054917
  20 C :   -0.189289
  21 H :    0.032130
  22 C :   -0.013130
  23 H :    0.021765
  24 H :    0.015574
  25 C :   -0.032148
  26 H :    0.014207
  27 H :    0.031292
  28 C :   -0.070444
  29 H :    0.042225
  30 H :    0.021157
  31 H :    0.010933
  32 H :    0.027675
  33 H :    0.032852

  Mayer bond orders larger than 0.100000
B(  0-S ,  1-C ) :   1.1252 B(  0-S ,  4-C ) :   1.1444 B(  1-C ,  2-C ) :   1.6159
B(  1-C , 32-H ) :   0.9677 B(  2-C ,  3-C ) :   1.2419 B(  2-C ,  6-C ) :   1.0165
B(  3-C ,  4-C ) :   1.5624 B(  3-C ,  5-H ) :   0.9912 B(  4-C , 20-C ) :   1.0446
B(  6-C ,  7-H ) :   0.9398 B(  6-C ,  8-H ) :   0.9393 B(  6-C ,  9-C ) :   1.0669
B(  9-C , 10-H ) :   0.9522 B(  9-C , 11-H ) :   0.9547 B(  9-C , 12-C ) :   1.0730
B( 12-C , 13-H ) :   0.9745 B( 12-C , 14-H ) :   0.9714 B( 12-C , 15-H ) :   0.9712
B( 16-S , 17-C ) :   1.1267 B( 16-S , 20-C ) :   1.1476 B( 17-C , 18-C ) :   1.6508
B( 17-C , 33-H ) :   0.9639 B( 18-C , 19-C ) :   1.2122 B( 18-C , 21-H ) :   0.9850
B( 19-C , 20-C ) :   1.6047 B( 19-C , 22-C ) :   1.0502 B( 22-C , 23-H ) :   0.9160
B( 22-C , 24-H ) :   0.9465 B( 22-C , 25-C ) :   1.0623 B( 25-C , 26-H ) :   0.9574
B( 25-C , 27-H ) :   0.9588 B( 25-C , 28-C ) :   1.0773 B( 28-C , 29-H ) :   0.9658
B( 28-C , 30-H ) :   0.9713 B( 28-C , 31-H ) :   0.9738

Dispersion correction           -0.015061189
FINAL SINGLE POINT ENERGY     -1339.862832535571

DIPOLE MOMENT
-------------
                                X             Y             Z
Electronic contribution:     -1.87907      17.61746      16.38635
Nuclear contribution   :      1.82868     -18.09407     -16.81373
                        -----------------------------------------
Total Dipole Moment    :     -0.05038      -0.47661      -0.42738
                        -----------------------------------------
Magnitude (a.u.)       :      0.64215
Magnitude (Debye)      :      1.63221

Rotational constants in cm-1:     0.019245     0.008757     0.007387
Rotational constants in MHz :   576.939211   262.531555   221.454403

                             ****ORCA TERMINATED NORMALLY****
TOTAL RUN TIME: 0 days 0 hours 0 minutes 36 seconds 422 msec
