                         Program Version 4.2.1 -  RELEASE  -
|  1> ! wB97X-D3 SP def2-SVP
|  2> %pal
|  3> nprocs 16
|  4> end
|  5>
|  6> * xyz 0 1
|  7> S 	 2.53908 	 -23.4847 	 86.8675
|  8> C 	 1.81015 	 -22.5951 	 85.4995
|  9> C 	 2.10745 	 -21.2786 	 85.5338
| 10> C 	 3.10969 	 -20.9739 	 86.5507
| 11> C 	 3.39931 	 -22.0712 	 87.404
| 12> H 	 3.61741 	 -20.0511 	 86.7556
| 13> C 	 1.47775 	 -20.1746 	 84.7024
| 14> H 	 1.06749 	 -19.4092 	 85.3441
| 15> H 	 0.610579 	 -20.4553 	 84.136
| 16> C 	 2.41974 	 -19.4512 	 83.7767
| 17> H 	 1.81061 	 -18.7641 	 83.1584
| 18> H 	 3.09422 	 -18.7505 	 84.3214
| 19> C 	 3.17875 	 -20.414 	 82.8874
| 20> H 	 3.42429 	 -19.9271 	 81.9103
| 21> H 	 4.08755 	 -20.7642 	 83.3109
| 22> H 	 2.49899 	 -21.3007 	 82.7083
| 23> S 	 3.99406 	 -22.1426 	 90.1748
| 24> C 	 5.64303 	 -21.8039 	 90.6455
| 25> C 	 6.4462 	 -21.6703 	 89.559
| 26> C 	 5.8049 	 -21.7495 	 88.262
| 27> C 	 4.40617 	 -22.0021 	 88.4623
| 28> H 	 7.48609 	 -21.5017 	 89.7692
| 29> C 	 6.55112 	 -21.5298 	 86.9474
| 30> H 	 5.89654 	 -21.0172 	 86.2249
| 31> H 	 6.97301 	 -22.4173 	 86.4087
| 32> C 	 7.70621 	 -20.5458 	 87.0335
| 33> H 	 8.38106 	 -20.9918 	 87.7007
| 34> H 	 7.32698 	 -19.5811 	 87.476
| 35> C 	 8.47296 	 -20.192 	 85.7501
| 36> H 	 8.20713 	 -19.1803 	 85.5125
| 37> H 	 8.2998 	 -21.0322 	 85.0467
| 38> H 	 9.56924 	 -20.0482 	 86.0119
| 39> H 	 1.15909 	 -22.9822 	 84.7664
| 40> H 	 5.90695 	 -21.6805 	 91.6734
| 41> *
| 42>
| 43>                          ****END OF INPUT****

CARTESIAN COORDINATES (ANGSTROEM)
---------------------------------
  S      2.539080  -23.484700   86.867500
  C      1.810150  -22.595100   85.499500
  C      2.107450  -21.278600   85.533800
  C      3.109690  -20.973900   86.550700
  C      3.399310  -22.071200   87.404000
  H      3.617410  -20.051100   86.755600
  C      1.477750  -20.174600   84.702400
  H      1.067490  -19.409200   85.344100
  H      0.610579  -20.455300   84.136000
  C      2.419740  -19.451200   83.776700
  H      1.810610  -18.764100   83.158400
  H      3.094220  -18.750500   84.321400
  C      3.178750  -20.414000   82.887400
  H      3.424290  -19.927100   81.910300
  H      4.087550  -20.764200   83.310900
  H      2.498990  -21.300700   82.708300
  S      3.994060  -22.142600   90.174800
  C      5.643030  -21.803900   90.645500
  C      6.446200  -21.670300   89.559000
  C      5.804900  -21.749500   88.262000
  C      4.406170  -22.002100   88.462300
  H      7.486090  -21.501700   89.769200
  C      6.551120  -21.529800   86.947400
  H      5.896540  -21.017200   86.224900
  H      6.973010  -22.417300   86.408700
  C      7.706210  -20.545800   87.033500
  H      8.381060  -20.991800   87.700700
  H      7.326980  -19.581100   87.476000
  C      8.472960  -20.192000   85.750100
  H      8.207130  -19.180300   85.512500
  H      8.299800  -21.032200   85.046700
  H      9.569240  -20.048200   86.011900
  H      1.159090  -22.982200   84.766400
  H      5.906950  -21.680500   91.673400

 Total Charge           Charge          ....    0
 Multiplicity           Mult            ....    1
 Number of Electrons    NEL             ....  134
 Basis Dimension        Dim             ....  322

ORBITAL ENERGIES
----------------

  NO   OCC          E(Eh)            E(eV)
   0   2.0000     -88.967294     -2420.9231
   1   2.0000     -88.966658     -2420.9058
   2   2.0000     -10.334690      -281.2212
   3   2.0000     -10.331191      -281.1260
   4   2.0000     -10.315303      -280.6937
   5   2.0000     -10.315258      -280.6924
   6   2.0000     -10.311316      -280.5852
   7   2.0000     -10.302538      -280.3463
   8   2.0000     -10.297044      -280.1968
   9   2.0000     -10.296272      -280.1758
  10   2.0000     -10.293566      -280.1022
  11   2.0000     -10.288204      -279.9563
  12   2.0000     -10.286285      -279.9040
  13   2.0000     -10.285031      -279.8699
  14   2.0000     -10.280416      -279.7443
  15   2.0000     -10.277014      -279.6518
  16   2.0000      -8.081861      -219.9186
  17   2.0000      -8.080799      -219.8897
  18   2.0000      -6.040356      -164.3664
  19   2.0000      -6.039450      -164.3418
  20   2.0000      -6.036343      -164.2572
  21   2.0000      -6.035396      -164.2315
  22   2.0000      -6.032700      -164.1581
  23   2.0000      -6.031428      -164.1235
  24   2.0000      -1.000119       -27.2146
  25   2.0000      -0.980242       -26.6737
  26   2.0000      -0.917561       -24.9681
  27   2.0000      -0.911996       -24.8167
  28   2.0000      -0.870100       -23.6766
  29   2.0000      -0.848448       -23.0874
  30   2.0000      -0.840085       -22.8599
  31   2.0000      -0.811487       -22.0817
  32   2.0000      -0.786862       -21.4116
  33   2.0000      -0.776873       -21.1398
  34   2.0000      -0.705871       -19.2077
  35   2.0000      -0.693298       -18.8656
  36   2.0000      -0.691074       -18.8051
  37   2.0000      -0.646678       -17.5970
  38   2.0000      -0.640076       -17.4174
  39   2.0000      -0.620117       -16.8742
  40   2.0000      -0.604857       -16.4590
  41   2.0000      -0.576135       -15.6774
  42   2.0000      -0.569785       -15.5046
  43   2.0000      -0.557605       -15.1732
  44   2.0000      -0.540917       -14.7191
  45   2.0000      -0.529778       -14.4160
  46   2.0000      -0.514242       -13.9932
  47   2.0000      -0.511132       -13.9086
  48   2.0000      -0.502981       -13.6868
  49   2.0000      -0.498048       -13.5526
  50   2.0000      -0.492296       -13.3960
  51   2.0000      -0.476288       -12.9604
  52   2.0000      -0.470015       -12.7898
  53   2.0000      -0.461453       -12.5568
  54   2.0000      -0.457273       -12.4430
  55   2.0000      -0.453498       -12.3403
  56   2.0000      -0.443680       -12.0732
  57   2.0000      -0.434425       -11.8213
  58   2.0000      -0.430403       -11.7119
  59   2.0000      -0.422596       -11.4994
  60   2.0000      -0.421410       -11.4671
  61   2.0000      -0.413167       -11.2429
  62   2.0000      -0.403652       -10.9839
  63   2.0000      -0.340429        -9.2636
  64   2.0000      -0.332412        -9.0454
  65   2.0000      -0.325862        -8.8671
  66   2.0000      -0.299108        -8.1391
  67   0.0000       0.035664         0.9705
  68   0.0000       0.061133         1.6635
  69   0.0000       0.112116         3.0508
  70   0.0000       0.122633         3.3370
  71   0.0000       0.125861         3.4248

MULLIKEN ATOMIC CHARGES
-----------------------
   0 S :    0.112493
   1 C :   -0.111952
   2 C :   -0.059426
   3 C :    0.026741
   4 C :   -0.158631
   5 H :    0.011291
   6 C :    0.086103
   7 H :    0.029337
   8 H :    0.012229
   9 C :   -0.102543
  10 H :    0.025689
  11 H :    0.029476
  12 C :   -0.040995
  13 H :    0.037864
  14 H :    0.034396
  15 H :    0.028015
  16 S :    0.111658
  17 C :   -0.093867
  18 C :   -0.029751
  19 C :   -0.006967
  20 C :   -0.179740
  21 H :    0.017741
  22 C :    0.078000
  23 H :    0.022970
  24 H :    0.046984
  25 C :   -0.148831
  26 H :    0.020612
  27 H :    0.033371
  28 C :   -0.028793
  29 H :    0.031220
  30 H :    0.046823
  31 H :    0.037537
  32 H :    0.027152
  33 H :    0.053792
Sum of atomic charges:    0.0000000

LOEWDIN ATOMIC CHARGES
----------------------
   0 S :    0.395136
   1 C :   -0.179661
   2 C :   -0.058439
   3 C :   -0.053336
   4 C :   -0.200420
   5 H :    0.026288
   6 C :   -0.033023
   7 H :    0.035375
   8 H :    0.026479
   9 C :   -0.048450
  10 H :    0.025877
  11 H :    0.021913
  12 C :   -0.067206
  13 H :    0.030225
  14 H :    0.021137
  15 H :    0.030197
  16 S :    0.402306
  17 C :   -0.180697
  18 C :   -0.070963
  19 C :   -0.044622
  20 C :   -0.197412
  21 H :    0.030088
  22 C :   -0.038479
  23 H :    0.030859
  24 H :    0.037428
  25 C :   -0.049736
  26 H :    0.008388
  27 H :    0.026550
  28 C :   -0.068590
  29 H :    0.025687
  30 H :    0.031487
  31 H :    0.037519
  32 H :    0.021157
  33 H :    0.026938

  Mayer bond orders larger than 0.100000
B(  0-S ,  1-C ) :   1.1173 B(  0-S ,  4-C ) :   1.1445 B(  1-C ,  2-C ) :   1.6539
B(  1-C , 32-H ) :   0.9680 B(  2-C ,  3-C ) :   1.1947 B(  2-C ,  6-C ) :   1.0258
B(  3-C ,  4-C ) :   1.5947 B(  3-C ,  5-H ) :   0.9929 B(  4-C , 20-C ) :   1.0431
B(  6-C ,  7-H ) :   0.9361 B(  6-C ,  8-H ) :   0.9396 B(  6-C ,  9-C ) :   1.0846
B(  9-C , 10-H ) :   0.9560 B(  9-C , 11-H ) :   0.9538 B(  9-C , 12-C ) :   1.0722
B( 12-C , 13-H ) :   0.9742 B( 12-C , 14-H ) :   0.9698 B( 12-C , 15-H ) :   0.9764
B( 16-S , 17-C ) :   1.1460 B( 16-S , 20-C ) :   1.1578 B( 17-C , 18-C ) :   1.6232
B( 17-C , 33-H ) :   0.9702 B( 18-C , 19-C ) :   1.2308 B( 18-C , 21-H ) :   0.9886
B( 19-C , 20-C ) :   1.5710 B( 19-C , 22-C ) :   1.0408 B( 22-C , 23-H ) :   0.9359
B( 22-C , 24-H ) :   0.9245 B( 22-C , 25-C ) :   1.0727 B( 25-C , 26-H ) :   0.9523
B( 25-C , 27-H ) :   0.9635 B( 25-C , 28-C ) :   1.0696 B( 28-C , 29-H ) :   0.9775
B( 28-C , 30-H ) :   0.9730 B( 28-C , 31-H ) :   0.9756

Dispersion correction           -0.014449909
FINAL SINGLE POINT ENERGY     -1339.870123169057

DIPOLE MOMENT
-------------
                                X             Y             Z
Electronic contribution:    -12.75775     -16.41572      22.98916
Nuclear contribution   :     13.08955      16.98952     -23.30404
                        -----------------------------------------
Total Dipole Moment    :      0.33180       0.57380      -0.31488
                        -----------------------------------------
Magnitude (a.u.)       :      0.73381
Magnitude (Debye)      :      1.86521

Rotational constants in cm-1:     0.016197     0.009753     0.006860
Rotational constants in MHz :   485.570481   292.387976   205.668461

                             ****ORCA TERMINATED NORMALLY****
TOTAL RUN TIME: 0 days 0 hours 0 minutes 34 seconds 351 msec
