                         Program Version 4.2.1 -  RELEASE  -
|  1> ! wB97X-D3 SP def2-SVP
|  2> %pal
|  3> nprocs 16
|  4> end
|  5>
|  6> * xyz 0 1
|  7> S 	 -0.0547932 	 8.70823 	 80.5019
|  8> C 	 -0.0182145 	 7.93935 	 78.9199
|  9> C 	 -1.24325 	 7.6335 	 78.5171
| 10> C 	 -2.25583 	 7.87849 	 79.4617
| 11> C 	 -1.71641 	 8.30275 	 80.6527
| 12> H 	 -3.3022 	 7.89817 	 79.2917
| 13> C 	 -1.68219 	 7.07384 	 77.2206
| 14> H 	 -1.20741 	 7.51766 	 76.4197
| 15> H 	 -2.66995 	 7.2554 	 77.0994
| 16> C 	 -1.37003 	 5.64781 	 77.0984
| 17> H 	 -1.60601 	 5.32264 	 76.0786
| 18> H 	 -0.300135 	 5.4353 	 77.2056
| 19> C 	 -2.04685 	 4.59957 	 78.0632
| 20> H 	 -3.15029 	 4.59308 	 78.0505
| 21> H 	 -1.62655 	 3.61408 	 77.9213
| 22> H 	 -1.72292 	 4.78769 	 79.0784
| 23> S 	 -2.19116 	 10.5219 	 82.2621
| 24> C 	 -3.77992 	 10.6596 	 82.9038
| 25> C 	 -4.42892 	 9.476 	 83.0657
| 26> C 	 -3.70234 	 8.4311 	 82.3107
| 27> C 	 -2.53776 	 8.90076 	 81.6858
| 28> H 	 -5.40464 	 9.37933 	 83.6159
| 29> C 	 -4.0223 	 6.97847 	 82.2581
| 30> H 	 -4.28805 	 6.73822 	 83.2606
| 31> H 	 -3.01148 	 6.41114 	 82.0929
| 32> C 	 -5.14266 	 6.46622 	 81.2648
| 33> H 	 -5.08185 	 7.16761 	 80.3822
| 34> H 	 -6.14373 	 6.47956 	 81.7853
| 35> C 	 -4.77064 	 5.06283 	 80.7338
| 36> H 	 -3.6934 	 4.89488 	 80.5008
| 37> H 	 -5.36115 	 4.98266 	 79.8048
| 38> H 	 -5.23502 	 4.26729 	 81.3181
| 39> H 	 0.863608 	 7.85297 	 78.3401
| 40> H 	 -4.08243 	 11.428 	 83.5284
| 41> *
| 42>
| 43>                          ****END OF INPUT****

CARTESIAN COORDINATES (ANGSTROEM)
---------------------------------
  S     -0.054793    8.708230   80.501900
  C     -0.018215    7.939350   78.919900
  C     -1.243250    7.633500   78.517100
  C     -2.255830    7.878490   79.461700
  C     -1.716410    8.302750   80.652700
  H     -3.302200    7.898170   79.291700
  C     -1.682190    7.073840   77.220600
  H     -1.207410    7.517660   76.419700
  H     -2.669950    7.255400   77.099400
  C     -1.370030    5.647810   77.098400
  H     -1.606010    5.322640   76.078600
  H     -0.300135    5.435300   77.205600
  C     -2.046850    4.599570   78.063200
  H     -3.150290    4.593080   78.050500
  H     -1.626550    3.614080   77.921300
  H     -1.722920    4.787690   79.078400
  S     -2.191160   10.521900   82.262100
  C     -3.779920   10.659600   82.903800
  C     -4.428920    9.476000   83.065700
  C     -3.702340    8.431100   82.310700
  C     -2.537760    8.900760   81.685800
  H     -5.404640    9.379330   83.615900
  C     -4.022300    6.978470   82.258100
  H     -4.288050    6.738220   83.260600
  H     -3.011480    6.411140   82.092900
  C     -5.142660    6.466220   81.264800
  H     -5.081850    7.167610   80.382200
  H     -6.143730    6.479560   81.785300
  C     -4.770640    5.062830   80.733800
  H     -3.693400    4.894880   80.500800
  H     -5.361150    4.982660   79.804800
  H     -5.235020    4.267290   81.318100
  H      0.863608    7.852970   78.340100
  H     -4.082430   11.428000   83.528400

 Total Charge           Charge          ....    0
 Multiplicity           Mult            ....    1
 Number of Electrons    NEL             ....  134
 Basis Dimension        Dim             ....  322

ORBITAL ENERGIES
----------------

  NO   OCC          E(Eh)            E(eV)
   0   2.0000     -88.966367     -2420.8979
   1   2.0000     -88.960166     -2420.7292
   2   2.0000     -10.325099      -280.9602
   3   2.0000     -10.321946      -280.8744
   4   2.0000     -10.307759      -280.4884
   5   2.0000     -10.305085      -280.4156
   6   2.0000     -10.301799      -280.3262
   7   2.0000     -10.299538      -280.2647
   8   2.0000     -10.297610      -280.2122
   9   2.0000     -10.289506      -279.9917
  10   2.0000     -10.288463      -279.9633
  11   2.0000     -10.287851      -279.9466
  12   2.0000     -10.285285      -279.8768
  13   2.0000     -10.279873      -279.7296
  14   2.0000     -10.276529      -279.6386
  15   2.0000     -10.271579      -279.5039
  16   2.0000      -8.081918      -219.9202
  17   2.0000      -8.075753      -219.7524
  18   2.0000      -6.040391      -164.3674
  19   2.0000      -6.036558      -164.2631
  20   2.0000      -6.034298      -164.2016
  21   2.0000      -6.032426      -164.1507
  22   2.0000      -6.030409      -164.0958
  23   2.0000      -6.026161      -163.9802
  24   2.0000      -1.016763       -27.6675
  25   2.0000      -0.988885       -26.9089
  26   2.0000      -0.926765       -25.2186
  27   2.0000      -0.900534       -24.5048
  28   2.0000      -0.872046       -23.7296
  29   2.0000      -0.851815       -23.1791
  30   2.0000      -0.843282       -22.9469
  31   2.0000      -0.819426       -22.2977
  32   2.0000      -0.793282       -21.5863
  33   2.0000      -0.767207       -20.8768
  34   2.0000      -0.711987       -19.3742
  35   2.0000      -0.699796       -19.0424
  36   2.0000      -0.689870       -18.7723
  37   2.0000      -0.661937       -18.0122
  38   2.0000      -0.642862       -17.4932
  39   2.0000      -0.620073       -16.8730
  40   2.0000      -0.588792       -16.0219
  41   2.0000      -0.578984       -15.7550
  42   2.0000      -0.564421       -15.3587
  43   2.0000      -0.558112       -15.1870
  44   2.0000      -0.542995       -14.7757
  45   2.0000      -0.525292       -14.2939
  46   2.0000      -0.516996       -14.0682
  47   2.0000      -0.511041       -13.9061
  48   2.0000      -0.506657       -13.7868
  49   2.0000      -0.494607       -13.4590
  50   2.0000      -0.487283       -13.2596
  51   2.0000      -0.486091       -13.2272
  52   2.0000      -0.469314       -12.7707
  53   2.0000      -0.467225       -12.7138
  54   2.0000      -0.463768       -12.6198
  55   2.0000      -0.451808       -12.2943
  56   2.0000      -0.447545       -12.1783
  57   2.0000      -0.438859       -11.9420
  58   2.0000      -0.424559       -11.5528
  59   2.0000      -0.422221       -11.4892
  60   2.0000      -0.417297       -11.3552
  61   2.0000      -0.411187       -11.1890
  62   2.0000      -0.408771       -11.1232
  63   2.0000      -0.354464        -9.6455
  64   2.0000      -0.334428        -9.1002
  65   2.0000      -0.321849        -8.7580
  66   2.0000      -0.288260        -7.8440
  67   0.0000       0.025679         0.6988
  68   0.0000       0.071636         1.9493
  69   0.0000       0.101552         2.7634
  70   0.0000       0.119121         3.2415
  71   0.0000       0.136889         3.7249

MULLIKEN ATOMIC CHARGES
-----------------------
   0 S :    0.093950
   1 C :   -0.117841
   2 C :   -0.084505
   3 C :    0.004910
   4 C :   -0.100915
   5 H :    0.005309
   6 C :    0.240709
   7 H :   -0.003651
   8 H :   -0.019557
   9 C :   -0.104696
  10 H :    0.022174
  11 H :    0.021807
  12 C :   -0.064928
  13 H :    0.037588
  14 H :    0.027120
  15 H :    0.035456
  16 S :    0.097271
  17 C :   -0.049719
  18 C :   -0.049000
  19 C :   -0.072433
  20 C :   -0.147890
  21 H :    0.044462
  22 C :    0.007908
  23 H :    0.018155
  24 H :    0.052076
  25 C :   -0.081365
  26 H :    0.036911
  27 H :    0.047595
  28 C :   -0.067952
  29 H :    0.050438
  30 H :    0.025702
  31 H :    0.034094
  32 H :    0.027893
  33 H :    0.032925
Sum of atomic charges:   -0.0000000

LOEWDIN ATOMIC CHARGES
----------------------
   0 S :    0.410063
   1 C :   -0.180770
   2 C :   -0.059429
   3 C :   -0.049779
   4 C :   -0.194878
   5 H :    0.027104
   6 C :   -0.017947
   7 H :    0.027285
   8 H :    0.017900
   9 C :   -0.033675
  10 H :    0.021583
  11 H :    0.024503
  12 C :   -0.069599
  13 H :    0.023648
  14 H :    0.027110
  15 H :    0.021312
  16 S :    0.398777
  17 C :   -0.187439
  18 C :   -0.072595
  19 C :   -0.061491
  20 C :   -0.196071
  21 H :    0.043728
  22 C :   -0.047343
  23 H :    0.025217
  24 H :    0.043109
  25 C :   -0.042691
  26 H :    0.022889
  27 H :    0.033125
  28 C :   -0.074718
  29 H :    0.030906
  30 H :    0.026994
  31 H :    0.025823
  32 H :    0.022015
  33 H :    0.015334

  Mayer bond orders larger than 0.100000
B(  0-S ,  1-C ) :   1.1154 B(  0-S ,  4-C ) :   1.1593 B(  1-C ,  2-C ) :   1.6303
B(  1-C , 32-H ) :   0.9773 B(  2-C ,  3-C ) :   1.2368 B(  2-C ,  6-C ) :   1.0247
B(  3-C ,  4-C ) :   1.5442 B(  3-C ,  5-H ) :   1.0010 B(  4-C , 20-C ) :   1.0576
B(  6-C ,  7-H ) :   0.9097 B(  6-C ,  8-H ) :   0.9227 B(  6-C ,  9-C ) :   1.0838
B(  9-C , 10-H ) :   0.9549 B(  9-C , 11-H ) :   0.9559 B(  9-C , 12-C ) :   1.0782
B( 12-C , 13-H ) :   0.9756 B( 12-C , 14-H ) :   0.9694 B( 12-C , 15-H ) :   0.9671
B( 16-S , 17-C ) :   1.1567 B( 16-S , 20-C ) :   1.1129 B( 17-C , 18-C ) :   1.6411
B( 17-C , 33-H ) :   0.9623 B( 18-C , 19-C ) :   1.2085 B( 18-C , 21-H ) :   0.9831
B( 19-C , 20-C ) :   1.6076 B( 19-C , 22-C ) :   1.0571 B( 22-C , 23-H ) :   0.9307
B( 22-C , 24-H ) :   0.9491 B( 22-C , 25-C ) :   1.0261 B( 25-C , 26-H ) :   0.9674
B( 25-C , 27-H ) :   0.9504 B( 25-C , 28-C ) :   1.0765 B( 28-C , 29-H ) :   0.9706
B( 28-C , 30-H ) :   0.9728 B( 28-C , 31-H ) :   0.9731

Dispersion correction           -0.016210181
FINAL SINGLE POINT ENERGY     -1339.846218750120

DIPOLE MOMENT
-------------
                                X             Y             Z
Electronic contribution:     13.09011      25.42010      12.73281
Nuclear contribution   :    -13.47871     -25.79312     -13.06843
                        -----------------------------------------
Total Dipole Moment    :     -0.38860      -0.37302      -0.33562
                        -----------------------------------------
Magnitude (a.u.)       :      0.63466
Magnitude (Debye)      :      1.61317

Rotational constants in cm-1:     0.018982     0.010820     0.007461
Rotational constants in MHz :   569.052005   324.378841   223.661930

                             ****ORCA TERMINATED NORMALLY****
TOTAL RUN TIME: 0 days 0 hours 0 minutes 39 seconds 105 msec
