                         Program Version 4.2.1 -  RELEASE  -
|  1> ! wB97X-D3 SP def2-SVP
|  2> %pal
|  3> nprocs 16
|  4> end
|  5>
|  6> * xyz 0 1
|  7> S 	 -5.13075 	 7.32299 	 82.9959
|  8> C 	 -6.84119 	 7.20014 	 83.1515
|  9> C 	 -7.3992 	 8.33716 	 82.627
| 10> C 	 -6.48755 	 9.31433 	 82.1712
| 11> C 	 -5.15195 	 8.92146 	 82.3669
| 12> H 	 -6.80099 	 10.2664 	 81.8797
| 13> C 	 -8.82794 	 8.43488 	 82.3231
| 14> H 	 -9.01144 	 9.48012 	 82.6062
| 15> H 	 -9.39425 	 7.78274 	 83.0433
| 16> C 	 -9.31074 	 8.09861 	 80.9409
| 17> H 	 -10.397 	 8.008 	 80.8573
| 18> H 	 -9.14001 	 8.97698 	 80.2113
| 19> C 	 -8.81386 	 6.7433 	 80.3712
| 20> H 	 -7.70633 	 6.648 	 80.209
| 21> H 	 -8.9896 	 5.88749 	 80.9745
| 22> H 	 -9.36663 	 6.70455 	 79.4498
| 23> S 	 -2.6867 	 8.84023 	 80.954
| 24> C 	 -1.68086 	 10.3272 	 81.0408
| 25> C 	 -2.30295 	 11.3063 	 81.8083
| 26> C 	 -3.57949 	 10.939 	 82.2801
| 27> C 	 -3.91998 	 9.63658 	 82.0025
| 28> H 	 -1.70091 	 12.1847 	 81.9829
| 29> C 	 -4.33496 	 11.7556 	 83.346
| 30> H 	 -4.4519 	 11.1526 	 84.2408
| 31> H 	 -5.34499 	 11.7138 	 82.9743
| 32> C 	 -3.93376 	 13.2045 	 83.5581
| 33> H 	 -3.82962 	 13.7352 	 82.6159
| 34> H 	 -3.01937 	 13.3594 	 84.069
| 35> C 	 -5.039 	 14.04 	 84.2857
| 36> H 	 -4.78642 	 15.1022 	 84.3877
| 37> H 	 -5.24975 	 13.6999 	 85.3328
| 38> H 	 -5.96124 	 14.0547 	 83.7406
| 39> H 	 -7.38805 	 6.32786 	 83.2487
| 40> H 	 -0.738919 	 10.5582 	 80.4385
| 41> *
| 42>
| 43>                          ****END OF INPUT****

CARTESIAN COORDINATES (ANGSTROEM)
---------------------------------
  S     -5.130750    7.322990   82.995900
  C     -6.841190    7.200140   83.151500
  C     -7.399200    8.337160   82.627000
  C     -6.487550    9.314330   82.171200
  C     -5.151950    8.921460   82.366900
  H     -6.800990   10.266400   81.879700
  C     -8.827940    8.434880   82.323100
  H     -9.011440    9.480120   82.606200
  H     -9.394250    7.782740   83.043300
  C     -9.310740    8.098610   80.940900
  H    -10.397000    8.008000   80.857300
  H     -9.140010    8.976980   80.211300
  C     -8.813860    6.743300   80.371200
  H     -7.706330    6.648000   80.209000
  H     -8.989600    5.887490   80.974500
  H     -9.366630    6.704550   79.449800
  S     -2.686700    8.840230   80.954000
  C     -1.680860   10.327200   81.040800
  C     -2.302950   11.306300   81.808300
  C     -3.579490   10.939000   82.280100
  C     -3.919980    9.636580   82.002500
  H     -1.700910   12.184700   81.982900
  C     -4.334960   11.755600   83.346000
  H     -4.451900   11.152600   84.240800
  H     -5.344990   11.713800   82.974300
  C     -3.933760   13.204500   83.558100
  H     -3.829620   13.735200   82.615900
  H     -3.019370   13.359400   84.069000
  C     -5.039000   14.040000   84.285700
  H     -4.786420   15.102200   84.387700
  H     -5.249750   13.699900   85.332800
  H     -5.961240   14.054700   83.740600
  H     -7.388050    6.327860   83.248700
  H     -0.738919   10.558200   80.438500

 Total Charge           Charge          ....    0
 Multiplicity           Mult            ....    1
 Number of Electrons    NEL             ....  134
 Basis Dimension        Dim             ....  322

ORBITAL ENERGIES
----------------

  NO   OCC          E(Eh)            E(eV)
   0   2.0000     -88.969089     -2420.9720
   1   2.0000     -88.966035     -2420.8889
   2   2.0000     -10.333792      -281.1968
   3   2.0000     -10.330415      -281.1049
   4   2.0000     -10.327528      -281.0263
   5   2.0000     -10.304224      -280.3922
   6   2.0000     -10.303022      -280.3595
   7   2.0000     -10.294565      -280.1294
   8   2.0000     -10.293888      -280.1109
   9   2.0000     -10.291400      -280.0432
  10   2.0000     -10.290711      -280.0245
  11   2.0000     -10.290442      -280.0172
  12   2.0000     -10.287969      -279.9499
  13   2.0000     -10.287562      -279.9388
  14   2.0000     -10.281546      -279.7751
  15   2.0000     -10.276097      -279.6268
  16   2.0000      -8.082050      -219.9238
  17   2.0000      -8.081618      -219.9120
  18   2.0000      -6.040698      -164.3758
  19   2.0000      -6.040014      -164.3571
  20   2.0000      -6.036843      -164.2708
  21   2.0000      -6.035800      -164.2425
  22   2.0000      -6.032727      -164.1589
  23   2.0000      -6.032642      -164.1565
  24   2.0000      -1.010246       -27.4902
  25   2.0000      -0.983946       -26.7745
  26   2.0000      -0.916868       -24.9492
  27   2.0000      -0.906440       -24.6655
  28   2.0000      -0.868535       -23.6340
  29   2.0000      -0.852833       -23.2068
  30   2.0000      -0.845596       -23.0098
  31   2.0000      -0.816914       -22.2294
  32   2.0000      -0.784517       -21.3478
  33   2.0000      -0.773972       -21.0608
  34   2.0000      -0.712284       -19.3822
  35   2.0000      -0.706167       -19.2158
  36   2.0000      -0.697423       -18.9778
  37   2.0000      -0.653042       -17.7702
  38   2.0000      -0.642295       -17.4777
  39   2.0000      -0.621866       -16.9218
  40   2.0000      -0.590964       -16.0810
  41   2.0000      -0.568165       -15.4605
  42   2.0000      -0.567384       -15.4393
  43   2.0000      -0.559096       -15.2138
  44   2.0000      -0.545926       -14.8554
  45   2.0000      -0.527897       -14.3648
  46   2.0000      -0.518927       -14.1207
  47   2.0000      -0.509305       -13.8589
  48   2.0000      -0.504560       -13.7298
  49   2.0000      -0.496240       -13.5034
  50   2.0000      -0.493141       -13.4190
  51   2.0000      -0.478147       -13.0110
  52   2.0000      -0.471708       -12.8358
  53   2.0000      -0.467070       -12.7096
  54   2.0000      -0.454779       -12.3752
  55   2.0000      -0.452001       -12.2996
  56   2.0000      -0.447077       -12.1656
  57   2.0000      -0.438092       -11.9211
  58   2.0000      -0.433064       -11.7843
  59   2.0000      -0.427877       -11.6431
  60   2.0000      -0.417868       -11.3708
  61   2.0000      -0.412619       -11.2279
  62   2.0000      -0.404921       -11.0185
  63   2.0000      -0.347139        -9.4461
  64   2.0000      -0.334016        -9.0890
  65   2.0000      -0.329254        -8.9595
  66   2.0000      -0.292044        -7.9469
  67   0.0000       0.023191         0.6311
  68   0.0000       0.066488         1.8092
  69   0.0000       0.111531         3.0349
  70   0.0000       0.119958         3.2642
  71   0.0000       0.134147         3.6503

MULLIKEN ATOMIC CHARGES
-----------------------
   0 S :    0.111662
   1 C :   -0.076126
   2 C :   -0.125690
   3 C :    0.061360
   4 C :   -0.173870
   5 H :   -0.007888
   6 C :    0.061872
   7 H :    0.021855
   8 H :    0.024376
   9 C :   -0.080113
  10 H :    0.030018
  11 H :    0.034734
  12 C :   -0.057411
  13 H :    0.049941
  14 H :    0.020097
  15 H :    0.035339
  16 S :    0.102212
  17 C :   -0.122583
  18 C :   -0.053508
  19 C :   -0.018932
  20 C :   -0.138387
  21 H :    0.023615
  22 C :    0.097141
  23 H :    0.044482
  24 H :   -0.003371
  25 C :   -0.048789
  26 H :    0.028173
  27 H :    0.028803
  28 C :   -0.073367
  29 H :    0.030700
  30 H :    0.037071
  31 H :    0.027410
  32 H :    0.024959
  33 H :    0.084215
Sum of atomic charges:    0.0000000

LOEWDIN ATOMIC CHARGES
----------------------
   0 S :    0.439373
   1 C :   -0.204255
   2 C :   -0.067820
   3 C :   -0.057744
   4 C :   -0.196831
   5 H :    0.019161
   6 C :   -0.043979
   7 H :    0.033137
   8 H :    0.034180
   9 C :   -0.046601
  10 H :    0.026922
  11 H :    0.031216
  12 C :   -0.067268
  13 H :    0.032433
  14 H :    0.017004
  15 H :    0.028339
  16 S :    0.367580
  17 C :   -0.181873
  18 C :   -0.076631
  19 C :   -0.053190
  20 C :   -0.185690
  21 H :    0.034100
  22 C :   -0.030564
  23 H :    0.038266
  24 H :    0.030182
  25 C :   -0.038395
  26 H :    0.028261
  27 H :    0.019532
  28 C :   -0.066216
  29 H :    0.026642
  30 H :    0.027276
  31 H :    0.019435
  32 H :    0.015845
  33 H :    0.048172

  Mayer bond orders larger than 0.100000
B(  0-S ,  1-C ) :   1.1411 B(  0-S ,  4-C ) :   1.1930 B(  1-C ,  2-C ) :   1.5726
B(  1-C , 32-H ) :   0.9746 B(  2-C ,  3-C ) :   1.2888 B(  2-C ,  6-C ) :   1.0387
B(  3-C ,  4-C ) :   1.5019 B(  3-C ,  5-H ) :   1.0004 B(  4-C , 20-C ) :   1.0354
B(  6-C ,  7-H ) :   0.9304 B(  6-C ,  8-H ) :   0.9373 B(  6-C ,  9-C ) :   1.0823
B(  9-C , 10-H ) :   0.9562 B(  9-C , 11-H ) :   0.9502 B(  9-C , 12-C ) :   1.0676
B( 12-C , 13-H ) :   0.9720 B( 12-C , 14-H ) :   0.9754 B( 12-C , 15-H ) :   0.9754
B( 16-S , 17-C ) :   1.1423 B( 16-S , 20-C ) :   1.1220 B( 17-C , 18-C ) :   1.6271
B( 17-C , 20-C ) :   0.1064 B( 17-C , 33-H ) :   0.9522 B( 18-C , 19-C ) :   1.2356
B( 18-C , 21-H ) :   0.9880 B( 19-C , 20-C ) :   1.6140 B( 19-C , 22-C ) :   1.0240
B( 22-C , 23-H ) :   0.9326 B( 22-C , 24-H ) :   0.9169 B( 22-C , 25-C ) :   1.0739
B( 25-C , 26-H ) :   0.9533 B( 25-C , 27-H ) :   0.9503 B( 25-C , 28-C ) :   1.0850
B( 28-C , 29-H ) :   0.9754 B( 28-C , 30-H ) :   0.9765 B( 28-C , 31-H ) :   0.9763

Dispersion correction           -0.014347842
FINAL SINGLE POINT ENERGY     -1339.865128724798

DIPOLE MOMENT
-------------
                                X             Y             Z
Electronic contribution:     18.51086     -14.17021      -2.16351
Nuclear contribution   :    -18.87352      14.69474       2.11092
                        -----------------------------------------
Total Dipole Moment    :     -0.36266       0.52452      -0.05259
                        -----------------------------------------
Magnitude (a.u.)       :      0.63986
Magnitude (Debye)      :      1.62638

Rotational constants in cm-1:     0.018369     0.008489     0.006689
Rotational constants in MHz :   550.683155   254.504897   200.544037

                             ****ORCA TERMINATED NORMALLY****
TOTAL RUN TIME: 0 days 0 hours 0 minutes 34 seconds 815 msec
