                         Program Version 4.2.1 -  RELEASE  -
|  1> ! wB97X-D3 SP def2-SVP
|  2> %pal
|  3> nprocs 16
|  4> end
|  5>
|  6> * xyz 0 1
|  7> S 	 -45.5572 	 47.2052 	 104.274
|  8> C 	 -44.7092 	 46.4327 	 105.563
|  9> C 	 -44.0322 	 45.2793 	 105.226
| 10> C 	 -44.4442 	 44.8442 	 103.942
| 11> C 	 -45.2157 	 45.7989 	 103.283
| 12> H 	 -44.1138 	 43.9363 	 103.462
| 13> C 	 -43.254 	 44.4131 	 106.207
| 14> H 	 -43.3018 	 43.3956 	 105.865
| 15> H 	 -43.7591 	 44.5024 	 107.104
| 16> C 	 -41.7269 	 44.8447 	 106.436
| 17> H 	 -41.6688 	 45.7629 	 106.995
| 18> H 	 -41.2751 	 44.0977 	 107.021
| 19> C 	 -41.0199 	 44.9091 	 105.104
| 20> H 	 -39.9412 	 45.0187 	 105.186
| 21> H 	 -41.3609 	 44.0541 	 104.501
| 22> H 	 -41.352 	 45.8932 	 104.685
| 23> S 	 -44.5279 	 46.0619 	 100.579
| 24> C 	 -45.797 	 45.831 	 99.3578
| 25> C 	 -46.9817 	 45.586 	 99.9565
| 26> C 	 -46.9454 	 45.5696 	 101.369
| 27> C 	 -45.691 	 45.7669 	 101.883
| 28> H 	 -47.7677 	 45.4448 	 99.3299
| 29> C 	 -48.2562 	 45.5171 	 102.215
| 30> H 	 -49.051 	 46.1508 	 101.797
| 31> H 	 -48.0167 	 46.0629 	 103.159
| 32> C 	 -48.6547 	 44.1464 	 102.857
| 33> H 	 -48.7574 	 43.4341 	 102.017
| 34> H 	 -49.49 	 44.2739 	 103.479
| 35> C 	 -47.5699 	 43.4892 	 103.688
| 36> H 	 -46.6354 	 43.2633 	 103.081
| 37> H 	 -47.9575 	 42.6688 	 104.248
| 38> H 	 -47.2848 	 44.2344 	 104.426
| 39> H 	 -44.514 	 46.9295 	 106.531
| 40> H 	 -45.6406 	 45.808 	 98.327
| 41> *
| 42>
| 43>                          ****END OF INPUT****

CARTESIAN COORDINATES (ANGSTROEM)
---------------------------------
  S    -45.557200   47.205200  104.274000
  C    -44.709200   46.432700  105.563000
  C    -44.032200   45.279300  105.226000
  C    -44.444200   44.844200  103.942000
  C    -45.215700   45.798900  103.283000
  H    -44.113800   43.936300  103.462000
  C    -43.254000   44.413100  106.207000
  H    -43.301800   43.395600  105.865000
  H    -43.759100   44.502400  107.104000
  C    -41.726900   44.844700  106.436000
  H    -41.668800   45.762900  106.995000
  H    -41.275100   44.097700  107.021000
  C    -41.019900   44.909100  105.104000
  H    -39.941200   45.018700  105.186000
  H    -41.360900   44.054100  104.501000
  H    -41.352000   45.893200  104.685000
  S    -44.527900   46.061900  100.579000
  C    -45.797000   45.831000   99.357800
  C    -46.981700   45.586000   99.956500
  C    -46.945400   45.569600  101.369000
  C    -45.691000   45.766900  101.883000
  H    -47.767700   45.444800   99.329900
  C    -48.256200   45.517100  102.215000
  H    -49.051000   46.150800  101.797000
  H    -48.016700   46.062900  103.159000
  C    -48.654700   44.146400  102.857000
  H    -48.757400   43.434100  102.017000
  H    -49.490000   44.273900  103.479000
  C    -47.569900   43.489200  103.688000
  H    -46.635400   43.263300  103.081000
  H    -47.957500   42.668800  104.248000
  H    -47.284800   44.234400  104.426000
  H    -44.514000   46.929500  106.531000
  H    -45.640600   45.808000   98.327000

 Total Charge           Charge          ....    0
 Multiplicity           Mult            ....    1
 Number of Electrons    NEL             ....  134
 Basis Dimension        Dim             ....  322

ORBITAL ENERGIES
----------------

  NO   OCC          E(Eh)            E(eV)
   0   2.0000     -88.971609     -2421.0406
   1   2.0000     -88.961399     -2420.7627
   2   2.0000     -10.328652      -281.0569
   3   2.0000     -10.325132      -280.9611
   4   2.0000     -10.312220      -280.6098
   5   2.0000     -10.310900      -280.5739
   6   2.0000     -10.301997      -280.3316
   7   2.0000     -10.298742      -280.2430
   8   2.0000     -10.295103      -280.1440
   9   2.0000     -10.293316      -280.0954
  10   2.0000     -10.289136      -279.9816
  11   2.0000     -10.282327      -279.7963
  12   2.0000     -10.281014      -279.7606
  13   2.0000     -10.279714      -279.7252
  14   2.0000     -10.276587      -279.6402
  15   2.0000     -10.267746      -279.3996
  16   2.0000      -8.086112      -220.0343
  17   2.0000      -8.075623      -219.7489
  18   2.0000      -6.044393      -164.4763
  19   2.0000      -6.040752      -164.3772
  20   2.0000      -6.037035      -164.2761
  21   2.0000      -6.034243      -164.2001
  22   2.0000      -6.030167      -164.0892
  23   2.0000      -6.026324      -163.9846
  24   2.0000      -1.005935       -27.3729
  25   2.0000      -0.985475       -26.8161
  26   2.0000      -0.910791       -24.7839
  27   2.0000      -0.900639       -24.5076
  28   2.0000      -0.867793       -23.6139
  29   2.0000      -0.853553       -23.2264
  30   2.0000      -0.843101       -22.9420
  31   2.0000      -0.816780       -22.2257
  32   2.0000      -0.781078       -21.2542
  33   2.0000      -0.768797       -20.9200
  34   2.0000      -0.702111       -19.1054
  35   2.0000      -0.701434       -19.0870
  36   2.0000      -0.685743       -18.6600
  37   2.0000      -0.661659       -18.0047
  38   2.0000      -0.641206       -17.4481
  39   2.0000      -0.614987       -16.7346
  40   2.0000      -0.595215       -16.1966
  41   2.0000      -0.578034       -15.7291
  42   2.0000      -0.558002       -15.1840
  43   2.0000      -0.554994       -15.1022
  44   2.0000      -0.545740       -14.8503
  45   2.0000      -0.543344       -14.7851
  46   2.0000      -0.512642       -13.9497
  47   2.0000      -0.510389       -13.8884
  48   2.0000      -0.498566       -13.5667
  49   2.0000      -0.488137       -13.2829
  50   2.0000      -0.483982       -13.1698
  51   2.0000      -0.472206       -12.8494
  52   2.0000      -0.470741       -12.8095
  53   2.0000      -0.463648       -12.6165
  54   2.0000      -0.453360       -12.3365
  55   2.0000      -0.447573       -12.1791
  56   2.0000      -0.440521       -11.9872
  57   2.0000      -0.439539       -11.9605
  58   2.0000      -0.437003       -11.8915
  59   2.0000      -0.432849       -11.7784
  60   2.0000      -0.417658       -11.3651
  61   2.0000      -0.417059       -11.3488
  62   2.0000      -0.394489       -10.7346
  63   2.0000      -0.337515        -9.1842
  64   2.0000      -0.332875        -9.0580
  65   2.0000      -0.323929        -8.8145
  66   2.0000      -0.304478        -8.2853
  67   0.0000       0.039104         1.0641
  68   0.0000       0.059464         1.6181
  69   0.0000       0.111866         3.0440
  70   0.0000       0.116333         3.1656
  71   0.0000       0.127087         3.4582

MULLIKEN ATOMIC CHARGES
-----------------------
   0 S :    0.141926
   1 C :   -0.136336
   2 C :   -0.098920
   3 C :    0.050057
   4 C :   -0.193444
   5 H :    0.013750
   6 C :    0.077027
   7 H :    0.021431
   8 H :    0.014886
   9 C :   -0.049578
  10 H :    0.025009
  11 H :    0.018231
  12 C :   -0.063861
  13 H :    0.037529
  14 H :    0.037117
  15 H :    0.045428
  16 S :    0.099730
  17 C :   -0.073546
  18 C :    0.003292
  19 C :    0.005231
  20 C :   -0.176743
  21 H :   -0.023868
  22 C :    0.030396
  23 H :    0.040133
  24 H :    0.009282
  25 C :   -0.031649
  26 H :    0.024813
  27 H :    0.025703
  28 C :   -0.061828
  29 H :    0.047184
  30 H :    0.030797
  31 H :    0.024095
  32 H :    0.052125
  33 H :    0.034597
Sum of atomic charges:    0.0000000

LOEWDIN ATOMIC CHARGES
----------------------
   0 S :    0.429988
   1 C :   -0.210620
   2 C :   -0.064842
   3 C :   -0.049210
   4 C :   -0.195503
   5 H :    0.030395
   6 C :   -0.017021
   7 H :    0.027910
   8 H :    0.022291
   9 C :   -0.030545
  10 H :    0.019645
  11 H :    0.014315
  12 C :   -0.068456
  13 H :    0.024478
  14 H :    0.026922
  15 H :    0.034281
  16 S :    0.381918
  17 C :   -0.159358
  18 C :   -0.061214
  19 C :   -0.056111
  20 C :   -0.197076
  21 H :    0.016874
  22 C :   -0.039955
  23 H :    0.033294
  24 H :    0.024079
  25 C :   -0.033592
  26 H :    0.021923
  27 H :    0.018783
  28 C :   -0.066675
  29 H :    0.032299
  30 H :    0.022205
  31 H :    0.020757
  32 H :    0.028868
  33 H :    0.018952

  Mayer bond orders larger than 0.100000
B(  0-S ,  1-C ) :   1.1572 B(  0-S ,  4-C ) :   1.1614 B(  1-C ,  2-C ) :   1.6092
B(  1-C ,  4-C ) :   0.1004 B(  1-C , 32-H ) :   0.9561 B(  2-C ,  3-C ) :   1.2459
B(  2-C ,  6-C ) :   1.0102 B(  3-C ,  4-C ) :   1.5850 B(  3-C ,  5-H ) :   0.9904
B(  4-C , 20-C ) :   1.0059 B(  6-C ,  7-H ) :   0.9460 B(  6-C ,  8-H ) :   0.9441
B(  6-C ,  9-C ) :   1.0686 B(  9-C , 10-H ) :   0.9594 B(  9-C , 11-H ) :   0.9579
B(  9-C , 12-C ) :   1.0772 B( 12-C , 13-H ) :   0.9737 B( 12-C , 14-H ) :   0.9768
B( 12-C , 15-H ) :   0.9699 B( 16-S , 17-C ) :   1.1379 B( 16-S , 20-C ) :   1.1406
B( 17-C , 18-C ) :   1.6336 B( 17-C , 33-H ) :   0.9739 B( 18-C , 19-C ) :   1.2148
B( 18-C , 21-H ) :   1.0108 B( 19-C , 20-C ) :   1.6202 B( 19-C , 22-C ) :   1.0219
B( 22-C , 23-H ) :   0.9495 B( 22-C , 24-H ) :   0.9324 B( 22-C , 25-C ) :   1.0590
B( 25-C , 26-H ) :   0.9554 B( 25-C , 27-H ) :   0.9566 B( 25-C , 28-C ) :   1.0942
B( 28-C , 29-H ) :   0.9673 B( 28-C , 30-H ) :   0.9699 B( 28-C , 31-H ) :   0.9686

Dispersion correction           -0.016343216
FINAL SINGLE POINT ENERGY     -1339.867639612473

DIPOLE MOMENT
-------------
                                X             Y             Z
Electronic contribution:     -2.05017      13.25771     -13.09196
Nuclear contribution   :      2.01194     -13.50574      13.38163
                        -----------------------------------------
Total Dipole Moment    :     -0.03823      -0.24803       0.28967
                        -----------------------------------------
Magnitude (a.u.)       :      0.38326
Magnitude (Debye)      :      0.97416

Rotational constants in cm-1:     0.021262     0.009046     0.007680
Rotational constants in MHz :   637.433695   271.178773   230.255037

                             ****ORCA TERMINATED NORMALLY****
TOTAL RUN TIME: 0 days 0 hours 0 minutes 32 seconds 307 msec
