                         Program Version 4.2.1 -  RELEASE  -
|  1> ! wB97X-D3 SP def2-SVP
|  2> %pal
|  3> nprocs 16
|  4> end
|  5>
|  6> * xyz 0 1
|  7> S 	 48.5682 	 11.0561 	 79.4679
|  8> C 	 47.3627 	 10.444 	 80.636
|  9> C 	 46.1136 	 11.0725 	 80.4708
| 10> C 	 46.1693 	 12.064 	 79.4325
| 11> C 	 47.4044 	 12.2118 	 78.8121
| 12> H 	 45.3748 	 12.694 	 79.1792
| 13> C 	 44.8777 	 10.8301 	 81.2622
| 14> H 	 44.9068 	 9.88558 	 81.7359
| 15> H 	 44.194 	 10.732 	 80.4326
| 16> C 	 44.4134 	 11.951 	 82.1382
| 17> H 	 44.9907 	 12.1635 	 82.9519
| 18> H 	 44.2126 	 12.844 	 81.5133
| 19> C 	 43.156 	 11.4841 	 82.8792
| 20> H 	 42.3874 	 11.1854 	 82.2086
| 21> H 	 43.3083 	 10.6885 	 83.5789
| 22> H 	 42.864 	 12.2642 	 83.532
| 23> S 	 49.3052 	 12.4672 	 76.8702
| 24> C 	 48.8649 	 13.6002 	 75.5514
| 25> C 	 47.9319 	 14.5677 	 75.9018
| 26> C 	 47.3434 	 14.2486 	 77.1171
| 27> C 	 47.7288 	 12.9899 	 77.6021
| 28> H 	 47.6726 	 15.3924 	 75.2309
| 29> C 	 46.1045 	 14.9999 	 77.5623
| 30> H 	 45.2224 	 14.4174 	 77.4819
| 31> H 	 45.9273 	 15.8606 	 76.7836
| 32> C 	 46.5013 	 15.7116 	 78.8993
| 33> H 	 47.4645 	 16.1341 	 78.9899
| 34> H 	 46.3603 	 14.9073 	 79.6351
| 35> C 	 45.4434 	 16.6916 	 79.2599
| 36> H 	 45.4589 	 17.5878 	 78.5979
| 37> H 	 45.5891 	 16.9931 	 80.2637
| 38> H 	 44.4267 	 16.2595 	 79.1203
| 39> H 	 47.4838 	 9.53529 	 81.2137
| 40> H 	 49.3427 	 13.6052 	 74.5522
| 41> *
| 42>
| 43>                          ****END OF INPUT****

CARTESIAN COORDINATES (ANGSTROEM)
---------------------------------
  S     48.568200   11.056100   79.467900
  C     47.362700   10.444000   80.636000
  C     46.113600   11.072500   80.470800
  C     46.169300   12.064000   79.432500
  C     47.404400   12.211800   78.812100
  H     45.374800   12.694000   79.179200
  C     44.877700   10.830100   81.262200
  H     44.906800    9.885580   81.735900
  H     44.194000   10.732000   80.432600
  C     44.413400   11.951000   82.138200
  H     44.990700   12.163500   82.951900
  H     44.212600   12.844000   81.513300
  C     43.156000   11.484100   82.879200
  H     42.387400   11.185400   82.208600
  H     43.308300   10.688500   83.578900
  H     42.864000   12.264200   83.532000
  S     49.305200   12.467200   76.870200
  C     48.864900   13.600200   75.551400
  C     47.931900   14.567700   75.901800
  C     47.343400   14.248600   77.117100
  C     47.728800   12.989900   77.602100
  H     47.672600   15.392400   75.230900
  C     46.104500   14.999900   77.562300
  H     45.222400   14.417400   77.481900
  H     45.927300   15.860600   76.783600
  C     46.501300   15.711600   78.899300
  H     47.464500   16.134100   78.989900
  H     46.360300   14.907300   79.635100
  C     45.443400   16.691600   79.259900
  H     45.458900   17.587800   78.597900
  H     45.589100   16.993100   80.263700
  H     44.426700   16.259500   79.120300
  H     47.483800    9.535290   81.213700
  H     49.342700   13.605200   74.552200

 Total Charge           Charge          ....    0
 Multiplicity           Mult            ....    1
 Number of Electrons    NEL             ....  134
 Basis Dimension        Dim             ....  322

ORBITAL ENERGIES
----------------

  NO   OCC          E(Eh)            E(eV)
   0   2.0000     -88.966709     -2420.9072
   1   2.0000     -88.964795     -2420.8551
   2   2.0000     -10.332729      -281.1679
   3   2.0000     -10.332087      -281.1504
   4   2.0000     -10.322815      -280.8981
   5   2.0000     -10.313640      -280.6484
   6   2.0000     -10.304153      -280.3903
   7   2.0000     -10.301263      -280.3116
   8   2.0000     -10.300689      -280.2960
   9   2.0000     -10.294885      -280.1381
  10   2.0000     -10.288245      -279.9574
  11   2.0000     -10.284254      -279.8488
  12   2.0000     -10.281607      -279.7767
  13   2.0000     -10.281051      -279.7616
  14   2.0000     -10.273756      -279.5631
  15   2.0000     -10.268951      -279.4324
  16   2.0000      -8.080177      -219.8728
  17   2.0000      -8.078627      -219.8306
  18   2.0000      -6.038657      -164.3202
  19   2.0000      -6.037324      -164.2839
  20   2.0000      -6.035461      -164.2333
  21   2.0000      -6.033362      -164.1761
  22   2.0000      -6.030428      -164.0963
  23   2.0000      -6.029171      -164.0621
  24   2.0000      -1.000461       -27.2239
  25   2.0000      -0.977001       -26.5855
  26   2.0000      -0.923483       -25.1292
  27   2.0000      -0.912668       -24.8350
  28   2.0000      -0.869721       -23.6663
  29   2.0000      -0.854269       -23.2458
  30   2.0000      -0.846470       -23.0336
  31   2.0000      -0.812704       -22.1148
  32   2.0000      -0.781237       -21.2585
  33   2.0000      -0.766655       -20.8617
  34   2.0000      -0.710446       -19.3322
  35   2.0000      -0.703622       -19.1465
  36   2.0000      -0.690793       -18.7974
  37   2.0000      -0.663592       -18.0572
  38   2.0000      -0.638986       -17.3877
  39   2.0000      -0.623871       -16.9764
  40   2.0000      -0.596112       -16.2210
  41   2.0000      -0.582153       -15.8412
  42   2.0000      -0.565980       -15.4011
  43   2.0000      -0.556731       -15.1494
  44   2.0000      -0.539753       -14.6874
  45   2.0000      -0.531598       -14.4655
  46   2.0000      -0.516878       -14.0650
  47   2.0000      -0.512840       -13.9551
  48   2.0000      -0.508184       -13.8284
  49   2.0000      -0.494911       -13.4672
  50   2.0000      -0.488520       -13.2933
  51   2.0000      -0.476870       -12.9763
  52   2.0000      -0.472098       -12.8464
  53   2.0000      -0.462819       -12.5939
  54   2.0000      -0.459251       -12.4968
  55   2.0000      -0.453409       -12.3379
  56   2.0000      -0.448363       -12.2006
  57   2.0000      -0.444333       -12.0909
  58   2.0000      -0.439270       -11.9531
  59   2.0000      -0.432037       -11.7563
  60   2.0000      -0.413371       -11.2484
  61   2.0000      -0.405796       -11.0423
  62   2.0000      -0.403537       -10.9808
  63   2.0000      -0.351772        -9.5722
  64   2.0000      -0.338954        -9.2234
  65   2.0000      -0.323083        -8.7915
  66   2.0000      -0.273635        -7.4460
  67   0.0000       0.010758         0.2928
  68   0.0000       0.063777         1.7355
  69   0.0000       0.087426         2.3790
  70   0.0000       0.121758         3.3132
  71   0.0000       0.125467         3.4141

MULLIKEN ATOMIC CHARGES
-----------------------
   0 S :    0.072721
   1 C :   -0.113070
   2 C :   -0.093068
   3 C :    0.013832
   4 C :   -0.100657
   5 H :   -0.022223
   6 C :    0.085665
   7 H :    0.002673
   8 H :    0.023118
   9 C :   -0.027124
  10 H :    0.013052
  11 H :    0.034090
  12 C :   -0.027804
  13 H :    0.020410
  14 H :    0.020017
  15 H :    0.019044
  16 S :    0.068614
  17 C :   -0.083568
  18 C :   -0.033433
  19 C :   -0.012928
  20 C :   -0.111428
  21 H :    0.031612
  22 C :   -0.031733
  23 H :    0.050021
  24 H :    0.027113
  25 C :   -0.054834
  26 H :    0.037893
  27 H :    0.030734
  28 C :   -0.026427
  29 H :    0.028238
  30 H :    0.026511
  31 H :    0.022922
  32 H :    0.049086
  33 H :    0.060929
Sum of atomic charges:   -0.0000000

LOEWDIN ATOMIC CHARGES
----------------------
   0 S :    0.371619
   1 C :   -0.198474
   2 C :   -0.051305
   3 C :   -0.072757
   4 C :   -0.176217
   5 H :    0.015207
   6 C :   -0.031563
   7 H :    0.024732
   8 H :    0.036847
   9 C :   -0.025115
  10 H :    0.015893
  11 H :    0.029443
  12 C :   -0.054779
  13 H :    0.017680
  14 H :    0.022859
  15 H :    0.022043
  16 S :    0.351444
  17 C :   -0.159780
  18 C :   -0.071518
  19 C :   -0.052649
  20 C :   -0.165352
  21 H :    0.038962
  22 C :   -0.028360
  23 H :    0.026345
  24 H :    0.033477
  25 C :   -0.034767
  26 H :    0.025535
  27 H :    0.028749
  28 C :   -0.064447
  29 H :    0.022659
  30 H :    0.019266
  31 H :    0.026142
  32 H :    0.027434
  33 H :    0.030744

  Mayer bond orders larger than 0.100000
B(  0-S ,  1-C ) :   1.1114 B(  0-S ,  4-C ) :   1.1349 B(  1-C ,  2-C ) :   1.6196
B(  1-C , 32-H ) :   0.9652 B(  2-C ,  3-C ) :   1.2362 B(  2-C ,  6-C ) :   1.0194
B(  3-C ,  4-C ) :   1.5682 B(  3-C ,  5-H ) :   0.9970 B(  4-C , 20-C ) :   1.0854
B(  6-C ,  7-H ) :   0.9407 B(  6-C ,  8-H ) :   0.9279 B(  6-C ,  9-C ) :   1.0820
B(  9-C , 10-H ) :   0.9555 B(  9-C , 11-H ) :   0.9490 B(  9-C , 12-C ) :   1.0856
B( 12-C , 13-H ) :   0.9749 B( 12-C , 14-H ) :   0.9730 B( 12-C , 15-H ) :   0.9723
B( 16-S , 17-C ) :   1.1428 B( 16-S , 20-C ) :   1.1041 B( 17-C , 18-C ) :   1.6226
B( 17-C , 20-C ) :   0.1065 B( 17-C , 33-H ) :   0.9623 B( 18-C , 19-C ) :   1.2330
B( 18-C , 21-H ) :   0.9890 B( 19-C , 20-C ) :   1.5758 B( 19-C , 22-C ) :   1.0286
B( 22-C , 23-H ) :   0.9472 B( 22-C , 24-H ) :   0.9519 B( 22-C , 25-C ) :   1.0337
B( 25-C , 26-H ) :   0.9626 B( 25-C , 27-H ) :   0.9491 B( 25-C , 28-C ) :   1.0920
B( 28-C , 29-H ) :   0.9733 B( 28-C , 30-H ) :   0.9708 B( 28-C , 31-H ) :   0.9679

Dispersion correction           -0.014052688
FINAL SINGLE POINT ENERGY     -1339.831846585618

DIPOLE MOMENT
-------------
                                X             Y             Z
Electronic contribution:     25.90696     -12.33122     -15.35320
Nuclear contribution   :    -26.60806      12.67248      15.45582
                        -----------------------------------------
Total Dipole Moment    :     -0.70110       0.34126       0.10262
                        -----------------------------------------
Magnitude (a.u.)       :      0.78647
Magnitude (Debye)      :      1.99904

Rotational constants in cm-1:     0.018433     0.009227     0.006525
Rotational constants in MHz :   552.616540   276.624477   195.627757

                             ****ORCA TERMINATED NORMALLY****
TOTAL RUN TIME: 0 days 0 hours 0 minutes 29 seconds 37 msec
