                         Program Version 4.2.1 -  RELEASE  -
|  1> ! wB97X-D3 SP def2-SVP
|  2> %pal
|  3> nprocs 16
|  4> end
|  5>
|  6> * xyz 0 1
|  7> S 	 44.4916 	 25.3796 	 91.6457
|  8> C 	 45.4699 	 24.2987 	 92.5673
|  9> C 	 44.697 	 23.2559 	 93.0351
| 10> C 	 43.353 	 23.2512 	 92.466
| 11> C 	 43.1388 	 24.2591 	 91.5515
| 12> H 	 42.5224 	 22.5791 	 92.6397
| 13> C 	 45.1634 	 22.2664 	 94.1193
| 14> H 	 46.1999 	 22.6895 	 94.4519
| 15> H 	 45.3588 	 21.3644 	 93.548
| 16> C 	 44.2022 	 22.137 	 95.2949
| 17> H 	 44.2077 	 23.1859 	 95.5937
| 18> H 	 43.1495 	 21.9194 	 95.0024
| 19> C 	 44.707 	 21.3872 	 96.494
| 20> H 	 44.6506 	 20.3869 	 96.0473
| 21> H 	 45.7456 	 21.5026 	 96.7334
| 22> H 	 44.0565 	 21.3706 	 97.4675
| 23> S 	 41.447 	 26.4404 	 90.8671
| 24> C 	 39.8448 	 26.1204 	 90.2494
| 25> C 	 39.7809 	 24.7582 	 89.9279
| 26> C 	 40.9361 	 23.9825 	 90.3156
| 27> C 	 41.8368 	 24.72 	 90.9873
| 28> H 	 38.8781 	 24.3694 	 89.48
| 29> C 	 41.062 	 22.4825 	 89.9878
| 30> H 	 42.0241 	 22.0883 	 90.2412
| 31> H 	 40.9432 	 22.285 	 88.938
| 32> C 	 39.917 	 21.6183 	 90.706
| 33> H 	 39.0519 	 21.5179 	 90.0723
| 34> H 	 39.7131 	 22.0995 	 91.6256
| 35> C 	 40.4213 	 20.1833 	 90.9711
| 36> H 	 40.7454 	 19.6382 	 90.0181
| 37> H 	 39.68 	 19.439 	 91.2777
| 38> H 	 41.1862 	 20.2135 	 91.7165
| 39> H 	 46.4445 	 24.62 	 92.9249
| 40> H 	 39.2556 	 26.9256 	 90.0386
| 41> *
| 42>
| 43>                          ****END OF INPUT****

CARTESIAN COORDINATES (ANGSTROEM)
---------------------------------
  S     44.491600   25.379600   91.645700
  C     45.469900   24.298700   92.567300
  C     44.697000   23.255900   93.035100
  C     43.353000   23.251200   92.466000
  C     43.138800   24.259100   91.551500
  H     42.522400   22.579100   92.639700
  C     45.163400   22.266400   94.119300
  H     46.199900   22.689500   94.451900
  H     45.358800   21.364400   93.548000
  C     44.202200   22.137000   95.294900
  H     44.207700   23.185900   95.593700
  H     43.149500   21.919400   95.002400
  C     44.707000   21.387200   96.494000
  H     44.650600   20.386900   96.047300
  H     45.745600   21.502600   96.733400
  H     44.056500   21.370600   97.467500
  S     41.447000   26.440400   90.867100
  C     39.844800   26.120400   90.249400
  C     39.780900   24.758200   89.927900
  C     40.936100   23.982500   90.315600
  C     41.836800   24.720000   90.987300
  H     38.878100   24.369400   89.480000
  C     41.062000   22.482500   89.987800
  H     42.024100   22.088300   90.241200
  H     40.943200   22.285000   88.938000
  C     39.917000   21.618300   90.706000
  H     39.051900   21.517900   90.072300
  H     39.713100   22.099500   91.625600
  C     40.421300   20.183300   90.971100
  H     40.745400   19.638200   90.018100
  H     39.680000   19.439000   91.277700
  H     41.186200   20.213500   91.716500
  H     46.444500   24.620000   92.924900
  H     39.255600   26.925600   90.038600

 Total Charge           Charge          ....    0
 Multiplicity           Mult            ....    1
 Number of Electrons    NEL             ....  134
 Basis Dimension        Dim             ....  322

ORBITAL ENERGIES
----------------

  NO   OCC          E(Eh)            E(eV)
   0   2.0000     -88.962327     -2420.7880
   1   2.0000     -88.961127     -2420.7553
   2   2.0000     -10.332778      -281.1692
   3   2.0000     -10.328400      -281.0501
   4   2.0000     -10.317885      -280.7639
   5   2.0000     -10.314976      -280.6848
   6   2.0000     -10.307973      -280.4942
   7   2.0000     -10.303332      -280.3679
   8   2.0000     -10.302884      -280.3557
   9   2.0000     -10.299970      -280.2764
  10   2.0000     -10.299337      -280.2592
  11   2.0000     -10.293886      -280.1109
  12   2.0000     -10.289817      -280.0001
  13   2.0000     -10.288356      -279.9604
  14   2.0000     -10.284631      -279.8590
  15   2.0000     -10.283508      -279.8285
  16   2.0000      -8.077288      -219.7942
  17   2.0000      -8.076576      -219.7748
  18   2.0000      -6.035918      -164.2457
  19   2.0000      -6.035092      -164.2232
  20   2.0000      -6.031843      -164.1348
  21   2.0000      -6.031063      -164.1136
  22   2.0000      -6.027832      -164.0256
  23   2.0000      -6.027214      -164.0088
  24   2.0000      -1.008032       -27.4300
  25   2.0000      -0.986473       -26.8433
  26   2.0000      -0.914282       -24.8789
  27   2.0000      -0.904142       -24.6030
  28   2.0000      -0.872059       -23.7299
  29   2.0000      -0.851583       -23.1727
  30   2.0000      -0.842716       -22.9315
  31   2.0000      -0.818171       -22.2636
  32   2.0000      -0.780523       -21.2391
  33   2.0000      -0.771741       -21.0002
  34   2.0000      -0.705401       -19.1949
  35   2.0000      -0.705055       -19.1855
  36   2.0000      -0.692351       -18.8398
  37   2.0000      -0.663493       -18.0546
  38   2.0000      -0.647113       -17.6089
  39   2.0000      -0.616503       -16.7759
  40   2.0000      -0.602056       -16.3828
  41   2.0000      -0.575820       -15.6688
  42   2.0000      -0.570946       -15.5362
  43   2.0000      -0.560071       -15.2403
  44   2.0000      -0.528422       -14.3791
  45   2.0000      -0.521762       -14.1979
  46   2.0000      -0.516439       -14.0530
  47   2.0000      -0.513126       -13.9629
  48   2.0000      -0.507021       -13.7967
  49   2.0000      -0.499217       -13.5844
  50   2.0000      -0.495298       -13.4777
  51   2.0000      -0.480991       -13.0884
  52   2.0000      -0.472657       -12.8617
  53   2.0000      -0.471747       -12.8369
  54   2.0000      -0.461458       -12.5569
  55   2.0000      -0.449616       -12.2347
  56   2.0000      -0.446909       -12.1610
  57   2.0000      -0.436553       -11.8792
  58   2.0000      -0.432049       -11.7567
  59   2.0000      -0.425831       -11.5874
  60   2.0000      -0.418952       -11.4003
  61   2.0000      -0.414309       -11.2739
  62   2.0000      -0.396721       -10.7953
  63   2.0000      -0.359326        -9.7777
  64   2.0000      -0.328912        -8.9501
  65   2.0000      -0.323863        -8.8128
  66   2.0000      -0.293794        -7.9945
  67   0.0000       0.026970         0.7339
  68   0.0000       0.071757         1.9526
  69   0.0000       0.105868         2.8808
  70   0.0000       0.117594         3.1999
  71   0.0000       0.125953         3.4273

MULLIKEN ATOMIC CHARGES
-----------------------
   0 S :    0.079396
   1 C :   -0.110505
   2 C :   -0.101504
   3 C :    0.007580
   4 C :   -0.126301
   5 H :    0.014534
   6 C :    0.050496
   7 H :    0.030486
   8 H :    0.038044
   9 C :   -0.089316
  10 H :    0.028249
  11 H :    0.045489
  12 C :   -0.051438
  13 H :    0.020192
  14 H :    0.029362
  15 H :    0.061669
  16 S :    0.081113
  17 C :   -0.065265
  18 C :   -0.015496
  19 C :   -0.058970
  20 C :   -0.131722
  21 H :    0.020171
  22 C :    0.082051
  23 H :    0.020554
  24 H :    0.030581
  25 C :   -0.056054
  26 H :    0.032957
  27 H :    0.033419
  28 C :   -0.085917
  29 H :    0.034130
  30 H :    0.031813
  31 H :    0.030166
  32 H :    0.056187
  33 H :    0.033847
Sum of atomic charges:   -0.0000000

LOEWDIN ATOMIC CHARGES
----------------------
   0 S :    0.402151
   1 C :   -0.203736
   2 C :   -0.061660
   3 C :   -0.067587
   4 C :   -0.178936
   5 H :    0.029430
   6 C :   -0.031446
   7 H :    0.038757
   8 H :    0.025108
   9 C :   -0.054154
  10 H :    0.026372
  11 H :    0.030185
  12 C :   -0.076367
  13 H :    0.027415
  14 H :    0.022742
  15 H :    0.042831
  16 S :    0.387845
  17 C :   -0.162364
  18 C :   -0.063301
  19 C :   -0.061784
  20 C :   -0.188740
  21 H :    0.028628
  22 C :   -0.019429
  23 H :    0.023516
  24 H :    0.031920
  25 C :   -0.029842
  26 H :    0.022309
  27 H :    0.018094
  28 C :   -0.074227
  29 H :    0.032644
  30 H :    0.025649
  31 H :    0.017163
  32 H :    0.030180
  33 H :    0.010633

  Mayer bond orders larger than 0.100000
B(  0-S ,  1-C ) :   1.1429 B(  0-S ,  4-C ) :   1.1524 B(  1-C ,  2-C ) :   1.6148
B(  1-C , 32-H ) :   0.9691 B(  2-C ,  3-C ) :   1.2258 B(  2-C ,  6-C ) :   1.0112
B(  3-C ,  4-C ) :   1.5782 B(  3-C ,  5-H ) :   0.9934 B(  4-C , 20-C ) :   1.0345
B(  6-C ,  7-H ) :   0.9467 B(  6-C ,  8-H ) :   0.9348 B(  6-C ,  9-C ) :   1.0466
B(  9-C , 10-H ) :   0.9541 B(  9-C , 11-H ) :   0.9552 B(  9-C , 12-C ) :   1.0738
B( 12-C , 13-H ) :   0.9738 B( 12-C , 14-H ) :   0.9717 B( 12-C , 15-H ) :   0.9732
B( 16-S , 17-C ) :   1.1550 B( 16-S , 20-C ) :   1.1220 B( 17-C , 18-C ) :   1.5885
B( 17-C , 33-H ) :   0.9898 B( 18-C , 19-C ) :   1.2193 B( 18-C , 21-H ) :   0.9962
B( 19-C , 20-C ) :   1.6366 B( 19-C , 22-C ) :   1.0515 B( 22-C , 23-H ) :   0.9425
B( 22-C , 24-H ) :   0.9326 B( 22-C , 25-C ) :   1.0377 B( 25-C , 26-H ) :   0.9558
B( 25-C , 27-H ) :   0.9664 B( 25-C , 28-C ) :   1.0866 B( 28-C , 29-H ) :   0.9711
B( 28-C , 30-H ) :   0.9736 B( 28-C , 31-H ) :   0.9792

Dispersion correction           -0.013959000
FINAL SINGLE POINT ENERGY     -1339.855598347212

DIPOLE MOMENT
-------------
                                X             Y             Z
Electronic contribution:      2.45300      28.09475     -12.80440
Nuclear contribution   :     -2.70336     -28.66169      12.98969
                        -----------------------------------------
Total Dipole Moment    :     -0.25036      -0.56693       0.18529
                        -----------------------------------------
Magnitude (a.u.)       :      0.64686
Magnitude (Debye)      :      1.64419

Rotational constants in cm-1:     0.016795     0.009013     0.006583
Rotational constants in MHz :   503.514071   270.192268   197.343442

                             ****ORCA TERMINATED NORMALLY****
TOTAL RUN TIME: 0 days 0 hours 0 minutes 27 seconds 526 msec
