                         Program Version 4.2.1 -  RELEASE  -
|  1> ! wB97X-D3 SP def2-SVP
|  2> %pal
|  3> nprocs 16
|  4> end
|  5>
|  6> * xyz 0 1
|  7> S 	 5.38753 	 23.1056 	 57.003
|  8> C 	 5.95618 	 22.2286 	 55.5874
|  9> C 	 5.78657 	 20.8444 	 55.7886
| 10> C 	 5.45973 	 20.5733 	 57.1292
| 11> C 	 5.0609 	 21.6603 	 57.908
| 12> H 	 5.26907 	 19.5711 	 57.5245
| 13> C 	 6.11908 	 19.8856 	 54.698
| 14> H 	 5.86262 	 20.4187 	 53.7409
| 15> H 	 5.43649 	 18.954 	 54.6812
| 16> C 	 7.52488 	 19.3572 	 54.7169
| 17> H 	 7.74993 	 18.8729 	 53.7707
| 18> H 	 8.12289 	 20.2779 	 54.8615
| 19> C 	 8.01295 	 18.3782 	 55.8274
| 20> H 	 9.09729 	 18.1029 	 55.7763
| 21> H 	 7.8714 	 18.9645 	 56.6854
| 22> H 	 7.4501 	 17.4663 	 55.9792
| 23> S 	 5.07156 	 22.7457 	 60.4909
| 24> C 	 3.78718 	 22.367 	 61.6173
| 25> C 	 2.9211 	 21.5006 	 61.0204
| 26> C 	 3.28776 	 21.0186 	 59.7489
| 27> C 	 4.41134 	 21.6666 	 59.2327
| 28> H 	 2.08739 	 21.1636 	 61.551
| 29> C 	 2.47334 	 20.0374 	 58.89
| 30> H 	 2.95588 	 19.9131 	 57.9672
| 31> H 	 1.60883 	 20.5793 	 58.6327
| 32> C 	 2.28982 	 18.5898 	 59.4779
| 33> H 	 1.6333 	 18.0018 	 58.8174
| 34> H 	 1.72609 	 18.5847 	 60.4237
| 35> C 	 3.57039 	 17.8389 	 59.7571
| 36> H 	 4.12144 	 17.6718 	 58.8179
| 37> H 	 3.18954 	 17.0062 	 60.3344
| 38> H 	 4.12074 	 18.4396 	 60.4781
| 39> H 	 6.25195 	 22.6258 	 54.6732
| 40> H 	 3.77783 	 22.6965 	 62.6461
| 41> *
| 42>
| 43>                          ****END OF INPUT****

CARTESIAN COORDINATES (ANGSTROEM)
---------------------------------
  S      5.387530   23.105600   57.003000
  C      5.956180   22.228600   55.587400
  C      5.786570   20.844400   55.788600
  C      5.459730   20.573300   57.129200
  C      5.060900   21.660300   57.908000
  H      5.269070   19.571100   57.524500
  C      6.119080   19.885600   54.698000
  H      5.862620   20.418700   53.740900
  H      5.436490   18.954000   54.681200
  C      7.524880   19.357200   54.716900
  H      7.749930   18.872900   53.770700
  H      8.122890   20.277900   54.861500
  C      8.012950   18.378200   55.827400
  H      9.097290   18.102900   55.776300
  H      7.871400   18.964500   56.685400
  H      7.450100   17.466300   55.979200
  S      5.071560   22.745700   60.490900
  C      3.787180   22.367000   61.617300
  C      2.921100   21.500600   61.020400
  C      3.287760   21.018600   59.748900
  C      4.411340   21.666600   59.232700
  H      2.087390   21.163600   61.551000
  C      2.473340   20.037400   58.890000
  H      2.955880   19.913100   57.967200
  H      1.608830   20.579300   58.632700
  C      2.289820   18.589800   59.477900
  H      1.633300   18.001800   58.817400
  H      1.726090   18.584700   60.423700
  C      3.570390   17.838900   59.757100
  H      4.121440   17.671800   58.817900
  H      3.189540   17.006200   60.334400
  H      4.120740   18.439600   60.478100
  H      6.251950   22.625800   54.673200
  H      3.777830   22.696500   62.646100

 Total Charge           Charge          ....    0
 Multiplicity           Mult            ....    1
 Number of Electrons    NEL             ....  134
 Basis Dimension        Dim             ....  322

ORBITAL ENERGIES
----------------

  NO   OCC          E(Eh)            E(eV)
   0   2.0000     -88.969812     -2420.9917
   1   2.0000     -88.963249     -2420.8131
   2   2.0000     -10.334264      -281.2096
   3   2.0000     -10.332939      -281.1736
   4   2.0000     -10.319881      -280.8182
   5   2.0000     -10.314333      -280.6673
   6   2.0000     -10.306190      -280.4457
   7   2.0000     -10.302533      -280.3462
   8   2.0000     -10.300913      -280.3021
   9   2.0000     -10.295481      -280.1543
  10   2.0000     -10.289311      -279.9864
  11   2.0000     -10.289251      -279.9847
  12   2.0000     -10.286795      -279.9179
  13   2.0000     -10.285473      -279.8820
  14   2.0000     -10.277243      -279.6580
  15   2.0000     -10.275319      -279.6056
  16   2.0000      -8.084213      -219.9826
  17   2.0000      -8.077753      -219.8068
  18   2.0000      -6.042652      -164.4289
  19   2.0000      -6.038596      -164.3186
  20   2.0000      -6.036237      -164.2544
  21   2.0000      -6.035213      -164.2265
  22   2.0000      -6.032203      -164.1446
  23   2.0000      -6.028630      -164.0474
  24   2.0000      -1.006822       -27.3970
  25   2.0000      -0.987208       -26.8633
  26   2.0000      -0.916002       -24.9257
  27   2.0000      -0.907992       -24.7077
  28   2.0000      -0.868954       -23.6455
  29   2.0000      -0.853200       -23.2168
  30   2.0000      -0.843951       -22.9651
  31   2.0000      -0.819900       -22.3106
  32   2.0000      -0.788049       -21.4439
  33   2.0000      -0.776350       -21.1255
  34   2.0000      -0.707171       -19.2431
  35   2.0000      -0.698238       -19.0000
  36   2.0000      -0.694110       -18.8877
  37   2.0000      -0.658407       -17.9162
  38   2.0000      -0.642669       -17.4879
  39   2.0000      -0.619652       -16.8616
  40   2.0000      -0.600150       -16.3309
  41   2.0000      -0.581599       -15.8261
  42   2.0000      -0.561809       -15.2876
  43   2.0000      -0.548653       -14.9296
  44   2.0000      -0.547311       -14.8931
  45   2.0000      -0.541872       -14.7451
  46   2.0000      -0.522938       -14.2299
  47   2.0000      -0.509217       -13.8565
  48   2.0000      -0.507698       -13.8152
  49   2.0000      -0.495847       -13.4927
  50   2.0000      -0.488310       -13.2876
  51   2.0000      -0.484699       -13.1893
  52   2.0000      -0.477353       -12.9894
  53   2.0000      -0.468152       -12.7391
  54   2.0000      -0.462855       -12.5949
  55   2.0000      -0.449914       -12.2428
  56   2.0000      -0.440221       -11.9790
  57   2.0000      -0.436320       -11.8729
  58   2.0000      -0.431641       -11.7455
  59   2.0000      -0.421206       -11.4616
  60   2.0000      -0.416784       -11.3413
  61   2.0000      -0.410410       -11.1678
  62   2.0000      -0.406493       -11.0612
  63   2.0000      -0.346266        -9.4224
  64   2.0000      -0.334450        -9.1008
  65   2.0000      -0.332198        -9.0396
  66   2.0000      -0.293910        -7.9977
  67   0.0000       0.026091         0.7100
  68   0.0000       0.064508         1.7554
  69   0.0000       0.112019         3.0482
  70   0.0000       0.124228         3.3804
  71   0.0000       0.128583         3.4989

MULLIKEN ATOMIC CHARGES
-----------------------
   0 S :    0.128004
   1 C :   -0.088598
   2 C :   -0.117331
   3 C :    0.052029
   4 C :   -0.158157
   5 H :    0.003835
   6 C :    0.030154
   7 H :    0.036956
   8 H :    0.033139
   9 C :   -0.065198
  10 H :    0.031674
  11 H :    0.025353
  12 C :   -0.047921
  13 H :    0.047119
  14 H :    0.019918
  15 H :    0.026828
  16 S :    0.091140
  17 C :   -0.087529
  18 C :   -0.012124
  19 C :   -0.054013
  20 C :   -0.167326
  21 H :   -0.004544
  22 C :    0.137839
  23 H :   -0.004361
  24 H :    0.026232
  25 C :   -0.113505
  26 H :    0.028789
  27 H :    0.021197
  28 C :   -0.034742
  29 H :    0.051074
  30 H :    0.034571
  31 H :    0.039613
  32 H :    0.024585
  33 H :    0.065303
Sum of atomic charges:   -0.0000000

LOEWDIN ATOMIC CHARGES
----------------------
   0 S :    0.423239
   1 C :   -0.186808
   2 C :   -0.065305
   3 C :   -0.072069
   4 C :   -0.200540
   5 H :    0.028029
   6 C :   -0.042669
   7 H :    0.040382
   8 H :    0.035313
   9 C :   -0.042247
  10 H :    0.021178
  11 H :    0.027690
  12 C :   -0.067808
  13 H :    0.036475
  14 H :    0.018573
  15 H :    0.020296
  16 S :    0.389331
  17 C :   -0.175073
  18 C :   -0.071081
  19 C :   -0.050640
  20 C :   -0.190497
  21 H :    0.022345
  22 C :   -0.023605
  23 H :    0.022121
  24 H :    0.030063
  25 C :   -0.042369
  26 H :    0.023045
  27 H :    0.019694
  28 C :   -0.062824
  29 H :    0.026554
  30 H :    0.032111
  31 H :    0.028191
  32 H :    0.015155
  33 H :    0.033753

  Mayer bond orders larger than 0.100000
B(  0-S ,  1-C ) :   1.1540 B(  0-S ,  4-C ) :   1.1744 B(  1-C ,  2-C ) :   1.5564
B(  1-C ,  4-C ) :   0.1113 B(  1-C , 32-H ) :   0.9750 B(  2-C ,  3-C ) :   1.2771
B(  2-C ,  6-C ) :   1.0407 B(  3-C ,  4-C ) :   1.5370 B(  3-C ,  5-H ) :   0.9851
B(  4-C , 20-C ) :   1.0336 B(  6-C ,  7-H ) :   0.9358 B(  6-C ,  8-H ) :   0.9363
B(  6-C ,  9-C ) :   1.0688 B(  9-C , 10-H ) :   0.9563 B(  9-C , 11-H ) :   0.9526
B(  9-C , 12-C ) :   1.0720 B( 12-C , 13-H ) :   0.9734 B( 12-C , 14-H ) :   0.9736
B( 12-C , 15-H ) :   0.9760 B( 16-S , 17-C ) :   1.1558 B( 16-S , 20-C ) :   1.1463
B( 17-C , 18-C ) :   1.5858 B( 17-C , 20-C ) :   0.1051 B( 17-C , 33-H ) :   0.9711
B( 18-C , 19-C ) :   1.2558 B( 18-C , 21-H ) :   1.0016 B( 19-C , 20-C ) :   1.5676
B( 19-C , 22-C ) :   1.0323 B( 22-C , 23-H ) :   0.9288 B( 22-C , 24-H ) :   0.9331
B( 22-C , 25-C ) :   1.0543 B( 25-C , 26-H ) :   0.9579 B( 25-C , 27-H ) :   0.9618
B( 25-C , 28-C ) :   1.0740 B( 28-C , 29-H ) :   0.9710 B( 28-C , 30-H ) :   0.9701
B( 28-C , 31-H ) :   0.9727

Dispersion correction           -0.015001761
FINAL SINGLE POINT ENERGY     -1339.871493844031

DIPOLE MOMENT
-------------
                                X             Y             Z
Electronic contribution:     -0.58328      26.31961       8.45707
Nuclear contribution   :      0.24141     -26.88083      -8.55596
                        -----------------------------------------
Total Dipole Moment    :     -0.34187      -0.56122      -0.09889
                        -----------------------------------------
Magnitude (a.u.)       :      0.66455
Magnitude (Debye)      :      1.68915

Rotational constants in cm-1:     0.018707     0.009153     0.007119
Rotational constants in MHz :   560.812007   274.386038   213.431468

                             ****ORCA TERMINATED NORMALLY****
TOTAL RUN TIME: 0 days 0 hours 0 minutes 35 seconds 482 msec
