                         Program Version 4.2.1 -  RELEASE  -
|  1> ! wB97X-D3 SP def2-SVP
|  2> %pal
|  3> nprocs 16
|  4> end
|  5>
|  6> * xyz 0 1
|  7> S 	 -43.166 	 54.0687 	 102.029
|  8> C 	 -44.1589 	 54.1963 	 103.447
|  9> C 	 -44.506 	 52.9869 	 104.009
| 10> C 	 -43.7204 	 51.9389 	 103.418
| 11> C 	 -43.1145 	 52.2736 	 102.203
| 12> H 	 -43.6907 	 50.9814 	 103.764
| 13> C 	 -45.2955 	 52.8643 	 105.293
| 14> H 	 -45.097 	 51.8448 	 105.594
| 15> H 	 -46.3465 	 52.8204 	 105.065
| 16> C 	 -44.9769 	 53.9162 	 106.375
| 17> H 	 -45.3726 	 54.8551 	 106.022
| 18> H 	 -45.5385 	 53.7553 	 107.292
| 19> C 	 -43.553 	 54.0345 	 106.803
| 20> H 	 -43.5222 	 54.2292 	 107.915
| 21> H 	 -42.9637 	 53.1467 	 106.81
| 22> H 	 -43.0136 	 54.804 	 106.342
| 23> S 	 -40.7242 	 52.0836 	 100.84
| 24> C 	 -40.2129 	 50.5215 	 100.24
| 25> C 	 -41.1922 	 49.5798 	 100.323
| 26> C 	 -42.3074 	 50.0744 	 101.012
| 27> C 	 -42.2746 	 51.4352 	 101.34
| 28> H 	 -40.9489 	 48.5802 	 100.007
| 29> C 	 -43.408 	 49.0797 	 101.431
| 30> H 	 -43.8004 	 48.6143 	 100.477
| 31> H 	 -44.2841 	 49.6356 	 101.783
| 32> C 	 -43.0021 	 47.8971 	 102.429
| 33> H 	 -42.3071 	 47.2836 	 101.946
| 34> H 	 -43.9139 	 47.2054 	 102.598
| 35> C 	 -42.3838 	 48.3454 	 103.783
| 36> H 	 -43.0945 	 49.0397 	 104.262
| 37> H 	 -41.4239 	 48.8646 	 103.53
| 38> H 	 -42.1991 	 47.3684 	 104.286
| 39> H 	 -44.6743 	 55.0862 	 103.765
| 40> H 	 -39.3767 	 50.4249 	 99.715
| 41> *
| 42>
| 43>                          ****END OF INPUT****

CARTESIAN COORDINATES (ANGSTROEM)
---------------------------------
  S    -43.166000   54.068700  102.029000
  C    -44.158900   54.196300  103.447000
  C    -44.506000   52.986900  104.009000
  C    -43.720400   51.938900  103.418000
  C    -43.114500   52.273600  102.203000
  H    -43.690700   50.981400  103.764000
  C    -45.295500   52.864300  105.293000
  H    -45.097000   51.844800  105.594000
  H    -46.346500   52.820400  105.065000
  C    -44.976900   53.916200  106.375000
  H    -45.372600   54.855100  106.022000
  H    -45.538500   53.755300  107.292000
  C    -43.553000   54.034500  106.803000
  H    -43.522200   54.229200  107.915000
  H    -42.963700   53.146700  106.810000
  H    -43.013600   54.804000  106.342000
  S    -40.724200   52.083600  100.840000
  C    -40.212900   50.521500  100.240000
  C    -41.192200   49.579800  100.323000
  C    -42.307400   50.074400  101.012000
  C    -42.274600   51.435200  101.340000
  H    -40.948900   48.580200  100.007000
  C    -43.408000   49.079700  101.431000
  H    -43.800400   48.614300  100.477000
  H    -44.284100   49.635600  101.783000
  C    -43.002100   47.897100  102.429000
  H    -42.307100   47.283600  101.946000
  H    -43.913900   47.205400  102.598000
  C    -42.383800   48.345400  103.783000
  H    -43.094500   49.039700  104.262000
  H    -41.423900   48.864600  103.530000
  H    -42.199100   47.368400  104.286000
  H    -44.674300   55.086200  103.765000
  H    -39.376700   50.424900   99.715000

 Total Charge           Charge          ....    0
 Multiplicity           Mult            ....    1
 Number of Electrons    NEL             ....  134
 Basis Dimension        Dim             ....  322

ORBITAL ENERGIES
----------------

  NO   OCC          E(Eh)            E(eV)
   0   2.0000     -88.967459     -2420.9276
   1   2.0000     -88.964068     -2420.8354
   2   2.0000     -10.336198      -281.2622
   3   2.0000     -10.330530      -281.1080
   4   2.0000     -10.310122      -280.5527
   5   2.0000     -10.308278      -280.5025
   6   2.0000     -10.305413      -280.4245
   7   2.0000     -10.298484      -280.2360
   8   2.0000     -10.297184      -280.2006
   9   2.0000     -10.294176      -280.1188
  10   2.0000     -10.291693      -280.0512
  11   2.0000     -10.291251      -280.0392
  12   2.0000     -10.291221      -280.0384
  13   2.0000     -10.287227      -279.9297
  14   2.0000     -10.286117      -279.8995
  15   2.0000     -10.268788      -279.4279
  16   2.0000      -8.081436      -219.9070
  17   2.0000      -8.079092      -219.8433
  18   2.0000      -6.040045      -164.3580
  19   2.0000      -6.037513      -164.2891
  20   2.0000      -6.036089      -164.2503
  21   2.0000      -6.033551      -164.1813
  22   2.0000      -6.032110      -164.1420
  23   2.0000      -6.029933      -164.0828
  24   2.0000      -1.005862       -27.3709
  25   2.0000      -0.984439       -26.7880
  26   2.0000      -0.914096       -24.8738
  27   2.0000      -0.897233       -24.4150
  28   2.0000      -0.871738       -23.7212
  29   2.0000      -0.852091       -23.1866
  30   2.0000      -0.846644       -23.0384
  31   2.0000      -0.818453       -22.2713
  32   2.0000      -0.784340       -21.3430
  33   2.0000      -0.771477       -20.9930
  34   2.0000      -0.711602       -19.3637
  35   2.0000      -0.706978       -19.2378
  36   2.0000      -0.694743       -18.9049
  37   2.0000      -0.662834       -18.0366
  38   2.0000      -0.641015       -17.4429
  39   2.0000      -0.617478       -16.8024
  40   2.0000      -0.596310       -16.2264
  41   2.0000      -0.577714       -15.7204
  42   2.0000      -0.554245       -15.0818
  43   2.0000      -0.547154       -14.8888
  44   2.0000      -0.544235       -14.8094
  45   2.0000      -0.538139       -14.6435
  46   2.0000      -0.521311       -14.1856
  47   2.0000      -0.515826       -14.0363
  48   2.0000      -0.503041       -13.6885
  49   2.0000      -0.495035       -13.4706
  50   2.0000      -0.491304       -13.3691
  51   2.0000      -0.478483       -13.0202
  52   2.0000      -0.469884       -12.7862
  53   2.0000      -0.464951       -12.6519
  54   2.0000      -0.462576       -12.5873
  55   2.0000      -0.446746       -12.1566
  56   2.0000      -0.440631       -11.9902
  57   2.0000      -0.437763       -11.9121
  58   2.0000      -0.429272       -11.6811
  59   2.0000      -0.423780       -11.5316
  60   2.0000      -0.420013       -11.4291
  61   2.0000      -0.415384       -11.3032
  62   2.0000      -0.411583       -11.1997
  63   2.0000      -0.356643        -9.7048
  64   2.0000      -0.333839        -9.0842
  65   2.0000      -0.327880        -8.9221
  66   2.0000      -0.286137        -7.7862
  67   0.0000       0.022202         0.6042
  68   0.0000       0.073732         2.0063
  69   0.0000       0.103323         2.8116
  70   0.0000       0.119163         3.2426
  71   0.0000       0.133057         3.6207

MULLIKEN ATOMIC CHARGES
-----------------------
   0 S :    0.102615
   1 C :   -0.104000
   2 C :   -0.125346
   3 C :    0.092612
   4 C :   -0.129922
   5 H :   -0.084917
   6 C :    0.112084
   7 H :    0.003896
   8 H :    0.032572
   9 C :   -0.066649
  10 H :    0.018036
  11 H :    0.026564
  12 C :   -0.018567
  13 H :    0.021352
  14 H :    0.021508
  15 H :    0.028450
  16 S :    0.090695
  17 C :   -0.041844
  18 C :   -0.019990
  19 C :   -0.063280
  20 C :   -0.113950
  21 H :    0.020715
  22 C :    0.031444
  23 H :    0.036883
  24 H :    0.026009
  25 C :   -0.094438
  26 H :    0.014156
  27 H :    0.041281
  28 C :   -0.074981
  29 H :    0.058742
  30 H :    0.058231
  31 H :    0.049725
  32 H :    0.044028
  33 H :    0.006283
Sum of atomic charges:   -0.0000000

LOEWDIN ATOMIC CHARGES
----------------------
   0 S :    0.387479
   1 C :   -0.195434
   2 C :   -0.062909
   3 C :   -0.044496
   4 C :   -0.171989
   5 H :    0.005965
   6 C :   -0.029390
   7 H :    0.025877
   8 H :    0.033730
   9 C :   -0.041653
  10 H :    0.021822
  11 H :    0.028487
  12 C :   -0.065232
  13 H :    0.034669
  14 H :    0.024843
  15 H :    0.019345
  16 S :    0.403506
  17 C :   -0.152626
  18 C :   -0.067063
  19 C :   -0.061116
  20 C :   -0.199593
  21 H :    0.035210
  22 C :   -0.040852
  23 H :    0.037891
  24 H :    0.025298
  25 C :   -0.041575
  26 H :    0.009183
  27 H :    0.032107
  28 C :   -0.069877
  29 H :    0.023497
  30 H :    0.035434
  31 H :    0.035305
  32 H :    0.025330
  33 H :   -0.001176

  Mayer bond orders larger than 0.100000
B(  0-S ,  1-C ) :   1.1451 B(  0-S ,  4-C ) :   1.1304 B(  1-C ,  2-C ) :   1.6254
B(  1-C , 32-H ) :   0.9581 B(  2-C ,  3-C ) :   1.2413 B(  2-C ,  6-C ) :   1.0150
B(  3-C ,  4-C ) :   1.5745 B(  3-C ,  5-H ) :   0.9911 B(  4-C , 20-C ) :   1.0543
B(  6-C ,  7-H ) :   0.9406 B(  6-C ,  8-H ) :   0.9258 B(  6-C ,  9-C ) :   1.0823
B(  9-C , 10-H ) :   0.9505 B(  9-C , 11-H ) :   0.9589 B(  9-C , 12-C ) :   1.0758
B( 12-C , 13-H ) :   0.9741 B( 12-C , 14-H ) :   0.9748 B( 12-C , 15-H ) :   0.9741
B( 16-S , 17-C ) :   1.1692 B( 16-S , 20-C ) :   1.1369 B( 17-C , 18-C ) :   1.5991
B( 17-C , 33-H ) :   0.9782 B( 18-C , 19-C ) :   1.2449 B( 18-C , 21-H ) :   0.9987
B( 19-C , 20-C ) :   1.5839 B( 19-C , 22-C ) :   1.0385 B( 22-C , 23-H ) :   0.9373
B( 22-C , 24-H ) :   0.9413 B( 22-C , 25-C ) :   1.0556 B( 25-C , 26-H ) :   0.9568
B( 25-C , 27-H ) :   0.9578 B( 25-C , 28-C ) :   1.0685 B( 28-C , 29-H ) :   0.9694
B( 28-C , 30-H ) :   0.9730 B( 28-C , 31-H ) :   0.9703

Dispersion correction           -0.015238522
FINAL SINGLE POINT ENERGY     -1339.860213491557

DIPOLE MOMENT
-------------
                                X             Y             Z
Electronic contribution:      9.30948      12.21018     -21.27445
Nuclear contribution   :     -9.49389     -12.74888      21.69904
                        -----------------------------------------
Total Dipole Moment    :     -0.18441      -0.53870       0.42459
                        -----------------------------------------
Magnitude (a.u.)       :      0.71027
Magnitude (Debye)      :      1.80537

Rotational constants in cm-1:     0.020459     0.008860     0.006991
Rotational constants in MHz :   613.359040   265.621761   209.598699

                             ****ORCA TERMINATED NORMALLY****
TOTAL RUN TIME: 0 days 0 hours 0 minutes 31 seconds 59 msec
