                         Program Version 4.2.1 -  RELEASE  -
|  1> ! wB97X-D3 SP def2-SVP
|  2> %pal
|  3> nprocs 16
|  4> end
|  5>
|  6> * xyz 0 1
|  7> S 	 37.4003 	 8.29339 	 91.4841
|  8> C 	 38.7695 	 8.06141 	 90.4086
|  9> C 	 38.4864 	 8.51165 	 89.1439
| 10> C 	 37.1711 	 9.00043 	 89.0219
| 11> C 	 36.4674 	 9.03248 	 90.1806
| 12> H 	 36.7036 	 9.46689 	 88.1289
| 13> C 	 39.5593 	 8.56334 	 88.0663
| 14> H 	 39.577 	 7.52759 	 87.6168
| 15> H 	 40.4873 	 8.6513 	 88.5654
| 16> C 	 39.4341 	 9.59078 	 86.9345
| 17> H 	 38.9678 	 10.5219 	 87.4087
| 18> H 	 40.4722 	 9.89571 	 86.7782
| 19> C 	 38.5456 	 9.13704 	 85.725
| 20> H 	 37.5288 	 8.91296 	 86.0136
| 21> H 	 38.5594 	 9.83505 	 84.8675
| 22> H 	 38.8849 	 8.13433 	 85.329
| 23> S 	 34.0364 	 8.66212 	 91.4233
| 24> C 	 32.6461 	 9.58291 	 91.0077
| 25> C 	 33.0124 	 10.5624 	 90.0889
| 26> C 	 34.4167 	 10.6084 	 89.6467
| 27> C 	 35.086 	 9.53563 	 90.2829
| 28> H 	 32.2607 	 11.224 	 89.6129
| 29> C 	 34.9027 	 11.5393 	 88.5238
| 30> H 	 35.8367 	 12.1102 	 88.6462
| 31> H 	 34.229 	 12.2887 	 88.6779
| 32> C 	 34.7146 	 11.0961 	 86.9975
| 33> H 	 35.5018 	 10.563 	 86.5744
| 34> H 	 34.4473 	 11.9644 	 86.3181
| 35> C 	 33.4067 	 10.2145 	 86.7283
| 36> H 	 33.318 	 9.88807 	 85.7003
| 37> H 	 32.5006 	 10.8038 	 87.0213
| 38> H 	 33.4391 	 9.29189 	 87.3006
| 39> H 	 39.7368 	 7.61467 	 90.6549
| 40> H 	 31.6474 	 9.36085 	 91.4583
| 41> *
| 42>
| 43>                          ****END OF INPUT****

CARTESIAN COORDINATES (ANGSTROEM)
---------------------------------
  S     37.400300    8.293390   91.484100
  C     38.769500    8.061410   90.408600
  C     38.486400    8.511650   89.143900
  C     37.171100    9.000430   89.021900
  C     36.467400    9.032480   90.180600
  H     36.703600    9.466890   88.128900
  C     39.559300    8.563340   88.066300
  H     39.577000    7.527590   87.616800
  H     40.487300    8.651300   88.565400
  C     39.434100    9.590780   86.934500
  H     38.967800   10.521900   87.408700
  H     40.472200    9.895710   86.778200
  C     38.545600    9.137040   85.725000
  H     37.528800    8.912960   86.013600
  H     38.559400    9.835050   84.867500
  H     38.884900    8.134330   85.329000
  S     34.036400    8.662120   91.423300
  C     32.646100    9.582910   91.007700
  C     33.012400   10.562400   90.088900
  C     34.416700   10.608400   89.646700
  C     35.086000    9.535630   90.282900
  H     32.260700   11.224000   89.612900
  C     34.902700   11.539300   88.523800
  H     35.836700   12.110200   88.646200
  H     34.229000   12.288700   88.677900
  C     34.714600   11.096100   86.997500
  H     35.501800   10.563000   86.574400
  H     34.447300   11.964400   86.318100
  C     33.406700   10.214500   86.728300
  H     33.318000    9.888070   85.700300
  H     32.500600   10.803800   87.021300
  H     33.439100    9.291890   87.300600
  H     39.736800    7.614670   90.654900
  H     31.647400    9.360850   91.458300

 Total Charge           Charge          ....    0
 Multiplicity           Mult            ....    1
 Number of Electrons    NEL             ....  134
 Basis Dimension        Dim             ....  322

ORBITAL ENERGIES
----------------

  NO   OCC          E(Eh)            E(eV)
   0   2.0000     -88.967058     -2420.9167
   1   2.0000     -88.965019     -2420.8612
   2   2.0000     -10.335305      -281.2380
   3   2.0000     -10.327636      -281.0293
   4   2.0000     -10.322594      -280.8921
   5   2.0000     -10.316456      -280.7250
   6   2.0000     -10.311418      -280.5879
   7   2.0000     -10.303093      -280.3614
   8   2.0000     -10.299511      -280.2639
   9   2.0000     -10.299071      -280.2520
  10   2.0000     -10.298472      -280.2357
  11   2.0000     -10.296538      -280.1830
  12   2.0000     -10.292002      -280.0596
  13   2.0000     -10.291703      -280.0515
  14   2.0000     -10.289397      -279.9887
  15   2.0000     -10.280456      -279.7454
  16   2.0000      -8.081163      -219.8996
  17   2.0000      -8.080033      -219.8689
  18   2.0000      -6.039828      -164.3521
  19   2.0000      -6.038549      -164.3173
  20   2.0000      -6.035788      -164.2421
  21   2.0000      -6.034349      -164.2030
  22   2.0000      -6.031771      -164.1328
  23   2.0000      -6.030921      -164.1097
  24   2.0000      -1.004869       -27.3439
  25   2.0000      -0.982456       -26.7340
  26   2.0000      -0.908764       -24.7287
  27   2.0000      -0.902203       -24.5502
  28   2.0000      -0.866962       -23.5912
  29   2.0000      -0.846366       -23.0308
  30   2.0000      -0.839406       -22.8414
  31   2.0000      -0.813782       -22.1441
  32   2.0000      -0.788011       -21.4429
  33   2.0000      -0.775257       -21.0958
  34   2.0000      -0.711234       -19.3537
  35   2.0000      -0.701117       -19.0784
  36   2.0000      -0.689337       -18.7578
  37   2.0000      -0.659692       -17.9511
  38   2.0000      -0.634848       -17.2751
  39   2.0000      -0.619978       -16.8705
  40   2.0000      -0.593230       -16.1426
  41   2.0000      -0.562042       -15.2939
  42   2.0000      -0.558669       -15.2021
  43   2.0000      -0.548610       -14.9284
  44   2.0000      -0.539635       -14.6842
  45   2.0000      -0.526590       -14.3292
  46   2.0000      -0.513669       -13.9777
  47   2.0000      -0.507852       -13.8194
  48   2.0000      -0.504118       -13.7177
  49   2.0000      -0.495011       -13.4699
  50   2.0000      -0.489396       -13.3171
  51   2.0000      -0.485388       -13.2081
  52   2.0000      -0.474584       -12.9141
  53   2.0000      -0.463293       -12.6068
  54   2.0000      -0.457108       -12.4385
  55   2.0000      -0.446638       -12.1536
  56   2.0000      -0.441865       -12.0238
  57   2.0000      -0.437799       -11.9131
  58   2.0000      -0.436391       -11.8748
  59   2.0000      -0.428489       -11.6598
  60   2.0000      -0.422554       -11.4983
  61   2.0000      -0.412424       -11.2226
  62   2.0000      -0.411092       -11.1864
  63   2.0000      -0.354503        -9.6465
  64   2.0000      -0.331092        -9.0095
  65   2.0000      -0.329684        -8.9711
  66   2.0000      -0.286908        -7.8072
  67   0.0000       0.025415         0.6916
  68   0.0000       0.078388         2.1331
  69   0.0000       0.107163         2.9161
  70   0.0000       0.116173         3.1612
  71   0.0000       0.129167         3.5148

MULLIKEN ATOMIC CHARGES
-----------------------
   0 S :    0.112630
   1 C :   -0.137891
   2 C :   -0.071493
   3 C :    0.001528
   4 C :   -0.104352
   5 H :   -0.011581
   6 C :    0.066718
   7 H :    0.041164
   8 H :    0.012060
   9 C :   -0.079909
  10 H :    0.037129
  11 H :    0.034346
  12 C :   -0.058890
  13 H :    0.034408
  14 H :    0.049949
  15 H :    0.030665
  16 S :    0.097744
  17 C :   -0.107274
  18 C :   -0.052283
  19 C :   -0.059468
  20 C :   -0.165771
  21 H :    0.029180
  22 C :    0.123480
  23 H :    0.046583
  24 H :   -0.008956
  25 C :   -0.097248
  26 H :    0.032326
  27 H :    0.046529
  28 C :   -0.090463
  29 H :    0.035101
  30 H :    0.036198
  31 H :    0.046110
  32 H :    0.048344
  33 H :    0.083385
Sum of atomic charges:    0.0000000

LOEWDIN ATOMIC CHARGES
----------------------
   0 S :    0.392839
   1 C :   -0.200153
   2 C :   -0.064879
   3 C :   -0.072767
   4 C :   -0.187293
   5 H :    0.036353
   6 C :   -0.034364
   7 H :    0.039557
   8 H :    0.024798
   9 C :   -0.048188
  10 H :    0.031219
  11 H :    0.029636
  12 C :   -0.069796
  13 H :    0.021624
  14 H :    0.031057
  15 H :    0.030372
  16 S :    0.405570
  17 C :   -0.208343
  18 C :   -0.074469
  19 C :   -0.057129
  20 C :   -0.175411
  21 H :    0.030568
  22 C :   -0.036246
  23 H :    0.042000
  24 H :    0.023539
  25 C :   -0.033960
  26 H :    0.007156
  27 H :    0.037172
  28 C :   -0.070015
  29 H :    0.024012
  30 H :    0.025468
  31 H :    0.024019
  32 H :    0.032534
  33 H :    0.043519

  Mayer bond orders larger than 0.100000
B(  0-S ,  1-C ) :   1.1270 B(  0-S ,  4-C ) :   1.1357 B(  1-C ,  2-C ) :   1.6237
B(  1-C , 32-H ) :   0.9656 B(  2-C ,  3-C ) :   1.2400 B(  2-C ,  6-C ) :   1.0068
B(  3-C ,  4-C ) :   1.5932 B(  3-C ,  5-H ) :   0.9822 B(  4-C , 20-C ) :   1.0572
B(  6-C ,  7-H ) :   0.9308 B(  6-C ,  8-H ) :   0.9436 B(  6-C ,  9-C ) :   1.0660
B(  9-C , 10-H ) :   0.9587 B(  9-C , 11-H ) :   0.9604 B(  9-C , 12-C ) :   1.0532
B( 12-C , 13-H ) :   0.9748 B( 12-C , 14-H ) :   0.9761 B( 12-C , 15-H ) :   0.9717
B( 16-S , 17-C ) :   1.1504 B( 16-S , 20-C ) :   1.1572 B( 17-C , 18-C ) :   1.5981
B( 17-C , 33-H ) :   0.9664 B( 18-C , 19-C ) :   1.2398 B( 18-C , 21-H ) :   0.9763
B( 19-C , 20-C ) :   1.5618 B( 19-C , 22-C ) :   1.0386 B( 22-C , 23-H ) :   0.9424
B( 22-C , 24-H ) :   0.9084 B( 22-C , 25-C ) :   1.0389 B( 25-C , 26-H ) :   0.9611
B( 25-C , 27-H ) :   0.9602 B( 25-C , 28-C ) :   1.0745 B( 28-C , 29-H ) :   0.9754
B( 28-C , 30-H ) :   0.9789 B( 28-C , 31-H ) :   0.9712

Dispersion correction           -0.015601021
FINAL SINGLE POINT ENERGY     -1339.863887862398

DIPOLE MOMENT
-------------
                                X             Y             Z
Electronic contribution:     -4.33288      -8.68416      29.42754
Nuclear contribution   :      4.42452       8.96164     -30.14289
                        -----------------------------------------
Total Dipole Moment    :      0.09163       0.27748      -0.71536
                        -----------------------------------------
Magnitude (a.u.)       :      0.77274
Magnitude (Debye)      :      1.96416

Rotational constants in cm-1:     0.017290     0.010854     0.007132
Rotational constants in MHz :   518.354725   325.390508   213.819490

                             ****ORCA TERMINATED NORMALLY****
TOTAL RUN TIME: 0 days 0 hours 0 minutes 30 seconds 673 msec
