                         Program Version 4.2.1 -  RELEASE  -
|  1> ! wB97X-D3 SP def2-SVP
|  2> %pal
|  3> nprocs 16
|  4> end
|  5>
|  6> * xyz 0 1
|  7> S 	 -43.1059 	 24.8605 	 86.1141
|  8> C 	 -44.0747 	 23.6913 	 85.2526
|  9> C 	 -43.3542 	 22.9928 	 84.3144
| 10> C 	 -42.1066 	 23.6226 	 84.1036
| 11> C 	 -41.8028 	 24.6302 	 84.8858
| 12> H 	 -41.4377 	 23.3385 	 83.3112
| 13> C 	 -43.8644 	 21.8325 	 83.4395
| 14> H 	 -43.5222 	 22.1789 	 82.4279
| 15> H 	 -44.9917 	 21.9048 	 83.4314
| 16> C 	 -43.4501 	 20.3809 	 83.7175
| 17> H 	 -43.9102 	 19.6161 	 83.0088
| 18> H 	 -42.4444 	 20.3054 	 83.5131
| 19> C 	 -43.7859 	 19.8827 	 85.1211
| 20> H 	 -43.1883 	 20.3396 	 85.904
| 21> H 	 -44.771 	 20.3513 	 85.1607
| 22> H 	 -44.0187 	 18.7407 	 85.1974
| 23> S 	 -41.2568 	 27.2197 	 84.2862
| 24> C 	 -39.5892 	 27.7302 	 84.095
| 25> C 	 -38.6891 	 26.6901 	 84.3206
| 26> C 	 -39.3629 	 25.5226 	 84.7651
| 27> C 	 -40.7716 	 25.6199 	 84.6958
| 28> H 	 -37.6138 	 26.7718 	 84.1578
| 29> C 	 -38.5514 	 24.2558 	 85.0523
| 30> H 	 -37.4975 	 24.6329 	 85.1552
| 31> H 	 -38.6092 	 23.6763 	 84.1573
| 32> C 	 -38.9016 	 23.4307 	 86.3477
| 33> H 	 -39.9688 	 23.1272 	 86.3097
| 34> H 	 -38.7617 	 24.1106 	 87.2205
| 35> C 	 -37.991 	 22.1818 	 86.5406
| 36> H 	 -37.8595 	 21.5491 	 85.6562
| 37> H 	 -38.4688 	 21.5979 	 87.3047
| 38> H 	 -37.0485 	 22.4945 	 86.7221
| 39> H 	 -45.0989 	 23.4272 	 85.5925
| 40> H 	 -39.2823 	 28.6551 	 83.7452
| 41> *
| 42>
| 43>                          ****END OF INPUT****

CARTESIAN COORDINATES (ANGSTROEM)
---------------------------------
  S    -43.105900   24.860500   86.114100
  C    -44.074700   23.691300   85.252600
  C    -43.354200   22.992800   84.314400
  C    -42.106600   23.622600   84.103600
  C    -41.802800   24.630200   84.885800
  H    -41.437700   23.338500   83.311200
  C    -43.864400   21.832500   83.439500
  H    -43.522200   22.178900   82.427900
  H    -44.991700   21.904800   83.431400
  C    -43.450100   20.380900   83.717500
  H    -43.910200   19.616100   83.008800
  H    -42.444400   20.305400   83.513100
  C    -43.785900   19.882700   85.121100
  H    -43.188300   20.339600   85.904000
  H    -44.771000   20.351300   85.160700
  H    -44.018700   18.740700   85.197400
  S    -41.256800   27.219700   84.286200
  C    -39.589200   27.730200   84.095000
  C    -38.689100   26.690100   84.320600
  C    -39.362900   25.522600   84.765100
  C    -40.771600   25.619900   84.695800
  H    -37.613800   26.771800   84.157800
  C    -38.551400   24.255800   85.052300
  H    -37.497500   24.632900   85.155200
  H    -38.609200   23.676300   84.157300
  C    -38.901600   23.430700   86.347700
  H    -39.968800   23.127200   86.309700
  H    -38.761700   24.110600   87.220500
  C    -37.991000   22.181800   86.540600
  H    -37.859500   21.549100   85.656200
  H    -38.468800   21.597900   87.304700
  H    -37.048500   22.494500   86.722100
  H    -45.098900   23.427200   85.592500
  H    -39.282300   28.655100   83.745200

 Total Charge           Charge          ....    0
 Multiplicity           Mult            ....    1
 Number of Electrons    NEL             ....  134
 Basis Dimension        Dim             ....  322

ORBITAL ENERGIES
----------------

  NO   OCC          E(Eh)            E(eV)
   0   2.0000     -88.967795     -2420.9368
   1   2.0000     -88.962259     -2420.7861
   2   2.0000     -10.323618      -280.9199
   3   2.0000     -10.322486      -280.8891
   4   2.0000     -10.317705      -280.7590
   5   2.0000     -10.313466      -280.6437
   6   2.0000     -10.304175      -280.3909
   7   2.0000     -10.302812      -280.3538
   8   2.0000     -10.301507      -280.3183
   9   2.0000     -10.294598      -280.1302
  10   2.0000     -10.292996      -280.0867
  11   2.0000     -10.289685      -279.9966
  12   2.0000     -10.287231      -279.9298
  13   2.0000     -10.286710      -279.9156
  14   2.0000     -10.282983      -279.8142
  15   2.0000     -10.267999      -279.4065
  16   2.0000      -8.082626      -219.9394
  17   2.0000      -8.076837      -219.7819
  18   2.0000      -6.041026      -164.3847
  19   2.0000      -6.037009      -164.2754
  20   2.0000      -6.035396      -164.2315
  21   2.0000      -6.033603      -164.1827
  22   2.0000      -6.031537      -164.1265
  23   2.0000      -6.027362      -164.0129
  24   2.0000      -1.010128       -27.4870
  25   2.0000      -0.985931       -26.8285
  26   2.0000      -0.910808       -24.7843
  27   2.0000      -0.898550       -24.4508
  28   2.0000      -0.873162       -23.7600
  29   2.0000      -0.852647       -23.2017
  30   2.0000      -0.848319       -23.0839
  31   2.0000      -0.816675       -22.2229
  32   2.0000      -0.779860       -21.2211
  33   2.0000      -0.768265       -20.9056
  34   2.0000      -0.710340       -19.3293
  35   2.0000      -0.697188       -18.9715
  36   2.0000      -0.689153       -18.7528
  37   2.0000      -0.663760       -18.0618
  38   2.0000      -0.643805       -17.5188
  39   2.0000      -0.624599       -16.9962
  40   2.0000      -0.589009       -16.0277
  41   2.0000      -0.565132       -15.3780
  42   2.0000      -0.564081       -15.3494
  43   2.0000      -0.549544       -14.9538
  44   2.0000      -0.548462       -14.9244
  45   2.0000      -0.526009       -14.3134
  46   2.0000      -0.513388       -13.9700
  47   2.0000      -0.503908       -13.7120
  48   2.0000      -0.499379       -13.5888
  49   2.0000      -0.498627       -13.5683
  50   2.0000      -0.491582       -13.3766
  51   2.0000      -0.485351       -13.2071
  52   2.0000      -0.474021       -12.8988
  53   2.0000      -0.461805       -12.5663
  54   2.0000      -0.460205       -12.5228
  55   2.0000      -0.448040       -12.1918
  56   2.0000      -0.441428       -12.0119
  57   2.0000      -0.438872       -11.9423
  58   2.0000      -0.427953       -11.6452
  59   2.0000      -0.420816       -11.4510
  60   2.0000      -0.417015       -11.3476
  61   2.0000      -0.415947       -11.3185
  62   2.0000      -0.415067       -11.2945
  63   2.0000      -0.347863        -9.4658
  64   2.0000      -0.331009        -9.0072
  65   2.0000      -0.323708        -8.8085
  66   2.0000      -0.298510        -8.1229
  67   0.0000       0.033460         0.9105
  68   0.0000       0.062461         1.6997
  69   0.0000       0.111557         3.0356
  70   0.0000       0.120807         3.2873
  71   0.0000       0.123493         3.3604

MULLIKEN ATOMIC CHARGES
-----------------------
   0 S :    0.097748
   1 C :   -0.145331
   2 C :   -0.069742
   3 C :    0.048246
   4 C :   -0.161979
   5 H :    0.005012
   6 C :    0.010427
   7 H :    0.036967
   8 H :    0.034962
   9 C :   -0.029132
  10 H :    0.038820
  11 H :    0.004006
  12 C :   -0.075606
  13 H :    0.053004
  14 H :    0.009906
  15 H :    0.056675
  16 S :    0.130882
  17 C :   -0.064953
  18 C :   -0.044743
  19 C :   -0.031076
  20 C :   -0.165457
  21 H :    0.027556
  22 C :    0.043906
  23 H :    0.020567
  24 H :    0.034071
  25 C :   -0.117122
  26 H :    0.052321
  27 H :    0.039749
  28 C :    0.011138
  29 H :    0.019580
  30 H :    0.037020
  31 H :    0.004256
  32 H :    0.061188
  33 H :    0.027137
Sum of atomic charges:   -0.0000000

LOEWDIN ATOMIC CHARGES
----------------------
   0 S :    0.368849
   1 C :   -0.187845
   2 C :   -0.073665
   3 C :   -0.055765
   4 C :   -0.178400
   5 H :    0.032429
   6 C :   -0.035380
   7 H :    0.038265
   8 H :    0.033439
   9 C :   -0.045022
  10 H :    0.037741
  11 H :    0.006534
  12 C :   -0.077613
  13 H :    0.027437
  14 H :    0.024044
  15 H :    0.041682
  16 S :    0.432359
  17 C :   -0.174421
  18 C :   -0.070624
  19 C :   -0.054716
  20 C :   -0.218517
  21 H :    0.035139
  22 C :   -0.034828
  23 H :    0.031701
  24 H :    0.026594
  25 C :   -0.038561
  26 H :    0.025961
  27 H :    0.029794
  28 C :   -0.055037
  29 H :    0.025810
  30 H :    0.029052
  31 H :    0.008498
  32 H :    0.032257
  33 H :    0.012812

  Mayer bond orders larger than 0.100000
B(  0-S ,  1-C ) :   1.1410 B(  0-S ,  4-C ) :   1.1017 B(  1-C ,  2-C ) :   1.6341
B(  1-C , 32-H ) :   0.9585 B(  2-C ,  3-C ) :   1.2076 B(  2-C ,  6-C ) :   1.0050
B(  3-C ,  4-C ) :   1.6528 B(  3-C ,  5-H ) :   0.9926 B(  4-C , 20-C ) :   1.0335
B(  6-C ,  7-H ) :   0.9430 B(  6-C ,  8-H ) :   0.9452 B(  6-C ,  9-C ) :   1.0739
B(  9-C , 10-H ) :   0.9529 B(  9-C , 11-H ) :   0.9537 B(  9-C , 12-C ) :   1.0620
B( 12-C , 13-H ) :   0.9725 B( 12-C , 14-H ) :   0.9757 B( 12-C , 15-H ) :   0.9733
B( 16-S , 17-C ) :   1.1715 B( 16-S , 20-C ) :   1.1585 B( 17-C , 18-C ) :   1.5797
B( 17-C , 20-C ) :   0.1049 B( 17-C , 33-H ) :   0.9746 B( 18-C , 19-C ) :   1.2818
B( 18-C , 21-H ) :   0.9850 B( 19-C , 20-C ) :   1.5545 B( 19-C , 22-C ) :   1.0284
B( 22-C , 23-H ) :   0.9396 B( 22-C , 24-H ) :   0.9365 B( 22-C , 25-C ) :   1.0567
B( 25-C , 26-H ) :   0.9576 B( 25-C , 27-H ) :   0.9580 B( 25-C , 28-C ) :   1.0759
B( 28-C , 29-H ) :   0.9746 B( 28-C , 30-H ) :   0.9752 B( 28-C , 31-H ) :   0.9742

Dispersion correction           -0.014555576
FINAL SINGLE POINT ENERGY     -1339.860064137749

DIPOLE MOMENT
-------------
                                X             Y             Z
Electronic contribution:     -6.30933      27.50723      -0.42334
Nuclear contribution   :      6.58265     -27.97444       0.06673
                        -----------------------------------------
Total Dipole Moment    :      0.27332      -0.46721      -0.35661
                        -----------------------------------------
Magnitude (a.u.)       :      0.64820
Magnitude (Debye)      :      1.64760

Rotational constants in cm-1:     0.018386     0.009111     0.007092
Rotational constants in MHz :   551.195139   273.154501   212.608090

                             ****ORCA TERMINATED NORMALLY****
TOTAL RUN TIME: 0 days 0 hours 0 minutes 28 seconds 370 msec
