                         Program Version 4.2.1 -  RELEASE  -
|  1> ! wB97X-D3 SP def2-SVP
|  2> %pal
|  3> nprocs 16
|  4> end
|  5>
|  6> * xyz 0 1
|  7> S 	 -71.9566 	 39.1609 	 117.652
|  8> C 	 -71.6826 	 38.3048 	 116.202
|  9> C 	 -70.9453 	 37.1245 	 116.358
| 10> C 	 -70.6719 	 36.8647 	 117.766
| 11> C 	 -71.3636 	 37.7172 	 118.634
| 12> H 	 -70.1536 	 36.062 	 118.178
| 13> C 	 -70.3359 	 36.2616 	 115.189
| 14> H 	 -69.3911 	 36.6702 	 114.877
| 15> H 	 -70.889 	 36.1488 	 114.269
| 16> C 	 -69.9749 	 34.8703 	 115.54
| 17> H 	 -69.1984 	 34.3919 	 114.84
| 18> H 	 -69.4191 	 34.853 	 116.424
| 19> C 	 -71.2253 	 33.9767 	 115.58
| 20> H 	 -71.988 	 34.3304 	 116.316
| 21> H 	 -71.6746 	 33.813 	 114.57
| 22> H 	 -70.9983 	 32.9727 	 116.032
| 23> S 	 -72.2876 	 38.8316 	 120.835
| 24> C 	 -72.6324 	 37.9733 	 122.265
| 25> C 	 -72.3716 	 36.6341 	 122.119
| 26> C 	 -71.8464 	 36.3431 	 120.828
| 27> C 	 -71.7401 	 37.4556 	 120.02
| 28> H 	 -72.5536 	 35.9852 	 122.98
| 29> C 	 -71.3872 	 34.9654 	 120.387
| 30> H 	 -70.2963 	 35.061 	 120.222
| 31> H 	 -71.8134 	 34.7449 	 119.43
| 32> C 	 -71.6185 	 33.7521 	 121.433
| 33> H 	 -72.6796 	 33.6528 	 121.644
| 34> H 	 -71.271 	 34.024 	 122.376
| 35> C 	 -70.9767 	 32.467 	 120.895
| 36> H 	 -71.2642 	 32.2403 	 119.933
| 37> H 	 -71.2663 	 31.6507 	 121.633
| 38> H 	 -69.8687 	 32.4854 	 121.006
| 39> H 	 -71.7803 	 38.8049 	 115.209
| 40> H 	 -72.9191 	 38.4319 	 123.239
| 41> *
| 42>
| 43>                          ****END OF INPUT****

CARTESIAN COORDINATES (ANGSTROEM)
---------------------------------
  S    -71.956600   39.160900  117.652000
  C    -71.682600   38.304800  116.202000
  C    -70.945300   37.124500  116.358000
  C    -70.671900   36.864700  117.766000
  C    -71.363600   37.717200  118.634000
  H    -70.153600   36.062000  118.178000
  C    -70.335900   36.261600  115.189000
  H    -69.391100   36.670200  114.877000
  H    -70.889000   36.148800  114.269000
  C    -69.974900   34.870300  115.540000
  H    -69.198400   34.391900  114.840000
  H    -69.419100   34.853000  116.424000
  C    -71.225300   33.976700  115.580000
  H    -71.988000   34.330400  116.316000
  H    -71.674600   33.813000  114.570000
  H    -70.998300   32.972700  116.032000
  S    -72.287600   38.831600  120.835000
  C    -72.632400   37.973300  122.265000
  C    -72.371600   36.634100  122.119000
  C    -71.846400   36.343100  120.828000
  C    -71.740100   37.455600  120.020000
  H    -72.553600   35.985200  122.980000
  C    -71.387200   34.965400  120.387000
  H    -70.296300   35.061000  120.222000
  H    -71.813400   34.744900  119.430000
  C    -71.618500   33.752100  121.433000
  H    -72.679600   33.652800  121.644000
  H    -71.271000   34.024000  122.376000
  C    -70.976700   32.467000  120.895000
  H    -71.264200   32.240300  119.933000
  H    -71.266300   31.650700  121.633000
  H    -69.868700   32.485400  121.006000
  H    -71.780300   38.804900  115.209000
  H    -72.919100   38.431900  123.239000

 Total Charge           Charge          ....    0
 Multiplicity           Mult            ....    1
 Number of Electrons    NEL             ....  134
 Basis Dimension        Dim             ....  322

ORBITAL ENERGIES
----------------

  NO   OCC          E(Eh)            E(eV)
   0   2.0000     -88.966618     -2420.9048
   1   2.0000     -88.962774     -2420.8002
   2   2.0000     -10.339495      -281.3520
   3   2.0000     -10.322418      -280.8873
   4   2.0000     -10.316712      -280.7320
   5   2.0000     -10.315347      -280.6949
   6   2.0000     -10.312159      -280.6081
   7   2.0000     -10.304999      -280.4133
   8   2.0000     -10.296969      -280.1948
   9   2.0000     -10.296346      -280.1778
  10   2.0000     -10.294659      -280.1319
  11   2.0000     -10.290415      -280.0164
  12   2.0000     -10.289333      -279.9870
  13   2.0000     -10.284371      -279.8520
  14   2.0000     -10.283953      -279.8406
  15   2.0000     -10.283587      -279.8306
  16   2.0000      -8.080853      -219.8912
  17   2.0000      -8.079851      -219.8639
  18   2.0000      -6.039583      -164.3454
  19   2.0000      -6.038196      -164.3077
  20   2.0000      -6.035616      -164.2375
  21   2.0000      -6.033939      -164.1918
  22   2.0000      -6.031221      -164.1179
  23   2.0000      -6.030747      -164.1050
  24   2.0000      -1.016361       -27.6566
  25   2.0000      -0.982155       -26.7258
  26   2.0000      -0.915449       -24.9106
  27   2.0000      -0.905045       -24.6275
  28   2.0000      -0.874674       -23.8011
  29   2.0000      -0.856785       -23.3143
  30   2.0000      -0.840088       -22.8600
  31   2.0000      -0.814328       -22.1590
  32   2.0000      -0.780753       -21.2454
  33   2.0000      -0.770731       -20.9727
  34   2.0000      -0.718230       -19.5440
  35   2.0000      -0.703284       -19.1373
  36   2.0000      -0.687000       -18.6942
  37   2.0000      -0.660091       -17.9620
  38   2.0000      -0.637310       -17.3421
  39   2.0000      -0.628599       -17.1050
  40   2.0000      -0.597488       -16.2585
  41   2.0000      -0.568331       -15.4651
  42   2.0000      -0.566044       -15.4028
  43   2.0000      -0.554819       -15.0974
  44   2.0000      -0.534062       -14.5326
  45   2.0000      -0.529794       -14.4164
  46   2.0000      -0.518297       -14.1036
  47   2.0000      -0.508850       -13.8465
  48   2.0000      -0.503016       -13.6878
  49   2.0000      -0.500389       -13.6163
  50   2.0000      -0.485900       -13.2220
  51   2.0000      -0.482550       -13.1309
  52   2.0000      -0.479173       -13.0390
  53   2.0000      -0.464035       -12.6270
  54   2.0000      -0.461080       -12.5466
  55   2.0000      -0.453970       -12.3532
  56   2.0000      -0.440153       -11.9772
  57   2.0000      -0.439886       -11.9699
  58   2.0000      -0.434670       -11.8280
  59   2.0000      -0.427773       -11.6403
  60   2.0000      -0.423954       -11.5364
  61   2.0000      -0.413150       -11.2424
  62   2.0000      -0.406213       -11.0536
  63   2.0000      -0.364601        -9.9213
  64   2.0000      -0.336282        -9.1507
  65   2.0000      -0.324840        -8.8394
  66   2.0000      -0.278379        -7.5751
  67   0.0000       0.017069         0.4645
  68   0.0000       0.079471         2.1625
  69   0.0000       0.100515         2.7352
  70   0.0000       0.124198         3.3796
  71   0.0000       0.126620         3.4455

MULLIKEN ATOMIC CHARGES
-----------------------
   0 S :    0.101560
   1 C :   -0.116347
   2 C :   -0.085555
   3 C :    0.014875
   4 C :   -0.113261
   5 H :   -0.015552
   6 C :    0.106428
   7 H :    0.028779
   8 H :    0.020367
   9 C :   -0.100334
  10 H :    0.033859
  11 H :    0.008132
  12 C :   -0.088855
  13 H :    0.045100
  14 H :    0.045265
  15 H :    0.028897
  16 S :    0.101591
  17 C :   -0.091873
  18 C :   -0.063946
  19 C :   -0.036043
  20 C :   -0.129110
  21 H :    0.024679
  22 C :   -0.011088
  23 H :    0.053565
  24 H :    0.036660
  25 C :   -0.047769
  26 H :    0.027956
  27 H :    0.010753
  28 C :   -0.025739
  29 H :    0.026452
  30 H :    0.036921
  31 H :    0.037346
  32 H :    0.068752
  33 H :    0.067535
Sum of atomic charges:   -0.0000000

LOEWDIN ATOMIC CHARGES
----------------------
   0 S :    0.377419
   1 C :   -0.212316
   2 C :   -0.059347
   3 C :   -0.057916
   4 C :   -0.159290
   5 H :    0.016283
   6 C :   -0.031063
   7 H :    0.032638
   8 H :    0.030103
   9 C :   -0.050819
  10 H :    0.034683
  11 H :    0.011007
  12 C :   -0.077736
  13 H :    0.029371
  14 H :    0.029713
  15 H :    0.026568
  16 S :    0.450105
  17 C :   -0.203143
  18 C :   -0.081374
  19 C :   -0.058871
  20 C :   -0.214551
  21 H :    0.036604
  22 C :   -0.031781
  23 H :    0.034162
  24 H :    0.027099
  25 C :   -0.033625
  26 H :    0.023648
  27 H :    0.012872
  28 C :   -0.057972
  29 H :    0.012908
  30 H :    0.036435
  31 H :    0.030618
  32 H :    0.038496
  33 H :    0.039071

  Mayer bond orders larger than 0.100000
B(  0-S ,  1-C ) :   1.1449 B(  0-S ,  4-C ) :   1.1149 B(  1-C ,  2-C ) :   1.6312
B(  1-C , 32-H ) :   0.9576 B(  2-C ,  3-C ) :   1.2223 B(  2-C ,  6-C ) :   1.0020
B(  3-C ,  4-C ) :   1.5817 B(  3-C ,  5-H ) :   0.9961 B(  4-C , 20-C ) :   1.0917
B(  6-C ,  7-H ) :   0.9319 B(  6-C ,  8-H ) :   0.9508 B(  6-C ,  9-C ) :   1.0852
B(  9-C , 10-H ) :   0.9507 B(  9-C , 11-H ) :   0.9454 B(  9-C , 12-C ) :   1.0789
B( 12-C , 13-H ) :   0.9738 B( 12-C , 14-H ) :   0.9732 B( 12-C , 15-H ) :   0.9735
B( 16-S , 17-C ) :   1.1891 B( 16-S , 20-C ) :   1.1492 B( 17-C , 18-C ) :   1.5800
B( 17-C , 33-H ) :   0.9591 B( 18-C , 19-C ) :   1.2670 B( 18-C , 21-H ) :   0.9929
B( 19-C , 20-C ) :   1.5587 B( 19-C , 22-C ) :   1.0207 B( 22-C , 23-H ) :   0.9371
B( 22-C , 24-H ) :   0.9335 B( 22-C , 25-C ) :   1.0670 B( 25-C , 26-H ) :   0.9548
B( 25-C , 27-H ) :   0.9473 B( 25-C , 28-C ) :   1.0849 B( 28-C , 29-H ) :   0.9781
B( 28-C , 30-H ) :   0.9710 B( 28-C , 31-H ) :   0.9748

Dispersion correction           -0.014170075
FINAL SINGLE POINT ENERGY     -1339.856175469282

DIPOLE MOMENT
-------------
                                X             Y             Z
Electronic contribution:     -7.23668      31.84928       6.57318
Nuclear contribution   :      7.51253     -32.52657      -6.49512
                        -----------------------------------------
Total Dipole Moment    :      0.27585      -0.67729       0.07806
                        -----------------------------------------
Magnitude (a.u.)       :      0.73546
Magnitude (Debye)      :      1.86939

Rotational constants in cm-1:     0.015194     0.010950     0.006560
Rotational constants in MHz :   455.519428   328.267290   196.651331

                             ****ORCA TERMINATED NORMALLY****
TOTAL RUN TIME: 0 days 0 hours 0 minutes 34 seconds 689 msec
