                         Program Version 4.2.1 -  RELEASE  -
|  1> ! wB97X-D3 SP def2-SVP
|  2> %pal
|  3> nprocs 16
|  4> end
|  5>
|  6> * xyz 0 1
|  7> S 	 -93.8038 	 59.699 	 124.094
|  8> C 	 -93.601 	 58.6882 	 122.671
|  9> C 	 -92.7405 	 57.6337 	 122.909
| 10> C 	 -92.2425 	 57.5349 	 124.251
| 11> C 	 -92.6837 	 58.6508 	 124.977
| 12> H 	 -91.6686 	 56.8471 	 124.817
| 13> C 	 -92.4474 	 56.6074 	 121.86
| 14> H 	 -92.7882 	 56.906 	 120.878
| 15> H 	 -93.1252 	 55.8113 	 122.187
| 16> C 	 -91.0313 	 56.007 	 121.877
| 17> H 	 -90.3465 	 56.7419 	 121.524
| 18> H 	 -90.7429 	 55.7619 	 122.925
| 19> C 	 -90.9143 	 54.7154 	 121.13
| 20> H 	 -89.9464 	 54.3379 	 121.226
| 21> H 	 -91.6208 	 53.9556 	 121.352
| 22> H 	 -91.1796 	 54.8707 	 120.102
| 23> S 	 -93.983 	 58.7955 	 127.341
| 24> C 	 -93.1276 	 59.2815 	 128.839
| 25> C 	 -91.7557 	 59.0992 	 128.636
| 26> C 	 -91.3623 	 59.0627 	 127.239
| 27> C 	 -92.5043 	 58.9562 	 126.417
| 28> H 	 -91.027 	 59.0686 	 129.39
| 29> C 	 -89.9697 	 58.8913 	 126.904
| 30> H 	 -89.3465 	 59.607 	 127.519
| 31> H 	 -89.741 	 59.3062 	 125.909
| 32> C 	 -89.3872 	 57.4947 	 126.962
| 33> H 	 -89.9201 	 56.7843 	 126.378
| 34> H 	 -89.5563 	 57.0869 	 127.988
| 35> C 	 -87.8881 	 57.5535 	 126.767
| 36> H 	 -87.3877 	 58.1494 	 127.478
| 37> H 	 -87.5828 	 58.0852 	 125.875
| 38> H 	 -87.4303 	 56.609 	 126.619
| 39> H 	 -94.1925 	 58.6382 	 121.758
| 40> H 	 -93.5698 	 59.4734 	 129.854
| 41> *
| 42>
| 43>                          ****END OF INPUT****

CARTESIAN COORDINATES (ANGSTROEM)
---------------------------------
  S    -93.803800   59.699000  124.094000
  C    -93.601000   58.688200  122.671000
  C    -92.740500   57.633700  122.909000
  C    -92.242500   57.534900  124.251000
  C    -92.683700   58.650800  124.977000
  H    -91.668600   56.847100  124.817000
  C    -92.447400   56.607400  121.860000
  H    -92.788200   56.906000  120.878000
  H    -93.125200   55.811300  122.187000
  C    -91.031300   56.007000  121.877000
  H    -90.346500   56.741900  121.524000
  H    -90.742900   55.761900  122.925000
  C    -90.914300   54.715400  121.130000
  H    -89.946400   54.337900  121.226000
  H    -91.620800   53.955600  121.352000
  H    -91.179600   54.870700  120.102000
  S    -93.983000   58.795500  127.341000
  C    -93.127600   59.281500  128.839000
  C    -91.755700   59.099200  128.636000
  C    -91.362300   59.062700  127.239000
  C    -92.504300   58.956200  126.417000
  H    -91.027000   59.068600  129.390000
  C    -89.969700   58.891300  126.904000
  H    -89.346500   59.607000  127.519000
  H    -89.741000   59.306200  125.909000
  C    -89.387200   57.494700  126.962000
  H    -89.920100   56.784300  126.378000
  H    -89.556300   57.086900  127.988000
  C    -87.888100   57.553500  126.767000
  H    -87.387700   58.149400  127.478000
  H    -87.582800   58.085200  125.875000
  H    -87.430300   56.609000  126.619000
  H    -94.192500   58.638200  121.758000
  H    -93.569800   59.473400  129.854000

 Total Charge           Charge          ....    0
 Multiplicity           Mult            ....    1
 Number of Electrons    NEL             ....  134
 Basis Dimension        Dim             ....  322

ORBITAL ENERGIES
----------------

  NO   OCC          E(Eh)            E(eV)
   0   2.0000     -88.966248     -2420.8947
   1   2.0000     -88.965372     -2420.8708
   2   2.0000     -10.332306      -281.1563
   3   2.0000     -10.328379      -281.0495
   4   2.0000     -10.324883      -280.9544
   5   2.0000     -10.309485      -280.5353
   6   2.0000     -10.302273      -280.3391
   7   2.0000     -10.301712      -280.3238
   8   2.0000     -10.298354      -280.2325
   9   2.0000     -10.293665      -280.1049
  10   2.0000     -10.290629      -280.0222
  11   2.0000     -10.288866      -279.9743
  12   2.0000     -10.288623      -279.9677
  13   2.0000     -10.285171      -279.8737
  14   2.0000     -10.271561      -279.5034
  15   2.0000     -10.266877      -279.3759
  16   2.0000      -8.080295      -219.8760
  17   2.0000      -8.079335      -219.8499
  18   2.0000      -6.038762      -164.3231
  19   2.0000      -6.038011      -164.3026
  20   2.0000      -6.034924      -164.2186
  21   2.0000      -6.034107      -164.1964
  22   2.0000      -6.031092      -164.1144
  23   2.0000      -6.029773      -164.0785
  24   2.0000      -1.000993       -27.2384
  25   2.0000      -0.978160       -26.6171
  26   2.0000      -0.919766       -25.0281
  27   2.0000      -0.914859       -24.8946
  28   2.0000      -0.868449       -23.6317
  29   2.0000      -0.854644       -23.2560
  30   2.0000      -0.849521       -23.1166
  31   2.0000      -0.816874       -22.2283
  32   2.0000      -0.782043       -21.2805
  33   2.0000      -0.769005       -20.9257
  34   2.0000      -0.716269       -19.4907
  35   2.0000      -0.706661       -19.2292
  36   2.0000      -0.687671       -18.7125
  37   2.0000      -0.664550       -18.0833
  38   2.0000      -0.645330       -17.5603
  39   2.0000      -0.616836       -16.7850
  40   2.0000      -0.600485       -16.3400
  41   2.0000      -0.567816       -15.4511
  42   2.0000      -0.566208       -15.4073
  43   2.0000      -0.559217       -15.2171
  44   2.0000      -0.535396       -14.5689
  45   2.0000      -0.527339       -14.3496
  46   2.0000      -0.519813       -14.1448
  47   2.0000      -0.511726       -13.9248
  48   2.0000      -0.508786       -13.8448
  49   2.0000      -0.500114       -13.6088
  50   2.0000      -0.490596       -13.3498
  51   2.0000      -0.481903       -13.1133
  52   2.0000      -0.474477       -12.9112
  53   2.0000      -0.465079       -12.6554
  54   2.0000      -0.457375       -12.4458
  55   2.0000      -0.453562       -12.3420
  56   2.0000      -0.447872       -12.1872
  57   2.0000      -0.440209       -11.9787
  58   2.0000      -0.435447       -11.8491
  59   2.0000      -0.429749       -11.6941
  60   2.0000      -0.422428       -11.4949
  61   2.0000      -0.416994       -11.3470
  62   2.0000      -0.407005       -11.0752
  63   2.0000      -0.339193        -9.2299
  64   2.0000      -0.322535        -8.7766
  65   2.0000      -0.321635        -8.7521
  66   2.0000      -0.296567        -8.0700
  67   0.0000       0.026685         0.7261
  68   0.0000       0.064364         1.7514
  69   0.0000       0.099554         2.7090
  70   0.0000       0.120017         3.2658
  71   0.0000       0.127344         3.4652

MULLIKEN ATOMIC CHARGES
-----------------------
   0 S :    0.117398
   1 C :   -0.110977
   2 C :   -0.085972
   3 C :    0.063599
   4 C :   -0.183109
   5 H :   -0.003652
   6 C :    0.070958
   7 H :    0.014488
   8 H :    0.033259
   9 C :   -0.082317
  10 H :    0.031612
  11 H :    0.027371
  12 C :    0.005109
  13 H :    0.025811
  14 H :    0.012858
  15 H :    0.010995
  16 S :    0.108671
  17 C :   -0.105188
  18 C :   -0.018367
  19 C :   -0.005969
  20 C :   -0.161473
  21 H :    0.001811
  22 C :    0.003915
  23 H :    0.023056
  24 H :    0.024106
  25 C :   -0.030711
  26 H :    0.011295
  27 H :    0.020513
  28 C :    0.008065
  29 H :    0.015806
  30 H :    0.007526
  31 H :    0.025541
  32 H :    0.045551
  33 H :    0.078420
Sum of atomic charges:    0.0000000

LOEWDIN ATOMIC CHARGES
----------------------
   0 S :    0.400184
   1 C :   -0.212230
   2 C :   -0.056498
   3 C :   -0.057308
   4 C :   -0.182672
   5 H :    0.026992
   6 C :   -0.033863
   7 H :    0.024839
   8 H :    0.038157
   9 C :   -0.035817
  10 H :    0.022826
  11 H :    0.026084
  12 C :   -0.058082
  13 H :    0.021349
  14 H :    0.021944
  15 H :    0.022935
  16 S :    0.395242
  17 C :   -0.185891
  18 C :   -0.055661
  19 C :   -0.059810
  20 C :   -0.202581
  21 H :    0.019138
  22 C :   -0.046831
  23 H :    0.036633
  24 H :    0.034376
  25 C :   -0.032606
  26 H :    0.016426
  27 H :    0.027915
  28 C :   -0.060117
  29 H :    0.022420
  30 H :    0.024691
  31 H :    0.023848
  32 H :    0.032409
  33 H :    0.041557

  Mayer bond orders larger than 0.100000
B(  0-S ,  1-C ) :   1.1168 B(  0-S ,  4-C ) :   1.1634 B(  1-C ,  2-C ) :   1.6425
B(  1-C , 32-H ) :   0.9619 B(  2-C ,  3-C ) :   1.1897 B(  2-C ,  6-C ) :   1.0248
B(  3-C ,  4-C ) :   1.5890 B(  3-C ,  5-H ) :   0.9959 B(  4-C , 20-C ) :   1.0045
B(  6-C ,  7-H ) :   0.9430 B(  6-C ,  8-H ) :   0.9294 B(  6-C ,  9-C ) :   1.0624
B(  9-C , 10-H ) :   0.9563 B(  9-C , 11-H ) :   0.9508 B(  9-C , 12-C ) :   1.0941
B( 12-C , 13-H ) :   0.9718 B( 12-C , 14-H ) :   0.9710 B( 12-C , 15-H ) :   0.9677
B( 16-S , 17-C ) :   1.1314 B( 16-S , 20-C ) :   1.1594 B( 17-C , 18-C ) :   1.6027
B( 17-C , 33-H ) :   0.9646 B( 18-C , 19-C ) :   1.2374 B( 18-C , 21-H ) :   0.9895
B( 19-C , 20-C ) :   1.5751 B( 19-C , 22-C ) :   1.0847 B( 22-C , 23-H ) :   0.9273
B( 22-C , 24-H ) :   0.9202 B( 22-C , 25-C ) :   1.0571 B( 25-C , 26-H ) :   0.9519
B( 25-C , 27-H ) :   0.9484 B( 25-C , 28-C ) :   1.0806 B( 28-C , 29-H ) :   0.9704
B( 28-C , 30-H ) :   0.9679 B( 28-C , 31-H ) :   0.9709

Dispersion correction           -0.013995353
FINAL SINGLE POINT ENERGY     -1339.854959161314

DIPOLE MOMENT
-------------
                                X             Y             Z
Electronic contribution:    -24.21845      17.28190       9.66866
Nuclear contribution   :     24.75839     -17.86651      -9.70990
                        -----------------------------------------
Total Dipole Moment    :      0.53994      -0.58461      -0.04124
                        -----------------------------------------
Magnitude (a.u.)       :      0.79687
Magnitude (Debye)      :      2.02548

Rotational constants in cm-1:     0.016579     0.009429     0.006617
Rotational constants in MHz :   497.029982   282.689153   198.360480

                             ****ORCA TERMINATED NORMALLY****
TOTAL RUN TIME: 0 days 0 hours 0 minutes 34 seconds 877 msec
