                         Program Version 4.2.1 -  RELEASE  -
|  1> ! wB97X-D3 SP def2-SVP
|  2> %pal
|  3> nprocs 16
|  4> end
|  5>
|  6> * xyz 0 1
|  7> S 	 3.83958 	 15.2259 	 87.5919
|  8> C 	 3.11814 	 15.4847 	 86.0339
|  9> C 	 3.72592 	 14.7032 	 85.0789
| 10> C 	 4.76466 	 13.84 	 85.6002
| 11> C 	 4.98066 	 14.0362 	 86.9152
| 12> H 	 5.47359 	 13.1907 	 84.9941
| 13> C 	 3.36657 	 14.6645 	 83.6125
| 14> H 	 2.46519 	 15.276 	 83.5215
| 15> H 	 3.17014 	 13.5974 	 83.3774
| 16> C 	 4.47471 	 15.1725 	 82.6514
| 17> H 	 4.59831 	 16.2557 	 82.8734
| 18> H 	 5.43304 	 14.6444 	 82.844
| 19> C 	 4.11451 	 14.8928 	 81.2205
| 20> H 	 3.90233 	 13.8274 	 81.1549
| 21> H 	 3.19513 	 15.3994 	 80.9067
| 22> H 	 4.98417 	 15.1505 	 80.6111
| 23> S 	 6.36184 	 11.9947 	 88.0872
| 24> C 	 8.04792 	 12.2703 	 88.6295
| 25> C 	 8.38517 	 13.5571 	 88.5615
| 26> C 	 7.30427 	 14.4007 	 88.0055
| 27> C 	 6.16254 	 13.653 	 87.6532
| 28> H 	 9.28743 	 13.9355 	 88.9598
| 29> C 	 7.44406 	 15.828 	 87.6165
| 30> H 	 6.59085 	 16.365 	 87.998
| 31> H 	 7.19697 	 15.8785 	 86.5634
| 32> C 	 8.64719 	 16.6688 	 88.0039
| 33> H 	 8.69033 	 17.6981 	 87.4987
| 34> H 	 9.54703 	 16.2912 	 87.6947
| 35> C 	 8.64553 	 16.8223 	 89.5378
| 36> H 	 7.85723 	 17.5464 	 89.8108
| 37> H 	 9.59174 	 17.2966 	 89.9233
| 38> H 	 8.50383 	 15.8915 	 90.0512
| 39> H 	 2.29197 	 16.2188 	 85.8752
| 40> H 	 8.71027 	 11.5342 	 89.0809
| 41> *
| 42>
| 43>                          ****END OF INPUT****

CARTESIAN COORDINATES (ANGSTROEM)
---------------------------------
  S      3.839580   15.225900   87.591900
  C      3.118140   15.484700   86.033900
  C      3.725920   14.703200   85.078900
  C      4.764660   13.840000   85.600200
  C      4.980660   14.036200   86.915200
  H      5.473590   13.190700   84.994100
  C      3.366570   14.664500   83.612500
  H      2.465190   15.276000   83.521500
  H      3.170140   13.597400   83.377400
  C      4.474710   15.172500   82.651400
  H      4.598310   16.255700   82.873400
  H      5.433040   14.644400   82.844000
  C      4.114510   14.892800   81.220500
  H      3.902330   13.827400   81.154900
  H      3.195130   15.399400   80.906700
  H      4.984170   15.150500   80.611100
  S      6.361840   11.994700   88.087200
  C      8.047920   12.270300   88.629500
  C      8.385170   13.557100   88.561500
  C      7.304270   14.400700   88.005500
  C      6.162540   13.653000   87.653200
  H      9.287430   13.935500   88.959800
  C      7.444060   15.828000   87.616500
  H      6.590850   16.365000   87.998000
  H      7.196970   15.878500   86.563400
  C      8.647190   16.668800   88.003900
  H      8.690330   17.698100   87.498700
  H      9.547030   16.291200   87.694700
  C      8.645530   16.822300   89.537800
  H      7.857230   17.546400   89.810800
  H      9.591740   17.296600   89.923300
  H      8.503830   15.891500   90.051200
  H      2.291970   16.218800   85.875200
  H      8.710270   11.534200   89.080900

 Total Charge           Charge          ....    0
 Multiplicity           Mult            ....    1
 Number of Electrons    NEL             ....  134
 Basis Dimension        Dim             ....  322

ORBITAL ENERGIES
----------------

  NO   OCC          E(Eh)            E(eV)
   0   2.0000     -88.964085     -2420.8358
   1   2.0000     -88.962090     -2420.7815
   2   2.0000     -10.327846      -281.0350
   3   2.0000     -10.322106      -280.8788
   4   2.0000     -10.318901      -280.7916
   5   2.0000     -10.315669      -280.7036
   6   2.0000     -10.306902      -280.4651
   7   2.0000     -10.302095      -280.3343
   8   2.0000     -10.300522      -280.2915
   9   2.0000     -10.293635      -280.1040
  10   2.0000     -10.291971      -280.0588
  11   2.0000     -10.290176      -280.0099
  12   2.0000     -10.284654      -279.8597
  13   2.0000     -10.280903      -279.7576
  14   2.0000     -10.278198      -279.6840
  15   2.0000     -10.277806      -279.6733
  16   2.0000      -8.078627      -219.8306
  17   2.0000      -8.076660      -219.7771
  18   2.0000      -6.037191      -164.2803
  19   2.0000      -6.035332      -164.2297
  20   2.0000      -6.033167      -164.1708
  21   2.0000      -6.031184      -164.1169
  22   2.0000      -6.029325      -164.0663
  23   2.0000      -6.027266      -164.0103
  24   2.0000      -1.006826       -27.3971
  25   2.0000      -0.982508       -26.7354
  26   2.0000      -0.913366       -24.8540
  27   2.0000      -0.910677       -24.7808
  28   2.0000      -0.877742       -23.8846
  29   2.0000      -0.850845       -23.1527
  30   2.0000      -0.840741       -22.8777
  31   2.0000      -0.824481       -22.4353
  32   2.0000      -0.778072       -21.1724
  33   2.0000      -0.764296       -20.7975
  34   2.0000      -0.709550       -19.3078
  35   2.0000      -0.699318       -19.0294
  36   2.0000      -0.690379       -18.7862
  37   2.0000      -0.657741       -17.8981
  38   2.0000      -0.640752       -17.4358
  39   2.0000      -0.619766       -16.8647
  40   2.0000      -0.598924       -16.2975
  41   2.0000      -0.571749       -15.5581
  42   2.0000      -0.564591       -15.3633
  43   2.0000      -0.553400       -15.0588
  44   2.0000      -0.537220       -14.6185
  45   2.0000      -0.530051       -14.4234
  46   2.0000      -0.515328       -14.0228
  47   2.0000      -0.512221       -13.9382
  48   2.0000      -0.505276       -13.7493
  49   2.0000      -0.499625       -13.5955
  50   2.0000      -0.493245       -13.4219
  51   2.0000      -0.474753       -12.9187
  52   2.0000      -0.472277       -12.8513
  53   2.0000      -0.461810       -12.5665
  54   2.0000      -0.457069       -12.4375
  55   2.0000      -0.450181       -12.2500
  56   2.0000      -0.442986       -12.0543
  57   2.0000      -0.433624       -11.7995
  58   2.0000      -0.431064       -11.7298
  59   2.0000      -0.425956       -11.5909
  60   2.0000      -0.424500       -11.5512
  61   2.0000      -0.417017       -11.3476
  62   2.0000      -0.413115       -11.2414
  63   2.0000      -0.345750        -9.4083
  64   2.0000      -0.334407        -9.0997
  65   2.0000      -0.319275        -8.6879
  66   2.0000      -0.298647        -8.1266
  67   0.0000       0.039401         1.0721
  68   0.0000       0.066197         1.8013
  69   0.0000       0.113941         3.1005
  70   0.0000       0.121619         3.3094
  71   0.0000       0.124781         3.3955

MULLIKEN ATOMIC CHARGES
-----------------------
   0 S :    0.100166
   1 C :   -0.135100
   2 C :   -0.096247
   3 C :    0.037522
   4 C :   -0.167080
   5 H :    0.047594
   6 C :    0.052437
   7 H :    0.017141
   8 H :    0.034504
   9 C :   -0.107673
  10 H :    0.036243
  11 H :    0.032730
  12 C :   -0.018329
  13 H :    0.021849
  14 H :    0.030915
  15 H :    0.042963
  16 S :    0.100133
  17 C :   -0.082401
  18 C :   -0.015191
  19 C :   -0.052777
  20 C :   -0.171797
  21 H :    0.009307
  22 C :    0.082874
  23 H :    0.009197
  24 H :    0.029489
  25 C :   -0.018628
  26 H :    0.035028
  27 H :    0.002155
  28 C :   -0.086876
  29 H :    0.035331
  30 H :    0.033793
  31 H :    0.039326
  32 H :    0.065804
  33 H :    0.055599
Sum of atomic charges:   -0.0000000

LOEWDIN ATOMIC CHARGES
----------------------
   0 S :    0.394750
   1 C :   -0.204567
   2 C :   -0.069047
   3 C :   -0.057892
   4 C :   -0.187798
   5 H :    0.047504
   6 C :   -0.033654
   7 H :    0.028075
   8 H :    0.033471
   9 C :   -0.044777
  10 H :    0.026657
  11 H :    0.025466
  12 C :   -0.064159
  13 H :    0.024406
  14 H :    0.025254
  15 H :    0.029836
  16 S :    0.395159
  17 C :   -0.171495
  18 C :   -0.069236
  19 C :   -0.045437
  20 C :   -0.215611
  21 H :    0.026480
  22 C :   -0.046138
  23 H :    0.028719
  24 H :    0.036748
  25 C :   -0.039085
  26 H :    0.038869
  27 H :    0.005350
  28 C :   -0.067625
  29 H :    0.028660
  30 H :    0.028107
  31 H :    0.020551
  32 H :    0.038713
  33 H :    0.033746

  Mayer bond orders larger than 0.100000
B(  0-S ,  1-C ) :   1.1263 B(  0-S ,  4-C ) :   1.1341 B(  1-C ,  2-C ) :   1.6418
B(  1-C , 32-H ) :   0.9626 B(  2-C ,  3-C ) :   1.2037 B(  2-C ,  6-C ) :   1.0324
B(  3-C ,  4-C ) :   1.6338 B(  3-C ,  5-H ) :   0.9770 B(  4-C , 20-C ) :   1.0021
B(  6-C ,  7-H ) :   0.9408 B(  6-C ,  8-H ) :   0.9380 B(  6-C ,  9-C ) :   1.0626
B(  9-C , 10-H ) :   0.9519 B(  9-C , 11-H ) :   0.9562 B(  9-C , 12-C ) :   1.0863
B( 12-C , 13-H ) :   0.9714 B( 12-C , 14-H ) :   0.9726 B( 12-C , 15-H ) :   0.9728
B( 16-S , 17-C ) :   1.1314 B( 16-S , 20-C ) :   1.1358 B( 17-C , 18-C ) :   1.6544
B( 17-C , 33-H ) :   0.9609 B( 18-C , 19-C ) :   1.2092 B( 18-C , 21-H ) :   0.9894
B( 19-C , 20-C ) :   1.6079 B( 19-C , 22-C ) :   1.0515 B( 22-C , 23-H ) :   0.9137
B( 22-C , 24-H ) :   0.9152 B( 22-C , 25-C ) :   1.0749 B( 25-C , 26-H ) :   0.9505
B( 25-C , 27-H ) :   0.9525 B( 25-C , 28-C ) :   1.0677 B( 28-C , 29-H ) :   0.9752
B( 28-C , 30-H ) :   0.9748 B( 28-C , 31-H ) :   0.9795

Dispersion correction           -0.014432818
FINAL SINGLE POINT ENERGY     -1339.882971168932

DIPOLE MOMENT
-------------
                                X             Y             Z
Electronic contribution:     -7.33083     -14.14959      15.36651
Nuclear contribution   :      7.62509      14.52271     -15.87552
                        -----------------------------------------
Total Dipole Moment    :      0.29426       0.37312      -0.50901
                        -----------------------------------------
Magnitude (a.u.)       :      0.69635
Magnitude (Debye)      :      1.76997

Rotational constants in cm-1:     0.019196     0.007705     0.007135
Rotational constants in MHz :   575.470073   230.991741   213.890804

                             ****ORCA TERMINATED NORMALLY****
TOTAL RUN TIME: 0 days 0 hours 0 minutes 34 seconds 654 msec
