                         Program Version 4.2.1 -  RELEASE  -
|  1> ! wB97X-D3 SP def2-SVP
|  2> %pal
|  3> nprocs 16
|  4> end
|  5>
|  6> * xyz 0 1
|  7> S 	 -2.38168 	 -17.3859 	 87.1951
|  8> C 	 -3.47517 	 -18.5145 	 87.9852
|  9> C 	 -4.59741 	 -18.7352 	 87.1904
| 10> C 	 -4.6371 	 -17.9203 	 86.0403
| 11> C 	 -3.51726 	 -17.0822 	 85.8595
| 12> H 	 -5.41618 	 -17.823 	 85.3404
| 13> C 	 -5.77938 	 -19.6028 	 87.5026
| 14> H 	 -5.45641 	 -20.3402 	 88.2405
| 15> H 	 -6.09675 	 -20.1124 	 86.55
| 16> C 	 -6.95545 	 -18.852 	 87.9854
| 17> H 	 -6.62982 	 -18.1893 	 88.7677
| 18> H 	 -7.39481 	 -18.4123 	 87.0819
| 19> C 	 -8.18832 	 -19.5707 	 88.5347
| 20> H 	 -7.88905 	 -19.8359 	 89.5681
| 21> H 	 -9.09333 	 -18.938 	 88.7036
| 22> H 	 -8.5157 	 -20.4591 	 88.0195
| 23> S 	 -3.19134 	 -14.5383 	 85.1453
| 24> C 	 -2.86607 	 -14.1227 	 83.4688
| 25> C 	 -2.79543 	 -15.2398 	 82.6453
| 26> C 	 -3.00559 	 -16.403 	 83.3976
| 27> C 	 -3.32436 	 -16.1651 	 84.7215
| 28> H 	 -2.6817 	 -15.116 	 81.5799
| 29> C 	 -2.89014 	 -17.7447 	 82.8299
| 30> H 	 -2.27709 	 -18.3666 	 83.5181
| 31> H 	 -2.46465 	 -17.6209 	 81.8326
| 32> C 	 -4.16027 	 -18.509 	 82.5195
| 33> H 	 -4.58303 	 -19.0091 	 83.4066
| 34> H 	 -3.90344 	 -19.3736 	 81.9462
| 35> C 	 -5.30302 	 -17.7847 	 81.7905
| 36> H 	 -5.85638 	 -18.6242 	 81.3331
| 37> H 	 -4.86618 	 -17.1078 	 81.0753
| 38> H 	 -6.06381 	 -17.2357 	 82.3236
| 39> H 	 -3.2759 	 -19.0966 	 88.8613
| 40> H 	 -2.96192 	 -13.0869 	 83.0806
| 41> *
| 42>
| 43>                          ****END OF INPUT****

CARTESIAN COORDINATES (ANGSTROEM)
---------------------------------
  S     -2.381680  -17.385900   87.195100
  C     -3.475170  -18.514500   87.985200
  C     -4.597410  -18.735200   87.190400
  C     -4.637100  -17.920300   86.040300
  C     -3.517260  -17.082200   85.859500
  H     -5.416180  -17.823000   85.340400
  C     -5.779380  -19.602800   87.502600
  H     -5.456410  -20.340200   88.240500
  H     -6.096750  -20.112400   86.550000
  C     -6.955450  -18.852000   87.985400
  H     -6.629820  -18.189300   88.767700
  H     -7.394810  -18.412300   87.081900
  C     -8.188320  -19.570700   88.534700
  H     -7.889050  -19.835900   89.568100
  H     -9.093330  -18.938000   88.703600
  H     -8.515700  -20.459100   88.019500
  S     -3.191340  -14.538300   85.145300
  C     -2.866070  -14.122700   83.468800
  C     -2.795430  -15.239800   82.645300
  C     -3.005590  -16.403000   83.397600
  C     -3.324360  -16.165100   84.721500
  H     -2.681700  -15.116000   81.579900
  C     -2.890140  -17.744700   82.829900
  H     -2.277090  -18.366600   83.518100
  H     -2.464650  -17.620900   81.832600
  C     -4.160270  -18.509000   82.519500
  H     -4.583030  -19.009100   83.406600
  H     -3.903440  -19.373600   81.946200
  C     -5.303020  -17.784700   81.790500
  H     -5.856380  -18.624200   81.333100
  H     -4.866180  -17.107800   81.075300
  H     -6.063810  -17.235700   82.323600
  H     -3.275900  -19.096600   88.861300
  H     -2.961920  -13.086900   83.080600

 Total Charge           Charge          ....    0
 Multiplicity           Mult            ....    1
 Number of Electrons    NEL             ....  134
 Basis Dimension        Dim             ....  322

ORBITAL ENERGIES
----------------

  NO   OCC          E(Eh)            E(eV)
   0   2.0000     -88.969707     -2420.9888
   1   2.0000     -88.966317     -2420.8966
   2   2.0000     -10.333037      -281.1762
   3   2.0000     -10.319469      -280.8070
   4   2.0000     -10.319074      -280.7963
   5   2.0000     -10.316828      -280.7352
   6   2.0000     -10.299330      -280.2590
   7   2.0000     -10.296104      -280.1712
   8   2.0000     -10.294156      -280.1182
   9   2.0000     -10.291465      -280.0450
  10   2.0000     -10.289979      -280.0046
  11   2.0000     -10.284651      -279.8596
  12   2.0000     -10.280693      -279.7519
  13   2.0000     -10.280136      -279.7367
  14   2.0000     -10.279651      -279.7235
  15   2.0000     -10.275310      -279.6054
  16   2.0000      -8.083255      -219.9566
  17   2.0000      -8.082183      -219.9274
  18   2.0000      -6.041815      -164.4061
  19   2.0000      -6.040425      -164.3683
  20   2.0000      -6.037784      -164.2965
  21   2.0000      -6.036468      -164.2607
  22   2.0000      -6.034168      -164.1981
  23   2.0000      -6.033208      -164.1719
  24   2.0000      -1.011936       -27.5362
  25   2.0000      -0.985519       -26.8173
  26   2.0000      -0.919508       -25.0211
  27   2.0000      -0.914515       -24.8852
  28   2.0000      -0.871456       -23.7135
  29   2.0000      -0.852142       -23.1880
  30   2.0000      -0.848942       -23.1009
  31   2.0000      -0.816283       -22.2122
  32   2.0000      -0.784135       -21.3374
  33   2.0000      -0.773541       -21.0491
  34   2.0000      -0.709316       -19.3015
  35   2.0000      -0.692052       -18.8317
  36   2.0000      -0.688870       -18.7451
  37   2.0000      -0.669449       -18.2166
  38   2.0000      -0.643941       -17.5225
  39   2.0000      -0.618871       -16.8403
  40   2.0000      -0.587294       -15.9811
  41   2.0000      -0.584182       -15.8964
  42   2.0000      -0.567823       -15.4512
  43   2.0000      -0.561574       -15.2812
  44   2.0000      -0.543273       -14.7832
  45   2.0000      -0.523144       -14.2355
  46   2.0000      -0.515824       -14.0363
  47   2.0000      -0.513146       -13.9634
  48   2.0000      -0.509451       -13.8629
  49   2.0000      -0.498124       -13.5546
  50   2.0000      -0.491457       -13.3732
  51   2.0000      -0.481184       -13.0937
  52   2.0000      -0.477999       -13.0070
  53   2.0000      -0.469732       -12.7821
  54   2.0000      -0.458109       -12.4658
  55   2.0000      -0.447813       -12.1856
  56   2.0000      -0.447112       -12.1665
  57   2.0000      -0.435447       -11.8491
  58   2.0000      -0.431667       -11.7463
  59   2.0000      -0.427043       -11.6204
  60   2.0000      -0.420634       -11.4460
  61   2.0000      -0.403476       -10.9791
  62   2.0000      -0.398593       -10.8463
  63   2.0000      -0.343334        -9.3426
  64   2.0000      -0.330952        -9.0057
  65   2.0000      -0.327273        -8.9055
  66   2.0000      -0.298183        -8.1140
  67   0.0000       0.035636         0.9697
  68   0.0000       0.055304         1.5049
  69   0.0000       0.113728         3.0947
  70   0.0000       0.118152         3.2151
  71   0.0000       0.127966         3.4821

MULLIKEN ATOMIC CHARGES
-----------------------
   0 S :    0.121474
   1 C :   -0.116204
   2 C :   -0.073436
   3 C :    0.045907
   4 C :   -0.160759
   5 H :   -0.001205
   6 C :    0.084723
   7 H :    0.009859
   8 H :    0.029411
   9 C :   -0.078830
  10 H :    0.033340
  11 H :    0.028594
  12 C :   -0.053457
  13 H :    0.018442
  14 H :    0.042734
  15 H :    0.028545
  16 S :    0.123733
  17 C :   -0.111064
  18 C :   -0.043156
  19 C :   -0.023724
  20 C :   -0.193761
  21 H :    0.022617
  22 C :    0.103535
  23 H :    0.044333
  24 H :    0.009838
  25 C :   -0.080814
  26 H :    0.014309
  27 H :    0.017644
  28 C :   -0.038802
  29 H :    0.032862
  30 H :    0.017776
  31 H :    0.034842
  32 H :    0.042380
  33 H :    0.068312
Sum of atomic charges:   -0.0000000

LOEWDIN ATOMIC CHARGES
----------------------
   0 S :    0.397306
   1 C :   -0.195217
   2 C :   -0.063909
   3 C :   -0.051757
   4 C :   -0.192983
   5 H :    0.022316
   6 C :   -0.033692
   7 H :    0.024186
   8 H :    0.036708
   9 C :   -0.046602
  10 H :    0.026616
  11 H :    0.026566
  12 C :   -0.069571
  13 H :    0.023164
  14 H :    0.033336
  15 H :    0.020025
  16 S :    0.442934
  17 C :   -0.187848
  18 C :   -0.068936
  19 C :   -0.059834
  20 C :   -0.224624
  21 H :    0.034457
  22 C :   -0.035198
  23 H :    0.043393
  24 H :    0.030998
  25 C :   -0.043911
  26 H :    0.020098
  27 H :    0.021913
  28 C :   -0.067125
  29 H :    0.033677
  30 H :    0.019655
  31 H :    0.022950
  32 H :    0.027253
  33 H :    0.033655

  Mayer bond orders larger than 0.100000
B(  0-S ,  1-C ) :   1.1411 B(  0-S ,  4-C ) :   1.1472 B(  1-C ,  2-C ) :   1.5885
B(  1-C ,  4-C ) :   0.1042 B(  1-C , 32-H ) :   0.9685 B(  2-C ,  3-C ) :   1.2455
B(  2-C ,  6-C ) :   1.0429 B(  3-C ,  4-C ) :   1.5683 B(  3-C ,  5-H ) :   0.9942
B(  4-C , 20-C ) :   1.0255 B(  6-C ,  7-H ) :   0.9329 B(  6-C ,  8-H ) :   0.9310
B(  6-C ,  9-C ) :   1.0784 B(  9-C , 10-H ) :   0.9574 B(  9-C , 11-H ) :   0.9525
B(  9-C , 12-C ) :   1.0835 B( 12-C , 13-H ) :   0.9752 B( 12-C , 14-H ) :   0.9749
B( 12-C , 15-H ) :   0.9734 B( 16-S , 17-C ) :   1.1787 B( 16-S , 20-C ) :   1.1707
B( 17-C , 18-C ) :   1.5803 B( 17-C , 20-C ) :   0.1032 B( 17-C , 33-H ) :   0.9600
B( 18-C , 19-C ) :   1.2638 B( 18-C , 21-H ) :   0.9919 B( 19-C , 20-C ) :   1.5563
B( 19-C , 22-C ) :   1.0709 B( 22-C , 23-H ) :   0.9165 B( 22-C , 24-H ) :   0.9212
B( 22-C , 25-C ) :   1.0923 B( 25-C , 26-H ) :   0.9420 B( 25-C , 27-H ) :   0.9561
B( 25-C , 28-C ) :   1.0692 B( 28-C , 29-H ) :   0.9741 B( 28-C , 30-H ) :   0.9766
B( 28-C , 31-H ) :   0.9742

Dispersion correction           -0.014963687
FINAL SINGLE POINT ENERGY     -1339.868641488833

DIPOLE MOMENT
-------------
                                X             Y             Z
Electronic contribution:     20.82433      17.33486       5.72669
Nuclear contribution   :    -21.25479     -17.67616      -6.03532
                        -----------------------------------------
Total Dipole Moment    :     -0.43046      -0.34130      -0.30863
                        -----------------------------------------
Magnitude (a.u.)       :      0.63011
Magnitude (Debye)      :      1.60161

Rotational constants in cm-1:     0.019395     0.008588     0.007221
Rotational constants in MHz :   581.454938   257.447373   216.488687

                             ****ORCA TERMINATED NORMALLY****
TOTAL RUN TIME: 0 days 0 hours 0 minutes 34 seconds 816 msec
