                         Program Version 4.2.1 -  RELEASE  -
|  1> ! wB97X-D3 SP def2-SVP
|  2> %pal
|  3> nprocs 16
|  4> end
|  5>
|  6> * xyz 0 1
|  7> S 	 -42.5953 	 16.234 	 82.5462
|  8> C 	 -41.4895 	 15.3285 	 81.6245
|  9> C 	 -40.5153 	 16.0706 	 80.9457
| 10> C 	 -40.8241 	 17.433 	 81.0901
| 11> C 	 -41.9714 	 17.6825 	 81.7727
| 12> H 	 -40.2486 	 18.2798 	 80.6511
| 13> C 	 -39.4 	 15.578 	 79.9978
| 14> H 	 -38.9652 	 14.8055 	 80.6088
| 15> H 	 -38.8601 	 16.4954 	 79.8337
| 16> C 	 -39.8698 	 14.9388 	 78.703
| 17> H 	 -39.1284 	 14.511 	 78.2489
| 18> H 	 -40.5294 	 14.0904 	 78.8434
| 19> C 	 -40.532 	 15.9017 	 77.7115
| 20> H 	 -40.0199 	 16.7491 	 77.3674
| 21> H 	 -40.7668 	 15.3921 	 76.7964
| 22> H 	 -41.4802 	 16.2007 	 78.155
| 23> S 	 -41.9609 	 20.292 	 81.0971
| 24> C 	 -42.6961 	 21.5355 	 82.1049
| 25> C 	 -43.5364 	 20.9628 	 83.0336
| 26> C 	 -43.3712 	 19.538 	 83.1382
| 27> C 	 -42.4659 	 19.0523 	 82.1615
| 28> H 	 -44.1194 	 21.5607 	 83.5908
| 29> C 	 -44.1562 	 18.8244 	 84.2555
| 30> H 	 -44.5588 	 17.8715 	 83.8425
| 31> H 	 -45.0102 	 19.4265 	 84.4759
| 32> C 	 -43.4349 	 18.4953 	 85.5465
| 33> H 	 -42.5714 	 17.9032 	 85.3706
| 34> H 	 -44.2167 	 17.9835 	 86.1191
| 35> C 	 -43.0316 	 19.7549 	 86.288
| 36> H 	 -43.8565 	 20.2453 	 86.5973
| 37> H 	 -42.5128 	 20.3954 	 85.6947
| 38> H 	 -42.4463 	 19.4103 	 87.2187
| 39> H 	 -41.5249 	 14.258 	 81.4354
| 40> H 	 -42.7851 	 22.5398 	 81.8123
| 41> *
| 42>
| 43>                          ****END OF INPUT****

CARTESIAN COORDINATES (ANGSTROEM)
---------------------------------
  S    -42.595300   16.234000   82.546200
  C    -41.489500   15.328500   81.624500
  C    -40.515300   16.070600   80.945700
  C    -40.824100   17.433000   81.090100
  C    -41.971400   17.682500   81.772700
  H    -40.248600   18.279800   80.651100
  C    -39.400000   15.578000   79.997800
  H    -38.965200   14.805500   80.608800
  H    -38.860100   16.495400   79.833700
  C    -39.869800   14.938800   78.703000
  H    -39.128400   14.511000   78.248900
  H    -40.529400   14.090400   78.843400
  C    -40.532000   15.901700   77.711500
  H    -40.019900   16.749100   77.367400
  H    -40.766800   15.392100   76.796400
  H    -41.480200   16.200700   78.155000
  S    -41.960900   20.292000   81.097100
  C    -42.696100   21.535500   82.104900
  C    -43.536400   20.962800   83.033600
  C    -43.371200   19.538000   83.138200
  C    -42.465900   19.052300   82.161500
  H    -44.119400   21.560700   83.590800
  C    -44.156200   18.824400   84.255500
  H    -44.558800   17.871500   83.842500
  H    -45.010200   19.426500   84.475900
  C    -43.434900   18.495300   85.546500
  H    -42.571400   17.903200   85.370600
  H    -44.216700   17.983500   86.119100
  C    -43.031600   19.754900   86.288000
  H    -43.856500   20.245300   86.597300
  H    -42.512800   20.395400   85.694700
  H    -42.446300   19.410300   87.218700
  H    -41.524900   14.258000   81.435400
  H    -42.785100   22.539800   81.812300

 Total Charge           Charge          ....    0
 Multiplicity           Mult            ....    1
 Number of Electrons    NEL             ....  134
 Basis Dimension        Dim             ....  322

ORBITAL ENERGIES
----------------

  NO   OCC          E(Eh)            E(eV)
   0   2.0000     -88.971657     -2421.0419
   1   2.0000     -88.964508     -2420.8473
   2   2.0000     -10.331323      -281.1296
   3   2.0000     -10.329332      -281.0754
   4   2.0000     -10.310336      -280.5585
   5   2.0000     -10.309431      -280.5339
   6   2.0000     -10.304429      -280.3978
   7   2.0000     -10.298365      -280.2328
   8   2.0000     -10.293499      -280.1004
   9   2.0000     -10.290978      -280.0318
  10   2.0000     -10.288907      -279.9754
  11   2.0000     -10.285940      -279.8947
  12   2.0000     -10.276449      -279.6364
  13   2.0000     -10.274431      -279.5815
  14   2.0000     -10.267381      -279.3896
  15   2.0000     -10.259634      -279.1788
  16   2.0000      -8.086446      -220.0434
  17   2.0000      -8.079678      -219.8592
  18   2.0000      -6.044831      -164.4882
  19   2.0000      -6.041105      -164.3868
  20   2.0000      -6.038237      -164.3088
  21   2.0000      -6.037199      -164.2805
  22   2.0000      -6.034129      -164.1970
  23   2.0000      -6.030389      -164.0952
  24   2.0000      -1.010660       -27.5015
  25   2.0000      -0.987797       -26.8793
  26   2.0000      -0.916628       -24.9427
  27   2.0000      -0.913265       -24.8512
  28   2.0000      -0.870224       -23.6800
  29   2.0000      -0.858001       -23.3474
  30   2.0000      -0.843509       -22.9530
  31   2.0000      -0.815879       -22.2012
  32   2.0000      -0.787188       -21.4205
  33   2.0000      -0.774756       -21.0822
  34   2.0000      -0.718372       -19.5479
  35   2.0000      -0.704037       -19.1578
  36   2.0000      -0.686021       -18.6676
  37   2.0000      -0.672481       -18.2991
  38   2.0000      -0.633545       -17.2396
  39   2.0000      -0.614909       -16.7325
  40   2.0000      -0.596708       -16.2373
  41   2.0000      -0.574697       -15.6383
  42   2.0000      -0.561651       -15.2833
  43   2.0000      -0.556123       -15.1329
  44   2.0000      -0.546930       -14.8827
  45   2.0000      -0.544270       -14.8103
  46   2.0000      -0.521202       -14.1826
  47   2.0000      -0.514207       -13.9923
  48   2.0000      -0.505195       -13.7471
  49   2.0000      -0.488468       -13.2919
  50   2.0000      -0.485740       -13.2176
  51   2.0000      -0.478102       -13.0098
  52   2.0000      -0.473201       -12.8765
  53   2.0000      -0.467583       -12.7236
  54   2.0000      -0.463427       -12.6105
  55   2.0000      -0.450295       -12.2531
  56   2.0000      -0.444251       -12.0887
  57   2.0000      -0.440459       -11.9855
  58   2.0000      -0.438047       -11.9199
  59   2.0000      -0.428303       -11.6547
  60   2.0000      -0.421005       -11.4561
  61   2.0000      -0.413400       -11.2492
  62   2.0000      -0.412131       -11.2146
  63   2.0000      -0.360606        -9.8126
  64   2.0000      -0.334716        -9.1081
  65   2.0000      -0.328210        -8.9311
  66   2.0000      -0.279867        -7.6156
  67   0.0000       0.022383         0.6091
  68   0.0000       0.076988         2.0950
  69   0.0000       0.106405         2.8954
  70   0.0000       0.117751         3.2042
  71   0.0000       0.134416         3.6576

MULLIKEN ATOMIC CHARGES
-----------------------
   0 S :    0.118285
   1 C :   -0.110664
   2 C :   -0.118649
   3 C :   -0.050772
   4 C :   -0.092831
   5 H :    0.035584
   6 C :    0.111143
   7 H :    0.031586
   8 H :    0.023853
   9 C :    0.018423
  10 H :   -0.019797
  11 H :    0.012422
  12 C :   -0.046306
  13 H :    0.018948
  14 H :    0.018416
  15 H :    0.038596
  16 S :    0.082180
  17 C :   -0.067665
  18 C :    0.000948
  19 C :   -0.083461
  20 C :   -0.122510
  21 H :   -0.027880
  22 C :    0.038505
  23 H :    0.028925
  24 H :    0.009054
  25 C :   -0.029728
  26 H :    0.025763
  27 H :    0.030205
  28 C :   -0.001412
  29 H :   -0.009558
  30 H :    0.018402
  31 H :    0.040891
  32 H :    0.038502
  33 H :    0.040603
Sum of atomic charges:   -0.0000000

LOEWDIN ATOMIC CHARGES
----------------------
   0 S :    0.432903
   1 C :   -0.215479
   2 C :   -0.062254
   3 C :   -0.080346
   4 C :   -0.189987
   5 H :    0.031298
   6 C :   -0.016444
   7 H :    0.035954
   8 H :    0.032111
   9 C :   -0.026184
  10 H :    0.000122
  11 H :    0.028313
  12 C :   -0.058693
  13 H :    0.016703
  14 H :    0.025116
  15 H :    0.028977
  16 S :    0.424364
  17 C :   -0.181377
  18 C :   -0.049707
  19 C :   -0.068579
  20 C :   -0.196093
  21 H :    0.010115
  22 C :   -0.035836
  23 H :    0.024601
  24 H :    0.025826
  25 C :   -0.031334
  26 H :    0.016853
  27 H :    0.028553
  28 C :   -0.049616
  29 H :    0.006777
  30 H :    0.011342
  31 H :    0.038484
  32 H :    0.025330
  33 H :    0.018188

  Mayer bond orders larger than 0.100000
B(  0-S ,  1-C ) :   1.1580 B(  0-S ,  4-C ) :   1.1454 B(  1-C ,  2-C ) :   1.5974
B(  1-C , 32-H ) :   0.9598 B(  2-C ,  3-C ) :   1.2748 B(  2-C ,  6-C ) :   0.9998
B(  3-C ,  4-C ) :   1.5709 B(  3-C ,  5-H ) :   0.9700 B(  4-C , 20-C ) :   1.0364
B(  6-C ,  7-H ) :   0.9263 B(  6-C ,  8-H ) :   0.9430 B(  6-C ,  9-C ) :   1.0905
B(  9-C , 10-H ) :   0.9449 B(  9-C , 11-H ) :   0.9465 B(  9-C , 12-C ) :   1.0778
B( 12-C , 13-H ) :   0.9772 B( 12-C , 14-H ) :   0.9703 B( 12-C , 15-H ) :   0.9774
B( 16-S , 17-C ) :   1.1434 B( 16-S , 20-C ) :   1.1733 B( 17-C , 18-C ) :   1.6108
B( 17-C , 33-H ) :   0.9701 B( 18-C , 19-C ) :   1.2508 B( 18-C , 21-H ) :   1.0038
B( 19-C , 20-C ) :   1.5554 B( 19-C , 22-C ) :   1.0350 B( 22-C , 23-H ) :   0.9322
B( 22-C , 24-H ) :   0.9319 B( 22-C , 25-C ) :   1.0808 B( 25-C , 26-H ) :   0.9549
B( 25-C , 27-H ) :   0.9523 B( 25-C , 28-C ) :   1.0802 B( 28-C , 29-H ) :   0.9704
B( 28-C , 30-H ) :   0.9756 B( 28-C , 31-H ) :   0.9723

Dispersion correction           -0.014676708
FINAL SINGLE POINT ENERGY     -1339.840293299139

DIPOLE MOMENT
-------------
                                X             Y             Z
Electronic contribution:     -2.71759       5.37712      -1.18057
Nuclear contribution   :      2.73336      -5.53879       1.05361
                        -----------------------------------------
Total Dipole Moment    :      0.01577      -0.16168      -0.12696
                        -----------------------------------------
Magnitude (a.u.)       :      0.20617
Magnitude (Debye)      :      0.52405

Rotational constants in cm-1:     0.024404     0.008145     0.006569
Rotational constants in MHz :   731.621711   244.191644   196.944996

                             ****ORCA TERMINATED NORMALLY****
TOTAL RUN TIME: 0 days 0 hours 0 minutes 32 seconds 258 msec
