                         Program Version 4.2.1 -  RELEASE  -
|  1> ! wB97X-D3 SP def2-SVP
|  2> %pal
|  3> nprocs 16
|  4> end
|  5>
|  6> * xyz 0 1
|  7> S 	 -30.7673 	 71.7039 	 158.682
|  8> C 	 -29.4741 	 72.552 	 159.418
|  9> C 	 -29.4445 	 73.88 	 159.099
| 10> C 	 -30.592 	 74.239 	 158.319
| 11> C 	 -31.4315 	 73.1907 	 158.046
| 12> H 	 -30.8924 	 75.2341 	 158.032
| 13> C 	 -28.5117 	 74.9177 	 159.661
| 14> H 	 -28.1484 	 74.5124 	 160.616
| 15> H 	 -29.1245 	 75.7382 	 159.96
| 16> C 	 -27.3173 	 75.1344 	 158.729
| 17> H 	 -26.4682 	 75.7084 	 159.081
| 18> H 	 -26.8863 	 74.1927 	 158.465
| 19> C 	 -27.6528 	 75.8256 	 157.43
| 20> H 	 -26.8582 	 75.8126 	 156.729
| 21> H 	 -28.4563 	 75.3435 	 156.95
| 22> H 	 -27.9361 	 76.8939 	 157.567
| 23> S 	 -34.2348 	 73.0204 	 158.263
| 24> C 	 -35.2079 	 73.2696 	 156.828
| 25> C 	 -34.4393 	 73.5859 	 155.734
| 26> C 	 -33.0623 	 73.6211 	 156.022
| 27> C 	 -32.7357 	 73.2559 	 157.345
| 28> H 	 -34.9043 	 73.7081 	 154.759
| 29> C 	 -32.0467 	 73.8898 	 154.984
| 30> H 	 -31.0921 	 73.7512 	 155.476
| 31> H 	 -32.0069 	 74.946 	 154.85
| 32> C 	 -32.1455 	 73.1647 	 153.621
| 33> H 	 -31.5572 	 73.8156 	 152.896
| 34> H 	 -33.2076 	 73.2265 	 153.388
| 35> C 	 -31.4593 	 71.7709 	 153.787
| 36> H 	 -31.3809 	 71.2938 	 152.824
| 37> H 	 -31.9318 	 71.1458 	 154.479
| 38> H 	 -30.4852 	 71.7462 	 154.346
| 39> H 	 -28.7733 	 72.0568 	 160.119
| 40> H 	 -36.2553 	 73.1612 	 156.691
| 41> *
| 42>
| 43>                          ****END OF INPUT****

CARTESIAN COORDINATES (ANGSTROEM)
---------------------------------
  S    -30.767300   71.703900  158.682000
  C    -29.474100   72.552000  159.418000
  C    -29.444500   73.880000  159.099000
  C    -30.592000   74.239000  158.319000
  C    -31.431500   73.190700  158.046000
  H    -30.892400   75.234100  158.032000
  C    -28.511700   74.917700  159.661000
  H    -28.148400   74.512400  160.616000
  H    -29.124500   75.738200  159.960000
  C    -27.317300   75.134400  158.729000
  H    -26.468200   75.708400  159.081000
  H    -26.886300   74.192700  158.465000
  C    -27.652800   75.825600  157.430000
  H    -26.858200   75.812600  156.729000
  H    -28.456300   75.343500  156.950000
  H    -27.936100   76.893900  157.567000
  S    -34.234800   73.020400  158.263000
  C    -35.207900   73.269600  156.828000
  C    -34.439300   73.585900  155.734000
  C    -33.062300   73.621100  156.022000
  C    -32.735700   73.255900  157.345000
  H    -34.904300   73.708100  154.759000
  C    -32.046700   73.889800  154.984000
  H    -31.092100   73.751200  155.476000
  H    -32.006900   74.946000  154.850000
  C    -32.145500   73.164700  153.621000
  H    -31.557200   73.815600  152.896000
  H    -33.207600   73.226500  153.388000
  C    -31.459300   71.770900  153.787000
  H    -31.380900   71.293800  152.824000
  H    -31.931800   71.145800  154.479000
  H    -30.485200   71.746200  154.346000
  H    -28.773300   72.056800  160.119000
  H    -36.255300   73.161200  156.691000

 Total Charge           Charge          ....    0
 Multiplicity           Mult            ....    1
 Number of Electrons    NEL             ....  134
 Basis Dimension        Dim             ....  322

ORBITAL ENERGIES
----------------

  NO   OCC          E(Eh)            E(eV)
   0   2.0000     -88.966340     -2420.8972
   1   2.0000     -88.965884     -2420.8848
   2   2.0000     -10.328596      -281.0554
   3   2.0000     -10.328017      -281.0396
   4   2.0000     -10.314966      -280.6845
   5   2.0000     -10.314081      -280.6604
   6   2.0000     -10.300064      -280.2790
   7   2.0000     -10.298599      -280.2391
   8   2.0000     -10.295400      -280.1521
   9   2.0000     -10.293583      -280.1026
  10   2.0000     -10.292079      -280.0617
  11   2.0000     -10.289651      -279.9956
  12   2.0000     -10.282233      -279.7938
  13   2.0000     -10.276670      -279.6424
  14   2.0000     -10.273570      -279.5581
  15   2.0000     -10.266908      -279.3768
  16   2.0000      -8.081509      -219.9090
  17   2.0000      -8.080403      -219.8789
  18   2.0000      -6.039878      -164.3534
  19   2.0000      -6.038955      -164.3283
  20   2.0000      -6.035887      -164.2448
  21   2.0000      -6.034951      -164.2194
  22   2.0000      -6.032369      -164.1491
  23   2.0000      -6.031215      -164.1177
  24   2.0000      -1.008185       -27.4341
  25   2.0000      -0.987220       -26.8636
  26   2.0000      -0.917122       -24.9562
  27   2.0000      -0.907742       -24.7009
  28   2.0000      -0.869434       -23.6585
  29   2.0000      -0.851781       -23.1781
  30   2.0000      -0.844019       -22.9669
  31   2.0000      -0.818600       -22.2752
  32   2.0000      -0.785206       -21.3665
  33   2.0000      -0.771049       -20.9813
  34   2.0000      -0.708666       -19.2838
  35   2.0000      -0.705305       -19.1923
  36   2.0000      -0.699481       -19.0338
  37   2.0000      -0.653125       -17.7724
  38   2.0000      -0.646220       -17.5845
  39   2.0000      -0.616991       -16.7892
  40   2.0000      -0.597315       -16.2538
  41   2.0000      -0.578028       -15.7289
  42   2.0000      -0.555010       -15.1026
  43   2.0000      -0.550511       -14.9802
  44   2.0000      -0.544870       -14.8267
  45   2.0000      -0.531426       -14.4608
  46   2.0000      -0.518138       -14.0993
  47   2.0000      -0.513560       -13.9747
  48   2.0000      -0.501113       -13.6360
  49   2.0000      -0.498832       -13.5739
  50   2.0000      -0.490775       -13.3547
  51   2.0000      -0.482136       -13.1196
  52   2.0000      -0.469858       -12.7855
  53   2.0000      -0.467529       -12.7221
  54   2.0000      -0.456376       -12.4186
  55   2.0000      -0.446049       -12.1376
  56   2.0000      -0.442936       -12.0529
  57   2.0000      -0.435961       -11.8631
  58   2.0000      -0.428343       -11.6558
  59   2.0000      -0.425342       -11.5741
  60   2.0000      -0.423858       -11.5338
  61   2.0000      -0.416550       -11.3349
  62   2.0000      -0.411875       -11.2077
  63   2.0000      -0.341722        -9.2987
  64   2.0000      -0.330878        -9.0037
  65   2.0000      -0.326548        -8.8858
  66   2.0000      -0.302356        -8.2275
  67   0.0000       0.035013         0.9528
  68   0.0000       0.066704         1.8151
  69   0.0000       0.121579         3.3083
  70   0.0000       0.126687         3.4473
  71   0.0000       0.129415         3.5216

MULLIKEN ATOMIC CHARGES
-----------------------
   0 S :    0.121731
   1 C :   -0.129985
   2 C :   -0.116898
   3 C :    0.054997
   4 C :   -0.191353
   5 H :    0.010774
   6 C :    0.103173
   7 H :    0.016331
   8 H :    0.026845
   9 C :   -0.030501
  10 H :    0.025323
  11 H :    0.015266
  12 C :   -0.043549
  13 H :    0.020908
  14 H :    0.014501
  15 H :    0.026643
  16 S :    0.112980
  17 C :   -0.070181
  18 C :   -0.058147
  19 C :   -0.019831
  20 C :   -0.171911
  21 H :    0.023541
  22 C :    0.062513
  23 H :    0.005038
  24 H :    0.018271
  25 C :   -0.051593
  26 H :    0.039252
  27 H :    0.031985
  28 C :   -0.035081
  29 H :    0.039251
  30 H :    0.018047
  31 H :    0.032115
  32 H :    0.058016
  33 H :    0.041530
Sum of atomic charges:   -0.0000000

LOEWDIN ATOMIC CHARGES
----------------------
   0 S :    0.419634
   1 C :   -0.205016
   2 C :   -0.068608
   3 C :   -0.055417
   4 C :   -0.203138
   5 H :    0.031099
   6 C :   -0.024518
   7 H :    0.033521
   8 H :    0.029096
   9 C :   -0.037152
  10 H :    0.023792
  11 H :    0.023667
  12 C :   -0.061953
  13 H :    0.021054
  14 H :    0.014592
  15 H :    0.026109
  16 S :    0.401128
  17 C :   -0.176364
  18 C :   -0.078088
  19 C :   -0.051310
  20 C :   -0.205259
  21 H :    0.032958
  22 C :   -0.041522
  23 H :    0.026340
  24 H :    0.028940
  25 C :   -0.032752
  26 H :    0.033107
  27 H :    0.022695
  28 C :   -0.068841
  29 H :    0.023201
  30 H :    0.020649
  31 H :    0.037934
  32 H :    0.034285
  33 H :    0.026137

  Mayer bond orders larger than 0.100000
B(  0-S ,  1-C ) :   1.1542 B(  0-S ,  4-C ) :   1.1546 B(  1-C ,  2-C ) :   1.6240
B(  1-C , 32-H ) :   0.9594 B(  2-C ,  3-C ) :   1.2298 B(  2-C ,  6-C ) :   1.0085
B(  3-C ,  4-C ) :   1.5880 B(  3-C ,  5-H ) :   0.9975 B(  4-C , 20-C ) :   1.0140
B(  6-C ,  7-H ) :   0.9385 B(  6-C ,  8-H ) :   0.9512 B(  6-C ,  9-C ) :   1.0553
B(  9-C , 10-H ) :   0.9581 B(  9-C , 11-H ) :   0.9510 B(  9-C , 12-C ) :   1.0896
B( 12-C , 13-H ) :   0.9701 B( 12-C , 14-H ) :   0.9723 B( 12-C , 15-H ) :   0.9736
B( 16-S , 17-C ) :   1.1629 B( 16-S , 20-C ) :   1.1371 B( 17-C , 18-C ) :   1.6126
B( 17-C , 20-C ) :   0.1028 B( 17-C , 33-H ) :   0.9650 B( 18-C , 19-C ) :   1.2488
B( 18-C , 21-H ) :   0.9858 B( 19-C , 20-C ) :   1.5745 B( 19-C , 22-C ) :   1.0575
B( 22-C , 23-H ) :   0.9239 B( 22-C , 24-H ) :   0.9153 B( 22-C , 25-C ) :   1.0641
B( 25-C , 26-H ) :   0.9546 B( 25-C , 27-H ) :   0.9591 B( 25-C , 28-C ) :   1.0589
B( 28-C , 29-H ) :   0.9773 B( 28-C , 30-H ) :   0.9749 B( 28-C , 31-H ) :   0.9712

Dispersion correction           -0.015013885
FINAL SINGLE POINT ENERGY     -1339.877533257561

DIPOLE MOMENT
-------------
                                X             Y             Z
Electronic contribution:    -17.62439     -10.04822      14.66944
Nuclear contribution   :     17.91011      10.39122     -14.89171
                        -----------------------------------------
Total Dipole Moment    :      0.28572       0.34300      -0.22227
                        -----------------------------------------
Magnitude (a.u.)       :      0.49869
Magnitude (Debye)      :      1.26757

Rotational constants in cm-1:     0.019029     0.008881     0.007449
Rotational constants in MHz :   570.489549   266.249103   223.322022

                             ****ORCA TERMINATED NORMALLY****
TOTAL RUN TIME: 0 days 0 hours 0 minutes 35 seconds 739 msec
