                         Program Version 4.2.1 -  RELEASE  -
|  1> ! wB97X-D3 SP def2-SVP
|  2> %pal
|  3> nprocs 16
|  4> end
|  5>
|  6> * xyz 0 1
|  7> S 	 51.6871 	 9.85498 	 92.5217
|  8> C 	 51.1972 	 11.6403 	 92.6587
|  9> C 	 51.1263 	 12.1633 	 91.3873
| 10> C 	 51.2796 	 11.1756 	 90.3353
| 11> C 	 51.5627 	 9.96181 	 90.8299
| 12> H 	 51.2843 	 11.2255 	 89.2926
| 13> C 	 50.649 	 13.5431 	 91.0709
| 14> H 	 49.5747 	 13.7206 	 91.2862
| 15> H 	 50.7563 	 13.7123 	 90.0095
| 16> C 	 51.364 	 14.6584 	 91.8195
| 17> H 	 50.9623 	 15.675 	 91.5862
| 18> H 	 51.2086 	 14.5864 	 92.8505
| 19> C 	 52.8794 	 14.7204 	 91.4326
| 20> H 	 52.961 	 14.9718 	 90.3619
| 21> H 	 53.4217 	 15.5564 	 91.9135
| 22> H 	 53.3722 	 13.805 	 91.6151
| 23> S 	 53.2408 	 7.97119 	 90.022
| 24> C 	 52.5993 	 6.85632 	 88.8635
| 25> C 	 51.2433 	 6.9336 	 88.7213
| 26> C 	 50.6581 	 8.03747 	 89.4339
| 27> C 	 51.6139 	 8.77483 	 90.0862
| 28> H 	 50.742 	 6.29847 	 87.9776
| 29> C 	 49.1799 	 8.28719 	 89.2047
| 30> H 	 48.8744 	 7.67392 	 88.3706
| 31> H 	 49.1937 	 9.30249 	 88.7236
| 32> C 	 48.2285 	 8.31004 	 90.4726
| 33> H 	 48.419 	 9.30466 	 91.0019
| 34> H 	 48.457 	 7.44665 	 91.1421
| 35> C 	 46.7595 	 8.16008 	 90.041
| 36> H 	 46.3991 	 9.16212 	 89.9352
| 37> H 	 46.1724 	 7.70257 	 90.8609
| 38> H 	 46.5131 	 7.62984 	 89.0378
| 39> H 	 50.981 	 12.2171 	 93.5329
| 40> H 	 53.1669 	 6.03741 	 88.4609
| 41> *
| 42>
| 43>                          ****END OF INPUT****

CARTESIAN COORDINATES (ANGSTROEM)
---------------------------------
  S     51.687100    9.854980   92.521700
  C     51.197200   11.640300   92.658700
  C     51.126300   12.163300   91.387300
  C     51.279600   11.175600   90.335300
  C     51.562700    9.961810   90.829900
  H     51.284300   11.225500   89.292600
  C     50.649000   13.543100   91.070900
  H     49.574700   13.720600   91.286200
  H     50.756300   13.712300   90.009500
  C     51.364000   14.658400   91.819500
  H     50.962300   15.675000   91.586200
  H     51.208600   14.586400   92.850500
  C     52.879400   14.720400   91.432600
  H     52.961000   14.971800   90.361900
  H     53.421700   15.556400   91.913500
  H     53.372200   13.805000   91.615100
  S     53.240800    7.971190   90.022000
  C     52.599300    6.856320   88.863500
  C     51.243300    6.933600   88.721300
  C     50.658100    8.037470   89.433900
  C     51.613900    8.774830   90.086200
  H     50.742000    6.298470   87.977600
  C     49.179900    8.287190   89.204700
  H     48.874400    7.673920   88.370600
  H     49.193700    9.302490   88.723600
  C     48.228500    8.310040   90.472600
  H     48.419000    9.304660   91.001900
  H     48.457000    7.446650   91.142100
  C     46.759500    8.160080   90.041000
  H     46.399100    9.162120   89.935200
  H     46.172400    7.702570   90.860900
  H     46.513100    7.629840   89.037800
  H     50.981000   12.217100   93.532900
  H     53.166900    6.037410   88.460900

 Total Charge           Charge          ....    0
 Multiplicity           Mult            ....    1
 Number of Electrons    NEL             ....  134
 Basis Dimension        Dim             ....  322

ORBITAL ENERGIES
----------------

  NO   OCC          E(Eh)            E(eV)
   0   2.0000     -88.964694     -2420.8524
   1   2.0000     -88.962009     -2420.7793
   2   2.0000     -10.320877      -280.8453
   3   2.0000     -10.318620      -280.7839
   4   2.0000     -10.315835      -280.7081
   5   2.0000     -10.311625      -280.5936
   6   2.0000     -10.304805      -280.4080
   7   2.0000     -10.304054      -280.3876
   8   2.0000     -10.298065      -280.2246
   9   2.0000     -10.296228      -280.1746
  10   2.0000     -10.290346      -280.0145
  11   2.0000     -10.290304      -280.0134
  12   2.0000     -10.286584      -279.9122
  13   2.0000     -10.284835      -279.8646
  14   2.0000     -10.283130      -279.8182
  15   2.0000     -10.272999      -279.5425
  16   2.0000      -8.079038      -219.8418
  17   2.0000      -8.076628      -219.7762
  18   2.0000      -6.037719      -164.2947
  19   2.0000      -6.035097      -164.2233
  20   2.0000      -6.033689      -164.1850
  21   2.0000      -6.031360      -164.1216
  22   2.0000      -6.029512      -164.0714
  23   2.0000      -6.027233      -164.0093
  24   2.0000      -1.010186       -27.4886
  25   2.0000      -0.980287       -26.6750
  26   2.0000      -0.917117       -24.9560
  27   2.0000      -0.900378       -24.5005
  28   2.0000      -0.868702       -23.6386
  29   2.0000      -0.851348       -23.1663
  30   2.0000      -0.843240       -22.9457
  31   2.0000      -0.812044       -22.0968
  32   2.0000      -0.783029       -21.3073
  33   2.0000      -0.771965       -21.0062
  34   2.0000      -0.712491       -19.3879
  35   2.0000      -0.705722       -19.2037
  36   2.0000      -0.689197       -18.7540
  37   2.0000      -0.659779       -17.9535
  38   2.0000      -0.645022       -17.5519
  39   2.0000      -0.607826       -16.5398
  40   2.0000      -0.590715       -16.0742
  41   2.0000      -0.572471       -15.5777
  42   2.0000      -0.557734       -15.1767
  43   2.0000      -0.550635       -14.9835
  44   2.0000      -0.540552       -14.7092
  45   2.0000      -0.523389       -14.2421
  46   2.0000      -0.516474       -14.0540
  47   2.0000      -0.513792       -13.9810
  48   2.0000      -0.506422       -13.7805
  49   2.0000      -0.496131       -13.5004
  50   2.0000      -0.492598       -13.4043
  51   2.0000      -0.474313       -12.9067
  52   2.0000      -0.471029       -12.8174
  53   2.0000      -0.459171       -12.4947
  54   2.0000      -0.452666       -12.3177
  55   2.0000      -0.450987       -12.2720
  56   2.0000      -0.441686       -12.0189
  57   2.0000      -0.436026       -11.8649
  58   2.0000      -0.432202       -11.7608
  59   2.0000      -0.425584       -11.5807
  60   2.0000      -0.418673       -11.3927
  61   2.0000      -0.416604       -11.3364
  62   2.0000      -0.407980       -11.1017
  63   2.0000      -0.334755        -9.1091
  64   2.0000      -0.332418        -9.0456
  65   2.0000      -0.327212        -8.9039
  66   2.0000      -0.301598        -8.2069
  67   0.0000       0.039891         1.0855
  68   0.0000       0.054440         1.4814
  69   0.0000       0.099813         2.7161
  70   0.0000       0.117382         3.1941
  71   0.0000       0.119719         3.2577

MULLIKEN ATOMIC CHARGES
-----------------------
   0 S :    0.107644
   1 C :   -0.126251
   2 C :   -0.060703
   3 C :    0.050924
   4 C :   -0.142590
   5 H :   -0.009734
   6 C :    0.070772
   7 H :    0.048362
   8 H :    0.013658
   9 C :   -0.076565
  10 H :    0.025621
  11 H :    0.013850
  12 C :   -0.060367
  13 H :    0.024163
  14 H :    0.033663
  15 H :    0.041646
  16 S :    0.095840
  17 C :   -0.071813
  18 C :   -0.062333
  19 C :    0.009233
  20 C :   -0.214502
  21 H :    0.027845
  22 C :    0.059696
  23 H :    0.008363
  24 H :    0.033934
  25 C :   -0.092079
  26 H :    0.065091
  27 H :    0.049264
  28 C :   -0.074632
  29 H :    0.026798
  30 H :    0.043379
  31 H :    0.050106
  32 H :    0.040805
  33 H :    0.050912
Sum of atomic charges:    0.0000000

LOEWDIN ATOMIC CHARGES
----------------------
   0 S :    0.386904
   1 C :   -0.166757
   2 C :   -0.054110
   3 C :   -0.059249
   4 C :   -0.206394
   5 H :    0.026835
   6 C :   -0.035018
   7 H :    0.040496
   8 H :    0.026765
   9 C :   -0.038535
  10 H :    0.027873
  11 H :    0.009994
  12 C :   -0.065193
  13 H :    0.025919
  14 H :    0.027528
  15 H :    0.018630
  16 S :    0.378703
  17 C :   -0.182031
  18 C :   -0.079127
  19 C :   -0.046282
  20 C :   -0.186922
  21 H :    0.034548
  22 C :   -0.036312
  23 H :    0.024611
  24 H :    0.040094
  25 C :   -0.041751
  26 H :    0.040626
  27 H :    0.028596
  28 C :   -0.079949
  29 H :    0.021940
  30 H :    0.030057
  31 H :    0.035878
  32 H :    0.025633
  33 H :    0.026004

  Mayer bond orders larger than 0.100000
B(  0-S ,  1-C ) :   1.0933 B(  0-S ,  4-C ) :   1.1409 B(  1-C ,  2-C ) :   1.6501
B(  1-C , 32-H ) :   0.9775 B(  2-C ,  3-C ) :   1.1536 B(  2-C ,  6-C ) :   1.0223
B(  3-C ,  4-C ) :   1.6452 B(  3-C ,  5-H ) :   1.0059 B(  4-C , 20-C ) :   1.0324
B(  6-C ,  7-H ) :   0.9362 B(  6-C ,  8-H ) :   0.9435 B(  6-C ,  9-C ) :   1.0751
B(  9-C , 10-H ) :   0.9559 B(  9-C , 11-H ) :   0.9574 B(  9-C , 12-C ) :   1.0694
B( 12-C , 13-H ) :   0.9753 B( 12-C , 14-H ) :   0.9761 B( 12-C , 15-H ) :   0.9783
B( 16-S , 17-C ) :   1.1473 B( 16-S , 20-C ) :   1.1081 B( 17-C , 18-C ) :   1.6528
B( 17-C , 20-C ) :   0.1000 B( 17-C , 33-H ) :   0.9630 B( 18-C , 19-C ) :   1.2048
B( 18-C , 21-H ) :   0.9829 B( 19-C , 20-C ) :   1.6384 B( 19-C , 22-C ) :   1.0349
B( 22-C , 23-H ) :   0.9391 B( 22-C , 24-H ) :   0.9304 B( 22-C , 25-C ) :   1.0376
B( 25-C , 26-H ) :   0.9554 B( 25-C , 27-H ) :   0.9694 B( 25-C , 28-C ) :   1.0608
B( 28-C , 29-H ) :   0.9776 B( 28-C , 30-H ) :   0.9775 B( 28-C , 31-H ) :   0.9759

Dispersion correction           -0.014564576
FINAL SINGLE POINT ENERGY     -1339.860280989632

DIPOLE MOMENT
-------------
                                X             Y             Z
Electronic contribution:     16.38409     -15.81017       3.41733
Nuclear contribution   :    -16.96620      16.09701      -3.75814
                        -----------------------------------------
Total Dipole Moment    :     -0.58211       0.28684      -0.34081
                        -----------------------------------------
Magnitude (a.u.)       :      0.73299
Magnitude (Debye)      :      1.86312

Rotational constants in cm-1:     0.018898     0.008654     0.006924
Rotational constants in MHz :   566.539230   259.452912   207.562441

                             ****ORCA TERMINATED NORMALLY****
TOTAL RUN TIME: 0 days 0 hours 0 minutes 28 seconds 862 msec
