                         Program Version 4.2.1 -  RELEASE  -
|  1> ! wB97X-D3 SP def2-SVP
|  2> %pal
|  3> nprocs 16
|  4> end
|  5>
|  6> * xyz 0 1
|  7> S 	 -8.26235 	 60.3735 	 54.7049
|  8> C 	 -6.89973 	 59.3137 	 54.8792
|  9> C 	 -6.16881 	 59.6008 	 56.0244
| 10> C 	 -6.86859 	 60.5141 	 56.8428
| 11> C 	 -8.02725 	 61.0973 	 56.3237
| 12> H 	 -6.61373 	 60.8794 	 57.7834
| 13> C 	 -4.86304 	 58.8646 	 56.4155
| 14> H 	 -4.18407 	 59.7413 	 56.4878
| 15> H 	 -4.52464 	 58.2853 	 55.5968
| 16> C 	 -4.88013 	 58.1081 	 57.7737
| 17> H 	 -3.82731 	 57.8554 	 58.0652
| 18> H 	 -5.20802 	 58.6836 	 58.6391
| 19> C 	 -5.71773 	 56.8561 	 57.6454
| 20> H 	 -5.7376 	 56.4385 	 58.6469
| 21> H 	 -6.76832 	 57.0814 	 57.2159
| 22> H 	 -5.24411 	 56.1804 	 56.9446
| 23> S 	 -9.06615 	 61.9943 	 58.6963
| 24> C 	 -10.2091 	 63.3606 	 58.7034
| 25> C 	 -10.4669 	 63.813 	 57.415
| 26> C 	 -9.7314 	 63.1167 	 56.4225
| 27> C 	 -8.9112 	 62.1024 	 56.9532
| 28> H 	 -11.1457 	 64.688 	 57.3067
| 29> C 	 -9.72953 	 63.4327 	 54.9443
| 30> H 	 -10.5264 	 62.7775 	 54.6588
| 31> H 	 -8.83043 	 63.1747 	 54.386
| 32> C 	 -10.1979 	 64.822 	 54.5503
| 33> H 	 -11.1646 	 65.1419 	 54.8852
| 34> H 	 -10.2004 	 64.9737 	 53.4593
| 35> C 	 -9.35226 	 66.0387 	 55.0703
| 36> H 	 -8.31275 	 65.746 	 54.9655
| 37> H 	 -9.62556 	 66.1798 	 56.0807
| 38> H 	 -9.55445 	 66.9378 	 54.4907
| 39> H 	 -6.69754 	 58.5938 	 54.092
| 40> H 	 -10.6956 	 63.7764 	 59.5419
| 41> *
| 42>
| 43>                          ****END OF INPUT****

CARTESIAN COORDINATES (ANGSTROEM)
---------------------------------
  S     -8.262350   60.373500   54.704900
  C     -6.899730   59.313700   54.879200
  C     -6.168810   59.600800   56.024400
  C     -6.868590   60.514100   56.842800
  C     -8.027250   61.097300   56.323700
  H     -6.613730   60.879400   57.783400
  C     -4.863040   58.864600   56.415500
  H     -4.184070   59.741300   56.487800
  H     -4.524640   58.285300   55.596800
  C     -4.880130   58.108100   57.773700
  H     -3.827310   57.855400   58.065200
  H     -5.208020   58.683600   58.639100
  C     -5.717730   56.856100   57.645400
  H     -5.737600   56.438500   58.646900
  H     -6.768320   57.081400   57.215900
  H     -5.244110   56.180400   56.944600
  S     -9.066150   61.994300   58.696300
  C    -10.209100   63.360600   58.703400
  C    -10.466900   63.813000   57.415000
  C     -9.731400   63.116700   56.422500
  C     -8.911200   62.102400   56.953200
  H    -11.145700   64.688000   57.306700
  C     -9.729530   63.432700   54.944300
  H    -10.526400   62.777500   54.658800
  H     -8.830430   63.174700   54.386000
  C    -10.197900   64.822000   54.550300
  H    -11.164600   65.141900   54.885200
  H    -10.200400   64.973700   53.459300
  C     -9.352260   66.038700   55.070300
  H     -8.312750   65.746000   54.965500
  H     -9.625560   66.179800   56.080700
  H     -9.554450   66.937800   54.490700
  H     -6.697540   58.593800   54.092000
  H    -10.695600   63.776400   59.541900

 Total Charge           Charge          ....    0
 Multiplicity           Mult            ....    1
 Number of Electrons    NEL             ....  134
 Basis Dimension        Dim             ....  322

ORBITAL ENERGIES
----------------

  NO   OCC          E(Eh)            E(eV)
   0   2.0000     -88.969870     -2420.9933
   1   2.0000     -88.964970     -2420.8599
   2   2.0000     -10.336232      -281.2632
   3   2.0000     -10.332343      -281.1574
   4   2.0000     -10.319785      -280.8156
   5   2.0000     -10.315309      -280.6938
   6   2.0000     -10.308706      -280.5141
   7   2.0000     -10.305425      -280.4249
   8   2.0000     -10.301539      -280.3191
   9   2.0000     -10.296221      -280.1744
  10   2.0000     -10.290675      -280.0235
  11   2.0000     -10.290311      -280.0136
  12   2.0000     -10.290249      -280.0119
  13   2.0000     -10.283546      -279.8295
  14   2.0000     -10.277915      -279.6763
  15   2.0000     -10.269154      -279.4379
  16   2.0000      -8.083670      -219.9678
  17   2.0000      -8.079023      -219.8414
  18   2.0000      -6.042236      -164.4176
  19   2.0000      -6.038306      -164.3107
  20   2.0000      -6.037492      -164.2885
  21   2.0000      -6.034451      -164.2058
  22   2.0000      -6.033524      -164.1805
  23   2.0000      -6.029981      -164.0841
  24   2.0000      -1.003086       -27.2954
  25   2.0000      -0.982802       -26.7434
  26   2.0000      -0.910632       -24.7796
  27   2.0000      -0.908119       -24.7112
  28   2.0000      -0.870247       -23.6806
  29   2.0000      -0.850754       -23.1502
  30   2.0000      -0.842958       -22.9381
  31   2.0000      -0.817137       -22.2354
  32   2.0000      -0.784914       -21.3586
  33   2.0000      -0.771500       -20.9936
  34   2.0000      -0.707197       -19.2438
  35   2.0000      -0.697198       -18.9717
  36   2.0000      -0.687838       -18.7170
  37   2.0000      -0.665503       -18.1093
  38   2.0000      -0.639706       -17.4073
  39   2.0000      -0.617968       -16.8158
  40   2.0000      -0.601697       -16.3730
  41   2.0000      -0.566486       -15.4149
  42   2.0000      -0.557292       -15.1647
  43   2.0000      -0.553380       -15.0582
  44   2.0000      -0.540020       -14.6947
  45   2.0000      -0.532739       -14.4966
  46   2.0000      -0.526493       -14.3266
  47   2.0000      -0.523900       -14.2561
  48   2.0000      -0.502190       -13.6653
  49   2.0000      -0.489747       -13.3267
  50   2.0000      -0.484964       -13.1965
  51   2.0000      -0.484152       -13.1744
  52   2.0000      -0.477169       -12.9844
  53   2.0000      -0.466099       -12.6832
  54   2.0000      -0.460450       -12.5295
  55   2.0000      -0.446978       -12.1629
  56   2.0000      -0.445318       -12.1177
  57   2.0000      -0.439047       -11.9471
  58   2.0000      -0.427099       -11.6220
  59   2.0000      -0.425412       -11.5761
  60   2.0000      -0.421054       -11.4575
  61   2.0000      -0.407944       -11.1007
  62   2.0000      -0.405620       -11.0375
  63   2.0000      -0.357899        -9.7389
  64   2.0000      -0.333214        -9.0672
  65   2.0000      -0.328679        -8.9438
  66   2.0000      -0.281852        -7.6696
  67   0.0000       0.021605         0.5879
  68   0.0000       0.077188         2.1004
  69   0.0000       0.108281         2.9465
  70   0.0000       0.120281         3.2730
  71   0.0000       0.134130         3.6499

MULLIKEN ATOMIC CHARGES
-----------------------
   0 S :    0.089776
   1 C :   -0.143541
   2 C :   -0.071638
   3 C :    0.017045
   4 C :   -0.131014
   5 H :   -0.019678
   6 C :    0.092767
   7 H :    0.038531
   8 H :    0.010436
   9 C :   -0.080943
  10 H :    0.030940
  11 H :    0.032439
  12 C :   -0.060277
  13 H :    0.038169
  14 H :    0.058457
  15 H :    0.024342
  16 S :    0.100006
  17 C :   -0.072330
  18 C :   -0.060270
  19 C :   -0.055486
  20 C :   -0.143115
  21 H :    0.039261
  22 C :    0.102366
  23 H :    0.042505
  24 H :    0.046664
  25 C :   -0.108468
  26 H :    0.015090
  27 H :    0.031432
  28 C :   -0.045648
  29 H :    0.031219
  30 H :    0.019858
  31 H :    0.035032
  32 H :    0.056207
  33 H :    0.039867
Sum of atomic charges:    0.0000000

LOEWDIN ATOMIC CHARGES
----------------------
   0 S :    0.397408
   1 C :   -0.201542
   2 C :   -0.063481
   3 C :   -0.065270
   4 C :   -0.177949
   5 H :    0.013052
   6 C :   -0.023934
   7 H :    0.038603
   8 H :    0.023488
   9 C :   -0.045740
  10 H :    0.028579
  11 H :    0.023834
  12 C :   -0.069436
  13 H :    0.026208
  14 H :    0.038726
  15 H :    0.020343
  16 S :    0.400921
  17 C :   -0.170134
  18 C :   -0.074338
  19 C :   -0.054819
  20 C :   -0.194906
  21 H :    0.041269
  22 C :   -0.037886
  23 H :    0.042167
  24 H :    0.030899
  25 C :   -0.044218
  26 H :    0.016342
  27 H :    0.028092
  28 C :   -0.058898
  29 H :    0.023182
  30 H :    0.013251
  31 H :    0.026065
  32 H :    0.027973
  33 H :    0.022150

  Mayer bond orders larger than 0.100000
B(  0-S ,  1-C ) :   1.1583 B(  0-S ,  4-C ) :   1.1335 B(  1-C ,  2-C ) :   1.5655
B(  1-C ,  4-C ) :   0.1003 B(  1-C , 32-H ) :   0.9708 B(  2-C ,  3-C ) :   1.2492
B(  2-C ,  6-C ) :   1.0168 B(  3-C ,  4-C ) :   1.5617 B(  3-C ,  5-H ) :   1.0008
B(  4-C , 20-C ) :   1.0594 B(  6-C ,  7-H ) :   0.9314 B(  6-C ,  8-H ) :   0.9470
B(  6-C ,  9-C ) :   1.0673 B(  9-C , 10-H ) :   0.9520 B(  9-C , 11-H ) :   0.9575
B(  9-C , 12-C ) :   1.0717 B( 12-C , 13-H ) :   0.9731 B( 12-C , 14-H ) :   0.9743
B( 12-C , 15-H ) :   0.9751 B( 16-S , 17-C ) :   1.1493 B( 16-S , 20-C ) :   1.1396
B( 17-C , 18-C ) :   1.6116 B( 17-C , 20-C ) :   0.1024 B( 17-C , 33-H ) :   0.9692
B( 18-C , 19-C ) :   1.2518 B( 18-C , 21-H ) :   0.9772 B( 19-C , 20-C ) :   1.5709
B( 19-C , 22-C ) :   1.0075 B( 22-C , 23-H ) :   0.9160 B( 22-C , 24-H ) :   0.9391
B( 22-C , 25-C ) :   1.0928 B( 25-C , 26-H ) :   0.9530 B( 25-C , 27-H ) :   0.9573
B( 25-C , 28-C ) :   1.0705 B( 28-C , 29-H ) :   0.9777 B( 28-C , 30-H ) :   0.9785
B( 28-C , 31-H ) :   0.9774

Dispersion correction           -0.014266760
FINAL SINGLE POINT ENERGY     -1339.876134092623

DIPOLE MOMENT
-------------
                                X             Y             Z
Electronic contribution:     -7.24600      -1.36106       3.27661
Nuclear contribution   :      7.39281       1.46492      -3.30671
                        -----------------------------------------
Total Dipole Moment    :      0.14681       0.10386      -0.03010
                        -----------------------------------------
Magnitude (a.u.)       :      0.18233
Magnitude (Debye)      :      0.46345

Rotational constants in cm-1:     0.024886     0.007474     0.006284
Rotational constants in MHz :   746.059218   224.079758   188.374598

                             ****ORCA TERMINATED NORMALLY****
TOTAL RUN TIME: 0 days 0 hours 0 minutes 32 seconds 477 msec
