                         Program Version 4.2.1 -  RELEASE  -
|  1> ! wB97X-D3 SP def2-SVP
|  2> %pal
|  3> nprocs 16
|  4> end
|  5>
|  6> * xyz 0 1
|  7> S 	 12.6254 	 14.6068 	 83.5909
|  8> C 	 13.4492 	 15.3002 	 82.257
|  9> C 	 13.8081 	 14.3251 	 81.4004
| 10> C 	 13.3338 	 13.0011 	 81.6659
| 11> C 	 12.6063 	 12.9956 	 82.8602
| 12> H 	 13.5607 	 12.137 	 81.048
| 13> C 	 14.6333 	 14.6359 	 80.1648
| 14> H 	 15.0738 	 13.6407 	 79.9133
| 15> H 	 15.4927 	 15.306 	 80.6035
| 16> C 	 13.8583 	 15.4428 	 79.0651
| 17> H 	 13.0074 	 15.8488 	 79.5562
| 18> H 	 14.5773 	 16.2501 	 78.7361
| 19> C 	 13.2987 	 14.5004 	 78.0116
| 20> H 	 12.8376 	 15.0214 	 77.2416
| 21> H 	 14.1248 	 14.1045 	 77.4647
| 22> H 	 12.6446 	 13.7063 	 78.313
| 23> S 	 10.2059 	 12.2143 	 83.9016
| 24> C 	 9.81948 	 10.5888 	 84.041
| 25> C 	 10.9032 	 9.81473 	 83.7395
| 26> C 	 12.0929 	 10.5268 	 83.405
| 27> C 	 11.8338 	 11.8911 	 83.3327
| 28> H 	 10.7115 	 8.73807 	 83.7685
| 29> C 	 13.4435 	 9.86703 	 83.1344
| 30> H 	 13.9555 	 9.72464 	 84.0585
| 31> H 	 14.1055 	 10.5969 	 82.7008
| 32> C 	 13.4746 	 8.5735 	 82.2521
| 33> H 	 12.7699 	 7.86709 	 82.4695
| 34> H 	 14.4789 	 8.16979 	 82.2762
| 35> C 	 13.2079 	 8.85675 	 80.7897
| 36> H 	 13.6108 	 9.78391 	 80.35
| 37> H 	 12.1458 	 8.89918 	 80.5978
| 38> H 	 13.5798 	 8.02381 	 80.2237
| 39> H 	 13.7608 	 16.3234 	 82.1771
| 40> H 	 8.87213 	 10.1927 	 84.4494
| 41> *
| 42>
| 43>                          ****END OF INPUT****

CARTESIAN COORDINATES (ANGSTROEM)
---------------------------------
  S     12.625400   14.606800   83.590900
  C     13.449200   15.300200   82.257000
  C     13.808100   14.325100   81.400400
  C     13.333800   13.001100   81.665900
  C     12.606300   12.995600   82.860200
  H     13.560700   12.137000   81.048000
  C     14.633300   14.635900   80.164800
  H     15.073800   13.640700   79.913300
  H     15.492700   15.306000   80.603500
  C     13.858300   15.442800   79.065100
  H     13.007400   15.848800   79.556200
  H     14.577300   16.250100   78.736100
  C     13.298700   14.500400   78.011600
  H     12.837600   15.021400   77.241600
  H     14.124800   14.104500   77.464700
  H     12.644600   13.706300   78.313000
  S     10.205900   12.214300   83.901600
  C      9.819480   10.588800   84.041000
  C     10.903200    9.814730   83.739500
  C     12.092900   10.526800   83.405000
  C     11.833800   11.891100   83.332700
  H     10.711500    8.738070   83.768500
  C     13.443500    9.867030   83.134400
  H     13.955500    9.724640   84.058500
  H     14.105500   10.596900   82.700800
  C     13.474600    8.573500   82.252100
  H     12.769900    7.867090   82.469500
  H     14.478900    8.169790   82.276200
  C     13.207900    8.856750   80.789700
  H     13.610800    9.783910   80.350000
  H     12.145800    8.899180   80.597800
  H     13.579800    8.023810   80.223700
  H     13.760800   16.323400   82.177100
  H      8.872130   10.192700   84.449400

 Total Charge           Charge          ....    0
 Multiplicity           Mult            ....    1
 Number of Electrons    NEL             ....  134
 Basis Dimension        Dim             ....  322

ORBITAL ENERGIES
----------------

  NO   OCC          E(Eh)            E(eV)
   0   2.0000     -88.965207     -2420.8664
   1   2.0000     -88.961216     -2420.7578
   2   2.0000     -10.330807      -281.1155
   3   2.0000     -10.323511      -280.9170
   4   2.0000     -10.311250      -280.5834
   5   2.0000     -10.305673      -280.4316
   6   2.0000     -10.303867      -280.3825
   7   2.0000     -10.296242      -280.1750
   8   2.0000     -10.295253      -280.1481
   9   2.0000     -10.290685      -280.0238
  10   2.0000     -10.290218      -280.0111
  11   2.0000     -10.289942      -280.0036
  12   2.0000     -10.289533      -279.9924
  13   2.0000     -10.282029      -279.7882
  14   2.0000     -10.272311      -279.5238
  15   2.0000     -10.266324      -279.3609
  16   2.0000      -8.080193      -219.8732
  17   2.0000      -8.077557      -219.8015
  18   2.0000      -6.038796      -164.3240
  19   2.0000      -6.035889      -164.2449
  20   2.0000      -6.034577      -164.2092
  21   2.0000      -6.031734      -164.1318
  22   2.0000      -6.030924      -164.1098
  23   2.0000      -6.028493      -164.0436
  24   2.0000      -1.012872       -27.5617
  25   2.0000      -0.991273       -26.9739
  26   2.0000      -0.911302       -24.7978
  27   2.0000      -0.907945       -24.7064
  28   2.0000      -0.875803       -23.8318
  29   2.0000      -0.855149       -23.2698
  30   2.0000      -0.847009       -23.0483
  31   2.0000      -0.816192       -22.2097
  32   2.0000      -0.786116       -21.3913
  33   2.0000      -0.769154       -20.9297
  34   2.0000      -0.711118       -19.3505
  35   2.0000      -0.705642       -19.2015
  36   2.0000      -0.699064       -19.0225
  37   2.0000      -0.655318       -17.8321
  38   2.0000      -0.637093       -17.3362
  39   2.0000      -0.618026       -16.8173
  40   2.0000      -0.600377       -16.3371
  41   2.0000      -0.571053       -15.5391
  42   2.0000      -0.551770       -15.0144
  43   2.0000      -0.550991       -14.9932
  44   2.0000      -0.547832       -14.9073
  45   2.0000      -0.532870       -14.5001
  46   2.0000      -0.517115       -14.0714
  47   2.0000      -0.516589       -14.0571
  48   2.0000      -0.511389       -13.9156
  49   2.0000      -0.501651       -13.6506
  50   2.0000      -0.488921       -13.3042
  51   2.0000      -0.483935       -13.1685
  52   2.0000      -0.476635       -12.9699
  53   2.0000      -0.467685       -12.7264
  54   2.0000      -0.462286       -12.5795
  55   2.0000      -0.443257       -12.0616
  56   2.0000      -0.436699       -11.8832
  57   2.0000      -0.435996       -11.8641
  58   2.0000      -0.431782       -11.7494
  59   2.0000      -0.428140       -11.6503
  60   2.0000      -0.424702       -11.5567
  61   2.0000      -0.414002       -11.2656
  62   2.0000      -0.407706       -11.0943
  63   2.0000      -0.354990        -9.6598
  64   2.0000      -0.329693        -8.9714
  65   2.0000      -0.326610        -8.8875
  66   2.0000      -0.286346        -7.7919
  67   0.0000       0.026360         0.7173
  68   0.0000       0.079430         2.1614
  69   0.0000       0.111872         3.0442
  70   0.0000       0.126593         3.4448
  71   0.0000       0.135461         3.6861

MULLIKEN ATOMIC CHARGES
-----------------------
   0 S :    0.114969
   1 C :   -0.112554
   2 C :   -0.114304
   3 C :    0.042589
   4 C :   -0.147297
   5 H :    0.004755
   6 C :   -0.004912
   7 H :    0.025025
   8 H :    0.042360
   9 C :   -0.041384
  10 H :    0.030032
  11 H :    0.045137
  12 C :   -0.008020
  13 H :    0.009727
  14 H :    0.010907
  15 H :    0.040597
  16 S :    0.115643
  17 C :   -0.100078
  18 C :   -0.066573
  19 C :   -0.013886
  20 C :   -0.164301
  21 H :    0.020184
  22 C :    0.099422
  23 H :    0.029821
  24 H :   -0.001395
  25 C :   -0.025951
  26 H :    0.016064
  27 H :    0.029276
  28 C :   -0.069595
  29 H :    0.027438
  30 H :    0.030191
  31 H :    0.026556
  32 H :    0.042181
  33 H :    0.067374
Sum of atomic charges:    0.0000000

LOEWDIN ATOMIC CHARGES
----------------------
   0 S :    0.411983
   1 C :   -0.210505
   2 C :   -0.074908
   3 C :   -0.062851
   4 C :   -0.185778
   5 H :    0.030573
   6 C :   -0.041788
   7 H :    0.027555
   8 H :    0.039297
   9 C :   -0.035842
  10 H :    0.021449
  11 H :    0.034558
  12 C :   -0.060436
  13 H :    0.018238
  14 H :    0.022612
  15 H :    0.028499
  16 S :    0.433481
  17 C :   -0.212726
  18 C :   -0.083550
  19 C :   -0.052794
  20 C :   -0.199501
  21 H :    0.032058
  22 C :   -0.027235
  23 H :    0.032789
  24 H :    0.027618
  25 C :   -0.026886
  26 H :    0.013437
  27 H :    0.027882
  28 C :   -0.064400
  29 H :    0.020297
  30 H :    0.023744
  31 H :    0.024750
  32 H :    0.029378
  33 H :    0.039004

  Mayer bond orders larger than 0.100000
B(  0-S ,  1-C ) :   1.1249 B(  0-S ,  4-C ) :   1.1634 B(  1-C ,  2-C ) :   1.6081
B(  1-C , 32-H ) :   0.9713 B(  2-C ,  3-C ) :   1.2648 B(  2-C ,  6-C ) :   1.0177
B(  3-C ,  4-C ) :   1.5232 B(  3-C ,  5-H ) :   0.9890 B(  4-C , 20-C ) :   1.0818
B(  6-C ,  7-H ) :   0.9476 B(  6-C ,  8-H ) :   0.9476 B(  6-C ,  9-C ) :   1.0301
B(  9-C , 10-H ) :   0.9611 B(  9-C , 11-H ) :   0.9567 B(  9-C , 12-C ) :   1.0816
B( 12-C , 13-H ) :   0.9677 B( 12-C , 14-H ) :   0.9721 B( 12-C , 15-H ) :   0.9746
B( 16-S , 17-C ) :   1.1747 B( 16-S , 20-C ) :   1.1510 B( 17-C , 18-C ) :   1.5996
B( 17-C , 33-H ) :   0.9627 B( 18-C , 19-C ) :   1.2408 B( 18-C , 21-H ) :   0.9921
B( 19-C , 20-C ) :   1.5582 B( 19-C , 22-C ) :   1.0340 B( 22-C , 23-H ) :   0.9271
B( 22-C , 24-H ) :   0.9302 B( 22-C , 25-C ) :   1.0736 B( 25-C , 26-H ) :   0.9575
B( 25-C , 27-H ) :   0.9575 B( 25-C , 28-C ) :   1.0726 B( 28-C , 29-H ) :   0.9745
B( 28-C , 30-H ) :   0.9777 B( 28-C , 31-H ) :   0.9728

Dispersion correction           -0.014515944
FINAL SINGLE POINT ENERGY     -1339.865296581627

DIPOLE MOMENT
-------------
                                X             Y             Z
Electronic contribution:    -13.05482       9.11391      23.13525
Nuclear contribution   :     13.34619      -9.48240     -23.56201
                        -----------------------------------------
Total Dipole Moment    :      0.29137      -0.36849      -0.42676
                        -----------------------------------------
Magnitude (a.u.)       :      0.63467
Magnitude (Debye)      :      1.61320

Rotational constants in cm-1:     0.017964     0.009217     0.007104
Rotational constants in MHz :   538.541156   276.316915   212.981207

                             ****ORCA TERMINATED NORMALLY****
TOTAL RUN TIME: 0 days 0 hours 0 minutes 35 seconds 292 msec
