                         Program Version 4.2.1 -  RELEASE  -
|  1> ! wB97X-D3 SP def2-SVP
|  2> %pal
|  3> nprocs 16
|  4> end
|  5>
|  6> * xyz 0 1
|  7> S 	 -5.94906 	 43.3569 	 34.3976
|  8> C 	 -6.25242 	 41.7468 	 34.9704
|  9> C 	 -5.78568 	 41.6581 	 36.3012
| 10> C 	 -4.98503 	 42.8214 	 36.6681
| 11> C 	 -5.00683 	 43.8638 	 35.7607
| 12> H 	 -4.48953 	 43.011 	 37.618
| 13> C 	 -6.02371 	 40.4869 	 37.2769
| 14> H 	 -5.93524 	 39.7006 	 36.6439
| 15> H 	 -7.06139 	 40.4509 	 37.418
| 16> C 	 -5.00653 	 40.295 	 38.4468
| 17> H 	 -3.98768 	 40.3718 	 38.067
| 18> H 	 -4.98574 	 41.113 	 39.1541
| 19> C 	 -5.18705 	 38.9336 	 39.0701
| 20> H 	 -4.41018 	 38.7754 	 39.8171
| 21> H 	 -6.10315 	 38.8451 	 39.6225
| 22> H 	 -5.05231 	 38.0749 	 38.3195
| 23> S 	 -3.29165 	 45.4512 	 37.2468
| 24> C 	 -3.10985 	 47.0796 	 36.8742
| 25> C 	 -3.71499 	 47.4357 	 35.6794
| 26> C 	 -4.34953 	 46.3317 	 35.0183
| 27> C 	 -4.29436 	 45.1691 	 35.8613
| 28> H 	 -3.61908 	 48.4771 	 35.2933
| 29> C 	 -4.9296 	 46.4643 	 33.6381
| 30> H 	 -5.21718 	 47.4633 	 33.3425
| 31> H 	 -5.82931 	 45.9718 	 33.7296
| 32> C 	 -3.95533 	 45.9032 	 32.5217
| 33> H 	 -3.75123 	 44.896 	 32.7908
| 34> H 	 -2.98347 	 46.4533 	 32.6123
| 35> C 	 -4.61197 	 45.8872 	 31.1389
| 36> H 	 -4.04753 	 45.3946 	 30.3471
| 37> H 	 -4.82432 	 46.8484 	 30.6703
| 38> H 	 -5.58997 	 45.4051 	 31.2083
| 39> H 	 -6.77199 	 40.9962 	 34.3602
| 40> H 	 -2.57052 	 47.8642 	 37.4116
| 41> *
| 42>
| 43>                          ****END OF INPUT****

CARTESIAN COORDINATES (ANGSTROEM)
---------------------------------
  S     -5.949060   43.356900   34.397600
  C     -6.252420   41.746800   34.970400
  C     -5.785680   41.658100   36.301200
  C     -4.985030   42.821400   36.668100
  C     -5.006830   43.863800   35.760700
  H     -4.489530   43.011000   37.618000
  C     -6.023710   40.486900   37.276900
  H     -5.935240   39.700600   36.643900
  H     -7.061390   40.450900   37.418000
  C     -5.006530   40.295000   38.446800
  H     -3.987680   40.371800   38.067000
  H     -4.985740   41.113000   39.154100
  C     -5.187050   38.933600   39.070100
  H     -4.410180   38.775400   39.817100
  H     -6.103150   38.845100   39.622500
  H     -5.052310   38.074900   38.319500
  S     -3.291650   45.451200   37.246800
  C     -3.109850   47.079600   36.874200
  C     -3.714990   47.435700   35.679400
  C     -4.349530   46.331700   35.018300
  C     -4.294360   45.169100   35.861300
  H     -3.619080   48.477100   35.293300
  C     -4.929600   46.464300   33.638100
  H     -5.217180   47.463300   33.342500
  H     -5.829310   45.971800   33.729600
  C     -3.955330   45.903200   32.521700
  H     -3.751230   44.896000   32.790800
  H     -2.983470   46.453300   32.612300
  C     -4.611970   45.887200   31.138900
  H     -4.047530   45.394600   30.347100
  H     -4.824320   46.848400   30.670300
  H     -5.589970   45.405100   31.208300
  H     -6.771990   40.996200   34.360200
  H     -2.570520   47.864200   37.411600

 Total Charge           Charge          ....    0
 Multiplicity           Mult            ....    1
 Number of Electrons    NEL             ....  134
 Basis Dimension        Dim             ....  322

ORBITAL ENERGIES
----------------

  NO   OCC          E(Eh)            E(eV)
   0   2.0000     -88.972290     -2421.0591
   1   2.0000     -88.964613     -2420.8502
   2   2.0000     -10.334347      -281.2119
   3   2.0000     -10.332287      -281.1558
   4   2.0000     -10.316145      -280.7166
   5   2.0000     -10.313065      -280.6328
   6   2.0000     -10.310111      -280.5524
   7   2.0000     -10.308517      -280.5090
   8   2.0000     -10.294298      -280.1221
   9   2.0000     -10.291760      -280.0530
  10   2.0000     -10.290465      -280.0178
  11   2.0000     -10.286857      -279.9196
  12   2.0000     -10.284862      -279.8653
  13   2.0000     -10.282838      -279.8102
  14   2.0000     -10.282461      -279.8000
  15   2.0000     -10.274415      -279.5810
  16   2.0000      -8.087872      -220.0822
  17   2.0000      -8.079035      -219.8417
  18   2.0000      -6.046265      -164.5272
  19   2.0000      -6.042231      -164.4175
  20   2.0000      -6.038775      -164.3234
  21   2.0000      -6.037638      -164.2925
  22   2.0000      -6.033403      -164.1772
  23   2.0000      -6.029915      -164.0823
  24   2.0000      -1.008590       -27.4451
  25   2.0000      -0.986353       -26.8400
  26   2.0000      -0.911729       -24.8094
  27   2.0000      -0.906844       -24.6765
  28   2.0000      -0.868273       -23.6269
  29   2.0000      -0.852276       -23.1916
  30   2.0000      -0.843751       -22.9596
  31   2.0000      -0.813857       -22.1462
  32   2.0000      -0.784606       -21.3502
  33   2.0000      -0.770275       -20.9603
  34   2.0000      -0.715280       -19.4638
  35   2.0000      -0.704832       -19.1795
  36   2.0000      -0.686186       -18.6721
  37   2.0000      -0.667017       -18.1505
  38   2.0000      -0.630328       -17.1521
  39   2.0000      -0.616430       -16.7739
  40   2.0000      -0.595310       -16.1992
  41   2.0000      -0.565736       -15.3945
  42   2.0000      -0.565149       -15.3785
  43   2.0000      -0.559200       -15.2166
  44   2.0000      -0.532808       -14.4984
  45   2.0000      -0.520258       -14.1569
  46   2.0000      -0.516857       -14.0644
  47   2.0000      -0.506819       -13.7912
  48   2.0000      -0.504288       -13.7224
  49   2.0000      -0.502158       -13.6644
  50   2.0000      -0.487238       -13.2584
  51   2.0000      -0.485102       -13.2003
  52   2.0000      -0.475715       -12.9449
  53   2.0000      -0.465709       -12.6726
  54   2.0000      -0.462922       -12.5968
  55   2.0000      -0.451814       -12.2945
  56   2.0000      -0.439234       -11.9522
  57   2.0000      -0.438250       -11.9254
  58   2.0000      -0.433907       -11.8072
  59   2.0000      -0.429972       -11.7001
  60   2.0000      -0.423784       -11.5318
  61   2.0000      -0.415129       -11.2962
  62   2.0000      -0.405641       -11.0380
  63   2.0000      -0.360928        -9.8214
  64   2.0000      -0.332631        -9.0513
  65   2.0000      -0.323603        -8.8057
  66   2.0000      -0.277885        -7.5616
  67   0.0000       0.020395         0.5550
  68   0.0000       0.087636         2.3847
  69   0.0000       0.117501         3.1974
  70   0.0000       0.125201         3.4069
  71   0.0000       0.139202         3.7879

MULLIKEN ATOMIC CHARGES
-----------------------
   0 S :    0.084229
   1 C :   -0.145832
   2 C :   -0.108432
   3 C :   -0.052769
   4 C :   -0.073150
   5 H :    0.016469
   6 C :    0.153506
   7 H :   -0.017997
   8 H :    0.020914
   9 C :   -0.066570
  10 H :    0.026920
  11 H :    0.032521
  12 C :   -0.050634
  13 H :    0.026936
  14 H :    0.033979
  15 H :    0.045485
  16 S :    0.119416
  17 C :   -0.079844
  18 C :   -0.058060
  19 C :   -0.085365
  20 C :   -0.136392
  21 H :    0.030985
  22 C :    0.088943
  23 H :    0.011978
  24 H :    0.006088
  25 C :   -0.046517
  26 H :    0.021362
  27 H :    0.037335
  28 C :   -0.039427
  29 H :    0.034066
  30 H :    0.021247
  31 H :    0.028321
  32 H :    0.062073
  33 H :    0.058220
Sum of atomic charges:    0.0000000

LOEWDIN ATOMIC CHARGES
----------------------
   0 S :    0.425446
   1 C :   -0.221879
   2 C :   -0.045316
   3 C :   -0.092285
   4 C :   -0.190198
   5 H :    0.021990
   6 C :   -0.026851
   7 H :    0.020944
   8 H :    0.031286
   9 C :   -0.038946
  10 H :    0.029565
  11 H :    0.022549
  12 C :   -0.066191
  13 H :    0.026206
  14 H :    0.022797
  15 H :    0.035403
  16 S :    0.454611
  17 C :   -0.217176
  18 C :   -0.078348
  19 C :   -0.048590
  20 C :   -0.204426
  21 H :    0.038150
  22 C :   -0.030456
  23 H :    0.028975
  24 H :    0.009806
  25 C :   -0.030610
  26 H :    0.016421
  27 H :    0.030107
  28 C :   -0.071749
  29 H :    0.027561
  30 H :    0.021826
  31 H :    0.028576
  32 H :    0.034244
  33 H :    0.036559

  Mayer bond orders larger than 0.100000
B(  0-S ,  1-C ) :   1.1402 B(  0-S ,  4-C ) :   1.1541 B(  1-C ,  2-C ) :   1.5735
B(  1-C , 32-H ) :   0.9753 B(  2-C ,  3-C ) :   1.2680 B(  2-C ,  6-C ) :   0.9934
B(  3-C ,  4-C ) :   1.5504 B(  3-C ,  5-H ) :   0.9797 B(  4-C , 20-C ) :   1.0732
B(  6-C ,  7-H ) :   0.9238 B(  6-C ,  8-H ) :   0.9284 B(  6-C ,  9-C ) :   1.0610
B(  9-C , 10-H ) :   0.9526 B(  9-C , 11-H ) :   0.9498 B(  9-C , 12-C ) :   1.0927
B( 12-C , 13-H ) :   0.9709 B( 12-C , 14-H ) :   0.9750 B( 12-C , 15-H ) :   0.9733
B( 16-S , 17-C ) :   1.1729 B( 16-S , 20-C ) :   1.1617 B( 17-C , 18-C ) :   1.5876
B( 17-C , 33-H ) :   0.9620 B( 18-C , 19-C ) :   1.2894 B( 18-C , 21-H ) :   0.9836
B( 19-C , 20-C ) :   1.5076 B( 19-C , 22-C ) :   1.0485 B( 22-C , 23-H ) :   0.9342
B( 22-C , 24-H ) :   0.9195 B( 22-C , 25-C ) :   1.0519 B( 25-C , 26-H ) :   0.9549
B( 25-C , 27-H ) :   0.9570 B( 25-C , 28-C ) :   1.0769 B( 28-C , 29-H ) :   0.9743
B( 28-C , 30-H ) :   0.9753 B( 28-C , 31-H ) :   0.9714

Dispersion correction           -0.013879091
FINAL SINGLE POINT ENERGY     -1339.866846980203

DIPOLE MOMENT
-------------
                                X             Y             Z
Electronic contribution:      1.49779      10.44889       3.78214
Nuclear contribution   :     -1.49643     -10.55890      -3.70351
                        -----------------------------------------
Total Dipole Moment    :      0.00136      -0.11001       0.07863
                        -----------------------------------------
Magnitude (a.u.)       :      0.13523
Magnitude (Debye)      :      0.34372

Rotational constants in cm-1:     0.021220     0.007971     0.006021
Rotational constants in MHz :   636.159540   238.960225   180.490783

                             ****ORCA TERMINATED NORMALLY****
TOTAL RUN TIME: 0 days 0 hours 0 minutes 31 seconds 538 msec
