                         Program Version 4.2.1 -  RELEASE  -
|  1> ! wB97X-D3 SP def2-SVP
|  2> %pal
|  3> nprocs 16
|  4> end
|  5>
|  6> * xyz 0 1
|  7> S 	 51.1415 	 10.4575 	 50.8826
|  8> C 	 50.3477 	 9.3381 	 49.7193
|  9> C 	 49.8202 	 10.0029 	 48.648
| 10> C 	 49.9998 	 11.381 	 48.7186
| 11> C 	 50.5606 	 11.7806 	 49.9232
| 12> H 	 49.6545 	 12.133 	 48.0717
| 13> C 	 49.2259 	 9.29152 	 47.5079
| 14> H 	 49.0848 	 8.22534 	 47.8286
| 15> H 	 50.0374 	 9.24193 	 46.8191
| 16> C 	 48.0781 	 9.94961 	 46.7459
| 17> H 	 48.4497 	 10.9123 	 46.2283
| 18> H 	 47.8523 	 9.26456 	 45.9632
| 19> C 	 46.7899 	 10.1606 	 47.5806
| 20> H 	 46.9007 	 10.6831 	 48.5212
| 21> H 	 46.1371 	 10.8203 	 46.9726
| 22> H 	 46.3693 	 9.19372 	 47.7767
| 23> S 	 52.3585 	 13.6499 	 50.7054
| 24> C 	 51.9006 	 15.2951 	 50.5167
| 25> C 	 50.5703 	 15.5106 	 50.2455
| 26> C 	 49.8443 	 14.2939 	 50.2114
| 27> C 	 50.7063 	 13.1707 	 50.3885
| 28> H 	 50.1756 	 16.4982 	 50.1476
| 29> C 	 48.3096 	 14.2452 	 50.0176
| 30> H 	 48.1435 	 13.2608 	 49.5523
| 31> H 	 47.9948 	 14.8965 	 49.2755
| 32> C 	 47.529 	 14.4858 	 51.3065
| 33> H 	 46.4697 	 14.6581 	 51.0094
| 34> H 	 47.7988 	 15.4258 	 51.6448
| 35> C 	 47.7939 	 13.475 	 52.4027
| 36> H 	 47.0993 	 13.538 	 53.3046
| 37> H 	 48.7919 	 13.7112 	 52.7392
| 38> H 	 47.7904 	 12.456 	 51.985
| 39> H 	 50.5 	 8.33626 	 49.6444
| 40> H 	 52.602 	 16.0495 	 50.5674
| 41> *
| 42>
| 43>                          ****END OF INPUT****

CARTESIAN COORDINATES (ANGSTROEM)
---------------------------------
  S     51.141500   10.457500   50.882600
  C     50.347700    9.338100   49.719300
  C     49.820200   10.002900   48.648000
  C     49.999800   11.381000   48.718600
  C     50.560600   11.780600   49.923200
  H     49.654500   12.133000   48.071700
  C     49.225900    9.291520   47.507900
  H     49.084800    8.225340   47.828600
  H     50.037400    9.241930   46.819100
  C     48.078100    9.949610   46.745900
  H     48.449700   10.912300   46.228300
  H     47.852300    9.264560   45.963200
  C     46.789900   10.160600   47.580600
  H     46.900700   10.683100   48.521200
  H     46.137100   10.820300   46.972600
  H     46.369300    9.193720   47.776700
  S     52.358500   13.649900   50.705400
  C     51.900600   15.295100   50.516700
  C     50.570300   15.510600   50.245500
  C     49.844300   14.293900   50.211400
  C     50.706300   13.170700   50.388500
  H     50.175600   16.498200   50.147600
  C     48.309600   14.245200   50.017600
  H     48.143500   13.260800   49.552300
  H     47.994800   14.896500   49.275500
  C     47.529000   14.485800   51.306500
  H     46.469700   14.658100   51.009400
  H     47.798800   15.425800   51.644800
  C     47.793900   13.475000   52.402700
  H     47.099300   13.538000   53.304600
  H     48.791900   13.711200   52.739200
  H     47.790400   12.456000   51.985000
  H     50.500000    8.336260   49.644400
  H     52.602000   16.049500   50.567400

 Total Charge           Charge          ....    0
 Multiplicity           Mult            ....    1
 Number of Electrons    NEL             ....  134
 Basis Dimension        Dim             ....  322

ORBITAL ENERGIES
----------------

  NO   OCC          E(Eh)            E(eV)
   0   2.0000     -88.967870     -2420.9388
   1   2.0000     -88.964219     -2420.8395
   2   2.0000     -10.327687      -281.0307
   3   2.0000     -10.326510      -280.9986
   4   2.0000     -10.311054      -280.5781
   5   2.0000     -10.308548      -280.5099
   6   2.0000     -10.299901      -280.2745
   7   2.0000     -10.294288      -280.1218
   8   2.0000     -10.292268      -280.0669
   9   2.0000     -10.291134      -280.0360
  10   2.0000     -10.287653      -279.9413
  11   2.0000     -10.287532      -279.9380
  12   2.0000     -10.283466      -279.8273
  13   2.0000     -10.278911      -279.7034
  14   2.0000     -10.277915      -279.6763
  15   2.0000     -10.274154      -279.5739
  16   2.0000      -8.083410      -219.9608
  17   2.0000      -8.078519      -219.8277
  18   2.0000      -6.041649      -164.4016
  19   2.0000      -6.037828      -164.2976
  20   2.0000      -6.037014      -164.2755
  21   2.0000      -6.034383      -164.2039
  22   2.0000      -6.033228      -164.1725
  23   2.0000      -6.029215      -164.0633
  24   2.0000      -1.007661       -27.4199
  25   2.0000      -0.986088       -26.8328
  26   2.0000      -0.916182       -24.9306
  27   2.0000      -0.911455       -24.8020
  28   2.0000      -0.868416       -23.6308
  29   2.0000      -0.850116       -23.1328
  30   2.0000      -0.845025       -22.9943
  31   2.0000      -0.815825       -22.1997
  32   2.0000      -0.787606       -21.4318
  33   2.0000      -0.775580       -21.1046
  34   2.0000      -0.711029       -19.3481
  35   2.0000      -0.698061       -18.9952
  36   2.0000      -0.695685       -18.9306
  37   2.0000      -0.659878       -17.9562
  38   2.0000      -0.639606       -17.4046
  39   2.0000      -0.622978       -16.9521
  40   2.0000      -0.600176       -16.3316
  41   2.0000      -0.564689       -15.3660
  42   2.0000      -0.555584       -15.1182
  43   2.0000      -0.551183       -14.9985
  44   2.0000      -0.543384       -14.7862
  45   2.0000      -0.538052       -14.6411
  46   2.0000      -0.523414       -14.2428
  47   2.0000      -0.507417       -13.8075
  48   2.0000      -0.500336       -13.6148
  49   2.0000      -0.497260       -13.5311
  50   2.0000      -0.491968       -13.3871
  51   2.0000      -0.479150       -13.0383
  52   2.0000      -0.470252       -12.7962
  53   2.0000      -0.462474       -12.5845
  54   2.0000      -0.457224       -12.4417
  55   2.0000      -0.450280       -12.2527
  56   2.0000      -0.447374       -12.1737
  57   2.0000      -0.439260       -11.9529
  58   2.0000      -0.431196       -11.7335
  59   2.0000      -0.426609       -11.6086
  60   2.0000      -0.423475       -11.5233
  61   2.0000      -0.421142       -11.4599
  62   2.0000      -0.409082       -11.1317
  63   2.0000      -0.343840        -9.3564
  64   2.0000      -0.332320        -9.0429
  65   2.0000      -0.330325        -8.9886
  66   2.0000      -0.286448        -7.7946
  67   0.0000       0.027728         0.7545
  68   0.0000       0.068853         1.8736
  69   0.0000       0.104181         2.8349
  70   0.0000       0.123012         3.3473
  71   0.0000       0.131105         3.5676

MULLIKEN ATOMIC CHARGES
-----------------------
   0 S :    0.096452
   1 C :   -0.078102
   2 C :   -0.089982
   3 C :    0.043941
   4 C :   -0.158751
   5 H :   -0.007943
   6 C :    0.066677
   7 H :    0.021731
   8 H :    0.032774
   9 C :   -0.086910
  10 H :    0.041710
  11 H :    0.026520
  12 C :   -0.042895
  13 H :    0.042317
  14 H :    0.035892
  15 H :    0.031512
  16 S :    0.115495
  17 C :   -0.059350
  18 C :   -0.020910
  19 C :   -0.094255
  20 C :   -0.138488
  21 H :    0.011633
  22 C :    0.102704
  23 H :    0.014433
  24 H :    0.001545
  25 C :   -0.027313
  26 H :    0.025822
  27 H :   -0.003128
  28 C :   -0.057860
  29 H :    0.046059
  30 H :    0.041201
  31 H :    0.040758
  32 H :    0.001618
  33 H :    0.025094
Sum of atomic charges:    0.0000000

LOEWDIN ATOMIC CHARGES
----------------------
   0 S :    0.385389
   1 C :   -0.181476
   2 C :   -0.056664
   3 C :   -0.066461
   4 C :   -0.185818
   5 H :    0.022448
   6 C :   -0.038777
   7 H :    0.034954
   8 H :    0.036240
   9 C :   -0.041535
  10 H :    0.031568
  11 H :    0.024393
  12 C :   -0.064197
  13 H :    0.023817
  14 H :    0.030518
  15 H :    0.024799
  16 S :    0.427667
  17 C :   -0.174600
  18 C :   -0.069159
  19 C :   -0.046164
  20 C :   -0.210325
  21 H :    0.030422
  22 C :   -0.024511
  23 H :    0.028937
  24 H :    0.020431
  25 C :   -0.037590
  26 H :    0.025875
  27 H :    0.011838
  28 C :   -0.066147
  29 H :    0.034127
  30 H :    0.027236
  31 H :    0.028429
  32 H :    0.004563
  33 H :    0.009773

  Mayer bond orders larger than 0.100000
B(  0-S ,  1-C ) :   1.1031 B(  0-S ,  4-C ) :   1.1672 B(  1-C ,  2-C ) :   1.6355
B(  1-C , 32-H ) :   0.9716 B(  2-C ,  3-C ) :   1.2284 B(  2-C ,  6-C ) :   1.0233
B(  3-C ,  4-C ) :   1.5706 B(  3-C ,  5-H ) :   0.9976 B(  4-C , 20-C ) :   1.0011
B(  6-C ,  7-H ) :   0.9364 B(  6-C ,  8-H ) :   0.9203 B(  6-C ,  9-C ) :   1.0863
B(  9-C , 10-H ) :   0.9479 B(  9-C , 11-H ) :   0.9508 B(  9-C , 12-C ) :   1.0711
B( 12-C , 13-H ) :   0.9778 B( 12-C , 14-H ) :   0.9752 B( 12-C , 15-H ) :   0.9740
B( 16-S , 17-C ) :   1.1827 B( 16-S , 20-C ) :   1.1558 B( 17-C , 18-C ) :   1.5801
B( 17-C , 33-H ) :   0.9757 B( 18-C , 19-C ) :   1.2634 B( 18-C , 21-H ) :   0.9999
B( 19-C , 20-C ) :   1.5660 B( 19-C , 22-C ) :   1.0272 B( 22-C , 23-H ) :   0.9322
B( 22-C , 24-H ) :   0.9290 B( 22-C , 25-C ) :   1.0773 B( 25-C , 26-H ) :   0.9522
B( 25-C , 27-H ) :   0.9525 B( 25-C , 28-C ) :   1.0643 B( 28-C , 29-H ) :   0.9735
B( 28-C , 30-H ) :   0.9711 B( 28-C , 31-H ) :   0.9790

Dispersion correction           -0.015607882
FINAL SINGLE POINT ENERGY     -1339.866406444292

DIPOLE MOMENT
-------------
                                X             Y             Z
Electronic contribution:     24.89302       1.16469       8.40126
Nuclear contribution   :    -25.26314      -0.89409      -8.97000
                        -----------------------------------------
Total Dipole Moment    :     -0.37012       0.27060      -0.56874
                        -----------------------------------------
Magnitude (a.u.)       :      0.73053
Magnitude (Debye)      :      1.85686

Rotational constants in cm-1:     0.018340     0.009879     0.008005
Rotational constants in MHz :   549.810425   296.150958   239.986383

                             ****ORCA TERMINATED NORMALLY****
TOTAL RUN TIME: 0 days 0 hours 0 minutes 37 seconds 31 msec
