                         Program Version 4.2.1 -  RELEASE  -
|  1> ! wB97X-D3 SP def2-SVP
|  2> %pal
|  3> nprocs 16
|  4> end
|  5>
|  6> * xyz 0 1
|  7> S 	 12.0605 	 -5.66907 	 91.282
|  8> C 	 10.8206 	 -4.51659 	 91.9266
|  9> C 	 9.86631 	 -5.20962 	 92.6716
| 10> C 	 10.0161 	 -6.60238 	 92.4599
| 11> C 	 11.0363 	 -7.01753 	 91.6774
| 12> H 	 9.43635 	 -7.43762 	 92.785
| 13> C 	 8.77706 	 -4.61011 	 93.3903
| 14> H 	 9.08937 	 -3.61335 	 93.7971
| 15> H 	 8.51994 	 -5.13148 	 94.2515
| 16> C 	 7.48163 	 -4.40532 	 92.5688
| 17> H 	 6.8616 	 -3.60754 	 93.0225
| 18> H 	 7.79704 	 -3.94001 	 91.6326
| 19> C 	 6.59158 	 -5.61125 	 92.2442
| 20> H 	 5.67981 	 -5.40776 	 91.7541
| 21> H 	 7.15459 	 -6.39199 	 91.8451
| 22> H 	 6.31294 	 -5.97145 	 93.2169
| 23> S 	 13.0812 	 -8.57939 	 91.045
| 24> C 	 12.7638 	 -10.2192 	 90.5602
| 25> C 	 11.5269 	 -10.6019 	 90.8755
| 26> C 	 10.696 	 -9.60562 	 91.3405
| 27> C 	 11.3568 	 -8.37305 	 91.3339
| 28> H 	 11.2509 	 -11.5911 	 90.7149
| 29> C 	 9.18115 	 -9.73969 	 91.3818
| 30> H 	 8.76784 	 -8.8383 	 90.9479
| 31> H 	 8.95184 	 -9.54301 	 92.4349
| 32> C 	 8.45497 	 -11.0362 	 90.902
| 33> H 	 8.96849 	 -11.9436 	 91.222
| 34> H 	 8.51063 	 -11.0288 	 89.8365
| 35> C 	 7.0311 	 -11.0418 	 91.3669
| 36> H 	 6.47152 	 -11.7247 	 90.7919
| 37> H 	 6.51381 	 -10.0471 	 91.3284
| 38> H 	 6.92217 	 -11.2362 	 92.4433
| 39> H 	 10.9434 	 -3.44717 	 91.8767
| 40> H 	 13.4214 	 -10.9449 	 90.1575
| 41> *
| 42>
| 43>                          ****END OF INPUT****

CARTESIAN COORDINATES (ANGSTROEM)
---------------------------------
  S     12.060500   -5.669070   91.282000
  C     10.820600   -4.516590   91.926600
  C      9.866310   -5.209620   92.671600
  C     10.016100   -6.602380   92.459900
  C     11.036300   -7.017530   91.677400
  H      9.436350   -7.437620   92.785000
  C      8.777060   -4.610110   93.390300
  H      9.089370   -3.613350   93.797100
  H      8.519940   -5.131480   94.251500
  C      7.481630   -4.405320   92.568800
  H      6.861600   -3.607540   93.022500
  H      7.797040   -3.940010   91.632600
  C      6.591580   -5.611250   92.244200
  H      5.679810   -5.407760   91.754100
  H      7.154590   -6.391990   91.845100
  H      6.312940   -5.971450   93.216900
  S     13.081200   -8.579390   91.045000
  C     12.763800  -10.219200   90.560200
  C     11.526900  -10.601900   90.875500
  C     10.696000   -9.605620   91.340500
  C     11.356800   -8.373050   91.333900
  H     11.250900  -11.591100   90.714900
  C      9.181150   -9.739690   91.381800
  H      8.767840   -8.838300   90.947900
  H      8.951840   -9.543010   92.434900
  C      8.454970  -11.036200   90.902000
  H      8.968490  -11.943600   91.222000
  H      8.510630  -11.028800   89.836500
  C      7.031100  -11.041800   91.366900
  H      6.471520  -11.724700   90.791900
  H      6.513810  -10.047100   91.328400
  H      6.922170  -11.236200   92.443300
  H     10.943400   -3.447170   91.876700
  H     13.421400  -10.944900   90.157500

 Total Charge           Charge          ....    0
 Multiplicity           Mult            ....    1
 Number of Electrons    NEL             ....  134
 Basis Dimension        Dim             ....  322

ORBITAL ENERGIES
----------------

  NO   OCC          E(Eh)            E(eV)
   0   2.0000     -88.963566     -2420.8217
   1   2.0000     -88.962699     -2420.7981
   2   2.0000     -10.324549      -280.9453
   3   2.0000     -10.322552      -280.8909
   4   2.0000     -10.318534      -280.7816
   5   2.0000     -10.305458      -280.4258
   6   2.0000     -10.301425      -280.3160
   7   2.0000     -10.300646      -280.2948
   8   2.0000     -10.295260      -280.1483
   9   2.0000     -10.291520      -280.0465
  10   2.0000     -10.287577      -279.9392
  11   2.0000     -10.287208      -279.9292
  12   2.0000     -10.284717      -279.8614
  13   2.0000     -10.280279      -279.7406
  14   2.0000     -10.277824      -279.6738
  15   2.0000     -10.268941      -279.4321
  16   2.0000      -8.078727      -219.8333
  17   2.0000      -8.076969      -219.7855
  18   2.0000      -6.037181      -164.2800
  19   2.0000      -6.035673      -164.2390
  20   2.0000      -6.033380      -164.1766
  21   2.0000      -6.031707      -164.1311
  22   2.0000      -6.029326      -164.0663
  23   2.0000      -6.027368      -164.0130
  24   2.0000      -1.014601       -27.6087
  25   2.0000      -0.988639       -26.9022
  26   2.0000      -0.920646       -25.0521
  27   2.0000      -0.913265       -24.8512
  28   2.0000      -0.874951       -23.8086
  29   2.0000      -0.861410       -23.4402
  30   2.0000      -0.846082       -23.0231
  31   2.0000      -0.822720       -22.3873
  32   2.0000      -0.789100       -21.4725
  33   2.0000      -0.774979       -21.0882
  34   2.0000      -0.715922       -19.4812
  35   2.0000      -0.708669       -19.2839
  36   2.0000      -0.705774       -19.2051
  37   2.0000      -0.661857       -18.0100
  38   2.0000      -0.645563       -17.5667
  39   2.0000      -0.617472       -16.8023
  40   2.0000      -0.601202       -16.3596
  41   2.0000      -0.580116       -15.7858
  42   2.0000      -0.569143       -15.4872
  43   2.0000      -0.555480       -15.1154
  44   2.0000      -0.543401       -14.7867
  45   2.0000      -0.532164       -14.4809
  46   2.0000      -0.517373       -14.0784
  47   2.0000      -0.513396       -13.9702
  48   2.0000      -0.507377       -13.8064
  49   2.0000      -0.502576       -13.6758
  50   2.0000      -0.495324       -13.4784
  51   2.0000      -0.488508       -13.2930
  52   2.0000      -0.472282       -12.8515
  53   2.0000      -0.469037       -12.7631
  54   2.0000      -0.463901       -12.6234
  55   2.0000      -0.459896       -12.5144
  56   2.0000      -0.446840       -12.1591
  57   2.0000      -0.435736       -11.8570
  58   2.0000      -0.434178       -11.8146
  59   2.0000      -0.425740       -11.5850
  60   2.0000      -0.424467       -11.5503
  61   2.0000      -0.417106       -11.3500
  62   2.0000      -0.409778       -11.1506
  63   2.0000      -0.358494        -9.7551
  64   2.0000      -0.335767        -9.1367
  65   2.0000      -0.327363        -8.9080
  66   2.0000      -0.278948        -7.5906
  67   0.0000       0.016266         0.4426
  68   0.0000       0.075480         2.0539
  69   0.0000       0.097647         2.6571
  70   0.0000       0.130364         3.5474
  71   0.0000       0.132674         3.6103

MULLIKEN ATOMIC CHARGES
-----------------------
   0 S :    0.087987
   1 C :   -0.120572
   2 C :   -0.036761
   3 C :   -0.015828
   4 C :   -0.096041
   5 H :   -0.028310
   6 C :    0.089936
   7 H :    0.024077
   8 H :    0.005154
   9 C :   -0.092935
  10 H :    0.027843
  11 H :    0.016097
  12 C :    0.020697
  13 H :    0.033896
  14 H :    0.015491
  15 H :    0.001640
  16 S :    0.086186
  17 C :   -0.033743
  18 C :   -0.047742
  19 C :    0.016859
  20 C :   -0.154455
  21 H :   -0.018272
  22 C :   -0.031249
  23 H :    0.039743
  24 H :    0.038037
  25 C :   -0.011283
  26 H :    0.035651
  27 H :    0.028988
  28 C :   -0.047931
  29 H :    0.028410
  30 H :    0.029585
  31 H :    0.033224
  32 H :    0.046559
  33 H :    0.029060
Sum of atomic charges:   -0.0000000

LOEWDIN ATOMIC CHARGES
----------------------
   0 S :    0.372182
   1 C :   -0.168155
   2 C :   -0.057702
   3 C :   -0.071584
   4 C :   -0.193267
   5 H :    0.024291
   6 C :   -0.032931
   7 H :    0.040876
   8 H :    0.022333
   9 C :   -0.035823
  10 H :    0.025044
  11 H :    0.018939
  12 C :   -0.055386
  13 H :    0.025701
  14 H :    0.015716
  15 H :    0.022069
  16 S :    0.400010
  17 C :   -0.176572
  18 C :   -0.070067
  19 C :   -0.057614
  20 C :   -0.177766
  21 H :    0.021403
  22 C :   -0.036482
  23 H :    0.033039
  24 H :    0.029363
  25 C :   -0.035167
  26 H :    0.026384
  27 H :    0.024294
  28 C :   -0.063527
  29 H :    0.021223
  30 H :    0.031124
  31 H :    0.028559
  32 H :    0.025090
  33 H :    0.024403

  Mayer bond orders larger than 0.100000
B(  0-S ,  1-C ) :   1.1184 B(  0-S ,  4-C ) :   1.1209 B(  1-C ,  2-C ) :   1.5961
B(  1-C , 32-H ) :   0.9738 B(  2-C ,  3-C ) :   1.1928 B(  2-C ,  6-C ) :   1.0694
B(  3-C ,  4-C ) :   1.6012 B(  3-C ,  5-H ) :   0.9987 B(  4-C , 20-C ) :   1.0896
B(  6-C ,  7-H ) :   0.9247 B(  6-C ,  8-H ) :   0.9306 B(  6-C ,  9-C ) :   1.0637
B(  9-C , 10-H ) :   0.9569 B(  9-C , 11-H ) :   0.9533 B(  9-C , 12-C ) :   1.0792
B( 12-C , 13-H ) :   0.9711 B( 12-C , 14-H ) :   0.9724 B( 12-C , 15-H ) :   0.9685
B( 16-S , 17-C ) :   1.1362 B( 16-S , 20-C ) :   1.1361 B( 17-C , 18-C ) :   1.6323
B( 17-C , 20-C ) :   0.1011 B( 17-C , 33-H ) :   0.9641 B( 18-C , 19-C ) :   1.2600
B( 18-C , 21-H ) :   0.9957 B( 19-C , 20-C ) :   1.5676 B( 19-C , 22-C ) :   1.0132
B( 22-C , 23-H ) :   0.9450 B( 22-C , 24-H ) :   0.9212 B( 22-C , 25-C ) :   1.0668
B( 25-C , 26-H ) :   0.9474 B( 25-C , 27-H ) :   0.9488 B( 25-C , 28-C ) :   1.0903
B( 28-C , 29-H ) :   0.9713 B( 28-C , 30-H ) :   0.9734 B( 28-C , 31-H ) :   0.9724

Dispersion correction           -0.014242823
FINAL SINGLE POINT ENERGY     -1339.855273395173

DIPOLE MOMENT
-------------
                                X             Y             Z
Electronic contribution:     31.64974       4.42038      -4.44928
Nuclear contribution   :    -32.41892      -4.70203       4.62743
                        -----------------------------------------
Total Dipole Moment    :     -0.76918      -0.28165       0.17816
                        -----------------------------------------
Magnitude (a.u.)       :      0.83828
Magnitude (Debye)      :      2.13074

Rotational constants in cm-1:     0.015773     0.010677     0.006563
Rotational constants in MHz :   472.873602   320.098455   196.745962

                             ****ORCA TERMINATED NORMALLY****
TOTAL RUN TIME: 0 days 0 hours 0 minutes 35 seconds 200 msec
