                         Program Version 4.2.1 -  RELEASE  -
|  1> ! wB97X-D3 SP def2-SVP
|  2> %pal
|  3> nprocs 16
|  4> end
|  5>
|  6> * xyz 0 1
|  7> S 	 0.970628 	 -15.6873 	 87.9643
|  8> C 	 -0.195167 	 -16.9142 	 88.2625
|  9> C 	 -0.506619 	 -17.6357 	 87.0846
| 10> C 	 0.120094 	 -17.0621 	 85.8953
| 11> C 	 0.820476 	 -15.9058 	 86.2584
| 12> H 	 -0.00259041 	 -17.3208 	 84.8853
| 13> C 	 -1.31013 	 -18.944 	 86.9073
| 14> H 	 -2.3211 	 -18.6546 	 86.5553
| 15> H 	 -1.34068 	 -19.3153 	 87.9688
| 16> C 	 -0.792969 	 -20.1717 	 86.0313
| 17> H 	 -0.306817 	 -19.8756 	 85.1322
| 18> H 	 -0.00499299 	 -20.6184 	 86.5886
| 19> C 	 -1.93224 	 -21.192 	 85.6563
| 20> H 	 -2.34346 	 -21.5294 	 86.5789
| 21> H 	 -2.72063 	 -20.7367 	 85.0749
| 22> H 	 -1.57283 	 -22.1278 	 85.2214
| 23> S 	 0.706226 	 -13.3766 	 85.1292
| 24> C 	 1.99737 	 -12.9059 	 84.0014
| 25> C 	 2.8508 	 -13.9164 	 83.7497
| 26> C 	 2.51955 	 -15.1284 	 84.444
| 27> C 	 1.43531 	 -14.9679 	 85.3102
| 28> H 	 3.58159 	 -13.8456 	 82.9872
| 29> C 	 3.41741 	 -16.3208 	 84.1909
| 30> H 	 4.07191 	 -16.1267 	 83.3521
| 31> H 	 2.83552 	 -17.1021 	 83.7822
| 32> C 	 4.06034 	 -16.908 	 85.4476
| 33> H 	 3.33052 	 -17.3602 	 86.119
| 34> H 	 4.54245 	 -16.0531 	 85.968
| 35> C 	 5.21096 	 -17.95 	 85.14
| 36> H 	 5.13789 	 -18.9022 	 85.7094
| 37> H 	 6.17151 	 -17.5964 	 85.3289
| 38> H 	 5.32549 	 -18.3653 	 84.1379
| 39> H 	 -0.572867 	 -17.1429 	 89.2376
| 40> H 	 2.08889 	 -11.8862 	 83.6371
| 41> *
| 42>
| 43>                          ****END OF INPUT****

CARTESIAN COORDINATES (ANGSTROEM)
---------------------------------
  S      0.970628  -15.687300   87.964300
  C     -0.195167  -16.914200   88.262500
  C     -0.506619  -17.635700   87.084600
  C      0.120094  -17.062100   85.895300
  C      0.820476  -15.905800   86.258400
  H     -0.002590  -17.320800   84.885300
  C     -1.310130  -18.944000   86.907300
  H     -2.321100  -18.654600   86.555300
  H     -1.340680  -19.315300   87.968800
  C     -0.792969  -20.171700   86.031300
  H     -0.306817  -19.875600   85.132200
  H     -0.004993  -20.618400   86.588600
  C     -1.932240  -21.192000   85.656300
  H     -2.343460  -21.529400   86.578900
  H     -2.720630  -20.736700   85.074900
  H     -1.572830  -22.127800   85.221400
  S      0.706226  -13.376600   85.129200
  C      1.997370  -12.905900   84.001400
  C      2.850800  -13.916400   83.749700
  C      2.519550  -15.128400   84.444000
  C      1.435310  -14.967900   85.310200
  H      3.581590  -13.845600   82.987200
  C      3.417410  -16.320800   84.190900
  H      4.071910  -16.126700   83.352100
  H      2.835520  -17.102100   83.782200
  C      4.060340  -16.908000   85.447600
  H      3.330520  -17.360200   86.119000
  H      4.542450  -16.053100   85.968000
  C      5.210960  -17.950000   85.140000
  H      5.137890  -18.902200   85.709400
  H      6.171510  -17.596400   85.328900
  H      5.325490  -18.365300   84.137900
  H     -0.572867  -17.142900   89.237600
  H      2.088890  -11.886200   83.637100

 Total Charge           Charge          ....    0
 Multiplicity           Mult            ....    1
 Number of Electrons    NEL             ....  134
 Basis Dimension        Dim             ....  322

ORBITAL ENERGIES
----------------

  NO   OCC          E(Eh)            E(eV)
   0   2.0000     -88.968647     -2420.9600
   1   2.0000     -88.962212     -2420.7849
   2   2.0000     -10.326731      -281.0046
   3   2.0000     -10.324693      -280.9492
   4   2.0000     -10.315545      -280.7002
   5   2.0000     -10.314786      -280.6796
   6   2.0000     -10.310144      -280.5533
   7   2.0000     -10.302514      -280.3457
   8   2.0000     -10.301560      -280.3197
   9   2.0000     -10.293587      -280.1028
  10   2.0000     -10.290993      -280.0322
  11   2.0000     -10.288412      -279.9619
  12   2.0000     -10.286337      -279.9054
  13   2.0000     -10.284672      -279.8601
  14   2.0000     -10.280962      -279.7592
  15   2.0000     -10.272894      -279.5397
  16   2.0000      -8.084091      -219.9793
  17   2.0000      -8.076657      -219.7770
  18   2.0000      -6.042468      -164.4239
  19   2.0000      -6.038537      -164.3169
  20   2.0000      -6.035232      -164.2270
  21   2.0000      -6.034909      -164.2182
  22   2.0000      -6.031246      -164.1186
  23   2.0000      -6.027328      -164.0119
  24   2.0000      -1.003648       -27.3106
  25   2.0000      -0.981315       -26.7029
  26   2.0000      -0.902941       -24.5703
  27   2.0000      -0.899117       -24.4662
  28   2.0000      -0.867488       -23.6055
  29   2.0000      -0.849446       -23.1146
  30   2.0000      -0.842246       -22.9187
  31   2.0000      -0.812666       -22.1138
  32   2.0000      -0.780832       -21.2475
  33   2.0000      -0.769313       -20.9341
  34   2.0000      -0.713468       -19.4144
  35   2.0000      -0.705918       -19.2090
  36   2.0000      -0.687838       -18.7170
  37   2.0000      -0.660447       -17.9717
  38   2.0000      -0.646654       -17.5963
  39   2.0000      -0.613634       -16.6978
  40   2.0000      -0.596671       -16.2362
  41   2.0000      -0.566481       -15.4147
  42   2.0000      -0.562173       -15.2975
  43   2.0000      -0.555220       -15.1083
  44   2.0000      -0.519824       -14.1451
  45   2.0000      -0.518271       -14.1029
  46   2.0000      -0.513327       -13.9683
  47   2.0000      -0.510327       -13.8867
  48   2.0000      -0.506054       -13.7704
  49   2.0000      -0.497098       -13.5267
  50   2.0000      -0.489995       -13.3334
  51   2.0000      -0.481208       -13.0943
  52   2.0000      -0.467501       -12.7213
  53   2.0000      -0.460831       -12.5398
  54   2.0000      -0.458403       -12.4738
  55   2.0000      -0.451235       -12.2787
  56   2.0000      -0.448579       -12.2065
  57   2.0000      -0.438357       -11.9283
  58   2.0000      -0.430724       -11.7206
  59   2.0000      -0.429810       -11.6957
  60   2.0000      -0.420277       -11.4363
  61   2.0000      -0.414195       -11.2708
  62   2.0000      -0.411121       -11.1872
  63   2.0000      -0.339849        -9.2478
  64   2.0000      -0.327252        -8.9050
  65   2.0000      -0.320543        -8.7224
  66   2.0000      -0.301107        -8.1935
  67   0.0000       0.035958         0.9785
  68   0.0000       0.064287         1.7493
  69   0.0000       0.107660         2.9296
  70   0.0000       0.114666         3.1202
  71   0.0000       0.135394         3.6843

MULLIKEN ATOMIC CHARGES
-----------------------
   0 S :    0.140373
   1 C :   -0.114946
   2 C :   -0.090881
   3 C :    0.063355
   4 C :   -0.195836
   5 H :    0.004054
   6 C :    0.016182
   7 H :    0.047612
   8 H :    0.031767
   9 C :   -0.049577
  10 H :    0.021045
  11 H :    0.024756
  12 C :   -0.048688
  13 H :    0.018800
  14 H :    0.041436
  15 H :    0.036882
  16 S :    0.103715
  17 C :   -0.096651
  18 C :   -0.010457
  19 C :   -0.035856
  20 C :   -0.182186
  21 H :    0.006389
  22 C :    0.128711
  23 H :    0.007392
  24 H :    0.008216
  25 C :   -0.087138
  26 H :    0.054775
  27 H :    0.040082
  28 C :   -0.045471
  29 H :    0.027139
  30 H :    0.017547
  31 H :    0.017351
  32 H :    0.040703
  33 H :    0.059405
Sum of atomic charges:    0.0000000

LOEWDIN ATOMIC CHARGES
----------------------
   0 S :    0.437203
   1 C :   -0.213059
   2 C :   -0.058723
   3 C :   -0.051607
   4 C :   -0.205177
   5 H :    0.025256
   6 C :   -0.039413
   7 H :    0.033463
   8 H :    0.034364
   9 C :   -0.032397
  10 H :    0.014641
  11 H :    0.021831
  12 C :   -0.060215
  13 H :    0.020909
  14 H :    0.025764
  15 H :    0.030295
  16 S :    0.388782
  17 C :   -0.169750
  18 C :   -0.070234
  19 C :   -0.048938
  20 C :   -0.205518
  21 H :    0.026729
  22 C :   -0.032286
  23 H :    0.028717
  24 H :    0.026964
  25 C :   -0.034196
  26 H :    0.029107
  27 H :    0.029242
  28 C :   -0.075262
  29 H :    0.030476
  30 H :    0.016434
  31 H :    0.023756
  32 H :    0.023081
  33 H :    0.029761

  Mayer bond orders larger than 0.100000
B(  0-S ,  1-C ) :   1.1440 B(  0-S ,  4-C ) :   1.1774 B(  1-C ,  2-C ) :   1.6023
B(  1-C , 32-H ) :   0.9724 B(  2-C ,  3-C ) :   1.2243 B(  2-C ,  6-C ) :   1.0124
B(  3-C ,  4-C ) :   1.5748 B(  3-C ,  5-H ) :   1.0007 B(  4-C , 20-C ) :   1.0170
B(  6-C ,  7-H ) :   0.9449 B(  6-C ,  8-H ) :   0.9493 B(  6-C ,  9-C ) :   1.0459
B(  9-C , 10-H ) :   0.9605 B(  9-C , 11-H ) :   0.9591 B(  9-C , 12-C ) :   1.0749
B( 12-C , 13-H ) :   0.9767 B( 12-C , 14-H ) :   0.9783 B( 12-C , 15-H ) :   0.9744
B( 16-S , 17-C ) :   1.1442 B( 16-S , 20-C ) :   1.1396 B( 17-C , 18-C ) :   1.6296
B( 17-C , 33-H ) :   0.9651 B( 18-C , 19-C ) :   1.2326 B( 18-C , 21-H ) :   0.9934
B( 19-C , 20-C ) :   1.6072 B( 19-C , 22-C ) :   1.0478 B( 22-C , 23-H ) :   0.9352
B( 22-C , 24-H ) :   0.9122 B( 22-C , 25-C ) :   1.0557 B( 25-C , 26-H ) :   0.9583
B( 25-C , 27-H ) :   0.9686 B( 25-C , 28-C ) :   1.0522 B( 28-C , 29-H ) :   0.9786
B( 28-C , 30-H ) :   0.9807 B( 28-C , 31-H ) :   0.9775

Dispersion correction           -0.014266150
FINAL SINGLE POINT ENERGY     -1339.863908775036

DIPOLE MOMENT
-------------
                                X             Y             Z
Electronic contribution:     -4.45770      28.04004       6.02853
Nuclear contribution   :      4.59912     -28.60941      -6.32470
                        -----------------------------------------
Total Dipole Moment    :      0.14142      -0.56938      -0.29617
                        -----------------------------------------
Magnitude (a.u.)       :      0.65719
Magnitude (Debye)      :      1.67046

Rotational constants in cm-1:     0.017030     0.008421     0.007064
Rotational constants in MHz :   510.546209   252.449659   211.783950

                             ****ORCA TERMINATED NORMALLY****
TOTAL RUN TIME: 0 days 0 hours 0 minutes 33 seconds 276 msec
