                         Program Version 4.2.1 -  RELEASE  -
|  1> ! wB97X-D3 SP def2-SVP
|  2> %pal
|  3> nprocs 16
|  4> end
|  5>
|  6> * xyz 0 1
|  7> S 	 -97.6532 	 42.7412 	 125.801
|  8> C 	 -97.9837 	 41.6571 	 127.086
|  9> C 	 -96.8011 	 41.2819 	 127.732
| 10> C 	 -95.6496 	 41.8468 	 127.16
| 11> C 	 -95.8304 	 42.5899 	 126.063
| 12> H 	 -94.6156 	 41.695 	 127.466
| 13> C 	 -96.6934 	 40.4313 	 128.894
| 14> H 	 -97.2378 	 41.0081 	 129.638
| 15> H 	 -95.684 	 40.4162 	 129.262
| 16> C 	 -97.3785 	 39.0803 	 128.762
| 17> H 	 -97.4065 	 38.6981 	 129.772
| 18> H 	 -98.3847 	 39.3077 	 128.421
| 19> C 	 -96.6676 	 38.0339 	 127.833
| 20> H 	 -95.7443 	 37.5668 	 128.235
| 21> H 	 -97.3426 	 37.1676 	 127.781
| 22> H 	 -96.6103 	 38.345 	 126.845
| 23> S 	 -93.3694 	 42.3026 	 124.883
| 24> C 	 -92.8195 	 43.6059 	 123.937
| 25> C 	 -93.6596 	 44.6788 	 123.859
| 26> C 	 -94.8505 	 44.5315 	 124.692
| 27> C 	 -94.8236 	 43.2652 	 125.227
| 28> H 	 -93.4058 	 45.5608 	 123.34
| 29> C 	 -95.8022 	 45.6853 	 124.957
| 30> H 	 -95.2206 	 46.5587 	 125.386
| 31> H 	 -96.508 	 45.3455 	 125.659
| 32> C 	 -96.5192 	 46.2254 	 123.673
| 33> H 	 -96.6997 	 45.349 	 123.032
| 34> H 	 -95.8476 	 46.8386 	 123.178
| 35> C 	 -97.9248 	 46.9355 	 123.854
| 36> H 	 -98.6081 	 46.3868 	 124.53
| 37> H 	 -98.4476 	 47.1962 	 122.976
| 38> H 	 -97.7468 	 47.7533 	 124.582
| 39> H 	 -98.9104 	 41.2597 	 127.341
| 40> H 	 -91.8555 	 43.6376 	 123.345
| 41> *
| 42>
| 43>                          ****END OF INPUT****

CARTESIAN COORDINATES (ANGSTROEM)
---------------------------------
  S    -97.653200   42.741200  125.801000
  C    -97.983700   41.657100  127.086000
  C    -96.801100   41.281900  127.732000
  C    -95.649600   41.846800  127.160000
  C    -95.830400   42.589900  126.063000
  H    -94.615600   41.695000  127.466000
  C    -96.693400   40.431300  128.894000
  H    -97.237800   41.008100  129.638000
  H    -95.684000   40.416200  129.262000
  C    -97.378500   39.080300  128.762000
  H    -97.406500   38.698100  129.772000
  H    -98.384700   39.307700  128.421000
  C    -96.667600   38.033900  127.833000
  H    -95.744300   37.566800  128.235000
  H    -97.342600   37.167600  127.781000
  H    -96.610300   38.345000  126.845000
  S    -93.369400   42.302600  124.883000
  C    -92.819500   43.605900  123.937000
  C    -93.659600   44.678800  123.859000
  C    -94.850500   44.531500  124.692000
  C    -94.823600   43.265200  125.227000
  H    -93.405800   45.560800  123.340000
  C    -95.802200   45.685300  124.957000
  H    -95.220600   46.558700  125.386000
  H    -96.508000   45.345500  125.659000
  C    -96.519200   46.225400  123.673000
  H    -96.699700   45.349000  123.032000
  H    -95.847600   46.838600  123.178000
  C    -97.924800   46.935500  123.854000
  H    -98.608100   46.386800  124.530000
  H    -98.447600   47.196200  122.976000
  H    -97.746800   47.753300  124.582000
  H    -98.910400   41.259700  127.341000
  H    -91.855500   43.637600  123.345000

 Total Charge           Charge          ....    0
 Multiplicity           Mult            ....    1
 Number of Electrons    NEL             ....  134
 Basis Dimension        Dim             ....  322

ORBITAL ENERGIES
----------------

  NO   OCC          E(Eh)            E(eV)
   0   2.0000     -88.970678     -2421.0152
   1   2.0000     -88.963010     -2420.8066
   2   2.0000     -10.328558      -281.0543
   3   2.0000     -10.328119      -281.0424
   4   2.0000     -10.316468      -280.7254
   5   2.0000     -10.306832      -280.4632
   6   2.0000     -10.305610      -280.4299
   7   2.0000     -10.295794      -280.1628
   8   2.0000     -10.291321      -280.0411
   9   2.0000     -10.289369      -279.9880
  10   2.0000     -10.288366      -279.9607
  11   2.0000     -10.285517      -279.8831
  12   2.0000     -10.284379      -279.8522
  13   2.0000     -10.280179      -279.7379
  14   2.0000     -10.278467      -279.6913
  15   2.0000     -10.275431      -279.6087
  16   2.0000      -8.085810      -220.0261
  17   2.0000      -8.076640      -219.7765
  18   2.0000      -6.044310      -164.4740
  19   2.0000      -6.040520      -164.3709
  20   2.0000      -6.036308      -164.2563
  21   2.0000      -6.035277      -164.2282
  22   2.0000      -6.031291      -164.1198
  23   2.0000      -6.027353      -164.0126
  24   2.0000      -1.006461       -27.3872
  25   2.0000      -0.986732       -26.8503
  26   2.0000      -0.914799       -24.8929
  27   2.0000      -0.904163       -24.6035
  28   2.0000      -0.869519       -23.6608
  29   2.0000      -0.851347       -23.1663
  30   2.0000      -0.845806       -23.0155
  31   2.0000      -0.815849       -22.2004
  32   2.0000      -0.786011       -21.3885
  33   2.0000      -0.769650       -20.9432
  34   2.0000      -0.713713       -19.4211
  35   2.0000      -0.705427       -19.1957
  36   2.0000      -0.692563       -18.8456
  37   2.0000      -0.662898       -18.0384
  38   2.0000      -0.637821       -17.3560
  39   2.0000      -0.610721       -16.6186
  40   2.0000      -0.596424       -16.2295
  41   2.0000      -0.579695       -15.7743
  42   2.0000      -0.561229       -15.2718
  43   2.0000      -0.547872       -14.9084
  44   2.0000      -0.538787       -14.6611
  45   2.0000      -0.530523       -14.4363
  46   2.0000      -0.520863       -14.1734
  47   2.0000      -0.515484       -14.0270
  48   2.0000      -0.499137       -13.5822
  49   2.0000      -0.492285       -13.3957
  50   2.0000      -0.480513       -13.0754
  51   2.0000      -0.477781       -13.0011
  52   2.0000      -0.473967       -12.8973
  53   2.0000      -0.470386       -12.7998
  54   2.0000      -0.463268       -12.6062
  55   2.0000      -0.452800       -12.3213
  56   2.0000      -0.443641       -12.0721
  57   2.0000      -0.438768       -11.9395
  58   2.0000      -0.432583       -11.7712
  59   2.0000      -0.427564       -11.6346
  60   2.0000      -0.417688       -11.3659
  61   2.0000      -0.414942       -11.2911
  62   2.0000      -0.408376       -11.1125
  63   2.0000      -0.357593        -9.7306
  64   2.0000      -0.333416        -9.0727
  65   2.0000      -0.324472        -8.8293
  66   2.0000      -0.284531        -7.7425
  67   0.0000       0.029937         0.8146
  68   0.0000       0.073860         2.0098
  69   0.0000       0.101878         2.7723
  70   0.0000       0.107101         2.9144
  71   0.0000       0.138971         3.7816

MULLIKEN ATOMIC CHARGES
-----------------------
   0 S :    0.094774
   1 C :   -0.100386
   2 C :   -0.090878
   3 C :   -0.001557
   4 C :   -0.128764
   5 H :    0.012404
   6 C :    0.091832
   7 H :    0.030476
   8 H :    0.007374
   9 C :   -0.066072
  10 H :    0.025435
  11 H :    0.020073
  12 C :   -0.031212
  13 H :    0.038519
  14 H :    0.022753
  15 H :    0.031450
  16 S :    0.123486
  17 C :   -0.093902
  18 C :   -0.018839
  19 C :   -0.060496
  20 C :   -0.169919
  21 H :   -0.001161
  22 C :    0.096563
  23 H :    0.050867
  24 H :    0.002812
  25 C :   -0.087590
  26 H :    0.038617
  27 H :    0.020790
  28 C :   -0.042301
  29 H :    0.025190
  30 H :    0.045453
  31 H :    0.021009
  32 H :    0.021689
  33 H :    0.071514
Sum of atomic charges:   -0.0000000

LOEWDIN ATOMIC CHARGES
----------------------
   0 S :    0.380316
   1 C :   -0.203083
   2 C :   -0.063701
   3 C :   -0.073684
   4 C :   -0.158296
   5 H :    0.031378
   6 C :   -0.039058
   7 H :    0.039342
   8 H :    0.025756
   9 C :   -0.029140
  10 H :    0.023872
  11 H :    0.022006
  12 C :   -0.064275
  13 H :    0.031000
  14 H :    0.029381
  15 H :    0.017397
  16 S :    0.415101
  17 C :   -0.206410
  18 C :   -0.066261
  19 C :   -0.049417
  20 C :   -0.184679
  21 H :    0.022256
  22 C :   -0.025898
  23 H :    0.043046
  24 H :    0.012458
  25 C :   -0.033743
  26 H :    0.026212
  27 H :    0.010786
  28 C :   -0.068519
  29 H :    0.028858
  30 H :    0.022272
  31 H :    0.027918
  32 H :    0.014260
  33 H :    0.042549

  Mayer bond orders larger than 0.100000
B(  0-S ,  1-C ) :   1.1415 B(  0-S ,  4-C ) :   1.1143 B(  1-C ,  2-C ) :   1.5834
B(  1-C , 32-H ) :   0.9752 B(  2-C ,  3-C ) :   1.2395 B(  2-C ,  6-C ) :   1.0289
B(  3-C ,  4-C ) :   1.6008 B(  3-C ,  5-H ) :   0.9885 B(  4-C , 20-C ) :   1.0381
B(  6-C ,  7-H ) :   0.9212 B(  6-C ,  8-H ) :   0.9403 B(  6-C ,  9-C ) :   1.0801
B(  9-C , 10-H ) :   0.9534 B(  9-C , 11-H ) :   0.9559 B(  9-C , 12-C ) :   1.0763
B( 12-C , 13-H ) :   0.9751 B( 12-C , 14-H ) :   0.9715 B( 12-C , 15-H ) :   0.9770
B( 16-S , 17-C ) :   1.1380 B( 16-S , 20-C ) :   1.1286 B( 17-C , 18-C ) :   1.6627
B( 17-C , 33-H ) :   0.9535 B( 18-C , 19-C ) :   1.1881 B( 18-C , 21-H ) :   0.9926
B( 19-C , 20-C ) :   1.6303 B( 19-C , 22-C ) :   1.0571 B( 22-C , 23-H ) :   0.9350
B( 22-C , 24-H ) :   0.9248 B( 22-C , 25-C ) :   1.0374 B( 25-C , 26-H ) :   0.9656
B( 25-C , 27-H ) :   0.9591 B( 25-C , 28-C ) :   1.0771 B( 28-C , 29-H ) :   0.9739
B( 28-C , 30-H ) :   0.9789 B( 28-C , 31-H ) :   0.9719

Dispersion correction           -0.014191026
FINAL SINGLE POINT ENERGY     -1339.863702833043

DIPOLE MOMENT
-------------
                                X             Y             Z
Electronic contribution:      9.88560      -0.35506      -5.27184
Nuclear contribution   :     -9.81914       0.42155       5.51992
                        -----------------------------------------
Total Dipole Moment    :      0.06646       0.06649       0.24808
                        -----------------------------------------
Magnitude (a.u.)       :      0.26530
Magnitude (Debye)      :      0.67433

Rotational constants in cm-1:     0.021125     0.008241     0.006272
Rotational constants in MHz :   633.324574   247.068762   188.044102

                             ****ORCA TERMINATED NORMALLY****
TOTAL RUN TIME: 0 days 0 hours 0 minutes 35 seconds 468 msec
