                         Program Version 4.2.1 -  RELEASE  -
|  1> ! wB97X-D3 SP def2-SVP
|  2> %pal
|  3> nprocs 16
|  4> end
|  5>
|  6> * xyz 0 1
|  7> S 	 -15.1592 	 51.7383 	 43.1411
|  8> C 	 -16.7896 	 52.4649 	 43.2697
|  9> C 	 -16.7719 	 53.4361 	 44.2036
| 10> C 	 -15.604 	 53.4059 	 45.0035
| 11> C 	 -14.687 	 52.4323 	 44.6705
| 12> H 	 -15.4082 	 54.1298 	 45.7716
| 13> C 	 -17.8511 	 54.4529 	 44.4026
| 14> H 	 -17.59 	 54.9575 	 45.3151
| 15> H 	 -18.7426 	 53.8924 	 44.6609
| 16> C 	 -18.1253 	 55.455 	 43.2435
| 17> H 	 -17.1978 	 56.0283 	 43.0582
| 18> H 	 -18.2144 	 54.7666 	 42.3673
| 19> C 	 -19.3308 	 56.3571 	 43.499
| 20> H 	 -19.075 	 56.9315 	 44.3399
| 21> H 	 -19.4844 	 57.0965 	 42.7302
| 22> H 	 -20.2381 	 55.715 	 43.5406
| 23> S 	 -12.2284 	 51.1991 	 44.3659
| 24> C 	 -10.9165 	 51.4326 	 45.557
| 25> C 	 -11.415 	 52.2836 	 46.5711
| 26> C 	 -12.8428 	 52.6321 	 46.4726
| 27> C 	 -13.4146 	 52.1745 	 45.268
| 28> H 	 -10.7418 	 52.4962 	 47.4173
| 29> C 	 -13.4586 	 53.333 	 47.6329
| 30> H 	 -13.0152 	 52.7656 	 48.4735
| 31> H 	 -14.5034 	 53.0826 	 47.6342
| 32> C 	 -13.2419 	 54.848 	 47.7302
| 33> H 	 -14.0865 	 55.3103 	 48.2322
| 34> H 	 -13.2074 	 55.2387 	 46.7168
| 35> C 	 -11.9415 	 55.269 	 48.4264
| 36> H 	 -11.0759 	 55.1096 	 47.7854
| 37> H 	 -11.8147 	 54.8582 	 49.4024
| 38> H 	 -11.9604 	 56.3175 	 48.6696
| 39> H 	 -17.4953 	 52.3603 	 42.3959
| 40> H 	 -9.96736 	 50.9812 	 45.6661
| 41> *
| 42>
| 43>                          ****END OF INPUT****

CARTESIAN COORDINATES (ANGSTROEM)
---------------------------------
  S    -15.159200   51.738300   43.141100
  C    -16.789600   52.464900   43.269700
  C    -16.771900   53.436100   44.203600
  C    -15.604000   53.405900   45.003500
  C    -14.687000   52.432300   44.670500
  H    -15.408200   54.129800   45.771600
  C    -17.851100   54.452900   44.402600
  H    -17.590000   54.957500   45.315100
  H    -18.742600   53.892400   44.660900
  C    -18.125300   55.455000   43.243500
  H    -17.197800   56.028300   43.058200
  H    -18.214400   54.766600   42.367300
  C    -19.330800   56.357100   43.499000
  H    -19.075000   56.931500   44.339900
  H    -19.484400   57.096500   42.730200
  H    -20.238100   55.715000   43.540600
  S    -12.228400   51.199100   44.365900
  C    -10.916500   51.432600   45.557000
  C    -11.415000   52.283600   46.571100
  C    -12.842800   52.632100   46.472600
  C    -13.414600   52.174500   45.268000
  H    -10.741800   52.496200   47.417300
  C    -13.458600   53.333000   47.632900
  H    -13.015200   52.765600   48.473500
  H    -14.503400   53.082600   47.634200
  C    -13.241900   54.848000   47.730200
  H    -14.086500   55.310300   48.232200
  H    -13.207400   55.238700   46.716800
  C    -11.941500   55.269000   48.426400
  H    -11.075900   55.109600   47.785400
  H    -11.814700   54.858200   49.402400
  H    -11.960400   56.317500   48.669600
  H    -17.495300   52.360300   42.395900
  H     -9.967360   50.981200   45.666100

 Total Charge           Charge          ....    0
 Multiplicity           Mult            ....    1
 Number of Electrons    NEL             ....  134
 Basis Dimension        Dim             ....  322

ORBITAL ENERGIES
----------------

  NO   OCC          E(Eh)            E(eV)
   0   2.0000     -88.966746     -2420.9082
   1   2.0000     -88.962457     -2420.7915
   2   2.0000     -10.334221      -281.2085
   3   2.0000     -10.331096      -281.1234
   4   2.0000     -10.323588      -280.9191
   5   2.0000     -10.315417      -280.6968
   6   2.0000     -10.309519      -280.5363
   7   2.0000     -10.301795      -280.3261
   8   2.0000     -10.296743      -280.1886
   9   2.0000     -10.293287      -280.0946
  10   2.0000     -10.290706      -280.0244
  11   2.0000     -10.290663      -280.0232
  12   2.0000     -10.289559      -279.9931
  13   2.0000     -10.287973      -279.9500
  14   2.0000     -10.280038      -279.7341
  15   2.0000     -10.275471      -279.6098
  16   2.0000      -8.080169      -219.8726
  17   2.0000      -8.077062      -219.7880
  18   2.0000      -6.039097      -164.3322
  19   2.0000      -6.035722      -164.2403
  20   2.0000      -6.034723      -164.2132
  21   2.0000      -6.031865      -164.1354
  22   2.0000      -6.030688      -164.1034
  23   2.0000      -6.027396      -164.0138
  24   2.0000      -1.007350       -27.4114
  25   2.0000      -0.977865       -26.6091
  26   2.0000      -0.914988       -24.8981
  27   2.0000      -0.910975       -24.7889
  28   2.0000      -0.872863       -23.7518
  29   2.0000      -0.853643       -23.2288
  30   2.0000      -0.843022       -22.9398
  31   2.0000      -0.815817       -22.1995
  32   2.0000      -0.784695       -21.3526
  33   2.0000      -0.775533       -21.1033
  34   2.0000      -0.715409       -19.4673
  35   2.0000      -0.705407       -19.1951
  36   2.0000      -0.696250       -18.9459
  37   2.0000      -0.664359       -18.0781
  38   2.0000      -0.634091       -17.2545
  39   2.0000      -0.621781       -16.9195
  40   2.0000      -0.593736       -16.1564
  41   2.0000      -0.571795       -15.5593
  42   2.0000      -0.562067       -15.2946
  43   2.0000      -0.549392       -14.9497
  44   2.0000      -0.548286       -14.9196
  45   2.0000      -0.524628       -14.2758
  46   2.0000      -0.521303       -14.1854
  47   2.0000      -0.513563       -13.9748
  48   2.0000      -0.511874       -13.9288
  49   2.0000      -0.504734       -13.7345
  50   2.0000      -0.493013       -13.4156
  51   2.0000      -0.479649       -13.0519
  52   2.0000      -0.477161       -12.9842
  53   2.0000      -0.470266       -12.7966
  54   2.0000      -0.457433       -12.4474
  55   2.0000      -0.450315       -12.2537
  56   2.0000      -0.440977       -11.9996
  57   2.0000      -0.435831       -11.8596
  58   2.0000      -0.430034       -11.7018
  59   2.0000      -0.426662       -11.6101
  60   2.0000      -0.422738       -11.5033
  61   2.0000      -0.419790       -11.4231
  62   2.0000      -0.407791       -11.0966
  63   2.0000      -0.364142        -9.9088
  64   2.0000      -0.331972        -9.0334
  65   2.0000      -0.323058        -8.7909
  66   2.0000      -0.280715        -7.6386
  67   0.0000       0.010572         0.2877
  68   0.0000       0.082712         2.2507
  69   0.0000       0.088713         2.4140
  70   0.0000       0.116520         3.1707
  71   0.0000       0.136819         3.7230

MULLIKEN ATOMIC CHARGES
-----------------------
   0 S :    0.077327
   1 C :   -0.151294
   2 C :   -0.071753
   3 C :   -0.023011
   4 C :   -0.080034
   5 H :   -0.006285
   6 C :    0.079140
   7 H :   -0.000365
   8 H :    0.030714
   9 C :   -0.101280
  10 H :    0.034695
  11 H :    0.024726
  12 C :   -0.005322
  13 H :    0.024936
  14 H :    0.030904
  15 H :    0.043549
  16 S :    0.088156
  17 C :   -0.070961
  18 C :   -0.061762
  19 C :   -0.090325
  20 C :   -0.099419
  21 H :    0.033005
  22 C :    0.052043
  23 H :    0.034551
  24 H :    0.020119
  25 C :   -0.060626
  26 H :    0.030663
  27 H :    0.039712
  28 C :   -0.031357
  29 H :    0.042235
  30 H :    0.019762
  31 H :    0.022060
  32 H :    0.074910
  33 H :    0.050590
Sum of atomic charges:   -0.0000000

LOEWDIN ATOMIC CHARGES
----------------------
   0 S :    0.381604
   1 C :   -0.188668
   2 C :   -0.065456
   3 C :   -0.069060
   4 C :   -0.180641
   5 H :    0.026077
   6 C :   -0.032900
   7 H :    0.021441
   8 H :    0.033585
   9 C :   -0.040926
  10 H :    0.026831
  11 H :    0.021970
  12 C :   -0.060296
  13 H :    0.022365
  14 H :    0.026808
  15 H :    0.033930
  16 S :    0.376381
  17 C :   -0.175054
  18 C :   -0.072768
  19 C :   -0.054189
  20 C :   -0.184850
  21 H :    0.032689
  22 C :   -0.038666
  23 H :    0.038523
  24 H :    0.027750
  25 C :   -0.037410
  26 H :    0.024858
  27 H :    0.028609
  28 C :   -0.064340
  29 H :    0.027628
  30 H :    0.020353
  31 H :    0.026756
  32 H :    0.038261
  33 H :    0.028804

  Mayer bond orders larger than 0.100000
B(  0-S ,  1-C ) :   1.1130 B(  0-S ,  4-C ) :   1.1438 B(  1-C ,  2-C ) :   1.6149
B(  1-C , 32-H ) :   0.9627 B(  2-C ,  3-C ) :   1.2626 B(  2-C ,  6-C ) :   1.0143
B(  3-C ,  4-C ) :   1.5355 B(  3-C ,  5-H ) :   0.9961 B(  4-C , 20-C ) :   1.1284
B(  6-C ,  7-H ) :   0.9354 B(  6-C ,  8-H ) :   0.9353 B(  6-C ,  9-C ) :   1.0489
B(  9-C , 10-H ) :   0.9555 B(  9-C , 11-H ) :   0.9598 B(  9-C , 12-C ) :   1.0787
B( 12-C , 13-H ) :   0.9726 B( 12-C , 14-H ) :   0.9729 B( 12-C , 15-H ) :   0.9744
B( 16-S , 17-C ) :   1.1326 B( 16-S , 20-C ) :   1.1116 B( 17-C , 18-C ) :   1.6274
B( 17-C , 33-H ) :   0.9717 B( 18-C , 19-C ) :   1.2344 B( 18-C , 21-H ) :   0.9748
B( 19-C , 20-C ) :   1.5735 B( 19-C , 22-C ) :   1.0461 B( 22-C , 23-H ) :   0.9367
B( 22-C , 24-H ) :   0.9330 B( 22-C , 25-C ) :   1.0481 B( 25-C , 26-H ) :   0.9579
B( 25-C , 27-H ) :   0.9544 B( 25-C , 28-C ) :   1.0912 B( 28-C , 29-H ) :   0.9728
B( 28-C , 30-H ) :   0.9738 B( 28-C , 31-H ) :   0.9690

Dispersion correction           -0.013910686
FINAL SINGLE POINT ENERGY     -1339.870848877964

DIPOLE MOMENT
-------------
                                X             Y             Z
Electronic contribution:     11.77127     -23.94540     -12.46677
Nuclear contribution   :    -11.94147      24.65334      12.98056
                        -----------------------------------------
Total Dipole Moment    :     -0.17021       0.70794       0.51379
                        -----------------------------------------
Magnitude (a.u.)       :      0.89114
Magnitude (Debye)      :      2.26509

Rotational constants in cm-1:     0.019342     0.008162     0.005980
Rotational constants in MHz :   579.869281   244.685121   179.282917

                             ****ORCA TERMINATED NORMALLY****
TOTAL RUN TIME: 0 days 0 hours 0 minutes 31 seconds 395 msec
