                         Program Version 4.2.1 -  RELEASE  -
|  1> ! wB97X-D3 SP def2-SVP
|  2> %pal
|  3> nprocs 16
|  4> end
|  5>
|  6> * xyz 0 1
|  7> S 	 4.51474 	 -2.19797 	 79.1279
|  8> C 	 5.45869 	 -1.16946 	 80.2014
|  9> C 	 5.99968 	 -1.94502 	 81.2248
| 10> C 	 5.73985 	 -3.32993 	 81.0144
| 11> C 	 4.87288 	 -3.6366 	 79.979
| 12> H 	 6.04687 	 -4.15492 	 81.601
| 13> C 	 6.59013 	 -1.36209 	 82.5003
| 14> H 	 6.95201 	 -0.282331 	 82.3921
| 15> H 	 7.55286 	 -1.91273 	 82.7398
| 16> C 	 5.59431 	 -1.18328 	 83.6808
| 17> H 	 6.23457 	 -0.886781 	 84.5504
| 18> H 	 4.88076 	 -0.411384 	 83.3491
| 19> C 	 4.99829 	 -2.54811 	 84.1025
| 20> H 	 5.64548 	 -3.3751 	 84.1497
| 21> H 	 4.61223 	 -2.48957 	 85.0512
| 22> H 	 4.27235 	 -2.83574 	 83.3244
| 23> S 	 4.02054 	 -5.3561 	 77.9036
| 24> C 	 3.3879 	 -6.97206 	 78.3256
| 25> C 	 3.40958 	 -7.12205 	 79.7047
| 26> C 	 3.80169 	 -5.9762 	 80.4644
| 27> C 	 4.28298 	 -4.95545 	 79.647
| 28> H 	 3.09878 	 -8.01558 	 80.1445
| 29> C 	 3.79441 	 -6.07635 	 81.9148
| 30> H 	 2.86906 	 -6.60563 	 82.0688
| 31> H 	 3.8193 	 -5.11243 	 82.4222
| 32> C 	 4.97919 	 -7.00207 	 82.3776
| 33> H 	 5.90989 	 -6.55017 	 82.1925
| 34> H 	 4.95497 	 -7.89142 	 81.7583
| 35> C 	 4.96076 	 -7.40022 	 83.8741
| 36> H 	 5.52072 	 -8.35828 	 83.8883
| 37> H 	 4.0165 	 -7.61502 	 84.2994
| 38> H 	 5.46349 	 -6.67128 	 84.452
| 39> H 	 5.29952 	 -0.112886 	 80.2831
| 40> H 	 2.9781 	 -7.71298 	 77.708
| 41> *
| 42>
| 43>                          ****END OF INPUT****

CARTESIAN COORDINATES (ANGSTROEM)
---------------------------------
  S      4.514740   -2.197970   79.127900
  C      5.458690   -1.169460   80.201400
  C      5.999680   -1.945020   81.224800
  C      5.739850   -3.329930   81.014400
  C      4.872880   -3.636600   79.979000
  H      6.046870   -4.154920   81.601000
  C      6.590130   -1.362090   82.500300
  H      6.952010   -0.282331   82.392100
  H      7.552860   -1.912730   82.739800
  C      5.594310   -1.183280   83.680800
  H      6.234570   -0.886781   84.550400
  H      4.880760   -0.411384   83.349100
  C      4.998290   -2.548110   84.102500
  H      5.645480   -3.375100   84.149700
  H      4.612230   -2.489570   85.051200
  H      4.272350   -2.835740   83.324400
  S      4.020540   -5.356100   77.903600
  C      3.387900   -6.972060   78.325600
  C      3.409580   -7.122050   79.704700
  C      3.801690   -5.976200   80.464400
  C      4.282980   -4.955450   79.647000
  H      3.098780   -8.015580   80.144500
  C      3.794410   -6.076350   81.914800
  H      2.869060   -6.605630   82.068800
  H      3.819300   -5.112430   82.422200
  C      4.979190   -7.002070   82.377600
  H      5.909890   -6.550170   82.192500
  H      4.954970   -7.891420   81.758300
  C      4.960760   -7.400220   83.874100
  H      5.520720   -8.358280   83.888300
  H      4.016500   -7.615020   84.299400
  H      5.463490   -6.671280   84.452000
  H      5.299520   -0.112886   80.283100
  H      2.978100   -7.712980   77.708000

 Total Charge           Charge          ....    0
 Multiplicity           Mult            ....    1
 Number of Electrons    NEL             ....  134
 Basis Dimension        Dim             ....  322

ORBITAL ENERGIES
----------------

  NO   OCC          E(Eh)            E(eV)
   0   2.0000     -88.966335     -2420.8971
   1   2.0000     -88.964767     -2420.8544
   2   2.0000     -10.335155      -281.2339
   3   2.0000     -10.330950      -281.1194
   4   2.0000     -10.320810      -280.8435
   5   2.0000     -10.314322      -280.6670
   6   2.0000     -10.306030      -280.4413
   7   2.0000     -10.302766      -280.3525
   8   2.0000     -10.302360      -280.3415
   9   2.0000     -10.297115      -280.1987
  10   2.0000     -10.291269      -280.0397
  11   2.0000     -10.291192      -280.0376
  12   2.0000     -10.290748      -280.0255
  13   2.0000     -10.288182      -279.9557
  14   2.0000     -10.276345      -279.6336
  15   2.0000     -10.268771      -279.4275
  16   2.0000      -8.080054      -219.8694
  17   2.0000      -8.079504      -219.8545
  18   2.0000      -6.038510      -164.3162
  19   2.0000      -6.038301      -164.3105
  20   2.0000      -6.034308      -164.2019
  21   2.0000      -6.034254      -164.2004
  22   2.0000      -6.030990      -164.1116
  23   2.0000      -6.030027      -164.0854
  24   2.0000      -1.006130       -27.3782
  25   2.0000      -0.982759       -26.7422
  26   2.0000      -0.914516       -24.8853
  27   2.0000      -0.909384       -24.7456
  28   2.0000      -0.867819       -23.6145
  29   2.0000      -0.854941       -23.2641
  30   2.0000      -0.843075       -22.9412
  31   2.0000      -0.817816       -22.2539
  32   2.0000      -0.786579       -21.4039
  33   2.0000      -0.775039       -21.0899
  34   2.0000      -0.711159       -19.3516
  35   2.0000      -0.701321       -19.0839
  36   2.0000      -0.700411       -19.0592
  37   2.0000      -0.668190       -18.1824
  38   2.0000      -0.644767       -17.5450
  39   2.0000      -0.615236       -16.7414
  40   2.0000      -0.596742       -16.2382
  41   2.0000      -0.577535       -15.7155
  42   2.0000      -0.569742       -15.5035
  43   2.0000      -0.549645       -14.9566
  44   2.0000      -0.540447       -14.7063
  45   2.0000      -0.528243       -14.3742
  46   2.0000      -0.523493       -14.2450
  47   2.0000      -0.513879       -13.9833
  48   2.0000      -0.510861       -13.9012
  49   2.0000      -0.502182       -13.6651
  50   2.0000      -0.495462       -13.4822
  51   2.0000      -0.485423       -13.2090
  52   2.0000      -0.474815       -12.9204
  53   2.0000      -0.467091       -12.7102
  54   2.0000      -0.463767       -12.6197
  55   2.0000      -0.451263       -12.2795
  56   2.0000      -0.442068       -12.0293
  57   2.0000      -0.438840       -11.9414
  58   2.0000      -0.437273       -11.8988
  59   2.0000      -0.430110       -11.7039
  60   2.0000      -0.419177       -11.4064
  61   2.0000      -0.412053       -11.2125
  62   2.0000      -0.408571       -11.1178
  63   2.0000      -0.351149        -9.5552
  64   2.0000      -0.330397        -8.9906
  65   2.0000      -0.328086        -8.9277
  66   2.0000      -0.290136        -7.8950
  67   0.0000       0.023922         0.6510
  68   0.0000       0.072290         1.9671
  69   0.0000       0.104033         2.8309
  70   0.0000       0.117288         3.1916
  71   0.0000       0.124406         3.3853

MULLIKEN ATOMIC CHARGES
-----------------------
   0 S :    0.103919
   1 C :   -0.106502
   2 C :   -0.075905
   3 C :    0.026307
   4 C :   -0.132596
   5 H :   -0.026494
   6 C :   -0.010816
   7 H :    0.031258
   8 H :    0.045032
   9 C :   -0.072513
  10 H :    0.040666
  11 H :    0.044903
  12 C :   -0.028357
  13 H :    0.007765
  14 H :    0.016479
  15 H :    0.061064
  16 S :    0.089471
  17 C :   -0.055753
  18 C :   -0.037584
  19 C :   -0.035796
  20 C :   -0.143096
  21 H :   -0.002479
  22 C :    0.089783
  23 H :    0.020845
  24 H :    0.023562
  25 C :   -0.088365
  26 H :    0.020191
  27 H :    0.022405
  28 C :   -0.006606
  29 H :    0.032736
  30 H :    0.021816
  31 H :    0.029651
  32 H :    0.054077
  33 H :    0.040933
Sum of atomic charges:   -0.0000000

LOEWDIN ATOMIC CHARGES
----------------------
   0 S :    0.419278
   1 C :   -0.196377
   2 C :   -0.062615
   3 C :   -0.068572
   4 C :   -0.200907
   5 H :    0.020367
   6 C :   -0.045673
   7 H :    0.035663
   8 H :    0.035089
   9 C :   -0.034237
  10 H :    0.031461
  11 H :    0.030194
  12 C :   -0.064148
  13 H :    0.016970
  14 H :    0.014670
  15 H :    0.031035
  16 S :    0.363953
  17 C :   -0.161587
  18 C :   -0.062570
  19 C :   -0.052884
  20 C :   -0.179156
  21 H :    0.019003
  22 C :   -0.030365
  23 H :    0.033834
  24 H :    0.029915
  25 C :   -0.026696
  26 H :    0.017140
  27 H :    0.022636
  28 C :   -0.058858
  29 H :    0.034855
  30 H :    0.018025
  31 H :    0.019690
  32 H :    0.026869
  33 H :    0.023999

  Mayer bond orders larger than 0.100000
B(  0-S ,  1-C ) :   1.1426 B(  0-S ,  4-C ) :   1.1739 B(  1-C ,  2-C ) :   1.5965
B(  1-C , 32-H ) :   0.9664 B(  2-C ,  3-C ) :   1.2416 B(  2-C ,  6-C ) :   1.0276
B(  3-C ,  4-C ) :   1.5542 B(  3-C ,  5-H ) :   1.0068 B(  4-C , 20-C ) :   1.0373
B(  6-C ,  7-H ) :   0.9470 B(  6-C ,  8-H ) :   0.9442 B(  6-C ,  9-C ) :   1.0617
B(  9-C , 10-H ) :   0.9552 B(  9-C , 11-H ) :   0.9562 B(  9-C , 12-C ) :   1.0813
B( 12-C , 13-H ) :   0.9727 B( 12-C , 14-H ) :   0.9701 B( 12-C , 15-H ) :   0.9654
B( 16-S , 17-C ) :   1.1324 B( 16-S , 20-C ) :   1.1134 B( 17-C , 18-C ) :   1.6306
B( 17-C , 33-H ) :   0.9735 B( 18-C , 19-C ) :   1.2211 B( 18-C , 21-H ) :   0.9882
B( 19-C , 20-C ) :   1.5973 B( 19-C , 22-C ) :   1.0664 B( 22-C , 23-H ) :   0.9168
B( 22-C , 24-H ) :   0.9287 B( 22-C , 25-C ) :   1.0614 B( 25-C , 26-H ) :   0.9536
B( 25-C , 27-H ) :   0.9596 B( 25-C , 28-C ) :   1.0746 B( 28-C , 29-H ) :   0.9742
B( 28-C , 30-H ) :   0.9769 B( 28-C , 31-H ) :   0.9776

Dispersion correction           -0.015635980
FINAL SINGLE POINT ENERGY     -1339.864735485898

DIPOLE MOMENT
-------------
                                X             Y             Z
Electronic contribution:     -5.08062       4.72028     -30.60306
Nuclear contribution   :      5.02826      -5.02581      31.50209
                        -----------------------------------------
Total Dipole Moment    :     -0.05236      -0.30552       0.89903
                        -----------------------------------------
Magnitude (a.u.)       :      0.95097
Magnitude (Debye)      :      2.41717

Rotational constants in cm-1:     0.016890     0.010934     0.006998
Rotational constants in MHz :   506.340475   327.801092   209.787252

                             ****ORCA TERMINATED NORMALLY****
TOTAL RUN TIME: 0 days 0 hours 0 minutes 37 seconds 636 msec
