                         Program Version 4.2.1 -  RELEASE  -
|  1> ! wB97X-D3 SP def2-SVP
|  2> %pal
|  3> nprocs 16
|  4> end
|  5>
|  6> * xyz 0 1
|  7> S 	 -43.5557 	 49.7174 	 102.306
|  8> C 	 -44.1172 	 50.5724 	 103.733
|  9> C 	 -44.7803 	 51.735 	 103.429
| 10> C 	 -44.8365 	 51.8837 	 102.025
| 11> C 	 -44.3293 	 50.8012 	 101.285
| 12> H 	 -45.3197 	 52.7084 	 101.536
| 13> C 	 -45.4667 	 52.7269 	 104.376
| 14> H 	 -45.0421 	 53.7498 	 104.232
| 15> H 	 -45.2496 	 52.4194 	 105.409
| 16> C 	 -46.9857 	 52.8865 	 104.358
| 17> H 	 -47.2163 	 53.3723 	 105.272
| 18> H 	 -47.3772 	 53.5467 	 103.521
| 19> C 	 -47.6538 	 51.4405 	 104.318
| 20> H 	 -48.6444 	 51.5867 	 104.836
| 21> H 	 -47.8439 	 51.1595 	 103.252
| 22> H 	 -47.0305 	 50.6118 	 104.776
| 23> S 	 -44.8821 	 48.9741 	 99.3227
| 24> C 	 -44.7127 	 49.2861 	 97.6242
| 25> C 	 -44.2795 	 50.5466 	 97.4689
| 26> C 	 -44.0174 	 51.2892 	 98.6782
| 27> C 	 -44.279 	 50.5276 	 99.8141
| 28> H 	 -44.1373 	 51.0183 	 96.5055
| 29> C 	 -43.7454 	 52.8252 	 98.6543
| 30> H 	 -42.8152 	 53.002 	 98.0702
| 31> H 	 -43.5874 	 53.2538 	 99.6385
| 32> C 	 -44.8195 	 53.7501 	 98.0521
| 33> H 	 -45.7292 	 53.3554 	 98.572
| 34> H 	 -44.7925 	 53.3461 	 97.0379
| 35> C 	 -44.5601 	 55.2783 	 98.1672
| 36> H 	 -43.5145 	 55.5325 	 97.936
| 37> H 	 -44.6103 	 55.5131 	 99.166
| 38> H 	 -45.1764 	 55.8449 	 97.6377
| 39> H 	 -44.081 	 50.2102 	 104.727
| 40> H 	 -44.9868 	 48.61 	 96.8272
| 41> *
| 42>
| 43>                          ****END OF INPUT****

CARTESIAN COORDINATES (ANGSTROEM)
---------------------------------
  S    -43.555700   49.717400  102.306000
  C    -44.117200   50.572400  103.733000
  C    -44.780300   51.735000  103.429000
  C    -44.836500   51.883700  102.025000
  C    -44.329300   50.801200  101.285000
  H    -45.319700   52.708400  101.536000
  C    -45.466700   52.726900  104.376000
  H    -45.042100   53.749800  104.232000
  H    -45.249600   52.419400  105.409000
  C    -46.985700   52.886500  104.358000
  H    -47.216300   53.372300  105.272000
  H    -47.377200   53.546700  103.521000
  C    -47.653800   51.440500  104.318000
  H    -48.644400   51.586700  104.836000
  H    -47.843900   51.159500  103.252000
  H    -47.030500   50.611800  104.776000
  S    -44.882100   48.974100   99.322700
  C    -44.712700   49.286100   97.624200
  C    -44.279500   50.546600   97.468900
  C    -44.017400   51.289200   98.678200
  C    -44.279000   50.527600   99.814100
  H    -44.137300   51.018300   96.505500
  C    -43.745400   52.825200   98.654300
  H    -42.815200   53.002000   98.070200
  H    -43.587400   53.253800   99.638500
  C    -44.819500   53.750100   98.052100
  H    -45.729200   53.355400   98.572000
  H    -44.792500   53.346100   97.037900
  C    -44.560100   55.278300   98.167200
  H    -43.514500   55.532500   97.936000
  H    -44.610300   55.513100   99.166000
  H    -45.176400   55.844900   97.637700
  H    -44.081000   50.210200  104.727000
  H    -44.986800   48.610000   96.827200

 Total Charge           Charge          ....    0
 Multiplicity           Mult            ....    1
 Number of Electrons    NEL             ....  134
 Basis Dimension        Dim             ....  322

ORBITAL ENERGIES
----------------

  NO   OCC          E(Eh)            E(eV)
   0   2.0000     -88.968304     -2420.9506
   1   2.0000     -88.963214     -2420.8121
   2   2.0000     -10.332706      -281.1672
   3   2.0000     -10.331267      -281.1281
   4   2.0000     -10.316168      -280.7172
   5   2.0000     -10.309876      -280.5460
   6   2.0000     -10.308528      -280.5093
   7   2.0000     -10.300922      -280.3023
   8   2.0000     -10.298533      -280.2373
   9   2.0000     -10.292933      -280.0849
  10   2.0000     -10.292769      -280.0805
  11   2.0000     -10.292726      -280.0793
  12   2.0000     -10.292483      -280.0727
  13   2.0000     -10.289827      -280.0004
  14   2.0000     -10.287988      -279.9504
  15   2.0000     -10.270955      -279.4869
  16   2.0000      -8.084132      -219.9804
  17   2.0000      -8.078719      -219.8331
  18   2.0000      -6.042522      -164.4254
  19   2.0000      -6.038346      -164.3117
  20   2.0000      -6.037256      -164.2821
  21   2.0000      -6.035080      -164.2229
  22   2.0000      -6.032986      -164.1659
  23   2.0000      -6.029498      -164.0710
  24   2.0000      -1.013868       -27.5887
  25   2.0000      -0.992273       -27.0011
  26   2.0000      -0.911759       -24.8102
  27   2.0000      -0.907031       -24.6816
  28   2.0000      -0.869313       -23.6552
  29   2.0000      -0.849795       -23.1241
  30   2.0000      -0.842032       -22.9129
  31   2.0000      -0.814295       -22.1581
  32   2.0000      -0.787068       -21.4172
  33   2.0000      -0.777647       -21.1609
  34   2.0000      -0.707047       -19.2397
  35   2.0000      -0.694581       -18.9005
  36   2.0000      -0.693319       -18.8662
  37   2.0000      -0.659008       -17.9325
  38   2.0000      -0.638594       -17.3770
  39   2.0000      -0.624032       -16.9808
  40   2.0000      -0.601967       -16.3803
  41   2.0000      -0.568531       -15.4705
  42   2.0000      -0.565528       -15.3888
  43   2.0000      -0.550595       -14.9824
  44   2.0000      -0.543066       -14.7776
  45   2.0000      -0.535820       -14.5804
  46   2.0000      -0.516256       -14.0480
  47   2.0000      -0.512172       -13.9369
  48   2.0000      -0.504061       -13.7162
  49   2.0000      -0.493990       -13.4421
  50   2.0000      -0.489356       -13.3161
  51   2.0000      -0.484268       -13.1776
  52   2.0000      -0.473797       -12.8927
  53   2.0000      -0.467870       -12.7314
  54   2.0000      -0.461713       -12.5639
  55   2.0000      -0.456478       -12.4214
  56   2.0000      -0.450481       -12.2582
  57   2.0000      -0.434634       -11.8270
  58   2.0000      -0.424395       -11.5484
  59   2.0000      -0.419459       -11.4141
  60   2.0000      -0.415496       -11.3062
  61   2.0000      -0.415130       -11.2962
  62   2.0000      -0.410739       -11.1768
  63   2.0000      -0.349626        -9.5138
  64   2.0000      -0.335328        -9.1247
  65   2.0000      -0.326423        -8.8824
  66   2.0000      -0.299295        -8.1442
  67   0.0000       0.032565         0.8861
  68   0.0000       0.075704         2.0600
  69   0.0000       0.116172         3.1612
  70   0.0000       0.121984         3.3194
  71   0.0000       0.127679         3.4743

MULLIKEN ATOMIC CHARGES
-----------------------
   0 S :    0.128902
   1 C :   -0.111716
   2 C :   -0.078841
   3 C :    0.031010
   4 C :   -0.144927
   5 H :   -0.005216
   6 C :    0.043533
   7 H :    0.042039
   8 H :    0.019499
   9 C :   -0.074122
  10 H :    0.029310
  11 H :    0.043174
  12 C :   -0.100015
  13 H :    0.045473
  14 H :    0.050947
  15 H :    0.048708
  16 S :    0.095650
  17 C :   -0.075928
  18 C :   -0.035479
  19 C :   -0.022521
  20 C :   -0.150593
  21 H :    0.018804
  22 C :    0.019678
  23 H :    0.027536
  24 H :    0.013705
  25 C :   -0.110458
  26 H :    0.038936
  27 H :    0.020676
  28 C :    0.061562
  29 H :    0.020890
  30 H :    0.006605
  31 H :    0.013685
  32 H :    0.027277
  33 H :    0.062215
Sum of atomic charges:    0.0000000

LOEWDIN ATOMIC CHARGES
----------------------
   0 S :    0.446013
   1 C :   -0.195065
   2 C :   -0.063014
   3 C :   -0.065780
   4 C :   -0.214738
   5 H :    0.023458
   6 C :   -0.035139
   7 H :    0.036919
   8 H :    0.029654
   9 C :   -0.042669
  10 H :    0.019835
  11 H :    0.028505
  12 C :   -0.078218
  13 H :    0.030482
  14 H :    0.033095
  15 H :    0.031529
  16 S :    0.415382
  17 C :   -0.186868
  18 C :   -0.072971
  19 C :   -0.059097
  20 C :   -0.201983
  21 H :    0.029355
  22 C :   -0.035828
  23 H :    0.028372
  24 H :    0.020644
  25 C :   -0.042754
  26 H :    0.027514
  27 H :    0.017848
  28 C :   -0.041259
  29 H :    0.033246
  30 H :    0.018989
  31 H :    0.010167
  32 H :    0.018630
  33 H :    0.035744

  Mayer bond orders larger than 0.100000
B(  0-S ,  1-C ) :   1.1471 B(  0-S ,  4-C ) :   1.1968 B(  1-C ,  2-C ) :   1.6043
B(  1-C ,  4-C ) :   0.1014 B(  1-C , 32-H ) :   0.9654 B(  2-C ,  3-C ) :   1.2636
B(  2-C ,  6-C ) :   1.0225 B(  3-C ,  4-C ) :   1.5444 B(  3-C ,  5-H ) :   1.0038
B(  4-C , 20-C ) :   0.9815 B(  6-C ,  7-H ) :   0.9388 B(  6-C ,  8-H ) :   0.9442
B(  6-C ,  9-C ) :   1.0762 B(  9-C , 10-H ) :   0.9621 B(  9-C , 11-H ) :   0.9546
B(  9-C , 12-C ) :   1.0563 B( 12-C , 13-H ) :   0.9771 B( 12-C , 14-H ) :   0.9740
B( 12-C , 15-H ) :   0.9773 B( 16-S , 17-C ) :   1.1459 B( 16-S , 20-C ) :   1.1619
B( 17-C , 18-C ) :   1.6035 B( 17-C , 33-H ) :   0.9722 B( 18-C , 19-C ) :   1.2449
B( 18-C , 21-H ) :   0.9885 B( 19-C , 20-C ) :   1.6000 B( 19-C , 22-C ) :   1.0461
B( 22-C , 23-H ) :   0.9332 B( 22-C , 24-H ) :   0.9469 B( 22-C , 25-C ) :   1.0422
B( 25-C , 26-H ) :   0.9597 B( 25-C , 27-H ) :   0.9581 B( 25-C , 28-C ) :   1.0695
B( 28-C , 29-H ) :   0.9710 B( 28-C , 30-H ) :   0.9697 B( 28-C , 31-H ) :   0.9744

Dispersion correction           -0.014326969
FINAL SINGLE POINT ENERGY     -1339.863643507709

DIPOLE MOMENT
-------------
                                X             Y             Z
Electronic contribution:     10.48708     -24.11114      -3.31339
Nuclear contribution   :    -10.78218      24.74664       3.26751
                        -----------------------------------------
Total Dipole Moment    :     -0.29510       0.63550      -0.04587
                        -----------------------------------------
Magnitude (a.u.)       :      0.70217
Magnitude (Debye)      :      1.78479

Rotational constants in cm-1:     0.016762     0.009197     0.006984
Rotational constants in MHz :   502.516011   275.729327   209.365907

                             ****ORCA TERMINATED NORMALLY****
TOTAL RUN TIME: 0 days 0 hours 0 minutes 29 seconds 704 msec
