                         Program Version 4.2.1 -  RELEASE  -
|  1> ! wB97X-D3 SP def2-SVP
|  2> %pal
|  3> nprocs 16
|  4> end
|  5>
|  6> * xyz 0 1
|  7> S 	 -30.6341 	 30.0114 	 41.4772
|  8> C 	 -29.9879 	 30.8393 	 40.1799
|  9> C 	 -29.4131 	 32.0394 	 40.5001
| 10> C 	 -29.5082 	 32.2317 	 41.9271
| 11> C 	 -30.182 	 31.2637 	 42.6307
| 12> H 	 -29.1015 	 33.0908 	 42.4541
| 13> C 	 -28.8495 	 33.0789 	 39.5484
| 14> H 	 -29.7345 	 33.5975 	 39.1418
| 15> H 	 -28.5855 	 32.4313 	 38.7105
| 16> C 	 -27.6913 	 33.8832 	 40.0259
| 17> H 	 -27.7577 	 34.5393 	 40.8516
| 18> H 	 -27.0228 	 33.1702 	 40.4407
| 19> C 	 -26.9921 	 34.6685 	 38.7978
| 20> H 	 -27.68 	 35.5215 	 38.5523
| 21> H 	 -25.9132 	 35.0058 	 38.8625
| 22> H 	 -27.0199 	 34.0684 	 37.8784
| 23> S 	 -29.8266 	 29.557 	 44.8094
| 24> C 	 -30.0514 	 30.1552 	 46.426
| 25> C 	 -30.2752 	 31.5304 	 46.4388
| 26> C 	 -30.3319 	 32.0991 	 45.1271
| 27> C 	 -30.1996 	 31.1481 	 44.0982
| 28> H 	 -30.4605 	 32.0727 	 47.3722
| 29> C 	 -30.6103 	 33.6229 	 45.0094
| 30> H 	 -31.6369 	 33.6749 	 45.2053
| 31> H 	 -30.3587 	 33.8283 	 43.9676
| 32> C 	 -29.7905 	 34.6024 	 45.8821
| 33> H 	 -29.7426 	 34.4316 	 46.9621
| 34> H 	 -30.327 	 35.5025 	 45.8669
| 35> C 	 -28.3871 	 34.9709 	 45.323
| 36> H 	 -28.5147 	 35.4107 	 44.3144
| 37> H 	 -27.7197 	 34.0417 	 45.1761
| 38> H 	 -27.8371 	 35.7196 	 45.9131
| 39> H 	 -29.8403 	 30.3639 	 39.2355
| 40> H 	 -30.0215 	 29.4759 	 47.3036
| 41> *
| 42>
| 43>                          ****END OF INPUT****

CARTESIAN COORDINATES (ANGSTROEM)
---------------------------------
  S    -30.634100   30.011400   41.477200
  C    -29.987900   30.839300   40.179900
  C    -29.413100   32.039400   40.500100
  C    -29.508200   32.231700   41.927100
  C    -30.182000   31.263700   42.630700
  H    -29.101500   33.090800   42.454100
  C    -28.849500   33.078900   39.548400
  H    -29.734500   33.597500   39.141800
  H    -28.585500   32.431300   38.710500
  C    -27.691300   33.883200   40.025900
  H    -27.757700   34.539300   40.851600
  H    -27.022800   33.170200   40.440700
  C    -26.992100   34.668500   38.797800
  H    -27.680000   35.521500   38.552300
  H    -25.913200   35.005800   38.862500
  H    -27.019900   34.068400   37.878400
  S    -29.826600   29.557000   44.809400
  C    -30.051400   30.155200   46.426000
  C    -30.275200   31.530400   46.438800
  C    -30.331900   32.099100   45.127100
  C    -30.199600   31.148100   44.098200
  H    -30.460500   32.072700   47.372200
  C    -30.610300   33.622900   45.009400
  H    -31.636900   33.674900   45.205300
  H    -30.358700   33.828300   43.967600
  C    -29.790500   34.602400   45.882100
  H    -29.742600   34.431600   46.962100
  H    -30.327000   35.502500   45.866900
  C    -28.387100   34.970900   45.323000
  H    -28.514700   35.410700   44.314400
  H    -27.719700   34.041700   45.176100
  H    -27.837100   35.719600   45.913100
  H    -29.840300   30.363900   39.235500
  H    -30.021500   29.475900   47.303600

 Total Charge           Charge          ....    0
 Multiplicity           Mult            ....    1
 Number of Electrons    NEL             ....  134
 Basis Dimension        Dim             ....  322

ORBITAL ENERGIES
----------------

  NO   OCC          E(Eh)            E(eV)
   0   2.0000     -88.965531     -2420.8752
   1   2.0000     -88.963794     -2420.8279
   2   2.0000     -10.332442      -281.1600
   3   2.0000     -10.328691      -281.0580
   4   2.0000     -10.319905      -280.8189
   5   2.0000     -10.306007      -280.4407
   6   2.0000     -10.305970      -280.4397
   7   2.0000     -10.299159      -280.2544
   8   2.0000     -10.296083      -280.1707
   9   2.0000     -10.294483      -280.1271
  10   2.0000     -10.293588      -280.1028
  11   2.0000     -10.292518      -280.0736
  12   2.0000     -10.291216      -280.0382
  13   2.0000     -10.289894      -280.0023
  14   2.0000     -10.289552      -279.9929
  15   2.0000     -10.289210      -279.9836
  16   2.0000      -8.081598      -219.9115
  17   2.0000      -8.078283      -219.8213
  18   2.0000      -6.040051      -164.3581
  19   2.0000      -6.036844      -164.2709
  20   2.0000      -6.035856      -164.2440
  21   2.0000      -6.032777      -164.1602
  22   2.0000      -6.032389      -164.1496
  23   2.0000      -6.029069      -164.0593
  24   2.0000      -1.009038       -27.4573
  25   2.0000      -0.983824       -26.7712
  26   2.0000      -0.915086       -24.9007
  27   2.0000      -0.906055       -24.6550
  28   2.0000      -0.870309       -23.6823
  29   2.0000      -0.848804       -23.0971
  30   2.0000      -0.842794       -22.9336
  31   2.0000      -0.811924       -22.0936
  32   2.0000      -0.780672       -21.2432
  33   2.0000      -0.770713       -20.9722
  34   2.0000      -0.720872       -19.6159
  35   2.0000      -0.706295       -19.2193
  36   2.0000      -0.691394       -18.8138
  37   2.0000      -0.657388       -17.8884
  38   2.0000      -0.641683       -17.4611
  39   2.0000      -0.620373       -16.8812
  40   2.0000      -0.591901       -16.1065
  41   2.0000      -0.568823       -15.4784
  42   2.0000      -0.563548       -15.3349
  43   2.0000      -0.562260       -15.2999
  44   2.0000      -0.534758       -14.5515
  45   2.0000      -0.526901       -14.3377
  46   2.0000      -0.514176       -13.9915
  47   2.0000      -0.508336       -13.8325
  48   2.0000      -0.503287       -13.6951
  49   2.0000      -0.499343       -13.5878
  50   2.0000      -0.488264       -13.2863
  51   2.0000      -0.475128       -12.9289
  52   2.0000      -0.465616       -12.6700
  53   2.0000      -0.463970       -12.6253
  54   2.0000      -0.456870       -12.4321
  55   2.0000      -0.452565       -12.3149
  56   2.0000      -0.449247       -12.2246
  57   2.0000      -0.441959       -12.0263
  58   2.0000      -0.438243       -11.9252
  59   2.0000      -0.430555       -11.7160
  60   2.0000      -0.421900       -11.4805
  61   2.0000      -0.416342       -11.3292
  62   2.0000      -0.408573       -11.1178
  63   2.0000      -0.354693        -9.6517
  64   2.0000      -0.329742        -8.9727
  65   2.0000      -0.325642        -8.8612
  66   2.0000      -0.287394        -7.8204
  67   0.0000       0.027446         0.7468
  68   0.0000       0.080125         2.1803
  69   0.0000       0.109763         2.9868
  70   0.0000       0.124443         3.3863
  71   0.0000       0.128025         3.4837

MULLIKEN ATOMIC CHARGES
-----------------------
   0 S :    0.118406
   1 C :   -0.121577
   2 C :   -0.115773
   3 C :    0.003061
   4 C :   -0.136671
   5 H :    0.007244
   6 C :    0.095565
   7 H :    0.048360
   8 H :    0.011872
   9 C :   -0.046048
  10 H :    0.031230
  11 H :    0.021582
  12 C :   -0.091714
  13 H :    0.039834
  14 H :    0.055386
  15 H :    0.025563
  16 S :    0.098072
  17 C :   -0.110821
  18 C :   -0.034159
  19 C :   -0.072693
  20 C :   -0.147817
  21 H :    0.026246
  22 C :    0.108870
  23 H :    0.037311
  24 H :    0.006227
  25 C :   -0.045260
  26 H :    0.028476
  27 H :    0.014136
  28 C :   -0.103150
  29 H :    0.031066
  30 H :    0.055904
  31 H :    0.044272
  32 H :    0.043993
  33 H :    0.073007
Sum of atomic charges:   -0.0000000

LOEWDIN ATOMIC CHARGES
----------------------
   0 S :    0.433999
   1 C :   -0.219246
   2 C :   -0.066852
   3 C :   -0.062927
   4 C :   -0.200119
   5 H :    0.025302
   6 C :   -0.033318
   7 H :    0.038379
   8 H :    0.034954
   9 C :   -0.039617
  10 H :    0.020856
  11 H :    0.026116
  12 C :   -0.075702
  13 H :    0.030162
  14 H :    0.034402
  15 H :    0.022439
  16 S :    0.396082
  17 C :   -0.191552
  18 C :   -0.077528
  19 C :   -0.056683
  20 C :   -0.190793
  21 H :    0.034003
  22 C :   -0.018277
  23 H :    0.031065
  24 H :    0.029045
  25 C :   -0.041964
  26 H :    0.023894
  27 H :    0.021888
  28 C :   -0.074936
  29 H :    0.023081
  30 H :    0.034615
  31 H :    0.028345
  32 H :    0.025107
  33 H :    0.035780

  Mayer bond orders larger than 0.100000
B(  0-S ,  1-C ) :   1.1688 B(  0-S ,  4-C ) :   1.1449 B(  1-C ,  2-C ) :   1.5974
B(  1-C , 32-H ) :   0.9629 B(  2-C ,  3-C ) :   1.2693 B(  2-C ,  6-C ) :   1.0082
B(  3-C ,  4-C ) :   1.5618 B(  3-C ,  5-H ) :   0.9825 B(  4-C , 20-C ) :   1.0561
B(  6-C ,  7-H ) :   0.9321 B(  6-C ,  8-H ) :   0.9312 B(  6-C ,  9-C ) :   1.0579
B(  9-C , 10-H ) :   0.9554 B(  9-C , 11-H ) :   0.9557 B(  9-C , 12-C ) :   1.0622
B( 12-C , 13-H ) :   0.9777 B( 12-C , 14-H ) :   0.9778 B( 12-C , 15-H ) :   0.9783
B( 16-S , 17-C ) :   1.1648 B( 16-S , 20-C ) :   1.1359 B( 17-C , 18-C ) :   1.5882
B( 17-C , 20-C ) :   0.1001 B( 17-C , 33-H ) :   0.9639 B( 18-C , 19-C ) :   1.2552
B( 18-C , 21-H ) :   0.9892 B( 19-C , 20-C ) :   1.5880 B( 19-C , 22-C ) :   1.0154
B( 22-C , 23-H ) :   0.9346 B( 22-C , 24-H ) :   0.9357 B( 22-C , 25-C ) :   1.0713
B( 25-C , 26-H ) :   0.9548 B( 25-C , 27-H ) :   0.9476 B( 25-C , 28-C ) :   1.0727
B( 28-C , 29-H ) :   0.9724 B( 28-C , 30-H ) :   0.9786 B( 28-C , 31-H ) :   0.9742

Dispersion correction           -0.013989739
FINAL SINGLE POINT ENERGY     -1339.868720845508

DIPOLE MOMENT
-------------
                                X             Y             Z
Electronic contribution:    -12.59320     -28.51462       5.59739
Nuclear contribution   :     12.80694      29.17759      -5.59773
                        -----------------------------------------
Total Dipole Moment    :      0.21373       0.66298      -0.00034
                        -----------------------------------------
Magnitude (a.u.)       :      0.69658
Magnitude (Debye)      :      1.77056

Rotational constants in cm-1:     0.016857     0.009198     0.006434
Rotational constants in MHz :   505.348336   275.735266   192.900482

                             ****ORCA TERMINATED NORMALLY****
TOTAL RUN TIME: 0 days 0 hours 0 minutes 33 seconds 745 msec
