                         Program Version 4.2.1 -  RELEASE  -
|  1> ! wB97X-D3 SP def2-SVP
|  2> %pal
|  3> nprocs 16
|  4> end
|  5>
|  6> * xyz 0 1
|  7> S 	 -34.108 	 43.5389 	 97.5716
|  8> C 	 -33.1824 	 42.2567 	 98.1999
|  9> C 	 -33.5716 	 41.0548 	 97.6646
| 10> C 	 -34.6502 	 41.1374 	 96.7477
| 11> C 	 -35.1485 	 42.4375 	 96.6879
| 12> H 	 -35.0655 	 40.3479 	 96.1005
| 13> C 	 -32.9723 	 39.734 	 98.0861
| 14> H 	 -33.7924 	 39.1445 	 98.5036
| 15> H 	 -32.2618 	 39.9477 	 98.8595
| 16> C 	 -32.2994 	 38.9913 	 96.904
| 17> H 	 -32.9357 	 39.0351 	 96.0388
| 18> H 	 -31.3626 	 39.4062 	 96.6746
| 19> C 	 -32.1405 	 37.446 	 97.1726
| 20> H 	 -31.8015 	 37.1097 	 98.1743
| 21> H 	 -33.0779 	 36.8234 	 96.9919
| 22> H 	 -31.4958 	 37.1208 	 96.3891
| 23> S 	 -36.2012 	 44.5011 	 95.2113
| 24> C 	 -37.8221 	 44.4907 	 94.6496
| 25> C 	 -38.3265 	 43.1962 	 94.756
| 26> C 	 -37.5036 	 42.343 	 95.5404
| 27> C 	 -36.2782 	 42.8852 	 95.8845
| 28> H 	 -39.3122 	 43.0591 	 94.34
| 29> C 	 -37.9465 	 40.913 	 95.9293
| 30> H 	 -37.145 	 40.2908 	 95.4885
| 31> H 	 -38.792 	 40.6227 	 95.3929
| 32> C 	 -38.1785 	 40.5105 	 97.3984
| 33> H 	 -39.0141 	 41.1384 	 97.8297
| 34> H 	 -37.2903 	 40.5298 	 97.9153
| 35> C 	 -38.6426 	 39.0578 	 97.5207
| 36> H 	 -39.0833 	 38.9246 	 98.5834
| 37> H 	 -37.8491 	 38.3734 	 97.52
| 38> H 	 -39.3608 	 38.7887 	 96.7262
| 39> H 	 -32.4457 	 42.4409 	 99.0155
| 40> H 	 -38.3773 	 45.3266 	 94.3153
| 41> *
| 42>
| 43>                          ****END OF INPUT****

CARTESIAN COORDINATES (ANGSTROEM)
---------------------------------
  S    -34.108000   43.538900   97.571600
  C    -33.182400   42.256700   98.199900
  C    -33.571600   41.054800   97.664600
  C    -34.650200   41.137400   96.747700
  C    -35.148500   42.437500   96.687900
  H    -35.065500   40.347900   96.100500
  C    -32.972300   39.734000   98.086100
  H    -33.792400   39.144500   98.503600
  H    -32.261800   39.947700   98.859500
  C    -32.299400   38.991300   96.904000
  H    -32.935700   39.035100   96.038800
  H    -31.362600   39.406200   96.674600
  C    -32.140500   37.446000   97.172600
  H    -31.801500   37.109700   98.174300
  H    -33.077900   36.823400   96.991900
  H    -31.495800   37.120800   96.389100
  S    -36.201200   44.501100   95.211300
  C    -37.822100   44.490700   94.649600
  C    -38.326500   43.196200   94.756000
  C    -37.503600   42.343000   95.540400
  C    -36.278200   42.885200   95.884500
  H    -39.312200   43.059100   94.340000
  C    -37.946500   40.913000   95.929300
  H    -37.145000   40.290800   95.488500
  H    -38.792000   40.622700   95.392900
  C    -38.178500   40.510500   97.398400
  H    -39.014100   41.138400   97.829700
  H    -37.290300   40.529800   97.915300
  C    -38.642600   39.057800   97.520700
  H    -39.083300   38.924600   98.583400
  H    -37.849100   38.373400   97.520000
  H    -39.360800   38.788700   96.726200
  H    -32.445700   42.440900   99.015500
  H    -38.377300   45.326600   94.315300

 Total Charge           Charge          ....    0
 Multiplicity           Mult            ....    1
 Number of Electrons    NEL             ....  134
 Basis Dimension        Dim             ....  322

ORBITAL ENERGIES
----------------

  NO   OCC          E(Eh)            E(eV)
   0   2.0000     -88.966359     -2420.8977
   1   2.0000     -88.961587     -2420.7678
   2   2.0000     -10.332969      -281.1744
   3   2.0000     -10.325362      -280.9674
   4   2.0000     -10.312564      -280.6191
   5   2.0000     -10.312377      -280.6140
   6   2.0000     -10.305574      -280.4289
   7   2.0000     -10.297938      -280.2211
   8   2.0000     -10.297202      -280.2011
   9   2.0000     -10.293196      -280.0921
  10   2.0000     -10.288705      -279.9699
  11   2.0000     -10.288296      -279.9588
  12   2.0000     -10.286791      -279.9178
  13   2.0000     -10.283859      -279.8380
  14   2.0000     -10.281454      -279.7726
  15   2.0000     -10.279684      -279.7244
  16   2.0000      -8.081946      -219.9209
  17   2.0000      -8.077085      -219.7887
  18   2.0000      -6.040339      -164.3660
  19   2.0000      -6.036306      -164.2562
  20   2.0000      -6.035500      -164.2343
  21   2.0000      -6.032791      -164.1606
  22   2.0000      -6.031395      -164.1226
  23   2.0000      -6.027988      -164.0299
  24   2.0000      -1.011888       -27.5349
  25   2.0000      -0.990370       -26.9493
  26   2.0000      -0.909681       -24.7537
  27   2.0000      -0.907843       -24.7037
  28   2.0000      -0.871253       -23.7080
  29   2.0000      -0.853787       -23.2327
  30   2.0000      -0.846459       -23.0333
  31   2.0000      -0.816433       -22.2163
  32   2.0000      -0.779901       -21.2222
  33   2.0000      -0.769762       -20.9463
  34   2.0000      -0.710879       -19.3440
  35   2.0000      -0.699636       -19.0381
  36   2.0000      -0.691249       -18.8098
  37   2.0000      -0.666296       -18.1308
  38   2.0000      -0.641527       -17.4568
  39   2.0000      -0.623796       -16.9744
  40   2.0000      -0.591316       -16.0905
  41   2.0000      -0.575822       -15.6689
  42   2.0000      -0.567476       -15.4418
  43   2.0000      -0.560818       -15.2606
  44   2.0000      -0.527936       -14.3659
  45   2.0000      -0.523601       -14.2479
  46   2.0000      -0.517558       -14.0835
  47   2.0000      -0.514279       -13.9942
  48   2.0000      -0.505962       -13.7679
  49   2.0000      -0.501117       -13.6361
  50   2.0000      -0.495686       -13.4883
  51   2.0000      -0.486909       -13.2495
  52   2.0000      -0.470381       -12.7997
  53   2.0000      -0.464940       -12.6517
  54   2.0000      -0.461786       -12.5658
  55   2.0000      -0.451053       -12.2738
  56   2.0000      -0.443189       -12.0598
  57   2.0000      -0.436289       -11.8720
  58   2.0000      -0.429326       -11.6826
  59   2.0000      -0.428636       -11.6638
  60   2.0000      -0.421743       -11.4762
  61   2.0000      -0.414588       -11.2815
  62   2.0000      -0.408498       -11.1158
  63   2.0000      -0.356457        -9.6997
  64   2.0000      -0.330902        -9.0043
  65   2.0000      -0.328276        -8.9328
  66   2.0000      -0.284572        -7.7436
  67   0.0000       0.021293         0.5794
  68   0.0000       0.083968         2.2849
  69   0.0000       0.106143         2.8883
  70   0.0000       0.118979         3.2376
  71   0.0000       0.137619         3.7448

MULLIKEN ATOMIC CHARGES
-----------------------
   0 S :    0.120330
   1 C :   -0.145060
   2 C :   -0.092227
   3 C :   -0.011711
   4 C :   -0.122022
   5 H :    0.031442
   6 C :    0.107683
   7 H :    0.032361
   8 H :    0.008620
   9 C :   -0.059636
  10 H :    0.027991
  11 H :    0.026936
  12 C :   -0.081374
  13 H :    0.040461
  14 H :    0.034062
  15 H :    0.028402
  16 S :    0.094737
  17 C :   -0.092648
  18 C :   -0.038950
  19 C :   -0.037071
  20 C :   -0.136247
  21 H :    0.017080
  22 C :    0.058060
  23 H :    0.020075
  24 H :   -0.011856
  25 C :   -0.021081
  26 H :    0.045083
  27 H :    0.018942
  28 C :   -0.073074
  29 H :    0.042930
  30 H :    0.016598
  31 H :    0.033973
  32 H :    0.067275
  33 H :    0.049916
Sum of atomic charges:   -0.0000000

LOEWDIN ATOMIC CHARGES
----------------------
   0 S :    0.424690
   1 C :   -0.220541
   2 C :   -0.068891
   3 C :   -0.067101
   4 C :   -0.186403
   5 H :    0.036801
   6 C :   -0.025695
   7 H :    0.032157
   8 H :    0.024883
   9 C :   -0.026699
  10 H :    0.023564
  11 H :    0.019766
  12 C :   -0.074786
  13 H :    0.025054
  14 H :    0.029794
  15 H :    0.022131
  16 S :    0.414533
  17 C :   -0.189330
  18 C :   -0.074037
  19 C :   -0.058474
  20 C :   -0.197695
  21 H :    0.031425
  22 C :   -0.030909
  23 H :    0.029781
  24 H :    0.017090
  25 C :   -0.032296
  26 H :    0.034386
  27 H :    0.013607
  28 C :   -0.065444
  29 H :    0.038417
  30 H :    0.012515
  31 H :    0.023832
  32 H :    0.038646
  33 H :    0.025228

  Mayer bond orders larger than 0.100000
B(  0-S ,  1-C ) :   1.1436 B(  0-S ,  4-C ) :   1.1682 B(  1-C ,  2-C ) :   1.5998
B(  1-C , 32-H ) :   0.9634 B(  2-C ,  3-C ) :   1.2484 B(  2-C ,  6-C ) :   1.0276
B(  3-C ,  4-C ) :   1.5373 B(  3-C ,  5-H ) :   0.9880 B(  4-C , 20-C ) :   1.0760
B(  6-C ,  7-H ) :   0.9441 B(  6-C ,  8-H ) :   0.9348 B(  6-C ,  9-C ) :   1.0583
B(  9-C , 10-H ) :   0.9616 B(  9-C , 11-H ) :   0.9598 B(  9-C , 12-C ) :   1.0693
B( 12-C , 13-H ) :   0.9780 B( 12-C , 14-H ) :   0.9774 B( 12-C , 15-H ) :   0.9758
B( 16-S , 17-C ) :   1.1770 B( 16-S , 20-C ) :   1.1357 B( 17-C , 18-C ) :   1.5754
B( 17-C , 20-C ) :   0.1008 B( 17-C , 33-H ) :   0.9737 B( 18-C , 19-C ) :   1.2611
B( 18-C , 21-H ) :   0.9962 B( 19-C , 20-C ) :   1.5748 B( 19-C , 22-C ) :   1.0250
B( 22-C , 23-H ) :   0.9369 B( 22-C , 24-H ) :   0.9285 B( 22-C , 25-C ) :   1.0721
B( 25-C , 26-H ) :   0.9571 B( 25-C , 27-H ) :   0.9488 B( 25-C , 28-C ) :   1.0826
B( 28-C , 29-H ) :   0.9740 B( 28-C , 30-H ) :   0.9767 B( 28-C , 31-H ) :   0.9748

Dispersion correction           -0.014000472
FINAL SINGLE POINT ENERGY     -1339.872192106801

DIPOLE MOMENT
-------------
                                X             Y             Z
Electronic contribution:      1.31426      31.61598      -5.51065
Nuclear contribution   :     -1.43954     -32.20361       5.58610
                        -----------------------------------------
Total Dipole Moment    :     -0.12529      -0.58763       0.07545
                        -----------------------------------------
Magnitude (a.u.)       :      0.60556
Magnitude (Debye)      :      1.53921

Rotational constants in cm-1:     0.017650     0.009083     0.006785
Rotational constants in MHz :   529.118840   272.309373   203.412142

                             ****ORCA TERMINATED NORMALLY****
TOTAL RUN TIME: 0 days 0 hours 0 minutes 29 seconds 54 msec
