                         Program Version 4.2.1 -  RELEASE  -
|  1> ! wB97X-D3 SP def2-SVP
|  2> %pal
|  3> nprocs 16
|  4> end
|  5>
|  6> * xyz 0 1
|  7> S 	 -1.70663 	 24.1962 	 36.0808
|  8> C 	 -2.41589 	 24.8028 	 34.6237
|  9> C 	 -1.96689 	 24.1406 	 33.4933
| 10> C 	 -0.854423 	 23.3529 	 33.8263
| 11> C 	 -0.55056 	 23.334 	 35.1674
| 12> H 	 -0.172663 	 22.891 	 33.2219
| 13> C 	 -2.55813 	 24.2768 	 32.1069
| 14> H 	 -1.77518 	 24.8162 	 31.5198
| 15> H 	 -3.42225 	 24.9583 	 32.2667
| 16> C 	 -2.82001 	 22.9738 	 31.2828
| 17> H 	 -1.84558 	 22.395 	 31.1778
| 18> H 	 -3.43106 	 22.3571 	 31.9785
| 19> C 	 -3.58186 	 23.1901 	 29.8909
| 20> H 	 -4.03774 	 22.2931 	 29.5366
| 21> H 	 -4.2888 	 24.0085 	 30.0051
| 22> H 	 -2.75795 	 23.5229 	 29.1576
| 23> S 	 1.77607 	 23.7873 	 36.7213
| 24> C 	 2.8537 	 22.5303 	 36.9782
| 25> C 	 2.32677 	 21.3458 	 36.4836
| 26> C 	 1.01414 	 21.4202 	 35.8748
| 27> C 	 0.589851 	 22.7534 	 35.8711
| 28> H 	 3.00482 	 20.5556 	 36.3669
| 29> C 	 0.241519 	 20.2625 	 35.1819
| 30> H 	 0.541273 	 20.1295 	 34.1824
| 31> H 	 -0.778336 	 20.5131 	 35.2727
| 32> C 	 0.418248 	 18.8971 	 35.8949
| 33> H 	 1.49992 	 18.6603 	 35.9
| 34> H 	 -0.138351 	 18.03 	 35.4664
| 35> C 	 0.0628329 	 18.9062 	 37.3613
| 36> H 	 -0.140215 	 17.9023 	 37.7271
| 37> H 	 -0.863484 	 19.381 	 37.5176
| 38> H 	 0.798713 	 19.2652 	 38.153
| 39> H 	 -3.3876 	 25.3241 	 34.6689
| 40> H 	 3.86138 	 22.5045 	 37.281
| 41> *
| 42>
| 43>                          ****END OF INPUT****

CARTESIAN COORDINATES (ANGSTROEM)
---------------------------------
  S     -1.706630   24.196200   36.080800
  C     -2.415890   24.802800   34.623700
  C     -1.966890   24.140600   33.493300
  C     -0.854423   23.352900   33.826300
  C     -0.550560   23.334000   35.167400
  H     -0.172663   22.891000   33.221900
  C     -2.558130   24.276800   32.106900
  H     -1.775180   24.816200   31.519800
  H     -3.422250   24.958300   32.266700
  C     -2.820010   22.973800   31.282800
  H     -1.845580   22.395000   31.177800
  H     -3.431060   22.357100   31.978500
  C     -3.581860   23.190100   29.890900
  H     -4.037740   22.293100   29.536600
  H     -4.288800   24.008500   30.005100
  H     -2.757950   23.522900   29.157600
  S      1.776070   23.787300   36.721300
  C      2.853700   22.530300   36.978200
  C      2.326770   21.345800   36.483600
  C      1.014140   21.420200   35.874800
  C      0.589851   22.753400   35.871100
  H      3.004820   20.555600   36.366900
  C      0.241519   20.262500   35.181900
  H      0.541273   20.129500   34.182400
  H     -0.778336   20.513100   35.272700
  C      0.418248   18.897100   35.894900
  H      1.499920   18.660300   35.900000
  H     -0.138351   18.030000   35.466400
  C      0.062833   18.906200   37.361300
  H     -0.140215   17.902300   37.727100
  H     -0.863484   19.381000   37.517600
  H      0.798713   19.265200   38.153000
  H     -3.387600   25.324100   34.668900
  H      3.861380   22.504500   37.281000

 Total Charge           Charge          ....    0
 Multiplicity           Mult            ....    1
 Number of Electrons    NEL             ....  134
 Basis Dimension        Dim             ....  322

ORBITAL ENERGIES
----------------

  NO   OCC          E(Eh)            E(eV)
   0   2.0000     -88.965884     -2420.8848
   1   2.0000     -88.962761     -2420.7998
   2   2.0000     -10.327103      -281.0148
   3   2.0000     -10.322493      -280.8893
   4   2.0000     -10.310496      -280.5629
   5   2.0000     -10.310051      -280.5508
   6   2.0000     -10.308949      -280.5208
   7   2.0000     -10.302943      -280.3573
   8   2.0000     -10.300698      -280.2963
   9   2.0000     -10.300358      -280.2870
  10   2.0000     -10.292352      -280.0691
  11   2.0000     -10.290360      -280.0149
  12   2.0000     -10.288954      -279.9767
  13   2.0000     -10.287889      -279.9477
  14   2.0000     -10.284168      -279.8464
  15   2.0000     -10.268862      -279.4299
  16   2.0000      -8.081115      -219.8983
  17   2.0000      -8.078958      -219.8396
  18   2.0000      -6.039571      -164.3451
  19   2.0000      -6.037162      -164.2795
  20   2.0000      -6.035409      -164.2318
  21   2.0000      -6.033293      -164.1743
  22   2.0000      -6.032014      -164.1394
  23   2.0000      -6.029922      -164.0825
  24   2.0000      -1.011995       -27.5378
  25   2.0000      -0.989058       -26.9136
  26   2.0000      -0.909904       -24.7597
  27   2.0000      -0.905754       -24.6468
  28   2.0000      -0.868154       -23.6237
  29   2.0000      -0.850720       -23.1493
  30   2.0000      -0.842078       -22.9141
  31   2.0000      -0.815487       -22.1905
  32   2.0000      -0.788347       -21.4520
  33   2.0000      -0.773856       -21.0577
  34   2.0000      -0.709615       -19.3096
  35   2.0000      -0.695510       -18.9258
  36   2.0000      -0.688929       -18.7467
  37   2.0000      -0.652056       -17.7433
  38   2.0000      -0.645801       -17.5731
  39   2.0000      -0.622110       -16.9285
  40   2.0000      -0.596737       -16.2380
  41   2.0000      -0.570589       -15.5265
  42   2.0000      -0.561287       -15.2734
  43   2.0000      -0.555260       -15.1094
  44   2.0000      -0.539879       -14.6908
  45   2.0000      -0.525937       -14.3115
  46   2.0000      -0.521145       -14.1811
  47   2.0000      -0.510405       -13.8888
  48   2.0000      -0.504541       -13.7293
  49   2.0000      -0.497048       -13.5254
  50   2.0000      -0.485515       -13.2115
  51   2.0000      -0.474943       -12.9239
  52   2.0000      -0.471371       -12.8267
  53   2.0000      -0.467837       -12.7305
  54   2.0000      -0.461554       -12.5595
  55   2.0000      -0.451080       -12.2745
  56   2.0000      -0.440342       -11.9823
  57   2.0000      -0.437486       -11.9046
  58   2.0000      -0.430531       -11.7153
  59   2.0000      -0.428998       -11.6736
  60   2.0000      -0.416154       -11.3241
  61   2.0000      -0.414003       -11.2656
  62   2.0000      -0.413262       -11.2454
  63   2.0000      -0.340784        -9.2732
  64   2.0000      -0.333310        -9.0698
  65   2.0000      -0.324801        -8.8383
  66   2.0000      -0.297538        -8.0964
  67   0.0000       0.036647         0.9972
  68   0.0000       0.063704         1.7335
  69   0.0000       0.113431         3.0866
  70   0.0000       0.127491         3.4692
  71   0.0000       0.132932         3.6173

MULLIKEN ATOMIC CHARGES
-----------------------
   0 S :    0.119359
   1 C :   -0.133309
   2 C :   -0.086630
   3 C :    0.075774
   4 C :   -0.202696
   5 H :   -0.032074
   6 C :    0.064009
   7 H :    0.041520
   8 H :    0.024491
   9 C :   -0.134974
  10 H :    0.048125
  11 H :    0.035809
  12 C :   -0.044240
  13 H :    0.045333
  14 H :    0.039376
  15 H :    0.045631
  16 S :    0.132586
  17 C :   -0.061068
  18 C :   -0.058734
  19 C :   -0.041025
  20 C :   -0.173170
  21 H :    0.001827
  22 C :    0.153687
  23 H :    0.034435
  24 H :    0.026526
  25 C :   -0.106596
  26 H :    0.028317
  27 H :    0.043930
  28 C :   -0.063180
  29 H :    0.016266
  30 H :    0.013824
  31 H :    0.048066
  32 H :    0.056815
  33 H :    0.041990
Sum of atomic charges:    0.0000000

LOEWDIN ATOMIC CHARGES
----------------------
   0 S :    0.433092
   1 C :   -0.211850
   2 C :   -0.062834
   3 C :   -0.053835
   4 C :   -0.202644
   5 H :    0.015750
   6 C :   -0.038197
   7 H :    0.036846
   8 H :    0.031951
   9 C :   -0.049137
  10 H :    0.030139
  11 H :    0.022432
  12 C :   -0.062315
  13 H :    0.024296
  14 H :    0.026050
  15 H :    0.036847
  16 S :    0.427259
  17 C :   -0.205552
  18 C :   -0.074564
  19 C :   -0.043324
  20 C :   -0.202284
  21 H :    0.017853
  22 C :   -0.015895
  23 H :    0.027693
  24 H :    0.026922
  25 C :   -0.047437
  26 H :    0.024472
  27 H :    0.033567
  28 C :   -0.077353
  29 H :    0.024414
  30 H :    0.015894
  31 H :    0.034661
  32 H :    0.027863
  33 H :    0.029220

  Mayer bond orders larger than 0.100000
B(  0-S ,  1-C ) :   1.1537 B(  0-S ,  4-C ) :   1.1828 B(  1-C ,  2-C ) :   1.6017
B(  1-C , 32-H ) :   0.9565 B(  2-C ,  3-C ) :   1.2325 B(  2-C ,  6-C ) :   1.0279
B(  3-C ,  4-C ) :   1.5765 B(  3-C ,  5-H ) :   1.0120 B(  4-C , 20-C ) :   1.0181
B(  6-C ,  7-H ) :   0.9350 B(  6-C ,  8-H ) :   0.9400 B(  6-C ,  9-C ) :   1.0455
B(  9-C , 10-H ) :   0.9553 B(  9-C , 11-H ) :   0.9635 B(  9-C , 12-C ) :   1.0619
B( 12-C , 13-H ) :   0.9781 B( 12-C , 14-H ) :   0.9786 B( 12-C , 15-H ) :   0.9771
B( 16-S , 17-C ) :   1.1657 B( 16-S , 20-C ) :   1.1463 B( 17-C , 18-C ) :   1.6190
B( 17-C , 33-H ) :   0.9658 B( 18-C , 19-C ) :   1.2365 B( 18-C , 21-H ) :   0.9873
B( 19-C , 20-C ) :   1.5908 B( 19-C , 22-C ) :   1.0249 B( 22-C , 23-H ) :   0.9360
B( 22-C , 24-H ) :   0.9310 B( 22-C , 25-C ) :   1.0751 B( 25-C , 26-H ) :   0.9522
B( 25-C , 27-H ) :   0.9596 B( 25-C , 28-C ) :   1.0784 B( 28-C , 29-H ) :   0.9721
B( 28-C , 30-H ) :   0.9746 B( 28-C , 31-H ) :   0.9709

Dispersion correction           -0.014072386
FINAL SINGLE POINT ENERGY     -1339.861216086806

DIPOLE MOMENT
-------------
                                X             Y             Z
Electronic contribution:      9.34342      17.23196      16.89877
Nuclear contribution   :     -9.39428     -17.72855     -17.49532
                        -----------------------------------------
Total Dipole Moment    :     -0.05086      -0.49660      -0.59655
                        -----------------------------------------
Magnitude (a.u.)       :      0.77786
Magnitude (Debye)      :      1.97716

Rotational constants in cm-1:     0.019406     0.007802     0.006490
Rotational constants in MHz :   581.772599   233.908558   194.562473

                             ****ORCA TERMINATED NORMALLY****
TOTAL RUN TIME: 0 days 0 hours 0 minutes 34 seconds 371 msec
