                         Program Version 4.2.1 -  RELEASE  -
|  1> ! wB97X-D3 SP def2-SVP
|  2> %pal
|  3> nprocs 16
|  4> end
|  5>
|  6> * xyz 0 1
|  7> S 	 33.9722 	 13.0979 	 70.0478
|  8> C 	 32.9121 	 14.0358 	 69.0793
|  9> C 	 32.0113 	 13.2002 	 68.4205
| 10> C 	 32.2088 	 11.8161 	 68.7626
| 11> C 	 33.2066 	 11.6139 	 69.7154
| 12> H 	 31.525 	 11.0279 	 68.5551
| 13> C 	 30.8168 	 13.6979 	 67.678
| 14> H 	 31.2318 	 14.0848 	 66.7344
| 15> H 	 30.5482 	 14.5776 	 68.0931
| 16> C 	 29.6299 	 12.7819 	 67.4952
| 17> H 	 29.6962 	 12.1578 	 66.6035
| 18> H 	 29.4847 	 12.1141 	 68.332
| 19> C 	 28.3467 	 13.6554 	 67.2999
| 20> H 	 27.4166 	 13.0934 	 67.3362
| 21> H 	 28.2039 	 14.4577 	 67.9865
| 22> H 	 28.3808 	 14.1154 	 66.2482
| 23> S 	 35.164 	 9.83784 	 70.4095
| 24> C 	 34.7891 	 8.3201 	 71.1148
| 25> C 	 33.4283 	 8.23191 	 71.2021
| 26> C 	 32.7078 	 9.34447 	 70.7596
| 27> C 	 33.5097 	 10.3627 	 70.4029
| 28> H 	 32.984 	 7.3367 	 71.6626
| 29> C 	 31.1744 	 9.35953 	 70.8394
| 30> H 	 30.8875 	 10.3399 	 70.705
| 31> H 	 30.8826 	 9.01951 	 71.8895
| 32> C 	 30.422 	 8.45879 	 69.8527
| 33> H 	 30.4284 	 7.37558 	 70.1481
| 34> H 	 31.0095 	 8.5221 	 68.9503
| 35> C 	 28.9811 	 8.94222 	 69.4833
| 36> H 	 28.4232 	 8.94327 	 70.4163
| 37> H 	 28.5706 	 8.21854 	 68.8209
| 38> H 	 29.0854 	 9.94784 	 69.0341
| 39> H 	 32.8082 	 15.0979 	 69.036
| 40> H 	 35.5556 	 7.61661 	 71.3652
| 41> *
| 42>
| 43>                          ****END OF INPUT****

CARTESIAN COORDINATES (ANGSTROEM)
---------------------------------
  S     33.972200   13.097900   70.047800
  C     32.912100   14.035800   69.079300
  C     32.011300   13.200200   68.420500
  C     32.208800   11.816100   68.762600
  C     33.206600   11.613900   69.715400
  H     31.525000   11.027900   68.555100
  C     30.816800   13.697900   67.678000
  H     31.231800   14.084800   66.734400
  H     30.548200   14.577600   68.093100
  C     29.629900   12.781900   67.495200
  H     29.696200   12.157800   66.603500
  H     29.484700   12.114100   68.332000
  C     28.346700   13.655400   67.299900
  H     27.416600   13.093400   67.336200
  H     28.203900   14.457700   67.986500
  H     28.380800   14.115400   66.248200
  S     35.164000    9.837840   70.409500
  C     34.789100    8.320100   71.114800
  C     33.428300    8.231910   71.202100
  C     32.707800    9.344470   70.759600
  C     33.509700   10.362700   70.402900
  H     32.984000    7.336700   71.662600
  C     31.174400    9.359530   70.839400
  H     30.887500   10.339900   70.705000
  H     30.882600    9.019510   71.889500
  C     30.422000    8.458790   69.852700
  H     30.428400    7.375580   70.148100
  H     31.009500    8.522100   68.950300
  C     28.981100    8.942220   69.483300
  H     28.423200    8.943270   70.416300
  H     28.570600    8.218540   68.820900
  H     29.085400    9.947840   69.034100
  H     32.808200   15.097900   69.036000
  H     35.555600    7.616610   71.365200

 Total Charge           Charge          ....    0
 Multiplicity           Mult            ....    1
 Number of Electrons    NEL             ....  134
 Basis Dimension        Dim             ....  322

ORBITAL ENERGIES
----------------

  NO   OCC          E(Eh)            E(eV)
   0   2.0000     -88.966328     -2420.8969
   1   2.0000     -88.959791     -2420.7190
   2   2.0000     -10.326591      -281.0008
   3   2.0000     -10.321801      -280.8705
   4   2.0000     -10.313124      -280.6344
   5   2.0000     -10.308735      -280.5149
   6   2.0000     -10.300369      -280.2873
   7   2.0000     -10.296170      -280.1730
   8   2.0000     -10.292685      -280.0782
   9   2.0000     -10.290958      -280.0312
  10   2.0000     -10.290667      -280.0233
  11   2.0000     -10.289238      -279.9844
  12   2.0000     -10.288427      -279.9623
  13   2.0000     -10.284599      -279.8582
  14   2.0000     -10.283185      -279.8197
  15   2.0000     -10.282893      -279.8118
  16   2.0000      -8.082108      -219.9253
  17   2.0000      -8.075995      -219.7590
  18   2.0000      -6.040502      -164.3704
  19   2.0000      -6.036217      -164.2538
  20   2.0000      -6.034421      -164.2049
  21   2.0000      -6.033186      -164.1713
  22   2.0000      -6.030217      -164.0905
  23   2.0000      -6.026829      -163.9984
  24   2.0000      -1.018076       -27.7033
  25   2.0000      -0.995093       -27.0778
  26   2.0000      -0.919928       -25.0325
  27   2.0000      -0.909621       -24.7520
  28   2.0000      -0.874032       -23.7836
  29   2.0000      -0.854660       -23.2565
  30   2.0000      -0.845870       -23.0173
  31   2.0000      -0.817750       -22.2521
  32   2.0000      -0.784665       -21.3518
  33   2.0000      -0.776439       -21.1280
  34   2.0000      -0.720639       -19.6096
  35   2.0000      -0.697724       -18.9860
  36   2.0000      -0.695531       -18.9264
  37   2.0000      -0.663374       -18.0513
  38   2.0000      -0.643362       -17.5068
  39   2.0000      -0.623911       -16.9775
  40   2.0000      -0.603115       -16.4116
  41   2.0000      -0.573880       -15.6161
  42   2.0000      -0.568949       -15.4819
  43   2.0000      -0.568344       -15.4654
  44   2.0000      -0.532786       -14.4978
  45   2.0000      -0.528199       -14.3730
  46   2.0000      -0.519949       -14.1485
  47   2.0000      -0.514737       -14.0067
  48   2.0000      -0.511504       -13.9187
  49   2.0000      -0.502284       -13.6679
  50   2.0000      -0.491866       -13.3844
  51   2.0000      -0.481932       -13.1140
  52   2.0000      -0.475620       -12.9423
  53   2.0000      -0.472584       -12.8597
  54   2.0000      -0.462953       -12.5976
  55   2.0000      -0.449778       -12.2391
  56   2.0000      -0.446194       -12.1416
  57   2.0000      -0.440156       -11.9773
  58   2.0000      -0.435668       -11.8551
  59   2.0000      -0.428819       -11.6688
  60   2.0000      -0.424638       -11.5550
  61   2.0000      -0.415432       -11.3045
  62   2.0000      -0.411161       -11.1883
  63   2.0000      -0.351260        -9.5583
  64   2.0000      -0.330920        -9.0048
  65   2.0000      -0.327536        -8.9127
  66   2.0000      -0.292859        -7.9691
  67   0.0000       0.033170         0.9026
  68   0.0000       0.076651         2.0858
  69   0.0000       0.121297         3.3006
  70   0.0000       0.124831         3.3968
  71   0.0000       0.126362         3.4385

MULLIKEN ATOMIC CHARGES
-----------------------
   0 S :    0.131362
   1 C :   -0.108940
   2 C :   -0.128290
   3 C :    0.039020
   4 C :   -0.157858
   5 H :   -0.019143
   6 C :    0.141597
   7 H :    0.030175
   8 H :   -0.021342
   9 C :   -0.076443
  10 H :    0.040396
  11 H :    0.042783
  12 C :   -0.079556
  13 H :    0.031488
  14 H :    0.031415
  15 H :    0.038339
  16 S :    0.093777
  17 C :   -0.086518
  18 C :   -0.039035
  19 C :   -0.053309
  20 C :   -0.119466
  21 H :    0.020076
  22 C :    0.098699
  23 H :   -0.005527
  24 H :    0.038334
  25 C :   -0.120843
  26 H :    0.037298
  27 H :    0.028203
  28 C :   -0.030639
  29 H :    0.036758
  30 H :    0.037650
  31 H :    0.035195
  32 H :    0.037483
  33 H :    0.056860
Sum of atomic charges:   -0.0000000

LOEWDIN ATOMIC CHARGES
----------------------
   0 S :    0.448577
   1 C :   -0.216659
   2 C :   -0.054443
   3 C :   -0.069546
   4 C :   -0.209339
   5 H :    0.020653
   6 C :   -0.031663
   7 H :    0.043514
   8 H :    0.016172
   9 C :   -0.036608
  10 H :    0.030463
  11 H :    0.019295
  12 C :   -0.065620
  13 H :    0.024322
  14 H :    0.017584
  15 H :    0.033624
  16 S :    0.421380
  17 C :   -0.186845
  18 C :   -0.075121
  19 C :   -0.063779
  20 C :   -0.200100
  21 H :    0.033175
  22 C :   -0.024420
  23 H :    0.013436
  24 H :    0.038754
  25 C :   -0.046498
  26 H :    0.026564
  27 H :    0.017786
  28 C :   -0.056610
  29 H :    0.025907
  30 H :    0.024891
  31 H :    0.026104
  32 H :    0.026421
  33 H :    0.028630

  Mayer bond orders larger than 0.100000
B(  0-S ,  1-C ) :   1.1495 B(  0-S ,  4-C ) :   1.1918 B(  1-C ,  2-C ) :   1.5836
B(  1-C ,  4-C ) :   0.1004 B(  1-C , 32-H ) :   0.9740 B(  2-C ,  3-C ) :   1.2776
B(  2-C ,  6-C ) :   1.0125 B(  3-C ,  4-C ) :   1.5281 B(  3-C ,  5-H ) :   0.9938
B(  4-C , 20-C ) :   0.9999 B(  6-C ,  7-H ) :   0.9079 B(  6-C ,  8-H ) :   0.9366
B(  6-C ,  9-C ) :   1.0689 B(  9-C , 10-H ) :   0.9490 B(  9-C , 11-H ) :   0.9530
B(  9-C , 12-C ) :   1.0818 B( 12-C , 13-H ) :   0.9755 B( 12-C , 14-H ) :   0.9795
B( 12-C , 15-H ) :   0.9767 B( 16-S , 17-C ) :   1.1678 B( 16-S , 20-C ) :   1.1529
B( 17-C , 18-C ) :   1.5733 B( 17-C , 20-C ) :   0.1001 B( 17-C , 33-H ) :   0.9776
B( 18-C , 19-C ) :   1.2512 B( 18-C , 21-H ) :   0.9936 B( 19-C , 20-C ) :   1.6160
B( 19-C , 22-C ) :   1.0423 B( 22-C , 23-H ) :   0.9325 B( 22-C , 24-H ) :   0.9341
B( 22-C , 25-C ) :   1.0503 B( 25-C , 26-H ) :   0.9520 B( 25-C , 27-H ) :   0.9581
B( 25-C , 28-C ) :   1.0870 B( 28-C , 29-H ) :   0.9747 B( 28-C , 30-H ) :   0.9718
B( 28-C , 31-H ) :   0.9741

Dispersion correction           -0.014876865
FINAL SINGLE POINT ENERGY     -1339.875126666034

DIPOLE MOMENT
-------------
                                X             Y             Z
Electronic contribution:     32.47796       1.71469      10.23939
Nuclear contribution   :    -33.23922      -1.85806     -10.36634
                        -----------------------------------------
Total Dipole Moment    :     -0.76126      -0.14337      -0.12695
                        -----------------------------------------
Magnitude (a.u.)       :      0.78498
Magnitude (Debye)      :      1.99525

Rotational constants in cm-1:     0.017926     0.010057     0.006736
Rotational constants in MHz :   537.408587   301.514451   201.954627

                             ****ORCA TERMINATED NORMALLY****
TOTAL RUN TIME: 0 days 0 hours 0 minutes 30 seconds 523 msec
