                         Program Version 4.2.1 -  RELEASE  -
|  1> ! wB97X-D3 SP def2-SVP
|  2> %pal
|  3> nprocs 16
|  4> end
|  5>
|  6> * xyz 0 1
|  7> S 	 -34.1474 	 67.7586 	 142.277
|  8> C 	 -34.4242 	 67.9997 	 140.628
|  9> C 	 -33.9414 	 66.9209 	 139.909
| 10> C 	 -33.3505 	 65.9171 	 140.721
| 11> C 	 -33.5426 	 66.1572 	 142.058
| 12> H 	 -32.721 	 65.0548 	 140.422
| 13> C 	 -33.9407 	 66.837 	 138.441
| 14> H 	 -33.5067 	 65.8645 	 138.177
| 15> H 	 -33.3425 	 67.6695 	 138.024
| 16> C 	 -35.3048 	 66.8271 	 137.698
| 17> H 	 -35.7662 	 67.7474 	 137.829
| 18> H 	 -35.0112 	 66.686 	 136.635
| 19> C 	 -36.3018 	 65.769 	 137.951
| 20> H 	 -37.2693 	 65.709 	 137.554
| 21> H 	 -35.8638 	 64.8046 	 138.01
| 22> H 	 -36.6356 	 65.9392 	 139
| 23> S 	 -32.3878 	 66.376 	 144.599
| 24> C 	 -32.1357 	 64.8977 	 145.501
| 25> C 	 -32.5683 	 63.758 	 144.846
| 26> C 	 -33.1236 	 64.0284 	 143.588
| 27> C 	 -33.0732 	 65.4053 	 143.258
| 28> H 	 -32.4059 	 62.7518 	 145.232
| 29> C 	 -33.8178 	 62.9665 	 142.777
| 30> H 	 -33.1293 	 62.1255 	 142.737
| 31> H 	 -33.8756 	 63.3547 	 141.796
| 32> C 	 -35.264 	 62.6042 	 143.092
| 33> H 	 -35.3783 	 61.6912 	 142.488
| 34> H 	 -35.842 	 63.4926 	 142.753
| 35> C 	 -35.5366 	 62.3015 	 144.575
| 36> H 	 -35.0185 	 61.4738 	 145.098
| 37> H 	 -36.6103 	 62.1701 	 144.567
| 38> H 	 -35.3033 	 63.127 	 145.236
| 39> H 	 -34.7369 	 68.9507 	 140.201
| 40> H 	 -31.6165 	 64.823 	 146.381
| 41> *
| 42>
| 43>                          ****END OF INPUT****

CARTESIAN COORDINATES (ANGSTROEM)
---------------------------------
  S    -34.147400   67.758600  142.277000
  C    -34.424200   67.999700  140.628000
  C    -33.941400   66.920900  139.909000
  C    -33.350500   65.917100  140.721000
  C    -33.542600   66.157200  142.058000
  H    -32.721000   65.054800  140.422000
  C    -33.940700   66.837000  138.441000
  H    -33.506700   65.864500  138.177000
  H    -33.342500   67.669500  138.024000
  C    -35.304800   66.827100  137.698000
  H    -35.766200   67.747400  137.829000
  H    -35.011200   66.686000  136.635000
  C    -36.301800   65.769000  137.951000
  H    -37.269300   65.709000  137.554000
  H    -35.863800   64.804600  138.010000
  H    -36.635600   65.939200  139.000000
  S    -32.387800   66.376000  144.599000
  C    -32.135700   64.897700  145.501000
  C    -32.568300   63.758000  144.846000
  C    -33.123600   64.028400  143.588000
  C    -33.073200   65.405300  143.258000
  H    -32.405900   62.751800  145.232000
  C    -33.817800   62.966500  142.777000
  H    -33.129300   62.125500  142.737000
  H    -33.875600   63.354700  141.796000
  C    -35.264000   62.604200  143.092000
  H    -35.378300   61.691200  142.488000
  H    -35.842000   63.492600  142.753000
  C    -35.536600   62.301500  144.575000
  H    -35.018500   61.473800  145.098000
  H    -36.610300   62.170100  144.567000
  H    -35.303300   63.127000  145.236000
  H    -34.736900   68.950700  140.201000
  H    -31.616500   64.823000  146.381000

 Total Charge           Charge          ....    0
 Multiplicity           Mult            ....    1
 Number of Electrons    NEL             ....  134
 Basis Dimension        Dim             ....  322

ORBITAL ENERGIES
----------------

  NO   OCC          E(Eh)            E(eV)
   0   2.0000     -88.970277     -2421.0043
   1   2.0000     -88.963704     -2420.8255
   2   2.0000     -10.333609      -281.1918
   3   2.0000     -10.328304      -281.0474
   4   2.0000     -10.312447      -280.6159
   5   2.0000     -10.309122      -280.5255
   6   2.0000     -10.301470      -280.3172
   7   2.0000     -10.296313      -280.1769
   8   2.0000     -10.294274      -280.1214
   9   2.0000     -10.292096      -280.0622
  10   2.0000     -10.290956      -280.0311
  11   2.0000     -10.290389      -280.0157
  12   2.0000     -10.280811      -279.7551
  13   2.0000     -10.280391      -279.7437
  14   2.0000     -10.273417      -279.5539
  15   2.0000     -10.264917      -279.3226
  16   2.0000      -8.084115      -219.9800
  17   2.0000      -8.080164      -219.8724
  18   2.0000      -6.042591      -164.4273
  19   2.0000      -6.038829      -164.3249
  20   2.0000      -6.038479      -164.3154
  21   2.0000      -6.034897      -164.2179
  22   2.0000      -6.034379      -164.2038
  23   2.0000      -6.031075      -164.1139
  24   2.0000      -1.012762       -27.5587
  25   2.0000      -0.986399       -26.8413
  26   2.0000      -0.917091       -24.9553
  27   2.0000      -0.910835       -24.7851
  28   2.0000      -0.868843       -23.6424
  29   2.0000      -0.856312       -23.3014
  30   2.0000      -0.847664       -23.0661
  31   2.0000      -0.818035       -22.2599
  32   2.0000      -0.788567       -21.4580
  33   2.0000      -0.774607       -21.0781
  34   2.0000      -0.706504       -19.2249
  35   2.0000      -0.706292       -19.2192
  36   2.0000      -0.688346       -18.7308
  37   2.0000      -0.663477       -18.0541
  38   2.0000      -0.643253       -17.5038
  39   2.0000      -0.611474       -16.6390
  40   2.0000      -0.590579       -16.0705
  41   2.0000      -0.580648       -15.8002
  42   2.0000      -0.563704       -15.3392
  43   2.0000      -0.557515       -15.1707
  44   2.0000      -0.543779       -14.7970
  45   2.0000      -0.535740       -14.5782
  46   2.0000      -0.516923       -14.0662
  47   2.0000      -0.515048       -14.0152
  48   2.0000      -0.504841       -13.7374
  49   2.0000      -0.498012       -13.5516
  50   2.0000      -0.488407       -13.2902
  51   2.0000      -0.481092       -13.0912
  52   2.0000      -0.475515       -12.9394
  53   2.0000      -0.470462       -12.8019
  54   2.0000      -0.461881       -12.5684
  55   2.0000      -0.454231       -12.3603
  56   2.0000      -0.447264       -12.1707
  57   2.0000      -0.434827       -11.8322
  58   2.0000      -0.432683       -11.7739
  59   2.0000      -0.419618       -11.4184
  60   2.0000      -0.416149       -11.3240
  61   2.0000      -0.412289       -11.2190
  62   2.0000      -0.396809       -10.7977
  63   2.0000      -0.352919        -9.6034
  64   2.0000      -0.336045        -9.1443
  65   2.0000      -0.327745        -8.9184
  66   2.0000      -0.284643        -7.7455
  67   0.0000       0.024648         0.6707
  68   0.0000       0.071432         1.9438
  69   0.0000       0.103118         2.8060
  70   0.0000       0.121138         3.2963
  71   0.0000       0.129548         3.5252

MULLIKEN ATOMIC CHARGES
-----------------------
   0 S :    0.104096
   1 C :   -0.114439
   2 C :   -0.095161
   3 C :    0.008771
   4 C :   -0.149164
   5 H :    0.039770
   6 C :    0.058240
   7 H :    0.013024
   8 H :    0.047262
   9 C :   -0.054543
  10 H :    0.010517
  11 H :    0.029478
  12 C :   -0.019862
  13 H :    0.027407
  14 H :    0.011196
  15 H :    0.011898
  16 S :    0.106497
  17 C :   -0.050807
  18 C :   -0.040710
  19 C :   -0.071101
  20 C :   -0.152971
  21 H :    0.020608
  22 C :    0.097333
  23 H :    0.021268
  24 H :   -0.009605
  25 C :   -0.055175
  26 H :    0.040545
  27 H :    0.048190
  28 C :   -0.065887
  29 H :    0.031348
  30 H :    0.034414
  31 H :    0.041705
  32 H :    0.053396
  33 H :    0.022463
Sum of atomic charges:    0.0000000

LOEWDIN ATOMIC CHARGES
----------------------
   0 S :    0.439231
   1 C :   -0.219902
   2 C :   -0.072731
   3 C :   -0.075234
   4 C :   -0.199326
   5 H :    0.041364
   6 C :   -0.030824
   7 H :    0.028848
   8 H :    0.040660
   9 C :   -0.035561
  10 H :    0.011490
  11 H :    0.027612
  12 C :   -0.072719
  13 H :    0.024718
  14 H :    0.019011
  15 H :    0.031754
  16 S :    0.391881
  17 C :   -0.169978
  18 C :   -0.068277
  19 C :   -0.056642
  20 C :   -0.186652
  21 H :    0.034232
  22 C :   -0.038107
  23 H :    0.027604
  24 H :    0.023094
  25 C :   -0.031800
  26 H :    0.032459
  27 H :    0.037171
  28 C :   -0.076642
  29 H :    0.026684
  30 H :    0.027925
  31 H :    0.026351
  32 H :    0.031449
  33 H :    0.010855

  Mayer bond orders larger than 0.100000
B(  0-S ,  1-C ) :   1.1552 B(  0-S ,  4-C ) :   1.1815 B(  1-C ,  2-C ) :   1.5585
B(  1-C , 32-H ) :   0.9750 B(  2-C ,  3-C ) :   1.2710 B(  2-C ,  6-C ) :   1.0338
B(  3-C ,  4-C ) :   1.5524 B(  3-C ,  5-H ) :   0.9824 B(  4-C , 20-C ) :   1.0286
B(  6-C ,  7-H ) :   0.9400 B(  6-C ,  8-H ) :   0.9343 B(  6-C ,  9-C ) :   1.0766
B(  9-C , 10-H ) :   0.9571 B(  9-C , 11-H ) :   0.9553 B(  9-C , 12-C ) :   1.0815
B( 12-C , 13-H ) :   0.9728 B( 12-C , 14-H ) :   0.9715 B( 12-C , 15-H ) :   0.9608
B( 16-S , 17-C ) :   1.1554 B( 16-S , 20-C ) :   1.1379 B( 17-C , 18-C ) :   1.5967
B( 17-C , 20-C ) :   0.1048 B( 17-C , 33-H ) :   0.9742 B( 18-C , 19-C ) :   1.2623
B( 18-C , 21-H ) :   0.9857 B( 19-C , 20-C ) :   1.5787 B( 19-C , 22-C ) :   1.0437
B( 22-C , 23-H ) :   0.9279 B( 22-C , 24-H ) :   0.9201 B( 22-C , 25-C ) :   1.0732
B( 25-C , 26-H ) :   0.9521 B( 25-C , 27-H ) :   0.9518 B( 25-C , 28-C ) :   1.0882
B( 28-C , 29-H ) :   0.9748 B( 28-C , 30-H ) :   0.9742 B( 28-C , 31-H ) :   0.9668

Dispersion correction           -0.014590187
FINAL SINGLE POINT ENERGY     -1339.861776437585

DIPOLE MOMENT
-------------
                                X             Y             Z
Electronic contribution:     13.39876      16.28225      15.66557
Nuclear contribution   :    -13.40979     -16.67096     -15.95718
                        -----------------------------------------
Total Dipole Moment    :     -0.01103      -0.38872      -0.29160
                        -----------------------------------------
Magnitude (a.u.)       :      0.48606
Magnitude (Debye)      :      1.23547

Rotational constants in cm-1:     0.020774     0.008670     0.006774
Rotational constants in MHz :   622.774620   259.924226   203.083524

                             ****ORCA TERMINATED NORMALLY****
TOTAL RUN TIME: 0 days 0 hours 0 minutes 35 seconds 134 msec
