                         Program Version 4.2.1 -  RELEASE  -
|  1> ! wB97X-D3 SP def2-SVP
|  2> %pal
|  3> nprocs 16
|  4> end
|  5>
|  6> * xyz 0 1
|  7> S 	 10.1575 	 -11.24 	 99.7904
|  8> C 	 9.58587 	 -12.1785 	 101.17
|  9> C 	 8.31108 	 -12.7185 	 100.976
| 10> C 	 7.87774 	 -12.3907 	 99.6281
| 11> C 	 8.75406 	 -11.6047 	 98.8592
| 12> H 	 6.90228 	 -12.5262 	 99.2253
| 13> C 	 7.47742 	 -13.408 	 102.021
| 14> H 	 6.80908 	 -12.6571 	 102.304
| 15> H 	 8.04132 	 -13.4985 	 102.876
| 16> C 	 6.78944 	 -14.6871 	 101.582
| 17> H 	 6.23016 	 -15.2005 	 102.34
| 18> H 	 6.16508 	 -14.481 	 100.679
| 19> C 	 7.76892 	 -15.8808 	 101.189
| 20> H 	 8.1735 	 -15.7584 	 100.171
| 21> H 	 8.64238 	 -16.0397 	 101.804
| 22> H 	 7.2438 	 -16.8277 	 101.278
| 23> S 	 8.31805 	 -9.05348 	 97.7661
| 24> C 	 7.92977 	 -8.90821 	 96.112
| 25> C 	 7.6215 	 -10.1339 	 95.5761
| 26> C 	 7.78715 	 -11.2578 	 96.4958
| 27> C 	 8.36918 	 -10.8512 	 97.6757
| 28> H 	 7.18 	 -10.1522 	 94.6068
| 29> C 	 7.58974 	 -12.6936 	 96.068
| 30> H 	 7.10095 	 -12.6331 	 95.1176
| 31> H 	 6.96628 	 -13.0598 	 96.9518
| 32> C 	 8.8722 	 -13.5444 	 95.912
| 33> H 	 9.75794 	 -13.1875 	 96.4842
| 34> H 	 9.3307 	 -13.425 	 94.888
| 35> C 	 8.70975 	 -15.0391 	 96.1517
| 36> H 	 8.42904 	 -15.2008 	 97.2262
| 37> H 	 9.65426 	 -15.5855 	 95.9796
| 38> H 	 7.87493 	 -15.4686 	 95.6208
| 39> H 	 10.1943 	 -12.4284 	 102.054
| 40> H 	 7.78371 	 -8.05397 	 95.5142
| 41> *
| 42>
| 43>                          ****END OF INPUT****

CARTESIAN COORDINATES (ANGSTROEM)
---------------------------------
  S     10.157500  -11.240000   99.790400
  C      9.585870  -12.178500  101.170000
  C      8.311080  -12.718500  100.976000
  C      7.877740  -12.390700   99.628100
  C      8.754060  -11.604700   98.859200
  H      6.902280  -12.526200   99.225300
  C      7.477420  -13.408000  102.021000
  H      6.809080  -12.657100  102.304000
  H      8.041320  -13.498500  102.876000
  C      6.789440  -14.687100  101.582000
  H      6.230160  -15.200500  102.340000
  H      6.165080  -14.481000  100.679000
  C      7.768920  -15.880800  101.189000
  H      8.173500  -15.758400  100.171000
  H      8.642380  -16.039700  101.804000
  H      7.243800  -16.827700  101.278000
  S      8.318050   -9.053480   97.766100
  C      7.929770   -8.908210   96.112000
  C      7.621500  -10.133900   95.576100
  C      7.787150  -11.257800   96.495800
  C      8.369180  -10.851200   97.675700
  H      7.180000  -10.152200   94.606800
  C      7.589740  -12.693600   96.068000
  H      7.100950  -12.633100   95.117600
  H      6.966280  -13.059800   96.951800
  C      8.872200  -13.544400   95.912000
  H      9.757940  -13.187500   96.484200
  H      9.330700  -13.425000   94.888000
  C      8.709750  -15.039100   96.151700
  H      8.429040  -15.200800   97.226200
  H      9.654260  -15.585500   95.979600
  H      7.874930  -15.468600   95.620800
  H     10.194300  -12.428400  102.054000
  H      7.783710   -8.053970   95.514200

 Total Charge           Charge          ....    0
 Multiplicity           Mult            ....    1
 Number of Electrons    NEL             ....  134
 Basis Dimension        Dim             ....  322

ORBITAL ENERGIES
----------------

  NO   OCC          E(Eh)            E(eV)
   0   2.0000     -88.969244     -2420.9762
   1   2.0000     -88.962426     -2420.7907
   2   2.0000     -10.330218      -281.0995
   3   2.0000     -10.326607      -281.0013
   4   2.0000     -10.319256      -280.8012
   5   2.0000     -10.309025      -280.5228
   6   2.0000     -10.308811      -280.5170
   7   2.0000     -10.302729      -280.3515
   8   2.0000     -10.297558      -280.2108
   9   2.0000     -10.296960      -280.1945
  10   2.0000     -10.295392      -280.1519
  11   2.0000     -10.288977      -279.9773
  12   2.0000     -10.288005      -279.9508
  13   2.0000     -10.286409      -279.9074
  14   2.0000     -10.278004      -279.6787
  15   2.0000     -10.277180      -279.6563
  16   2.0000      -8.083844      -219.9726
  17   2.0000      -8.077188      -219.7915
  18   2.0000      -6.042340      -164.4204
  19   2.0000      -6.038251      -164.3092
  20   2.0000      -6.035779      -164.2419
  21   2.0000      -6.034734      -164.2135
  22   2.0000      -6.031797      -164.1335
  23   2.0000      -6.027737      -164.0231
  24   2.0000      -1.005213       -27.3532
  25   2.0000      -0.982623       -26.7385
  26   2.0000      -0.916668       -24.9438
  27   2.0000      -0.905694       -24.6452
  28   2.0000      -0.867723       -23.6119
  29   2.0000      -0.849371       -23.1126
  30   2.0000      -0.841540       -22.8995
  31   2.0000      -0.814097       -22.1527
  32   2.0000      -0.788832       -21.4652
  33   2.0000      -0.773285       -21.0422
  34   2.0000      -0.713403       -19.4127
  35   2.0000      -0.699051       -19.0221
  36   2.0000      -0.688892       -18.7457
  37   2.0000      -0.659724       -17.9520
  38   2.0000      -0.643115       -17.5000
  39   2.0000      -0.621688       -16.9170
  40   2.0000      -0.587803       -15.9949
  41   2.0000      -0.571549       -15.5526
  42   2.0000      -0.559901       -15.2357
  43   2.0000      -0.550868       -14.9899
  44   2.0000      -0.549013       -14.9394
  45   2.0000      -0.525591       -14.3020
  46   2.0000      -0.519136       -14.1264
  47   2.0000      -0.507156       -13.8004
  48   2.0000      -0.502995       -13.6872
  49   2.0000      -0.498640       -13.5687
  50   2.0000      -0.488356       -13.2888
  51   2.0000      -0.485612       -13.2142
  52   2.0000      -0.471834       -12.8393
  53   2.0000      -0.464053       -12.6275
  54   2.0000      -0.461872       -12.5682
  55   2.0000      -0.447126       -12.1669
  56   2.0000      -0.441676       -12.0186
  57   2.0000      -0.436543       -11.8789
  58   2.0000      -0.431997       -11.7552
  59   2.0000      -0.431024       -11.7288
  60   2.0000      -0.417058       -11.3487
  61   2.0000      -0.414664       -11.2836
  62   2.0000      -0.403765       -10.9870
  63   2.0000      -0.345746        -9.4082
  64   2.0000      -0.331242        -9.0136
  65   2.0000      -0.323651        -8.8070
  66   2.0000      -0.292968        -7.9721
  67   0.0000       0.028010         0.7622
  68   0.0000       0.068147         1.8544
  69   0.0000       0.113075         3.0769
  70   0.0000       0.119561         3.2534
  71   0.0000       0.124432         3.3860

MULLIKEN ATOMIC CHARGES
-----------------------
   0 S :    0.119677
   1 C :   -0.141338
   2 C :   -0.121235
   3 C :    0.025480
   4 C :   -0.170823
   5 H :    0.009715
   6 C :    0.181277
   7 H :    0.028643
   8 H :   -0.016836
   9 C :   -0.084006
  10 H :    0.034686
  11 H :    0.044246
  12 C :   -0.085549
  13 H :    0.045940
  14 H :    0.024384
  15 H :    0.030959
  16 S :    0.106746
  17 C :   -0.054621
  18 C :   -0.047870
  19 C :   -0.060844
  20 C :   -0.152081
  21 H :    0.006679
  22 C :    0.098737
  23 H :    0.022494
  24 H :    0.038555
  25 C :   -0.087278
  26 H :    0.038918
  27 H :    0.025664
  28 C :   -0.060963
  29 H :    0.032006
  30 H :    0.043197
  31 H :    0.028346
  32 H :    0.059676
  33 H :    0.037421
Sum of atomic charges:    0.0000000

LOEWDIN ATOMIC CHARGES
----------------------
   0 S :    0.420248
   1 C :   -0.202164
   2 C :   -0.052764
   3 C :   -0.058022
   4 C :   -0.210676
   5 H :    0.020908
   6 C :   -0.024274
   7 H :    0.035735
   8 H :    0.020869
   9 C :   -0.035734
  10 H :    0.025539
  11 H :    0.031133
  12 C :   -0.071088
  13 H :    0.026343
  14 H :    0.021536
  15 H :    0.025018
  16 S :    0.399230
  17 C :   -0.192066
  18 C :   -0.075754
  19 C :   -0.056195
  20 C :   -0.187596
  21 H :    0.024596
  22 C :   -0.031933
  23 H :    0.030839
  24 H :    0.042208
  25 C :   -0.051303
  26 H :    0.029659
  27 H :    0.027906
  28 C :   -0.069578
  29 H :    0.026798
  30 H :    0.031534
  31 H :    0.020199
  32 H :    0.032976
  33 H :    0.025872

  Mayer bond orders larger than 0.100000
B(  0-S ,  1-C ) :   1.1485 B(  0-S ,  4-C ) :   1.1580 B(  1-C ,  2-C ) :   1.5985
B(  1-C , 32-H ) :   0.9595 B(  2-C ,  3-C ) :   1.2509 B(  2-C ,  6-C ) :   1.0161
B(  3-C ,  4-C ) :   1.5583 B(  3-C ,  5-H ) :   0.9842 B(  4-C , 20-C ) :   1.0477
B(  6-C ,  7-H ) :   0.9257 B(  6-C ,  8-H ) :   0.9254 B(  6-C ,  9-C ) :   1.0723
B(  9-C , 10-H ) :   0.9633 B(  9-C , 11-H ) :   0.9570 B(  9-C , 12-C ) :   1.0585
B( 12-C , 13-H ) :   0.9770 B( 12-C , 14-H ) :   0.9769 B( 12-C , 15-H ) :   0.9802
B( 16-S , 17-C ) :   1.1495 B( 16-S , 20-C ) :   1.1235 B( 17-C , 18-C ) :   1.6351
B( 17-C , 33-H ) :   0.9682 B( 18-C , 19-C ) :   1.2239 B( 18-C , 21-H ) :   0.9890
B( 19-C , 20-C ) :   1.6067 B( 19-C , 22-C ) :   1.0432 B( 22-C , 23-H ) :   0.9282
B( 22-C , 24-H ) :   0.9332 B( 22-C , 25-C ) :   1.0468 B( 25-C , 26-H ) :   0.9619
B( 25-C , 27-H ) :   0.9518 B( 25-C , 28-C ) :   1.0816 B( 28-C , 29-H ) :   0.9739
B( 28-C , 30-H ) :   0.9715 B( 28-C , 31-H ) :   0.9748

Dispersion correction           -0.014992463
FINAL SINGLE POINT ENERGY     -1339.865780234199

DIPOLE MOMENT
-------------
                                X             Y             Z
Electronic contribution:      7.46846      28.02952      -0.19575
Nuclear contribution   :     -7.89420     -28.47675       0.29434
                        -----------------------------------------
Total Dipole Moment    :     -0.42574      -0.44723       0.09859
                        -----------------------------------------
Magnitude (a.u.)       :      0.62529
Magnitude (Debye)      :      1.58937

Rotational constants in cm-1:     0.018425     0.009525     0.007415
Rotational constants in MHz :   552.364961   285.557060   222.302099

                             ****ORCA TERMINATED NORMALLY****
TOTAL RUN TIME: 0 days 0 hours 0 minutes 34 seconds 799 msec
