                         Program Version 4.2.1 -  RELEASE  -
|  1> ! wB97X-D3 SP def2-SVP
|  2> %pal
|  3> nprocs 16
|  4> end
|  5>
|  6> * xyz 0 1
|  7> S 	 39.9162 	 12.6121 	 90.5332
|  8> C 	 41.0876 	 13.8205 	 89.9739
|  9> C 	 41.5153 	 13.5221 	 88.6718
| 10> C 	 41.0008 	 12.289 	 88.2288
| 11> C 	 40.1504 	 11.6896 	 89.1125
| 12> H 	 41.3576 	 11.8552 	 87.3057
| 13> C 	 42.477 	 14.3189 	 87.8873
| 14> H 	 43.3909 	 13.7126 	 87.9923
| 15> H 	 42.8322 	 15.1778 	 88.3863
| 16> C 	 42.1554 	 14.5842 	 86.3784
| 17> H 	 42.9918 	 15.0619 	 85.8884
| 18> H 	 41.766 	 13.7701 	 85.9013
| 19> C 	 40.952 	 15.5924 	 86.3001
| 20> H 	 40.6903 	 15.7764 	 85.2578
| 21> H 	 40.1034 	 15.3568 	 86.9025
| 22> H 	 41.3165 	 16.5737 	 86.7242
| 23> S 	 38.2497 	 10.2472 	 87.7161
| 24> C 	 38.0251 	 8.56646 	 88.1114
| 25> C 	 38.7699 	 8.217 	 89.1611
| 26> C 	 39.6889 	 9.23536 	 89.5937
| 27> C 	 39.4942 	 10.4182 	 88.9718
| 28> H 	 38.6913 	 7.30884 	 89.7438
| 29> C 	 40.6882 	 8.98108 	 90.6216
| 30> H 	 40.4672 	 8.0012 	 91.0632
| 31> H 	 40.5348 	 9.77613 	 91.319
| 32> C 	 42.2039 	 8.9253 	 90.2324
| 33> H 	 42.5732 	 9.79312 	 89.7451
| 34> H 	 42.2313 	 8.04505 	 89.5209
| 35> C 	 43.1323 	 8.61465 	 91.4657
| 36> H 	 44.1523 	 8.82303 	 91.149
| 37> H 	 42.9468 	 7.62923 	 91.803
| 38> H 	 42.8634 	 9.341 	 92.2947
| 39> H 	 41.5299 	 14.5496 	 90.6489
| 40> H 	 37.1425 	 7.92687 	 87.8149
| 41> *
| 42>
| 43>                          ****END OF INPUT****

CARTESIAN COORDINATES (ANGSTROEM)
---------------------------------
  S     39.916200   12.612100   90.533200
  C     41.087600   13.820500   89.973900
  C     41.515300   13.522100   88.671800
  C     41.000800   12.289000   88.228800
  C     40.150400   11.689600   89.112500
  H     41.357600   11.855200   87.305700
  C     42.477000   14.318900   87.887300
  H     43.390900   13.712600   87.992300
  H     42.832200   15.177800   88.386300
  C     42.155400   14.584200   86.378400
  H     42.991800   15.061900   85.888400
  H     41.766000   13.770100   85.901300
  C     40.952000   15.592400   86.300100
  H     40.690300   15.776400   85.257800
  H     40.103400   15.356800   86.902500
  H     41.316500   16.573700   86.724200
  S     38.249700   10.247200   87.716100
  C     38.025100    8.566460   88.111400
  C     38.769900    8.217000   89.161100
  C     39.688900    9.235360   89.593700
  C     39.494200   10.418200   88.971800
  H     38.691300    7.308840   89.743800
  C     40.688200    8.981080   90.621600
  H     40.467200    8.001200   91.063200
  H     40.534800    9.776130   91.319000
  C     42.203900    8.925300   90.232400
  H     42.573200    9.793120   89.745100
  H     42.231300    8.045050   89.520900
  C     43.132300    8.614650   91.465700
  H     44.152300    8.823030   91.149000
  H     42.946800    7.629230   91.803000
  H     42.863400    9.341000   92.294700
  H     41.529900   14.549600   90.648900
  H     37.142500    7.926870   87.814900

 Total Charge           Charge          ....    0
 Multiplicity           Mult            ....    1
 Number of Electrons    NEL             ....  134
 Basis Dimension        Dim             ....  322

ORBITAL ENERGIES
----------------

  NO   OCC          E(Eh)            E(eV)
   0   2.0000     -88.967586     -2420.9311
   1   2.0000     -88.960044     -2420.7259
   2   2.0000     -10.323922      -280.9282
   3   2.0000     -10.318043      -280.7682
   4   2.0000     -10.315165      -280.6899
   5   2.0000     -10.314968      -280.6845
   6   2.0000     -10.301492      -280.3178
   7   2.0000     -10.292023      -280.0602
   8   2.0000     -10.289745      -279.9982
   9   2.0000     -10.289663      -279.9960
  10   2.0000     -10.287541      -279.9382
  11   2.0000     -10.286773      -279.9173
  12   2.0000     -10.286520      -279.9104
  13   2.0000     -10.282968      -279.8138
  14   2.0000     -10.279938      -279.7313
  15   2.0000     -10.275416      -279.6083
  16   2.0000      -8.082435      -219.9342
  17   2.0000      -8.074883      -219.7287
  18   2.0000      -6.040802      -164.3786
  19   2.0000      -6.036918      -164.2729
  20   2.0000      -6.033513      -164.1802
  21   2.0000      -6.033358      -164.1760
  22   2.0000      -6.029432      -164.0692
  23   2.0000      -6.025446      -163.9607
  24   2.0000      -1.012887       -27.5621
  25   2.0000      -0.989012       -26.9124
  26   2.0000      -0.915953       -24.9244
  27   2.0000      -0.906151       -24.6576
  28   2.0000      -0.870321       -23.6826
  29   2.0000      -0.850493       -23.1431
  30   2.0000      -0.847496       -23.0616
  31   2.0000      -0.816200       -22.2099
  32   2.0000      -0.783478       -21.3195
  33   2.0000      -0.768295       -20.9064
  34   2.0000      -0.713326       -19.4106
  35   2.0000      -0.700499       -19.0616
  36   2.0000      -0.687833       -18.7169
  37   2.0000      -0.667191       -18.1552
  38   2.0000      -0.640020       -17.4158
  39   2.0000      -0.629602       -17.1323
  40   2.0000      -0.592770       -16.1301
  41   2.0000      -0.572157       -15.5692
  42   2.0000      -0.565048       -15.3757
  43   2.0000      -0.551919       -15.0185
  44   2.0000      -0.542201       -14.7540
  45   2.0000      -0.522685       -14.2230
  46   2.0000      -0.518288       -14.1033
  47   2.0000      -0.514690       -14.0054
  48   2.0000      -0.506205       -13.7745
  49   2.0000      -0.495588       -13.4856
  50   2.0000      -0.488754       -13.2997
  51   2.0000      -0.481134       -13.0923
  52   2.0000      -0.471399       -12.8274
  53   2.0000      -0.464361       -12.6359
  54   2.0000      -0.456916       -12.4333
  55   2.0000      -0.451313       -12.2808
  56   2.0000      -0.443497       -12.0682
  57   2.0000      -0.437266       -11.8986
  58   2.0000      -0.432160       -11.7597
  59   2.0000      -0.428014       -11.6469
  60   2.0000      -0.420664       -11.4468
  61   2.0000      -0.416141       -11.3238
  62   2.0000      -0.413336       -11.2475
  63   2.0000      -0.335292        -9.1237
  64   2.0000      -0.331807        -9.0289
  65   2.0000      -0.324347        -8.8259
  66   2.0000      -0.302623        -8.2348
  67   0.0000       0.037423         1.0183
  68   0.0000       0.065769         1.7897
  69   0.0000       0.111611         3.0371
  70   0.0000       0.119932         3.2635
  71   0.0000       0.123516         3.3610

MULLIKEN ATOMIC CHARGES
-----------------------
   0 S :    0.119723
   1 C :   -0.146253
   2 C :   -0.087775
   3 C :    0.035933
   4 C :   -0.171043
   5 H :    0.012598
   6 C :    0.074563
   7 H :    0.034051
   8 H :   -0.003696
   9 C :   -0.019456
  10 H :    0.037468
  11 H :    0.019155
  12 C :   -0.082583
  13 H :    0.037208
  14 H :    0.043216
  15 H :    0.019172
  16 S :    0.100103
  17 C :   -0.087082
  18 C :   -0.029892
  19 C :   -0.040233
  20 C :   -0.163605
  21 H :    0.014352
  22 C :    0.092239
  23 H :    0.006263
  24 H :    0.012617
  25 C :   -0.088565
  26 H :    0.031916
  27 H :    0.032198
  28 C :   -0.041439
  29 H :    0.041414
  30 H :    0.028782
  31 H :    0.036808
  32 H :    0.054193
  33 H :    0.077650
Sum of atomic charges:   -0.0000000

LOEWDIN ATOMIC CHARGES
----------------------
   0 S :    0.422080
   1 C :   -0.201957
   2 C :   -0.057189
   3 C :   -0.062964
   4 C :   -0.204797
   5 H :    0.032681
   6 C :   -0.035493
   7 H :    0.040108
   8 H :    0.023469
   9 C :   -0.020917
  10 H :    0.029232
  11 H :    0.010683
  12 C :   -0.063931
  13 H :    0.023617
  14 H :    0.022085
  15 H :    0.024755
  16 S :    0.390491
  17 C :   -0.194175
  18 C :   -0.074248
  19 C :   -0.057480
  20 C :   -0.194214
  21 H :    0.030270
  22 C :   -0.036379
  23 H :    0.029085
  24 H :    0.022219
  25 C :   -0.031520
  26 H :    0.016534
  27 H :    0.027500
  28 C :   -0.061095
  29 H :    0.028063
  30 H :    0.017281
  31 H :    0.031733
  32 H :    0.027651
  33 H :    0.046822

  Mayer bond orders larger than 0.100000
B(  0-S ,  1-C ) :   1.1346 B(  0-S ,  4-C ) :   1.1804 B(  1-C ,  2-C ) :   1.5785
B(  1-C ,  4-C ) :   0.1020 B(  1-C , 32-H ) :   0.9701 B(  2-C ,  3-C ) :   1.2561
B(  2-C ,  6-C ) :   1.0297 B(  3-C ,  4-C ) :   1.5584 B(  3-C ,  5-H ) :   1.0001
B(  4-C , 20-C ) :   1.0128 B(  6-C ,  7-H ) :   0.9257 B(  6-C ,  8-H ) :   0.9377
B(  6-C ,  9-C ) :   1.0681 B(  9-C , 10-H ) :   0.9567 B(  9-C , 11-H ) :   0.9613
B(  9-C , 12-C ) :   1.0647 B( 12-C , 13-H ) :   0.9773 B( 12-C , 14-H ) :   0.9798
B( 12-C , 15-H ) :   0.9768 B( 16-S , 17-C ) :   1.1417 B( 16-S , 20-C ) :   1.1163
B( 17-C , 18-C ) :   1.6420 B( 17-C , 33-H ) :   0.9500 B( 18-C , 19-C ) :   1.2313
B( 18-C , 21-H ) :   0.9823 B( 19-C , 20-C ) :   1.6362 B( 19-C , 22-C ) :   1.0629
B( 22-C , 23-H ) :   0.9277 B( 22-C , 24-H ) :   0.9108 B( 22-C , 25-C ) :   1.0604
B( 25-C , 26-H ) :   0.9612 B( 25-C , 27-H ) :   0.9570 B( 25-C , 28-C ) :   1.0751
B( 28-C , 29-H ) :   0.9764 B( 28-C , 30-H ) :   0.9778 B( 28-C , 31-H ) :   0.9760

Dispersion correction           -0.014777717
FINAL SINGLE POINT ENERGY     -1339.872309628115

DIPOLE MOMENT
-------------
                                X             Y             Z
Electronic contribution:    -18.32377      -3.46372       1.76616
Nuclear contribution   :     18.85820       3.39043      -1.71351
                        -----------------------------------------
Total Dipole Moment    :      0.53442      -0.07329       0.05266
                        -----------------------------------------
Magnitude (a.u.)       :      0.54199
Magnitude (Debye)      :      1.37763

Rotational constants in cm-1:     0.018420     0.009123     0.007357
Rotational constants in MHz :   552.230362   273.496084   220.549829

                             ****ORCA TERMINATED NORMALLY****
TOTAL RUN TIME: 0 days 0 hours 0 minutes 28 seconds 853 msec
