                         Program Version 4.2.1 -  RELEASE  -
|  1> ! wB97X-D3 SP def2-SVP
|  2> %pal
|  3> nprocs 16
|  4> end
|  5>
|  6> * xyz 0 1
|  7> S 	 3.54805 	 -8.56855 	 99.9124
|  8> C 	 4.66111 	 -7.52009 	 99.1144
|  9> C 	 5.8163 	 -8.20211 	 98.719
| 10> C 	 5.79412 	 -9.58982 	 99.1054
| 11> C 	 4.68246 	 -9.95695 	 99.8334
| 12> H 	 6.63164 	 -10.277 	 99.0984
| 13> C 	 7.08008 	 -7.63064 	 98.0031
| 14> H 	 6.86711 	 -7.32978 	 96.995
| 15> H 	 7.86044 	 -8.3137 	 98.019
| 16> C 	 7.62822 	 -6.36089 	 98.692
| 17> H 	 6.85549 	 -5.54842 	 98.5975
| 18> H 	 7.74993 	 -6.56694 	 99.8209
| 19> C 	 9.03087 	 -5.80311 	 98.0829
| 20> H 	 9.90825 	 -6.47878 	 98.1025
| 21> H 	 8.94972 	 -5.58919 	 97.0171
| 22> H 	 9.23781 	 -4.84478 	 98.6003
| 23> S 	 2.58839 	 -11.6405 	 100.351
| 24> C 	 2.90755 	 -13.3106 	 100.387
| 25> C 	 4.24062 	 -13.5704 	 100.578
| 26> C 	 5.10816 	 -12.3846 	 100.64
| 27> C 	 4.31226 	 -11.2894 	 100.298
| 28> H 	 4.46709 	 -14.618 	 100.795
| 29> C 	 6.62553 	 -12.5049 	 100.982
| 30> H 	 7.06594 	 -13.1036 	 100.14
| 31> H 	 6.72048 	 -13.2953 	 101.755
| 32> C 	 7.50905 	 -11.3004 	 101.355
| 33> H 	 6.75835 	 -10.4919 	 101.577
| 34> H 	 8.15918 	 -11.0282 	 100.544
| 35> C 	 8.37649 	 -11.6491 	 102.571
| 36> H 	 9.21758 	 -12.3087 	 102.292
| 37> H 	 7.92622 	 -12.0961 	 103.424
| 38> H 	 8.77606 	 -10.6871 	 102.923
| 39> H 	 4.60249 	 -6.41246 	 98.867
| 40> H 	 2.12346 	 -14.057 	 100.556
| 41> *
| 42>
| 43>                          ****END OF INPUT****

CARTESIAN COORDINATES (ANGSTROEM)
---------------------------------
  S      3.548050   -8.568550   99.912400
  C      4.661110   -7.520090   99.114400
  C      5.816300   -8.202110   98.719000
  C      5.794120   -9.589820   99.105400
  C      4.682460   -9.956950   99.833400
  H      6.631640  -10.277000   99.098400
  C      7.080080   -7.630640   98.003100
  H      6.867110   -7.329780   96.995000
  H      7.860440   -8.313700   98.019000
  C      7.628220   -6.360890   98.692000
  H      6.855490   -5.548420   98.597500
  H      7.749930   -6.566940   99.820900
  C      9.030870   -5.803110   98.082900
  H      9.908250   -6.478780   98.102500
  H      8.949720   -5.589190   97.017100
  H      9.237810   -4.844780   98.600300
  S      2.588390  -11.640500  100.351000
  C      2.907550  -13.310600  100.387000
  C      4.240620  -13.570400  100.578000
  C      5.108160  -12.384600  100.640000
  C      4.312260  -11.289400  100.298000
  H      4.467090  -14.618000  100.795000
  C      6.625530  -12.504900  100.982000
  H      7.065940  -13.103600  100.140000
  H      6.720480  -13.295300  101.755000
  C      7.509050  -11.300400  101.355000
  H      6.758350  -10.491900  101.577000
  H      8.159180  -11.028200  100.544000
  C      8.376490  -11.649100  102.571000
  H      9.217580  -12.308700  102.292000
  H      7.926220  -12.096100  103.424000
  H      8.776060  -10.687100  102.923000
  H      4.602490   -6.412460   98.867000
  H      2.123460  -14.057000  100.556000

 Total Charge           Charge          ....    0
 Multiplicity           Mult            ....    1
 Number of Electrons    NEL             ....  134
 Basis Dimension        Dim             ....  322

ORBITAL ENERGIES
----------------

  NO   OCC          E(Eh)            E(eV)
   0   2.0000     -88.967670     -2420.9334
   1   2.0000     -88.963047     -2420.8076
   2   2.0000     -10.331522      -281.1350
   3   2.0000     -10.330333      -281.1027
   4   2.0000     -10.319172      -280.7990
   5   2.0000     -10.316919      -280.7376
   6   2.0000     -10.313293      -280.6390
   7   2.0000     -10.304346      -280.3955
   8   2.0000     -10.304334      -280.3952
   9   2.0000     -10.303185      -280.3639
  10   2.0000     -10.296650      -280.1861
  11   2.0000     -10.293522      -280.1010
  12   2.0000     -10.292053      -280.0610
  13   2.0000     -10.289469      -279.9907
  14   2.0000     -10.289260      -279.9850
  15   2.0000     -10.279843      -279.7287
  16   2.0000      -8.081809      -219.9172
  17   2.0000      -8.078994      -219.8406
  18   2.0000      -6.040536      -164.3713
  19   2.0000      -6.037515      -164.2891
  20   2.0000      -6.036355      -164.2576
  21   2.0000      -6.033581      -164.1821
  22   2.0000      -6.032436      -164.1509
  23   2.0000      -6.029418      -164.0688
  24   2.0000      -1.006165       -27.3791
  25   2.0000      -0.981918       -26.7193
  26   2.0000      -0.909104       -24.7380
  27   2.0000      -0.900861       -24.5137
  28   2.0000      -0.866314       -23.5736
  29   2.0000      -0.852782       -23.2054
  30   2.0000      -0.840107       -22.8605
  31   2.0000      -0.809663       -22.0321
  32   2.0000      -0.783702       -21.3256
  33   2.0000      -0.772334       -21.0163
  34   2.0000      -0.712160       -19.3788
  35   2.0000      -0.698628       -19.0106
  36   2.0000      -0.688799       -18.7432
  37   2.0000      -0.660315       -17.9681
  38   2.0000      -0.630542       -17.1579
  39   2.0000      -0.611628       -16.6432
  40   2.0000      -0.593604       -16.1528
  41   2.0000      -0.569293       -15.4913
  42   2.0000      -0.564228       -15.3534
  43   2.0000      -0.555298       -15.1104
  44   2.0000      -0.526061       -14.3148
  45   2.0000      -0.520751       -14.1704
  46   2.0000      -0.515093       -14.0164
  47   2.0000      -0.506482       -13.7821
  48   2.0000      -0.499425       -13.5901
  49   2.0000      -0.497418       -13.5354
  50   2.0000      -0.491091       -13.3633
  51   2.0000      -0.485498       -13.2111
  52   2.0000      -0.471475       -12.8295
  53   2.0000      -0.470857       -12.8127
  54   2.0000      -0.460220       -12.5232
  55   2.0000      -0.444914       -12.1067
  56   2.0000      -0.440548       -11.9879
  57   2.0000      -0.436221       -11.8702
  58   2.0000      -0.431798       -11.7498
  59   2.0000      -0.425988       -11.5917
  60   2.0000      -0.420852       -11.4520
  61   2.0000      -0.417199       -11.3526
  62   2.0000      -0.415310       -11.3012
  63   2.0000      -0.360015        -9.7965
  64   2.0000      -0.332483        -9.0473
  65   2.0000      -0.323204        -8.7948
  66   2.0000      -0.280861        -7.6426
  67   0.0000       0.021851         0.5946
  68   0.0000       0.079982         2.1764
  69   0.0000       0.099688         2.7126
  70   0.0000       0.120572         3.2809
  71   0.0000       0.129791         3.5318

MULLIKEN ATOMIC CHARGES
-----------------------
   0 S :    0.103337
   1 C :   -0.128287
   2 C :   -0.110774
   3 C :    0.027096
   4 C :   -0.142059
   5 H :    0.005093
   6 C :    0.141534
   7 H :    0.031460
   8 H :    0.001534
   9 C :   -0.163449
  10 H :    0.035814
  11 H :    0.051527
  12 C :   -0.069568
  13 H :    0.040690
  14 H :    0.027745
  15 H :    0.047147
  16 S :    0.102714
  17 C :   -0.087693
  18 C :   -0.061413
  19 C :   -0.029164
  20 C :   -0.153786
  21 H :    0.022448
  22 C :    0.021045
  23 H :    0.037827
  24 H :    0.028342
  25 C :   -0.076664
  26 H :    0.071550
  27 H :    0.042851
  28 C :   -0.056190
  29 H :    0.037089
  30 H :    0.033569
  31 H :    0.032621
  32 H :    0.069991
  33 H :    0.066025
Sum of atomic charges:   -0.0000000

LOEWDIN ATOMIC CHARGES
----------------------
   0 S :    0.393849
   1 C :   -0.220851
   2 C :   -0.061944
   3 C :   -0.064338
   4 C :   -0.178353
   5 H :    0.030227
   6 C :   -0.023254
   7 H :    0.030177
   8 H :    0.017507
   9 C :   -0.045165
  10 H :    0.022028
  11 H :    0.031403
  12 C :   -0.076796
  13 H :    0.026792
  14 H :    0.022776
  15 H :    0.032345
  16 S :    0.409532
  17 C :   -0.202582
  18 C :   -0.075370
  19 C :   -0.050197
  20 C :   -0.195195
  21 H :    0.031884
  22 C :   -0.045159
  23 H :    0.039626
  24 H :    0.037288
  25 C :   -0.046742
  26 H :    0.039703
  27 H :    0.024790
  28 C :   -0.064103
  29 H :    0.028225
  30 H :    0.020620
  31 H :    0.029837
  32 H :    0.047090
  33 H :    0.034347

  Mayer bond orders larger than 0.100000
B(  0-S ,  1-C ) :   1.1384 B(  0-S ,  4-C ) :   1.1277 B(  1-C ,  2-C ) :   1.6192
B(  1-C , 32-H ) :   0.9564 B(  2-C ,  3-C ) :   1.2516 B(  2-C ,  6-C ) :   1.0164
B(  3-C ,  4-C ) :   1.5930 B(  3-C ,  5-H ) :   0.9803 B(  4-C , 20-C ) :   1.0701
B(  6-C ,  7-H ) :   0.9351 B(  6-C ,  8-H ) :   0.9484 B(  6-C ,  9-C ) :   1.0545
B(  9-C , 10-H ) :   0.9563 B(  9-C , 11-H ) :   0.9620 B(  9-C , 12-C ) :   1.0627
B( 12-C , 13-H ) :   0.9787 B( 12-C , 14-H ) :   0.9755 B( 12-C , 15-H ) :   0.9772
B( 16-S , 17-C ) :   1.1487 B( 16-S , 20-C ) :   1.1329 B( 17-C , 18-C ) :   1.6482
B( 17-C , 33-H ) :   0.9622 B( 18-C , 19-C ) :   1.2070 B( 18-C , 21-H ) :   0.9840
B( 19-C , 20-C ) :   1.5874 B( 19-C , 22-C ) :   1.0301 B( 22-C , 23-H ) :   0.9258
B( 22-C , 24-H ) :   0.9428 B( 22-C , 25-C ) :   1.0331 B( 25-C , 26-H ) :   0.9635
B( 25-C , 27-H ) :   0.9461 B( 25-C , 28-C ) :   1.0872 B( 28-C , 29-H ) :   0.9756
B( 28-C , 30-H ) :   0.9772 B( 28-C , 31-H ) :   0.9729

Dispersion correction           -0.013885024
FINAL SINGLE POINT ENERGY     -1339.860156221706

DIPOLE MOMENT
-------------
                                X             Y             Z
Electronic contribution:    -31.27059      -7.57359       0.06056
Nuclear contribution   :     32.02935       7.37477      -0.01507
                        -----------------------------------------
Total Dipole Moment    :      0.75876      -0.19882       0.04548
                        -----------------------------------------
Magnitude (a.u.)       :      0.78570
Magnitude (Debye)      :      1.99708

Rotational constants in cm-1:     0.018977     0.008482     0.006312
Rotational constants in MHz :   568.908974   254.297746   189.229998

                             ****ORCA TERMINATED NORMALLY****
TOTAL RUN TIME: 0 days 0 hours 0 minutes 31 seconds 25 msec
