                         Program Version 4.2.1 -  RELEASE  -
|  1> ! wB97X-D3 SP def2-SVP
|  2> %pal
|  3> nprocs 16
|  4> end
|  5>
|  6> * xyz 0 1
|  7> S 	 15.1672 	 21.0034 	 40.7712
|  8> C 	 15.4656 	 19.345 	 40.5051
|  9> C 	 14.3261 	 18.6696 	 40.0662
| 10> C 	 13.1961 	 19.5659 	 39.8821
| 11> C 	 13.4822 	 20.8571 	 40.2198
| 12> H 	 12.2108 	 19.2592 	 39.5611
| 13> C 	 14.3847 	 17.1279 	 39.6955
| 14> H 	 13.4325 	 16.7439 	 40.0497
| 15> H 	 15.1452 	 16.5977 	 40.2663
| 16> C 	 14.5097 	 16.8851 	 38.1501
| 17> H 	 14.383 	 15.854 	 38.0347
| 18> H 	 13.7571 	 17.4362 	 37.5683
| 19> C 	 15.8821 	 17.2082 	 37.483
| 20> H 	 15.9401 	 17.0336 	 36.4146
| 21> H 	 16.1413 	 18.2723 	 37.6221
| 22> H 	 16.7073 	 16.6421 	 37.9258
| 23> S 	 13.5381 	 23.5043 	 39.4112
| 24> C 	 12.0506 	 24.4349 	 39.4583
| 25> C 	 10.9495 	 23.598 	 39.6279
| 26> C 	 11.3396 	 22.2796 	 40.002
| 27> C 	 12.7053 	 22.0116 	 39.8608
| 28> H 	 9.96259 	 23.9583 	 39.5491
| 29> C 	 10.259 	 21.3874 	 40.5224
| 30> H 	 10.4129 	 20.4412 	 39.9604
| 31> H 	 9.25682 	 21.689 	 40.1857
| 32> C 	 10.4685 	 21.0871 	 42.0091
| 33> H 	 11.5101 	 20.6917 	 42.161
| 34> H 	 9.73954 	 20.3545 	 42.3204
| 35> C 	 10.2259 	 22.2669 	 42.8588
| 36> H 	 11.0723 	 22.9718 	 42.7428
| 37> H 	 10.1778 	 21.9846 	 43.8651
| 38> H 	 9.3164 	 22.9189 	 42.5541
| 39> H 	 16.4345 	 18.9113 	 40.5657
| 40> H 	 12.0732 	 25.479 	 39.4785
| 41> *
| 42>
| 43>                          ****END OF INPUT****

CARTESIAN COORDINATES (ANGSTROEM)
---------------------------------
  S     15.167200   21.003400   40.771200
  C     15.465600   19.345000   40.505100
  C     14.326100   18.669600   40.066200
  C     13.196100   19.565900   39.882100
  C     13.482200   20.857100   40.219800
  H     12.210800   19.259200   39.561100
  C     14.384700   17.127900   39.695500
  H     13.432500   16.743900   40.049700
  H     15.145200   16.597700   40.266300
  C     14.509700   16.885100   38.150100
  H     14.383000   15.854000   38.034700
  H     13.757100   17.436200   37.568300
  C     15.882100   17.208200   37.483000
  H     15.940100   17.033600   36.414600
  H     16.141300   18.272300   37.622100
  H     16.707300   16.642100   37.925800
  S     13.538100   23.504300   39.411200
  C     12.050600   24.434900   39.458300
  C     10.949500   23.598000   39.627900
  C     11.339600   22.279600   40.002000
  C     12.705300   22.011600   39.860800
  H      9.962590   23.958300   39.549100
  C     10.259000   21.387400   40.522400
  H     10.412900   20.441200   39.960400
  H      9.256820   21.689000   40.185700
  C     10.468500   21.087100   42.009100
  H     11.510100   20.691700   42.161000
  H      9.739540   20.354500   42.320400
  C     10.225900   22.266900   42.858800
  H     11.072300   22.971800   42.742800
  H     10.177800   21.984600   43.865100
  H      9.316400   22.918900   42.554100
  H     16.434500   18.911300   40.565700
  H     12.073200   25.479000   39.478500

 Total Charge           Charge          ....    0
 Multiplicity           Mult            ....    1
 Number of Electrons    NEL             ....  134
 Basis Dimension        Dim             ....  322

ORBITAL ENERGIES
----------------

  NO   OCC          E(Eh)            E(eV)
   0   2.0000     -88.965817     -2420.8830
   1   2.0000     -88.964273     -2420.8410
   2   2.0000     -10.329577      -281.0821
   3   2.0000     -10.325909      -280.9823
   4   2.0000     -10.315767      -280.7063
   5   2.0000     -10.310621      -280.5663
   6   2.0000     -10.307316      -280.4763
   7   2.0000     -10.301305      -280.3127
   8   2.0000     -10.300587      -280.2932
   9   2.0000     -10.298449      -280.2350
  10   2.0000     -10.291739      -280.0524
  11   2.0000     -10.290825      -280.0276
  12   2.0000     -10.288034      -279.9516
  13   2.0000     -10.281020      -279.7608
  14   2.0000     -10.276834      -279.6469
  15   2.0000     -10.270264      -279.4681
  16   2.0000      -8.080970      -219.8944
  17   2.0000      -8.078729      -219.8334
  18   2.0000      -6.039459      -164.3420
  19   2.0000      -6.037269      -164.2824
  20   2.0000      -6.035388      -164.2313
  21   2.0000      -6.033234      -164.1727
  22   2.0000      -6.031752      -164.1323
  23   2.0000      -6.029510      -164.0713
  24   2.0000      -1.006821       -27.3970
  25   2.0000      -0.982472       -26.7344
  26   2.0000      -0.914908       -24.8959
  27   2.0000      -0.900378       -24.5005
  28   2.0000      -0.871976       -23.7277
  29   2.0000      -0.852499       -23.1977
  30   2.0000      -0.842824       -22.9344
  31   2.0000      -0.813833       -22.1455
  32   2.0000      -0.782123       -21.2827
  33   2.0000      -0.771204       -20.9855
  34   2.0000      -0.708977       -19.2923
  35   2.0000      -0.697161       -18.9707
  36   2.0000      -0.683732       -18.6053
  37   2.0000      -0.668906       -18.2019
  38   2.0000      -0.644793       -17.5457
  39   2.0000      -0.619843       -16.8668
  40   2.0000      -0.593861       -16.1598
  41   2.0000      -0.567543       -15.4436
  42   2.0000      -0.558505       -15.1977
  43   2.0000      -0.553172       -15.0526
  44   2.0000      -0.544016       -14.8034
  45   2.0000      -0.538834       -14.6624
  46   2.0000      -0.518814       -14.1176
  47   2.0000      -0.507621       -13.8131
  48   2.0000      -0.504705       -13.7337
  49   2.0000      -0.494639       -13.4598
  50   2.0000      -0.488173       -13.2839
  51   2.0000      -0.480221       -13.0675
  52   2.0000      -0.472835       -12.8665
  53   2.0000      -0.465387       -12.6638
  54   2.0000      -0.461941       -12.5701
  55   2.0000      -0.446336       -12.1454
  56   2.0000      -0.442784       -12.0488
  57   2.0000      -0.436630       -11.8813
  58   2.0000      -0.430592       -11.7170
  59   2.0000      -0.425036       -11.5658
  60   2.0000      -0.421824       -11.4784
  61   2.0000      -0.407881       -11.0990
  62   2.0000      -0.406648       -11.0654
  63   2.0000      -0.355510        -9.6739
  64   2.0000      -0.329155        -8.9568
  65   2.0000      -0.327814        -8.9203
  66   2.0000      -0.282705        -7.6928
  67   0.0000       0.019135         0.5207
  68   0.0000       0.078517         2.1366
  69   0.0000       0.103648         2.8204
  70   0.0000       0.117608         3.2003
  71   0.0000       0.139473         3.7952

MULLIKEN ATOMIC CHARGES
-----------------------
   0 S :    0.107493
   1 C :   -0.111607
   2 C :   -0.107758
   3 C :    0.021496
   4 C :   -0.139622
   5 H :    0.011203
   6 C :    0.072142
   7 H :    0.024504
   8 H :    0.028062
   9 C :   -0.047045
  10 H :    0.021920
  11 H :    0.037678
  12 C :   -0.076363
  13 H :    0.037331
  14 H :    0.036848
  15 H :    0.022071
  16 S :    0.093403
  17 C :   -0.091429
  18 C :    0.004275
  19 C :   -0.082837
  20 C :   -0.117979
  21 H :    0.005558
  22 C :    0.056509
  23 H :    0.018576
  24 H :    0.022639
  25 C :   -0.057635
  26 H :    0.055089
  27 H :    0.022484
  28 C :   -0.053025
  29 H :    0.037307
  30 H :    0.026750
  31 H :    0.031821
  32 H :    0.043228
  33 H :    0.046912
Sum of atomic charges:   -0.0000000

LOEWDIN ATOMIC CHARGES
----------------------
   0 S :    0.407526
   1 C :   -0.206307
   2 C :   -0.060756
   3 C :   -0.057073
   4 C :   -0.188054
   5 H :    0.029717
   6 C :   -0.022654
   7 H :    0.029578
   8 H :    0.029549
   9 C :   -0.033758
  10 H :    0.016246
  11 H :    0.028544
  12 C :   -0.072345
  13 H :    0.026586
  14 H :    0.026330
  15 H :    0.021067
  16 S :    0.396164
  17 C :   -0.168617
  18 C :   -0.062514
  19 C :   -0.055206
  20 C :   -0.199790
  21 H :    0.024493
  22 C :   -0.034649
  23 H :    0.030117
  24 H :    0.030386
  25 C :   -0.041815
  26 H :    0.037651
  27 H :    0.020979
  28 C :   -0.069561
  29 H :    0.028434
  30 H :    0.017589
  31 H :    0.031479
  32 H :    0.023511
  33 H :    0.017154

  Mayer bond orders larger than 0.100000
B(  0-S ,  1-C ) :   1.1469 B(  0-S ,  4-C ) :   1.1327 B(  1-C ,  2-C ) :   1.6013
B(  1-C , 32-H ) :   0.9719 B(  2-C ,  3-C ) :   1.2518 B(  2-C ,  6-C ) :   1.0142
B(  3-C ,  4-C ) :   1.5591 B(  3-C ,  5-H ) :   0.9913 B(  4-C , 20-C ) :   1.0904
B(  6-C ,  7-H ) :   0.9401 B(  6-C ,  8-H ) :   0.9503 B(  6-C ,  9-C ) :   1.0636
B(  9-C , 10-H ) :   0.9574 B(  9-C , 11-H ) :   0.9597 B(  9-C , 12-C ) :   1.0731
B( 12-C , 13-H ) :   0.9757 B( 12-C , 14-H ) :   0.9763 B( 12-C , 15-H ) :   0.9759
B( 16-S , 17-C ) :   1.1699 B( 16-S , 20-C ) :   1.1201 B( 17-C , 18-C ) :   1.5654
B( 17-C , 33-H ) :   0.9777 B( 18-C , 19-C ) :   1.2638 B( 18-C , 21-H ) :   1.0009
B( 19-C , 20-C ) :   1.5663 B( 19-C , 22-C ) :   1.0354 B( 22-C , 23-H ) :   0.9287
B( 22-C , 24-H ) :   0.9395 B( 22-C , 25-C ) :   1.0725 B( 25-C , 26-H ) :   0.9475
B( 25-C , 27-H ) :   0.9538 B( 25-C , 28-C ) :   1.0825 B( 28-C , 29-H ) :   0.9707
B( 28-C , 30-H ) :   0.9719 B( 28-C , 31-H ) :   0.9708

Dispersion correction           -0.015272917
FINAL SINGLE POINT ENERGY     -1339.876720565496

DIPOLE MOMENT
-------------
                                X             Y             Z
Electronic contribution:      8.81614      17.24459      -0.07440
Nuclear contribution   :     -9.19005     -17.67355       0.04485
                        -----------------------------------------
Total Dipole Moment    :     -0.37391      -0.42896      -0.02956
                        -----------------------------------------
Magnitude (a.u.)       :      0.56981
Magnitude (Debye)      :      1.44835

Rotational constants in cm-1:     0.022228     0.008172     0.007237
Rotational constants in MHz :   666.393595   245.002466   216.955038

                             ****ORCA TERMINATED NORMALLY****
TOTAL RUN TIME: 0 days 0 hours 0 minutes 34 seconds 932 msec
