                         Program Version 4.2.1 -  RELEASE  -
|  1> ! wB97X-D3 SP def2-SVP
|  2> %pal
|  3> nprocs 16
|  4> end
|  5>
|  6> * xyz 0 1
|  7> S 	 -52.6562 	 46.5456 	 106.186
|  8> C 	 -51.5066 	 47.8361 	 106.517
|  9> C 	 -51.2358 	 47.9598 	 107.844
| 10> C 	 -51.8437 	 46.8666 	 108.568
| 11> C 	 -52.6911 	 46.0743 	 107.836
| 12> H 	 -51.7924 	 46.8077 	 109.645
| 13> C 	 -50.4391 	 49.1304 	 108.497
| 14> H 	 -50.5879 	 50.0284 	 107.935
| 15> H 	 -49.3787 	 48.9139 	 108.287
| 16> C 	 -50.687 	 49.4613 	 109.969
| 17> H 	 -51.7136 	 49.9382 	 110.161
| 18> H 	 -50.5829 	 48.5679 	 110.622
| 19> C 	 -49.6679 	 50.563 	 110.497
| 20> H 	 -49.8721 	 51.6245 	 110.103
| 21> H 	 -49.7789 	 50.5953 	 111.633
| 22> H 	 -48.7236 	 50.3089 	 110.104
| 23> S 	 -54.8692 	 44.5899 	 107.113
| 24> C 	 -55.5714 	 43.4466 	 108.246
| 25> C 	 -54.7165 	 43.2559 	 109.272
| 26> C 	 -53.6449 	 44.1555 	 109.38
| 27> C 	 -53.5476 	 44.9567 	 108.245
| 28> H 	 -54.9519 	 42.4708 	 109.991
| 29> C 	 -52.7018 	 44.1622 	 110.581
| 30> H 	 -53.1185 	 43.5781 	 111.469
| 31> H 	 -52.696 	 45.23 	 110.9
| 32> C 	 -51.3072 	 43.6443 	 110.236
| 33> H 	 -50.7205 	 44.1663 	 109.461
| 34> H 	 -51.4081 	 42.6445 	 109.775
| 35> C 	 -50.5634 	 43.513 	 111.528
| 36> H 	 -49.6514 	 42.9833 	 111.348
| 37> H 	 -51.0706 	 42.9198 	 112.297
| 38> H 	 -50.0256 	 44.3697 	 112.032
| 39> H 	 -50.9801 	 48.5116 	 105.738
| 40> H 	 -56.4951 	 42.8402 	 108.094
| 41> *
| 42>
| 43>                          ****END OF INPUT****

CARTESIAN COORDINATES (ANGSTROEM)
---------------------------------
  S    -52.656200   46.545600  106.186000
  C    -51.506600   47.836100  106.517000
  C    -51.235800   47.959800  107.844000
  C    -51.843700   46.866600  108.568000
  C    -52.691100   46.074300  107.836000
  H    -51.792400   46.807700  109.645000
  C    -50.439100   49.130400  108.497000
  H    -50.587900   50.028400  107.935000
  H    -49.378700   48.913900  108.287000
  C    -50.687000   49.461300  109.969000
  H    -51.713600   49.938200  110.161000
  H    -50.582900   48.567900  110.622000
  C    -49.667900   50.563000  110.497000
  H    -49.872100   51.624500  110.103000
  H    -49.778900   50.595300  111.633000
  H    -48.723600   50.308900  110.104000
  S    -54.869200   44.589900  107.113000
  C    -55.571400   43.446600  108.246000
  C    -54.716500   43.255900  109.272000
  C    -53.644900   44.155500  109.380000
  C    -53.547600   44.956700  108.245000
  H    -54.951900   42.470800  109.991000
  C    -52.701800   44.162200  110.581000
  H    -53.118500   43.578100  111.469000
  H    -52.696000   45.230000  110.900000
  C    -51.307200   43.644300  110.236000
  H    -50.720500   44.166300  109.461000
  H    -51.408100   42.644500  109.775000
  C    -50.563400   43.513000  111.528000
  H    -49.651400   42.983300  111.348000
  H    -51.070600   42.919800  112.297000
  H    -50.025600   44.369700  112.032000
  H    -50.980100   48.511600  105.738000
  H    -56.495100   42.840200  108.094000

 Total Charge           Charge          ....    0
 Multiplicity           Mult            ....    1
 Number of Electrons    NEL             ....  134
 Basis Dimension        Dim             ....  322

ORBITAL ENERGIES
----------------

  NO   OCC          E(Eh)            E(eV)
   0   2.0000     -88.964790     -2420.8550
   1   2.0000     -88.962989     -2420.8060
   2   2.0000     -10.330755      -281.1141
   3   2.0000     -10.329000      -281.0664
   4   2.0000     -10.316454      -280.7250
   5   2.0000     -10.316265      -280.7199
   6   2.0000     -10.302681      -280.3502
   7   2.0000     -10.302086      -280.3340
   8   2.0000     -10.301949      -280.3303
   9   2.0000     -10.301490      -280.3178
  10   2.0000     -10.298666      -280.2409
  11   2.0000     -10.292342      -280.0689
  12   2.0000     -10.291274      -280.0398
  13   2.0000     -10.288870      -279.9744
  14   2.0000     -10.287681      -279.9420
  15   2.0000     -10.276352      -279.6337
  16   2.0000      -8.080087      -219.8704
  17   2.0000      -8.077523      -219.8006
  18   2.0000      -6.038711      -164.3217
  19   2.0000      -6.036159      -164.2522
  20   2.0000      -6.034584      -164.2094
  21   2.0000      -6.032134      -164.1427
  22   2.0000      -6.030607      -164.1012
  23   2.0000      -6.028080      -164.0324
  24   2.0000      -1.010235       -27.4899
  25   2.0000      -0.986375       -26.8406
  26   2.0000      -0.912940       -24.8424
  27   2.0000      -0.907602       -24.6971
  28   2.0000      -0.870115       -23.6770
  29   2.0000      -0.853521       -23.2255
  30   2.0000      -0.839249       -22.8371
  31   2.0000      -0.814900       -22.1746
  32   2.0000      -0.780684       -21.2435
  33   2.0000      -0.771258       -20.9870
  34   2.0000      -0.710874       -19.3439
  35   2.0000      -0.699471       -19.0336
  36   2.0000      -0.685676       -18.6582
  37   2.0000      -0.661495       -18.0002
  38   2.0000      -0.632774       -17.2187
  39   2.0000      -0.621663       -16.9163
  40   2.0000      -0.597207       -16.2508
  41   2.0000      -0.565179       -15.3793
  42   2.0000      -0.563281       -15.3277
  43   2.0000      -0.561073       -15.2676
  44   2.0000      -0.529106       -14.3977
  45   2.0000      -0.520849       -14.1730
  46   2.0000      -0.516592       -14.0572
  47   2.0000      -0.507055       -13.7977
  48   2.0000      -0.501216       -13.6388
  49   2.0000      -0.495395       -13.4804
  50   2.0000      -0.493704       -13.4344
  51   2.0000      -0.483521       -13.1573
  52   2.0000      -0.468612       -12.7516
  53   2.0000      -0.463098       -12.6015
  54   2.0000      -0.461559       -12.5596
  55   2.0000      -0.450031       -12.2460
  56   2.0000      -0.447866       -12.1871
  57   2.0000      -0.443191       -12.0598
  58   2.0000      -0.431774       -11.7492
  59   2.0000      -0.421232       -11.4623
  60   2.0000      -0.417387       -11.3577
  61   2.0000      -0.410153       -11.1608
  62   2.0000      -0.407864       -11.0985
  63   2.0000      -0.360845        -9.8191
  64   2.0000      -0.335639        -9.1332
  65   2.0000      -0.325727        -8.8635
  66   2.0000      -0.281907        -7.6711
  67   0.0000       0.022607         0.6152
  68   0.0000       0.078332         2.1315
  69   0.0000       0.105361         2.8670
  70   0.0000       0.126847         3.4517
  71   0.0000       0.134574         3.6620

MULLIKEN ATOMIC CHARGES
-----------------------
   0 S :    0.099926
   1 C :   -0.157771
   2 C :   -0.074454
   3 C :   -0.019876
   4 C :   -0.085178
   5 H :   -0.005480
   6 C :    0.071744
   7 H :    0.020292
   8 H :    0.037477
   9 C :   -0.125918
  10 H :    0.054155
  11 H :    0.048288
  12 C :   -0.077502
  13 H :    0.044129
  14 H :    0.055205
  15 H :    0.023357
  16 S :    0.077453
  17 C :   -0.094410
  18 C :   -0.033795
  19 C :   -0.050967
  20 C :   -0.113911
  21 H :    0.014604
  22 C :    0.023346
  23 H :    0.033496
  24 H :    0.044879
  25 C :   -0.051896
  26 H :    0.046921
  27 H :    0.031588
  28 C :   -0.052989
  29 H :    0.009958
  30 H :    0.029237
  31 H :    0.034196
  32 H :    0.072544
  33 H :    0.071353
Sum of atomic charges:   -0.0000000

LOEWDIN ATOMIC CHARGES
----------------------
   0 S :    0.408521
   1 C :   -0.211928
   2 C :   -0.062566
   3 C :   -0.076648
   4 C :   -0.194387
   5 H :    0.023312
   6 C :   -0.035523
   7 H :    0.029379
   8 H :    0.035803
   9 C :   -0.048390
  10 H :    0.035955
  11 H :    0.024503
  12 C :   -0.069503
  13 H :    0.031964
  14 H :    0.037261
  15 H :    0.012984
  16 S :    0.381998
  17 C :   -0.186905
  18 C :   -0.078132
  19 C :   -0.061007
  20 C :   -0.179299
  21 H :    0.032405
  22 C :   -0.033965
  23 H :    0.038632
  24 H :    0.034511
  25 C :   -0.044456
  26 H :    0.033447
  27 H :    0.032259
  28 C :   -0.081601
  29 H :    0.023089
  30 H :    0.024814
  31 H :    0.033373
  32 H :    0.047874
  33 H :    0.042225

  Mayer bond orders larger than 0.100000
B(  0-S ,  1-C ) :   1.1234 B(  0-S ,  4-C ) :   1.1481 B(  1-C ,  2-C ) :   1.6552
B(  1-C , 32-H ) :   0.9541 B(  2-C ,  3-C ) :   1.2477 B(  2-C ,  6-C ) :   0.9937
B(  3-C ,  4-C ) :   1.5808 B(  3-C ,  5-H ) :   0.9868 B(  4-C , 20-C ) :   1.0637
B(  6-C ,  7-H ) :   0.9465 B(  6-C ,  8-H ) :   0.9340 B(  6-C ,  9-C ) :   1.0712
B(  9-C , 10-H ) :   0.9583 B(  9-C , 11-H ) :   0.9515 B(  9-C , 12-C ) :   1.0675
B( 12-C , 13-H ) :   0.9771 B( 12-C , 14-H ) :   0.9756 B( 12-C , 15-H ) :   0.9771
B( 16-S , 17-C ) :   1.1385 B( 16-S , 20-C ) :   1.1307 B( 17-C , 18-C ) :   1.6236
B( 17-C , 20-C ) :   0.1028 B( 17-C , 33-H ) :   0.9607 B( 18-C , 19-C ) :   1.2531
B( 18-C , 21-H ) :   0.9851 B( 19-C , 20-C ) :   1.5867 B( 19-C , 22-C ) :   1.0296
B( 22-C , 23-H ) :   0.9398 B( 22-C , 24-H ) :   0.9299 B( 22-C , 25-C ) :   1.0641
B( 25-C , 26-H ) :   0.9499 B( 25-C , 27-H ) :   0.9484 B( 25-C , 28-C ) :   1.0919
B( 28-C , 29-H ) :   0.9650 B( 28-C , 30-H ) :   0.9717 B( 28-C , 31-H ) :   0.9697

Dispersion correction           -0.013798381
FINAL SINGLE POINT ENERGY     -1339.868152279559

DIPOLE MOMENT
-------------
                                X             Y             Z
Electronic contribution:    -19.84623      -8.38646     -23.97527
Nuclear contribution   :     20.25104       8.45763      24.59853
                        -----------------------------------------
Total Dipole Moment    :      0.40481       0.07117       0.62326
                        -----------------------------------------
Magnitude (a.u.)       :      0.74659
Magnitude (Debye)      :      1.89767

Rotational constants in cm-1:     0.017400     0.008996     0.006567
Rotational constants in MHz :   521.629862   269.684888   196.886979

                             ****ORCA TERMINATED NORMALLY****
TOTAL RUN TIME: 0 days 0 hours 0 minutes 29 seconds 928 msec
