                         Program Version 4.2.1 -  RELEASE  -
|  1> ! wB97X-D3 SP def2-SVP
|  2> %pal
|  3> nprocs 16
|  4> end
|  5>
|  6> * xyz 0 1
|  7> S 	 33.5593 	 -1.83835 	 69.6378
|  8> C 	 32.8854 	 -0.299935 	 69.2265
|  9> C 	 33.7246 	 0.704286 	 69.6038
| 10> C 	 34.9876 	 0.165136 	 70.0284
| 11> C 	 35.1044 	 -1.19882 	 69.9037
| 12> H 	 35.9045 	 0.734949 	 70.3437
| 13> C 	 33.4803 	 2.20066 	 69.5635
| 14> H 	 32.5158 	 2.36258 	 69.0902
| 15> H 	 34.1666 	 2.70222 	 68.9016
| 16> C 	 33.2163 	 2.73016 	 70.9654
| 17> H 	 32.5586 	 1.99235 	 71.4873
| 18> H 	 34.1823 	 2.76354 	 71.4686
| 19> C 	 32.6413 	 4.1301 	 70.9673
| 20> H 	 31.6007 	 4.32104 	 70.734
| 21> H 	 32.8969 	 4.59989 	 71.8928
| 22> H 	 33.0728 	 4.61701 	 70.154
| 23> S 	 36.2804 	 -2.89205 	 71.8428
| 24> C 	 38.0275 	 -3.16053 	 71.6219
| 25> C 	 38.6465 	 -2.27041 	 70.7525
| 26> C 	 37.6442 	 -1.64995 	 69.9944
| 27> C 	 36.318 	 -1.84352 	 70.4316
| 28> H 	 39.6807 	 -2.26806 	 70.654
| 29> C 	 38.0386 	 -0.730166 	 68.8678
| 30> H 	 37.8286 	 0.312686 	 69.2898
| 31> H 	 37.2996 	 -0.809286 	 68.0844
| 32> C 	 39.4746 	 -0.857957 	 68.4117
| 33> H 	 39.5702 	 -1.7602 	 67.9422
| 34> H 	 40.2586 	 -0.680925 	 69.1153
| 35> C 	 39.7311 	 0.224418 	 67.363
| 36> H 	 40.735 	 0.235839 	 67.0254
| 37> H 	 39.5848 	 1.2246 	 67.7888
| 38> H 	 39.0819 	 0.0605235 	 66.5321
| 39> H 	 31.9073 	 0.0821127 	 68.8743
| 40> H 	 38.5814 	 -3.906 	 72.1492
| 41> *
| 42>
| 43>                          ****END OF INPUT****

CARTESIAN COORDINATES (ANGSTROEM)
---------------------------------
  S     33.559300   -1.838350   69.637800
  C     32.885400   -0.299935   69.226500
  C     33.724600    0.704286   69.603800
  C     34.987600    0.165136   70.028400
  C     35.104400   -1.198820   69.903700
  H     35.904500    0.734949   70.343700
  C     33.480300    2.200660   69.563500
  H     32.515800    2.362580   69.090200
  H     34.166600    2.702220   68.901600
  C     33.216300    2.730160   70.965400
  H     32.558600    1.992350   71.487300
  H     34.182300    2.763540   71.468600
  C     32.641300    4.130100   70.967300
  H     31.600700    4.321040   70.734000
  H     32.896900    4.599890   71.892800
  H     33.072800    4.617010   70.154000
  S     36.280400   -2.892050   71.842800
  C     38.027500   -3.160530   71.621900
  C     38.646500   -2.270410   70.752500
  C     37.644200   -1.649950   69.994400
  C     36.318000   -1.843520   70.431600
  H     39.680700   -2.268060   70.654000
  C     38.038600   -0.730166   68.867800
  H     37.828600    0.312686   69.289800
  H     37.299600   -0.809286   68.084400
  C     39.474600   -0.857957   68.411700
  H     39.570200   -1.760200   67.942200
  H     40.258600   -0.680925   69.115300
  C     39.731100    0.224418   67.363000
  H     40.735000    0.235839   67.025400
  H     39.584800    1.224600   67.788800
  H     39.081900    0.060524   66.532100
  H     31.907300    0.082113   68.874300
  H     38.581400   -3.906000   72.149200

 Total Charge           Charge          ....    0
 Multiplicity           Mult            ....    1
 Number of Electrons    NEL             ....  134
 Basis Dimension        Dim             ....  322

ORBITAL ENERGIES
----------------

  NO   OCC          E(Eh)            E(eV)
   0   2.0000     -88.968340     -2420.9516
   1   2.0000     -88.966325     -2420.8968
   2   2.0000     -10.323563      -280.9184
   3   2.0000     -10.321542      -280.8634
   4   2.0000     -10.315350      -280.6949
   5   2.0000     -10.312796      -280.6254
   6   2.0000     -10.297308      -280.2040
   7   2.0000     -10.296333      -280.1775
   8   2.0000     -10.291554      -280.0474
   9   2.0000     -10.289666      -279.9960
  10   2.0000     -10.289264      -279.9851
  11   2.0000     -10.288279      -279.9583
  12   2.0000     -10.287238      -279.9300
  13   2.0000     -10.276161      -279.6286
  14   2.0000     -10.269590      -279.4498
  15   2.0000     -10.269540      -279.4484
  16   2.0000      -8.083924      -219.9748
  17   2.0000      -8.080235      -219.8744
  18   2.0000      -6.042490      -164.4245
  19   2.0000      -6.038666      -164.3205
  20   2.0000      -6.038377      -164.3126
  21   2.0000      -6.035025      -164.2214
  22   2.0000      -6.034477      -164.2065
  23   2.0000      -6.030982      -164.1114
  24   2.0000      -1.012815       -27.5601
  25   2.0000      -0.985513       -26.8172
  26   2.0000      -0.920221       -25.0405
  27   2.0000      -0.915366       -24.9084
  28   2.0000      -0.872289       -23.7362
  29   2.0000      -0.853694       -23.2302
  30   2.0000      -0.849487       -23.1157
  31   2.0000      -0.812934       -22.1210
  32   2.0000      -0.785573       -21.3765
  33   2.0000      -0.767703       -20.8903
  34   2.0000      -0.710872       -19.3438
  35   2.0000      -0.703662       -19.1476
  36   2.0000      -0.696732       -18.9591
  37   2.0000      -0.654981       -17.8229
  38   2.0000      -0.636499       -17.3200
  39   2.0000      -0.617698       -16.8084
  40   2.0000      -0.596762       -16.2387
  41   2.0000      -0.579508       -15.7692
  42   2.0000      -0.578486       -15.7414
  43   2.0000      -0.567085       -15.4312
  44   2.0000      -0.537282       -14.6202
  45   2.0000      -0.528419       -14.3790
  46   2.0000      -0.513347       -13.9689
  47   2.0000      -0.510714       -13.8972
  48   2.0000      -0.505896       -13.7661
  49   2.0000      -0.498782       -13.5726
  50   2.0000      -0.492338       -13.3972
  51   2.0000      -0.470618       -12.8062
  52   2.0000      -0.468483       -12.7481
  53   2.0000      -0.466989       -12.7074
  54   2.0000      -0.461595       -12.5606
  55   2.0000      -0.453177       -12.3316
  56   2.0000      -0.447119       -12.1667
  57   2.0000      -0.437148       -11.8954
  58   2.0000      -0.431928       -11.7534
  59   2.0000      -0.431008       -11.7283
  60   2.0000      -0.424679       -11.5561
  61   2.0000      -0.415614       -11.3094
  62   2.0000      -0.409973       -11.1559
  63   2.0000      -0.342243        -9.3129
  64   2.0000      -0.330144        -8.9837
  65   2.0000      -0.327873        -8.9219
  66   2.0000      -0.287996        -7.8368
  67   0.0000       0.030725         0.8361
  68   0.0000       0.069914         1.9025
  69   0.0000       0.109023         2.9667
  70   0.0000       0.125082         3.4036
  71   0.0000       0.132133         3.5955

MULLIKEN ATOMIC CHARGES
-----------------------
   0 S :    0.127802
   1 C :   -0.095397
   2 C :   -0.122367
   3 C :   -0.017052
   4 C :   -0.151273
   5 H :    0.037817
   6 C :    0.078722
   7 H :   -0.004974
   8 H :    0.039021
   9 C :   -0.088883
  10 H :    0.044560
  11 H :    0.030228
  12 C :   -0.000749
  13 H :    0.028794
  14 H :    0.033469
  15 H :    0.004562
  16 S :    0.109821
  17 C :   -0.087214
  18 C :   -0.012284
  19 C :   -0.062831
  20 C :   -0.138773
  21 H :    0.004042
  22 C :    0.036918
  23 H :    0.030932
  24 H :    0.031357
  25 C :   -0.035384
  26 H :    0.016204
  27 H :    0.032513
  28 C :   -0.017769
  29 H :    0.016869
  30 H :    0.022437
  31 H :    0.021622
  32 H :    0.044970
  33 H :    0.042290
Sum of atomic charges:    0.0000000

LOEWDIN ATOMIC CHARGES
----------------------
   0 S :    0.438834
   1 C :   -0.212549
   2 C :   -0.067013
   3 C :   -0.062018
   4 C :   -0.225308
   5 H :    0.036238
   6 C :   -0.034673
   7 H :    0.024731
   8 H :    0.029304
   9 C :   -0.035886
  10 H :    0.032439
  11 H :    0.024255
  12 C :   -0.064353
  13 H :    0.026653
  14 H :    0.027340
  15 H :    0.019025
  16 S :    0.388874
  17 C :   -0.161253
  18 C :   -0.062261
  19 C :   -0.055709
  20 C :   -0.205210
  21 H :    0.024986
  22 C :   -0.033888
  23 H :    0.036403
  24 H :    0.032449
  25 C :   -0.032625
  26 H :    0.016250
  27 H :    0.024227
  28 C :   -0.051969
  29 H :    0.017807
  30 H :    0.024022
  31 H :    0.020046
  32 H :    0.041636
  33 H :    0.019196

  Mayer bond orders larger than 0.100000
B(  0-S ,  1-C ) :   1.1383 B(  0-S ,  4-C ) :   1.1508 B(  1-C ,  2-C ) :   1.6255
B(  1-C , 32-H ) :   0.9550 B(  2-C ,  3-C ) :   1.2444 B(  2-C ,  6-C ) :   1.0332
B(  3-C ,  4-C ) :   1.5521 B(  3-C ,  5-H ) :   0.9829 B(  4-C , 20-C ) :   1.0491
B(  6-C ,  7-H ) :   0.9334 B(  6-C ,  8-H ) :   0.9392 B(  6-C ,  9-C ) :   1.0543
B(  9-C , 10-H ) :   0.9548 B(  9-C , 11-H ) :   0.9562 B(  9-C , 12-C ) :   1.0840
B( 12-C , 13-H ) :   0.9716 B( 12-C , 14-H ) :   0.9737 B( 12-C , 15-H ) :   0.9671
B( 16-S , 17-C ) :   1.1655 B( 16-S , 20-C ) :   1.1249 B( 17-C , 18-C ) :   1.5903
B( 17-C , 20-C ) :   0.1019 B( 17-C , 33-H ) :   0.9660 B( 18-C , 19-C ) :   1.2572
B( 18-C , 21-H ) :   0.9936 B( 19-C , 20-C ) :   1.5941 B( 19-C , 22-C ) :   1.0372
B( 22-C , 23-H ) :   0.9243 B( 22-C , 24-H ) :   0.9268 B( 22-C , 25-C ) :   1.0887
B( 25-C , 26-H ) :   0.9507 B( 25-C , 27-H ) :   0.9420 B( 25-C , 28-C ) :   1.0934
B( 28-C , 29-H ) :   0.9722 B( 28-C , 30-H ) :   0.9751 B( 28-C , 31-H ) :   0.9738

Dispersion correction           -0.013618696
FINAL SINGLE POINT ENERGY     -1339.843595032992

DIPOLE MOMENT
-------------
                                X             Y             Z
Electronic contribution:     -7.43447     -25.56882       8.59500
Nuclear contribution   :      7.76371      26.26360      -8.75218
                        -----------------------------------------
Total Dipole Moment    :      0.32924       0.69478      -0.15718
                        -----------------------------------------
Magnitude (a.u.)       :      0.78474
Magnitude (Debye)      :      1.99466

Rotational constants in cm-1:     0.017118     0.008145     0.006591
Rotational constants in MHz :   513.196850   244.183121   197.586651

                             ****ORCA TERMINATED NORMALLY****
TOTAL RUN TIME: 0 days 0 hours 0 minutes 31 seconds 263 msec
