                         Program Version 4.2.1 -  RELEASE  -
|  1> ! wB97X-D3 SP def2-SVP
|  2> %pal
|  3> nprocs 16
|  4> end
|  5>
|  6> * xyz 0 1
|  7> S 	 -56.3714 	 47.2153 	 135.019
|  8> C 	 -55.4807 	 48.3334 	 136.056
|  9> C 	 -56.2282 	 49.4622 	 136.38
| 10> C 	 -57.5485 	 49.4022 	 135.756
| 11> C 	 -57.7574 	 48.3098 	 134.924
| 12> H 	 -58.3348 	 50.0959 	 135.923
| 13> C 	 -55.7759 	 50.6523 	 137.142
| 14> H 	 -55.4467 	 51.4039 	 136.41
| 15> H 	 -54.9456 	 50.3628 	 137.754
| 16> C 	 -56.7211 	 51.4079 	 138.11
| 17> H 	 -57.6329 	 51.7979 	 137.61
| 18> H 	 -56.8895 	 50.8002 	 139.017
| 19> C 	 -55.9986 	 52.6312 	 138.781
| 20> H 	 -56.6362 	 53.0721 	 139.46
| 21> H 	 -55.1794 	 52.3541 	 139.393
| 22> H 	 -55.707 	 53.3878 	 138.014
| 23> S 	 -59.1139 	 46.1601 	 133.768
| 24> C 	 -60.8189 	 46.351 	 133.346
| 25> C 	 -61.0411 	 47.6953 	 133.231
| 26> C 	 -60.0564 	 48.5916 	 133.752
| 27> C 	 -58.8985 	 47.8821 	 134.179
| 28> H 	 -62.0079 	 47.9547 	 132.824
| 29> C 	 -60.1498 	 50.0601 	 133.717
| 30> H 	 -60.3137 	 50.2649 	 132.661
| 31> H 	 -59.1828 	 50.4443 	 133.869
| 32> C 	 -61.0237 	 50.7648 	 134.764
| 33> H 	 -60.567 	 50.6207 	 135.786
| 34> H 	 -61.9486 	 50.2417 	 134.898
| 35> C 	 -61.1782 	 52.2628 	 134.587
| 36> H 	 -60.2018 	 52.7268 	 134.545
| 37> H 	 -61.7503 	 52.6834 	 135.385
| 38> H 	 -61.7289 	 52.4027 	 133.717
| 39> H 	 -54.4061 	 48.2665 	 136.351
| 40> H 	 -61.4773 	 45.5071 	 133.043
| 41> *
| 42>
| 43>                          ****END OF INPUT****

CARTESIAN COORDINATES (ANGSTROEM)
---------------------------------
  S    -56.371400   47.215300  135.019000
  C    -55.480700   48.333400  136.056000
  C    -56.228200   49.462200  136.380000
  C    -57.548500   49.402200  135.756000
  C    -57.757400   48.309800  134.924000
  H    -58.334800   50.095900  135.923000
  C    -55.775900   50.652300  137.142000
  H    -55.446700   51.403900  136.410000
  H    -54.945600   50.362800  137.754000
  C    -56.721100   51.407900  138.110000
  H    -57.632900   51.797900  137.610000
  H    -56.889500   50.800200  139.017000
  C    -55.998600   52.631200  138.781000
  H    -56.636200   53.072100  139.460000
  H    -55.179400   52.354100  139.393000
  H    -55.707000   53.387800  138.014000
  S    -59.113900   46.160100  133.768000
  C    -60.818900   46.351000  133.346000
  C    -61.041100   47.695300  133.231000
  C    -60.056400   48.591600  133.752000
  C    -58.898500   47.882100  134.179000
  H    -62.007900   47.954700  132.824000
  C    -60.149800   50.060100  133.717000
  H    -60.313700   50.264900  132.661000
  H    -59.182800   50.444300  133.869000
  C    -61.023700   50.764800  134.764000
  H    -60.567000   50.620700  135.786000
  H    -61.948600   50.241700  134.898000
  C    -61.178200   52.262800  134.587000
  H    -60.201800   52.726800  134.545000
  H    -61.750300   52.683400  135.385000
  H    -61.728900   52.402700  133.717000
  H    -54.406100   48.266500  136.351000
  H    -61.477300   45.507100  133.043000

 Total Charge           Charge          ....    0
 Multiplicity           Mult            ....    1
 Number of Electrons    NEL             ....  134
 Basis Dimension        Dim             ....  322

ORBITAL ENERGIES
----------------

  NO   OCC          E(Eh)            E(eV)
   0   2.0000     -88.964807     -2420.8555
   1   2.0000     -88.962097     -2420.7817
   2   2.0000     -10.332985      -281.1748
   3   2.0000     -10.332148      -281.1521
   4   2.0000     -10.322878      -280.8998
   5   2.0000     -10.318236      -280.7735
   6   2.0000     -10.306512      -280.4544
   7   2.0000     -10.304397      -280.3969
   8   2.0000     -10.296942      -280.1940
   9   2.0000     -10.294873      -280.1377
  10   2.0000     -10.294176      -280.1188
  11   2.0000     -10.292389      -280.0701
  12   2.0000     -10.288517      -279.9648
  13   2.0000     -10.285670      -279.8873
  14   2.0000     -10.275719      -279.6165
  15   2.0000     -10.272375      -279.5255
  16   2.0000      -8.078988      -219.8404
  17   2.0000      -8.076325      -219.7680
  18   2.0000      -6.037720      -164.2947
  19   2.0000      -6.035014      -164.2211
  20   2.0000      -6.033641      -164.1837
  21   2.0000      -6.030974      -164.1111
  22   2.0000      -6.029488      -164.0707
  23   2.0000      -6.026847      -163.9988
  24   2.0000      -1.003287       -27.3008
  25   2.0000      -0.978339       -26.6219
  26   2.0000      -0.915885       -24.9225
  27   2.0000      -0.912351       -24.8263
  28   2.0000      -0.872972       -23.7548
  29   2.0000      -0.857895       -23.3445
  30   2.0000      -0.843410       -22.9504
  31   2.0000      -0.817470       -22.2445
  32   2.0000      -0.785856       -21.3842
  33   2.0000      -0.773325       -21.0433
  34   2.0000      -0.714562       -19.4442
  35   2.0000      -0.703745       -19.1499
  36   2.0000      -0.693645       -18.8750
  37   2.0000      -0.658081       -17.9073
  38   2.0000      -0.634766       -17.2729
  39   2.0000      -0.623679       -16.9712
  40   2.0000      -0.600912       -16.3517
  41   2.0000      -0.578917       -15.7531
  42   2.0000      -0.565261       -15.3815
  43   2.0000      -0.561101       -15.2683
  44   2.0000      -0.536604       -14.6017
  45   2.0000      -0.526213       -14.3190
  46   2.0000      -0.523061       -14.2332
  47   2.0000      -0.513855       -13.9827
  48   2.0000      -0.503657       -13.7052
  49   2.0000      -0.502375       -13.6703
  50   2.0000      -0.499828       -13.6010
  51   2.0000      -0.484674       -13.1886
  52   2.0000      -0.470008       -12.7896
  53   2.0000      -0.469181       -12.7671
  54   2.0000      -0.464203       -12.6316
  55   2.0000      -0.447079       -12.1656
  56   2.0000      -0.444743       -12.1021
  57   2.0000      -0.441248       -12.0070
  58   2.0000      -0.434179       -11.8146
  59   2.0000      -0.431107       -11.7310
  60   2.0000      -0.417215       -11.3530
  61   2.0000      -0.415320       -11.3014
  62   2.0000      -0.404909       -11.0181
  63   2.0000      -0.362722        -9.8702
  64   2.0000      -0.332215        -9.0400
  65   2.0000      -0.321834        -8.7575
  66   2.0000      -0.278517        -7.5788
  67   0.0000       0.013793         0.3753
  68   0.0000       0.079308         2.1581
  69   0.0000       0.097120         2.6428
  70   0.0000       0.117835         3.2064
  71   0.0000       0.123485         3.3602

MULLIKEN ATOMIC CHARGES
-----------------------
   0 S :    0.091042
   1 C :   -0.128016
   2 C :   -0.058161
   3 C :    0.014293
   4 C :   -0.112939
   5 H :   -0.023568
   6 C :    0.059241
   7 H :    0.045103
   8 H :    0.011282
   9 C :   -0.116502
  10 H :    0.045749
  11 H :    0.042130
  12 C :   -0.031758
  13 H :    0.014887
  14 H :    0.022705
  15 H :    0.035187
  16 S :    0.077048
  17 C :   -0.111813
  18 C :   -0.021204
  19 C :   -0.055262
  20 C :   -0.106366
  21 H :    0.013651
  22 C :    0.079120
  23 H :    0.031687
  24 H :   -0.006057
  25 C :   -0.091769
  26 H :    0.027878
  27 H :    0.017350
  28 C :    0.016051
  29 H :    0.028798
  30 H :    0.029843
  31 H :    0.017838
  32 H :    0.060667
  33 H :    0.081866
Sum of atomic charges:   -0.0000000

LOEWDIN ATOMIC CHARGES
----------------------
   0 S :    0.386144
   1 C :   -0.201911
   2 C :   -0.059915
   3 C :   -0.063518
   4 C :   -0.174183
   5 H :    0.019391
   6 C :   -0.038903
   7 H :    0.038869
   8 H :    0.028402
   9 C :   -0.037286
  10 H :    0.024965
  11 H :    0.030715
  12 C :   -0.058679
  13 H :    0.016505
  14 H :    0.020168
  15 H :    0.027299
  16 S :    0.373985
  17 C :   -0.180943
  18 C :   -0.074577
  19 C :   -0.052463
  20 C :   -0.184560
  21 H :    0.029087
  22 C :   -0.037024
  23 H :    0.038704
  24 H :    0.022731
  25 C :   -0.039293
  26 H :    0.026483
  27 H :    0.017856
  28 C :   -0.051929
  29 H :    0.026291
  30 H :    0.026947
  31 H :    0.017594
  32 H :    0.039127
  33 H :    0.043918

  Mayer bond orders larger than 0.100000
B(  0-S ,  1-C ) :   1.1195 B(  0-S ,  4-C ) :   1.1269 B(  1-C ,  2-C ) :   1.6368
B(  1-C , 32-H ) :   0.9589 B(  2-C ,  3-C ) :   1.2152 B(  2-C ,  6-C ) :   1.0342
B(  3-C ,  4-C ) :   1.5746 B(  3-C ,  5-H ) :   0.9882 B(  4-C , 20-C ) :   1.1164
B(  6-C ,  7-H ) :   0.9327 B(  6-C ,  8-H ) :   0.9374 B(  6-C ,  9-C ) :   1.0709
B(  9-C , 10-H ) :   0.9515 B(  9-C , 11-H ) :   0.9589 B(  9-C , 12-C ) :   1.0858
B( 12-C , 13-H ) :   0.9730 B( 12-C , 14-H ) :   0.9746 B( 12-C , 15-H ) :   0.9746
B( 16-S , 17-C ) :   1.1412 B( 16-S , 20-C ) :   1.1259 B( 17-C , 18-C ) :   1.6011
B( 17-C , 20-C ) :   0.1015 B( 17-C , 33-H ) :   0.9653 B( 18-C , 19-C ) :   1.2395
B( 18-C , 21-H ) :   0.9913 B( 19-C , 20-C ) :   1.5477 B( 19-C , 22-C ) :   1.0544
B( 22-C , 23-H ) :   0.9323 B( 22-C , 24-H ) :   0.9207 B( 22-C , 25-C ) :   1.0481
B( 25-C , 26-H ) :   0.9471 B( 25-C , 27-H ) :   0.9560 B( 25-C , 28-C ) :   1.0862
B( 28-C , 29-H ) :   0.9716 B( 28-C , 30-H ) :   0.9715 B( 28-C , 31-H ) :   0.9748

Dispersion correction           -0.013718410
FINAL SINGLE POINT ENERGY     -1339.867865094062

DIPOLE MOMENT
-------------
                                X             Y             Z
Electronic contribution:      4.43577     -31.21569     -13.12690
Nuclear contribution   :     -4.74887      31.98761      13.33606
                        -----------------------------------------
Total Dipole Moment    :     -0.31310       0.77193       0.20916
                        -----------------------------------------
Magnitude (a.u.)       :      0.85886
Magnitude (Debye)      :      2.18306

Rotational constants in cm-1:     0.016926     0.009325     0.006236
Rotational constants in MHz :   507.436781   279.560195   186.947095

                             ****ORCA TERMINATED NORMALLY****
TOTAL RUN TIME: 0 days 0 hours 0 minutes 33 seconds 686 msec
