                         Program Version 4.2.1 -  RELEASE  -
|  1> ! wB97X-D3 SP def2-SVP
|  2> %pal
|  3> nprocs 16
|  4> end
|  5>
|  6> * xyz 0 1
|  7> S 	 50.8663 	 15.3039 	 78.3244
|  8> C 	 51.7445 	 15.8627 	 79.7295
|  9> C 	 50.9973 	 16.6425 	 80.6176
| 10> C 	 49.6953 	 16.8103 	 80.0445
| 11> C 	 49.4733 	 16.2521 	 78.7804
| 12> H 	 48.9355 	 17.4035 	 80.4857
| 13> C 	 51.4369 	 17.2712 	 81.9545
| 14> H 	 52.4693 	 17.0641 	 82.0437
| 15> H 	 51.0089 	 16.7046 	 82.7921
| 16> C 	 51.1801 	 18.754 	 81.9453
| 17> H 	 51.3419 	 19.2339 	 80.9906
| 18> H 	 50.13 	 18.7803 	 82.1494
| 19> C 	 51.9602 	 19.3823 	 83.1039
| 20> H 	 53.0071 	 19.3975 	 82.9632
| 21> H 	 51.732 	 20.5221 	 83.179
| 22> H 	 51.7816 	 18.9623 	 84.0667
| 23> S 	 48.4126 	 16.3587 	 76.2194
| 24> C 	 46.694 	 16.6248 	 75.9409
| 25> C 	 46.0514 	 16.7619 	 77.1186
| 26> C 	 46.89 	 16.5482 	 78.2744
| 27> C 	 48.2751 	 16.4051 	 77.9672
| 28> H 	 44.9803 	 17.0637 	 77.0772
| 29> C 	 46.3526 	 16.7244 	 79.735
| 30> H 	 47.0404 	 16.3734 	 80.5377
| 31> H 	 45.6031 	 15.9686 	 79.8583
| 32> C 	 45.8342 	 18.1455 	 80.0248
| 33> H 	 45.0529 	 18.4179 	 79.2843
| 34> H 	 46.6436 	 18.8174 	 79.8575
| 35> C 	 45.2185 	 18.4345 	 81.4427
| 36> H 	 44.1322 	 18.043 	 81.4456
| 37> H 	 45.1118 	 19.4797 	 81.7602
| 38> H 	 45.8421 	 17.9545 	 82.1318
| 39> H 	 52.7778 	 15.7955 	 80.0145
| 40> H 	 46.2043 	 16.5402 	 75.0162
| 41> *
| 42>
| 43>                          ****END OF INPUT****

CARTESIAN COORDINATES (ANGSTROEM)
---------------------------------
  S     50.866300   15.303900   78.324400
  C     51.744500   15.862700   79.729500
  C     50.997300   16.642500   80.617600
  C     49.695300   16.810300   80.044500
  C     49.473300   16.252100   78.780400
  H     48.935500   17.403500   80.485700
  C     51.436900   17.271200   81.954500
  H     52.469300   17.064100   82.043700
  H     51.008900   16.704600   82.792100
  C     51.180100   18.754000   81.945300
  H     51.341900   19.233900   80.990600
  H     50.130000   18.780300   82.149400
  C     51.960200   19.382300   83.103900
  H     53.007100   19.397500   82.963200
  H     51.732000   20.522100   83.179000
  H     51.781600   18.962300   84.066700
  S     48.412600   16.358700   76.219400
  C     46.694000   16.624800   75.940900
  C     46.051400   16.761900   77.118600
  C     46.890000   16.548200   78.274400
  C     48.275100   16.405100   77.967200
  H     44.980300   17.063700   77.077200
  C     46.352600   16.724400   79.735000
  H     47.040400   16.373400   80.537700
  H     45.603100   15.968600   79.858300
  C     45.834200   18.145500   80.024800
  H     45.052900   18.417900   79.284300
  H     46.643600   18.817400   79.857500
  C     45.218500   18.434500   81.442700
  H     44.132200   18.043000   81.445600
  H     45.111800   19.479700   81.760200
  H     45.842100   17.954500   82.131800
  H     52.777800   15.795500   80.014500
  H     46.204300   16.540200   75.016200

 Total Charge           Charge          ....    0
 Multiplicity           Mult            ....    1
 Number of Electrons    NEL             ....  134
 Basis Dimension        Dim             ....  322

ORBITAL ENERGIES
----------------

  NO   OCC          E(Eh)            E(eV)
   0   2.0000     -88.973141     -2421.0823
   1   2.0000     -88.962800     -2420.8009
   2   2.0000     -10.335066      -281.2314
   3   2.0000     -10.332842      -281.1709
   4   2.0000     -10.313699      -280.6500
   5   2.0000     -10.313602      -280.6474
   6   2.0000     -10.312998      -280.6310
   7   2.0000     -10.302755      -280.3522
   8   2.0000     -10.297807      -280.2176
   9   2.0000     -10.295300      -280.1494
  10   2.0000     -10.294033      -280.1149
  11   2.0000     -10.291545      -280.0472
  12   2.0000     -10.289079      -279.9801
  13   2.0000     -10.286809      -279.9183
  14   2.0000     -10.284750      -279.8623
  15   2.0000     -10.282187      -279.7925
  16   2.0000      -8.087274      -220.0659
  17   2.0000      -8.077532      -219.8008
  18   2.0000      -6.045939      -164.5184
  19   2.0000      -6.041852      -164.4071
  20   2.0000      -6.037909      -164.2998
  21   2.0000      -6.036099      -164.2506
  22   2.0000      -6.031976      -164.1384
  23   2.0000      -6.028280      -164.0378
  24   2.0000      -1.004472       -27.3331
  25   2.0000      -0.982919       -26.7466
  26   2.0000      -0.921483       -25.0748
  27   2.0000      -0.900628       -24.5073
  28   2.0000      -0.873287       -23.7633
  29   2.0000      -0.849169       -23.1071
  30   2.0000      -0.840085       -22.8599
  31   2.0000      -0.815761       -22.1980
  32   2.0000      -0.784295       -21.3418
  33   2.0000      -0.772765       -21.0280
  34   2.0000      -0.717849       -19.5337
  35   2.0000      -0.701651       -19.0929
  36   2.0000      -0.698035       -18.9945
  37   2.0000      -0.657290       -17.8858
  38   2.0000      -0.637035       -17.3346
  39   2.0000      -0.623802       -16.9745
  40   2.0000      -0.596080       -16.2202
  41   2.0000      -0.580898       -15.8070
  42   2.0000      -0.564996       -15.3743
  43   2.0000      -0.558335       -15.1931
  44   2.0000      -0.528149       -14.3717
  45   2.0000      -0.523326       -14.2404
  46   2.0000      -0.518213       -14.1013
  47   2.0000      -0.510101       -13.8806
  48   2.0000      -0.505635       -13.7590
  49   2.0000      -0.504275       -13.7220
  50   2.0000      -0.492162       -13.3924
  51   2.0000      -0.476380       -12.9630
  52   2.0000      -0.472624       -12.8607
  53   2.0000      -0.465847       -12.6763
  54   2.0000      -0.461596       -12.5607
  55   2.0000      -0.454414       -12.3652
  56   2.0000      -0.449385       -12.2284
  57   2.0000      -0.443373       -12.0648
  58   2.0000      -0.430801       -11.7227
  59   2.0000      -0.424804       -11.5595
  60   2.0000      -0.420347       -11.4382
  61   2.0000      -0.414300       -11.2737
  62   2.0000      -0.406863       -11.0713
  63   2.0000      -0.355907        -9.6847
  64   2.0000      -0.333618        -9.0782
  65   2.0000      -0.329087        -8.9549
  66   2.0000      -0.285498        -7.7688
  67   0.0000       0.019997         0.5441
  68   0.0000       0.084351         2.2953
  69   0.0000       0.107574         2.9272
  70   0.0000       0.120042         3.2665
  71   0.0000       0.128418         3.4944

MULLIKEN ATOMIC CHARGES
-----------------------
   0 S :    0.135950
   1 C :   -0.096796
   2 C :   -0.129969
   3 C :    0.009166
   4 C :   -0.126552
   5 H :   -0.009851
   6 C :    0.109430
   7 H :   -0.009054
   8 H :    0.045183
   9 C :   -0.064691
  10 H :    0.047672
  11 H :    0.029499
  12 C :   -0.050082
  13 H :    0.025527
  14 H :    0.036686
  15 H :    0.026769
  16 S :    0.083573
  17 C :   -0.071938
  18 C :   -0.050853
  19 C :   -0.044334
  20 C :   -0.133715
  21 H :    0.042099
  22 C :    0.052795
  23 H :    0.022755
  24 H :    0.015701
  25 C :   -0.079848
  26 H :    0.030552
  27 H :    0.026320
  28 C :   -0.053392
  29 H :    0.042975
  30 H :    0.041887
  31 H :    0.020443
  32 H :    0.031040
  33 H :    0.045054
Sum of atomic charges:   -0.0000000

LOEWDIN ATOMIC CHARGES
----------------------
   0 S :    0.416659
   1 C :   -0.203167
   2 C :   -0.057312
   3 C :   -0.058708
   4 C :   -0.198514
   5 H :    0.018615
   6 C :   -0.024221
   7 H :    0.018435
   8 H :    0.038310
   9 C :   -0.036558
  10 H :    0.031364
  11 H :    0.024154
  12 C :   -0.064463
  13 H :    0.018460
  14 H :    0.035577
  15 H :    0.021491
  16 S :    0.392629
  17 C :   -0.173870
  18 C :   -0.076926
  19 C :   -0.053740
  20 C :   -0.192537
  21 H :    0.042266
  22 C :   -0.037882
  23 H :    0.031150
  24 H :    0.025681
  25 C :   -0.042297
  26 H :    0.025223
  27 H :    0.018433
  28 C :   -0.067872
  29 H :    0.035529
  30 H :    0.029403
  31 H :    0.013258
  32 H :    0.026865
  33 H :    0.024565

  Mayer bond orders larger than 0.100000
B(  0-S ,  1-C ) :   1.1385 B(  0-S ,  4-C ) :   1.1372 B(  1-C ,  2-C ) :   1.6258
B(  1-C , 32-H ) :   0.9551 B(  2-C ,  3-C ) :   1.2502 B(  2-C ,  6-C ) :   1.0160
B(  3-C ,  4-C ) :   1.5569 B(  3-C ,  5-H ) :   0.9952 B(  4-C , 20-C ) :   1.0895
B(  6-C ,  7-H ) :   0.9364 B(  6-C ,  8-H ) :   0.9332 B(  6-C ,  9-C ) :   1.0492
B(  9-C , 10-H ) :   0.9633 B(  9-C , 11-H ) :   0.9496 B(  9-C , 12-C ) :   1.0871
B( 12-C , 13-H ) :   0.9769 B( 12-C , 14-H ) :   0.9733 B( 12-C , 15-H ) :   0.9719
B( 16-S , 17-C ) :   1.1446 B( 16-S , 20-C ) :   1.1372 B( 17-C , 18-C ) :   1.6272
B( 17-C , 33-H ) :   0.9723 B( 18-C , 19-C ) :   1.2374 B( 18-C , 21-H ) :   0.9811
B( 19-C , 20-C ) :   1.5618 B( 19-C , 22-C ) :   1.0397 B( 22-C , 23-H ) :   0.9380
B( 22-C , 24-H ) :   0.9295 B( 22-C , 25-C ) :   1.0509 B( 25-C , 26-H ) :   0.9580
B( 25-C , 27-H ) :   0.9577 B( 25-C , 28-C ) :   1.0705 B( 28-C , 29-H ) :   0.9772
B( 28-C , 30-H ) :   0.9769 B( 28-C , 31-H ) :   0.9778

Dispersion correction           -0.013814938
FINAL SINGLE POINT ENERGY     -1339.864526752879

DIPOLE MOMENT
-------------
                                X             Y             Z
Electronic contribution:      6.31374     -16.97521     -27.59059
Nuclear contribution   :     -6.54713      17.37083      28.21976
                        -----------------------------------------
Total Dipole Moment    :     -0.23338       0.39562       0.62917
                        -----------------------------------------
Magnitude (a.u.)       :      0.77900
Magnitude (Debye)      :      1.98006

Rotational constants in cm-1:     0.016176     0.009343     0.006385
Rotational constants in MHz :   484.933757   280.091440   191.413285

                             ****ORCA TERMINATED NORMALLY****
TOTAL RUN TIME: 0 days 0 hours 0 minutes 30 seconds 31 msec
