                         Program Version 4.2.1 -  RELEASE  -
|  1> ! wB97X-D3 SP def2-SVP
|  2> %pal
|  3> nprocs 16
|  4> end
|  5>
|  6> * xyz 0 1
|  7> S 	 -32.4143 	 2.44016 	 98.4544
|  8> C 	 -31.2733 	 2.20613 	 97.1576
|  9> C 	 -31.8737 	 2.04145 	 95.8712
| 10> C 	 -33.3098 	 2.05525 	 96.0581
| 11> C 	 -33.7695 	 2.15626 	 97.3937
| 12> H 	 -34.0509 	 1.83166 	 95.3112
| 13> C 	 -31.0573 	 1.9546 	 94.5425
| 14> H 	 -30.5336 	 2.84285 	 94.2122
| 15> H 	 -31.8789 	 1.71327 	 93.9164
| 16> C 	 -30.0268 	 0.787268 	 94.5768
| 17> H 	 -29.4254 	 0.810939 	 95.4656
| 18> H 	 -30.6217 	 -0.179702 	 94.7144
| 19> C 	 -29.0974 	 0.833041 	 93.3783
| 20> H 	 -28.5307 	 -0.112173 	 93.1581
| 21> H 	 -29.6923 	 1.06589 	 92.5245
| 22> H 	 -28.3018 	 1.65004 	 93.4373
| 23> S 	 -35.8541 	 3.44522 	 98.6128
| 24> C 	 -37.3518 	 2.61055 	 98.9058
| 25> C 	 -37.2921 	 1.29532 	 98.4869
| 26> C 	 -36.0834 	 1.00019 	 97.7351
| 27> C 	 -35.1276 	 2.02413 	 97.8694
| 28> H 	 -38.1314 	 0.614456 	 98.7762
| 29> C 	 -35.7501 	 -0.359573 	 97.2448
| 30> H 	 -34.8758 	 -0.269429 	 96.6599
| 31> H 	 -36.554 	 -0.59297 	 96.5786
| 32> C 	 -35.6611 	 -1.49807 	 98.183
| 33> H 	 -35.2762 	 -2.44357 	 97.7444
| 34> H 	 -36.6252 	 -1.75869 	 98.619
| 35> C 	 -34.8855 	 -1.21143 	 99.4518
| 36> H 	 -34.4982 	 -2.22151 	 99.8373
| 37> H 	 -35.3733 	 -0.731798 	 100.301
| 38> H 	 -34.0124 	 -0.607191 	 99.1626
| 39> H 	 -30.1881 	 2.23996 	 97.2467
| 40> H 	 -38.1602 	 3.06029 	 99.5013
| 41> *
| 42>
| 43>                          ****END OF INPUT****

CARTESIAN COORDINATES (ANGSTROEM)
---------------------------------
  S    -32.414300    2.440160   98.454400
  C    -31.273300    2.206130   97.157600
  C    -31.873700    2.041450   95.871200
  C    -33.309800    2.055250   96.058100
  C    -33.769500    2.156260   97.393700
  H    -34.050900    1.831660   95.311200
  C    -31.057300    1.954600   94.542500
  H    -30.533600    2.842850   94.212200
  H    -31.878900    1.713270   93.916400
  C    -30.026800    0.787268   94.576800
  H    -29.425400    0.810939   95.465600
  H    -30.621700   -0.179702   94.714400
  C    -29.097400    0.833041   93.378300
  H    -28.530700   -0.112173   93.158100
  H    -29.692300    1.065890   92.524500
  H    -28.301800    1.650040   93.437300
  S    -35.854100    3.445220   98.612800
  C    -37.351800    2.610550   98.905800
  C    -37.292100    1.295320   98.486900
  C    -36.083400    1.000190   97.735100
  C    -35.127600    2.024130   97.869400
  H    -38.131400    0.614456   98.776200
  C    -35.750100   -0.359573   97.244800
  H    -34.875800   -0.269429   96.659900
  H    -36.554000   -0.592970   96.578600
  C    -35.661100   -1.498070   98.183000
  H    -35.276200   -2.443570   97.744400
  H    -36.625200   -1.758690   98.619000
  C    -34.885500   -1.211430   99.451800
  H    -34.498200   -2.221510   99.837300
  H    -35.373300   -0.731798  100.301000
  H    -34.012400   -0.607191   99.162600
  H    -30.188100    2.239960   97.246700
  H    -38.160200    3.060290   99.501300

 Total Charge           Charge          ....    0
 Multiplicity           Mult            ....    1
 Number of Electrons    NEL             ....  134
 Basis Dimension        Dim             ....  322

ORBITAL ENERGIES
----------------

  NO   OCC          E(Eh)            E(eV)
   0   2.0000     -88.973089     -2421.0808
   1   2.0000     -88.962928     -2420.8043
   2   2.0000     -10.331195      -281.1261
   3   2.0000     -10.328851      -281.0623
   4   2.0000     -10.319393      -280.8050
   5   2.0000     -10.318931      -280.7924
   6   2.0000     -10.312191      -280.6090
   7   2.0000     -10.307667      -280.4859
   8   2.0000     -10.301434      -280.3163
   9   2.0000     -10.300702      -280.2963
  10   2.0000     -10.298677      -280.2412
  11   2.0000     -10.293121      -280.0900
  12   2.0000     -10.286227      -279.9025
  13   2.0000     -10.280373      -279.7432
  14   2.0000     -10.277305      -279.6597
  15   2.0000     -10.271759      -279.5088
  16   2.0000      -8.087346      -220.0679
  17   2.0000      -8.078003      -219.8136
  18   2.0000      -6.045779      -164.5140
  19   2.0000      -6.041750      -164.4044
  20   2.0000      -6.038377      -164.3126
  21   2.0000      -6.036506      -164.2617
  22   2.0000      -6.032393      -164.1498
  23   2.0000      -6.028821      -164.0526
  24   2.0000      -1.003839       -27.3159
  25   2.0000      -0.979979       -26.6666
  26   2.0000      -0.918141       -24.9839
  27   2.0000      -0.911383       -24.8000
  28   2.0000      -0.867686       -23.6109
  29   2.0000      -0.850403       -23.1406
  30   2.0000      -0.844200       -22.9719
  31   2.0000      -0.810184       -22.0462
  32   2.0000      -0.784553       -21.3488
  33   2.0000      -0.770928       -20.9780
  34   2.0000      -0.706360       -19.2210
  35   2.0000      -0.700068       -19.0498
  36   2.0000      -0.688866       -18.7450
  37   2.0000      -0.654428       -17.8079
  38   2.0000      -0.640890       -17.4395
  39   2.0000      -0.615854       -16.7582
  40   2.0000      -0.595564       -16.2061
  41   2.0000      -0.567427       -15.4405
  42   2.0000      -0.563602       -15.3364
  43   2.0000      -0.557224       -15.1628
  44   2.0000      -0.547195       -14.8899
  45   2.0000      -0.526038       -14.3142
  46   2.0000      -0.518403       -14.1065
  47   2.0000      -0.506405       -13.7800
  48   2.0000      -0.502876       -13.6840
  49   2.0000      -0.500767       -13.6266
  50   2.0000      -0.493901       -13.4397
  51   2.0000      -0.474999       -12.9254
  52   2.0000      -0.468028       -12.7357
  53   2.0000      -0.464006       -12.6263
  54   2.0000      -0.458469       -12.4756
  55   2.0000      -0.447099       -12.1662
  56   2.0000      -0.442602       -12.0438
  57   2.0000      -0.437424       -11.9029
  58   2.0000      -0.431712       -11.7475
  59   2.0000      -0.429750       -11.6941
  60   2.0000      -0.417806       -11.3691
  61   2.0000      -0.413198       -11.2437
  62   2.0000      -0.399562       -10.8726
  63   2.0000      -0.340533        -9.2664
  64   2.0000      -0.334136        -9.0923
  65   2.0000      -0.327581        -8.9139
  66   2.0000      -0.293584        -7.9888
  67   0.0000       0.030708         0.8356
  68   0.0000       0.060333         1.6418
  69   0.0000       0.114471         3.1149
  70   0.0000       0.119477         3.2511
  71   0.0000       0.123484         3.3602

MULLIKEN ATOMIC CHARGES
-----------------------
   0 S :    0.140538
   1 C :   -0.122922
   2 C :   -0.125923
   3 C :    0.060423
   4 C :   -0.196824
   5 H :    0.010197
   6 C :    0.102490
   7 H :    0.046682
   8 H :    0.016999
   9 C :   -0.104349
  10 H :    0.025869
  11 H :    0.041064
  12 C :   -0.063235
  13 H :    0.046880
  14 H :    0.024790
  15 H :    0.041281
  16 S :    0.102739
  17 C :   -0.105317
  18 C :   -0.055590
  19 C :   -0.052008
  20 C :   -0.164192
  21 H :    0.042600
  22 C :    0.134121
  23 H :    0.009289
  24 H :    0.016808
  25 C :   -0.065983
  26 H :    0.037427
  27 H :    0.014325
  28 C :   -0.076104
  29 H :    0.030785
  30 H :    0.041581
  31 H :    0.023878
  32 H :    0.052491
  33 H :    0.069190
Sum of atomic charges:    0.0000000

LOEWDIN ATOMIC CHARGES
----------------------
   0 S :    0.428925
   1 C :   -0.200143
   2 C :   -0.061635
   3 C :   -0.059455
   4 C :   -0.213964
   5 H :    0.026994
   6 C :   -0.022367
   7 H :    0.032319
   8 H :    0.027791
   9 C :   -0.045640
  10 H :    0.016547
  11 H :    0.034445
  12 C :   -0.074957
  13 H :    0.033768
  14 H :    0.019472
  15 H :    0.032840
  16 S :    0.403460
  17 C :   -0.190713
  18 C :   -0.077629
  19 C :   -0.047765
  20 C :   -0.200305
  21 H :    0.041748
  22 C :   -0.036603
  23 H :    0.025643
  24 H :    0.034708
  25 C :   -0.046978
  26 H :    0.033236
  27 H :    0.021762
  28 C :   -0.073236
  29 H :    0.031671
  30 H :    0.024406
  31 H :    0.020977
  32 H :    0.026596
  33 H :    0.034084

  Mayer bond orders larger than 0.100000
B(  0-S ,  1-C ) :   1.1699 B(  0-S ,  4-C ) :   1.1577 B(  1-C ,  2-C ) :   1.5699
B(  1-C ,  4-C ) :   0.1066 B(  1-C , 32-H ) :   0.9656 B(  2-C ,  3-C ) :   1.2781
B(  2-C ,  6-C ) :   0.9939 B(  3-C ,  4-C ) :   1.5448 B(  3-C ,  5-H ) :   0.9883
B(  4-C , 20-C ) :   1.0393 B(  6-C ,  7-H ) :   0.9511 B(  6-C ,  8-H ) :   0.9349
B(  6-C ,  9-C ) :   1.0546 B(  9-C , 10-H ) :   0.9643 B(  9-C , 11-H ) :   0.9540
B(  9-C , 12-C ) :   1.0736 B( 12-C , 13-H ) :   0.9738 B( 12-C , 14-H ) :   0.9739
B( 12-C , 15-H ) :   0.9727 B( 16-S , 17-C ) :   1.1571 B( 16-S , 20-C ) :   1.1462
B( 17-C , 18-C ) :   1.6225 B( 17-C , 33-H ) :   0.9640 B( 18-C , 19-C ) :   1.2072
B( 18-C , 21-H ) :   0.9832 B( 19-C , 20-C ) :   1.5800 B( 19-C , 22-C ) :   1.0669
B( 22-C , 23-H ) :   0.9243 B( 22-C , 24-H ) :   0.9109 B( 22-C , 25-C ) :   1.0908
B( 25-C , 26-H ) :   0.9548 B( 25-C , 27-H ) :   0.9464 B( 25-C , 28-C ) :   1.0757
B( 28-C , 29-H ) :   0.9741 B( 28-C , 30-H ) :   0.9730 B( 28-C , 31-H ) :   0.9767

Dispersion correction           -0.014735478
FINAL SINGLE POINT ENERGY     -1339.868999003481

DIPOLE MOMENT
-------------
                                X             Y             Z
Electronic contribution:    -11.03143      19.22748      13.11469
Nuclear contribution   :     11.10026     -19.66468     -13.46190
                        -----------------------------------------
Total Dipole Moment    :      0.06883      -0.43720      -0.34721
                        -----------------------------------------
Magnitude (a.u.)       :      0.56253
Magnitude (Debye)      :      1.42983

Rotational constants in cm-1:     0.022932     0.007457     0.006577
Rotational constants in MHz :   687.477683   223.565074   197.176829

                             ****ORCA TERMINATED NORMALLY****
TOTAL RUN TIME: 0 days 0 hours 0 minutes 30 seconds 437 msec
