                         Program Version 4.2.1 -  RELEASE  -
|  1> ! wB97X-D3 SP def2-SVP
|  2> %pal
|  3> nprocs 16
|  4> end
|  5>
|  6> * xyz 0 1
|  7> S 	 33.9129 	 16.0093 	 47.7786
|  8> C 	 34.3711 	 17.4609 	 48.656
|  9> C 	 33.9509 	 17.4431 	 49.9963
| 10> C 	 33.3618 	 16.1811 	 50.2505
| 11> C 	 33.3494 	 15.2656 	 49.2505
| 12> H 	 32.9226 	 15.8378 	 51.1944
| 13> C 	 34.1401 	 18.5709 	 51.145
| 14> H 	 34.5816 	 19.4279 	 50.7228
| 15> H 	 34.8745 	 18.1475 	 51.8229
| 16> C 	 32.7812 	 18.8363 	 51.8175
| 17> H 	 32.0534 	 19.0601 	 51.0442
| 18> H 	 32.4726 	 18.0053 	 52.4068
| 19> C 	 32.8651 	 20.0025 	 52.8121
| 20> H 	 32.9785 	 20.9066 	 52.2319
| 21> H 	 31.9839 	 20.1182 	 53.3718
| 22> H 	 33.6299 	 19.9551 	 53.5633
| 23> S 	 31.1942 	 13.687 	 48.7713
| 24> C 	 31.2222 	 11.9316 	 49.2751
| 25> C 	 32.5111 	 11.6366 	 49.7057
| 26> C 	 33.3533 	 12.7938 	 49.8819
| 27> C 	 32.8402 	 13.8986 	 49.2614
| 28> H 	 32.6917 	 10.5888 	 50.0043
| 29> C 	 34.7159 	 12.7065 	 50.4653
| 30> H 	 34.6266 	 12.1178 	 51.4105
| 31> H 	 35.1356 	 13.6928 	 50.6143
| 32> C 	 35.663 	 11.8397 	 49.588
| 33> H 	 35.2274 	 10.8618 	 49.3686
| 34> H 	 36.5674 	 11.7128 	 50.175
| 35> C 	 36.1138 	 12.5171 	 48.2507
| 36> H 	 36.7914 	 13.3604 	 48.4666
| 37> H 	 35.2362 	 12.9272 	 47.7557
| 38> H 	 36.5978 	 11.8236 	 47.5408
| 39> H 	 34.8134 	 18.3973 	 48.2354
| 40> H 	 30.4401 	 11.2557 	 49.1867
| 41> *
| 42>
| 43>                          ****END OF INPUT****

CARTESIAN COORDINATES (ANGSTROEM)
---------------------------------
  S     33.912900   16.009300   47.778600
  C     34.371100   17.460900   48.656000
  C     33.950900   17.443100   49.996300
  C     33.361800   16.181100   50.250500
  C     33.349400   15.265600   49.250500
  H     32.922600   15.837800   51.194400
  C     34.140100   18.570900   51.145000
  H     34.581600   19.427900   50.722800
  H     34.874500   18.147500   51.822900
  C     32.781200   18.836300   51.817500
  H     32.053400   19.060100   51.044200
  H     32.472600   18.005300   52.406800
  C     32.865100   20.002500   52.812100
  H     32.978500   20.906600   52.231900
  H     31.983900   20.118200   53.371800
  H     33.629900   19.955100   53.563300
  S     31.194200   13.687000   48.771300
  C     31.222200   11.931600   49.275100
  C     32.511100   11.636600   49.705700
  C     33.353300   12.793800   49.881900
  C     32.840200   13.898600   49.261400
  H     32.691700   10.588800   50.004300
  C     34.715900   12.706500   50.465300
  H     34.626600   12.117800   51.410500
  H     35.135600   13.692800   50.614300
  C     35.663000   11.839700   49.588000
  H     35.227400   10.861800   49.368600
  H     36.567400   11.712800   50.175000
  C     36.113800   12.517100   48.250700
  H     36.791400   13.360400   48.466600
  H     35.236200   12.927200   47.755700
  H     36.597800   11.823600   47.540800
  H     34.813400   18.397300   48.235400
  H     30.440100   11.255700   49.186700

 Total Charge           Charge          ....    0
 Multiplicity           Mult            ....    1
 Number of Electrons    NEL             ....  134
 Basis Dimension        Dim             ....  322

ORBITAL ENERGIES
----------------

  NO   OCC          E(Eh)            E(eV)
   0   2.0000     -88.966397     -2420.8987
   1   2.0000     -88.961856     -2420.7752
   2   2.0000     -10.322579      -280.8916
   3   2.0000     -10.321575      -280.8643
   4   2.0000     -10.320828      -280.8440
   5   2.0000     -10.318890      -280.7913
   6   2.0000     -10.306430      -280.4522
   7   2.0000     -10.301245      -280.3111
   8   2.0000     -10.300364      -280.2872
   9   2.0000     -10.300094      -280.2798
  10   2.0000     -10.290640      -280.0225
  11   2.0000     -10.289655      -279.9957
  12   2.0000     -10.286418      -279.9077
  13   2.0000     -10.285387      -279.8796
  14   2.0000     -10.272559      -279.5305
  15   2.0000     -10.271148      -279.4922
  16   2.0000      -8.080854      -219.8912
  17   2.0000      -8.076010      -219.7594
  18   2.0000      -6.039341      -164.3388
  19   2.0000      -6.035398      -164.2315
  20   2.0000      -6.034668      -164.2117
  21   2.0000      -6.031658      -164.1298
  22   2.0000      -6.030641      -164.1021
  23   2.0000      -6.026587      -163.9918
  24   2.0000      -1.006839       -27.3975
  25   2.0000      -0.981112       -26.6974
  26   2.0000      -0.909070       -24.7370
  27   2.0000      -0.904400       -24.6100
  28   2.0000      -0.869410       -23.6578
  29   2.0000      -0.845993       -23.0206
  30   2.0000      -0.838386       -22.8137
  31   2.0000      -0.813755       -22.1434
  32   2.0000      -0.784338       -21.3429
  33   2.0000      -0.770555       -20.9679
  34   2.0000      -0.708944       -19.2913
  35   2.0000      -0.694890       -18.9089
  36   2.0000      -0.694281       -18.8923
  37   2.0000      -0.658034       -17.9060
  38   2.0000      -0.642825       -17.4922
  39   2.0000      -0.615976       -16.7616
  40   2.0000      -0.597259       -16.2522
  41   2.0000      -0.574518       -15.6334
  42   2.0000      -0.561531       -15.2800
  43   2.0000      -0.548225       -14.9180
  44   2.0000      -0.535399       -14.5689
  45   2.0000      -0.524959       -14.2849
  46   2.0000      -0.520366       -14.1599
  47   2.0000      -0.508819       -13.8457
  48   2.0000      -0.499972       -13.6049
  49   2.0000      -0.496397       -13.5076
  50   2.0000      -0.489752       -13.3268
  51   2.0000      -0.477715       -12.9993
  52   2.0000      -0.467207       -12.7133
  53   2.0000      -0.465097       -12.6559
  54   2.0000      -0.458889       -12.4870
  55   2.0000      -0.444483       -12.0950
  56   2.0000      -0.438577       -11.9343
  57   2.0000      -0.434809       -11.8318
  58   2.0000      -0.431592       -11.7442
  59   2.0000      -0.430077       -11.7030
  60   2.0000      -0.426445       -11.6041
  61   2.0000      -0.416177       -11.3248
  62   2.0000      -0.410707       -11.1759
  63   2.0000      -0.339379        -9.2350
  64   2.0000      -0.330288        -8.9876
  65   2.0000      -0.319245        -8.6871
  66   2.0000      -0.307502        -8.3676
  67   0.0000       0.046057         1.2533
  68   0.0000       0.055522         1.5108
  69   0.0000       0.116319         3.1652
  70   0.0000       0.117981         3.2104
  71   0.0000       0.122579         3.3356

MULLIKEN ATOMIC CHARGES
-----------------------
   0 S :    0.119202
   1 C :   -0.141906
   2 C :   -0.101901
   3 C :    0.040001
   4 C :   -0.198260
   5 H :    0.011002
   6 C :    0.111332
   7 H :    0.005245
   8 H :    0.039978
   9 C :   -0.091747
  10 H :    0.043405
  11 H :    0.032483
  12 C :   -0.015651
  13 H :    0.022964
  14 H :    0.018230
  15 H :    0.022350
  16 S :    0.096048
  17 C :   -0.078424
  18 C :   -0.039148
  19 C :   -0.033890
  20 C :   -0.149232
  21 H :    0.035372
  22 C :    0.077059
  23 H :    0.033313
  24 H :    0.031490
  25 C :   -0.084256
  26 H :    0.030892
  27 H :    0.028723
  28 C :   -0.060913
  29 H :    0.034229
  30 H :    0.028752
  31 H :    0.039450
  32 H :    0.058053
  33 H :    0.035755
Sum of atomic charges:   -0.0000000

LOEWDIN ATOMIC CHARGES
----------------------
   0 S :    0.410345
   1 C :   -0.207224
   2 C :   -0.064092
   3 C :   -0.065793
   4 C :   -0.206598
   5 H :    0.032285
   6 C :   -0.010608
   7 H :    0.019493
   8 H :    0.033154
   9 C :   -0.034179
  10 H :    0.030366
  11 H :    0.021102
  12 C :   -0.060029
  13 H :    0.023596
  14 H :    0.020067
  15 H :    0.022042
  16 S :    0.381510
  17 C :   -0.149481
  18 C :   -0.067387
  19 C :   -0.056350
  20 C :   -0.212208
  21 H :    0.036513
  22 C :   -0.029075
  23 H :    0.039333
  24 H :    0.030645
  25 C :   -0.035945
  26 H :    0.021104
  27 H :    0.021730
  28 C :   -0.070153
  29 H :    0.026546
  30 H :    0.019466
  31 H :    0.027914
  32 H :    0.035874
  33 H :    0.016034

  Mayer bond orders larger than 0.100000
B(  0-S ,  1-C ) :   1.1511 B(  0-S ,  4-C ) :   1.1426 B(  1-C ,  2-C ) :   1.6233
B(  1-C ,  4-C ) :   0.1017 B(  1-C , 32-H ) :   0.9591 B(  2-C ,  3-C ) :   1.2330
B(  2-C ,  6-C ) :   0.9999 B(  3-C ,  4-C ) :   1.6207 B(  3-C ,  5-H ) :   0.9909
B(  4-C , 20-C ) :   0.9925 B(  6-C ,  7-H ) :   0.9458 B(  6-C ,  8-H ) :   0.9427
B(  6-C ,  9-C ) :   1.0632 B(  9-C , 10-H ) :   0.9606 B(  9-C , 11-H ) :   0.9527
B(  9-C , 12-C ) :   1.0924 B( 12-C , 13-H ) :   0.9753 B( 12-C , 14-H ) :   0.9732
B( 12-C , 15-H ) :   0.9734 B( 16-S , 17-C ) :   1.1307 B( 16-S , 20-C ) :   1.1385
B( 17-C , 18-C ) :   1.6474 B( 17-C , 33-H ) :   0.9781 B( 18-C , 19-C ) :   1.1895
B( 18-C , 21-H ) :   0.9789 B( 19-C , 20-C ) :   1.6292 B( 19-C , 22-C ) :   1.0705
B( 22-C , 23-H ) :   0.9207 B( 22-C , 24-H ) :   0.9335 B( 22-C , 25-C ) :   1.0754
B( 25-C , 26-H ) :   0.9571 B( 25-C , 27-H ) :   0.9579 B( 25-C , 28-C ) :   1.0665
B( 28-C , 29-H ) :   0.9761 B( 28-C , 30-H ) :   0.9767 B( 28-C , 31-H ) :   0.9751

Dispersion correction           -0.014862045
FINAL SINGLE POINT ENERGY     -1339.879136636597

DIPOLE MOMENT
-------------
                                X             Y             Z
Electronic contribution:    -11.39722      -6.88016     -14.53124
Nuclear contribution   :     11.57383       6.92258      15.18092
                        -----------------------------------------
Total Dipole Moment    :      0.17661       0.04242       0.64969
                        -----------------------------------------
Magnitude (a.u.)       :      0.67460
Magnitude (Debye)      :      1.71470

Rotational constants in cm-1:     0.020371     0.007812     0.007180
Rotational constants in MHz :   610.722189   234.188052   215.259355

                             ****ORCA TERMINATED NORMALLY****
TOTAL RUN TIME: 0 days 0 hours 0 minutes 32 seconds 981 msec
