                         Program Version 4.2.1 -  RELEASE  -
|  1> ! wB97X-D3 SP def2-SVP
|  2> %pal
|  3> nprocs 16
|  4> end
|  5>
|  6> * xyz 0 1
|  7> S 	 -3.13013 	 -14.8853 	 95.1178
|  8> C 	 -4.84904 	 -15.0057 	 95.1853
|  9> C 	 -5.46618 	 -14.6212 	 93.9655
| 10> C 	 -4.53808 	 -14.3064 	 92.9559
| 11> C 	 -3.21388 	 -14.4364 	 93.368
| 12> H 	 -4.779 	 -13.8113 	 91.9707
| 13> C 	 -6.96276 	 -14.5115 	 93.6933
| 14> H 	 -7.39976 	 -15.4942 	 93.8361
| 15> H 	 -7.11599 	 -14.3053 	 92.6405
| 16> C 	 -7.74513 	 -13.5459 	 94.5955
| 17> H 	 -7.63585 	 -12.6162 	 94.2351
| 18> H 	 -8.84257 	 -13.7349 	 94.6513
| 19> C 	 -7.56586 	 -13.5171 	 96.1214
| 20> H 	 -8.33252 	 -12.8984 	 96.5345
| 21> H 	 -7.56925 	 -14.5308 	 96.5564
| 22> H 	 -6.67956 	 -13.0992 	 96.4456
| 23> S 	 -0.90084 	 -12.9587 	 93.1759
| 24> C 	 0.0206228 	 -13.0366 	 91.7038
| 25> C 	 -0.74783 	 -13.6565 	 90.7454
| 26> C 	 -1.87813 	 -14.3872 	 91.2458
| 27> C 	 -2.04063 	 -14.1449 	 92.5718
| 28> H 	 -0.349341 	 -13.7238 	 89.7242
| 29> C 	 -2.66432 	 -15.2162 	 90.3126
| 30> H 	 -3.24362 	 -16.0759 	 90.7572
| 31> H 	 -1.8778 	 -15.7402 	 89.7114
| 32> C 	 -3.38482 	 -14.4023 	 89.2785
| 33> H 	 -2.75216 	 -13.58 	 89.0945
| 34> H 	 -4.22665 	 -13.992 	 89.781
| 35> C 	 -3.74751 	 -15.1357 	 87.9487
| 36> H 	 -4.28717 	 -16.0399 	 88.1141
| 37> H 	 -2.82593 	 -15.3371 	 87.3991
| 38> H 	 -4.36387 	 -14.4327 	 87.415
| 39> H 	 -5.38378 	 -15.2807 	 96.0615
| 40> H 	 0.906882 	 -12.3859 	 91.4538
| 41> *
| 42>
| 43>                          ****END OF INPUT****

CARTESIAN COORDINATES (ANGSTROEM)
---------------------------------
  S     -3.130130  -14.885300   95.117800
  C     -4.849040  -15.005700   95.185300
  C     -5.466180  -14.621200   93.965500
  C     -4.538080  -14.306400   92.955900
  C     -3.213880  -14.436400   93.368000
  H     -4.779000  -13.811300   91.970700
  C     -6.962760  -14.511500   93.693300
  H     -7.399760  -15.494200   93.836100
  H     -7.115990  -14.305300   92.640500
  C     -7.745130  -13.545900   94.595500
  H     -7.635850  -12.616200   94.235100
  H     -8.842570  -13.734900   94.651300
  C     -7.565860  -13.517100   96.121400
  H     -8.332520  -12.898400   96.534500
  H     -7.569250  -14.530800   96.556400
  H     -6.679560  -13.099200   96.445600
  S     -0.900840  -12.958700   93.175900
  C      0.020623  -13.036600   91.703800
  C     -0.747830  -13.656500   90.745400
  C     -1.878130  -14.387200   91.245800
  C     -2.040630  -14.144900   92.571800
  H     -0.349341  -13.723800   89.724200
  C     -2.664320  -15.216200   90.312600
  H     -3.243620  -16.075900   90.757200
  H     -1.877800  -15.740200   89.711400
  C     -3.384820  -14.402300   89.278500
  H     -2.752160  -13.580000   89.094500
  H     -4.226650  -13.992000   89.781000
  C     -3.747510  -15.135700   87.948700
  H     -4.287170  -16.039900   88.114100
  H     -2.825930  -15.337100   87.399100
  H     -4.363870  -14.432700   87.415000
  H     -5.383780  -15.280700   96.061500
  H      0.906882  -12.385900   91.453800

 Total Charge           Charge          ....    0
 Multiplicity           Mult            ....    1
 Number of Electrons    NEL             ....  134
 Basis Dimension        Dim             ....  322

ORBITAL ENERGIES
----------------

  NO   OCC          E(Eh)            E(eV)
   0   2.0000     -88.969559     -2420.9848
   1   2.0000     -88.961696     -2420.7708
   2   2.0000     -10.330603      -281.1100
   3   2.0000     -10.320903      -280.8461
   4   2.0000     -10.319533      -280.8088
   5   2.0000     -10.314284      -280.6659
   6   2.0000     -10.302512      -280.3456
   7   2.0000     -10.298287      -280.2306
   8   2.0000     -10.298096      -280.2255
   9   2.0000     -10.293353      -280.0964
  10   2.0000     -10.291947      -280.0581
  11   2.0000     -10.290496      -280.0186
  12   2.0000     -10.280018      -279.7335
  13   2.0000     -10.279788      -279.7273
  14   2.0000     -10.278161      -279.6830
  15   2.0000     -10.270524      -279.4752
  16   2.0000      -8.083504      -219.9633
  17   2.0000      -8.076987      -219.7860
  18   2.0000      -6.041923      -164.4091
  19   2.0000      -6.038113      -164.3054
  20   2.0000      -6.035537      -164.2353
  21   2.0000      -6.034445      -164.2056
  22   2.0000      -6.031600      -164.1282
  23   2.0000      -6.027468      -164.0157
  24   2.0000      -1.008254       -27.4360
  25   2.0000      -0.982763       -26.7423
  26   2.0000      -0.919170       -25.0119
  27   2.0000      -0.909401       -24.7461
  28   2.0000      -0.869234       -23.6531
  29   2.0000      -0.855504       -23.2795
  30   2.0000      -0.849291       -23.1104
  31   2.0000      -0.810721       -22.0608
  32   2.0000      -0.786837       -21.4109
  33   2.0000      -0.776660       -21.1340
  34   2.0000      -0.708385       -19.2761
  35   2.0000      -0.702138       -19.1061
  36   2.0000      -0.695766       -18.9327
  37   2.0000      -0.662393       -18.0246
  38   2.0000      -0.638845       -17.3839
  39   2.0000      -0.616818       -16.7845
  40   2.0000      -0.599211       -16.3054
  41   2.0000      -0.568184       -15.4611
  42   2.0000      -0.564731       -15.3671
  43   2.0000      -0.556626       -15.1466
  44   2.0000      -0.541360       -14.7311
  45   2.0000      -0.529240       -14.4013
  46   2.0000      -0.518580       -14.1113
  47   2.0000      -0.514208       -13.9923
  48   2.0000      -0.503875       -13.7111
  49   2.0000      -0.492906       -13.4126
  50   2.0000      -0.490083       -13.3358
  51   2.0000      -0.484920       -13.1953
  52   2.0000      -0.471873       -12.8403
  53   2.0000      -0.463778       -12.6200
  54   2.0000      -0.459692       -12.5088
  55   2.0000      -0.449003       -12.2180
  56   2.0000      -0.448155       -12.1949
  57   2.0000      -0.441583       -12.0161
  58   2.0000      -0.439623       -11.9627
  59   2.0000      -0.426854       -11.6153
  60   2.0000      -0.420907       -11.4535
  61   2.0000      -0.417352       -11.3567
  62   2.0000      -0.408025       -11.1029
  63   2.0000      -0.351220        -9.5572
  64   2.0000      -0.331906        -9.0316
  65   2.0000      -0.325315        -8.8523
  66   2.0000      -0.286660        -7.8004
  67   0.0000       0.025471         0.6931
  68   0.0000       0.069943         1.9032
  69   0.0000       0.104352         2.8396
  70   0.0000       0.120842         3.2883
  71   0.0000       0.130087         3.5398

MULLIKEN ATOMIC CHARGES
-----------------------
   0 S :    0.119730
   1 C :   -0.108560
   2 C :   -0.100341
   3 C :    0.003091
   4 C :   -0.182076
   5 H :    0.040694
   6 C :    0.109685
   7 H :    0.028459
   8 H :    0.015950
   9 C :   -0.059216
  10 H :    0.002947
  11 H :    0.028238
  12 C :   -0.039203
  13 H :    0.028219
  14 H :    0.026534
  15 H :    0.016992
  16 S :    0.094202
  17 C :   -0.102670
  18 C :   -0.064833
  19 C :   -0.040708
  20 C :   -0.113355
  21 H :    0.029720
  22 C :    0.039881
  23 H :    0.045992
  24 H :    0.014457
  25 C :   -0.056580
  26 H :    0.011942
  27 H :    0.004697
  28 C :   -0.014470
  29 H :    0.033384
  30 H :    0.035853
  31 H :    0.034151
  32 H :    0.036542
  33 H :    0.080652
Sum of atomic charges:   -0.0000000

LOEWDIN ATOMIC CHARGES
----------------------
   0 S :    0.403446
   1 C :   -0.199416
   2 C :   -0.063137
   3 C :   -0.066037
   4 C :   -0.180013
   5 H :    0.043433
   6 C :   -0.029322
   7 H :    0.033291
   8 H :    0.030873
   9 C :   -0.035047
  10 H :    0.006674
  11 H :    0.033472
  12 C :   -0.057118
  13 H :    0.027362
  14 H :    0.023882
  15 H :    0.009250
  16 S :    0.398745
  17 C :   -0.196929
  18 C :   -0.074251
  19 C :   -0.059966
  20 C :   -0.197831
  21 H :    0.031485
  22 C :   -0.041829
  23 H :    0.037132
  24 H :    0.033955
  25 C :   -0.034718
  26 H :    0.019595
  27 H :    0.013405
  28 C :   -0.052803
  29 H :    0.022450
  30 H :    0.027402
  31 H :    0.027940
  32 H :    0.019791
  33 H :    0.044833

  Mayer bond orders larger than 0.100000
B(  0-S ,  1-C ) :   1.1564 B(  0-S ,  4-C ) :   1.1494 B(  1-C ,  2-C ) :   1.5697
B(  1-C ,  4-C ) :   0.1096 B(  1-C , 32-H ) :   0.9698 B(  2-C ,  3-C ) :   1.2862
B(  2-C ,  6-C ) :   1.0161 B(  3-C ,  4-C ) :   1.5552 B(  3-C ,  5-H ) :   0.9724
B(  4-C , 20-C ) :   1.0469 B(  6-C ,  7-H ) :   0.9353 B(  6-C ,  8-H ) :   0.9438
B(  6-C ,  9-C ) :   1.0632 B(  9-C , 10-H ) :   0.9573 B(  9-C , 11-H ) :   0.9622
B(  9-C , 12-C ) :   1.0811 B( 12-C , 13-H ) :   0.9719 B( 12-C , 14-H ) :   0.9731
B( 12-C , 15-H ) :   0.9685 B( 16-S , 17-C ) :   1.1403 B( 16-S , 20-C ) :   1.1350
B( 17-C , 18-C ) :   1.6376 B( 17-C , 33-H ) :   0.9596 B( 18-C , 19-C ) :   1.2177
B( 18-C , 21-H ) :   0.9762 B( 19-C , 20-C ) :   1.6180 B( 19-C , 22-C ) :   1.0525
B( 22-C , 23-H ) :   0.9346 B( 22-C , 24-H ) :   0.9251 B( 22-C , 25-C ) :   1.0577
B( 25-C , 26-H ) :   0.9517 B( 25-C , 27-H ) :   0.9436 B( 25-C , 28-C ) :   1.0791
B( 28-C , 29-H ) :   0.9767 B( 28-C , 30-H ) :   0.9748 B( 28-C , 31-H ) :   0.9738

Dispersion correction           -0.014380770
FINAL SINGLE POINT ENERGY     -1339.861750042886

DIPOLE MOMENT
-------------
                                X             Y             Z
Electronic contribution:     22.00331       1.71255      13.08893
Nuclear contribution   :    -22.49424      -1.59402     -13.63709
                        -----------------------------------------
Total Dipole Moment    :     -0.49092       0.11853      -0.54816
                        -----------------------------------------
Magnitude (a.u.)       :      0.74534
Magnitude (Debye)      :      1.89451

Rotational constants in cm-1:     0.019020     0.008583     0.006491
Rotational constants in MHz :   570.205456   257.307707   194.583335

                             ****ORCA TERMINATED NORMALLY****
TOTAL RUN TIME: 0 days 0 hours 0 minutes 32 seconds 992 msec
