                         Program Version 4.2.1 -  RELEASE  -
|  1> ! wB97X-D3 SP def2-SVP
|  2> %pal
|  3> nprocs 16
|  4> end
|  5>
|  6> * xyz 0 1
|  7> S 	 -54.9029 	 38.659 	 118.633
|  8> C 	 -55.3708 	 37.4099 	 119.661
|  9> C 	 -56.0348 	 36.4451 	 118.935
| 10> C 	 -56.1452 	 36.7378 	 117.536
| 11> C 	 -55.4436 	 37.9059 	 117.121
| 12> H 	 -56.63 	 36.099 	 116.83
| 13> C 	 -56.605 	 35.0751 	 119.5
| 14> H 	 -57.5942 	 34.9536 	 119.016
| 15> H 	 -56.8234 	 35.189 	 120.574
| 16> C 	 -55.7419 	 33.8806 	 119.289
| 17> H 	 -56.2535 	 32.9114 	 119.426
| 18> H 	 -55.4992 	 33.8766 	 118.217
| 19> C 	 -54.5004 	 33.9 	 120.137
| 20> H 	 -53.943 	 32.9325 	 120.218
| 21> H 	 -53.7601 	 34.5902 	 119.713
| 22> H 	 -54.7533 	 34.1899 	 121.137
| 23> S 	 -55.805 	 40.084 	 115.728
| 24> C 	 -55.4722 	 40.0729 	 113.999
| 25> C 	 -54.885 	 38.9098 	 113.567
| 26> C 	 -54.8478 	 37.9372 	 114.609
| 27> C 	 -55.3184 	 38.4652 	 115.826
| 28> H 	 -54.5107 	 38.8137 	 112.591
| 29> C 	 -54.2127 	 36.5322 	 114.351
| 30> H 	 -54.0194 	 36.0187 	 115.281
| 31> H 	 -53.2612 	 36.6548 	 113.819
| 32> C 	 -55.0762 	 35.5449 	 113.491
| 33> H 	 -54.4833 	 34.6417 	 113.259
| 34> H 	 -55.3204 	 35.9732 	 112.507
| 35> C 	 -56.4188 	 35.239 	 114.146
| 36> H 	 -56.1291 	 34.7422 	 115.052
| 37> H 	 -56.9923 	 34.5501 	 113.535
| 38> H 	 -57.0293 	 36.1274 	 114.201
| 39> H 	 -55.104 	 37.425 	 120.676
| 40> H 	 -55.634 	 40.9415 	 113.377
| 41> *
| 42>
| 43>                          ****END OF INPUT****

CARTESIAN COORDINATES (ANGSTROEM)
---------------------------------
  S    -54.902900   38.659000  118.633000
  C    -55.370800   37.409900  119.661000
  C    -56.034800   36.445100  118.935000
  C    -56.145200   36.737800  117.536000
  C    -55.443600   37.905900  117.121000
  H    -56.630000   36.099000  116.830000
  C    -56.605000   35.075100  119.500000
  H    -57.594200   34.953600  119.016000
  H    -56.823400   35.189000  120.574000
  C    -55.741900   33.880600  119.289000
  H    -56.253500   32.911400  119.426000
  H    -55.499200   33.876600  118.217000
  C    -54.500400   33.900000  120.137000
  H    -53.943000   32.932500  120.218000
  H    -53.760100   34.590200  119.713000
  H    -54.753300   34.189900  121.137000
  S    -55.805000   40.084000  115.728000
  C    -55.472200   40.072900  113.999000
  C    -54.885000   38.909800  113.567000
  C    -54.847800   37.937200  114.609000
  C    -55.318400   38.465200  115.826000
  H    -54.510700   38.813700  112.591000
  C    -54.212700   36.532200  114.351000
  H    -54.019400   36.018700  115.281000
  H    -53.261200   36.654800  113.819000
  C    -55.076200   35.544900  113.491000
  H    -54.483300   34.641700  113.259000
  H    -55.320400   35.973200  112.507000
  C    -56.418800   35.239000  114.146000
  H    -56.129100   34.742200  115.052000
  H    -56.992300   34.550100  113.535000
  H    -57.029300   36.127400  114.201000
  H    -55.104000   37.425000  120.676000
  H    -55.634000   40.941500  113.377000

 Total Charge           Charge          ....    0
 Multiplicity           Mult            ....    1
 Number of Electrons    NEL             ....  134
 Basis Dimension        Dim             ....  322

ORBITAL ENERGIES
----------------

  NO   OCC          E(Eh)            E(eV)
   0   2.0000     -88.968341     -2420.9516
   1   2.0000     -88.962848     -2420.8022
   2   2.0000     -10.331105      -281.1237
   3   2.0000     -10.324340      -280.9396
   4   2.0000     -10.316871      -280.7363
   5   2.0000     -10.309753      -280.5426
   6   2.0000     -10.308983      -280.5217
   7   2.0000     -10.302880      -280.3556
   8   2.0000     -10.296578      -280.1841
   9   2.0000     -10.294310      -280.1224
  10   2.0000     -10.294239      -280.1205
  11   2.0000     -10.293270      -280.0941
  12   2.0000     -10.288562      -279.9660
  13   2.0000     -10.282345      -279.7968
  14   2.0000     -10.274154      -279.5740
  15   2.0000     -10.273104      -279.5454
  16   2.0000      -8.084131      -219.9804
  17   2.0000      -8.078517      -219.8276
  18   2.0000      -6.042465      -164.4238
  19   2.0000      -6.038584      -164.3182
  20   2.0000      -6.036944      -164.2736
  21   2.0000      -6.034894      -164.2178
  22   2.0000      -6.032667      -164.1572
  23   2.0000      -6.029509      -164.0713
  24   2.0000      -1.013131       -27.5687
  25   2.0000      -0.988201       -26.8903
  26   2.0000      -0.912954       -24.8427
  27   2.0000      -0.905614       -24.6430
  28   2.0000      -0.879805       -23.9407
  29   2.0000      -0.850904       -23.1543
  30   2.0000      -0.842178       -22.9168
  31   2.0000      -0.812738       -22.1157
  32   2.0000      -0.781317       -21.2607
  33   2.0000      -0.773667       -21.0526
  34   2.0000      -0.710446       -19.3322
  35   2.0000      -0.691929       -18.8283
  36   2.0000      -0.690287       -18.7837
  37   2.0000      -0.666075       -18.1248
  38   2.0000      -0.646904       -17.6032
  39   2.0000      -0.619840       -16.8667
  40   2.0000      -0.597813       -16.2673
  41   2.0000      -0.570147       -15.5145
  42   2.0000      -0.556662       -15.1475
  43   2.0000      -0.550480       -14.9793
  44   2.0000      -0.547724       -14.9043
  45   2.0000      -0.542208       -14.7542
  46   2.0000      -0.521822       -14.1995
  47   2.0000      -0.514201       -13.9921
  48   2.0000      -0.506524       -13.7832
  49   2.0000      -0.495458       -13.4821
  50   2.0000      -0.488812       -13.3013
  51   2.0000      -0.483016       -13.1435
  52   2.0000      -0.469247       -12.7689
  53   2.0000      -0.466874       -12.7043
  54   2.0000      -0.457296       -12.4437
  55   2.0000      -0.453379       -12.3371
  56   2.0000      -0.439180       -11.9507
  57   2.0000      -0.436312       -11.8727
  58   2.0000      -0.432638       -11.7727
  59   2.0000      -0.425964       -11.5911
  60   2.0000      -0.420798       -11.4505
  61   2.0000      -0.415896       -11.3171
  62   2.0000      -0.401470       -10.9246
  63   2.0000      -0.353597        -9.6219
  64   2.0000      -0.332964        -9.0604
  65   2.0000      -0.327632        -8.9153
  66   2.0000      -0.288851        -7.8600
  67   0.0000       0.029327         0.7980
  68   0.0000       0.069117         1.8808
  69   0.0000       0.110647         3.0109
  70   0.0000       0.121928         3.3178
  71   0.0000       0.128225         3.4892

MULLIKEN ATOMIC CHARGES
-----------------------
   0 S :    0.106108
   1 C :   -0.105027
   2 C :   -0.097463
   3 C :    0.051435
   4 C :   -0.160172
   5 H :   -0.012463
   6 C :    0.047232
   7 H :    0.033560
   8 H :    0.020719
   9 C :   -0.045897
  10 H :    0.031713
  11 H :    0.018330
  12 C :   -0.057033
  13 H :    0.035759
  14 H :    0.041225
  15 H :    0.016987
  16 S :    0.123126
  17 C :   -0.093117
  18 C :   -0.011616
  19 C :   -0.026487
  20 C :   -0.169188
  21 H :    0.005683
  22 C :    0.071207
  23 H :    0.023867
  24 H :    0.035206
  25 C :   -0.103983
  26 H :    0.034656
  27 H :    0.019903
  28 C :   -0.040200
  29 H :    0.034110
  30 H :    0.027270
  31 H :    0.052801
  32 H :    0.038371
  33 H :    0.053379
Sum of atomic charges:   -0.0000000

LOEWDIN ATOMIC CHARGES
----------------------
   0 S :    0.423950
   1 C :   -0.208182
   2 C :   -0.067773
   3 C :   -0.060098
   4 C :   -0.197097
   5 H :    0.023105
   6 C :   -0.030131
   7 H :    0.034363
   8 H :    0.025259
   9 C :   -0.051721
  10 H :    0.027282
  11 H :    0.023515
  12 C :   -0.068003
  13 H :    0.030702
  14 H :    0.029246
  15 H :    0.017669
  16 S :    0.435942
  17 C :   -0.178720
  18 C :   -0.059975
  19 C :   -0.051108
  20 C :   -0.220309
  21 H :    0.027382
  22 C :   -0.026076
  23 H :    0.026117
  24 H :    0.034105
  25 C :   -0.042573
  26 H :    0.025220
  27 H :    0.017668
  28 C :   -0.063233
  29 H :    0.020797
  30 H :    0.025593
  31 H :    0.029238
  32 H :    0.022616
  33 H :    0.025232

  Mayer bond orders larger than 0.100000
B(  0-S ,  1-C ) :   1.1680 B(  0-S ,  4-C ) :   1.1595 B(  1-C ,  2-C ) :   1.5602
B(  1-C ,  4-C ) :   0.1057 B(  1-C , 32-H ) :   0.9829 B(  2-C ,  3-C ) :   1.2845
B(  2-C ,  6-C ) :   1.0085 B(  3-C ,  4-C ) :   1.5147 B(  3-C ,  5-H ) :   0.9954
B(  4-C , 20-C ) :   1.0747 B(  6-C ,  7-H ) :   0.9401 B(  6-C ,  8-H ) :   0.9482
B(  6-C ,  9-C ) :   1.0788 B(  9-C , 10-H ) :   0.9533 B(  9-C , 11-H ) :   0.9505
B(  9-C , 12-C ) :   1.0744 B( 12-C , 13-H ) :   0.9735 B( 12-C , 14-H ) :   0.9744
B( 12-C , 15-H ) :   0.9754 B( 16-S , 17-C ) :   1.1524 B( 16-S , 20-C ) :   1.1706
B( 17-C , 18-C ) :   1.6040 B( 17-C , 20-C ) :   0.1018 B( 17-C , 33-H ) :   0.9695
B( 18-C , 19-C ) :   1.2395 B( 18-C , 21-H ) :   1.0001 B( 19-C , 20-C ) :   1.5587
B( 19-C , 22-C ) :   1.0367 B( 22-C , 23-H ) :   0.9399 B( 22-C , 24-H ) :   0.9406
B( 22-C , 25-C ) :   1.0663 B( 25-C , 26-H ) :   0.9582 B( 25-C , 27-H ) :   0.9574
B( 25-C , 28-C ) :   1.0757 B( 28-C , 29-H ) :   0.9703 B( 28-C , 30-H ) :   0.9684
B( 28-C , 31-H ) :   0.9696

Dispersion correction           -0.015354374
FINAL SINGLE POINT ENERGY     -1339.885895530895

DIPOLE MOMENT
-------------
                                X             Y             Z
Electronic contribution:      0.33051      28.73214       1.47696
Nuclear contribution   :     -0.28984     -29.25507      -1.80031
                        -----------------------------------------
Total Dipole Moment    :      0.04067      -0.52293      -0.32335
                        -----------------------------------------
Magnitude (a.u.)       :      0.61617
Magnitude (Debye)      :      1.56619

Rotational constants in cm-1:     0.019803     0.009562     0.007085
Rotational constants in MHz :   593.671345   286.657244   212.415552

                             ****ORCA TERMINATED NORMALLY****
TOTAL RUN TIME: 0 days 0 hours 0 minutes 31 seconds 786 msec
