                         Program Version 4.2.1 -  RELEASE  -
|  1> ! wB97X-D3 SP def2-SVP
|  2> %pal
|  3> nprocs 16
|  4> end
|  5>
|  6> * xyz 0 1
|  7> S 	 -38.956 	 15.3141 	 79.4147
|  8> C 	 -39.1096 	 13.7224 	 79.9761
|  9> C 	 -40.4015 	 13.487 	 80.3155
| 10> C 	 -41.2433 	 14.6105 	 80.106
| 11> C 	 -40.6468 	 15.6736 	 79.5121
| 12> H 	 -42.2888 	 14.5681 	 80.3211
| 13> C 	 -40.9545 	 12.1417 	 80.8144
| 14> H 	 -42.0936 	 12.1239 	 80.6939
| 15> H 	 -40.9008 	 11.9252 	 81.8977
| 16> C 	 -40.5065 	 10.8785 	 80.0575
| 17> H 	 -39.4673 	 10.7442 	 80.3605
| 18> H 	 -41.006 	 9.99297 	 80.3855
| 19> C 	 -40.8426 	 10.8728 	 78.5413
| 20> H 	 -40.4449 	 11.8391 	 78.2248
| 21> H 	 -40.2312 	 10.1612 	 77.9417
| 22> H 	 -41.8392 	 10.8081 	 78.2057
| 23> S 	 -40.2806 	 17.6857 	 77.6147
| 24> C 	 -41.6508 	 18.5777 	 77.108
| 25> C 	 -42.6948 	 18.3027 	 77.9153
| 26> C 	 -42.4508 	 17.3741 	 78.9641
| 27> C 	 -41.1535 	 16.9123 	 78.9097
| 28> H 	 -43.6623 	 18.6323 	 77.6959
| 29> C 	 -43.6254 	 16.9429 	 79.8594
| 30> H 	 -43.7919 	 15.8414 	 79.6701
| 31> H 	 -44.5283 	 17.3959 	 79.3974
| 32> C 	 -43.4329 	 17.3057 	 81.3539
| 33> H 	 -42.4762 	 16.8847 	 81.7078
| 34> H 	 -44.297 	 16.8778 	 81.8493
| 35> C 	 -43.4231 	 18.7378 	 81.5159
| 36> H 	 -42.6332 	 19.1903 	 80.9362
| 37> H 	 -43.3601 	 18.9634 	 82.5792
| 38> H 	 -44.4546 	 19.065 	 81.2459
| 39> H 	 -38.2554 	 13.1602 	 80.2035
| 40> H 	 -41.7958 	 19.0994 	 76.2194
| 41> *
| 42>
| 43>                          ****END OF INPUT****

CARTESIAN COORDINATES (ANGSTROEM)
---------------------------------
  S    -38.956000   15.314100   79.414700
  C    -39.109600   13.722400   79.976100
  C    -40.401500   13.487000   80.315500
  C    -41.243300   14.610500   80.106000
  C    -40.646800   15.673600   79.512100
  H    -42.288800   14.568100   80.321100
  C    -40.954500   12.141700   80.814400
  H    -42.093600   12.123900   80.693900
  H    -40.900800   11.925200   81.897700
  C    -40.506500   10.878500   80.057500
  H    -39.467300   10.744200   80.360500
  H    -41.006000    9.992970   80.385500
  C    -40.842600   10.872800   78.541300
  H    -40.444900   11.839100   78.224800
  H    -40.231200   10.161200   77.941700
  H    -41.839200   10.808100   78.205700
  S    -40.280600   17.685700   77.614700
  C    -41.650800   18.577700   77.108000
  C    -42.694800   18.302700   77.915300
  C    -42.450800   17.374100   78.964100
  C    -41.153500   16.912300   78.909700
  H    -43.662300   18.632300   77.695900
  C    -43.625400   16.942900   79.859400
  H    -43.791900   15.841400   79.670100
  H    -44.528300   17.395900   79.397400
  C    -43.432900   17.305700   81.353900
  H    -42.476200   16.884700   81.707800
  H    -44.297000   16.877800   81.849300
  C    -43.423100   18.737800   81.515900
  H    -42.633200   19.190300   80.936200
  H    -43.360100   18.963400   82.579200
  H    -44.454600   19.065000   81.245900
  H    -38.255400   13.160200   80.203500
  H    -41.795800   19.099400   76.219400

 Total Charge           Charge          ....    0
 Multiplicity           Mult            ....    1
 Number of Electrons    NEL             ....  134
 Basis Dimension        Dim             ....  322

ORBITAL ENERGIES
----------------

  NO   OCC          E(Eh)            E(eV)
   0   2.0000     -88.968097     -2420.9450
   1   2.0000     -88.959219     -2420.7034
   2   2.0000     -10.329456      -281.0788
   3   2.0000     -10.328683      -281.0578
   4   2.0000     -10.309029      -280.5229
   5   2.0000     -10.305525      -280.4276
   6   2.0000     -10.300699      -280.2963
   7   2.0000     -10.300571      -280.2928
   8   2.0000     -10.299671      -280.2683
   9   2.0000     -10.298288      -280.2307
  10   2.0000     -10.288240      -279.9572
  11   2.0000     -10.284849      -279.8650
  12   2.0000     -10.283949      -279.8405
  13   2.0000     -10.281996      -279.7873
  14   2.0000     -10.271118      -279.4913
  15   2.0000     -10.269465      -279.4463
  16   2.0000      -8.083565      -219.9650
  17   2.0000      -8.076013      -219.7595
  18   2.0000      -6.042148      -164.4152
  19   2.0000      -6.037896      -164.2995
  20   2.0000      -6.034456      -164.2059
  21   2.0000      -6.034256      -164.2005
  22   2.0000      -6.030136      -164.0883
  23   2.0000      -6.026817      -163.9980
  24   2.0000      -1.019762       -27.7491
  25   2.0000      -0.998584       -27.1729
  26   2.0000      -0.920710       -25.0538
  27   2.0000      -0.907542       -24.6955
  28   2.0000      -0.875014       -23.8103
  29   2.0000      -0.859377       -23.3848
  30   2.0000      -0.845573       -23.0092
  31   2.0000      -0.819670       -22.3044
  32   2.0000      -0.783111       -21.3095
  33   2.0000      -0.775947       -21.1146
  34   2.0000      -0.710239       -19.3266
  35   2.0000      -0.702052       -19.1038
  36   2.0000      -0.686202       -18.6725
  37   2.0000      -0.670354       -18.2412
  38   2.0000      -0.646265       -17.5858
  39   2.0000      -0.620052       -16.8725
  40   2.0000      -0.598445       -16.2845
  41   2.0000      -0.577267       -15.7082
  42   2.0000      -0.567059       -15.4305
  43   2.0000      -0.555350       -15.1118
  44   2.0000      -0.546672       -14.8757
  45   2.0000      -0.543531       -14.7902
  46   2.0000      -0.518744       -14.1157
  47   2.0000      -0.514283       -13.9944
  48   2.0000      -0.505415       -13.7530
  49   2.0000      -0.498328       -13.5602
  50   2.0000      -0.487677       -13.2704
  51   2.0000      -0.486839       -13.2476
  52   2.0000      -0.479904       -13.0589
  53   2.0000      -0.475359       -12.9352
  54   2.0000      -0.459206       -12.4956
  55   2.0000      -0.445621       -12.1260
  56   2.0000      -0.439992       -11.9728
  57   2.0000      -0.435365       -11.8469
  58   2.0000      -0.425188       -11.5699
  59   2.0000      -0.418054       -11.3758
  60   2.0000      -0.417164       -11.3516
  61   2.0000      -0.412000       -11.2111
  62   2.0000      -0.402675       -10.9574
  63   2.0000      -0.368337       -10.0230
  64   2.0000      -0.336594        -9.1592
  65   2.0000      -0.328160        -8.9297
  66   2.0000      -0.287629        -7.8268
  67   0.0000       0.022887         0.6228
  68   0.0000       0.087401         2.3783
  69   0.0000       0.108249         2.9456
  70   0.0000       0.122841         3.3427
  71   0.0000       0.136982         3.7275

MULLIKEN ATOMIC CHARGES
-----------------------
   0 S :    0.084750
   1 C :   -0.100379
   2 C :   -0.067853
   3 C :    0.008545
   4 C :   -0.114454
   5 H :   -0.014351
   6 C :    0.014080
   7 H :    0.021346
   8 H :    0.046425
   9 C :   -0.065706
  10 H :    0.026698
  11 H :    0.021304
  12 C :   -0.050960
  13 H :    0.028948
  14 H :    0.032546
  15 H :    0.030811
  16 S :    0.109884
  17 C :   -0.046859
  18 C :   -0.014250
  19 C :   -0.113313
  20 C :   -0.078417
  21 H :   -0.010294
  22 C :    0.021893
  23 H :    0.046270
  24 H :    0.014426
  25 C :   -0.040540
  26 H :    0.042009
  27 H :    0.026145
  28 C :   -0.029150
  29 H :    0.052072
  30 H :    0.029346
  31 H :    0.015916
  32 H :    0.037413
  33 H :    0.035697
Sum of atomic charges:   -0.0000000

LOEWDIN ATOMIC CHARGES
----------------------
   0 S :    0.426331
   1 C :   -0.199414
   2 C :   -0.068536
   3 C :   -0.070047
   4 C :   -0.182757
   5 H :    0.024083
   6 C :   -0.041300
   7 H :    0.031978
   8 H :    0.034871
   9 C :   -0.042447
  10 H :    0.022059
  11 H :    0.021218
  12 C :   -0.069557
  13 H :    0.026148
  14 H :    0.030962
  15 H :    0.019472
  16 S :    0.425339
  17 C :   -0.185611
  18 C :   -0.066817
  19 C :   -0.057569
  20 C :   -0.204035
  21 H :    0.019151
  22 C :   -0.033272
  23 H :    0.033223
  24 H :    0.029270
  25 C :   -0.041094
  26 H :    0.028277
  27 H :    0.024764
  28 C :   -0.061476
  29 H :    0.028047
  30 H :    0.026902
  31 H :    0.026790
  32 H :    0.020723
  33 H :    0.024325

  Mayer bond orders larger than 0.100000
B(  0-S ,  1-C ) :   1.1541 B(  0-S ,  4-C ) :   1.1631 B(  1-C ,  2-C ) :   1.5808
B(  1-C , 32-H ) :   0.9834 B(  2-C ,  3-C ) :   1.2834 B(  2-C ,  6-C ) :   1.0003
B(  3-C ,  4-C ) :   1.5508 B(  3-C ,  5-H ) :   0.9954 B(  4-C , 20-C ) :   1.0477
B(  6-C ,  7-H ) :   0.9493 B(  6-C ,  8-H ) :   0.9421 B(  6-C ,  9-C ) :   1.0797
B(  9-C , 10-H ) :   0.9556 B(  9-C , 11-H ) :   0.9568 B(  9-C , 12-C ) :   1.0601
B( 12-C , 13-H ) :   0.9767 B( 12-C , 14-H ) :   0.9738 B( 12-C , 15-H ) :   0.9782
B( 16-S , 17-C ) :   1.1540 B( 16-S , 20-C ) :   1.1438 B( 17-C , 18-C ) :   1.6070
B( 17-C , 33-H ) :   0.9717 B( 18-C , 19-C ) :   1.2701 B( 18-C , 21-H ) :   0.9951
B( 19-C , 20-C ) :   1.5837 B( 19-C , 22-C ) :   1.0232 B( 22-C , 23-H ) :   0.9309
B( 22-C , 24-H ) :   0.9350 B( 22-C , 25-C ) :   1.0602 B( 25-C , 26-H ) :   0.9521
B( 25-C , 27-H ) :   0.9523 B( 25-C , 28-C ) :   1.0909 B( 28-C , 29-H ) :   0.9721
B( 28-C , 30-H ) :   0.9674 B( 28-C , 31-H ) :   0.9704

Dispersion correction           -0.014753060
FINAL SINGLE POINT ENERGY     -1339.867871122985

DIPOLE MOMENT
-------------
                                X             Y             Z
Electronic contribution:     15.80710      13.13247     -10.05201
Nuclear contribution   :    -16.46316     -13.39531      10.15916
                        -----------------------------------------
Total Dipole Moment    :     -0.65606      -0.26285       0.10715
                        -----------------------------------------
Magnitude (a.u.)       :      0.71483
Magnitude (Debye)      :      1.81696

Rotational constants in cm-1:     0.020937     0.008566     0.007202
Rotational constants in MHz :   627.686191   256.801096   215.899452

                             ****ORCA TERMINATED NORMALLY****
TOTAL RUN TIME: 0 days 0 hours 0 minutes 31 seconds 472 msec
