                         Program Version 4.2.1 -  RELEASE  -
|  1> ! wB97X-D3 SP def2-SVP
|  2> %pal
|  3> nprocs 16
|  4> end
|  5>
|  6> * xyz 0 1
|  7> S 	 5.64526 	 -6.01958 	 81.4916
|  8> C 	 6.03459 	 -5.59647 	 83.1442
|  9> C 	 5.16268 	 -4.66602 	 83.6553
| 10> C 	 4.16315 	 -4.19499 	 82.7705
| 11> C 	 4.16472 	 -4.99643 	 81.6272
| 12> H 	 3.32644 	 -3.56635 	 82.8839
| 13> C 	 5.28224 	 -4.25617 	 85.116
| 14> H 	 4.93544 	 -3.24863 	 85.188
| 15> H 	 6.39652 	 -4.3765 	 85.2791
| 16> C 	 4.47005 	 -5.12833 	 86.1102
| 17> H 	 4.71807 	 -4.76866 	 87.1072
| 18> H 	 3.46347 	 -4.77031 	 86.0383
| 19> C 	 4.62099 	 -6.58814 	 86.1035
| 20> H 	 3.99658 	 -7.02284 	 86.8794
| 21> H 	 4.44028 	 -6.94276 	 85.1131
| 22> H 	 5.66812 	 -6.87712 	 86.3694
| 23> S 	 2.82739 	 -3.59271 	 79.6303
| 24> C 	 1.60214 	 -4.43096 	 78.6072
| 25> C 	 1.5052 	 -5.74945 	 78.9588
| 26> C 	 2.44384 	 -6.12538 	 80.0372
| 27> C 	 3.09836 	 -5.0219 	 80.6057
| 28> H 	 0.838943 	 -6.41302 	 78.4978
| 29> C 	 2.53361 	 -7.60714 	 80.5472
| 30> H 	 2.27836 	 -7.52244 	 81.534
| 31> H 	 3.57225 	 -7.89134 	 80.5887
| 32> C 	 1.70939 	 -8.73417 	 79.8056
| 33> H 	 0.625893 	 -8.5024 	 79.8236
| 34> H 	 1.83535 	 -9.64192 	 80.4453
| 35> C 	 2.25651 	 -9.16078 	 78.4211
| 36> H 	 2.52394 	 -8.33701 	 77.7683
| 37> H 	 1.47595 	 -9.71655 	 77.8946
| 38> H 	 3.06389 	 -9.89951 	 78.5232
| 39> H 	 6.75313 	 -6.19952 	 83.6617
| 40> H 	 1.00434 	 -3.79255 	 77.9156
| 41> *
| 42>
| 43>                          ****END OF INPUT****

CARTESIAN COORDINATES (ANGSTROEM)
---------------------------------
  S      5.645260   -6.019580   81.491600
  C      6.034590   -5.596470   83.144200
  C      5.162680   -4.666020   83.655300
  C      4.163150   -4.194990   82.770500
  C      4.164720   -4.996430   81.627200
  H      3.326440   -3.566350   82.883900
  C      5.282240   -4.256170   85.116000
  H      4.935440   -3.248630   85.188000
  H      6.396520   -4.376500   85.279100
  C      4.470050   -5.128330   86.110200
  H      4.718070   -4.768660   87.107200
  H      3.463470   -4.770310   86.038300
  C      4.620990   -6.588140   86.103500
  H      3.996580   -7.022840   86.879400
  H      4.440280   -6.942760   85.113100
  H      5.668120   -6.877120   86.369400
  S      2.827390   -3.592710   79.630300
  C      1.602140   -4.430960   78.607200
  C      1.505200   -5.749450   78.958800
  C      2.443840   -6.125380   80.037200
  C      3.098360   -5.021900   80.605700
  H      0.838943   -6.413020   78.497800
  C      2.533610   -7.607140   80.547200
  H      2.278360   -7.522440   81.534000
  H      3.572250   -7.891340   80.588700
  C      1.709390   -8.734170   79.805600
  H      0.625893   -8.502400   79.823600
  H      1.835350   -9.641920   80.445300
  C      2.256510   -9.160780   78.421100
  H      2.523940   -8.337010   77.768300
  H      1.475950   -9.716550   77.894600
  H      3.063890   -9.899510   78.523200
  H      6.753130   -6.199520   83.661700
  H      1.004340   -3.792550   77.915600

 Total Charge           Charge          ....    0
 Multiplicity           Mult            ....    1
 Number of Electrons    NEL             ....  134
 Basis Dimension        Dim             ....  322

ORBITAL ENERGIES
----------------

  NO   OCC          E(Eh)            E(eV)
   0   2.0000     -88.965957     -2420.8868
   1   2.0000     -88.960666     -2420.7428
   2   2.0000     -10.335376      -281.2399
   3   2.0000     -10.326309      -280.9932
   4   2.0000     -10.325801      -280.9793
   5   2.0000     -10.311778      -280.5977
   6   2.0000     -10.309951      -280.5480
   7   2.0000     -10.300658      -280.2951
   8   2.0000     -10.298153      -280.2270
   9   2.0000     -10.297444      -280.2077
  10   2.0000     -10.295945      -280.1669
  11   2.0000     -10.291687      -280.0510
  12   2.0000     -10.287387      -279.9340
  13   2.0000     -10.280389      -279.7436
  14   2.0000     -10.278856      -279.7019
  15   2.0000     -10.273739      -279.5626
  16   2.0000      -8.079813      -219.8629
  17   2.0000      -8.074883      -219.7287
  18   2.0000      -6.038233      -164.3087
  19   2.0000      -6.034551      -164.2085
  20   2.0000      -6.033571      -164.1818
  21   2.0000      -6.030612      -164.1013
  22   2.0000      -6.029415      -164.0687
  23   2.0000      -6.025533      -163.9631
  24   2.0000      -0.998951       -27.1828
  25   2.0000      -0.976727       -26.5781
  26   2.0000      -0.912031       -24.8176
  27   2.0000      -0.896886       -24.4055
  28   2.0000      -0.868328       -23.6284
  29   2.0000      -0.853802       -23.2331
  30   2.0000      -0.839088       -22.8328
  31   2.0000      -0.819163       -22.2906
  32   2.0000      -0.784137       -21.3374
  33   2.0000      -0.770631       -20.9699
  34   2.0000      -0.705258       -19.1910
  35   2.0000      -0.697695       -18.9853
  36   2.0000      -0.688510       -18.7353
  37   2.0000      -0.660294       -17.9675
  38   2.0000      -0.646375       -17.5888
  39   2.0000      -0.608088       -16.5469
  40   2.0000      -0.594235       -16.1700
  41   2.0000      -0.565943       -15.4001
  42   2.0000      -0.556691       -15.1483
  43   2.0000      -0.552750       -15.0411
  44   2.0000      -0.544627       -14.8200
  45   2.0000      -0.536809       -14.6073
  46   2.0000      -0.523500       -14.2452
  47   2.0000      -0.508894       -13.8477
  48   2.0000      -0.501222       -13.6390
  49   2.0000      -0.497750       -13.5445
  50   2.0000      -0.488849       -13.3023
  51   2.0000      -0.478193       -13.0123
  52   2.0000      -0.467454       -12.7201
  53   2.0000      -0.463664       -12.6169
  54   2.0000      -0.456448       -12.4206
  55   2.0000      -0.452246       -12.3062
  56   2.0000      -0.444796       -12.1035
  57   2.0000      -0.439991       -11.9728
  58   2.0000      -0.434078       -11.8119
  59   2.0000      -0.424370       -11.5477
  60   2.0000      -0.420981       -11.4555
  61   2.0000      -0.409495       -11.1429
  62   2.0000      -0.404073       -10.9954
  63   2.0000      -0.344071        -9.3626
  64   2.0000      -0.333931        -9.0867
  65   2.0000      -0.319752        -8.7009
  66   2.0000      -0.294573        -8.0158
  67   0.0000       0.024959         0.6792
  68   0.0000       0.067383         1.8336
  69   0.0000       0.103943         2.8284
  70   0.0000       0.118204         3.2165
  71   0.0000       0.126887         3.4528

MULLIKEN ATOMIC CHARGES
-----------------------
   0 S :    0.103969
   1 C :   -0.132423
   2 C :   -0.088876
   3 C :    0.055158
   4 C :   -0.165041
   5 H :    0.006888
   6 C :    0.066730
   7 H :    0.019039
   8 H :    0.034757
   9 C :   -0.054944
  10 H :    0.014912
  11 H :    0.012116
  12 C :   -0.022305
  13 H :    0.037763
  14 H :    0.040959
  15 H :    0.020683
  16 S :    0.081611
  17 C :   -0.108893
  18 C :    0.002360
  19 C :   -0.087471
  20 C :   -0.151548
  21 H :    0.007005
  22 C :    0.115940
  23 H :    0.017565
  24 H :    0.019543
  25 C :   -0.111615
  26 H :    0.041580
  27 H :    0.038060
  28 C :   -0.053340
  29 H :    0.043685
  30 H :    0.028555
  31 H :    0.038598
  32 H :    0.049877
  33 H :    0.079104
Sum of atomic charges:    0.0000000

LOEWDIN ATOMIC CHARGES
----------------------
   0 S :    0.384935
   1 C :   -0.199517
   2 C :   -0.063175
   3 C :   -0.052842
   4 C :   -0.163805
   5 H :    0.030009
   6 C :   -0.026630
   7 H :    0.027476
   8 H :    0.035777
   9 C :   -0.045071
  10 H :    0.023382
  11 H :    0.019451
  12 C :   -0.062026
  13 H :    0.031792
  14 H :    0.022263
  15 H :    0.027303
  16 S :    0.375901
  17 C :   -0.167491
  18 C :   -0.066849
  19 C :   -0.044212
  20 C :   -0.213750
  21 H :    0.023495
  22 C :   -0.028459
  23 H :    0.023423
  24 H :    0.024127
  25 C :   -0.046046
  26 H :    0.024184
  27 H :    0.034944
  28 C :   -0.070742
  29 H :    0.024263
  30 H :    0.028549
  31 H :    0.029764
  32 H :    0.022624
  33 H :    0.036954

  Mayer bond orders larger than 0.100000
B(  0-S ,  1-C ) :   1.1221 B(  0-S ,  4-C ) :   1.1472 B(  1-C ,  2-C ) :   1.6227
B(  1-C , 32-H ) :   0.9711 B(  2-C ,  3-C ) :   1.2093 B(  2-C ,  6-C ) :   1.0157
B(  3-C ,  4-C ) :   1.5799 B(  3-C ,  5-H ) :   1.0019 B(  4-C , 20-C ) :   1.0375
B(  6-C ,  7-H ) :   0.9370 B(  6-C ,  8-H ) :   0.9453 B(  6-C ,  9-C ) :   1.0737
B(  9-C , 10-H ) :   0.9492 B(  9-C , 11-H ) :   0.9514 B(  9-C , 12-C ) :   1.0922
B( 12-C , 13-H ) :   0.9668 B( 12-C , 14-H ) :   0.9704 B( 12-C , 15-H ) :   0.9696
B( 16-S , 17-C ) :   1.1418 B( 16-S , 20-C ) :   1.1287 B( 17-C , 18-C ) :   1.6100
B( 17-C , 33-H ) :   0.9626 B( 18-C , 19-C ) :   1.2249 B( 18-C , 21-H ) :   0.9950
B( 19-C , 20-C ) :   1.6129 B( 19-C , 22-C ) :   1.0065 B( 22-C , 23-H ) :   0.9313
B( 22-C , 24-H ) :   0.9280 B( 22-C , 25-C ) :   1.0786 B( 25-C , 26-H ) :   0.9579
B( 25-C , 27-H ) :   0.9546 B( 25-C , 28-C ) :   1.0663 B( 28-C , 29-H ) :   0.9803
B( 28-C , 30-H ) :   0.9733 B( 28-C , 31-H ) :   0.9762

Dispersion correction           -0.014716779
FINAL SINGLE POINT ENERGY     -1339.866280533332

DIPOLE MOMENT
-------------
                                X             Y             Z
Electronic contribution:      4.70052      16.20397     -12.72468
Nuclear contribution   :     -5.06704     -16.62192      13.09172
                        -----------------------------------------
Total Dipole Moment    :     -0.36653      -0.41795       0.36704
                        -----------------------------------------
Magnitude (a.u.)       :      0.66614
Magnitude (Debye)      :      1.69320

Rotational constants in cm-1:     0.020310     0.008059     0.006800
Rotational constants in MHz :   608.890242   241.606152   203.869021

                             ****ORCA TERMINATED NORMALLY****
TOTAL RUN TIME: 0 days 0 hours 0 minutes 36 seconds 246 msec
