                         Program Version 4.2.1 -  RELEASE  -
|  1> ! wB97X-D3 SP def2-SVP
|  2> %pal
|  3> nprocs 16
|  4> end
|  5>
|  6> * xyz 0 1
|  7> S 	 1.0399 	 -26.534 	 82.5537
|  8> C 	 0.403124 	 -27.9257 	 81.7608
|  9> C 	 1.14317 	 -29.0123 	 82.2131
| 10> C 	 2.06565 	 -28.7683 	 83.2609
| 11> C 	 1.99759 	 -27.4551 	 83.735
| 12> H 	 2.76191 	 -29.3975 	 83.8005
| 13> C 	 0.876694 	 -30.3842 	 81.6512
| 14> H 	 1.77366 	 -30.8368 	 81.2916
| 15> H 	 0.202286 	 -30.403 	 80.7175
| 16> C 	 0.333924 	 -31.3165 	 82.7581
| 17> H 	 0.0474751 	 -32.2895 	 82.3371
| 18> H 	 1.16548 	 -31.4636 	 83.3912
| 19> C 	 -0.867703 	 -30.6731 	 83.3779
| 20> H 	 -0.68798 	 -30.052 	 84.2247
| 21> H 	 -1.52846 	 -30.1882 	 82.6326
| 22> H 	 -1.5809 	 -31.3863 	 83.8669
| 23> S 	 3.6583 	 -25.4224 	 84.1958
| 24> C 	 4.44325 	 -25.1945 	 85.7961
| 25> C 	 4.0372 	 -26.1739 	 86.7094
| 26> C 	 3.14946 	 -27.1129 	 86.0682
| 27> C 	 2.84079 	 -26.8286 	 84.7367
| 28> H 	 4.5216 	 -26.2598 	 87.7221
| 29> C 	 2.70404 	 -28.4207 	 86.7687
| 30> H 	 3.3242 	 -28.3854 	 87.6657
| 31> H 	 3.05102 	 -29.3152 	 86.0827
| 32> C 	 1.17842 	 -28.6195 	 87.0988
| 33> H 	 1.04091 	 -29.4671 	 87.707
| 34> H 	 0.541653 	 -28.6576 	 86.1761
| 35> C 	 0.53868 	 -27.5816 	 88.0291
| 36> H 	 -0.489379 	 -27.9446 	 88.2218
| 37> H 	 0.409115 	 -26.5843 	 87.5351
| 38> H 	 1.03839 	 -27.4112 	 88.9841
| 39> H 	 -0.396169 	 -27.8863 	 81.0537
| 40> H 	 5.20895 	 -24.4358 	 85.9529
| 41> *
| 42>
| 43>                          ****END OF INPUT****

CARTESIAN COORDINATES (ANGSTROEM)
---------------------------------
  S      1.039900  -26.534000   82.553700
  C      0.403124  -27.925700   81.760800
  C      1.143170  -29.012300   82.213100
  C      2.065650  -28.768300   83.260900
  C      1.997590  -27.455100   83.735000
  H      2.761910  -29.397500   83.800500
  C      0.876694  -30.384200   81.651200
  H      1.773660  -30.836800   81.291600
  H      0.202286  -30.403000   80.717500
  C      0.333924  -31.316500   82.758100
  H      0.047475  -32.289500   82.337100
  H      1.165480  -31.463600   83.391200
  C     -0.867703  -30.673100   83.377900
  H     -0.687980  -30.052000   84.224700
  H     -1.528460  -30.188200   82.632600
  H     -1.580900  -31.386300   83.866900
  S      3.658300  -25.422400   84.195800
  C      4.443250  -25.194500   85.796100
  C      4.037200  -26.173900   86.709400
  C      3.149460  -27.112900   86.068200
  C      2.840790  -26.828600   84.736700
  H      4.521600  -26.259800   87.722100
  C      2.704040  -28.420700   86.768700
  H      3.324200  -28.385400   87.665700
  H      3.051020  -29.315200   86.082700
  C      1.178420  -28.619500   87.098800
  H      1.040910  -29.467100   87.707000
  H      0.541653  -28.657600   86.176100
  C      0.538680  -27.581600   88.029100
  H     -0.489379  -27.944600   88.221800
  H      0.409115  -26.584300   87.535100
  H      1.038390  -27.411200   88.984100
  H     -0.396169  -27.886300   81.053700
  H      5.208950  -24.435800   85.952900

 Total Charge           Charge          ....    0
 Multiplicity           Mult            ....    1
 Number of Electrons    NEL             ....  134
 Basis Dimension        Dim             ....  322

ORBITAL ENERGIES
----------------

  NO   OCC          E(Eh)            E(eV)
   0   2.0000     -88.966883     -2420.9120
   1   2.0000     -88.963263     -2420.8135
   2   2.0000     -10.335030      -281.2305
   3   2.0000     -10.326961      -281.0109
   4   2.0000     -10.325281      -280.9652
   5   2.0000     -10.314965      -280.6845
   6   2.0000     -10.308943      -280.5206
   7   2.0000     -10.307664      -280.4858
   8   2.0000     -10.305219      -280.4193
   9   2.0000     -10.303562      -280.3742
  10   2.0000     -10.298470      -280.2356
  11   2.0000     -10.290331      -280.0141
  12   2.0000     -10.287383      -279.9339
  13   2.0000     -10.281068      -279.7621
  14   2.0000     -10.276478      -279.6372
  15   2.0000     -10.272373      -279.5255
  16   2.0000      -8.081657      -219.9131
  17   2.0000      -8.078165      -219.8180
  18   2.0000      -6.040180      -164.3617
  19   2.0000      -6.036699      -164.2669
  20   2.0000      -6.036037      -164.2489
  21   2.0000      -6.032529      -164.1535
  22   2.0000      -6.032492      -164.1524
  23   2.0000      -6.028983      -164.0570
  24   2.0000      -1.009173       -27.4610
  25   2.0000      -0.984604       -26.7924
  26   2.0000      -0.915092       -24.9009
  27   2.0000      -0.898236       -24.4423
  28   2.0000      -0.873691       -23.7743
  29   2.0000      -0.849797       -23.1241
  30   2.0000      -0.840692       -22.8764
  31   2.0000      -0.816515       -22.2185
  32   2.0000      -0.777607       -21.1598
  33   2.0000      -0.767580       -20.8869
  34   2.0000      -0.710706       -19.3393
  35   2.0000      -0.695429       -18.9236
  36   2.0000      -0.685526       -18.6541
  37   2.0000      -0.665063       -18.0973
  38   2.0000      -0.647665       -17.6239
  39   2.0000      -0.617849       -16.8125
  40   2.0000      -0.581287       -15.8176
  41   2.0000      -0.568911       -15.4808
  42   2.0000      -0.558711       -15.2033
  43   2.0000      -0.554502       -15.0888
  44   2.0000      -0.541036       -14.7223
  45   2.0000      -0.536786       -14.6067
  46   2.0000      -0.524289       -14.2666
  47   2.0000      -0.514800       -14.0084
  48   2.0000      -0.505915       -13.7666
  49   2.0000      -0.494535       -13.4570
  50   2.0000      -0.485395       -13.2083
  51   2.0000      -0.477245       -12.9865
  52   2.0000      -0.474274       -12.9057
  53   2.0000      -0.467271       -12.7151
  54   2.0000      -0.451173       -12.2770
  55   2.0000      -0.446648       -12.1539
  56   2.0000      -0.438664       -11.9366
  57   2.0000      -0.429501       -11.6873
  58   2.0000      -0.426228       -11.5983
  59   2.0000      -0.425250       -11.5717
  60   2.0000      -0.417540       -11.3618
  61   2.0000      -0.409954       -11.1554
  62   2.0000      -0.405638       -11.0380
  63   2.0000      -0.354655        -9.6507
  64   2.0000      -0.333262        -9.0685
  65   2.0000      -0.324769        -8.8374
  66   2.0000      -0.288326        -7.8457
  67   0.0000       0.023532         0.6403
  68   0.0000       0.062981         1.7138
  69   0.0000       0.101212         2.7541
  70   0.0000       0.117157         3.1880
  71   0.0000       0.131762         3.5854

MULLIKEN ATOMIC CHARGES
-----------------------
   0 S :    0.094305
   1 C :   -0.105949
   2 C :   -0.059732
   3 C :    0.024087
   4 C :   -0.141388
   5 H :    0.016928
   6 C :    0.037772
   7 H :    0.019936
   8 H :    0.030660
   9 C :   -0.049680
  10 H :    0.030573
  11 H :    0.020690
  12 C :   -0.044682
  13 H :    0.030377
  14 H :    0.027571
  15 H :    0.020098
  16 S :    0.102057
  17 C :   -0.111374
  18 C :   -0.040024
  19 C :   -0.062683
  20 C :   -0.150381
  21 H :    0.051744
  22 C :    0.035134
  23 H :    0.012535
  24 H :    0.051881
  25 C :   -0.057846
  26 H :    0.024077
  27 H :    0.061811
  28 C :   -0.090280
  29 H :    0.032473
  30 H :    0.043784
  31 H :    0.031103
  32 H :    0.049513
  33 H :    0.064909
Sum of atomic charges:   -0.0000000

LOEWDIN ATOMIC CHARGES
----------------------
   0 S :    0.401107
   1 C :   -0.195006
   2 C :   -0.061825
   3 C :   -0.063385
   4 C :   -0.182601
   5 H :    0.032663
   6 C :   -0.034177
   7 H :    0.023868
   8 H :    0.032522
   9 C :   -0.038416
  10 H :    0.026216
  11 H :    0.016981
  12 C :   -0.073387
  13 H :    0.022868
  14 H :    0.028069
  15 H :    0.027813
  16 S :    0.410222
  17 C :   -0.173236
  18 C :   -0.076303
  19 C :   -0.065966
  20 C :   -0.210358
  21 H :    0.046915
  22 C :   -0.036388
  23 H :    0.026483
  24 H :    0.040957
  25 C :   -0.043324
  26 H :    0.020453
  27 H :    0.033847
  28 C :   -0.071507
  29 H :    0.028875
  30 H :    0.027735
  31 H :    0.020720
  32 H :    0.028475
  33 H :    0.029090

  Mayer bond orders larger than 0.100000
B(  0-S ,  1-C ) :   1.1439 B(  0-S ,  4-C ) :   1.1583 B(  1-C ,  2-C ) :   1.5595
B(  1-C ,  4-C ) :   0.1073 B(  1-C , 32-H ) :   0.9827 B(  2-C ,  3-C ) :   1.2400
B(  2-C ,  6-C ) :   1.0329 B(  3-C ,  4-C ) :   1.5396 B(  3-C ,  5-H ) :   0.9964
B(  4-C , 20-C ) :   1.0566 B(  6-C ,  7-H ) :   0.9392 B(  6-C ,  8-H ) :   0.9501
B(  6-C ,  9-C ) :   1.0688 B(  9-C , 10-H ) :   0.9571 B(  9-C , 11-H ) :   0.9561
B(  9-C , 12-C ) :   1.0771 B( 12-C , 13-H ) :   0.9684 B( 12-C , 14-H ) :   0.9747
B( 12-C , 15-H ) :   0.9686 B( 16-S , 17-C ) :   1.1567 B( 16-S , 20-C ) :   1.1518
B( 17-C , 18-C ) :   1.5989 B( 17-C , 20-C ) :   0.1021 B( 17-C , 33-H ) :   0.9679
B( 18-C , 19-C ) :   1.2543 B( 18-C , 21-H ) :   0.9757 B( 19-C , 20-C ) :   1.5860
B( 19-C , 22-C ) :   1.0202 B( 22-C , 23-H ) :   0.9338 B( 22-C , 24-H ) :   0.9443
B( 22-C , 25-C ) :   1.0633 B( 25-C , 26-H ) :   0.9585 B( 25-C , 27-H ) :   0.9518
B( 25-C , 28-C ) :   1.0759 B( 28-C , 29-H ) :   0.9742 B( 28-C , 30-H ) :   0.9742
B( 28-C , 31-H ) :   0.9766

Dispersion correction           -0.015707516
FINAL SINGLE POINT ENERGY     -1339.865040540847

DIPOLE MOMENT
-------------
                                X             Y             Z
Electronic contribution:     12.61532      21.44199     -11.15231
Nuclear contribution   :    -12.55276     -22.01569      11.41561
                        -----------------------------------------
Total Dipole Moment    :      0.06256      -0.57370       0.26329
                        -----------------------------------------
Magnitude (a.u.)       :      0.63433
Magnitude (Debye)      :      1.61233

Rotational constants in cm-1:     0.019494     0.010056     0.007677
Rotational constants in MHz :   584.428213   301.461708   230.152091

                             ****ORCA TERMINATED NORMALLY****
TOTAL RUN TIME: 0 days 0 hours 0 minutes 36 seconds 442 msec
