                         Program Version 4.2.1 -  RELEASE  -
|  1> ! wB97X-D3 SP def2-SVP
|  2> %pal
|  3> nprocs 16
|  4> end
|  5>
|  6> * xyz 0 1
|  7> S 	 -3.35478 	 -4.00093 	 80.459
|  8> C 	 -3.87136 	 -5.6983 	 80.4905
|  9> C 	 -4.15716 	 -6.19538 	 81.7868
| 10> C 	 -4.02542 	 -5.14106 	 82.7062
| 11> C 	 -3.53945 	 -3.91167 	 82.174
| 12> H 	 -4.18905 	 -5.0024 	 83.7621
| 13> C 	 -4.83068 	 -7.51061 	 82.0909
| 14> H 	 -4.09775 	 -8.15547 	 82.3513
| 15> H 	 -5.09245 	 -7.99291 	 81.0998
| 16> C 	 -6.04761 	 -7.60941 	 82.9943
| 17> H 	 -6.20153 	 -8.68301 	 83.1819
| 18> H 	 -5.92515 	 -7.1537 	 84.0025
| 19> C 	 -7.32687 	 -7.07174 	 82.3905
| 20> H 	 -7.75441 	 -7.48806 	 81.4382
| 21> H 	 -8.162 	 -7.25348 	 83.1064
| 22> H 	 -7.12336 	 -6.00824 	 82.3517
| 23> S 	 -4.62624 	 -1.5618 	 82.7428
| 24> C 	 -4.19228 	 -0.66555 	 84.2047
| 25> C 	 -3.07763 	 -1.22559 	 84.7699
| 26> C 	 -2.67009 	 -2.41017 	 84.1528
| 27> C 	 -3.37556 	 -2.7167 	 82.9953
| 28> H 	 -2.66063 	 -0.77356 	 85.7004
| 29> C 	 -1.52905 	 -3.22704 	 84.6892
| 30> H 	 -0.857163 	 -2.597 	 85.316
| 31> H 	 -1.06169 	 -3.69718 	 83.7974
| 32> C 	 -1.83723 	 -4.37867 	 85.6627
| 33> H 	 -0.947148 	 -4.98284 	 85.5489
| 34> H 	 -2.63436 	 -4.97971 	 85.278
| 35> C 	 -2.04921 	 -3.99422 	 87.1731
| 36> H 	 -1.15699 	 -3.51493 	 87.4235
| 37> H 	 -2.33704 	 -4.81002 	 87.8422
| 38> H 	 -2.83878 	 -3.2749 	 87.425
| 39> H 	 -3.95481 	 -6.37656 	 79.716
| 40> H 	 -4.43501 	 0.328998 	 84.5093
| 41> *
| 42>
| 43>                          ****END OF INPUT****

CARTESIAN COORDINATES (ANGSTROEM)
---------------------------------
  S     -3.354780   -4.000930   80.459000
  C     -3.871360   -5.698300   80.490500
  C     -4.157160   -6.195380   81.786800
  C     -4.025420   -5.141060   82.706200
  C     -3.539450   -3.911670   82.174000
  H     -4.189050   -5.002400   83.762100
  C     -4.830680   -7.510610   82.090900
  H     -4.097750   -8.155470   82.351300
  H     -5.092450   -7.992910   81.099800
  C     -6.047610   -7.609410   82.994300
  H     -6.201530   -8.683010   83.181900
  H     -5.925150   -7.153700   84.002500
  C     -7.326870   -7.071740   82.390500
  H     -7.754410   -7.488060   81.438200
  H     -8.162000   -7.253480   83.106400
  H     -7.123360   -6.008240   82.351700
  S     -4.626240   -1.561800   82.742800
  C     -4.192280   -0.665550   84.204700
  C     -3.077630   -1.225590   84.769900
  C     -2.670090   -2.410170   84.152800
  C     -3.375560   -2.716700   82.995300
  H     -2.660630   -0.773560   85.700400
  C     -1.529050   -3.227040   84.689200
  H     -0.857163   -2.597000   85.316000
  H     -1.061690   -3.697180   83.797400
  C     -1.837230   -4.378670   85.662700
  H     -0.947148   -4.982840   85.548900
  H     -2.634360   -4.979710   85.278000
  C     -2.049210   -3.994220   87.173100
  H     -1.156990   -3.514930   87.423500
  H     -2.337040   -4.810020   87.842200
  H     -2.838780   -3.274900   87.425000
  H     -3.954810   -6.376560   79.716000
  H     -4.435010    0.328998   84.509300

 Total Charge           Charge          ....    0
 Multiplicity           Mult            ....    1
 Number of Electrons    NEL             ....  134
 Basis Dimension        Dim             ....  322

ORBITAL ENERGIES
----------------

  NO   OCC          E(Eh)            E(eV)
   0   2.0000     -88.976566     -2421.1754
   1   2.0000     -88.963497     -2420.8198
   2   2.0000     -10.329267      -281.0737
   3   2.0000     -10.323440      -280.9151
   4   2.0000     -10.314911      -280.6830
   5   2.0000     -10.312603      -280.6202
   6   2.0000     -10.306264      -280.4477
   7   2.0000     -10.298734      -280.2428
   8   2.0000     -10.294097      -280.1166
   9   2.0000     -10.292372      -280.0697
  10   2.0000     -10.292014      -280.0599
  11   2.0000     -10.291286      -280.0401
  12   2.0000     -10.290246      -280.0118
  13   2.0000     -10.284669      -279.8601
  14   2.0000     -10.278665      -279.6967
  15   2.0000     -10.277373      -279.6615
  16   2.0000      -8.090374      -220.1503
  17   2.0000      -8.078515      -219.8276
  18   2.0000      -6.048747      -164.5948
  19   2.0000      -6.044958      -164.4917
  20   2.0000      -6.041403      -164.3949
  21   2.0000      -6.037045      -164.2763
  22   2.0000      -6.032810      -164.1611
  23   2.0000      -6.029378      -164.0677
  24   2.0000      -1.009805       -27.4782
  25   2.0000      -0.984636       -26.7933
  26   2.0000      -0.917204       -24.9584
  27   2.0000      -0.906668       -24.6717
  28   2.0000      -0.872969       -23.7547
  29   2.0000      -0.852034       -23.1850
  30   2.0000      -0.846208       -23.0265
  31   2.0000      -0.815356       -22.1870
  32   2.0000      -0.788231       -21.4488
  33   2.0000      -0.776191       -21.1212
  34   2.0000      -0.712829       -19.3971
  35   2.0000      -0.698071       -18.9955
  36   2.0000      -0.691459       -18.8156
  37   2.0000      -0.662834       -18.0366
  38   2.0000      -0.647325       -17.6146
  39   2.0000      -0.615420       -16.7464
  40   2.0000      -0.591755       -16.1025
  41   2.0000      -0.573673       -15.6104
  42   2.0000      -0.559201       -15.2166
  43   2.0000      -0.555493       -15.1157
  44   2.0000      -0.540403       -14.7051
  45   2.0000      -0.536226       -14.5915
  46   2.0000      -0.518585       -14.1114
  47   2.0000      -0.512194       -13.9375
  48   2.0000      -0.503728       -13.7071
  49   2.0000      -0.494051       -13.4438
  50   2.0000      -0.482907       -13.1406
  51   2.0000      -0.480571       -13.0770
  52   2.0000      -0.475195       -12.9307
  53   2.0000      -0.470484       -12.8025
  54   2.0000      -0.460006       -12.5174
  55   2.0000      -0.443862       -12.0781
  56   2.0000      -0.439400       -11.9567
  57   2.0000      -0.435849       -11.8601
  58   2.0000      -0.432181       -11.7602
  59   2.0000      -0.424840       -11.5605
  60   2.0000      -0.422771       -11.5042
  61   2.0000      -0.415311       -11.3012
  62   2.0000      -0.412561       -11.2263
  63   2.0000      -0.343402        -9.3444
  64   2.0000      -0.336268        -9.1503
  65   2.0000      -0.320067        -8.7095
  66   2.0000      -0.298045        -8.1102
  67   0.0000       0.030507         0.8301
  68   0.0000       0.059723         1.6251
  69   0.0000       0.112310         3.0561
  70   0.0000       0.124704         3.3934
  71   0.0000       0.129360         3.5201

MULLIKEN ATOMIC CHARGES
-----------------------
   0 S :    0.143595
   1 C :   -0.078782
   2 C :   -0.078084
   3 C :    0.029488
   4 C :   -0.200480
   5 H :    0.014252
   6 C :    0.112675
   7 H :    0.006791
   8 H :    0.010240
   9 C :   -0.072459
  10 H :    0.025866
  11 H :    0.040973
  12 C :   -0.072264
  13 H :    0.042144
  14 H :    0.033591
  15 H :    0.044123
  16 S :    0.106778
  17 C :   -0.070822
  18 C :   -0.071657
  19 C :   -0.019682
  20 C :   -0.167615
  21 H :    0.033185
  22 C :    0.037920
  23 H :    0.016947
  24 H :    0.042106
  25 C :   -0.035936
  26 H :    0.027133
  27 H :    0.003363
  28 C :   -0.044621
  29 H :    0.015619
  30 H :    0.039573
  31 H :    0.029165
  32 H :    0.011037
  33 H :    0.045838
Sum of atomic charges:   -0.0000000

LOEWDIN ATOMIC CHARGES
----------------------
   0 S :    0.425274
   1 C :   -0.182761
   2 C :   -0.057346
   3 C :   -0.059969
   4 C :   -0.220067
   5 H :    0.027605
   6 C :   -0.032148
   7 H :    0.020545
   8 H :    0.039368
   9 C :   -0.043220
  10 H :    0.027636
  11 H :    0.030978
  12 C :   -0.073352
  13 H :    0.029911
  14 H :    0.029343
  15 H :    0.028398
  16 S :    0.419620
  17 C :   -0.184996
  18 C :   -0.075833
  19 C :   -0.064904
  20 C :   -0.212003
  21 H :    0.039320
  22 C :   -0.031781
  23 H :    0.031982
  24 H :    0.040070
  25 C :   -0.033478
  26 H :    0.027669
  27 H :    0.011854
  28 C :   -0.069021
  29 H :    0.015390
  30 H :    0.031000
  31 H :    0.026798
  32 H :    0.010434
  33 H :    0.027681

  Mayer bond orders larger than 0.100000
B(  0-S ,  1-C ) :   1.1563 B(  0-S ,  4-C ) :   1.1628 B(  1-C ,  2-C ) :   1.5789
B(  1-C ,  4-C ) :   0.1100 B(  1-C , 32-H ) :   0.9684 B(  2-C ,  3-C ) :   1.2483
B(  2-C ,  6-C ) :   1.0150 B(  3-C ,  4-C ) :   1.5506 B(  3-C ,  5-H ) :   0.9875
B(  4-C , 20-C ) :   1.0091 B(  6-C ,  7-H ) :   0.9178 B(  6-C ,  8-H ) :   0.9315
B(  6-C ,  9-C ) :   1.0818 B(  9-C , 10-H ) :   0.9476 B(  9-C , 11-H ) :   0.9506
B(  9-C , 12-C ) :   1.0774 B( 12-C , 13-H ) :   0.9741 B( 12-C , 14-H ) :   0.9728
B( 12-C , 15-H ) :   0.9777 B( 16-S , 17-C ) :   1.1584 B( 16-S , 20-C ) :   1.1582
B( 17-C , 18-C ) :   1.6098 B( 17-C , 20-C ) :   0.1052 B( 17-C , 33-H ) :   0.9600
B( 18-C , 19-C ) :   1.2664 B( 18-C , 21-H ) :   0.9802 B( 19-C , 20-C ) :   1.5809
B( 19-C , 22-C ) :   1.0531 B( 22-C , 23-H ) :   0.9366 B( 22-C , 24-H ) :   0.9318
B( 22-C , 25-C ) :   1.0713 B( 25-C , 26-H ) :   0.9543 B( 25-C , 27-H ) :   0.9520
B( 25-C , 28-C ) :   1.0608 B( 28-C , 29-H ) :   0.9755 B( 28-C , 30-H ) :   0.9751
B( 28-C , 31-H ) :   0.9774

Dispersion correction           -0.014809031
FINAL SINGLE POINT ENERGY     -1339.849133763814

DIPOLE MOMENT
-------------
                                X             Y             Z
Electronic contribution:      2.36969      18.00560     -17.83035
Nuclear contribution   :     -2.34600     -18.44544      18.31868
                        -----------------------------------------
Total Dipole Moment    :      0.02369      -0.43984       0.48834
                        -----------------------------------------
Magnitude (a.u.)       :      0.65764
Magnitude (Debye)      :      1.67159

Rotational constants in cm-1:     0.017155     0.009231     0.007753
Rotational constants in MHz :   514.283993   276.745888   232.437737

                             ****ORCA TERMINATED NORMALLY****
TOTAL RUN TIME: 0 days 0 hours 0 minutes 35 seconds 762 msec
