                         Program Version 4.2.1 -  RELEASE  -
|  1> ! wB97X-D3 SP def2-SVP
|  2> %pal
|  3> nprocs 16
|  4> end
|  5>
|  6> * xyz 0 1
|  7> S 	 -52.9342 	 36.0138 	 89.2301
|  8> C 	 -53.1829 	 34.7537 	 88.0511
|  9> C 	 -54.1051 	 35.2383 	 87.0811
| 10> C 	 -54.7577 	 36.4736 	 87.4185
| 11> C 	 -54.1389 	 37.1378 	 88.5065
| 12> H 	 -55.5439 	 36.9295 	 86.8474
| 13> C 	 -54.5078 	 34.3722 	 85.902
| 14> H 	 -55.2565 	 34.9444 	 85.2488
| 15> H 	 -55.0474 	 33.4568 	 86.1095
| 16> C 	 -53.3802 	 33.9575 	 84.9387
| 17> H 	 -52.4125 	 33.6497 	 85.4287
| 18> H 	 -53.5629 	 33.0262 	 84.3932
| 19> C 	 -52.9445 	 34.9879 	 83.8874
| 20> H 	 -53.0898 	 36.0495 	 84.1882
| 21> H 	 -51.9337 	 35.0466 	 83.6023
| 22> H 	 -53.4588 	 34.7437 	 82.9829
| 23> S 	 -53.5925 	 39.8756 	 88.714
| 24> C 	 -54.5958 	 40.8896 	 89.7297
| 25> C 	 -55.5241 	 40.1213 	 90.4528
| 26> C 	 -55.5209 	 38.7417 	 90.0476
| 27> C 	 -54.5646 	 38.3764 	 89.0969
| 28> H 	 -56.3004 	 40.6958 	 90.9624
| 29> C 	 -56.5777 	 37.8461 	 90.6573
| 30> H 	 -57.2894 	 37.3862 	 89.965
| 31> H 	 -57.1891 	 38.5182 	 91.2742
| 32> C 	 -56.0424 	 36.6487 	 91.5237
| 33> H 	 -55.7838 	 37.0142 	 92.5196
| 34> H 	 -55.14 	 36.2782 	 91.1543
| 35> C 	 -56.9882 	 35.5593 	 91.5835
| 36> H 	 -57.9483 	 35.8792 	 91.9347
| 37> H 	 -56.5639 	 34.7751 	 92.2855
| 38> H 	 -57.048 	 35.1234 	 90.5409
| 39> H 	 -52.6422 	 33.8002 	 87.9962
| 40> H 	 -54.5707 	 41.9527 	 89.7452
| 41> *
| 42>
| 43>                          ****END OF INPUT****

CARTESIAN COORDINATES (ANGSTROEM)
---------------------------------
  S    -52.934200   36.013800   89.230100
  C    -53.182900   34.753700   88.051100
  C    -54.105100   35.238300   87.081100
  C    -54.757700   36.473600   87.418500
  C    -54.138900   37.137800   88.506500
  H    -55.543900   36.929500   86.847400
  C    -54.507800   34.372200   85.902000
  H    -55.256500   34.944400   85.248800
  H    -55.047400   33.456800   86.109500
  C    -53.380200   33.957500   84.938700
  H    -52.412500   33.649700   85.428700
  H    -53.562900   33.026200   84.393200
  C    -52.944500   34.987900   83.887400
  H    -53.089800   36.049500   84.188200
  H    -51.933700   35.046600   83.602300
  H    -53.458800   34.743700   82.982900
  S    -53.592500   39.875600   88.714000
  C    -54.595800   40.889600   89.729700
  C    -55.524100   40.121300   90.452800
  C    -55.520900   38.741700   90.047600
  C    -54.564600   38.376400   89.096900
  H    -56.300400   40.695800   90.962400
  C    -56.577700   37.846100   90.657300
  H    -57.289400   37.386200   89.965000
  H    -57.189100   38.518200   91.274200
  C    -56.042400   36.648700   91.523700
  H    -55.783800   37.014200   92.519600
  H    -55.140000   36.278200   91.154300
  C    -56.988200   35.559300   91.583500
  H    -57.948300   35.879200   91.934700
  H    -56.563900   34.775100   92.285500
  H    -57.048000   35.123400   90.540900
  H    -52.642200   33.800200   87.996200
  H    -54.570700   41.952700   89.745200

 Total Charge           Charge          ....    0
 Multiplicity           Mult            ....    1
 Number of Electrons    NEL             ....  134
 Basis Dimension        Dim             ....  322

ORBITAL ENERGIES
----------------

  NO   OCC          E(Eh)            E(eV)
   0   2.0000     -88.972283     -2421.0589
   1   2.0000     -88.963479     -2420.8193
   2   2.0000     -10.337908      -281.3088
   3   2.0000     -10.331755      -281.1414
   4   2.0000     -10.325770      -280.9785
   5   2.0000     -10.322670      -280.8941
   6   2.0000     -10.310946      -280.5751
   7   2.0000     -10.310330      -280.5583
   8   2.0000     -10.305343      -280.4226
   9   2.0000     -10.299474      -280.2629
  10   2.0000     -10.297623      -280.2126
  11   2.0000     -10.289278      -279.9855
  12   2.0000     -10.289024      -279.9786
  13   2.0000     -10.273199      -279.5480
  14   2.0000     -10.268306      -279.4148
  15   2.0000     -10.267729      -279.3991
  16   2.0000      -8.085385      -220.0145
  17   2.0000      -8.077298      -219.7945
  18   2.0000      -6.043956      -164.4644
  19   2.0000      -6.039777      -164.3507
  20   2.0000      -6.036473      -164.2608
  21   2.0000      -6.035842      -164.2436
  22   2.0000      -6.031759      -164.1325
  23   2.0000      -6.028236      -164.0366
  24   2.0000      -0.996892       -27.1268
  25   2.0000      -0.976294       -26.5663
  26   2.0000      -0.910258       -24.7694
  27   2.0000      -0.905794       -24.6479
  28   2.0000      -0.868961       -23.6456
  29   2.0000      -0.853203       -23.2168
  30   2.0000      -0.847359       -23.0578
  31   2.0000      -0.812232       -22.1020
  32   2.0000      -0.779812       -21.2198
  33   2.0000      -0.765305       -20.8250
  34   2.0000      -0.706861       -19.2347
  35   2.0000      -0.700151       -19.0521
  36   2.0000      -0.688082       -18.7237
  37   2.0000      -0.661196       -17.9921
  38   2.0000      -0.644684       -17.5427
  39   2.0000      -0.613391       -16.6912
  40   2.0000      -0.595190       -16.1959
  41   2.0000      -0.573612       -15.6088
  42   2.0000      -0.565525       -15.3887
  43   2.0000      -0.551805       -15.0154
  44   2.0000      -0.540187       -14.6992
  45   2.0000      -0.522994       -14.2314
  46   2.0000      -0.514382       -13.9971
  47   2.0000      -0.509986       -13.8774
  48   2.0000      -0.509438       -13.8625
  49   2.0000      -0.500759       -13.6263
  50   2.0000      -0.489307       -13.3147
  51   2.0000      -0.478025       -13.0077
  52   2.0000      -0.468978       -12.7615
  53   2.0000      -0.466493       -12.6939
  54   2.0000      -0.458368       -12.4728
  55   2.0000      -0.443284       -12.0624
  56   2.0000      -0.436867       -11.8877
  57   2.0000      -0.430410       -11.7121
  58   2.0000      -0.426851       -11.6152
  59   2.0000      -0.423377       -11.5207
  60   2.0000      -0.417864       -11.3706
  61   2.0000      -0.406880       -11.0718
  62   2.0000      -0.401339       -10.9210
  63   2.0000      -0.337826        -9.1927
  64   2.0000      -0.329023        -8.9532
  65   2.0000      -0.319808        -8.7024
  66   2.0000      -0.307621        -8.3708
  67   0.0000       0.032368         0.8808
  68   0.0000       0.037413         1.0181
  69   0.0000       0.110873         3.0170
  70   0.0000       0.114949         3.1279
  71   0.0000       0.121116         3.2957

MULLIKEN ATOMIC CHARGES
-----------------------
   0 S :    0.124154
   1 C :   -0.125092
   2 C :   -0.073742
   3 C :    0.065154
   4 C :   -0.166712
   5 H :    0.019683
   6 C :    0.045267
   7 H :    0.028775
   8 H :    0.040838
   9 C :   -0.100455
  10 H :    0.024548
  11 H :    0.021441
  12 C :   -0.045191
  13 H :    0.033996
  14 H :    0.014711
  15 H :    0.025137
  16 S :    0.090857
  17 C :   -0.089440
  18 C :   -0.043978
  19 C :   -0.012607
  20 C :   -0.176870
  21 H :    0.036041
  22 C :    0.062427
  23 H :    0.027922
  24 H :    0.009510
  25 C :   -0.025154
  26 H :    0.016341
  27 H :    0.003963
  28 C :   -0.066247
  29 H :    0.024998
  30 H :    0.039457
  31 H :    0.042494
  32 H :    0.073378
  33 H :    0.054399
Sum of atomic charges:   -0.0000000

LOEWDIN ATOMIC CHARGES
----------------------
   0 S :    0.412433
   1 C :   -0.195795
   2 C :   -0.069018
   3 C :   -0.041793
   4 C :   -0.196360
   5 H :    0.033881
   6 C :   -0.039292
   7 H :    0.036305
   8 H :    0.033470
   9 C :   -0.052671
  10 H :    0.025448
  11 H :    0.024277
  12 C :   -0.072084
  13 H :    0.031017
  14 H :    0.019909
  15 H :    0.021798
  16 S :    0.378521
  17 C :   -0.167195
  18 C :   -0.083877
  19 C :   -0.042061
  20 C :   -0.192187
  21 H :    0.036605
  22 C :   -0.029610
  23 H :    0.030374
  24 H :    0.028716
  25 C :   -0.041024
  26 H :    0.021686
  27 H :    0.006599
  28 C :   -0.065855
  29 H :    0.016610
  30 H :    0.034894
  31 H :    0.032593
  32 H :    0.038449
  33 H :    0.025233

  Mayer bond orders larger than 0.100000
B(  0-S ,  1-C ) :   1.1670 B(  0-S ,  4-C ) :   1.1408 B(  1-C ,  2-C ) :   1.5532
B(  1-C ,  4-C ) :   0.1115 B(  1-C , 32-H ) :   0.9679 B(  2-C ,  3-C ) :   1.2696
B(  2-C ,  6-C ) :   1.0201 B(  3-C ,  4-C ) :   1.5459 B(  3-C ,  5-H ) :   0.9917
B(  4-C , 20-C ) :   1.0615 B(  6-C ,  7-H ) :   0.9518 B(  6-C ,  8-H ) :   0.9444
B(  6-C ,  9-C ) :   1.0542 B(  9-C , 10-H ) :   0.9634 B(  9-C , 11-H ) :   0.9613
B(  9-C , 12-C ) :   1.0646 B( 12-C , 13-H ) :   0.9783 B( 12-C , 14-H ) :   0.9756
B( 12-C , 15-H ) :   0.9793 B( 16-S , 17-C ) :   1.1821 B( 16-S , 20-C ) :   1.1040
B( 17-C , 18-C ) :   1.6021 B( 17-C , 20-C ) :   0.1047 B( 17-C , 33-H ) :   0.9672
B( 18-C , 19-C ) :   1.2504 B( 18-C , 21-H ) :   0.9787 B( 19-C , 20-C ) :   1.5951
B( 19-C , 22-C ) :   1.0417 B( 22-C , 23-H ) :   0.9470 B( 22-C , 24-H ) :   0.9262
B( 22-C , 25-C ) :   1.0429 B( 25-C , 26-H ) :   0.9451 B( 25-C , 27-H ) :   0.9569
B( 25-C , 28-C ) :   1.1021 B( 28-C , 29-H ) :   0.9730 B( 28-C , 30-H ) :   0.9671
B( 28-C , 31-H ) :   0.9712

Dispersion correction           -0.014478567
FINAL SINGLE POINT ENERGY     -1339.856523725918

DIPOLE MOMENT
-------------
                                X             Y             Z
Electronic contribution:     10.39298      16.10793       6.85960
Nuclear contribution   :    -10.82230     -16.35072      -7.02882
                        -----------------------------------------
Total Dipole Moment    :     -0.42932      -0.24278      -0.16923
                        -----------------------------------------
Magnitude (a.u.)       :      0.52144
Magnitude (Debye)      :      1.32539

Rotational constants in cm-1:     0.019612     0.008382     0.006780
Rotational constants in MHz :   587.951746   251.288628   203.244532

                             ****ORCA TERMINATED NORMALLY****
TOTAL RUN TIME: 0 days 0 hours 0 minutes 28 seconds 357 msec
