                         Program Version 4.2.1 -  RELEASE  -
|  1> ! wB97X-D3 SP def2-SVP
|  2> %pal
|  3> nprocs 16
|  4> end
|  5>
|  6> * xyz 0 1
|  7> S 	 -53.6111 	 38.24 	 115.677
|  8> C 	 -53.7455 	 36.54 	 115.304
|  9> C 	 -54.7922 	 36.2916 	 114.478
| 10> C 	 -55.5639 	 37.4577 	 114.2
| 11> C 	 -55.0308 	 38.6253 	 114.756
| 12> H 	 -56.4619 	 37.4721 	 113.552
| 13> C 	 -55.1779 	 34.922 	 113.964
| 14> H 	 -56.3012 	 34.7888 	 114.021
| 15> H 	 -54.9325 	 34.2225 	 114.745
| 16> C 	 -54.6943 	 34.4493 	 112.534
| 17> H 	 -55.0911 	 33.4444 	 112.485
| 18> H 	 -55.1566 	 34.9657 	 111.653
| 19> C 	 -53.1549 	 34.4053 	 112.49
| 20> H 	 -52.8047 	 35.4112 	 112.259
| 21> H 	 -52.6967 	 34.0975 	 113.43
| 22> H 	 -52.7139 	 33.6331 	 111.883
| 23> S 	 -57.2399 	 39.9329 	 115.495
| 24> C 	 -57.4061 	 41.584 	 114.961
| 25> C 	 -56.3138 	 42.0621 	 114.287
| 26> C 	 -55.3176 	 41.0501 	 114.054
| 27> C 	 -55.7091 	 39.8813 	 114.632
| 28> H 	 -56.3655 	 43.0958 	 113.918
| 29> C 	 -54.0356 	 41.3427 	 113.294
| 30> H 	 -53.2495 	 40.6196 	 113.677
| 31> H 	 -53.7422 	 42.3053 	 113.627
| 32> C 	 -54.0992 	 41.117 	 111.742
| 33> H 	 -53.1507 	 41.2737 	 111.387
| 34> H 	 -54.8621 	 41.7858 	 111.217
| 35> C 	 -54.4062 	 39.6354 	 111.387
| 36> H 	 -53.7763 	 38.975 	 112.037
| 37> H 	 -54.2554 	 39.4439 	 110.361
| 38> H 	 -55.4782 	 39.4089 	 111.608
| 39> H 	 -53.0582 	 35.7631 	 115.626
| 40> H 	 -58.135 	 42.3604 	 115.191
| 41> *
| 42>
| 43>                          ****END OF INPUT****

CARTESIAN COORDINATES (ANGSTROEM)
---------------------------------
  S    -53.611100   38.240000  115.677000
  C    -53.745500   36.540000  115.304000
  C    -54.792200   36.291600  114.478000
  C    -55.563900   37.457700  114.200000
  C    -55.030800   38.625300  114.756000
  H    -56.461900   37.472100  113.552000
  C    -55.177900   34.922000  113.964000
  H    -56.301200   34.788800  114.021000
  H    -54.932500   34.222500  114.745000
  C    -54.694300   34.449300  112.534000
  H    -55.091100   33.444400  112.485000
  H    -55.156600   34.965700  111.653000
  C    -53.154900   34.405300  112.490000
  H    -52.804700   35.411200  112.259000
  H    -52.696700   34.097500  113.430000
  H    -52.713900   33.633100  111.883000
  S    -57.239900   39.932900  115.495000
  C    -57.406100   41.584000  114.961000
  C    -56.313800   42.062100  114.287000
  C    -55.317600   41.050100  114.054000
  C    -55.709100   39.881300  114.632000
  H    -56.365500   43.095800  113.918000
  C    -54.035600   41.342700  113.294000
  H    -53.249500   40.619600  113.677000
  H    -53.742200   42.305300  113.627000
  C    -54.099200   41.117000  111.742000
  H    -53.150700   41.273700  111.387000
  H    -54.862100   41.785800  111.217000
  C    -54.406200   39.635400  111.387000
  H    -53.776300   38.975000  112.037000
  H    -54.255400   39.443900  110.361000
  H    -55.478200   39.408900  111.608000
  H    -53.058200   35.763100  115.626000
  H    -58.135000   42.360400  115.191000

 Total Charge           Charge          ....    0
 Multiplicity           Mult            ....    1
 Number of Electrons    NEL             ....  134
 Basis Dimension        Dim             ....  322

ORBITAL ENERGIES
----------------

  NO   OCC          E(Eh)            E(eV)
   0   2.0000     -88.968221     -2420.9484
   1   2.0000     -88.967518     -2420.9292
   2   2.0000     -10.323346      -280.9125
   3   2.0000     -10.319179      -280.7991
   4   2.0000     -10.310789      -280.5708
   5   2.0000     -10.310105      -280.5522
   6   2.0000     -10.299461      -280.2626
   7   2.0000     -10.295453      -280.1535
   8   2.0000     -10.294585      -280.1299
   9   2.0000     -10.294528      -280.1283
  10   2.0000     -10.294440      -280.1260
  11   2.0000     -10.291564      -280.0477
  12   2.0000     -10.289984      -280.0047
  13   2.0000     -10.287077      -279.9256
  14   2.0000     -10.275121      -279.6002
  15   2.0000     -10.273640      -279.5599
  16   2.0000      -8.082715      -219.9419
  17   2.0000      -8.082003      -219.9225
  18   2.0000      -6.041246      -164.3907
  19   2.0000      -6.040549      -164.3717
  20   2.0000      -6.037176      -164.2799
  21   2.0000      -6.036727      -164.2677
  22   2.0000      -6.033552      -164.1813
  23   2.0000      -6.032530      -164.1535
  24   2.0000      -1.009244       -27.4629
  25   2.0000      -0.985185       -26.8083
  26   2.0000      -0.905175       -24.6311
  27   2.0000      -0.903097       -24.5745
  28   2.0000      -0.870613       -23.6906
  29   2.0000      -0.849297       -23.1106
  30   2.0000      -0.844051       -22.9678
  31   2.0000      -0.809690       -22.0328
  32   2.0000      -0.781904       -21.2767
  33   2.0000      -0.772600       -21.0235
  34   2.0000      -0.710177       -19.3249
  35   2.0000      -0.700246       -19.0547
  36   2.0000      -0.690344       -18.7852
  37   2.0000      -0.659107       -17.9352
  38   2.0000      -0.635301       -17.2874
  39   2.0000      -0.612093       -16.6559
  40   2.0000      -0.587116       -15.9762
  41   2.0000      -0.568964       -15.4823
  42   2.0000      -0.554150       -15.0792
  43   2.0000      -0.546225       -14.8635
  44   2.0000      -0.541091       -14.7238
  45   2.0000      -0.534360       -14.5407
  46   2.0000      -0.512091       -13.9347
  47   2.0000      -0.504262       -13.7217
  48   2.0000      -0.502333       -13.6692
  49   2.0000      -0.490254       -13.3405
  50   2.0000      -0.486500       -13.2384
  51   2.0000      -0.477679       -12.9983
  52   2.0000      -0.471395       -12.8273
  53   2.0000      -0.460109       -12.5202
  54   2.0000      -0.450441       -12.2571
  55   2.0000      -0.447336       -12.1726
  56   2.0000      -0.443538       -12.0693
  57   2.0000      -0.440868       -11.9966
  58   2.0000      -0.430081       -11.7031
  59   2.0000      -0.422151       -11.4873
  60   2.0000      -0.419609       -11.4181
  61   2.0000      -0.416608       -11.3365
  62   2.0000      -0.415372       -11.3029
  63   2.0000      -0.335326        -9.1247
  64   2.0000      -0.334384        -9.0991
  65   2.0000      -0.328719        -8.9449
  66   2.0000      -0.299237        -8.1426
  67   0.0000       0.041833         1.1383
  68   0.0000       0.064598         1.7578
  69   0.0000       0.107874         2.9354
  70   0.0000       0.121543         3.3074
  71   0.0000       0.127427         3.4675

MULLIKEN ATOMIC CHARGES
-----------------------
   0 S :    0.126939
   1 C :   -0.136772
   2 C :   -0.052033
   3 C :   -0.001238
   4 C :   -0.159021
   5 H :    0.027040
   6 C :    0.015242
   7 H :    0.029489
   8 H :    0.017537
   9 C :   -0.047803
  10 H :    0.024483
  11 H :    0.045888
  12 C :   -0.044444
  13 H :    0.048516
  14 H :    0.010326
  15 H :    0.028073
  16 S :    0.134898
  17 C :   -0.074745
  18 C :   -0.076340
  19 C :   -0.014164
  20 C :   -0.198007
  21 H :    0.024965
  22 C :    0.072516
  23 H :    0.024374
  24 H :    0.019068
  25 C :   -0.036128
  26 H :    0.014997
  27 H :    0.041729
  28 C :   -0.069300
  29 H :    0.040793
  30 H :    0.027958
  31 H :    0.040515
  32 H :    0.046837
  33 H :    0.047811
Sum of atomic charges:    0.0000000

LOEWDIN ATOMIC CHARGES
----------------------
   0 S :    0.416792
   1 C :   -0.199463
   2 C :   -0.073534
   3 C :   -0.062635
   4 C :   -0.211275
   5 H :    0.035067
   6 C :   -0.038201
   7 H :    0.036178
   8 H :    0.027935
   9 C :   -0.037575
  10 H :    0.023356
  11 H :    0.031506
  12 C :   -0.070681
  13 H :    0.029674
  14 H :    0.022692
  15 H :    0.024987
  16 S :    0.413886
  17 C :   -0.195673
  18 C :   -0.074679
  19 C :   -0.055061
  20 C :   -0.194672
  21 H :    0.034729
  22 C :   -0.027611
  23 H :    0.032791
  24 H :    0.024857
  25 C :   -0.029932
  26 H :    0.011486
  27 H :    0.030485
  28 C :   -0.063509
  29 H :    0.029293
  30 H :    0.017358
  31 H :    0.028026
  32 H :    0.030267
  33 H :    0.033136

  Mayer bond orders larger than 0.100000
B(  0-S ,  1-C ) :   1.1366 B(  0-S ,  4-C ) :   1.1473 B(  1-C ,  2-C ) :   1.6106
B(  1-C , 32-H ) :   0.9652 B(  2-C ,  3-C ) :   1.2515 B(  2-C ,  6-C ) :   1.0175
B(  3-C ,  4-C ) :   1.5431 B(  3-C ,  5-H ) :   0.9929 B(  4-C , 20-C ) :   1.0498
B(  6-C ,  7-H ) :   0.9431 B(  6-C ,  8-H ) :   0.9433 B(  6-C ,  9-C ) :   1.0667
B(  9-C , 10-H ) :   0.9540 B(  9-C , 11-H ) :   0.9608 B(  9-C , 12-C ) :   1.0663
B( 12-C , 13-H ) :   0.9769 B( 12-C , 14-H ) :   0.9730 B( 12-C , 15-H ) :   0.9735
B( 16-S , 17-C ) :   1.1280 B( 16-S , 20-C ) :   1.1343 B( 17-C , 18-C ) :   1.6793
B( 17-C , 33-H ) :   0.9576 B( 18-C , 19-C ) :   1.1965 B( 18-C , 21-H ) :   0.9814
B( 19-C , 20-C ) :   1.6311 B( 19-C , 22-C ) :   1.0320 B( 22-C , 23-H ) :   0.9311
B( 22-C , 24-H ) :   0.9352 B( 22-C , 25-C ) :   1.0717 B( 25-C , 26-H ) :   0.9553
B( 25-C , 27-H ) :   0.9569 B( 25-C , 28-C ) :   1.0751 B( 28-C , 29-H ) :   0.9728
B( 28-C , 30-H ) :   0.9746 B( 28-C , 31-H ) :   0.9746

Dispersion correction           -0.016130227
FINAL SINGLE POINT ENERGY     -1339.878792385690

DIPOLE MOMENT
-------------
                                X             Y             Z
Electronic contribution:     -8.09575      11.34687      20.17713
Nuclear contribution   :      8.17368     -11.50092     -20.58378
                        -----------------------------------------
Total Dipole Moment    :      0.07793      -0.15405      -0.40665
                        -----------------------------------------
Magnitude (a.u.)       :      0.44178
Magnitude (Debye)      :      1.12292

Rotational constants in cm-1:     0.021316     0.008899     0.007780
Rotational constants in MHz :   639.038795   266.788136   233.230651

                             ****ORCA TERMINATED NORMALLY****
TOTAL RUN TIME: 0 days 0 hours 0 minutes 30 seconds 351 msec
