                         Program Version 4.2.1 -  RELEASE  -
|  1> ! wB97X-D3 SP def2-SVP
|  2> %pal
|  3> nprocs 16
|  4> end
|  5>
|  6> * xyz 0 1
|  7> S 	 -45.8429 	 49.8534 	 103.221
|  8> C 	 -45.5049 	 49.3952 	 101.504
|  9> C 	 -44.6041 	 50.231 	 100.906
| 10> C 	 -44.2366 	 51.2971 	 101.812
| 11> C 	 -44.953 	 51.3085 	 103.007
| 12> H 	 -43.5792 	 52.0895 	 101.46
| 13> C 	 -44.1558 	 50.1617 	 99.495
| 14> H 	 -44.6727 	 50.9523 	 99.0041
| 15> H 	 -44.4729 	 49.2632 	 99.0529
| 16> C 	 -42.6323 	 50.3465 	 99.33
| 17> H 	 -42.2993 	 50.1942 	 98.2765
| 18> H 	 -42.2627 	 51.3737 	 99.4143
| 19> C 	 -41.6667 	 49.6041 	 100.243
| 20> H 	 -41.6342 	 50.0934 	 101.21
| 21> H 	 -41.9241 	 48.5369 	 100.426
| 22> H 	 -40.5864 	 49.6096 	 99.9374
| 23> S 	 -46.1917 	 53.1713 	 104.753
| 24> C 	 -45.1707 	 53.9915 	 105.837
| 25> C 	 -43.8787 	 53.5114 	 105.791
| 26> C 	 -43.6812 	 52.4723 	 104.879
| 27> C 	 -44.832 	 52.1862 	 104.19
| 28> H 	 -43.0739 	 53.9959 	 106.463
| 29> C 	 -42.3585 	 51.8109 	 104.628
| 30> H 	 -41.6529 	 52.4769 	 104.157
| 31> H 	 -42.6419 	 50.9653 	 104.09
| 32> C 	 -41.8138 	 51.1644 	 105.922
| 33> H 	 -42.6306 	 50.6348 	 106.428
| 34> H 	 -41.6411 	 51.9838 	 106.676
| 35> C 	 -40.5394 	 50.3355 	 105.593
| 36> H 	 -40.5798 	 49.5819 	 104.799
| 37> H 	 -40.073 	 49.782 	 106.406
| 38> H 	 -39.672 	 50.9751 	 105.348
| 39> H 	 -45.9389 	 48.4526 	 101.062
| 40> H 	 -45.391 	 54.9837 	 106.236
| 41> *
| 42>
| 43>                          ****END OF INPUT****

CARTESIAN COORDINATES (ANGSTROEM)
---------------------------------
  S    -45.842900   49.853400  103.221000
  C    -45.504900   49.395200  101.504000
  C    -44.604100   50.231000  100.906000
  C    -44.236600   51.297100  101.812000
  C    -44.953000   51.308500  103.007000
  H    -43.579200   52.089500  101.460000
  C    -44.155800   50.161700   99.495000
  H    -44.672700   50.952300   99.004100
  H    -44.472900   49.263200   99.052900
  C    -42.632300   50.346500   99.330000
  H    -42.299300   50.194200   98.276500
  H    -42.262700   51.373700   99.414300
  C    -41.666700   49.604100  100.243000
  H    -41.634200   50.093400  101.210000
  H    -41.924100   48.536900  100.426000
  H    -40.586400   49.609600   99.937400
  S    -46.191700   53.171300  104.753000
  C    -45.170700   53.991500  105.837000
  C    -43.878700   53.511400  105.791000
  C    -43.681200   52.472300  104.879000
  C    -44.832000   52.186200  104.190000
  H    -43.073900   53.995900  106.463000
  C    -42.358500   51.810900  104.628000
  H    -41.652900   52.476900  104.157000
  H    -42.641900   50.965300  104.090000
  C    -41.813800   51.164400  105.922000
  H    -42.630600   50.634800  106.428000
  H    -41.641100   51.983800  106.676000
  C    -40.539400   50.335500  105.593000
  H    -40.579800   49.581900  104.799000
  H    -40.073000   49.782000  106.406000
  H    -39.672000   50.975100  105.348000
  H    -45.938900   48.452600  101.062000
  H    -45.391000   54.983700  106.236000

 Total Charge           Charge          ....    0
 Multiplicity           Mult            ....    1
 Number of Electrons    NEL             ....  134
 Basis Dimension        Dim             ....  322

ORBITAL ENERGIES
----------------

  NO   OCC          E(Eh)            E(eV)
   0   2.0000     -88.966401     -2420.8989
   1   2.0000     -88.962271     -2420.7865
   2   2.0000     -10.329770      -281.0873
   3   2.0000     -10.323324      -280.9119
   4   2.0000     -10.317188      -280.7450
   5   2.0000     -10.313151      -280.6351
   6   2.0000     -10.300069      -280.2791
   7   2.0000     -10.296422      -280.1799
   8   2.0000     -10.295732      -280.1611
   9   2.0000     -10.294555      -280.1291
  10   2.0000     -10.293009      -280.0870
  11   2.0000     -10.292069      -280.0614
  12   2.0000     -10.291659      -280.0503
  13   2.0000     -10.281420      -279.7717
  14   2.0000     -10.280871      -279.7567
  15   2.0000     -10.280073      -279.7350
  16   2.0000      -8.081756      -219.9158
  17   2.0000      -8.076969      -219.7855
  18   2.0000      -6.040045      -164.3580
  19   2.0000      -6.036173      -164.2526
  20   2.0000      -6.035494      -164.2341
  21   2.0000      -6.032711      -164.1584
  22   2.0000      -6.031585      -164.1278
  23   2.0000      -6.027608      -164.0196
  24   2.0000      -1.009399       -27.4671
  25   2.0000      -0.985694       -26.8221
  26   2.0000      -0.917346       -24.9623
  27   2.0000      -0.911768       -24.8105
  28   2.0000      -0.865803       -23.5597
  29   2.0000      -0.849610       -23.1191
  30   2.0000      -0.838871       -22.8268
  31   2.0000      -0.811666       -22.0866
  32   2.0000      -0.789328       -21.4787
  33   2.0000      -0.775448       -21.1010
  34   2.0000      -0.707737       -19.2585
  35   2.0000      -0.703852       -19.1528
  36   2.0000      -0.691492       -18.8165
  37   2.0000      -0.650933       -17.7128
  38   2.0000      -0.635778       -17.3004
  39   2.0000      -0.622620       -16.9424
  40   2.0000      -0.598526       -16.2867
  41   2.0000      -0.569149       -15.4873
  42   2.0000      -0.562470       -15.3056
  43   2.0000      -0.557820       -15.1791
  44   2.0000      -0.536579       -14.6011
  45   2.0000      -0.517822       -14.0907
  46   2.0000      -0.516184       -14.0461
  47   2.0000      -0.510679       -13.8963
  48   2.0000      -0.503468       -13.7001
  49   2.0000      -0.495275       -13.4771
  50   2.0000      -0.486537       -13.2393
  51   2.0000      -0.479197       -13.0396
  52   2.0000      -0.471809       -12.8386
  53   2.0000      -0.464925       -12.6513
  54   2.0000      -0.456765       -12.4292
  55   2.0000      -0.449971       -12.2443
  56   2.0000      -0.446772       -12.1573
  57   2.0000      -0.439912       -11.9706
  58   2.0000      -0.431325       -11.7369
  59   2.0000      -0.422958       -11.5093
  60   2.0000      -0.421857       -11.4793
  61   2.0000      -0.413669       -11.2565
  62   2.0000      -0.408315       -11.1108
  63   2.0000      -0.336644        -9.1605
  64   2.0000      -0.336034        -9.1440
  65   2.0000      -0.326718        -8.8904
  66   2.0000      -0.299327        -8.1451
  67   0.0000       0.038065         1.0358
  68   0.0000       0.061139         1.6637
  69   0.0000       0.112285         3.0554
  70   0.0000       0.126288         3.4365
  71   0.0000       0.127421         3.4673

MULLIKEN ATOMIC CHARGES
-----------------------
   0 S :    0.095691
   1 C :   -0.158768
   2 C :   -0.112486
   3 C :    0.028355
   4 C :   -0.156619
   5 H :    0.012516
   6 C :    0.180212
   7 H :    0.039708
   8 H :    0.006335
   9 C :   -0.120701
  10 H :    0.028177
  11 H :    0.021918
  12 C :   -0.067199
  13 H :    0.027575
  14 H :    0.035936
  15 H :    0.038282
  16 S :    0.123588
  17 C :   -0.093160
  18 C :   -0.084217
  19 C :   -0.034554
  20 C :   -0.187195
  21 H :    0.047065
  22 C :    0.136657
  23 H :    0.039640
  24 H :    0.023458
  25 C :   -0.109106
  26 H :    0.037336
  27 H :    0.028419
  28 C :   -0.040155
  29 H :    0.035028
  30 H :    0.024718
  31 H :    0.023487
  32 H :    0.062163
  33 H :    0.067894
Sum of atomic charges:   -0.0000000

LOEWDIN ATOMIC CHARGES
----------------------
   0 S :    0.390256
   1 C :   -0.189734
   2 C :   -0.062593
   3 C :   -0.063214
   4 C :   -0.195463
   5 H :    0.030316
   6 C :   -0.017282
   7 H :    0.039906
   8 H :    0.026128
   9 C :   -0.053872
  10 H :    0.028789
  11 H :    0.025048
  12 C :   -0.076233
  13 H :    0.022333
  14 H :    0.025921
  15 H :    0.033778
  16 S :    0.421941
  17 C :   -0.206214
  18 C :   -0.084133
  19 C :   -0.056280
  20 C :   -0.208443
  21 H :    0.044121
  22 C :   -0.021046
  23 H :    0.031522
  24 H :    0.026435
  25 C :   -0.038771
  26 H :    0.028056
  27 H :    0.023866
  28 C :   -0.077976
  29 H :    0.027169
  30 H :    0.026271
  31 H :    0.029421
  32 H :    0.034916
  33 H :    0.035063

  Mayer bond orders larger than 0.100000
B(  0-S ,  1-C ) :   1.1151 B(  0-S ,  4-C ) :   1.1688 B(  1-C ,  2-C ) :   1.6403
B(  1-C , 32-H ) :   0.9603 B(  2-C ,  3-C ) :   1.2144 B(  2-C ,  6-C ) :   1.0273
B(  3-C ,  4-C ) :   1.5915 B(  3-C ,  5-H ) :   0.9978 B(  4-C , 20-C ) :   0.9947
B(  6-C ,  7-H ) :   0.9323 B(  6-C ,  8-H ) :   0.9334 B(  6-C ,  9-C ) :   1.0557
B(  9-C , 10-H ) :   0.9585 B(  9-C , 11-H ) :   0.9507 B(  9-C , 12-C ) :   1.0791
B( 12-C , 13-H ) :   0.9696 B( 12-C , 14-H ) :   0.9769 B( 12-C , 15-H ) :   0.9722
B( 16-S , 17-C ) :   1.1749 B( 16-S , 20-C ) :   1.1488 B( 17-C , 18-C ) :   1.6006
B( 17-C , 33-H ) :   0.9588 B( 18-C , 19-C ) :   1.2539 B( 18-C , 21-H ) :   0.9753
B( 19-C , 20-C ) :   1.5942 B( 19-C , 22-C ) :   1.0353 B( 22-C , 23-H ) :   0.9379
B( 22-C , 24-H ) :   0.9205 B( 22-C , 25-C ) :   1.0557 B( 25-C , 26-H ) :   0.9594
B( 25-C , 27-H ) :   0.9559 B( 25-C , 28-C ) :   1.0670 B( 28-C , 29-H ) :   0.9781
B( 28-C , 30-H ) :   0.9740 B( 28-C , 31-H ) :   0.9712

Dispersion correction           -0.014998751
FINAL SINGLE POINT ENERGY     -1339.872251416679

DIPOLE MOMENT
-------------
                                X             Y             Z
Electronic contribution:    -27.06468       7.24816       7.95065
Nuclear contribution   :     27.72856      -7.10689      -8.32143
                        -----------------------------------------
Total Dipole Moment    :      0.66388       0.14127      -0.37077
                        -----------------------------------------
Magnitude (a.u.)       :      0.77341
Magnitude (Debye)      :      1.96586

Rotational constants in cm-1:     0.017162     0.009788     0.007407
Rotational constants in MHz :   514.515424   293.445974   222.046902

                             ****ORCA TERMINATED NORMALLY****
TOTAL RUN TIME: 0 days 0 hours 0 minutes 31 seconds 321 msec
