                         Program Version 4.2.1 -  RELEASE  -
|  1> ! wB97X-D3 SP def2-SVP
|  2> %pal
|  3> nprocs 16
|  4> end
|  5>
|  6> * xyz 0 1
|  7> S 	 14.2583 	 15.4345 	 84.2658
|  8> C 	 15.4309 	 16.3269 	 83.353
|  9> C 	 15.7368 	 15.6877 	 82.1558
| 10> C 	 14.9813 	 14.4745 	 81.9659
| 11> C 	 14.1157 	 14.2289 	 83.0362
| 12> H 	 14.9517 	 13.7697 	 81.1057
| 13> C 	 16.654 	 16.2346 	 81.0355
| 14> H 	 17.2212 	 15.4326 	 80.6179
| 15> H 	 17.2754 	 16.9973 	 81.4741
| 16> C 	 15.9363 	 17.0208 	 79.8568
| 17> H 	 15.3308 	 17.7813 	 80.2366
| 18> H 	 16.6201 	 17.4852 	 79.1138
| 19> C 	 14.9758 	 16.1319 	 78.9839
| 20> H 	 14.5504 	 16.799 	 78.1965
| 21> H 	 15.4651 	 15.2383 	 78.4371
| 22> H 	 14.0739 	 15.7766 	 79.4998
| 23> S 	 11.5485 	 13.5817 	 83.6009
| 24> C 	 11.0769 	 11.95 	 83.7775
| 25> C 	 12.0311 	 11.1031 	 83.3205
| 26> C 	 13.2682 	 11.8155 	 83.0612
| 27> C 	 13.1815 	 13.1733 	 83.1916
| 28> H 	 11.9096 	 10.0493 	 83.2613
| 29> C 	 14.5775 	 11.0205 	 82.873
| 30> H 	 14.5521 	 10.3936 	 83.6747
| 31> H 	 15.4497 	 11.5984 	 83.0496
| 32> C 	 14.605 	 10.0705 	 81.6882
| 33> H 	 13.7653 	 9.50141 	 81.4689
| 34> H 	 15.3959 	 9.40953 	 82.0766
| 35> C 	 14.9604 	 10.646 	 80.27
| 36> H 	 15.9751 	 11.1012 	 80.3364
| 37> H 	 14.1944 	 11.4177 	 79.9679
| 38> H 	 15.151 	 9.93665 	 79.421
| 39> H 	 16.0242 	 17.2224 	 83.6134
| 40> H 	 10.0816 	 11.6251 	 83.9141
| 41> *
| 42>
| 43>                          ****END OF INPUT****

CARTESIAN COORDINATES (ANGSTROEM)
---------------------------------
  S     14.258300   15.434500   84.265800
  C     15.430900   16.326900   83.353000
  C     15.736800   15.687700   82.155800
  C     14.981300   14.474500   81.965900
  C     14.115700   14.228900   83.036200
  H     14.951700   13.769700   81.105700
  C     16.654000   16.234600   81.035500
  H     17.221200   15.432600   80.617900
  H     17.275400   16.997300   81.474100
  C     15.936300   17.020800   79.856800
  H     15.330800   17.781300   80.236600
  H     16.620100   17.485200   79.113800
  C     14.975800   16.131900   78.983900
  H     14.550400   16.799000   78.196500
  H     15.465100   15.238300   78.437100
  H     14.073900   15.776600   79.499800
  S     11.548500   13.581700   83.600900
  C     11.076900   11.950000   83.777500
  C     12.031100   11.103100   83.320500
  C     13.268200   11.815500   83.061200
  C     13.181500   13.173300   83.191600
  H     11.909600   10.049300   83.261300
  C     14.577500   11.020500   82.873000
  H     14.552100   10.393600   83.674700
  H     15.449700   11.598400   83.049600
  C     14.605000   10.070500   81.688200
  H     13.765300    9.501410   81.468900
  H     15.395900    9.409530   82.076600
  C     14.960400   10.646000   80.270000
  H     15.975100   11.101200   80.336400
  H     14.194400   11.417700   79.967900
  H     15.151000    9.936650   79.421000
  H     16.024200   17.222400   83.613400
  H     10.081600   11.625100   83.914100

 Total Charge           Charge          ....    0
 Multiplicity           Mult            ....    1
 Number of Electrons    NEL             ....  134
 Basis Dimension        Dim             ....  322

ORBITAL ENERGIES
----------------

  NO   OCC          E(Eh)            E(eV)
   0   2.0000     -88.969279     -2420.9772
   1   2.0000     -88.959347     -2420.7069
   2   2.0000     -10.325702      -280.9766
   3   2.0000     -10.318204      -280.7726
   4   2.0000     -10.315849      -280.7085
   5   2.0000     -10.309421      -280.5336
   6   2.0000     -10.304902      -280.4106
   7   2.0000     -10.300173      -280.2819
   8   2.0000     -10.298222      -280.2289
   9   2.0000     -10.294553      -280.1290
  10   2.0000     -10.290317      -280.0138
  11   2.0000     -10.290121      -280.0084
  12   2.0000     -10.287680      -279.9420
  13   2.0000     -10.286320      -279.9050
  14   2.0000     -10.283912      -279.8395
  15   2.0000     -10.282483      -279.8006
  16   2.0000      -8.084279      -219.9844
  17   2.0000      -8.075700      -219.7510
  18   2.0000      -6.042756      -164.4317
  19   2.0000      -6.038600      -164.3186
  20   2.0000      -6.035202      -164.2262
  21   2.0000      -6.034183      -164.1985
  22   2.0000      -6.029962      -164.0836
  23   2.0000      -6.026387      -163.9863
  24   2.0000      -1.014705       -27.6115
  25   2.0000      -0.988229       -26.8911
  26   2.0000      -0.911426       -24.8012
  27   2.0000      -0.902667       -24.5628
  28   2.0000      -0.873446       -23.7677
  29   2.0000      -0.846356       -23.0305
  30   2.0000      -0.839969       -22.8567
  31   2.0000      -0.815348       -22.1868
  32   2.0000      -0.785854       -21.3842
  33   2.0000      -0.774514       -21.0756
  34   2.0000      -0.707923       -19.2636
  35   2.0000      -0.698846       -19.0166
  36   2.0000      -0.696702       -18.9582
  37   2.0000      -0.663434       -18.0530
  38   2.0000      -0.637481       -17.3467
  39   2.0000      -0.614274       -16.7152
  40   2.0000      -0.603288       -16.4163
  41   2.0000      -0.572335       -15.5740
  42   2.0000      -0.552924       -15.0458
  43   2.0000      -0.545440       -14.8422
  44   2.0000      -0.537444       -14.6246
  45   2.0000      -0.532567       -14.4919
  46   2.0000      -0.525834       -14.3087
  47   2.0000      -0.509191       -13.8558
  48   2.0000      -0.505530       -13.7562
  49   2.0000      -0.495777       -13.4908
  50   2.0000      -0.490599       -13.3499
  51   2.0000      -0.476674       -12.9710
  52   2.0000      -0.472300       -12.8519
  53   2.0000      -0.467351       -12.7173
  54   2.0000      -0.460394       -12.5279
  55   2.0000      -0.445691       -12.1279
  56   2.0000      -0.443784       -12.0760
  57   2.0000      -0.438724       -11.9383
  58   2.0000      -0.433551       -11.7975
  59   2.0000      -0.423197       -11.5158
  60   2.0000      -0.418343       -11.3837
  61   2.0000      -0.417211       -11.3529
  62   2.0000      -0.401920       -10.9368
  63   2.0000      -0.351824        -9.5736
  64   2.0000      -0.332227        -9.0404
  65   2.0000      -0.325661        -8.8617
  66   2.0000      -0.293285        -7.9807
  67   0.0000       0.033483         0.9111
  68   0.0000       0.075253         2.0477
  69   0.0000       0.117550         3.1987
  70   0.0000       0.119777         3.2593
  71   0.0000       0.129924         3.5354

MULLIKEN ATOMIC CHARGES
-----------------------
   0 S :    0.132071
   1 C :   -0.116392
   2 C :   -0.117400
   3 C :    0.031226
   4 C :   -0.181866
   5 H :    0.024868
   6 C :    0.099468
   7 H :    0.027654
   8 H :    0.015710
   9 C :   -0.049645
  10 H :    0.018015
  11 H :    0.040845
  12 C :   -0.125544
  13 H :    0.033117
  14 H :    0.043043
  15 H :    0.047804
  16 S :    0.101730
  17 C :   -0.056862
  18 C :   -0.031896
  19 C :   -0.055392
  20 C :   -0.152715
  21 H :    0.010168
  22 C :    0.138717
  23 H :    0.000483
  24 H :    0.019061
  25 C :   -0.074028
  26 H :    0.023197
  27 H :    0.029123
  28 C :   -0.101185
  29 H :    0.026260
  30 H :    0.056680
  31 H :    0.044630
  32 H :    0.054473
  33 H :    0.044583
Sum of atomic charges:   -0.0000000

LOEWDIN ATOMIC CHARGES
----------------------
   0 S :    0.431145
   1 C :   -0.216378
   2 C :   -0.062626
   3 C :   -0.063108
   4 C :   -0.204739
   5 H :    0.039275
   6 C :   -0.023358
   7 H :    0.026745
   8 H :    0.026780
   9 C :   -0.032772
  10 H :    0.016882
  11 H :    0.030334
  12 C :   -0.085097
  13 H :    0.028180
  14 H :    0.029050
  15 H :    0.024299
  16 S :    0.419337
  17 C :   -0.185484
  18 C :   -0.067276
  19 C :   -0.052952
  20 C :   -0.214867
  21 H :    0.026139
  22 C :   -0.018954
  23 H :    0.024488
  24 H :    0.029820
  25 C :   -0.035323
  26 H :    0.015384
  27 H :    0.030629
  28 C :   -0.083335
  29 H :    0.023259
  30 H :    0.030828
  31 H :    0.031777
  32 H :    0.038443
  33 H :    0.023476

  Mayer bond orders larger than 0.100000
B(  0-S ,  1-C ) :   1.1388 B(  0-S ,  4-C ) :   1.1639 B(  1-C ,  2-C ) :   1.6159
B(  1-C , 32-H ) :   0.9598 B(  2-C ,  3-C ) :   1.2341 B(  2-C ,  6-C ) :   1.0296
B(  3-C ,  4-C ) :   1.5630 B(  3-C ,  5-H ) :   0.9866 B(  4-C , 20-C ) :   1.0500
B(  6-C ,  7-H ) :   0.9449 B(  6-C ,  8-H ) :   0.9382 B(  6-C ,  9-C ) :   1.0618
B(  9-C , 10-H ) :   0.9536 B(  9-C , 11-H ) :   0.9610 B(  9-C , 12-C ) :   1.0756
B( 12-C , 13-H ) :   0.9734 B( 12-C , 14-H ) :   0.9766 B( 12-C , 15-H ) :   0.9726
B( 16-S , 17-C ) :   1.1599 B( 16-S , 20-C ) :   1.1290 B( 17-C , 18-C ) :   1.6187
B( 17-C , 33-H ) :   0.9680 B( 18-C , 19-C ) :   1.2302 B( 18-C , 21-H ) :   0.9943
B( 19-C , 20-C ) :   1.6147 B( 19-C , 22-C ) :   1.0286 B( 22-C , 23-H ) :   0.9265
B( 22-C , 24-H ) :   0.9381 B( 22-C , 25-C ) :   1.0584 B( 25-C , 26-H ) :   0.9643
B( 25-C , 27-H ) :   0.9581 B( 25-C , 28-C ) :   1.0641 B( 28-C , 29-H ) :   0.9743
B( 28-C , 30-H ) :   0.9716 B( 28-C , 31-H ) :   0.9745

Dispersion correction           -0.014918585
FINAL SINGLE POINT ENERGY     -1339.864718944006

DIPOLE MOMENT
-------------
                                X             Y             Z
Electronic contribution:    -13.93181       6.05908      22.94121
Nuclear contribution   :     14.24006      -6.39110     -23.29472
                        -----------------------------------------
Total Dipole Moment    :      0.30825      -0.33202      -0.35351
                        -----------------------------------------
Magnitude (a.u.)       :      0.57465
Magnitude (Debye)      :      1.46064

Rotational constants in cm-1:     0.017687     0.009613     0.007482
Rotational constants in MHz :   530.246912   288.187671   224.303010

                             ****ORCA TERMINATED NORMALLY****
TOTAL RUN TIME: 0 days 0 hours 0 minutes 36 seconds 397 msec
