                         Program Version 4.2.1 -  RELEASE  -
|  1> ! wB97X-D3 SP def2-SVP
|  2> %pal
|  3> nprocs 16
|  4> end
|  5>
|  6> * xyz 0 1
|  7> S 	 -35.6769 	 74.1453 	 152.166
|  8> C 	 -34.8857 	 75.6841 	 152.127
|  9> C 	 -33.4813 	 75.5459 	 152.131
| 10> C 	 -33.1626 	 74.1791 	 151.78
| 11> C 	 -34.1983 	 73.3248 	 151.828
| 12> H 	 -32.1584 	 73.7519 	 151.608
| 13> C 	 -32.3753 	 76.5605 	 152.391
| 14> H 	 -31.682 	 75.9229 	 153.074
| 15> H 	 -32.9195 	 77.3341 	 152.99
| 16> C 	 -31.7074 	 77.0017 	 151.045
| 17> H 	 -31.7742 	 76.1516 	 150.41
| 18> H 	 -32.2525 	 77.8571 	 150.655
| 19> C 	 -30.2586 	 77.5218 	 151.294
| 20> H 	 -29.8063 	 76.8425 	 152.005
| 21> H 	 -29.6264 	 77.3988 	 150.398
| 22> H 	 -30.2122 	 78.5494 	 151.662
| 23> S 	 -33.6004 	 71.3994 	 149.856
| 24> C 	 -33.6305 	 69.7546 	 150.337
| 25> C 	 -34.1826 	 69.5435 	 151.613
| 26> C 	 -34.4818 	 70.7562 	 152.279
| 27> C 	 -34.0982 	 71.8808 	 151.524
| 28> H 	 -34.3945 	 68.5768 	 152.009
| 29> C 	 -34.9417 	 70.7608 	 153.72
| 30> H 	 -35.8523 	 70.0819 	 153.902
| 31> H 	 -35.2017 	 71.7749 	 154.168
| 32> C 	 -33.8034 	 70.2888 	 154.665
| 33> H 	 -32.8652 	 70.8658 	 154.39
| 34> H 	 -33.6437 	 69.2342 	 154.494
| 35> C 	 -34.0725 	 70.6234 	 156.173
| 36> H 	 -33.31 	 70.3334 	 156.855
| 37> H 	 -34.9759 	 70.1164 	 156.507
| 38> H 	 -34.0887 	 71.7446 	 156.435
| 39> H 	 -35.3787 	 76.6286 	 152.357
| 40> H 	 -33.4672 	 68.9106 	 149.718
| 41> *
| 42>
| 43>                          ****END OF INPUT****

CARTESIAN COORDINATES (ANGSTROEM)
---------------------------------
  S    -35.676900   74.145300  152.166000
  C    -34.885700   75.684100  152.127000
  C    -33.481300   75.545900  152.131000
  C    -33.162600   74.179100  151.780000
  C    -34.198300   73.324800  151.828000
  H    -32.158400   73.751900  151.608000
  C    -32.375300   76.560500  152.391000
  H    -31.682000   75.922900  153.074000
  H    -32.919500   77.334100  152.990000
  C    -31.707400   77.001700  151.045000
  H    -31.774200   76.151600  150.410000
  H    -32.252500   77.857100  150.655000
  C    -30.258600   77.521800  151.294000
  H    -29.806300   76.842500  152.005000
  H    -29.626400   77.398800  150.398000
  H    -30.212200   78.549400  151.662000
  S    -33.600400   71.399400  149.856000
  C    -33.630500   69.754600  150.337000
  C    -34.182600   69.543500  151.613000
  C    -34.481800   70.756200  152.279000
  C    -34.098200   71.880800  151.524000
  H    -34.394500   68.576800  152.009000
  C    -34.941700   70.760800  153.720000
  H    -35.852300   70.081900  153.902000
  H    -35.201700   71.774900  154.168000
  C    -33.803400   70.288800  154.665000
  H    -32.865200   70.865800  154.390000
  H    -33.643700   69.234200  154.494000
  C    -34.072500   70.623400  156.173000
  H    -33.310000   70.333400  156.855000
  H    -34.975900   70.116400  156.507000
  H    -34.088700   71.744600  156.435000
  H    -35.378700   76.628600  152.357000
  H    -33.467200   68.910600  149.718000

 Total Charge           Charge          ....    0
 Multiplicity           Mult            ....    1
 Number of Electrons    NEL             ....  134
 Basis Dimension        Dim             ....  322

ORBITAL ENERGIES
----------------

  NO   OCC          E(Eh)            E(eV)
   0   2.0000     -88.971131     -2421.0276
   1   2.0000     -88.964359     -2420.8433
   2   2.0000     -10.330766      -281.1144
   3   2.0000     -10.321028      -280.8495
   4   2.0000     -10.314686      -280.6769
   5   2.0000     -10.314182      -280.6632
   6   2.0000     -10.305515      -280.4273
   7   2.0000     -10.305330      -280.4223
   8   2.0000     -10.303886      -280.3830
   9   2.0000     -10.301273      -280.3119
  10   2.0000     -10.292301      -280.0677
  11   2.0000     -10.291373      -280.0425
  12   2.0000     -10.290166      -280.0096
  13   2.0000     -10.288575      -279.9664
  14   2.0000     -10.281625      -279.7772
  15   2.0000     -10.279868      -279.7294
  16   2.0000      -8.085112      -220.0071
  17   2.0000      -8.079638      -219.8581
  18   2.0000      -6.043518      -164.4525
  19   2.0000      -6.039817      -164.3518
  20   2.0000      -6.038211      -164.3081
  21   2.0000      -6.035938      -164.2462
  22   2.0000      -6.034116      -164.1966
  23   2.0000      -6.030250      -164.0914
  24   2.0000      -1.005759       -27.3681
  25   2.0000      -0.983436       -26.7607
  26   2.0000      -0.907681       -24.6992
  27   2.0000      -0.903367       -24.5819
  28   2.0000      -0.864171       -23.5153
  29   2.0000      -0.849106       -23.1053
  30   2.0000      -0.845477       -23.0066
  31   2.0000      -0.809058       -22.0156
  32   2.0000      -0.778936       -21.1959
  33   2.0000      -0.766176       -20.8487
  34   2.0000      -0.704302       -19.1650
  35   2.0000      -0.697149       -18.9704
  36   2.0000      -0.688085       -18.7237
  37   2.0000      -0.662060       -18.0156
  38   2.0000      -0.637348       -17.3431
  39   2.0000      -0.615226       -16.7411
  40   2.0000      -0.597666       -16.2633
  41   2.0000      -0.564007       -15.3474
  42   2.0000      -0.561802       -15.2874
  43   2.0000      -0.557925       -15.1819
  44   2.0000      -0.522920       -14.2294
  45   2.0000      -0.520851       -14.1731
  46   2.0000      -0.510005       -13.8780
  47   2.0000      -0.506772       -13.7900
  48   2.0000      -0.501751       -13.6533
  49   2.0000      -0.496146       -13.5008
  50   2.0000      -0.486286       -13.2325
  51   2.0000      -0.477688       -12.9986
  52   2.0000      -0.469526       -12.7765
  53   2.0000      -0.460466       -12.5299
  54   2.0000      -0.459338       -12.4992
  55   2.0000      -0.446693       -12.1551
  56   2.0000      -0.441345       -12.0096
  57   2.0000      -0.437639       -11.9088
  58   2.0000      -0.432452       -11.7676
  59   2.0000      -0.428850       -11.6696
  60   2.0000      -0.421211       -11.4617
  61   2.0000      -0.417804       -11.3690
  62   2.0000      -0.414922       -11.2906
  63   2.0000      -0.340018        -9.2524
  64   2.0000      -0.332912        -9.0590
  65   2.0000      -0.324718        -8.8360
  66   2.0000      -0.293563        -7.9883
  67   0.0000       0.036679         0.9981
  68   0.0000       0.064597         1.7578
  69   0.0000       0.100235         2.7275
  70   0.0000       0.109639         2.9834
  71   0.0000       0.137016         3.7284

MULLIKEN ATOMIC CHARGES
-----------------------
   0 S :    0.126469
   1 C :   -0.127973
   2 C :   -0.117258
   3 C :   -0.013624
   4 C :   -0.132856
   5 H :    0.021554
   6 C :    0.015535
   7 H :    0.055231
   8 H :    0.037833
   9 C :   -0.042406
  10 H :    0.034977
  11 H :    0.038507
  12 C :   -0.051158
  13 H :    0.019608
  14 H :    0.036329
  15 H :    0.044218
  16 S :    0.129097
  17 C :   -0.071426
  18 C :   -0.041233
  19 C :    0.015765
  20 C :   -0.186708
  21 H :    0.009050
  22 C :    0.007928
  23 H :    0.045693
  24 H :    0.033537
  25 C :   -0.094482
  26 H :    0.045003
  27 H :    0.031403
  28 C :   -0.063653
  29 H :    0.025359
  30 H :    0.030806
  31 H :    0.043822
  32 H :    0.049786
  33 H :    0.045266
Sum of atomic charges:    0.0000000

LOEWDIN ATOMIC CHARGES
----------------------
   0 S :    0.423057
   1 C :   -0.212182
   2 C :   -0.062857
   3 C :   -0.074078
   4 C :   -0.210390
   5 H :    0.034249
   6 C :   -0.038895
   7 H :    0.044336
   8 H :    0.034307
   9 C :   -0.030987
  10 H :    0.022772
  11 H :    0.029909
  12 C :   -0.068068
  13 H :    0.019973
  14 H :    0.029174
  15 H :    0.028260
  16 S :    0.412409
  17 C :   -0.192272
  18 C :   -0.066497
  19 C :   -0.054314
  20 C :   -0.183679
  21 H :    0.026381
  22 C :   -0.044407
  23 H :    0.038330
  24 H :    0.032038
  25 C :   -0.040657
  26 H :    0.033045
  27 H :    0.017894
  28 C :   -0.076967
  29 H :    0.021258
  30 H :    0.022603
  31 H :    0.036788
  32 H :    0.026783
  33 H :    0.022683

  Mayer bond orders larger than 0.100000
B(  0-S ,  1-C ) :   1.1482 B(  0-S ,  4-C ) :   1.1370 B(  1-C ,  2-C ) :   1.6120
B(  1-C , 32-H ) :   0.9648 B(  2-C ,  3-C ) :   1.2114 B(  2-C ,  6-C ) :   1.0101
B(  3-C ,  4-C ) :   1.6159 B(  3-C ,  5-H ) :   0.9844 B(  4-C , 20-C ) :   1.0289
B(  6-C ,  7-H ) :   0.9475 B(  6-C ,  8-H ) :   0.9401 B(  6-C ,  9-C ) :   1.0453
B(  9-C , 10-H ) :   0.9652 B(  9-C , 11-H ) :   0.9546 B(  9-C , 12-C ) :   1.0724
B( 12-C , 13-H ) :   0.9796 B( 12-C , 14-H ) :   0.9752 B( 12-C , 15-H ) :   0.9764
B( 16-S , 17-C ) :   1.1702 B( 16-S , 20-C ) :   1.1396 B( 17-C , 18-C ) :   1.5874
B( 17-C , 20-C ) :   0.1037 B( 17-C , 33-H ) :   0.9681 B( 18-C , 19-C ) :   1.2533
B( 18-C , 21-H ) :   0.9925 B( 19-C , 20-C ) :   1.5714 B( 19-C , 22-C ) :   1.0557
B( 22-C , 23-H ) :   0.9333 B( 22-C , 24-H ) :   0.9410 B( 22-C , 25-C ) :   1.0455
B( 25-C , 26-H ) :   0.9576 B( 25-C , 27-H ) :   0.9570 B( 25-C , 28-C ) :   1.0807
B( 28-C , 29-H ) :   0.9746 B( 28-C , 30-H ) :   0.9748 B( 28-C , 31-H ) :   0.9726

Dispersion correction           -0.013914186
FINAL SINGLE POINT ENERGY     -1339.869844582970

DIPOLE MOMENT
-------------
                                X             Y             Z
Electronic contribution:    -13.06696      -6.85141     -15.37622
Nuclear contribution   :     13.37239       6.87229      15.70996
                        -----------------------------------------
Total Dipole Moment    :      0.30543       0.02088       0.33374
                        -----------------------------------------
Magnitude (a.u.)       :      0.45289
Magnitude (Debye)      :      1.15115

Rotational constants in cm-1:     0.017996     0.007806     0.006848
Rotational constants in MHz :   539.514831   234.015806   205.289746

                             ****ORCA TERMINATED NORMALLY****
TOTAL RUN TIME: 0 days 0 hours 0 minutes 31 seconds 750 msec
