                         Program Version 4.2.1 -  RELEASE  -
|  1> ! wB97X-D3 SP def2-SVP
|  2> %pal
|  3> nprocs 16
|  4> end
|  5>
|  6> * xyz 0 1
|  7> S 	 46.403 	 9.3138 	 101.886
|  8> C 	 47.7573 	 10.3195 	 102.488
|  9> C 	 48.7914 	 10.3405 	 101.487
| 10> C 	 48.5749 	 9.47455 	 100.385
| 11> C 	 47.3846 	 8.79977 	 100.509
| 12> H 	 49.2918 	 9.42683 	 99.5004
| 13> C 	 49.9644 	 11.3094 	 101.525
| 14> H 	 49.7242 	 12.2863 	 102.052
| 15> H 	 50.187 	 11.7386 	 100.565
| 16> C 	 51.235 	 10.8185 	 102.265
| 17> H 	 50.9409 	 10.696 	 103.31
| 18> H 	 51.5202 	 9.91284 	 101.868
| 19> C 	 52.4179 	 11.8053 	 102.243
| 20> H 	 52.1249 	 12.7971 	 102.574
| 21> H 	 53.0938 	 11.4974 	 103.005
| 22> H 	 52.9337 	 11.6956 	 101.253
| 23> S 	 46.2485 	 6.23081 	 99.9002
| 24> C 	 46.0547 	 5.83666 	 98.2953
| 25> C 	 46.0109 	 6.95359 	 97.4573
| 26> C 	 46.4421 	 8.12866 	 98.1996
| 27> C 	 46.7951 	 7.91741 	 99.5262
| 28> H 	 45.7372 	 7.05427 	 96.4319
| 29> C 	 46.6043 	 9.41138 	 97.4645
| 30> H 	 47.011 	 9.19554 	 96.4789
| 31> H 	 47.474 	 9.94518 	 97.8084
| 32> C 	 45.3581 	 10.2159 	 97.2434
| 33> H 	 44.493 	 9.62184 	 96.9909
| 34> H 	 45.597 	 10.781 	 96.3375
| 35> C 	 45.0763 	 11.3066 	 98.2928
| 36> H 	 44.6857 	 10.8 	 99.1807
| 37> H 	 44.3975 	 12.1483 	 97.9467
| 38> H 	 45.8397 	 11.9418 	 98.6864
| 39> H 	 47.6941 	 10.7968 	 103.439
| 40> H 	 45.5023 	 4.94402 	 98.1457
| 41> *
| 42>
| 43>                          ****END OF INPUT****

CARTESIAN COORDINATES (ANGSTROEM)
---------------------------------
  S     46.403000    9.313800  101.886000
  C     47.757300   10.319500  102.488000
  C     48.791400   10.340500  101.487000
  C     48.574900    9.474550  100.385000
  C     47.384600    8.799770  100.509000
  H     49.291800    9.426830   99.500400
  C     49.964400   11.309400  101.525000
  H     49.724200   12.286300  102.052000
  H     50.187000   11.738600  100.565000
  C     51.235000   10.818500  102.265000
  H     50.940900   10.696000  103.310000
  H     51.520200    9.912840  101.868000
  C     52.417900   11.805300  102.243000
  H     52.124900   12.797100  102.574000
  H     53.093800   11.497400  103.005000
  H     52.933700   11.695600  101.253000
  S     46.248500    6.230810   99.900200
  C     46.054700    5.836660   98.295300
  C     46.010900    6.953590   97.457300
  C     46.442100    8.128660   98.199600
  C     46.795100    7.917410   99.526200
  H     45.737200    7.054270   96.431900
  C     46.604300    9.411380   97.464500
  H     47.011000    9.195540   96.478900
  H     47.474000    9.945180   97.808400
  C     45.358100   10.215900   97.243400
  H     44.493000    9.621840   96.990900
  H     45.597000   10.781000   96.337500
  C     45.076300   11.306600   98.292800
  H     44.685700   10.800000   99.180700
  H     44.397500   12.148300   97.946700
  H     45.839700   11.941800   98.686400
  H     47.694100   10.796800  103.439000
  H     45.502300    4.944020   98.145700

 Total Charge           Charge          ....    0
 Multiplicity           Mult            ....    1
 Number of Electrons    NEL             ....  134
 Basis Dimension        Dim             ....  322

ORBITAL ENERGIES
----------------

  NO   OCC          E(Eh)            E(eV)
   0   2.0000     -88.969846     -2420.9926
   1   2.0000     -88.959973     -2420.7239
   2   2.0000     -10.332219      -281.1540
   3   2.0000     -10.325322      -280.9663
   4   2.0000     -10.323574      -280.9187
   5   2.0000     -10.313513      -280.6450
   6   2.0000     -10.310676      -280.5678
   7   2.0000     -10.303255      -280.3658
   8   2.0000     -10.301072      -280.3064
   9   2.0000     -10.295512      -280.1551
  10   2.0000     -10.293204      -280.0923
  11   2.0000     -10.284233      -279.8482
  12   2.0000     -10.281495      -279.7737
  13   2.0000     -10.279584      -279.7217
  14   2.0000     -10.279541      -279.7205
  15   2.0000     -10.272590      -279.5314
  16   2.0000      -8.083481      -219.9627
  17   2.0000      -8.076008      -219.7593
  18   2.0000      -6.041950      -164.4098
  19   2.0000      -6.038186      -164.3074
  20   2.0000      -6.034374      -164.2037
  21   2.0000      -6.034305      -164.2018
  22   2.0000      -6.030335      -164.0938
  23   2.0000      -6.026819      -163.9981
  24   2.0000      -1.004143       -27.3241
  25   2.0000      -0.981690       -26.7131
  26   2.0000      -0.914669       -24.8894
  27   2.0000      -0.907963       -24.7069
  28   2.0000      -0.867278       -23.5998
  29   2.0000      -0.852100       -23.1868
  30   2.0000      -0.844947       -22.9922
  31   2.0000      -0.809993       -22.0410
  32   2.0000      -0.785004       -21.3610
  33   2.0000      -0.769202       -20.9311
  34   2.0000      -0.706244       -19.2179
  35   2.0000      -0.700198       -19.0533
  36   2.0000      -0.695829       -18.9345
  37   2.0000      -0.660589       -17.9755
  38   2.0000      -0.644419       -17.5355
  39   2.0000      -0.622071       -16.9274
  40   2.0000      -0.608035       -16.5455
  41   2.0000      -0.569642       -15.5007
  42   2.0000      -0.560795       -15.2600
  43   2.0000      -0.550297       -14.9743
  44   2.0000      -0.531005       -14.4494
  45   2.0000      -0.523589       -14.2476
  46   2.0000      -0.514121       -13.9899
  47   2.0000      -0.509132       -13.8542
  48   2.0000      -0.506480       -13.7820
  49   2.0000      -0.498719       -13.5708
  50   2.0000      -0.491727       -13.3806
  51   2.0000      -0.486322       -13.2335
  52   2.0000      -0.475449       -12.9376
  53   2.0000      -0.463541       -12.6136
  54   2.0000      -0.461340       -12.5537
  55   2.0000      -0.449383       -12.2283
  56   2.0000      -0.440048       -11.9743
  57   2.0000      -0.434813       -11.8319
  58   2.0000      -0.429570       -11.6892
  59   2.0000      -0.425414       -11.5761
  60   2.0000      -0.415085       -11.2950
  61   2.0000      -0.412734       -11.2311
  62   2.0000      -0.396418       -10.7871
  63   2.0000      -0.340841        -9.2748
  64   2.0000      -0.332283        -9.0419
  65   2.0000      -0.322345        -8.7715
  66   2.0000      -0.295863        -8.0508
  67   0.0000       0.026217         0.7134
  68   0.0000       0.055371         1.5067
  69   0.0000       0.097419         2.6509
  70   0.0000       0.117827         3.2062
  71   0.0000       0.131917         3.5896

MULLIKEN ATOMIC CHARGES
-----------------------
   0 S :    0.107004
   1 C :   -0.117755
   2 C :   -0.066844
   3 C :    0.019922
   4 C :   -0.146517
   5 H :    0.052358
   6 C :    0.018150
   7 H :    0.019265
   8 H :    0.013869
   9 C :   -0.053322
  10 H :    0.023856
  11 H :    0.009765
  12 C :   -0.034392
  13 H :    0.026707
  14 H :    0.025454
  15 H :    0.046600
  16 S :    0.098480
  17 C :   -0.053843
  18 C :   -0.023350
  19 C :   -0.040446
  20 C :   -0.170080
  21 H :    0.012642
  22 C :    0.067601
  23 H :    0.008560
  24 H :    0.001112
  25 C :   -0.025802
  26 H :    0.029052
  27 H :    0.018048
  28 C :   -0.061061
  29 H :    0.031215
  30 H :    0.033161
  31 H :    0.019413
  32 H :    0.050849
  33 H :    0.060328
Sum of atomic charges:   -0.0000000

LOEWDIN ATOMIC CHARGES
----------------------
   0 S :    0.393423
   1 C :   -0.181999
   2 C :   -0.055927
   3 C :   -0.065193
   4 C :   -0.184004
   5 H :    0.050188
   6 C :   -0.042343
   7 H :    0.033590
   8 H :    0.022967
   9 C :   -0.031498
  10 H :    0.023876
  11 H :    0.009753
  12 C :   -0.064359
  13 H :    0.023574
  14 H :    0.024296
  15 H :    0.033304
  16 S :    0.415883
  17 C :   -0.200166
  18 C :   -0.070146
  19 C :   -0.046886
  20 C :   -0.199852
  21 H :    0.027065
  22 C :   -0.040247
  23 H :    0.031729
  24 H :    0.029175
  25 C :   -0.035594
  26 H :    0.026771
  27 H :    0.026640
  28 C :   -0.076942
  29 H :    0.023822
  30 H :    0.032015
  31 H :    0.022166
  32 H :    0.022591
  33 H :    0.022325

  Mayer bond orders larger than 0.100000
B(  0-S ,  1-C ) :   1.1361 B(  0-S ,  4-C ) :   1.1653 B(  1-C ,  2-C ) :   1.5687
B(  1-C ,  4-C ) :   0.1114 B(  1-C , 32-H ) :   0.9800 B(  2-C ,  3-C ) :   1.2603
B(  2-C ,  6-C ) :   1.0220 B(  3-C ,  4-C ) :   1.5634 B(  3-C ,  5-H ) :   0.9809
B(  4-C , 20-C ) :   1.0512 B(  6-C ,  7-H ) :   0.9445 B(  6-C ,  8-H ) :   0.9484
B(  6-C ,  9-C ) :   1.0527 B(  9-C , 10-H ) :   0.9579 B(  9-C , 11-H ) :   0.9590
B(  9-C , 12-C ) :   1.0895 B( 12-C , 13-H ) :   0.9717 B( 12-C , 14-H ) :   0.9730
B( 12-C , 15-H ) :   0.9752 B( 16-S , 17-C ) :   1.2085 B( 16-S , 20-C ) :   1.1128
B( 17-C , 18-C ) :   1.5411 B( 17-C , 33-H ) :   0.9618 B( 18-C , 19-C ) :   1.2679
B( 18-C , 21-H ) :   0.9954 B( 19-C , 20-C ) :   1.5736 B( 19-C , 22-C ) :   1.0531
B( 22-C , 23-H ) :   0.9315 B( 22-C , 24-H ) :   0.9258 B( 22-C , 25-C ) :   1.0684
B( 25-C , 26-H ) :   0.9562 B( 25-C , 27-H ) :   0.9523 B( 25-C , 28-C ) :   1.0752
B( 28-C , 29-H ) :   0.9758 B( 28-C , 30-H ) :   0.9750 B( 28-C , 31-H ) :   0.9749

Dispersion correction           -0.014618265
FINAL SINGLE POINT ENERGY     -1339.848722234825

DIPOLE MOMENT
-------------
                                X             Y             Z
Electronic contribution:    -13.58225     -21.50534       5.30267
Nuclear contribution   :     13.86099      22.00755      -5.63924
                        -----------------------------------------
Total Dipole Moment    :      0.27874       0.50221      -0.33657
                        -----------------------------------------
Magnitude (a.u.)       :      0.66573
Magnitude (Debye)      :      1.69214

Rotational constants in cm-1:     0.020455     0.007632     0.006931
Rotational constants in MHz :   613.218861   228.809916   207.785075

                             ****ORCA TERMINATED NORMALLY****
TOTAL RUN TIME: 0 days 0 hours 0 minutes 31 seconds 864 msec
