                         Program Version 4.2.1 -  RELEASE  -
|  1> ! wB97X-D3 SP def2-SVP
|  2> %pal
|  3> nprocs 16
|  4> end
|  5>
|  6> * xyz 0 1
|  7> S 	 -93.1627 	 50.9673 	 124.417
|  8> C 	 -94.8993 	 50.662 	 124.282
|  9> C 	 -95.1488 	 49.8913 	 123.148
| 10> C 	 -93.9954 	 49.6662 	 122.325
| 11> C 	 -92.7834 	 50.137 	 122.887
| 12> H 	 -94.0171 	 49.178 	 121.33
| 13> C 	 -96.4671 	 49.3028 	 122.701
| 14> H 	 -96.623 	 49.345 	 121.628
| 15> H 	 -97.2755 	 49.8695 	 123.03
| 16> C 	 -96.6196 	 47.8524 	 123.165
| 17> H 	 -97.6036 	 47.5512 	 122.841
| 18> H 	 -95.9216 	 47.1554 	 122.74
| 19> C 	 -96.4255 	 47.6772 	 124.676
| 20> H 	 -97.2269 	 48.1011 	 125.285
| 21> H 	 -96.4749 	 46.6549 	 124.943
| 22> H 	 -95.5096 	 47.9928 	 125.193
| 23> S 	 -90.4379 	 51.5753 	 122.716
| 24> C 	 -89.0644 	 50.9603 	 121.788
| 25> C 	 -89.4649 	 49.9085 	 121.018
| 26> C 	 -90.7354 	 49.3746 	 121.519
| 27> C 	 -91.4742 	 50.2632 	 122.293
| 28> H 	 -88.8186 	 49.3502 	 120.29
| 29> C 	 -91.138 	 48.0199 	 120.996
| 30> H 	 -91.8991 	 47.6433 	 121.627
| 31> H 	 -90.2348 	 47.3048 	 121.138
| 32> C 	 -91.3646 	 47.9614 	 119.486
| 33> H 	 -90.4799 	 48.2855 	 118.977
| 34> H 	 -92.0936 	 48.6204 	 119.076
| 35> C 	 -91.7151 	 46.4988 	 119.174
| 36> H 	 -92.4447 	 46.2787 	 119.88
| 37> H 	 -90.963 	 45.7856 	 119.243
| 38> H 	 -92.123 	 46.4616 	 118.211
| 39> H 	 -95.5955 	 50.8827 	 125.03
| 40> H 	 -88.1323 	 51.5382 	 121.674
| 41> *
| 42>
| 43>                          ****END OF INPUT****

CARTESIAN COORDINATES (ANGSTROEM)
---------------------------------
  S    -93.162700   50.967300  124.417000
  C    -94.899300   50.662000  124.282000
  C    -95.148800   49.891300  123.148000
  C    -93.995400   49.666200  122.325000
  C    -92.783400   50.137000  122.887000
  H    -94.017100   49.178000  121.330000
  C    -96.467100   49.302800  122.701000
  H    -96.623000   49.345000  121.628000
  H    -97.275500   49.869500  123.030000
  C    -96.619600   47.852400  123.165000
  H    -97.603600   47.551200  122.841000
  H    -95.921600   47.155400  122.740000
  C    -96.425500   47.677200  124.676000
  H    -97.226900   48.101100  125.285000
  H    -96.474900   46.654900  124.943000
  H    -95.509600   47.992800  125.193000
  S    -90.437900   51.575300  122.716000
  C    -89.064400   50.960300  121.788000
  C    -89.464900   49.908500  121.018000
  C    -90.735400   49.374600  121.519000
  C    -91.474200   50.263200  122.293000
  H    -88.818600   49.350200  120.290000
  C    -91.138000   48.019900  120.996000
  H    -91.899100   47.643300  121.627000
  H    -90.234800   47.304800  121.138000
  C    -91.364600   47.961400  119.486000
  H    -90.479900   48.285500  118.977000
  H    -92.093600   48.620400  119.076000
  C    -91.715100   46.498800  119.174000
  H    -92.444700   46.278700  119.880000
  H    -90.963000   45.785600  119.243000
  H    -92.123000   46.461600  118.211000
  H    -95.595500   50.882700  125.030000
  H    -88.132300   51.538200  121.674000

 Total Charge           Charge          ....    0
 Multiplicity           Mult            ....    1
 Number of Electrons    NEL             ....  134
 Basis Dimension        Dim             ....  322

ORBITAL ENERGIES
----------------

  NO   OCC          E(Eh)            E(eV)
   0   2.0000     -88.966134     -2420.8916
   1   2.0000     -88.961096     -2420.7545
   2   2.0000     -10.337165      -281.2886
   3   2.0000     -10.326390      -280.9954
   4   2.0000     -10.321618      -280.8655
   5   2.0000     -10.315462      -280.6980
   6   2.0000     -10.303723      -280.3786
   7   2.0000     -10.302351      -280.3412
   8   2.0000     -10.301108      -280.3074
   9   2.0000     -10.300124      -280.2806
  10   2.0000     -10.292295      -280.0676
  11   2.0000     -10.286343      -279.9056
  12   2.0000     -10.286067      -279.8981
  13   2.0000     -10.282983      -279.8142
  14   2.0000     -10.270045      -279.4621
  15   2.0000     -10.263205      -279.2760
  16   2.0000      -8.079974      -219.8673
  17   2.0000      -8.076364      -219.7690
  18   2.0000      -6.038611      -164.3190
  19   2.0000      -6.035072      -164.2227
  20   2.0000      -6.034503      -164.2072
  21   2.0000      -6.030817      -164.1069
  22   2.0000      -6.030740      -164.1048
  23   2.0000      -6.026820      -163.9981
  24   2.0000      -1.005341       -27.3567
  25   2.0000      -0.980127       -26.6706
  26   2.0000      -0.916594       -24.9418
  27   2.0000      -0.913457       -24.8564
  28   2.0000      -0.870819       -23.6962
  29   2.0000      -0.851574       -23.1725
  30   2.0000      -0.841058       -22.8863
  31   2.0000      -0.814372       -22.1602
  32   2.0000      -0.785643       -21.3784
  33   2.0000      -0.771948       -21.0058
  34   2.0000      -0.715187       -19.4612
  35   2.0000      -0.705416       -19.1954
  36   2.0000      -0.699821       -19.0431
  37   2.0000      -0.661193       -17.9920
  38   2.0000      -0.641492       -17.4559
  39   2.0000      -0.620418       -16.8824
  40   2.0000      -0.599884       -16.3237
  41   2.0000      -0.571755       -15.5582
  42   2.0000      -0.567725       -15.4486
  43   2.0000      -0.548377       -14.9221
  44   2.0000      -0.539897       -14.6913
  45   2.0000      -0.535492       -14.5715
  46   2.0000      -0.521147       -14.1811
  47   2.0000      -0.512665       -13.9503
  48   2.0000      -0.505709       -13.7610
  49   2.0000      -0.502578       -13.6758
  50   2.0000      -0.492349       -13.3975
  51   2.0000      -0.480008       -13.0617
  52   2.0000      -0.466655       -12.6983
  53   2.0000      -0.459367       -12.5000
  54   2.0000      -0.456567       -12.4238
  55   2.0000      -0.452596       -12.3158
  56   2.0000      -0.450442       -12.2571
  57   2.0000      -0.442893       -12.0517
  58   2.0000      -0.435203       -11.8425
  59   2.0000      -0.424162       -11.5420
  60   2.0000      -0.420242       -11.4354
  61   2.0000      -0.414465       -11.2782
  62   2.0000      -0.407314       -11.0836
  63   2.0000      -0.359000        -9.7689
  64   2.0000      -0.329818        -8.9748
  65   2.0000      -0.323313        -8.7978
  66   2.0000      -0.284795        -7.7497
  67   0.0000       0.020027         0.5450
  68   0.0000       0.081647         2.2217
  69   0.0000       0.103050         2.8041
  70   0.0000       0.114702         3.1212
  71   0.0000       0.128754         3.5036

MULLIKEN ATOMIC CHARGES
-----------------------
   0 S :    0.091036
   1 C :   -0.097000
   2 C :   -0.096617
   3 C :    0.003716
   4 C :   -0.141034
   5 H :    0.028595
   6 C :    0.103758
   7 H :    0.021126
   8 H :    0.001495
   9 C :   -0.033995
  10 H :    0.023691
  11 H :    0.025759
  12 C :   -0.067677
  13 H :    0.015407
  14 H :    0.013341
  15 H :    0.047996
  16 S :    0.083214
  17 C :   -0.095284
  18 C :   -0.030678
  19 C :   -0.089961
  20 C :   -0.081622
  21 H :    0.047517
  22 C :    0.008107
  23 H :    0.019148
  24 H :    0.037665
  25 C :   -0.058793
  26 H :    0.013219
  27 H :    0.022289
  28 C :    0.039309
  29 H :    0.006159
  30 H :    0.018554
  31 H :    0.014565
  32 H :    0.033558
  33 H :    0.073436
Sum of atomic charges:   -0.0000000

LOEWDIN ATOMIC CHARGES
----------------------
   0 S :    0.387290
   1 C :   -0.182457
   2 C :   -0.057136
   3 C :   -0.064165
   4 C :   -0.178933
   5 H :    0.036864
   6 C :   -0.028655
   7 H :    0.031787
   8 H :    0.020952
   9 C :   -0.029193
  10 H :    0.024836
  11 H :    0.022492
  12 C :   -0.074666
  13 H :    0.021266
  14 H :    0.020796
  15 H :    0.031220
  16 S :    0.397937
  17 C :   -0.177259
  18 C :   -0.073022
  19 C :   -0.056425
  20 C :   -0.213252
  21 H :    0.039714
  22 C :   -0.037016
  23 H :    0.019877
  24 H :    0.043079
  25 C :   -0.029983
  26 H :    0.018228
  27 H :    0.019491
  28 C :   -0.045137
  29 H :    0.018961
  30 H :    0.017355
  31 H :    0.020271
  32 H :    0.018805
  33 H :    0.036079

  Mayer bond orders larger than 0.100000
B(  0-S ,  1-C ) :   1.1294 B(  0-S ,  4-C ) :   1.1441 B(  1-C ,  2-C ) :   1.5888
B(  1-C ,  4-C ) :   0.1023 B(  1-C , 32-H ) :   0.9783 B(  2-C ,  3-C ) :   1.2561
B(  2-C ,  6-C ) :   1.0341 B(  3-C ,  4-C ) :   1.5376 B(  3-C ,  5-H ) :   0.9850
B(  4-C , 20-C ) :   1.0838 B(  6-C ,  7-H ) :   0.9400 B(  6-C ,  8-H ) :   0.9362
B(  6-C ,  9-C ) :   1.0706 B(  9-C , 10-H ) :   0.9537 B(  9-C , 11-H ) :   0.9583
B(  9-C , 12-C ) :   1.0763 B( 12-C , 13-H ) :   0.9746 B( 12-C , 14-H ) :   0.9713
B( 12-C , 15-H ) :   0.9712 B( 16-S , 17-C ) :   1.1453 B( 16-S , 20-C ) :   1.1102
B( 17-C , 18-C ) :   1.6263 B( 17-C , 33-H ) :   0.9637 B( 18-C , 19-C ) :   1.2130
B( 18-C , 21-H ) :   0.9758 B( 19-C , 20-C ) :   1.5948 B( 19-C , 22-C ) :   1.0633
B( 22-C , 23-H ) :   0.9376 B( 22-C , 24-H ) :   0.9348 B( 22-C , 25-C ) :   1.0542
B( 25-C , 26-H ) :   0.9485 B( 25-C , 27-H ) :   0.9567 B( 25-C , 28-C ) :   1.0782
B( 28-C , 29-H ) :   0.9723 B( 28-C , 30-H ) :   0.9753 B( 28-C , 31-H ) :   0.9701

Dispersion correction           -0.014340074
FINAL SINGLE POINT ENERGY     -1339.863699718314

DIPOLE MOMENT
-------------
                                X             Y             Z
Electronic contribution:     13.76433      23.27609      10.88152
Nuclear contribution   :    -14.02170     -23.86209     -11.38126
                        -----------------------------------------
Total Dipole Moment    :     -0.25737      -0.58600      -0.49974
                        -----------------------------------------
Magnitude (a.u.)       :      0.81202
Magnitude (Debye)      :      2.06400

Rotational constants in cm-1:     0.017944     0.009469     0.006588
Rotational constants in MHz :   537.960399   283.869156   197.508752

                             ****ORCA TERMINATED NORMALLY****
TOTAL RUN TIME: 0 days 0 hours 0 minutes 34 seconds 285 msec
