                         Program Version 4.2.1 -  RELEASE  -
|  1> ! wB97X-D3 SP def2-SVP
|  2> %pal
|  3> nprocs 16
|  4> end
|  5>
|  6> * xyz 0 1
|  7> S 	 40.0419 	 14.725 	 82.6496
|  8> C 	 38.5633 	 15.695 	 82.7551
|  9> C 	 37.8827 	 15.4835 	 83.936
| 10> C 	 38.4737 	 14.3978 	 84.6606
| 11> C 	 39.6815 	 13.9336 	 84.142
| 12> H 	 37.9331 	 14.0255 	 85.5689
| 13> C 	 36.5353 	 15.8856 	 84.3176
| 14> H 	 35.9427 	 15.0543 	 84.6298
| 15> H 	 36.1791 	 16.287 	 83.3655
| 16> C 	 36.3534 	 17.0363 	 85.4151
| 17> H 	 37.1549 	 17.7222 	 85.377
| 18> H 	 35.3803 	 17.6083 	 85.273
| 19> C 	 36.3935 	 16.375 	 86.7643
| 20> H 	 35.8259 	 16.9184 	 87.54
| 21> H 	 35.9445 	 15.3867 	 86.6738
| 22> H 	 37.3704 	 16.3768 	 87.1761
| 23> S 	 41.0724 	 11.4705 	 83.7529
| 24> C 	 41.9172 	 10.8692 	 85.1205
| 25> C 	 41.8022 	 11.7211 	 86.1867
| 26> C 	 41.0449 	 12.8623 	 85.9359
| 27> C 	 40.5322 	 12.9116 	 84.6863
| 28> H 	 42.2921 	 11.5442 	 87.1671
| 29> C 	 40.839 	 13.9163 	 87.06
| 30> H 	 40.5932 	 14.8952 	 86.6271
| 31> H 	 41.8348 	 14.1657 	 87.5612
| 32> C 	 39.8633 	 13.6194 	 88.1847
| 33> H 	 38.838 	 13.4023 	 87.8815
| 34> H 	 39.703 	 14.4695 	 88.8008
| 35> C 	 40.4228 	 12.5077 	 89.166
| 36> H 	 41.5081 	 12.7448 	 89.4756
| 37> H 	 40.4412 	 11.5695 	 88.6546
| 38> H 	 39.8744 	 12.4741 	 90.0324
| 39> H 	 38.23 	 16.4207 	 81.9854
| 40> H 	 42.6264 	 10.0559 	 85.1526
| 41> *
| 42>
| 43>                          ****END OF INPUT****

CARTESIAN COORDINATES (ANGSTROEM)
---------------------------------
  S     40.041900   14.725000   82.649600
  C     38.563300   15.695000   82.755100
  C     37.882700   15.483500   83.936000
  C     38.473700   14.397800   84.660600
  C     39.681500   13.933600   84.142000
  H     37.933100   14.025500   85.568900
  C     36.535300   15.885600   84.317600
  H     35.942700   15.054300   84.629800
  H     36.179100   16.287000   83.365500
  C     36.353400   17.036300   85.415100
  H     37.154900   17.722200   85.377000
  H     35.380300   17.608300   85.273000
  C     36.393500   16.375000   86.764300
  H     35.825900   16.918400   87.540000
  H     35.944500   15.386700   86.673800
  H     37.370400   16.376800   87.176100
  S     41.072400   11.470500   83.752900
  C     41.917200   10.869200   85.120500
  C     41.802200   11.721100   86.186700
  C     41.044900   12.862300   85.935900
  C     40.532200   12.911600   84.686300
  H     42.292100   11.544200   87.167100
  C     40.839000   13.916300   87.060000
  H     40.593200   14.895200   86.627100
  H     41.834800   14.165700   87.561200
  C     39.863300   13.619400   88.184700
  H     38.838000   13.402300   87.881500
  H     39.703000   14.469500   88.800800
  C     40.422800   12.507700   89.166000
  H     41.508100   12.744800   89.475600
  H     40.441200   11.569500   88.654600
  H     39.874400   12.474100   90.032400
  H     38.230000   16.420700   81.985400
  H     42.626400   10.055900   85.152600

 Total Charge           Charge          ....    0
 Multiplicity           Mult            ....    1
 Number of Electrons    NEL             ....  134
 Basis Dimension        Dim             ....  322

ORBITAL ENERGIES
----------------

  NO   OCC          E(Eh)            E(eV)
   0   2.0000     -88.968621     -2420.9592
   1   2.0000     -88.966975     -2420.9145
   2   2.0000     -10.327272      -281.0194
   3   2.0000     -10.323930      -280.9284
   4   2.0000     -10.318910      -280.7918
   5   2.0000     -10.314485      -280.6714
   6   2.0000     -10.297297      -280.2037
   7   2.0000     -10.296713      -280.1878
   8   2.0000     -10.296158      -280.1727
   9   2.0000     -10.295126      -280.1446
  10   2.0000     -10.289831      -280.0005
  11   2.0000     -10.289619      -279.9948
  12   2.0000     -10.288296      -279.9588
  13   2.0000     -10.286229      -279.9025
  14   2.0000     -10.276268      -279.6315
  15   2.0000     -10.274040      -279.5708
  16   2.0000      -8.083270      -219.9570
  17   2.0000      -8.081559      -219.9104
  18   2.0000      -6.041786      -164.4053
  19   2.0000      -6.040086      -164.3591
  20   2.0000      -6.037764      -164.2959
  21   2.0000      -6.036116      -164.2511
  22   2.0000      -6.034064      -164.1952
  23   2.0000      -6.032277      -164.1466
  24   2.0000      -1.009921       -27.4813
  25   2.0000      -0.988104       -26.8877
  26   2.0000      -0.917536       -24.9674
  27   2.0000      -0.904477       -24.6121
  28   2.0000      -0.873438       -23.7674
  29   2.0000      -0.853529       -23.2257
  30   2.0000      -0.844440       -22.9784
  31   2.0000      -0.810087       -22.0436
  32   2.0000      -0.784948       -21.3595
  33   2.0000      -0.773390       -21.0450
  34   2.0000      -0.710242       -19.3267
  35   2.0000      -0.704998       -19.1840
  36   2.0000      -0.695583       -18.9278
  37   2.0000      -0.660537       -17.9741
  38   2.0000      -0.635623       -17.2962
  39   2.0000      -0.617879       -16.8134
  40   2.0000      -0.596709       -16.2373
  41   2.0000      -0.580374       -15.7928
  42   2.0000      -0.551700       -15.0125
  43   2.0000      -0.548133       -14.9155
  44   2.0000      -0.544424       -14.8145
  45   2.0000      -0.541102       -14.7241
  46   2.0000      -0.517020       -14.0688
  47   2.0000      -0.507350       -13.8057
  48   2.0000      -0.504350       -13.7241
  49   2.0000      -0.496084       -13.4991
  50   2.0000      -0.486680       -13.2432
  51   2.0000      -0.479350       -13.0438
  52   2.0000      -0.474496       -12.9117
  53   2.0000      -0.462506       -12.5854
  54   2.0000      -0.461622       -12.5614
  55   2.0000      -0.448347       -12.2001
  56   2.0000      -0.443747       -12.0750
  57   2.0000      -0.440962       -11.9992
  58   2.0000      -0.433782       -11.8038
  59   2.0000      -0.424745       -11.5579
  60   2.0000      -0.420845       -11.4518
  61   2.0000      -0.415612       -11.3094
  62   2.0000      -0.411200       -11.1893
  63   2.0000      -0.342420        -9.3177
  64   2.0000      -0.336466        -9.1557
  65   2.0000      -0.329664        -8.9706
  66   2.0000      -0.295548        -8.0423
  67   0.0000       0.028894         0.7863
  68   0.0000       0.071123         1.9353
  69   0.0000       0.112909         3.0724
  70   0.0000       0.116501         3.1702
  71   0.0000       0.127382         3.4662

MULLIKEN ATOMIC CHARGES
-----------------------
   0 S :    0.118991
   1 C :   -0.141636
   2 C :   -0.058903
   3 C :    0.004421
   4 C :   -0.161473
   5 H :    0.023475
   6 C :    0.018493
   7 H :    0.034515
   8 H :    0.014337
   9 C :   -0.047824
  10 H :    0.019317
  11 H :    0.045693
  12 C :   -0.054608
  13 H :    0.028077
  14 H :    0.024889
  15 H :    0.033344
  16 S :    0.113547
  17 C :   -0.072059
  18 C :   -0.059109
  19 C :    0.006181
  20 C :   -0.160777
  21 H :    0.026258
  22 C :    0.039391
  23 H :    0.029224
  24 H :    0.032225
  25 C :   -0.045465
  26 H :    0.024106
  27 H :    0.018376
  28 C :   -0.056379
  29 H :    0.027756
  30 H :    0.041450
  31 H :    0.019747
  32 H :    0.059665
  33 H :    0.054755
Sum of atomic charges:    0.0000000

LOEWDIN ATOMIC CHARGES
----------------------
   0 S :    0.412717
   1 C :   -0.194380
   2 C :   -0.072359
   3 C :   -0.060288
   4 C :   -0.201748
   5 H :    0.035801
   6 C :   -0.028819
   7 H :    0.028200
   8 H :    0.031990
   9 C :   -0.033232
  10 H :    0.018464
  11 H :    0.032269
  12 C :   -0.070152
  13 H :    0.028448
  14 H :    0.020661
  15 H :    0.022569
  16 S :    0.398480
  17 C :   -0.191013
  18 C :   -0.079528
  19 C :   -0.054930
  20 C :   -0.189315
  21 H :    0.036285
  22 C :   -0.033171
  23 H :    0.030126
  24 H :    0.037597
  25 C :   -0.036467
  26 H :    0.021244
  27 H :    0.020807
  28 C :   -0.059616
  29 H :    0.029941
  30 H :    0.020689
  31 H :    0.011746
  32 H :    0.034414
  33 H :    0.032571

  Mayer bond orders larger than 0.100000
B(  0-S ,  1-C ) :   1.1396 B(  0-S ,  4-C ) :   1.1539 B(  1-C ,  2-C ) :   1.6087
B(  1-C , 32-H ) :   0.9573 B(  2-C ,  3-C ) :   1.2499 B(  2-C ,  6-C ) :   1.0281
B(  3-C ,  4-C ) :   1.5517 B(  3-C ,  5-H ) :   0.9850 B(  4-C , 20-C ) :   1.0560
B(  6-C ,  7-H ) :   0.9565 B(  6-C ,  8-H ) :   0.9357 B(  6-C ,  9-C ) :   1.0565
B(  9-C , 10-H ) :   0.9578 B(  9-C , 11-H ) :   0.9617 B(  9-C , 12-C ) :   1.0754
B( 12-C , 13-H ) :   0.9693 B( 12-C , 14-H ) :   0.9762 B( 12-C , 15-H ) :   0.9755
B( 16-S , 17-C ) :   1.1598 B( 16-S , 20-C ) :   1.1168 B( 17-C , 18-C ) :   1.5986
B( 17-C , 33-H ) :   0.9632 B( 18-C , 19-C ) :   1.2686 B( 18-C , 21-H ) :   0.9787
B( 19-C , 20-C ) :   1.6196 B( 19-C , 22-C ) :   1.0285 B( 22-C , 23-H ) :   0.9280
B( 22-C , 24-H ) :   0.9415 B( 22-C , 25-C ) :   1.0831 B( 25-C , 26-H ) :   0.9507
B( 25-C , 27-H ) :   0.9518 B( 25-C , 28-C ) :   1.0748 B( 28-C , 29-H ) :   0.9740
B( 28-C , 30-H ) :   0.9752 B( 28-C , 31-H ) :   0.9735

Dispersion correction           -0.015208270
FINAL SINGLE POINT ENERGY     -1339.870772476448

DIPOLE MOMENT
-------------
                                X             Y             Z
Electronic contribution:     13.74704     -10.60288     -25.73297
Nuclear contribution   :    -14.04231      10.89924      26.32312
                        -----------------------------------------
Total Dipole Moment    :     -0.29527       0.29637       0.59015
                        -----------------------------------------
Magnitude (a.u.)       :      0.72339
Magnitude (Debye)      :      1.83871

Rotational constants in cm-1:     0.017620     0.010226     0.006927
Rotational constants in MHz :   528.227933   306.579803   207.677808

                             ****ORCA TERMINATED NORMALLY****
TOTAL RUN TIME: 0 days 0 hours 0 minutes 30 seconds 22 msec
