                         Program Version 4.2.1 -  RELEASE  -
|  1> ! wB97X-D3 SP def2-SVP
|  2> %pal
|  3> nprocs 16
|  4> end
|  5>
|  6> * xyz 0 1
|  7> S 	 -50.4077 	 58.3162 	 130.546
|  8> C 	 -49.8582 	 58.1426 	 128.933
|  9> C 	 -50.38 	 59.0721 	 128.064
| 10> C 	 -50.8792 	 60.1712 	 128.868
| 11> C 	 -50.9513 	 59.9089 	 130.205
| 12> H 	 -51.3101 	 61.078 	 128.552
| 13> C 	 -50.0282 	 59.103 	 126.612
| 14> H 	 -51.0075 	 59.0631 	 126.043
| 15> H 	 -49.4404 	 58.1565 	 126.408
| 16> C 	 -49.212 	 60.2728 	 126.057
| 17> H 	 -49.8212 	 61.1636 	 126.018
| 18> H 	 -48.381 	 60.5196 	 126.684
| 19> C 	 -48.5948 	 59.9841 	 124.681
| 20> H 	 -48.0128 	 60.8022 	 124.38
| 21> H 	 -48.0049 	 59.0847 	 124.796
| 22> H 	 -49.2708 	 59.8141 	 123.892
| 23> S 	 -52.453 	 60.1551 	 132.451
| 24> C 	 -52.7826 	 61.7842 	 133.003
| 25> C 	 -52.2447 	 62.8104 	 132.24
| 26> C 	 -51.4814 	 62.2886 	 131.169
| 27> C 	 -51.4877 	 60.8982 	 131.197
| 28> H 	 -52.4077 	 63.8606 	 132.43
| 29> C 	 -50.757 	 63.1256 	 130.203
| 30> H 	 -51.4487 	 63.4919 	 129.438
| 31> H 	 -50.018 	 62.5326 	 129.689
| 32> C 	 -49.8555 	 64.2686 	 130.811
| 33> H 	 -50.4136 	 65.0835 	 131.277
| 34> H 	 -49.4561 	 64.6915 	 129.832
| 35> C 	 -48.6717 	 63.8901 	 131.792
| 36> H 	 -48.5466 	 62.7865 	 131.859
| 37> H 	 -48.7986 	 64.1065 	 132.797
| 38> H 	 -47.7807 	 64.3906 	 131.547
| 39> H 	 -49.2124 	 57.3507 	 128.558
| 40> H 	 -53.41 	 61.9763 	 133.875
| 41> *
| 42>
| 43>                          ****END OF INPUT****

CARTESIAN COORDINATES (ANGSTROEM)
---------------------------------
  S    -50.407700   58.316200  130.546000
  C    -49.858200   58.142600  128.933000
  C    -50.380000   59.072100  128.064000
  C    -50.879200   60.171200  128.868000
  C    -50.951300   59.908900  130.205000
  H    -51.310100   61.078000  128.552000
  C    -50.028200   59.103000  126.612000
  H    -51.007500   59.063100  126.043000
  H    -49.440400   58.156500  126.408000
  C    -49.212000   60.272800  126.057000
  H    -49.821200   61.163600  126.018000
  H    -48.381000   60.519600  126.684000
  C    -48.594800   59.984100  124.681000
  H    -48.012800   60.802200  124.380000
  H    -48.004900   59.084700  124.796000
  H    -49.270800   59.814100  123.892000
  S    -52.453000   60.155100  132.451000
  C    -52.782600   61.784200  133.003000
  C    -52.244700   62.810400  132.240000
  C    -51.481400   62.288600  131.169000
  C    -51.487700   60.898200  131.197000
  H    -52.407700   63.860600  132.430000
  C    -50.757000   63.125600  130.203000
  H    -51.448700   63.491900  129.438000
  H    -50.018000   62.532600  129.689000
  C    -49.855500   64.268600  130.811000
  H    -50.413600   65.083500  131.277000
  H    -49.456100   64.691500  129.832000
  C    -48.671700   63.890100  131.792000
  H    -48.546600   62.786500  131.859000
  H    -48.798600   64.106500  132.797000
  H    -47.780700   64.390600  131.547000
  H    -49.212400   57.350700  128.558000
  H    -53.410000   61.976300  133.875000

 Total Charge           Charge          ....    0
 Multiplicity           Mult            ....    1
 Number of Electrons    NEL             ....  134
 Basis Dimension        Dim             ....  322

ORBITAL ENERGIES
----------------

  NO   OCC          E(Eh)            E(eV)
   0   2.0000     -88.968821     -2420.9647
   1   2.0000     -88.965116     -2420.8639
   2   2.0000     -10.326480      -280.9978
   3   2.0000     -10.322416      -280.8872
   4   2.0000     -10.316380      -280.7230
   5   2.0000     -10.308755      -280.5155
   6   2.0000     -10.299507      -280.2638
   7   2.0000     -10.299033      -280.2509
   8   2.0000     -10.297756      -280.2162
   9   2.0000     -10.297672      -280.2139
  10   2.0000     -10.293084      -280.0890
  11   2.0000     -10.291800      -280.0541
  12   2.0000     -10.285579      -279.8848
  13   2.0000     -10.283702      -279.8338
  14   2.0000     -10.271566      -279.5035
  15   2.0000     -10.270547      -279.4758
  16   2.0000      -8.083683      -219.9682
  17   2.0000      -8.081148      -219.8992
  18   2.0000      -6.041955      -164.4100
  19   2.0000      -6.039591      -164.3456
  20   2.0000      -6.038470      -164.3151
  21   2.0000      -6.035649      -164.2384
  22   2.0000      -6.034418      -164.2049
  23   2.0000      -6.031748      -164.1322
  24   2.0000      -1.011417       -27.5221
  25   2.0000      -0.988518       -26.8989
  26   2.0000      -0.913628       -24.8611
  27   2.0000      -0.905972       -24.6528
  28   2.0000      -0.868198       -23.6249
  29   2.0000      -0.853216       -23.2172
  30   2.0000      -0.847572       -23.0636
  31   2.0000      -0.814430       -22.1618
  32   2.0000      -0.787463       -21.4279
  33   2.0000      -0.773516       -21.0485
  34   2.0000      -0.710727       -19.3399
  35   2.0000      -0.700334       -19.0570
  36   2.0000      -0.688471       -18.7342
  37   2.0000      -0.660695       -17.9784
  38   2.0000      -0.641643       -17.4600
  39   2.0000      -0.619162       -16.8483
  40   2.0000      -0.596998       -16.2451
  41   2.0000      -0.573232       -15.5984
  42   2.0000      -0.563200       -15.3255
  43   2.0000      -0.557221       -15.1627
  44   2.0000      -0.535411       -14.5693
  45   2.0000      -0.525712       -14.3054
  46   2.0000      -0.515137       -14.0176
  47   2.0000      -0.508354       -13.8330
  48   2.0000      -0.497536       -13.5386
  49   2.0000      -0.493658       -13.4331
  50   2.0000      -0.486978       -13.2514
  51   2.0000      -0.484359       -13.1801
  52   2.0000      -0.472169       -12.8484
  53   2.0000      -0.461703       -12.5636
  54   2.0000      -0.459512       -12.5040
  55   2.0000      -0.459323       -12.4988
  56   2.0000      -0.446282       -12.1439
  57   2.0000      -0.444290       -12.0897
  58   2.0000      -0.437990       -11.9183
  59   2.0000      -0.427286       -11.6270
  60   2.0000      -0.420561       -11.4441
  61   2.0000      -0.416293       -11.3279
  62   2.0000      -0.412634       -11.2283
  63   2.0000      -0.352020        -9.5790
  64   2.0000      -0.335692        -9.1347
  65   2.0000      -0.328004        -8.9255
  66   2.0000      -0.283003        -7.7009
  67   0.0000       0.033139         0.9018
  68   0.0000       0.075159         2.0452
  69   0.0000       0.099588         2.7099
  70   0.0000       0.122893         3.3441
  71   0.0000       0.131956         3.5907

MULLIKEN ATOMIC CHARGES
-----------------------
   0 S :    0.120309
   1 C :   -0.131936
   2 C :   -0.040055
   3 C :   -0.013010
   4 C :   -0.111138
   5 H :   -0.009357
   6 C :    0.021689
   7 H :    0.046621
   8 H :    0.019473
   9 C :   -0.062206
  10 H :    0.023097
  11 H :    0.025463
  12 C :   -0.016536
  13 H :    0.024277
  14 H :    0.025095
  15 H :    0.018005
  16 S :    0.106133
  17 C :   -0.087878
  18 C :   -0.023591
  19 C :   -0.052731
  20 C :   -0.143817
  21 H :    0.015151
  22 C :    0.038002
  23 H :    0.048223
  24 H :    0.033563
  25 C :   -0.109147
  26 H :    0.032701
  27 H :    0.037962
  28 C :   -0.014629
  29 H :    0.038346
  30 H :    0.013696
  31 H :    0.027735
  32 H :    0.047352
  33 H :    0.053135
Sum of atomic charges:   -0.0000000

LOEWDIN ATOMIC CHARGES
----------------------
   0 S :    0.418244
   1 C :   -0.203233
   2 C :   -0.064380
   3 C :   -0.064614
   4 C :   -0.204388
   5 H :    0.020326
   6 C :   -0.038960
   7 H :    0.041381
   8 H :    0.032529
   9 C :   -0.038187
  10 H :    0.019917
  11 H :    0.022831
  12 C :   -0.052828
  13 H :    0.022176
  14 H :    0.024835
  15 H :    0.017810
  16 S :    0.402208
  17 C :   -0.181700
  18 C :   -0.062423
  19 C :   -0.067057
  20 C :   -0.185723
  21 H :    0.033607
  22 C :   -0.038458
  23 H :    0.037149
  24 H :    0.032312
  25 C :   -0.039609
  26 H :    0.017348
  27 H :    0.032831
  28 C :   -0.064852
  29 H :    0.035867
  30 H :    0.018713
  31 H :    0.023254
  32 H :    0.028022
  33 H :    0.025053

  Mayer bond orders larger than 0.100000
B(  0-S ,  1-C ) :   1.1458 B(  0-S ,  4-C ) :   1.1365 B(  1-C ,  2-C ) :   1.6164
B(  1-C , 32-H ) :   0.9620 B(  2-C ,  3-C ) :   1.1923 B(  2-C ,  6-C ) :   1.0509
B(  3-C ,  4-C ) :   1.6040 B(  3-C ,  5-H ) :   1.0013 B(  4-C , 20-C ) :   1.0171
B(  6-C ,  7-H ) :   0.9224 B(  6-C ,  8-H ) :   0.9462 B(  6-C ,  9-C ) :   1.0668
B(  9-C , 10-H ) :   0.9469 B(  9-C , 11-H ) :   0.9580 B(  9-C , 12-C ) :   1.0892
B( 12-C , 13-H ) :   0.9728 B( 12-C , 14-H ) :   0.9753 B( 12-C , 15-H ) :   0.9758
B( 16-S , 17-C ) :   1.1493 B( 16-S , 20-C ) :   1.1441 B( 17-C , 18-C ) :   1.6138
B( 17-C , 33-H ) :   0.9656 B( 18-C , 19-C ) :   1.2303 B( 18-C , 21-H ) :   0.9946
B( 19-C , 20-C ) :   1.6122 B( 19-C , 22-C ) :   1.0536 B( 22-C , 23-H ) :   0.9233
B( 22-C , 24-H ) :   0.9332 B( 22-C , 25-C ) :   1.0663 B( 25-C , 26-H ) :   0.9603
B( 25-C , 27-H ) :   0.9637 B( 25-C , 28-C ) :   1.0486 B( 28-C , 29-H ) :   0.9781
B( 28-C , 30-H ) :   0.9753 B( 28-C , 31-H ) :   0.9784

Dispersion correction           -0.014055344
FINAL SINGLE POINT ENERGY     -1339.866091504375

DIPOLE MOMENT
-------------
                                X             Y             Z
Electronic contribution:    -14.69811     -16.19536      20.18272
Nuclear contribution   :     14.88223      16.72020     -20.65195
                        -----------------------------------------
Total Dipole Moment    :      0.18412       0.52483      -0.46923
                        -----------------------------------------
Magnitude (a.u.)       :      0.72769
Magnitude (Debye)      :      1.84963

Rotational constants in cm-1:     0.018523     0.008692     0.006605
Rotational constants in MHz :   555.311378   260.591520   198.024874

                             ****ORCA TERMINATED NORMALLY****
TOTAL RUN TIME: 0 days 0 hours 0 minutes 35 seconds 96 msec
