                         Program Version 4.2.1 -  RELEASE  -
|  1> ! wB97X-D3 SP def2-SVP
|  2> %pal
|  3> nprocs 16
|  4> end
|  5>
|  6> * xyz 0 1
|  7> S 	 2.53733 	 -12.6255 	 57.4407
|  8> C 	 3.55577 	 -12.5177 	 58.7256
|  9> C 	 3.71232 	 -13.7297 	 59.394
| 10> C 	 2.80824 	 -14.7326 	 58.9734
| 11> C 	 2.01023 	 -14.2295 	 57.9623
| 12> H 	 2.72918 	 -15.6842 	 59.4781
| 13> C 	 4.63177 	 -14.0057 	 60.5621
| 14> H 	 4.29655 	 -14.8943 	 61.0722
| 15> H 	 4.56765 	 -13.1809 	 61.2697
| 16> C 	 6.06916 	 -14.5685 	 60.2028
| 17> H 	 6.43852 	 -15.0362 	 61.118
| 18> H 	 6.11251 	 -15.3086 	 59.3668
| 19> C 	 6.96745 	 -13.4408 	 59.6191
| 20> H 	 7.00632 	 -12.5297 	 60.2476
| 21> H 	 7.97223 	 -13.7121 	 59.3074
| 22> H 	 6.41081 	 -13.1696 	 58.7086
| 23> S 	 -0.544258 	 -14.0994 	 56.8466
| 24> C 	 -1.29923 	 -15.5491 	 56.2747
| 25> C 	 -0.495411 	 -16.6515 	 56.3781
| 26> C 	 0.863788 	 -16.3543 	 56.8551
| 27> C 	 0.979215 	 -14.9784 	 57.1868
| 28> H 	 -0.79139 	 -17.6244 	 56.0061
| 29> C 	 1.86511 	 -17.4934 	 57.1073
| 30> H 	 1.69313 	 -17.9091 	 58.0859
| 31> H 	 2.84492 	 -16.9732 	 57.1051
| 32> C 	 1.94928 	 -18.6521 	 56.0185
| 33> H 	 2.19666 	 -18.2669 	 55.0954
| 34> H 	 0.96831 	 -19.043 	 55.8313
| 35> C 	 3.034 	 -19.6892 	 56.4104
| 36> H 	 2.76161 	 -20.1979 	 57.2757
| 37> H 	 3.96332 	 -19.2214 	 56.7954
| 38> H 	 3.12486 	 -20.5223 	 55.6356
| 39> H 	 4.16654 	 -11.6775 	 58.9667
| 40> H 	 -2.32764 	 -15.4643 	 55.9744
| 41> *
| 42>
| 43>                          ****END OF INPUT****

CARTESIAN COORDINATES (ANGSTROEM)
---------------------------------
  S      2.537330  -12.625500   57.440700
  C      3.555770  -12.517700   58.725600
  C      3.712320  -13.729700   59.394000
  C      2.808240  -14.732600   58.973400
  C      2.010230  -14.229500   57.962300
  H      2.729180  -15.684200   59.478100
  C      4.631770  -14.005700   60.562100
  H      4.296550  -14.894300   61.072200
  H      4.567650  -13.180900   61.269700
  C      6.069160  -14.568500   60.202800
  H      6.438520  -15.036200   61.118000
  H      6.112510  -15.308600   59.366800
  C      6.967450  -13.440800   59.619100
  H      7.006320  -12.529700   60.247600
  H      7.972230  -13.712100   59.307400
  H      6.410810  -13.169600   58.708600
  S     -0.544258  -14.099400   56.846600
  C     -1.299230  -15.549100   56.274700
  C     -0.495411  -16.651500   56.378100
  C      0.863788  -16.354300   56.855100
  C      0.979215  -14.978400   57.186800
  H     -0.791390  -17.624400   56.006100
  C      1.865110  -17.493400   57.107300
  H      1.693130  -17.909100   58.085900
  H      2.844920  -16.973200   57.105100
  C      1.949280  -18.652100   56.018500
  H      2.196660  -18.266900   55.095400
  H      0.968310  -19.043000   55.831300
  C      3.034000  -19.689200   56.410400
  H      2.761610  -20.197900   57.275700
  H      3.963320  -19.221400   56.795400
  H      3.124860  -20.522300   55.635600
  H      4.166540  -11.677500   58.966700
  H     -2.327640  -15.464300   55.974400

 Total Charge           Charge          ....    0
 Multiplicity           Mult            ....    1
 Number of Electrons    NEL             ....  134
 Basis Dimension        Dim             ....  322

ORBITAL ENERGIES
----------------

  NO   OCC          E(Eh)            E(eV)
   0   2.0000     -88.968732     -2420.9623
   1   2.0000     -88.961807     -2420.7738
   2   2.0000     -10.332849      -281.1711
   3   2.0000     -10.331200      -281.1262
   4   2.0000     -10.315946      -280.7112
   5   2.0000     -10.312689      -280.6225
   6   2.0000     -10.305140      -280.4171
   7   2.0000     -10.299544      -280.2648
   8   2.0000     -10.296046      -280.1697
   9   2.0000     -10.295577      -280.1569
  10   2.0000     -10.295206      -280.1468
  11   2.0000     -10.293678      -280.1052
  12   2.0000     -10.291921      -280.0574
  13   2.0000     -10.286696      -279.9152
  14   2.0000     -10.283920      -279.8397
  15   2.0000     -10.276257      -279.6312
  16   2.0000      -8.085172      -220.0087
  17   2.0000      -8.076702      -219.7782
  18   2.0000      -6.043381      -164.4488
  19   2.0000      -6.039467      -164.3422
  20   2.0000      -6.036116      -164.2511
  21   2.0000      -6.035210      -164.2264
  22   2.0000      -6.031186      -164.1169
  23   2.0000      -6.027473      -164.0159
  24   2.0000      -1.010626       -27.5005
  25   2.0000      -0.982042       -26.7227
  26   2.0000      -0.906113       -24.6566
  27   2.0000      -0.902782       -24.5659
  28   2.0000      -0.868028       -23.6202
  29   2.0000      -0.853025       -23.2120
  30   2.0000      -0.846353       -23.0304
  31   2.0000      -0.809969       -22.0404
  32   2.0000      -0.780294       -21.2329
  33   2.0000      -0.769398       -20.9364
  34   2.0000      -0.717131       -19.5141
  35   2.0000      -0.697353       -18.9759
  36   2.0000      -0.691336       -18.8122
  37   2.0000      -0.658428       -17.9167
  38   2.0000      -0.642036       -17.4707
  39   2.0000      -0.621007       -16.8984
  40   2.0000      -0.598077       -16.2745
  41   2.0000      -0.567090       -15.4313
  42   2.0000      -0.562339       -15.3020
  43   2.0000      -0.540926       -14.7193
  44   2.0000      -0.535727       -14.5779
  45   2.0000      -0.527590       -14.3564
  46   2.0000      -0.522749       -14.2247
  47   2.0000      -0.510292       -13.8858
  48   2.0000      -0.502299       -13.6682
  49   2.0000      -0.499221       -13.5845
  50   2.0000      -0.490523       -13.3478
  51   2.0000      -0.476898       -12.9770
  52   2.0000      -0.474096       -12.9008
  53   2.0000      -0.464930       -12.6514
  54   2.0000      -0.459776       -12.5111
  55   2.0000      -0.452062       -12.3012
  56   2.0000      -0.446534       -12.1508
  57   2.0000      -0.435574       -11.8526
  58   2.0000      -0.432073       -11.7573
  59   2.0000      -0.422626       -11.5003
  60   2.0000      -0.421599       -11.4723
  61   2.0000      -0.419342       -11.4109
  62   2.0000      -0.410506       -11.1704
  63   2.0000      -0.353758        -9.6262
  64   2.0000      -0.331097        -9.0096
  65   2.0000      -0.327762        -8.9189
  66   2.0000      -0.286897        -7.8069
  67   0.0000       0.028247         0.7686
  68   0.0000       0.075873         2.0646
  69   0.0000       0.111446         3.0326
  70   0.0000       0.117976         3.2103
  71   0.0000       0.131328         3.5736

MULLIKEN ATOMIC CHARGES
-----------------------
   0 S :    0.135144
   1 C :   -0.083490
   2 C :   -0.118592
   3 C :    0.016539
   4 C :   -0.129887
   5 H :    0.016735
   6 C :    0.049747
   7 H :    0.011981
   8 H :    0.040721
   9 C :   -0.081728
  10 H :    0.035253
  11 H :    0.039737
  12 C :   -0.066985
  13 H :    0.027445
  14 H :    0.036204
  15 H :    0.029000
  16 S :    0.087409
  17 C :   -0.087012
  18 C :   -0.026479
  19 C :   -0.046300
  20 C :   -0.149195
  21 H :    0.020049
  22 C :    0.014214
  23 H :    0.045625
  24 H :    0.040052
  25 C :   -0.032969
  26 H :    0.013420
  27 H :    0.019837
  28 C :   -0.041236
  29 H :    0.005036
  30 H :    0.032428
  31 H :    0.051475
  32 H :    0.035963
  33 H :    0.059860
Sum of atomic charges:   -0.0000000

LOEWDIN ATOMIC CHARGES
----------------------
   0 S :    0.450741
   1 C :   -0.230049
   2 C :   -0.069205
   3 C :   -0.056938
   4 C :   -0.190549
   5 H :    0.035178
   6 C :   -0.031930
   7 H :    0.028692
   8 H :    0.032986
   9 C :   -0.036140
  10 H :    0.019119
  11 H :    0.032173
  12 C :   -0.076067
  13 H :    0.020651
  14 H :    0.021407
  15 H :    0.026958
  16 S :    0.389937
  17 C :   -0.181365
  18 C :   -0.074814
  19 C :   -0.050729
  20 C :   -0.191943
  21 H :    0.028388
  22 C :   -0.031561
  23 H :    0.028975
  24 H :    0.035990
  25 C :   -0.028959
  26 H :    0.015403
  27 H :    0.018181
  28 C :   -0.069497
  29 H :    0.013785
  30 H :    0.032634
  31 H :    0.038872
  32 H :    0.024004
  33 H :    0.025673

  Mayer bond orders larger than 0.100000
B(  0-S ,  1-C ) :   1.1662 B(  0-S ,  4-C ) :   1.1774 B(  1-C ,  2-C ) :   1.5652
B(  1-C , 32-H ) :   0.9688 B(  2-C ,  3-C ) :   1.2860 B(  2-C ,  6-C ) :   1.0320
B(  3-C ,  4-C ) :   1.5305 B(  3-C ,  5-H ) :   0.9994 B(  4-C , 20-C ) :   1.0211
B(  6-C ,  7-H ) :   0.9413 B(  6-C ,  8-H ) :   0.9493 B(  6-C ,  9-C ) :   1.0453
B(  9-C , 10-H ) :   0.9629 B(  9-C , 11-H ) :   0.9604 B(  9-C , 12-C ) :   1.0609
B( 12-C , 13-H ) :   0.9783 B( 12-C , 14-H ) :   0.9768 B( 12-C , 15-H ) :   0.9743
B( 16-S , 17-C ) :   1.1576 B( 16-S , 20-C ) :   1.1368 B( 17-C , 18-C ) :   1.6115
B( 17-C , 33-H ) :   0.9703 B( 18-C , 19-C ) :   1.2231 B( 18-C , 21-H ) :   0.9888
B( 19-C , 20-C ) :   1.6059 B( 19-C , 22-C ) :   1.0337 B( 22-C , 23-H ) :   0.9423
B( 22-C , 24-H ) :   0.9366 B( 22-C , 25-C ) :   1.0538 B( 25-C , 26-H ) :   0.9576
B( 25-C , 27-H ) :   0.9544 B( 25-C , 28-C ) :   1.0784 B( 28-C , 29-H ) :   0.9723
B( 28-C , 30-H ) :   0.9712 B( 28-C , 31-H ) :   0.9728

Dispersion correction           -0.013862110
FINAL SINGLE POINT ENERGY     -1339.866384991943

DIPOLE MOMENT
-------------
                                X             Y             Z
Electronic contribution:    -21.64041      19.01820      -6.67189
Nuclear contribution   :     21.88745     -19.60028       6.91320
                        -----------------------------------------
Total Dipole Moment    :      0.24704      -0.58208       0.24131
                        -----------------------------------------
Magnitude (a.u.)       :      0.67681
Magnitude (Debye)      :      1.72033

Rotational constants in cm-1:     0.017142     0.008703     0.006184
Rotational constants in MHz :   513.906602   260.912283   185.395729

                             ****ORCA TERMINATED NORMALLY****
TOTAL RUN TIME: 0 days 0 hours 0 minutes 29 seconds 102 msec
