                         Program Version 4.2.1 -  RELEASE  -
|  1> ! wB97X-D3 SP def2-SVP
|  2> %pal
|  3> nprocs 16
|  4> end
|  5>
|  6> * xyz 0 1
|  7> S 	 53.2556 	 4.75966 	 83.7663
|  8> C 	 53.1551 	 3.482 	 82.5473
|  9> C 	 52.7848 	 2.30584 	 83.1012
| 10> C 	 52.751 	 2.35887 	 84.525
| 11> C 	 53.0243 	 3.61409 	 85.0532
| 12> H 	 52.5107 	 1.49745 	 85.2023
| 13> C 	 52.5402 	 1.04861 	 82.3339
| 14> H 	 53.1487 	 1.18662 	 81.4522
| 15> H 	 51.6138 	 0.881991 	 81.9493
| 16> C 	 52.8677 	 -0.315517 	 83.0452
| 17> H 	 53.9188 	 -0.334637 	 83.352
| 18> H 	 52.1631 	 -0.565616 	 83.8994
| 19> C 	 52.8118 	 -1.59502 	 82.1595
| 20> H 	 53.1427 	 -2.43218 	 82.7731
| 21> H 	 51.8797 	 -1.83049 	 81.693
| 22> H 	 53.494 	 -1.5566 	 81.3237
| 23> S 	 51.8263 	 5.29974 	 86.8933
| 24> C 	 52.2266 	 5.12914 	 88.5891
| 25> C 	 53.1924 	 4.14352 	 88.8005
| 26> C 	 53.5162 	 3.46488 	 87.5857
| 27> C 	 52.8853 	 3.96512 	 86.421
| 28> H 	 53.4886 	 4.04419 	 89.8212
| 29> C 	 54.4368 	 2.21934 	 87.6407
| 30> H 	 55.1411 	 2.29632 	 86.8538
| 31> H 	 53.8125 	 1.37208 	 87.5908
| 32> C 	 55.1958 	 2.06935 	 88.9817
| 33> H 	 54.4604 	 1.99688 	 89.7777
| 34> H 	 55.7721 	 2.9325 	 89.1013
| 35> C 	 56.1268 	 0.828288 	 88.9872
| 36> H 	 56.8082 	 0.925067 	 88.1368
| 37> H 	 55.6083 	 -0.12371 	 88.8928
| 38> H 	 56.7905 	 0.652466 	 89.8265
| 39> H 	 53.1577 	 3.75237 	 81.516
| 40> H 	 51.8431 	 5.83168 	 89.2758
| 41> *
| 42>
| 43>                          ****END OF INPUT****

CARTESIAN COORDINATES (ANGSTROEM)
---------------------------------
  S     53.255600    4.759660   83.766300
  C     53.155100    3.482000   82.547300
  C     52.784800    2.305840   83.101200
  C     52.751000    2.358870   84.525000
  C     53.024300    3.614090   85.053200
  H     52.510700    1.497450   85.202300
  C     52.540200    1.048610   82.333900
  H     53.148700    1.186620   81.452200
  H     51.613800    0.881991   81.949300
  C     52.867700   -0.315517   83.045200
  H     53.918800   -0.334637   83.352000
  H     52.163100   -0.565616   83.899400
  C     52.811800   -1.595020   82.159500
  H     53.142700   -2.432180   82.773100
  H     51.879700   -1.830490   81.693000
  H     53.494000   -1.556600   81.323700
  S     51.826300    5.299740   86.893300
  C     52.226600    5.129140   88.589100
  C     53.192400    4.143520   88.800500
  C     53.516200    3.464880   87.585700
  C     52.885300    3.965120   86.421000
  H     53.488600    4.044190   89.821200
  C     54.436800    2.219340   87.640700
  H     55.141100    2.296320   86.853800
  H     53.812500    1.372080   87.590800
  C     55.195800    2.069350   88.981700
  H     54.460400    1.996880   89.777700
  H     55.772100    2.932500   89.101300
  C     56.126800    0.828288   88.987200
  H     56.808200    0.925067   88.136800
  H     55.608300   -0.123710   88.892800
  H     56.790500    0.652466   89.826500
  H     53.157700    3.752370   81.516000
  H     51.843100    5.831680   89.275800

 Total Charge           Charge          ....    0
 Multiplicity           Mult            ....    1
 Number of Electrons    NEL             ....  134
 Basis Dimension        Dim             ....  322

ORBITAL ENERGIES
----------------

  NO   OCC          E(Eh)            E(eV)
   0   2.0000     -88.964474     -2420.8464
   1   2.0000     -88.963348     -2420.8158
   2   2.0000     -10.326343      -280.9941
   3   2.0000     -10.326049      -280.9861
   4   2.0000     -10.315264      -280.6926
   5   2.0000     -10.311134      -280.5802
   6   2.0000     -10.308325      -280.5038
   7   2.0000     -10.299308      -280.2584
   8   2.0000     -10.297399      -280.2065
   9   2.0000     -10.295065      -280.1430
  10   2.0000     -10.294301      -280.1222
  11   2.0000     -10.285886      -279.8932
  12   2.0000     -10.285022      -279.8697
  13   2.0000     -10.283032      -279.8155
  14   2.0000     -10.277998      -279.6785
  15   2.0000     -10.277001      -279.6514
  16   2.0000      -8.079355      -219.8504
  17   2.0000      -8.077907      -219.8110
  18   2.0000      -6.037919      -164.3001
  19   2.0000      -6.036350      -164.2574
  20   2.0000      -6.033833      -164.1889
  21   2.0000      -6.032303      -164.1473
  22   2.0000      -6.030063      -164.0863
  23   2.0000      -6.028897      -164.0546
  24   2.0000      -1.006553       -27.3897
  25   2.0000      -0.981792       -26.7159
  26   2.0000      -0.911256       -24.7965
  27   2.0000      -0.906980       -24.6802
  28   2.0000      -0.873884       -23.7796
  29   2.0000      -0.848617       -23.0920
  30   2.0000      -0.842715       -22.9314
  31   2.0000      -0.814998       -22.1772
  32   2.0000      -0.786201       -21.3936
  33   2.0000      -0.773238       -21.0409
  34   2.0000      -0.714871       -19.4526
  35   2.0000      -0.705906       -19.2087
  36   2.0000      -0.693504       -18.8712
  37   2.0000      -0.652370       -17.7519
  38   2.0000      -0.643279       -17.5045
  39   2.0000      -0.620776       -16.8922
  40   2.0000      -0.596543       -16.2328
  41   2.0000      -0.580865       -15.8061
  42   2.0000      -0.578321       -15.7369
  43   2.0000      -0.562195       -15.2981
  44   2.0000      -0.529994       -14.4219
  45   2.0000      -0.522011       -14.2046
  46   2.0000      -0.511941       -13.9306
  47   2.0000      -0.510530       -13.8922
  48   2.0000      -0.504741       -13.7347
  49   2.0000      -0.500283       -13.6134
  50   2.0000      -0.490902       -13.3581
  51   2.0000      -0.485752       -13.2180
  52   2.0000      -0.467986       -12.7346
  53   2.0000      -0.466243       -12.6871
  54   2.0000      -0.458034       -12.4637
  55   2.0000      -0.449632       -12.2351
  56   2.0000      -0.446167       -12.1408
  57   2.0000      -0.436485       -11.8774
  58   2.0000      -0.428934       -11.6719
  59   2.0000      -0.427203       -11.6248
  60   2.0000      -0.421759       -11.4766
  61   2.0000      -0.418416       -11.3857
  62   2.0000      -0.414893       -11.2898
  63   2.0000      -0.346040        -9.4162
  64   2.0000      -0.331594        -9.0231
  65   2.0000      -0.329735        -8.9726
  66   2.0000      -0.289089        -7.8665
  67   0.0000       0.027590         0.7508
  68   0.0000       0.067613         1.8398
  69   0.0000       0.118580         3.2267
  70   0.0000       0.130064         3.5392
  71   0.0000       0.133890         3.6433

MULLIKEN ATOMIC CHARGES
-----------------------
   0 S :    0.103107
   1 C :   -0.133770
   2 C :   -0.047291
   3 C :   -0.005295
   4 C :   -0.148549
   5 H :    0.033013
   6 C :    0.135956
   7 H :    0.012028
   8 H :    0.011951
   9 C :   -0.143614
  10 H :    0.039458
  11 H :    0.052130
  12 C :   -0.042422
  13 H :    0.035232
  14 H :    0.023840
  15 H :    0.018946
  16 S :    0.099876
  17 C :   -0.089864
  18 C :   -0.040925
  19 C :   -0.051490
  20 C :   -0.151158
  21 H :    0.021068
  22 C :    0.103084
  23 H :    0.027235
  24 H :    0.029878
  25 C :   -0.086160
  26 H :    0.032628
  27 H :    0.022640
  28 C :   -0.030167
  29 H :    0.022444
  30 H :    0.025683
  31 H :    0.029724
  32 H :    0.043193
  33 H :    0.047588
Sum of atomic charges:    0.0000000

LOEWDIN ATOMIC CHARGES
----------------------
   0 S :    0.401805
   1 C :   -0.183283
   2 C :   -0.063329
   3 C :   -0.061229
   4 C :   -0.201580
   5 H :    0.039923
   6 C :   -0.026900
   7 H :    0.034216
   8 H :    0.019710
   9 C :   -0.041779
  10 H :    0.027265
  11 H :    0.031425
  12 C :   -0.065551
  13 H :    0.030140
  14 H :    0.017102
  15 H :    0.020246
  16 S :    0.401036
  17 C :   -0.173979
  18 C :   -0.075960
  19 C :   -0.048123
  20 C :   -0.202460
  21 H :    0.033208
  22 C :   -0.017556
  23 H :    0.026280
  24 H :    0.025810
  25 C :   -0.032857
  26 H :    0.020660
  27 H :    0.016740
  28 C :   -0.067436
  29 H :    0.025659
  30 H :    0.023677
  31 H :    0.025516
  32 H :    0.023130
  33 H :    0.018474

  Mayer bond orders larger than 0.100000
B(  0-S ,  1-C ) :   1.1297 B(  0-S ,  4-C ) :   1.1491 B(  1-C ,  2-C ) :   1.6168
B(  1-C , 32-H ) :   0.9745 B(  2-C ,  3-C ) :   1.2481 B(  2-C ,  6-C ) :   1.0175
B(  3-C ,  4-C ) :   1.5501 B(  3-C ,  5-H ) :   0.9854 B(  4-C , 20-C ) :   1.0907
B(  6-C ,  7-H ) :   0.9377 B(  6-C ,  8-H ) :   0.9259 B(  6-C ,  9-C ) :   1.0673
B(  9-C , 10-H ) :   0.9603 B(  9-C , 11-H ) :   0.9497 B(  9-C , 12-C ) :   1.0829
B( 12-C , 13-H ) :   0.9750 B( 12-C , 14-H ) :   0.9758 B( 12-C , 15-H ) :   0.9746
B( 16-S , 17-C ) :   1.1766 B( 16-S , 20-C ) :   1.1371 B( 17-C , 18-C ) :   1.5712
B( 17-C , 20-C ) :   0.1080 B( 17-C , 33-H ) :   0.9684 B( 18-C , 19-C ) :   1.2515
B( 18-C , 21-H ) :   0.9976 B( 19-C , 20-C ) :   1.5727 B( 19-C , 22-C ) :   1.0218
B( 22-C , 23-H ) :   0.9305 B( 22-C , 24-H ) :   0.9329 B( 22-C , 25-C ) :   1.0968
B( 25-C , 26-H ) :   0.9445 B( 25-C , 27-H ) :   0.9568 B( 25-C , 28-C ) :   1.0772
B( 28-C , 29-H ) :   0.9737 B( 28-C , 30-H ) :   0.9755 B( 28-C , 31-H ) :   0.9751

Dispersion correction           -0.013268977
FINAL SINGLE POINT ENERGY     -1339.871464433066

DIPOLE MOMENT
-------------
                                X             Y             Z
Electronic contribution:    -10.29930      29.86003      -1.44732
Nuclear contribution   :     10.39556     -30.50843       1.49866
                        -----------------------------------------
Total Dipole Moment    :      0.09626      -0.64840       0.05134
                        -----------------------------------------
Magnitude (a.u.)       :      0.65752
Magnitude (Debye)      :      1.67128

Rotational constants in cm-1:     0.015712     0.008743     0.006233
Rotational constants in MHz :   471.048688   262.094010   186.860572

                             ****ORCA TERMINATED NORMALLY****
TOTAL RUN TIME: 0 days 0 hours 0 minutes 29 seconds 34 msec
