                         Program Version 4.2.1 -  RELEASE  -
|  1> ! wB97X-D3 SP def2-SVP
|  2> %pal
|  3> nprocs 16
|  4> end
|  5>
|  6> * xyz 0 1
|  7> S 	 -74.0818 	 41.2059 	 123.108
|  8> C 	 -74.6897 	 42.3137 	 124.337
|  9> C 	 -73.7006 	 42.5767 	 125.267
| 10> C 	 -72.402 	 42.0366 	 124.939
| 11> C 	 -72.4316 	 41.3482 	 123.753
| 12> H 	 -71.5191 	 42.1005 	 125.587
| 13> C 	 -73.9491 	 43.1298 	 126.631
| 14> H 	 -74.797 	 43.6964 	 126.674
| 15> H 	 -73.1864 	 43.8417 	 126.75
| 16> C 	 -73.8607 	 42.2482 	 127.879
| 17> H 	 -73.1323 	 41.4523 	 127.658
| 18> H 	 -73.4923 	 42.7598 	 128.687
| 19> C 	 -75.1565 	 41.6396 	 128.276
| 20> H 	 -75.7398 	 42.5606 	 128.557
| 21> H 	 -75.6981 	 41.1261 	 127.497
| 22> H 	 -75.0523 	 41.0118 	 129.212
| 23> S 	 -71.4413 	 41.0143 	 121.204
| 24> C 	 -70.0328 	 40.1395 	 120.896
| 25> C 	 -69.5919 	 39.4782 	 122.005
| 26> C 	 -70.238 	 39.9267 	 123.205
| 27> C 	 -71.2768 	 40.8452 	 122.951
| 28> H 	 -68.7502 	 38.7741 	 121.986
| 29> C 	 -69.8533 	 39.3832 	 124.569
| 30> H 	 -70.0595 	 38.2897 	 124.692
| 31> H 	 -70.4528 	 39.9208 	 125.348
| 32> C 	 -68.3183 	 39.5779 	 124.962
| 33> H 	 -67.7116 	 39.1255 	 124.113
| 34> H 	 -68.0768 	 39.0054 	 125.841
| 35> C 	 -67.8663 	 40.9969 	 125.112
| 36> H 	 -68.5177 	 41.4763 	 125.852
| 37> H 	 -67.9525 	 41.547 	 124.216
| 38> H 	 -66.8579 	 40.9537 	 125.512
| 39> H 	 -75.7539 	 42.5266 	 124.532
| 40> H 	 -69.5275 	 39.9711 	 119.942
| 41> *
| 42>
| 43>                          ****END OF INPUT****

CARTESIAN COORDINATES (ANGSTROEM)
---------------------------------
  S    -74.081800   41.205900  123.108000
  C    -74.689700   42.313700  124.337000
  C    -73.700600   42.576700  125.267000
  C    -72.402000   42.036600  124.939000
  C    -72.431600   41.348200  123.753000
  H    -71.519100   42.100500  125.587000
  C    -73.949100   43.129800  126.631000
  H    -74.797000   43.696400  126.674000
  H    -73.186400   43.841700  126.750000
  C    -73.860700   42.248200  127.879000
  H    -73.132300   41.452300  127.658000
  H    -73.492300   42.759800  128.687000
  C    -75.156500   41.639600  128.276000
  H    -75.739800   42.560600  128.557000
  H    -75.698100   41.126100  127.497000
  H    -75.052300   41.011800  129.212000
  S    -71.441300   41.014300  121.204000
  C    -70.032800   40.139500  120.896000
  C    -69.591900   39.478200  122.005000
  C    -70.238000   39.926700  123.205000
  C    -71.276800   40.845200  122.951000
  H    -68.750200   38.774100  121.986000
  C    -69.853300   39.383200  124.569000
  H    -70.059500   38.289700  124.692000
  H    -70.452800   39.920800  125.348000
  C    -68.318300   39.577900  124.962000
  H    -67.711600   39.125500  124.113000
  H    -68.076800   39.005400  125.841000
  C    -67.866300   40.996900  125.112000
  H    -68.517700   41.476300  125.852000
  H    -67.952500   41.547000  124.216000
  H    -66.857900   40.953700  125.512000
  H    -75.753900   42.526600  124.532000
  H    -69.527500   39.971100  119.942000

 Total Charge           Charge          ....    0
 Multiplicity           Mult            ....    1
 Number of Electrons    NEL             ....  134
 Basis Dimension        Dim             ....  322

ORBITAL ENERGIES
----------------

  NO   OCC          E(Eh)            E(eV)
   0   2.0000     -88.967699     -2420.9342
   1   2.0000     -88.965872     -2420.8845
   2   2.0000     -10.337023      -281.2847
   3   2.0000     -10.332086      -281.1503
   4   2.0000     -10.315866      -280.7090
   5   2.0000     -10.314238      -280.6647
   6   2.0000     -10.309284      -280.5299
   7   2.0000     -10.300907      -280.3019
   8   2.0000     -10.300264      -280.2844
   9   2.0000     -10.296154      -280.1726
  10   2.0000     -10.293532      -280.1012
  11   2.0000     -10.289830      -280.0005
  12   2.0000     -10.279562      -279.7211
  13   2.0000     -10.277251      -279.6582
  14   2.0000     -10.275453      -279.6093
  15   2.0000     -10.270592      -279.4770
  16   2.0000      -8.081670      -219.9134
  17   2.0000      -8.081545      -219.9100
  18   2.0000      -6.040412      -164.3680
  19   2.0000      -6.039987      -164.3564
  20   2.0000      -6.036374      -164.2581
  21   2.0000      -6.035882      -164.2447
  22   2.0000      -6.032316      -164.1477
  23   2.0000      -6.032122      -164.1424
  24   2.0000      -1.008345       -27.4385
  25   2.0000      -0.986196       -26.8358
  26   2.0000      -0.919843       -25.0302
  27   2.0000      -0.906140       -24.6573
  28   2.0000      -0.869729       -23.6665
  29   2.0000      -0.854440       -23.2505
  30   2.0000      -0.847257       -23.0550
  31   2.0000      -0.818659       -22.2768
  32   2.0000      -0.783071       -21.3085
  33   2.0000      -0.772492       -21.0206
  34   2.0000      -0.707595       -19.2546
  35   2.0000      -0.694936       -18.9102
  36   2.0000      -0.691453       -18.8154
  37   2.0000      -0.654154       -17.8004
  38   2.0000      -0.639685       -17.4067
  39   2.0000      -0.624543       -16.9947
  40   2.0000      -0.596854       -16.2412
  41   2.0000      -0.574817       -15.6416
  42   2.0000      -0.557364       -15.1666
  43   2.0000      -0.553300       -15.0561
  44   2.0000      -0.541302       -14.7296
  45   2.0000      -0.540744       -14.7144
  46   2.0000      -0.517735       -14.0883
  47   2.0000      -0.512655       -13.9501
  48   2.0000      -0.504424       -13.7261
  49   2.0000      -0.499933       -13.6039
  50   2.0000      -0.494128       -13.4459
  51   2.0000      -0.481446       -13.1008
  52   2.0000      -0.472635       -12.8610
  53   2.0000      -0.461975       -12.5710
  54   2.0000      -0.458751       -12.4832
  55   2.0000      -0.451208       -12.2780
  56   2.0000      -0.447018       -12.1640
  57   2.0000      -0.435657       -11.8548
  58   2.0000      -0.432882       -11.7793
  59   2.0000      -0.427124       -11.6226
  60   2.0000      -0.418434       -11.3862
  61   2.0000      -0.413198       -11.2437
  62   2.0000      -0.410848       -11.1797
  63   2.0000      -0.353844        -9.6286
  64   2.0000      -0.330296        -8.9878
  65   2.0000      -0.325735        -8.8637
  66   2.0000      -0.291475        -7.9314
  67   0.0000       0.029251         0.7960
  68   0.0000       0.065883         1.7928
  69   0.0000       0.102575         2.7912
  70   0.0000       0.120685         3.2840
  71   0.0000       0.129050         3.5116

MULLIKEN ATOMIC CHARGES
-----------------------
   0 S :    0.101621
   1 C :   -0.120750
   2 C :   -0.105536
   3 C :    0.017689
   4 C :   -0.131620
   5 H :    0.025224
   6 C :    0.118325
   7 H :   -0.022532
   8 H :    0.004081
   9 C :   -0.018530
  10 H :    0.016728
  11 H :    0.007089
  12 C :   -0.075122
  13 H :    0.023583
  14 H :    0.039536
  15 H :    0.045409
  16 S :    0.110236
  17 C :   -0.080643
  18 C :   -0.042888
  19 C :   -0.046702
  20 C :   -0.142658
  21 H :    0.026715
  22 C :    0.042419
  23 H :    0.050047
  24 H :    0.017112
  25 C :   -0.112941
  26 H :    0.027176
  27 H :    0.028248
  28 C :   -0.015793
  29 H :    0.017483
  30 H :    0.038890
  31 H :    0.036899
  32 H :    0.059811
  33 H :    0.061394
Sum of atomic charges:   -0.0000000

LOEWDIN ATOMIC CHARGES
----------------------
   0 S :    0.385255
   1 C :   -0.202546
   2 C :   -0.057498
   3 C :   -0.069221
   4 C :   -0.173151
   5 H :    0.034471
   6 C :   -0.026605
   7 H :    0.014157
   8 H :    0.029686
   9 C :   -0.033711
  10 H :    0.022548
  11 H :    0.014836
  12 C :   -0.066920
  13 H :    0.027517
  14 H :    0.022002
  15 H :    0.033162
  16 S :    0.431793
  17 C :   -0.203426
  18 C :   -0.077521
  19 C :   -0.056179
  20 C :   -0.199547
  21 H :    0.032737
  22 C :   -0.036671
  23 H :    0.039760
  24 H :    0.027830
  25 C :   -0.043116
  26 H :    0.023422
  27 H :    0.020205
  28 C :   -0.060949
  29 H :    0.022221
  30 H :    0.022588
  31 H :    0.030284
  32 H :    0.035398
  33 H :    0.037188

  Mayer bond orders larger than 0.100000
B(  0-S ,  1-C ) :   1.1084 B(  0-S ,  4-C ) :   1.1484 B(  1-C ,  2-C ) :   1.6361
B(  1-C , 32-H ) :   0.9633 B(  2-C ,  3-C ) :   1.2130 B(  2-C ,  6-C ) :   1.0462
B(  3-C ,  4-C ) :   1.5891 B(  3-C ,  5-H ) :   0.9901 B(  4-C , 20-C ) :   1.0294
B(  6-C ,  7-H ) :   0.9341 B(  6-C ,  8-H ) :   0.9186 B(  6-C ,  9-C ) :   1.0670
B(  9-C , 10-H ) :   0.9480 B(  9-C , 11-H ) :   0.9517 B(  9-C , 12-C ) :   1.0848
B( 12-C , 13-H ) :   0.9744 B( 12-C , 14-H ) :   0.9786 B( 12-C , 15-H ) :   0.9706
B( 16-S , 17-C ) :   1.1772 B( 16-S , 20-C ) :   1.1408 B( 17-C , 18-C ) :   1.5885
B( 17-C , 33-H ) :   0.9642 B( 18-C , 19-C ) :   1.2654 B( 18-C , 21-H ) :   0.9864
B( 19-C , 20-C ) :   1.5575 B( 19-C , 22-C ) :   1.0430 B( 22-C , 23-H ) :   0.9382
B( 22-C , 24-H ) :   0.9396 B( 22-C , 25-C ) :   1.0618 B( 25-C , 26-H ) :   0.9546
B( 25-C , 27-H ) :   0.9582 B( 25-C , 28-C ) :   1.0802 B( 28-C , 29-H ) :   0.9720
B( 28-C , 30-H ) :   0.9741 B( 28-C , 31-H ) :   0.9702

Dispersion correction           -0.014276976
FINAL SINGLE POINT ENERGY     -1339.869735240595

DIPOLE MOMENT
-------------
                                X             Y             Z
Electronic contribution:     -7.69305      -0.22966     -27.07347
Nuclear contribution   :      8.04910       0.05727      27.64810
                        -----------------------------------------
Total Dipole Moment    :      0.35605      -0.17239       0.57463
                        -----------------------------------------
Magnitude (a.u.)       :      0.69763
Magnitude (Debye)      :      1.77324

Rotational constants in cm-1:     0.019501     0.008741     0.006534
Rotational constants in MHz :   584.624673   262.049911   195.890594

                             ****ORCA TERMINATED NORMALLY****
TOTAL RUN TIME: 0 days 0 hours 0 minutes 33 seconds 569 msec
