                         Program Version 4.2.1 -  RELEASE  -
|  1> ! wB97X-D3 SP def2-SVP
|  2> %pal
|  3> nprocs 16
|  4> end
|  5>
|  6> * xyz 0 1
|  7> S 	 -15.371 	 33.0381 	 34.7522
|  8> C 	 -13.9011 	 33.7818 	 34.2273
|  9> C 	 -14.1416 	 35.1061 	 33.9009
| 10> C 	 -15.5365 	 35.4927 	 34.0106
| 11> C 	 -16.3685 	 34.4602 	 34.3978
| 12> H 	 -15.9553 	 36.4304 	 33.6955
| 13> C 	 -13.1287 	 36.1224 	 33.4085
| 14> H 	 -13.5167 	 36.879 	 32.7391
| 15> H 	 -12.3313 	 35.5813 	 32.8723
| 16> C 	 -12.5539 	 37.005 	 34.5032
| 17> H 	 -13.2924 	 37.7431 	 34.8705
| 18> H 	 -12.3026 	 36.2951 	 35.371
| 19> C 	 -11.3057 	 37.8321 	 34.0691
| 20> H 	 -11.6855 	 38.4024 	 33.197
| 21> H 	 -10.8949 	 38.5708 	 34.7475
| 22> H 	 -10.5798 	 37.1066 	 33.7526
| 23> S 	 -18.5355 	 35.3283 	 36.078
| 24> C 	 -20.1391 	 34.7157 	 35.696
| 25> C 	 -20.0743 	 33.7861 	 34.7008
| 26> C 	 -18.8113 	 33.7478 	 33.968
| 27> C 	 -17.8383 	 34.4533 	 34.6611
| 28> H 	 -20.9563 	 33.2598 	 34.4121
| 29> C 	 -18.6471 	 32.8171 	 32.7161
| 30> H 	 -19.154 	 31.8661 	 32.7769
| 31> H 	 -17.6096 	 32.5674 	 32.633
| 32> C 	 -19.1092 	 33.4019 	 31.3036
| 33> H 	 -20.1161 	 33.8298 	 31.2716
| 34> H 	 -19.0145 	 32.6363 	 30.5887
| 35> C 	 -18.0546 	 34.4511 	 30.8563
| 36> H 	 -17.0469 	 34.014 	 30.7125
| 37> H 	 -17.9167 	 35.268 	 31.5276
| 38> H 	 -18.2948 	 34.817 	 29.8757
| 39> H 	 -13.0087 	 33.3066 	 34.1166
| 40> H 	 -21.0403 	 34.6867 	 36.3235
| 41> *
| 42>
| 43>                          ****END OF INPUT****

CARTESIAN COORDINATES (ANGSTROEM)
---------------------------------
  S    -15.371000   33.038100   34.752200
  C    -13.901100   33.781800   34.227300
  C    -14.141600   35.106100   33.900900
  C    -15.536500   35.492700   34.010600
  C    -16.368500   34.460200   34.397800
  H    -15.955300   36.430400   33.695500
  C    -13.128700   36.122400   33.408500
  H    -13.516700   36.879000   32.739100
  H    -12.331300   35.581300   32.872300
  C    -12.553900   37.005000   34.503200
  H    -13.292400   37.743100   34.870500
  H    -12.302600   36.295100   35.371000
  C    -11.305700   37.832100   34.069100
  H    -11.685500   38.402400   33.197000
  H    -10.894900   38.570800   34.747500
  H    -10.579800   37.106600   33.752600
  S    -18.535500   35.328300   36.078000
  C    -20.139100   34.715700   35.696000
  C    -20.074300   33.786100   34.700800
  C    -18.811300   33.747800   33.968000
  C    -17.838300   34.453300   34.661100
  H    -20.956300   33.259800   34.412100
  C    -18.647100   32.817100   32.716100
  H    -19.154000   31.866100   32.776900
  H    -17.609600   32.567400   32.633000
  C    -19.109200   33.401900   31.303600
  H    -20.116100   33.829800   31.271600
  H    -19.014500   32.636300   30.588700
  C    -18.054600   34.451100   30.856300
  H    -17.046900   34.014000   30.712500
  H    -17.916700   35.268000   31.527600
  H    -18.294800   34.817000   29.875700
  H    -13.008700   33.306600   34.116600
  H    -21.040300   34.686700   36.323500

 Total Charge           Charge          ....    0
 Multiplicity           Mult            ....    1
 Number of Electrons    NEL             ....  134
 Basis Dimension        Dim             ....  322

ORBITAL ENERGIES
----------------

  NO   OCC          E(Eh)            E(eV)
   0   2.0000     -88.968645     -2420.9599
   1   2.0000     -88.965998     -2420.8879
   2   2.0000     -10.336323      -281.2656
   3   2.0000     -10.334336      -281.2116
   4   2.0000     -10.318351      -280.7766
   5   2.0000     -10.312665      -280.6219
   6   2.0000     -10.312195      -280.6091
   7   2.0000     -10.305584      -280.4292
   8   2.0000     -10.296748      -280.1888
   9   2.0000     -10.295023      -280.1418
  10   2.0000     -10.292283      -280.0673
  11   2.0000     -10.292175      -280.0643
  12   2.0000     -10.290764      -280.0259
  13   2.0000     -10.287289      -279.9314
  14   2.0000     -10.279965      -279.7321
  15   2.0000     -10.267578      -279.3950
  16   2.0000      -8.082206      -219.9280
  17   2.0000      -8.080492      -219.8814
  18   2.0000      -6.040988      -164.3836
  19   2.0000      -6.039047      -164.3308
  20   2.0000      -6.036953      -164.2738
  21   2.0000      -6.034892      -164.2177
  22   2.0000      -6.032645      -164.1566
  23   2.0000      -6.031335      -164.1210
  24   2.0000      -1.000807       -27.2333
  25   2.0000      -0.981122       -26.6977
  26   2.0000      -0.911013       -24.7899
  27   2.0000      -0.897286       -24.4164
  28   2.0000      -0.868042       -23.6206
  29   2.0000      -0.845976       -23.0202
  30   2.0000      -0.841744       -22.9050
  31   2.0000      -0.817226       -22.2378
  32   2.0000      -0.780357       -21.2346
  33   2.0000      -0.771821       -21.0023
  34   2.0000      -0.706382       -19.2216
  35   2.0000      -0.694696       -18.9036
  36   2.0000      -0.689819       -18.7709
  37   2.0000      -0.658663       -17.9231
  38   2.0000      -0.647638       -17.6231
  39   2.0000      -0.616679       -16.7807
  40   2.0000      -0.592987       -16.1360
  41   2.0000      -0.577589       -15.7170
  42   2.0000      -0.563783       -15.3413
  43   2.0000      -0.546800       -14.8792
  44   2.0000      -0.539989       -14.6938
  45   2.0000      -0.522774       -14.2254
  46   2.0000      -0.515596       -14.0301
  47   2.0000      -0.511102       -13.9078
  48   2.0000      -0.501952       -13.6588
  49   2.0000      -0.499699       -13.5975
  50   2.0000      -0.490281       -13.3412
  51   2.0000      -0.481011       -13.0890
  52   2.0000      -0.468686       -12.7536
  53   2.0000      -0.463225       -12.6050
  54   2.0000      -0.456764       -12.4292
  55   2.0000      -0.448187       -12.1958
  56   2.0000      -0.443114       -12.0577
  57   2.0000      -0.434453       -11.8221
  58   2.0000      -0.427308       -11.6276
  59   2.0000      -0.422734       -11.5032
  60   2.0000      -0.417026       -11.3479
  61   2.0000      -0.415294       -11.3007
  62   2.0000      -0.410323       -11.1654
  63   2.0000      -0.338235        -9.2038
  64   2.0000      -0.331855        -9.0302
  65   2.0000      -0.326197        -8.8763
  66   2.0000      -0.309715        -8.4278
  67   0.0000       0.035058         0.9540
  68   0.0000       0.057718         1.5706
  69   0.0000       0.106862         2.9079
  70   0.0000       0.113805         3.0968
  71   0.0000       0.129324         3.5191

MULLIKEN ATOMIC CHARGES
-----------------------
   0 S :    0.109619
   1 C :   -0.074196
   2 C :   -0.085306
   3 C :    0.050695
   4 C :   -0.173035
   5 H :    0.011768
   6 C :    0.061902
   7 H :    0.018188
   8 H :    0.023299
   9 C :   -0.125063
  10 H :    0.036060
  11 H :    0.036074
  12 C :   -0.036760
  13 H :    0.023937
  14 H :    0.046498
  15 H :    0.030386
  16 S :    0.112523
  17 C :   -0.084705
  18 C :   -0.034650
  19 C :   -0.021343
  20 C :   -0.159285
  21 H :    0.014929
  22 C :    0.067833
  23 H :    0.028025
  24 H :    0.010755
  25 C :   -0.048590
  26 H :    0.039711
  27 H :    0.021539
  28 C :   -0.055727
  29 H :    0.025080
  30 H :    0.029498
  31 H :    0.019150
  32 H :    0.011880
  33 H :    0.069309
Sum of atomic charges:   -0.0000000

LOEWDIN ATOMIC CHARGES
----------------------
   0 S :    0.410586
   1 C :   -0.184548
   2 C :   -0.057483
   3 C :   -0.055404
   4 C :   -0.187209
   5 H :    0.030528
   6 C :   -0.036895
   7 H :    0.028429
   8 H :    0.029892
   9 C :   -0.046997
  10 H :    0.023729
  11 H :    0.024281
  12 C :   -0.065802
  13 H :    0.026792
  14 H :    0.027598
  15 H :    0.021615
  16 S :    0.380779
  17 C :   -0.190572
  18 C :   -0.064959
  19 C :   -0.045692
  20 C :   -0.189276
  21 H :    0.025930
  22 C :   -0.024544
  23 H :    0.029489
  24 H :    0.022039
  25 C :   -0.027206
  26 H :    0.025297
  27 H :    0.019140
  28 C :   -0.065122
  29 H :    0.027213
  30 H :    0.017811
  31 H :    0.018670
  32 H :    0.011138
  33 H :    0.040754

  Mayer bond orders larger than 0.100000
B(  0-S ,  1-C ) :   1.1435 B(  0-S ,  4-C ) :   1.1482 B(  1-C ,  2-C ) :   1.5974
B(  1-C , 32-H ) :   0.9856 B(  2-C ,  3-C ) :   1.2297 B(  2-C ,  6-C ) :   1.0369
B(  3-C ,  4-C ) :   1.5914 B(  3-C ,  5-H ) :   0.9974 B(  4-C , 20-C ) :   1.0171
B(  6-C ,  7-H ) :   0.9398 B(  6-C ,  8-H ) :   0.9444 B(  6-C ,  9-C ) :   1.0482
B(  9-C , 10-H ) :   0.9581 B(  9-C , 11-H ) :   0.9593 B(  9-C , 12-C ) :   1.0688
B( 12-C , 13-H ) :   0.9722 B( 12-C , 14-H ) :   0.9766 B( 12-C , 15-H ) :   0.9778
B( 16-S , 17-C ) :   1.1271 B( 16-S , 20-C ) :   1.1228 B( 17-C , 18-C ) :   1.6731
B( 17-C , 33-H ) :   0.9555 B( 18-C , 19-C ) :   1.2085 B( 18-C , 21-H ) :   0.9829
B( 19-C , 20-C ) :   1.6250 B( 19-C , 22-C ) :   1.0326 B( 22-C , 23-H ) :   0.9476
B( 22-C , 24-H ) :   0.9318 B( 22-C , 25-C ) :   1.0694 B( 25-C , 26-H ) :   0.9613
B( 25-C , 27-H ) :   0.9551 B( 25-C , 28-C ) :   1.0752 B( 28-C , 29-H ) :   0.9744
B( 28-C , 30-H ) :   0.9806 B( 28-C , 31-H ) :   0.9740

Dispersion correction           -0.014583781
FINAL SINGLE POINT ENERGY     -1339.873357176616

DIPOLE MOMENT
-------------
                                X             Y             Z
Electronic contribution:    -11.52520      -8.71069      17.21906
Nuclear contribution   :     11.54935       8.68668     -17.66586
                        -----------------------------------------
Total Dipole Moment    :      0.02415      -0.02400      -0.44680
                        -----------------------------------------
Magnitude (a.u.)       :      0.44809
Magnitude (Debye)      :      1.13896

Rotational constants in cm-1:     0.020768     0.007556     0.006747
Rotational constants in MHz :   622.619457   226.512244   202.275131

                             ****ORCA TERMINATED NORMALLY****
TOTAL RUN TIME: 0 days 0 hours 0 minutes 33 seconds 166 msec
