                         Program Version 4.2.1 -  RELEASE  -
|  1> ! wB97X-D3 SP def2-SVP
|  2> %pal
|  3> nprocs 16
|  4> end
|  5>
|  6> * xyz 0 1
|  7> S 	 -42.3788 	 24.4101 	 90.3064
|  8> C 	 -42.6716 	 22.8068 	 90.9
|  9> C 	 -41.4018 	 22.2244 	 91.1289
| 10> C 	 -40.2813 	 23.0043 	 90.6565
| 11> C 	 -40.6214 	 24.2777 	 90.3427
| 12> H 	 -39.2535 	 22.7198 	 90.7372
| 13> C 	 -41.1653 	 20.8453 	 91.7149
| 14> H 	 -40.9739 	 20.9853 	 92.7833
| 15> H 	 -40.1463 	 20.5512 	 91.4299
| 16> C 	 -42.1862 	 19.8106 	 91.3529
| 17> H 	 -41.8909 	 18.9577 	 91.9682
| 18> H 	 -43.2056 	 20.0684 	 91.7703
| 19> C 	 -42.2954 	 19.48 	 89.8222
| 20> H 	 -42.7007 	 20.3739 	 89.2677
| 21> H 	 -41.4818 	 18.9194 	 89.4281
| 22> H 	 -43.1386 	 18.8316 	 89.7383
| 23> S 	 -40.2446 	 26.2857 	 88.5796
| 24> C 	 -38.7438 	 27.1814 	 88.5458
| 25> C 	 -37.8725 	 26.6815 	 89.469
| 26> C 	 -38.3936 	 25.5549 	 90.2131
| 27> C 	 -39.6763 	 25.2887 	 89.8748
| 28> H 	 -36.8997 	 27.1952 	 89.6283
| 29> C 	 -37.5047 	 24.896 	 91.2404
| 30> H 	 -37.9347 	 24.1736 	 91.9744
| 31> H 	 -37.1025 	 25.7798 	 91.8411
| 32> C 	 -36.2646 	 24.3578 	 90.5313
| 33> H 	 -35.582 	 24.2193 	 91.2769
| 34> H 	 -35.7488 	 25.1678 	 89.8752
| 35> C 	 -36.4528 	 23.1346 	 89.6207
| 36> H 	 -35.4372 	 22.7886 	 89.3581
| 37> H 	 -37.1944 	 23.2151 	 88.8463
| 38> H 	 -36.8345 	 22.3498 	 90.2365
| 39> H 	 -43.5699 	 22.4052 	 91.1721
| 40> H 	 -38.5383 	 28.0096 	 87.98
| 41> *
| 42>
| 43>                          ****END OF INPUT****

CARTESIAN COORDINATES (ANGSTROEM)
---------------------------------
  S    -42.378800   24.410100   90.306400
  C    -42.671600   22.806800   90.900000
  C    -41.401800   22.224400   91.128900
  C    -40.281300   23.004300   90.656500
  C    -40.621400   24.277700   90.342700
  H    -39.253500   22.719800   90.737200
  C    -41.165300   20.845300   91.714900
  H    -40.973900   20.985300   92.783300
  H    -40.146300   20.551200   91.429900
  C    -42.186200   19.810600   91.352900
  H    -41.890900   18.957700   91.968200
  H    -43.205600   20.068400   91.770300
  C    -42.295400   19.480000   89.822200
  H    -42.700700   20.373900   89.267700
  H    -41.481800   18.919400   89.428100
  H    -43.138600   18.831600   89.738300
  S    -40.244600   26.285700   88.579600
  C    -38.743800   27.181400   88.545800
  C    -37.872500   26.681500   89.469000
  C    -38.393600   25.554900   90.213100
  C    -39.676300   25.288700   89.874800
  H    -36.899700   27.195200   89.628300
  C    -37.504700   24.896000   91.240400
  H    -37.934700   24.173600   91.974400
  H    -37.102500   25.779800   91.841100
  C    -36.264600   24.357800   90.531300
  H    -35.582000   24.219300   91.276900
  H    -35.748800   25.167800   89.875200
  C    -36.452800   23.134600   89.620700
  H    -35.437200   22.788600   89.358100
  H    -37.194400   23.215100   88.846300
  H    -36.834500   22.349800   90.236500
  H    -43.569900   22.405200   91.172100
  H    -38.538300   28.009600   87.980000

 Total Charge           Charge          ....    0
 Multiplicity           Mult            ....    1
 Number of Electrons    NEL             ....  134
 Basis Dimension        Dim             ....  322

ORBITAL ENERGIES
----------------

  NO   OCC          E(Eh)            E(eV)
   0   2.0000     -88.964174     -2420.8383
   1   2.0000     -88.960472     -2420.7375
   2   2.0000     -10.327342      -281.0213
   3   2.0000     -10.322470      -280.8887
   4   2.0000     -10.310030      -280.5502
   5   2.0000     -10.309710      -280.5415
   6   2.0000     -10.302036      -280.3326
   7   2.0000     -10.301639      -280.3218
   8   2.0000     -10.301407      -280.3155
   9   2.0000     -10.295628      -280.1583
  10   2.0000     -10.292502      -280.0732
  11   2.0000     -10.287842      -279.9464
  12   2.0000     -10.287259      -279.9305
  13   2.0000     -10.286541      -279.9110
  14   2.0000     -10.277507      -279.6652
  15   2.0000     -10.276391      -279.6348
  16   2.0000      -8.078620      -219.8304
  17   2.0000      -8.076042      -219.7603
  18   2.0000      -6.037276      -164.2826
  19   2.0000      -6.034658      -164.2114
  20   2.0000      -6.033051      -164.1677
  21   2.0000      -6.030479      -164.0977
  22   2.0000      -6.029350      -164.0670
  23   2.0000      -6.026580      -163.9916
  24   2.0000      -1.010811       -27.5056
  25   2.0000      -0.985811       -26.8253
  26   2.0000      -0.914964       -24.8974
  27   2.0000      -0.910291       -24.7703
  28   2.0000      -0.871981       -23.7278
  29   2.0000      -0.849887       -23.1266
  30   2.0000      -0.842125       -22.9154
  31   2.0000      -0.816832       -22.2271
  32   2.0000      -0.785155       -21.3652
  33   2.0000      -0.778881       -21.1944
  34   2.0000      -0.711229       -19.3535
  35   2.0000      -0.704452       -19.1691
  36   2.0000      -0.694164       -18.8892
  37   2.0000      -0.663357       -18.0509
  38   2.0000      -0.644397       -17.5349
  39   2.0000      -0.613616       -16.6973
  40   2.0000      -0.599445       -16.3117
  41   2.0000      -0.575636       -15.6639
  42   2.0000      -0.557106       -15.1596
  43   2.0000      -0.550976       -14.9928
  44   2.0000      -0.541389       -14.7320
  45   2.0000      -0.529250       -14.4016
  46   2.0000      -0.523328       -14.2405
  47   2.0000      -0.517580       -14.0841
  48   2.0000      -0.507681       -13.8147
  49   2.0000      -0.502547       -13.6750
  50   2.0000      -0.493272       -13.4226
  51   2.0000      -0.480596       -13.0777
  52   2.0000      -0.471332       -12.8256
  53   2.0000      -0.466542       -12.6952
  54   2.0000      -0.463563       -12.6142
  55   2.0000      -0.448278       -12.1983
  56   2.0000      -0.442347       -12.0369
  57   2.0000      -0.434669       -11.8279
  58   2.0000      -0.434105       -11.8126
  59   2.0000      -0.422512       -11.4971
  60   2.0000      -0.414871       -11.2892
  61   2.0000      -0.412148       -11.2151
  62   2.0000      -0.405973       -11.0471
  63   2.0000      -0.358367        -9.7517
  64   2.0000      -0.328259        -8.9324
  65   2.0000      -0.322166        -8.7666
  66   2.0000      -0.289779        -7.8853
  67   0.0000       0.030741         0.8365
  68   0.0000       0.083876         2.2824
  69   0.0000       0.110281         3.0009
  70   0.0000       0.117906         3.2084
  71   0.0000       0.131382         3.5751

MULLIKEN ATOMIC CHARGES
-----------------------
   0 S :    0.102173
   1 C :   -0.077058
   2 C :   -0.129029
   3 C :    0.020283
   4 C :   -0.102785
   5 H :   -0.015911
   6 C :    0.092068
   7 H :    0.035723
   8 H :    0.004295
   9 C :   -0.102970
  10 H :    0.024611
  11 H :    0.030729
  12 C :   -0.020180
  13 H :    0.052131
  14 H :    0.038833
  15 H :    0.014525
  16 S :    0.094692
  17 C :   -0.046900
  18 C :   -0.061146
  19 C :   -0.034421
  20 C :   -0.140371
  21 H :    0.036611
  22 C :    0.024942
  23 H :    0.047171
  24 H :    0.040603
  25 C :   -0.090782
  26 H :    0.003249
  27 H :    0.037204
  28 C :   -0.015037
  29 H :    0.038000
  30 H :    0.050563
  31 H :    0.013833
  32 H :    0.013421
  33 H :    0.020927
Sum of atomic charges:    0.0000000

LOEWDIN ATOMIC CHARGES
----------------------
   0 S :    0.404040
   1 C :   -0.197805
   2 C :   -0.051757
   3 C :   -0.068202
   4 C :   -0.182780
   5 H :    0.023747
   6 C :   -0.044095
   7 H :    0.036424
   8 H :    0.027882
   9 C :   -0.046438
  10 H :    0.025940
  11 H :    0.026470
  12 C :   -0.064940
  13 H :    0.039126
  14 H :    0.023811
  15 H :    0.023629
  16 S :    0.402610
  17 C :   -0.169033
  18 C :   -0.068686
  19 C :   -0.062485
  20 C :   -0.196718
  21 H :    0.037866
  22 C :   -0.037168
  23 H :    0.034067
  24 H :    0.044492
  25 C :   -0.039893
  26 H :    0.008778
  27 H :    0.032003
  28 C :   -0.064028
  29 H :    0.034619
  30 H :    0.028683
  31 H :    0.016653
  32 H :    0.009867
  33 H :    0.013321

  Mayer bond orders larger than 0.100000
B(  0-S ,  1-C ) :   1.1279 B(  0-S ,  4-C ) :   1.1481 B(  1-C ,  2-C ) :   1.5814
B(  1-C , 32-H ) :   0.9864 B(  2-C ,  3-C ) :   1.2464 B(  2-C ,  6-C ) :   1.0167
B(  3-C ,  4-C ) :   1.5752 B(  3-C ,  5-H ) :   0.9872 B(  4-C , 20-C ) :   1.0419
B(  6-C ,  7-H ) :   0.9247 B(  6-C ,  8-H ) :   0.9372 B(  6-C ,  9-C ) :   1.0832
B(  9-C , 10-H ) :   0.9510 B(  9-C , 11-H ) :   0.9515 B(  9-C , 12-C ) :   1.0757
B( 12-C , 13-H ) :   0.9684 B( 12-C , 14-H ) :   0.9767 B( 12-C , 15-H ) :   0.9701
B( 16-S , 17-C ) :   1.1335 B( 16-S , 20-C ) :   1.1259 B( 17-C , 18-C ) :   1.6540
B( 17-C , 33-H ) :   0.9781 B( 18-C , 19-C ) :   1.1986 B( 18-C , 21-H ) :   0.9776
B( 19-C , 20-C ) :   1.6457 B( 19-C , 22-C ) :   1.0376 B( 22-C , 23-H ) :   0.9436
B( 22-C , 24-H ) :   0.9266 B( 22-C , 25-C ) :   1.0767 B( 25-C , 26-H ) :   0.9514
B( 25-C , 27-H ) :   0.9518 B( 25-C , 28-C ) :   1.0721 B( 28-C , 29-H ) :   0.9685
B( 28-C , 30-H ) :   0.9742 B( 28-C , 31-H ) :   0.9642

Dispersion correction           -0.014989939
FINAL SINGLE POINT ENERGY     -1339.863242912252

DIPOLE MOMENT
-------------
                                X             Y             Z
Electronic contribution:    -12.29067      22.25469      -5.78114
Nuclear contribution   :     12.88556     -22.68726       6.16834
                        -----------------------------------------
Total Dipole Moment    :      0.59489      -0.43256       0.38719
                        -----------------------------------------
Magnitude (a.u.)       :      0.83122
Magnitude (Debye)      :      2.11279

Rotational constants in cm-1:     0.021192     0.008797     0.006871
Rotational constants in MHz :   635.327805   263.717432   205.993939

                             ****ORCA TERMINATED NORMALLY****
TOTAL RUN TIME: 0 days 0 hours 0 minutes 31 seconds 546 msec
