                         Program Version 4.2.1 -  RELEASE  -
|  1> ! wB97X-D3 SP def2-SVP
|  2> %pal
|  3> nprocs 16
|  4> end
|  5>
|  6> * xyz 0 1
|  7> S 	 -21.1727 	 33.9879 	 42.728
|  8> C 	 -19.8223 	 34.3768 	 43.6981
|  9> C 	 -18.7438 	 34.3886 	 42.8232
| 10> C 	 -19.0257 	 34.0598 	 41.4727
| 11> C 	 -20.3385 	 33.9579 	 41.2301
| 12> H 	 -18.229 	 33.9768 	 40.693
| 13> C 	 -17.2349 	 34.6038 	 43.2388
| 14> H 	 -17.2406 	 34.7814 	 44.2765
| 15> H 	 -16.7322 	 35.4688 	 42.7682
| 16> C 	 -16.3235 	 33.4032 	 42.9029
| 17> H 	 -16.7477 	 32.5853 	 43.4369
| 18> H 	 -16.2665 	 33.0977 	 41.8523
| 19> C 	 -14.8991 	 33.5023 	 43.296
| 20> H 	 -14.8086 	 33.9645 	 44.2653
| 21> H 	 -14.5284 	 32.5057 	 43.4223
| 22> H 	 -14.3062 	 34.0055 	 42.5853
| 23> S 	 -22.9304 	 34.2533 	 39.9904
| 24> C 	 -23.1645 	 33.7555 	 38.2714
| 25> C 	 -21.9502 	 33.2575 	 37.8314
| 26> C 	 -20.8085 	 33.2581 	 38.7316
| 27> C 	 -21.1771 	 33.6722 	 40.0049
| 28> H 	 -21.9409 	 33.0745 	 36.8034
| 29> C 	 -19.4237 	 32.8324 	 38.3432
| 30> H 	 -19.5003 	 31.8922 	 37.8376
| 31> H 	 -18.9077 	 32.6845 	 39.2605
| 32> C 	 -18.6375 	 33.9307 	 37.5567
| 33> H 	 -18.8455 	 34.8697 	 38.0747
| 34> H 	 -19.0385 	 34.1175 	 36.5629
| 35> C 	 -17.1285 	 33.7423 	 37.4583
| 36> H 	 -16.6088 	 34.599 	 37.0454
| 37> H 	 -16.9874 	 32.9475 	 36.6595
| 38> H 	 -16.6296 	 33.3776 	 38.367
| 39> H 	 -19.7984 	 34.5495 	 44.7865
| 40> H 	 -24.0706 	 33.808 	 37.6319
| 41> *
| 42>
| 43>                          ****END OF INPUT****

CARTESIAN COORDINATES (ANGSTROEM)
---------------------------------
  S    -21.172700   33.987900   42.728000
  C    -19.822300   34.376800   43.698100
  C    -18.743800   34.388600   42.823200
  C    -19.025700   34.059800   41.472700
  C    -20.338500   33.957900   41.230100
  H    -18.229000   33.976800   40.693000
  C    -17.234900   34.603800   43.238800
  H    -17.240600   34.781400   44.276500
  H    -16.732200   35.468800   42.768200
  C    -16.323500   33.403200   42.902900
  H    -16.747700   32.585300   43.436900
  H    -16.266500   33.097700   41.852300
  C    -14.899100   33.502300   43.296000
  H    -14.808600   33.964500   44.265300
  H    -14.528400   32.505700   43.422300
  H    -14.306200   34.005500   42.585300
  S    -22.930400   34.253300   39.990400
  C    -23.164500   33.755500   38.271400
  C    -21.950200   33.257500   37.831400
  C    -20.808500   33.258100   38.731600
  C    -21.177100   33.672200   40.004900
  H    -21.940900   33.074500   36.803400
  C    -19.423700   32.832400   38.343200
  H    -19.500300   31.892200   37.837600
  H    -18.907700   32.684500   39.260500
  C    -18.637500   33.930700   37.556700
  H    -18.845500   34.869700   38.074700
  H    -19.038500   34.117500   36.562900
  C    -17.128500   33.742300   37.458300
  H    -16.608800   34.599000   37.045400
  H    -16.987400   32.947500   36.659500
  H    -16.629600   33.377600   38.367000
  H    -19.798400   34.549500   44.786500
  H    -24.070600   33.808000   37.631900

 Total Charge           Charge          ....    0
 Multiplicity           Mult            ....    1
 Number of Electrons    NEL             ....  134
 Basis Dimension        Dim             ....  322

ORBITAL ENERGIES
----------------

  NO   OCC          E(Eh)            E(eV)
   0   2.0000     -88.964949     -2420.8593
   1   2.0000     -88.962301     -2420.7873
   2   2.0000     -10.342006      -281.4203
   3   2.0000     -10.332764      -281.1688
   4   2.0000     -10.327901      -281.0365
   5   2.0000     -10.317347      -280.7493
   6   2.0000     -10.310079      -280.5515
   7   2.0000     -10.304158      -280.3904
   8   2.0000     -10.294474      -280.1269
   9   2.0000     -10.293551      -280.1018
  10   2.0000     -10.292599      -280.0759
  11   2.0000     -10.292207      -280.0652
  12   2.0000     -10.290872      -280.0289
  13   2.0000     -10.286741      -279.9164
  14   2.0000     -10.278196      -279.6839
  15   2.0000     -10.267120      -279.3825
  16   2.0000      -8.078636      -219.8309
  17   2.0000      -8.077291      -219.7943
  18   2.0000      -6.037160      -164.2795
  19   2.0000      -6.036206      -164.2535
  20   2.0000      -6.032774      -164.1601
  21   2.0000      -6.032206      -164.1447
  22   2.0000      -6.029375      -164.0676
  23   2.0000      -6.027644      -164.0205
  24   2.0000      -1.015014       -27.6199
  25   2.0000      -0.977683       -26.6041
  26   2.0000      -0.912848       -24.8399
  27   2.0000      -0.909441       -24.7472
  28   2.0000      -0.870742       -23.6941
  29   2.0000      -0.854493       -23.2519
  30   2.0000      -0.845327       -23.0025
  31   2.0000      -0.821008       -22.3408
  32   2.0000      -0.783707       -21.3257
  33   2.0000      -0.774129       -21.0651
  34   2.0000      -0.707131       -19.2420
  35   2.0000      -0.700411       -19.0592
  36   2.0000      -0.691964       -18.8293
  37   2.0000      -0.658572       -17.9207
  38   2.0000      -0.644253       -17.5310
  39   2.0000      -0.628219       -17.0947
  40   2.0000      -0.592023       -16.1098
  41   2.0000      -0.575032       -15.6474
  42   2.0000      -0.571188       -15.5428
  43   2.0000      -0.562910       -15.3176
  44   2.0000      -0.531354       -14.4589
  45   2.0000      -0.528329       -14.3766
  46   2.0000      -0.519910       -14.1475
  47   2.0000      -0.515388       -14.0244
  48   2.0000      -0.509701       -13.8697
  49   2.0000      -0.499654       -13.5963
  50   2.0000      -0.498958       -13.5773
  51   2.0000      -0.488631       -13.2963
  52   2.0000      -0.473998       -12.8981
  53   2.0000      -0.468329       -12.7439
  54   2.0000      -0.462379       -12.5820
  55   2.0000      -0.449919       -12.2429
  56   2.0000      -0.445525       -12.1234
  57   2.0000      -0.435284       -11.8447
  58   2.0000      -0.430218       -11.7068
  59   2.0000      -0.420339       -11.4380
  60   2.0000      -0.417582       -11.3630
  61   2.0000      -0.412857       -11.2344
  62   2.0000      -0.404933       -11.0188
  63   2.0000      -0.362481        -9.8636
  64   2.0000      -0.330937        -9.0052
  65   2.0000      -0.327133        -8.9018
  66   2.0000      -0.292431        -7.9574
  67   0.0000       0.022892         0.6229
  68   0.0000       0.081510         2.2180
  69   0.0000       0.104302         2.8382
  70   0.0000       0.118836         3.2337
  71   0.0000       0.120501         3.2790

MULLIKEN ATOMIC CHARGES
-----------------------
   0 S :    0.092757
   1 C :   -0.114304
   2 C :   -0.111114
   3 C :   -0.029939
   4 C :   -0.086644
   5 H :    0.024954
   6 C :    0.096956
   7 H :   -0.002279
   8 H :    0.032538
   9 C :   -0.107306
  10 H :    0.019196
  11 H :    0.025108
  12 C :   -0.003517
  13 H :    0.014944
  14 H :    0.024745
  15 H :    0.024982
  16 S :    0.072256
  17 C :   -0.104702
  18 C :   -0.011385
  19 C :   -0.086590
  20 C :   -0.085315
  21 H :   -0.002652
  22 C :    0.116755
  23 H :    0.029992
  24 H :   -0.002680
  25 C :   -0.082084
  26 H :    0.030214
  27 H :    0.027216
  28 C :   -0.055890
  29 H :    0.041481
  30 H :    0.030777
  31 H :    0.036338
  32 H :    0.065843
  33 H :    0.079348
Sum of atomic charges:   -0.0000000

LOEWDIN ATOMIC CHARGES
----------------------
   0 S :    0.438554
   1 C :   -0.217608
   2 C :   -0.062593
   3 C :   -0.083638
   4 C :   -0.188692
   5 H :    0.036959
   6 C :   -0.024843
   7 H :    0.018354
   8 H :    0.029955
   9 C :   -0.046277
  10 H :    0.020188
  11 H :    0.023113
  12 C :   -0.056685
  13 H :    0.021850
  14 H :    0.029020
  15 H :    0.017939
  16 S :    0.338401
  17 C :   -0.171185
  18 C :   -0.069292
  19 C :   -0.052437
  20 C :   -0.162224
  21 H :    0.019655
  22 C :   -0.022725
  23 H :    0.030770
  24 H :    0.024889
  25 C :   -0.041401
  26 H :    0.024847
  27 H :    0.024527
  28 C :   -0.071354
  29 H :    0.028577
  30 H :    0.031857
  31 H :    0.023140
  32 H :    0.042101
  33 H :    0.046259

  Mayer bond orders larger than 0.100000
B(  0-S ,  1-C ) :   1.1449 B(  0-S ,  4-C ) :   1.1747 B(  1-C ,  2-C ) :   1.5874
B(  1-C , 32-H ) :   0.9711 B(  2-C ,  3-C ) :   1.2675 B(  2-C ,  6-C ) :   1.0224
B(  3-C ,  4-C ) :   1.5653 B(  3-C ,  5-H ) :   0.9811 B(  4-C , 20-C ) :   1.0095
B(  6-C ,  7-H ) :   0.9381 B(  6-C ,  8-H ) :   0.9459 B(  6-C ,  9-C ) :   1.0636
B(  9-C , 10-H ) :   0.9562 B(  9-C , 11-H ) :   0.9519 B(  9-C , 12-C ) :   1.1007
B( 12-C , 13-H ) :   0.9695 B( 12-C , 14-H ) :   0.9703 B( 12-C , 15-H ) :   0.9743
B( 16-S , 17-C ) :   1.1172 B( 16-S , 20-C ) :   1.1109 B( 17-C , 18-C ) :   1.6568
B( 17-C , 33-H ) :   0.9617 B( 18-C , 19-C ) :   1.1977 B( 18-C , 21-H ) :   0.9921
B( 19-C , 20-C ) :   1.6390 B( 19-C , 22-C ) :   1.0551 B( 22-C , 23-H ) :   0.9279
B( 22-C , 24-H ) :   0.9280 B( 22-C , 25-C ) :   1.0490 B( 25-C , 26-H ) :   0.9562
B( 25-C , 27-H ) :   0.9544 B( 25-C , 28-C ) :   1.0852 B( 28-C , 29-H ) :   0.9734
B( 28-C , 30-H ) :   0.9731 B( 28-C , 31-H ) :   0.9747

Dispersion correction           -0.013981242
FINAL SINGLE POINT ENERGY     -1339.865460897110

DIPOLE MOMENT
-------------
                                X             Y             Z
Electronic contribution:    -32.89045       2.75827       5.59403
Nuclear contribution   :     33.60426      -2.85261      -5.96337
                        -----------------------------------------
Total Dipole Moment    :      0.71381      -0.09434      -0.36934
                        -----------------------------------------
Magnitude (a.u.)       :      0.80922
Magnitude (Debye)      :      2.05686

Rotational constants in cm-1:     0.017951     0.009260     0.006318
Rotational constants in MHz :   538.156243   277.593564   189.419275

                             ****ORCA TERMINATED NORMALLY****
TOTAL RUN TIME: 0 days 0 hours 0 minutes 32 seconds 400 msec
