                         Program Version 4.2.1 -  RELEASE  -
|  1> ! wB97X-D3 SP def2-SVP
|  2> %pal
|  3> nprocs 16
|  4> end
|  5>
|  6> * xyz 0 1
|  7> S 	 -56.2535 	 31.5872 	 101.51
|  8> C 	 -57.6629 	 30.6124 	 101.309
|  9> C 	 -57.3181 	 29.3403 	 100.831
| 10> C 	 -55.9269 	 29.3345 	 100.41
| 11> C 	 -55.2674 	 30.5397 	 100.494
| 12> H 	 -55.4784 	 28.4103 	 100.001
| 13> C 	 -58.2113 	 28.0822 	 100.698
| 14> H 	 -59.1807 	 28.3454 	 100.251
| 15> H 	 -58.5093 	 27.88 	 101.724
| 16> C 	 -57.6366 	 26.8451 	 100.07
| 17> H 	 -57.3607 	 27.0526 	 99.0609
| 18> H 	 -56.7557 	 26.5081 	 100.639
| 19> C 	 -58.7995 	 25.8697 	 100.055
| 20> H 	 -59.7926 	 26.3141 	 99.8193
| 21> H 	 -58.595 	 25.1242 	 99.2568
| 22> H 	 -58.8043 	 25.3337 	 101.044
| 23> S 	 -53.1285 	 31.8922 	 101.465
| 24> C 	 -51.6361 	 31.8425 	 100.665
| 25> C 	 -51.5921 	 30.865 	 99.7104
| 26> C 	 -52.8119 	 30.167 	 99.578
| 27> C 	 -53.7979 	 30.7519 	 100.389
| 28> H 	 -50.5856 	 30.6991 	 99.2153
| 29> C 	 -53.0262 	 29.0969 	 98.506
| 30> H 	 -52.5017 	 29.403 	 97.6608
| 31> H 	 -54.0675 	 29.1717 	 98.1935
| 32> C 	 -52.6182 	 27.7232 	 99.0279
| 33> H 	 -53.336 	 27.597 	 99.8651
| 34> H 	 -51.5507 	 27.6081 	 99.3107
| 35> C 	 -52.9557 	 26.6381 	 97.9892
| 36> H 	 -52.1787 	 26.5232 	 97.1173
| 37> H 	 -53.9035 	 26.7563 	 97.4753
| 38> H 	 -53.1037 	 25.6764 	 98.5388
| 39> H 	 -58.625 	 30.8844 	 101.736
| 40> H 	 -50.7411 	 32.4839 	 100.896
| 41> *
| 42>
| 43>                          ****END OF INPUT****

CARTESIAN COORDINATES (ANGSTROEM)
---------------------------------
  S    -56.253500   31.587200  101.510000
  C    -57.662900   30.612400  101.309000
  C    -57.318100   29.340300  100.831000
  C    -55.926900   29.334500  100.410000
  C    -55.267400   30.539700  100.494000
  H    -55.478400   28.410300  100.001000
  C    -58.211300   28.082200  100.698000
  H    -59.180700   28.345400  100.251000
  H    -58.509300   27.880000  101.724000
  C    -57.636600   26.845100  100.070000
  H    -57.360700   27.052600   99.060900
  H    -56.755700   26.508100  100.639000
  C    -58.799500   25.869700  100.055000
  H    -59.792600   26.314100   99.819300
  H    -58.595000   25.124200   99.256800
  H    -58.804300   25.333700  101.044000
  S    -53.128500   31.892200  101.465000
  C    -51.636100   31.842500  100.665000
  C    -51.592100   30.865000   99.710400
  C    -52.811900   30.167000   99.578000
  C    -53.797900   30.751900  100.389000
  H    -50.585600   30.699100   99.215300
  C    -53.026200   29.096900   98.506000
  H    -52.501700   29.403000   97.660800
  H    -54.067500   29.171700   98.193500
  C    -52.618200   27.723200   99.027900
  H    -53.336000   27.597000   99.865100
  H    -51.550700   27.608100   99.310700
  C    -52.955700   26.638100   97.989200
  H    -52.178700   26.523200   97.117300
  H    -53.903500   26.756300   97.475300
  H    -53.103700   25.676400   98.538800
  H    -58.625000   30.884400  101.736000
  H    -50.741100   32.483900  100.896000

 Total Charge           Charge          ....    0
 Multiplicity           Mult            ....    1
 Number of Electrons    NEL             ....  134
 Basis Dimension        Dim             ....  322

ORBITAL ENERGIES
----------------

  NO   OCC          E(Eh)            E(eV)
   0   2.0000     -88.963775     -2420.8274
   1   2.0000     -88.963686     -2420.8250
   2   2.0000     -10.331132      -281.1244
   3   2.0000     -10.325142      -280.9614
   4   2.0000     -10.315113      -280.6885
   5   2.0000     -10.310076      -280.5514
   6   2.0000     -10.306039      -280.4416
   7   2.0000     -10.299720      -280.2696
   8   2.0000     -10.296541      -280.1831
   9   2.0000     -10.294223      -280.1200
  10   2.0000     -10.293606      -280.1033
  11   2.0000     -10.291553      -280.0474
  12   2.0000     -10.288763      -279.9715
  13   2.0000     -10.288581      -279.9665
  14   2.0000     -10.287793      -279.9451
  15   2.0000     -10.284969      -279.8682
  16   2.0000      -8.080427      -219.8796
  17   2.0000      -8.078816      -219.8358
  18   2.0000      -6.038732      -164.3223
  19   2.0000      -6.037447      -164.2873
  20   2.0000      -6.034704      -164.2126
  21   2.0000      -6.033413      -164.1775
  22   2.0000      -6.031245      -164.1185
  23   2.0000      -6.029294      -164.0654
  24   2.0000      -1.013505       -27.5789
  25   2.0000      -0.988177       -26.8897
  26   2.0000      -0.921791       -25.0832
  27   2.0000      -0.912657       -24.8347
  28   2.0000      -0.869553       -23.6617
  29   2.0000      -0.852029       -23.1849
  30   2.0000      -0.842557       -22.9271
  31   2.0000      -0.812978       -22.1223
  32   2.0000      -0.778544       -21.1853
  33   2.0000      -0.768040       -20.8994
  34   2.0000      -0.711074       -19.3493
  35   2.0000      -0.697612       -18.9830
  36   2.0000      -0.686986       -18.6938
  37   2.0000      -0.658528       -17.9195
  38   2.0000      -0.633308       -17.2332
  39   2.0000      -0.623196       -16.9580
  40   2.0000      -0.593582       -16.1522
  41   2.0000      -0.581224       -15.8159
  42   2.0000      -0.569913       -15.5081
  43   2.0000      -0.562960       -15.3189
  44   2.0000      -0.527563       -14.3557
  45   2.0000      -0.524026       -14.2595
  46   2.0000      -0.507779       -13.8174
  47   2.0000      -0.503017       -13.6878
  48   2.0000      -0.501273       -13.6403
  49   2.0000      -0.499306       -13.5868
  50   2.0000      -0.491935       -13.3862
  51   2.0000      -0.486272       -13.2321
  52   2.0000      -0.476816       -12.9748
  53   2.0000      -0.462427       -12.5833
  54   2.0000      -0.461095       -12.5470
  55   2.0000      -0.448940       -12.2163
  56   2.0000      -0.444254       -12.0888
  57   2.0000      -0.440778       -11.9942
  58   2.0000      -0.433421       -11.7940
  59   2.0000      -0.431276       -11.7356
  60   2.0000      -0.421496       -11.4695
  61   2.0000      -0.416253       -11.3268
  62   2.0000      -0.408422       -11.1137
  63   2.0000      -0.358029        -9.7425
  64   2.0000      -0.333632        -9.0786
  65   2.0000      -0.321918        -8.7598
  66   2.0000      -0.281817        -7.6686
  67   0.0000       0.022266         0.6059
  68   0.0000       0.080569         2.1924
  69   0.0000       0.104715         2.8494
  70   0.0000       0.122330         3.3288
  71   0.0000       0.132602         3.6083

MULLIKEN ATOMIC CHARGES
-----------------------
   0 S :    0.081297
   1 C :   -0.116981
   2 C :   -0.076829
   3 C :   -0.038052
   4 C :   -0.058386
   5 H :    0.017627
   6 C :    0.025049
   7 H :    0.028418
   8 H :    0.027366
   9 C :   -0.069084
  10 H :    0.030150
  11 H :    0.047168
  12 C :   -0.056510
  13 H :    0.041975
  14 H :    0.033738
  15 H :    0.046271
  16 S :    0.113074
  17 C :   -0.112062
  18 C :   -0.061166
  19 C :   -0.059248
  20 C :   -0.158351
  21 H :    0.037487
  22 C :    0.086905
  23 H :    0.003901
  24 H :    0.023633
  25 C :   -0.072944
  26 H :    0.033281
  27 H :    0.050370
  28 C :   -0.074406
  29 H :    0.048613
  30 H :    0.021552
  31 H :    0.037589
  32 H :    0.049221
  33 H :    0.069334
Sum of atomic charges:    0.0000000

LOEWDIN ATOMIC CHARGES
----------------------
   0 S :    0.403842
   1 C :   -0.205096
   2 C :   -0.060124
   3 C :   -0.072113
   4 C :   -0.189043
   5 H :    0.028745
   6 C :   -0.037770
   7 H :    0.032620
   8 H :    0.033351
   9 C :   -0.045511
  10 H :    0.020295
  11 H :    0.031016
  12 C :   -0.064519
  13 H :    0.029737
  14 H :    0.027657
  15 H :    0.033668
  16 S :    0.442269
  17 C :   -0.218028
  18 C :   -0.083468
  19 C :   -0.061736
  20 C :   -0.206309
  21 H :    0.043403
  22 C :   -0.026822
  23 H :    0.018995
  24 H :    0.031019
  25 C :   -0.040031
  26 H :    0.027930
  27 H :    0.034166
  28 C :   -0.080748
  29 H :    0.034916
  30 H :    0.019180
  31 H :    0.029321
  32 H :    0.028435
  33 H :    0.040754

  Mayer bond orders larger than 0.100000
B(  0-S ,  1-C ) :   1.1518 B(  0-S ,  4-C ) :   1.1471 B(  1-C ,  2-C ) :   1.5847
B(  1-C , 32-H ) :   0.9742 B(  2-C ,  3-C ) :   1.2895 B(  2-C ,  6-C ) :   0.9865
B(  3-C ,  4-C ) :   1.5248 B(  3-C ,  5-H ) :   0.9733 B(  4-C , 20-C ) :   1.0565
B(  6-C ,  7-H ) :   0.9440 B(  6-C ,  8-H ) :   0.9328 B(  6-C ,  9-C ) :   1.0915
B(  9-C , 10-H ) :   0.9497 B(  9-C , 11-H ) :   0.9431 B(  9-C , 12-C ) :   1.0785
B( 12-C , 13-H ) :   0.9729 B( 12-C , 14-H ) :   0.9737 B( 12-C , 15-H ) :   0.9748
B( 16-S , 17-C ) :   1.1657 B( 16-S , 20-C ) :   1.1672 B( 17-C , 18-C ) :   1.6081
B( 17-C , 33-H ) :   0.9597 B( 18-C , 19-C ) :   1.2683 B( 18-C , 21-H ) :   0.9826
B( 19-C , 20-C ) :   1.5592 B( 19-C , 22-C ) :   1.0366 B( 22-C , 23-H ) :   0.9347
B( 22-C , 24-H ) :   0.9353 B( 22-C , 25-C ) :   1.0576 B( 25-C , 26-H ) :   0.9536
B( 25-C , 27-H ) :   0.9554 B( 25-C , 28-C ) :   1.0794 B( 28-C , 29-H ) :   0.9735
B( 28-C , 30-H ) :   0.9720 B( 28-C , 31-H ) :   0.9759

Dispersion correction           -0.013995494
FINAL SINGLE POINT ENERGY     -1339.866583625543

DIPOLE MOMENT
-------------
                                X             Y             Z
Electronic contribution:      6.25968      30.24335      13.22079
Nuclear contribution   :     -6.35938     -30.95112     -13.41347
                        -----------------------------------------
Total Dipole Moment    :     -0.09970      -0.70777      -0.19268
                        -----------------------------------------
Magnitude (a.u.)       :      0.74027
Magnitude (Debye)      :      1.88162

Rotational constants in cm-1:     0.017028     0.009875     0.006437
Rotational constants in MHz :   510.491198   296.058201   192.964431

                             ****ORCA TERMINATED NORMALLY****
TOTAL RUN TIME: 0 days 0 hours 0 minutes 30 seconds 89 msec
