                         Program Version 4.2.1 -  RELEASE  -
|  1> ! wB97X-D3 SP def2-SVP
|  2> %pal
|  3> nprocs 16
|  4> end
|  5>
|  6> * xyz 0 1
|  7> S 	 -53.4738 	 41.7941 	 112.45
|  8> C 	 -51.9436 	 41.5653 	 111.649
|  9> C 	 -51.9675 	 40.4888 	 110.827
| 10> C 	 -53.1772 	 39.7052 	 110.966
| 11> C 	 -54.0772 	 40.283 	 111.78
| 12> H 	 -53.4488 	 38.7598 	 110.524
| 13> C 	 -50.8422 	 39.9409 	 109.944
| 14> H 	 -50.6606 	 38.8452 	 110.169
| 15> H 	 -49.9896 	 40.5398 	 110.363
| 16> C 	 -51.0107 	 40.1434 	 108.467
| 17> H 	 -51.8265 	 39.5185 	 108.112
| 18> H 	 -51.2705 	 41.1942 	 108.378
| 19> C 	 -49.6996 	 39.7708 	 107.803
| 20> H 	 -48.8748 	 40.5211 	 108.018
| 21> H 	 -49.2689 	 38.8525 	 108.111
| 22> H 	 -49.792 	 39.6358 	 106.747
| 23> S 	 -55.1933 	 39.3578 	 114.052
| 24> C 	 -56.6799 	 38.508 	 114.035
| 25> C 	 -57.226 	 38.4541 	 112.748
| 26> C 	 -56.4283 	 39.0894 	 111.757
| 27> C 	 -55.2602 	 39.597 	 112.298
| 28> H 	 -58.111 	 37.9551 	 112.484
| 29> C 	 -56.776 	 39.1237 	 110.321
| 30> H 	 -56.3973 	 40.0489 	 109.878
| 31> H 	 -57.875 	 39.3315 	 110.185
| 32> C 	 -56.4433 	 37.8467 	 109.588
| 33> H 	 -57.1498 	 37.0813 	 109.885
| 34> H 	 -55.4958 	 37.5006 	 109.908
| 35> C 	 -56.3832 	 37.9745 	 108.085
| 36> H 	 -57.1744 	 38.5307 	 107.572
| 37> H 	 -56.2159 	 36.9609 	 107.666
| 38> H 	 -55.4634 	 38.4983 	 108.042
| 39> H 	 -51.2117 	 42.3082 	 111.573
| 40> H 	 -57.2958 	 38.2606 	 114.909
| 41> *
| 42>
| 43>                          ****END OF INPUT****

CARTESIAN COORDINATES (ANGSTROEM)
---------------------------------
  S    -53.473800   41.794100  112.450000
  C    -51.943600   41.565300  111.649000
  C    -51.967500   40.488800  110.827000
  C    -53.177200   39.705200  110.966000
  C    -54.077200   40.283000  111.780000
  H    -53.448800   38.759800  110.524000
  C    -50.842200   39.940900  109.944000
  H    -50.660600   38.845200  110.169000
  H    -49.989600   40.539800  110.363000
  C    -51.010700   40.143400  108.467000
  H    -51.826500   39.518500  108.112000
  H    -51.270500   41.194200  108.378000
  C    -49.699600   39.770800  107.803000
  H    -48.874800   40.521100  108.018000
  H    -49.268900   38.852500  108.111000
  H    -49.792000   39.635800  106.747000
  S    -55.193300   39.357800  114.052000
  C    -56.679900   38.508000  114.035000
  C    -57.226000   38.454100  112.748000
  C    -56.428300   39.089400  111.757000
  C    -55.260200   39.597000  112.298000
  H    -58.111000   37.955100  112.484000
  C    -56.776000   39.123700  110.321000
  H    -56.397300   40.048900  109.878000
  H    -57.875000   39.331500  110.185000
  C    -56.443300   37.846700  109.588000
  H    -57.149800   37.081300  109.885000
  H    -55.495800   37.500600  109.908000
  C    -56.383200   37.974500  108.085000
  H    -57.174400   38.530700  107.572000
  H    -56.215900   36.960900  107.666000
  H    -55.463400   38.498300  108.042000
  H    -51.211700   42.308200  111.573000
  H    -57.295800   38.260600  114.909000

 Total Charge           Charge          ....    0
 Multiplicity           Mult            ....    1
 Number of Electrons    NEL             ....  134
 Basis Dimension        Dim             ....  322

ORBITAL ENERGIES
----------------

  NO   OCC          E(Eh)            E(eV)
   0   2.0000     -88.964707     -2420.8527
   1   2.0000     -88.963674     -2420.8246
   2   2.0000     -10.324849      -280.9534
   3   2.0000     -10.324165      -280.9348
   4   2.0000     -10.315284      -280.6932
   5   2.0000     -10.309312      -280.5306
   6   2.0000     -10.299238      -280.2565
   7   2.0000     -10.298789      -280.2443
   8   2.0000     -10.295585      -280.1571
   9   2.0000     -10.289556      -279.9930
  10   2.0000     -10.289389      -279.9885
  11   2.0000     -10.288286      -279.9585
  12   2.0000     -10.285900      -279.8936
  13   2.0000     -10.280135      -279.7367
  14   2.0000     -10.277440      -279.6634
  15   2.0000     -10.276423      -279.6357
  16   2.0000      -8.079677      -219.8592
  17   2.0000      -8.078778      -219.8347
  18   2.0000      -6.038293      -164.3103
  19   2.0000      -6.037204      -164.2807
  20   2.0000      -6.034230      -164.1997
  21   2.0000      -6.033149      -164.1703
  22   2.0000      -6.030219      -164.0906
  23   2.0000      -6.029674      -164.0758
  24   2.0000      -1.010001       -27.4835
  25   2.0000      -0.986696       -26.8494
  26   2.0000      -0.920130       -25.0380
  27   2.0000      -0.917474       -24.9657
  28   2.0000      -0.873028       -23.7563
  29   2.0000      -0.859062       -23.3763
  30   2.0000      -0.848433       -23.0870
  31   2.0000      -0.814528       -22.1644
  32   2.0000      -0.782332       -21.2883
  33   2.0000      -0.772449       -21.0194
  34   2.0000      -0.705797       -19.2057
  35   2.0000      -0.701518       -19.0893
  36   2.0000      -0.695645       -18.9295
  37   2.0000      -0.666305       -18.1311
  38   2.0000      -0.648134       -17.6366
  39   2.0000      -0.616512       -16.7761
  40   2.0000      -0.598866       -16.2960
  41   2.0000      -0.577493       -15.7144
  42   2.0000      -0.572093       -15.5674
  43   2.0000      -0.559027       -15.2119
  44   2.0000      -0.533765       -14.5245
  45   2.0000      -0.524525       -14.2731
  46   2.0000      -0.520854       -14.1732
  47   2.0000      -0.513507       -13.9732
  48   2.0000      -0.510794       -13.8994
  49   2.0000      -0.502473       -13.6730
  50   2.0000      -0.493240       -13.4217
  51   2.0000      -0.475500       -12.9390
  52   2.0000      -0.473962       -12.8972
  53   2.0000      -0.462647       -12.5893
  54   2.0000      -0.455458       -12.3936
  55   2.0000      -0.450774       -12.2662
  56   2.0000      -0.446724       -12.1560
  57   2.0000      -0.441806       -12.0221
  58   2.0000      -0.436318       -11.8728
  59   2.0000      -0.428446       -11.6586
  60   2.0000      -0.424664       -11.5557
  61   2.0000      -0.411176       -11.1887
  62   2.0000      -0.408670       -11.1205
  63   2.0000      -0.346043        -9.4163
  64   2.0000      -0.333174        -9.0661
  65   2.0000      -0.325662        -8.8617
  66   2.0000      -0.299340        -8.1455
  67   0.0000       0.036363         0.9895
  68   0.0000       0.067961         1.8493
  69   0.0000       0.118370         3.2210
  70   0.0000       0.120515         3.2794
  71   0.0000       0.125590         3.4175

MULLIKEN ATOMIC CHARGES
-----------------------
   0 S :    0.105063
   1 C :   -0.097171
   2 C :   -0.073977
   3 C :    0.037615
   4 C :   -0.138384
   5 H :    0.003003
   6 C :   -0.003120
   7 H :    0.042793
   8 H :    0.020250
   9 C :   -0.027784
  10 H :    0.029207
  11 H :    0.030688
  12 C :   -0.027760
  13 H :    0.036301
  14 H :    0.012589
  15 H :    0.026075
  16 S :    0.115147
  17 C :   -0.085048
  18 C :   -0.026919
  19 C :   -0.023166
  20 C :   -0.190056
  21 H :   -0.005506
  22 C :    0.042771
  23 H :    0.023038
  24 H :    0.023182
  25 C :   -0.046882
  26 H :    0.019493
  27 H :    0.010714
  28 C :   -0.028060
  29 H :    0.042095
  30 H :    0.038818
  31 H :    0.017931
  32 H :    0.028672
  33 H :    0.068389
Sum of atomic charges:   -0.0000000

LOEWDIN ATOMIC CHARGES
----------------------
   0 S :    0.394345
   1 C :   -0.189623
   2 C :   -0.062834
   3 C :   -0.057401
   4 C :   -0.193604
   5 H :    0.029504
   6 C :   -0.036629
   7 H :    0.035358
   8 H :    0.030943
   9 C :   -0.039464
  10 H :    0.024958
  11 H :    0.028364
  12 C :   -0.065123
  13 H :    0.034338
  14 H :    0.019460
  15 H :    0.021711
  16 S :    0.419552
  17 C :   -0.203586
  18 C :   -0.066079
  19 C :   -0.057466
  20 C :   -0.188654
  21 H :    0.020816
  22 C :   -0.039965
  23 H :    0.030952
  24 H :    0.036678
  25 C :   -0.035064
  26 H :    0.019501
  27 H :    0.015427
  28 C :   -0.061693
  29 H :    0.026341
  30 H :    0.032166
  31 H :    0.022778
  32 H :    0.018181
  33 H :    0.035814

  Mayer bond orders larger than 0.100000
B(  0-S ,  1-C ) :   1.1176 B(  0-S ,  4-C ) :   1.1347 B(  1-C ,  2-C ) :   1.6647
B(  1-C , 32-H ) :   0.9652 B(  2-C ,  3-C ) :   1.1887 B(  2-C ,  6-C ) :   1.0116
B(  3-C ,  4-C ) :   1.6297 B(  3-C ,  5-H ) :   0.9923 B(  4-C , 20-C ) :   1.0090
B(  6-C ,  7-H ) :   0.9419 B(  6-C ,  8-H ) :   0.9480 B(  6-C ,  9-C ) :   1.0641
B(  9-C , 10-H ) :   0.9509 B(  9-C , 11-H ) :   0.9524 B(  9-C , 12-C ) :   1.0861
B( 12-C , 13-H ) :   0.9733 B( 12-C , 14-H ) :   0.9698 B( 12-C , 15-H ) :   0.9731
B( 16-S , 17-C ) :   1.1681 B( 16-S , 20-C ) :   1.1498 B( 17-C , 18-C ) :   1.5794
B( 17-C , 20-C ) :   0.1005 B( 17-C , 33-H ) :   0.9626 B( 18-C , 19-C ) :   1.2618
B( 18-C , 21-H ) :   0.9940 B( 19-C , 20-C ) :   1.5951 B( 19-C , 22-C ) :   1.0635
B( 22-C , 23-H ) :   0.9334 B( 22-C , 24-H ) :   0.9222 B( 22-C , 25-C ) :   1.0553
B( 25-C , 26-H ) :   0.9478 B( 25-C , 27-H ) :   0.9586 B( 25-C , 28-C ) :   1.0729
B( 28-C , 29-H ) :   0.9754 B( 28-C , 30-H ) :   0.9715 B( 28-C , 31-H ) :   0.9799

Dispersion correction           -0.014195004
FINAL SINGLE POINT ENERGY     -1339.877542983870

DIPOLE MOMENT
-------------
                                X             Y             Z
Electronic contribution:     -6.86164       9.78303      28.39417
Nuclear contribution   :      6.90031     -10.08220     -28.99299
                        -----------------------------------------
Total Dipole Moment    :      0.03867      -0.29917      -0.59882
                        -----------------------------------------
Magnitude (a.u.)       :      0.67051
Magnitude (Debye)      :      1.70430

Rotational constants in cm-1:     0.017791     0.009112     0.006589
Rotational constants in MHz :   533.347095   273.165638   197.533926

                             ****ORCA TERMINATED NORMALLY****
TOTAL RUN TIME: 0 days 0 hours 0 minutes 28 seconds 571 msec
