                         Program Version 4.2.1 -  RELEASE  -
|  1> ! wB97X-D3 SP def2-SVP
|  2> %pal
|  3> nprocs 16
|  4> end
|  5>
|  6> * xyz 0 1
|  7> S 	 -95.5309 	 43.5933 	 126.135
|  8> C 	 -94.4374 	 43.0358 	 124.921
|  9> C 	 -94.7765 	 41.7874 	 124.434
| 10> C 	 -95.9613 	 41.2901 	 125.046
| 11> C 	 -96.5474 	 42.2164 	 125.885
| 12> H 	 -96.4441 	 40.3098 	 124.907
| 13> C 	 -94.0041 	 40.9349 	 123.397
| 14> H 	 -93.4638 	 41.55 	 122.708
| 15> H 	 -94.7852 	 40.4732 	 122.776
| 16> C 	 -93.0902 	 39.8662 	 124.064
| 17> H 	 -92.2708 	 40.5128 	 124.359
| 18> H 	 -93.684 	 39.4148 	 124.828
| 19> C 	 -92.7561 	 38.7341 	 123.064
| 20> H 	 -91.9393 	 38.1259 	 123.394
| 21> H 	 -93.6261 	 38.1073 	 122.917
| 22> H 	 -92.4641 	 39.1173 	 122.084
| 23> S 	 -98.0656 	 41.0033 	 127.938
| 24> C 	 -99.715 	 41.3524 	 128.106
| 25> C 	 -100.069 	 42.4134 	 127.299
| 26> C 	 -99.0165 	 42.8497 	 126.403
| 27> C 	 -97.8688 	 42.071 	 126.496
| 28> H 	 -101.072 	 42.7737 	 127.3
| 29> C 	 -99.3429 	 43.8749 	 125.295
| 30> H 	 -98.4283 	 44.4611 	 124.982
| 31> H 	 -100.016 	 44.5543 	 125.799
| 32> C 	 -100.12 	 43.2257 	 124.151
| 33> H 	 -100.812 	 42.5229 	 124.626
| 34> H 	 -99.4599 	 42.7215 	 123.407
| 35> C 	 -100.92 	 44.2367 	 123.388
| 36> H 	 -101.743 	 44.5706 	 123.972
| 37> H 	 -101.272 	 43.7002 	 122.506
| 38> H 	 -100.441 	 45.1155 	 122.993
| 39> H 	 -93.6191 	 43.6484 	 124.539
| 40> H 	 -100.421 	 40.808 	 128.782
| 41> *
| 42>
| 43>                          ****END OF INPUT****

CARTESIAN COORDINATES (ANGSTROEM)
---------------------------------
  S    -95.530900   43.593300  126.135000
  C    -94.437400   43.035800  124.921000
  C    -94.776500   41.787400  124.434000
  C    -95.961300   41.290100  125.046000
  C    -96.547400   42.216400  125.885000
  H    -96.444100   40.309800  124.907000
  C    -94.004100   40.934900  123.397000
  H    -93.463800   41.550000  122.708000
  H    -94.785200   40.473200  122.776000
  C    -93.090200   39.866200  124.064000
  H    -92.270800   40.512800  124.359000
  H    -93.684000   39.414800  124.828000
  C    -92.756100   38.734100  123.064000
  H    -91.939300   38.125900  123.394000
  H    -93.626100   38.107300  122.917000
  H    -92.464100   39.117300  122.084000
  S    -98.065600   41.003300  127.938000
  C    -99.715000   41.352400  128.106000
  C    -100.069000   42.413400  127.299000
  C    -99.016500   42.849700  126.403000
  C    -97.868800   42.071000  126.496000
  H    -101.072000   42.773700  127.300000
  C    -99.342900   43.874900  125.295000
  H    -98.428300   44.461100  124.982000
  H    -100.016000   44.554300  125.799000
  C    -100.120000   43.225700  124.151000
  H    -100.812000   42.522900  124.626000
  H    -99.459900   42.721500  123.407000
  C    -100.920000   44.236700  123.388000
  H    -101.743000   44.570600  123.972000
  H    -101.272000   43.700200  122.506000
  H    -100.441000   45.115500  122.993000
  H    -93.619100   43.648400  124.539000
  H    -100.421000   40.808000  128.782000

 Total Charge           Charge          ....    0
 Multiplicity           Mult            ....    1
 Number of Electrons    NEL             ....  134
 Basis Dimension        Dim             ....  322

ORBITAL ENERGIES
----------------

  NO   OCC          E(Eh)            E(eV)
   0   2.0000     -88.967630     -2420.9323
   1   2.0000     -88.958800     -2420.6920
   2   2.0000     -10.325591      -280.9736
   3   2.0000     -10.324880      -280.9543
   4   2.0000     -10.318014      -280.7674
   5   2.0000     -10.313066      -280.6328
   6   2.0000     -10.304997      -280.4132
   7   2.0000     -10.301375      -280.3147
   8   2.0000     -10.294229      -280.1202
   9   2.0000     -10.291275      -280.0398
  10   2.0000     -10.291218      -280.0383
  11   2.0000     -10.290486      -280.0183
  12   2.0000     -10.286298      -279.9044
  13   2.0000     -10.283802      -279.8365
  14   2.0000     -10.277161      -279.6558
  15   2.0000     -10.267751      -279.3997
  16   2.0000      -8.082856      -219.9457
  17   2.0000      -8.074057      -219.7063
  18   2.0000      -6.041185      -164.3890
  19   2.0000      -6.037323      -164.2839
  20   2.0000      -6.033745      -164.1866
  21   2.0000      -6.032494      -164.1525
  22   2.0000      -6.028470      -164.0430
  23   2.0000      -6.024872      -163.9451
  24   2.0000      -1.006402       -27.3856
  25   2.0000      -0.985197       -26.8086
  26   2.0000      -0.911161       -24.7939
  27   2.0000      -0.908859       -24.7313
  28   2.0000      -0.867587       -23.6082
  29   2.0000      -0.849988       -23.1293
  30   2.0000      -0.847775       -23.0691
  31   2.0000      -0.809345       -22.0234
  32   2.0000      -0.781873       -21.2759
  33   2.0000      -0.769951       -20.9514
  34   2.0000      -0.701965       -19.1014
  35   2.0000      -0.698430       -19.0052
  36   2.0000      -0.687673       -18.7125
  37   2.0000      -0.658539       -17.9197
  38   2.0000      -0.642026       -17.4704
  39   2.0000      -0.617685       -16.8081
  40   2.0000      -0.592746       -16.1294
  41   2.0000      -0.569952       -15.5092
  42   2.0000      -0.568164       -15.4605
  43   2.0000      -0.563212       -15.3258
  44   2.0000      -0.523296       -14.2396
  45   2.0000      -0.518993       -14.1225
  46   2.0000      -0.515599       -14.0302
  47   2.0000      -0.510980       -13.9045
  48   2.0000      -0.504786       -13.7359
  49   2.0000      -0.501990       -13.6598
  50   2.0000      -0.492900       -13.4125
  51   2.0000      -0.479119       -13.0375
  52   2.0000      -0.472849       -12.8669
  53   2.0000      -0.463261       -12.6060
  54   2.0000      -0.458886       -12.4869
  55   2.0000      -0.451324       -12.2811
  56   2.0000      -0.443209       -12.0603
  57   2.0000      -0.432940       -11.7809
  58   2.0000      -0.429060       -11.6753
  59   2.0000      -0.426731       -11.6120
  60   2.0000      -0.422130       -11.4867
  61   2.0000      -0.420109       -11.4317
  62   2.0000      -0.407920       -11.1001
  63   2.0000      -0.335552        -9.1308
  64   2.0000      -0.326774        -8.8920
  65   2.0000      -0.324394        -8.8272
  66   2.0000      -0.305003        -8.2995
  67   0.0000       0.036459         0.9921
  68   0.0000       0.066682         1.8145
  69   0.0000       0.109511         2.9800
  70   0.0000       0.125860         3.4248
  71   0.0000       0.129935         3.5357

MULLIKEN ATOMIC CHARGES
-----------------------
   0 S :    0.136566
   1 C :   -0.138139
   2 C :   -0.081071
   3 C :    0.016280
   4 C :   -0.162062
   5 H :    0.026030
   6 C :    0.045858
   7 H :    0.013152
   8 H :    0.019565
   9 C :   -0.038772
  10 H :    0.036338
  11 H :    0.031096
  12 C :   -0.037032
  13 H :    0.033521
  14 H :    0.031244
  15 H :    0.023588
  16 S :    0.096626
  17 C :   -0.097478
  18 C :   -0.046045
  19 C :   -0.036640
  20 C :   -0.174954
  21 H :    0.008962
  22 C :    0.063438
  23 H :    0.041178
  24 H :    0.012921
  25 C :   -0.064774
  26 H :    0.029735
  27 H :    0.040299
  28 C :   -0.031669
  29 H :    0.021231
  30 H :    0.026062
  31 H :    0.026864
  32 H :    0.051187
  33 H :    0.076894
Sum of atomic charges:    0.0000000

LOEWDIN ATOMIC CHARGES
----------------------
   0 S :    0.429942
   1 C :   -0.208189
   2 C :   -0.064458
   3 C :   -0.057966
   4 C :   -0.208508
   5 H :    0.038172
   6 C :   -0.028386
   7 H :    0.020826
   8 H :    0.026334
   9 C :   -0.029701
  10 H :    0.027970
  11 H :    0.023702
  12 C :   -0.062201
  13 H :    0.023716
  14 H :    0.026037
  15 H :    0.022802
  16 S :    0.398789
  17 C :   -0.201426
  18 C :   -0.082177
  19 C :   -0.049911
  20 C :   -0.194276
  21 H :    0.024361
  22 C :   -0.032899
  23 H :    0.033562
  24 H :    0.026332
  25 C :   -0.038824
  26 H :    0.028290
  27 H :    0.030453
  28 C :   -0.064167
  29 H :    0.018437
  30 H :    0.028641
  31 H :    0.022578
  32 H :    0.029544
  33 H :    0.042600

  Mayer bond orders larger than 0.100000
B(  0-S ,  1-C ) :   1.1483 B(  0-S ,  4-C ) :   1.1588 B(  1-C ,  2-C ) :   1.6090
B(  1-C , 32-H ) :   0.9673 B(  2-C ,  3-C ) :   1.2450 B(  2-C ,  6-C ) :   1.0178
B(  3-C ,  4-C ) :   1.5711 B(  3-C ,  5-H ) :   0.9901 B(  4-C , 20-C ) :   1.0412
B(  6-C ,  7-H ) :   0.9436 B(  6-C ,  8-H ) :   0.9452 B(  6-C ,  9-C ) :   1.0455
B(  9-C , 10-H ) :   0.9592 B(  9-C , 11-H ) :   0.9623 B(  9-C , 12-C ) :   1.0771
B( 12-C , 13-H ) :   0.9750 B( 12-C , 14-H ) :   0.9758 B( 12-C , 15-H ) :   0.9754
B( 16-S , 17-C ) :   1.1756 B( 16-S , 20-C ) :   1.1260 B( 17-C , 18-C ) :   1.5959
B( 17-C , 33-H ) :   0.9602 B( 18-C , 19-C ) :   1.2326 B( 18-C , 21-H ) :   0.9936
B( 19-C , 20-C ) :   1.5948 B( 19-C , 22-C ) :   1.0473 B( 22-C , 23-H ) :   0.9303
B( 22-C , 24-H ) :   0.9338 B( 22-C , 25-C ) :   1.0678 B( 25-C , 26-H ) :   0.9536
B( 25-C , 27-H ) :   0.9550 B( 25-C , 28-C ) :   1.0867 B( 28-C , 29-H ) :   0.9745
B( 28-C , 30-H ) :   0.9720 B( 28-C , 31-H ) :   0.9740

Dispersion correction           -0.013840974
FINAL SINGLE POINT ENERGY     -1339.884728481179

DIPOLE MOMENT
-------------
                                X             Y             Z
Electronic contribution:      0.20091       4.20409      21.37729
Nuclear contribution   :     -0.34306      -4.27043     -21.88772
                        -----------------------------------------
Total Dipole Moment    :     -0.14215      -0.06634      -0.51043
                        -----------------------------------------
Magnitude (a.u.)       :      0.53400
Magnitude (Debye)      :      1.35731

Rotational constants in cm-1:     0.019057     0.007431     0.006594
Rotational constants in MHz :   571.308273   222.780692   197.696912

                             ****ORCA TERMINATED NORMALLY****
TOTAL RUN TIME: 0 days 0 hours 0 minutes 33 seconds 97 msec
