                         Program Version 4.2.1 -  RELEASE  -
|  1> ! wB97X-D3 SP def2-SVP
|  2> %pal
|  3> nprocs 16
|  4> end
|  5>
|  6> * xyz 0 1
|  7> S 	 -93.6347 	 56.0095 	 128.045
|  8> C 	 -92.367 	 55.9158 	 129.28
|  9> C 	 -91.0763 	 56.145 	 128.703
| 10> C 	 -91.182 	 56.6482 	 127.366
| 11> C 	 -92.4927 	 56.6672 	 126.855
| 12> H 	 -90.3683 	 57.0305 	 126.693
| 13> C 	 -89.6965 	 56.151 	 129.407
| 14> H 	 -88.9108 	 55.7194 	 128.83
| 15> H 	 -89.8248 	 55.4559 	 130.264
| 16> C 	 -89.3532 	 57.5411 	 129.914
| 17> H 	 -89.6697 	 58.3217 	 129.211
| 18> H 	 -89.8901 	 57.8315 	 130.798
| 19> C 	 -87.9519 	 57.786 	 130.195
| 20> H 	 -87.4003 	 56.8029 	 130.267
| 21> H 	 -87.5199 	 58.2248 	 129.303
| 22> H 	 -87.8091 	 58.2997 	 131.134
| 23> S 	 -94.2512 	 58.3354 	 125.583
| 24> C 	 -94.3622 	 58.33 	 123.86
| 25> C 	 -93.3621 	 57.5523 	 123.35
| 26> C 	 -92.3987 	 56.9802 	 124.278
| 27> C 	 -92.8707 	 57.1892 	 125.557
| 28> H 	 -93.288 	 57.321 	 122.249
| 29> C 	 -91.2472 	 56.1376 	 123.772
| 30> H 	 -91.5797 	 55.6204 	 122.83
| 31> H 	 -91.057 	 55.4432 	 124.557
| 32> C 	 -89.9257 	 56.8849 	 123.463
| 33> H 	 -89.4271 	 57.1558 	 124.323
| 34> H 	 -89.986 	 57.7556 	 122.779
| 35> C 	 -88.9577 	 55.8645 	 122.811
| 36> H 	 -89.3121 	 55.7272 	 121.719
| 37> H 	 -88.7437 	 54.9353 	 123.352
| 38> H 	 -87.9873 	 56.3545 	 122.585
| 39> H 	 -92.4439 	 55.6723 	 130.314
| 40> H 	 -95.0841 	 59.0092 	 123.376
| 41> *
| 42>
| 43>                          ****END OF INPUT****

CARTESIAN COORDINATES (ANGSTROEM)
---------------------------------
  S    -93.634700   56.009500  128.045000
  C    -92.367000   55.915800  129.280000
  C    -91.076300   56.145000  128.703000
  C    -91.182000   56.648200  127.366000
  C    -92.492700   56.667200  126.855000
  H    -90.368300   57.030500  126.693000
  C    -89.696500   56.151000  129.407000
  H    -88.910800   55.719400  128.830000
  H    -89.824800   55.455900  130.264000
  C    -89.353200   57.541100  129.914000
  H    -89.669700   58.321700  129.211000
  H    -89.890100   57.831500  130.798000
  C    -87.951900   57.786000  130.195000
  H    -87.400300   56.802900  130.267000
  H    -87.519900   58.224800  129.303000
  H    -87.809100   58.299700  131.134000
  S    -94.251200   58.335400  125.583000
  C    -94.362200   58.330000  123.860000
  C    -93.362100   57.552300  123.350000
  C    -92.398700   56.980200  124.278000
  C    -92.870700   57.189200  125.557000
  H    -93.288000   57.321000  122.249000
  C    -91.247200   56.137600  123.772000
  H    -91.579700   55.620400  122.830000
  H    -91.057000   55.443200  124.557000
  C    -89.925700   56.884900  123.463000
  H    -89.427100   57.155800  124.323000
  H    -89.986000   57.755600  122.779000
  C    -88.957700   55.864500  122.811000
  H    -89.312100   55.727200  121.719000
  H    -88.743700   54.935300  123.352000
  H    -87.987300   56.354500  122.585000
  H    -92.443900   55.672300  130.314000
  H    -95.084100   59.009200  123.376000

 Total Charge           Charge          ....    0
 Multiplicity           Mult            ....    1
 Number of Electrons    NEL             ....  134
 Basis Dimension        Dim             ....  322

ORBITAL ENERGIES
----------------

  NO   OCC          E(Eh)            E(eV)
   0   2.0000     -88.972184     -2421.0562
   1   2.0000     -88.959300     -2420.7056
   2   2.0000     -10.331420      -281.1322
   3   2.0000     -10.329524      -281.0806
   4   2.0000     -10.319811      -280.8163
   5   2.0000     -10.317092      -280.7424
   6   2.0000     -10.308969      -280.5213
   7   2.0000     -10.306565      -280.4559
   8   2.0000     -10.299057      -280.2516
   9   2.0000     -10.298403      -280.2338
  10   2.0000     -10.297077      -280.1977
  11   2.0000     -10.295430      -280.1529
  12   2.0000     -10.289534      -279.9925
  13   2.0000     -10.288556      -279.9658
  14   2.0000     -10.274158      -279.5741
  15   2.0000     -10.272297      -279.5234
  16   2.0000      -8.085390      -220.0147
  17   2.0000      -8.074380      -219.7150
  18   2.0000      -6.044063      -164.4673
  19   2.0000      -6.040063      -164.3585
  20   2.0000      -6.036109      -164.2509
  21   2.0000      -6.032918      -164.1641
  22   2.0000      -6.028826      -164.0527
  23   2.0000      -6.025096      -163.9512
  24   2.0000      -1.001127       -27.2420
  25   2.0000      -0.976253       -26.5652
  26   2.0000      -0.919064       -25.0090
  27   2.0000      -0.911607       -24.8061
  28   2.0000      -0.868956       -23.6455
  29   2.0000      -0.854253       -23.2454
  30   2.0000      -0.845270       -23.0010
  31   2.0000      -0.807371       -21.9697
  32   2.0000      -0.780448       -21.2371
  33   2.0000      -0.770161       -20.9571
  34   2.0000      -0.705318       -19.1927
  35   2.0000      -0.695520       -18.9261
  36   2.0000      -0.695117       -18.9151
  37   2.0000      -0.660591       -17.9756
  38   2.0000      -0.638224       -17.3670
  39   2.0000      -0.613503       -16.6943
  40   2.0000      -0.598046       -16.2737
  41   2.0000      -0.575790       -15.6680
  42   2.0000      -0.571925       -15.5629
  43   2.0000      -0.556813       -15.1516
  44   2.0000      -0.530520       -14.4362
  45   2.0000      -0.525638       -14.3033
  46   2.0000      -0.521909       -14.2019
  47   2.0000      -0.514680       -14.0051
  48   2.0000      -0.501119       -13.6361
  49   2.0000      -0.499273       -13.5859
  50   2.0000      -0.495814       -13.4918
  51   2.0000      -0.476213       -12.9584
  52   2.0000      -0.467577       -12.7234
  53   2.0000      -0.461330       -12.5534
  54   2.0000      -0.456109       -12.4114
  55   2.0000      -0.442471       -12.0403
  56   2.0000      -0.441820       -12.0225
  57   2.0000      -0.439736       -11.9658
  58   2.0000      -0.433422       -11.7940
  59   2.0000      -0.425437       -11.5767
  60   2.0000      -0.424608       -11.5542
  61   2.0000      -0.416976       -11.3465
  62   2.0000      -0.403574       -10.9818
  63   2.0000      -0.345838        -9.4107
  64   2.0000      -0.333057        -9.0630
  65   2.0000      -0.324663        -8.8345
  66   2.0000      -0.288362        -7.8467
  67   0.0000       0.024647         0.6707
  68   0.0000       0.071808         1.9540
  69   0.0000       0.108607         2.9554
  70   0.0000       0.119144         3.2421
  71   0.0000       0.122454         3.3322

MULLIKEN ATOMIC CHARGES
-----------------------
   0 S :    0.131834
   1 C :   -0.110242
   2 C :   -0.100914
   3 C :    0.005379
   4 C :   -0.153528
   5 H :    0.027788
   6 C :    0.074587
   7 H :    0.025138
   8 H :    0.024542
   9 C :   -0.067698
  10 H :    0.027621
  11 H :    0.014433
  12 C :   -0.040849
  13 H :    0.021359
  14 H :    0.033307
  15 H :    0.039646
  16 S :    0.088623
  17 C :   -0.096039
  18 C :   -0.056127
  19 C :    0.002663
  20 C :   -0.185368
  21 H :    0.032612
  22 C :    0.053643
  23 H :    0.035962
  24 H :    0.022707
  25 C :   -0.035607
  26 H :    0.013908
  27 H :    0.040035
  28 C :   -0.101325
  29 H :    0.035813
  30 H :    0.049827
  31 H :    0.030706
  32 H :    0.039950
  33 H :    0.075616
Sum of atomic charges:    0.0000000

LOEWDIN ATOMIC CHARGES
----------------------
   0 S :    0.399754
   1 C :   -0.196243
   2 C :   -0.054222
   3 C :   -0.070832
   4 C :   -0.195245
   5 H :    0.037802
   6 C :   -0.027867
   7 H :    0.025707
   8 H :    0.034008
   9 C :   -0.053719
  10 H :    0.026945
  11 H :    0.023616
  12 C :   -0.067136
  13 H :    0.027763
  14 H :    0.027204
  15 H :    0.028413
  16 S :    0.387899
  17 C :   -0.196241
  18 C :   -0.079952
  19 C :   -0.053129
  20 C :   -0.182360
  21 H :    0.034954
  22 C :   -0.026594
  23 H :    0.039019
  24 H :    0.029657
  25 C :   -0.031271
  26 H :    0.009953
  27 H :    0.031504
  28 C :   -0.075912
  29 H :    0.031680
  30 H :    0.026696
  31 H :    0.026099
  32 H :    0.024354
  33 H :    0.037694

  Mayer bond orders larger than 0.100000
B(  0-S ,  1-C ) :   1.1360 B(  0-S ,  4-C ) :   1.1448 B(  1-C ,  2-C ) :   1.5927
B(  1-C ,  4-C ) :   0.1027 B(  1-C , 32-H ) :   0.9698 B(  2-C ,  3-C ) :   1.2452
B(  2-C ,  6-C ) :   1.0325 B(  3-C ,  4-C ) :   1.5627 B(  3-C ,  5-H ) :   0.9813
B(  4-C , 20-C ) :   1.0660 B(  6-C ,  7-H ) :   0.9488 B(  6-C ,  8-H ) :   0.9307
B(  6-C ,  9-C ) :   1.0595 B(  9-C , 10-H ) :   0.9656 B(  9-C , 11-H ) :   0.9524
B(  9-C , 12-C ) :   1.0765 B( 12-C , 13-H ) :   0.9735 B( 12-C , 14-H ) :   0.9773
B( 12-C , 15-H ) :   0.9749 B( 16-S , 17-C ) :   1.1400 B( 16-S , 20-C ) :   1.1365
B( 17-C , 18-C ) :   1.6136 B( 17-C , 33-H ) :   0.9685 B( 18-C , 19-C ) :   1.2232
B( 18-C , 21-H ) :   0.9770 B( 19-C , 20-C ) :   1.5975 B( 19-C , 22-C ) :   1.0439
B( 22-C , 23-H ) :   0.9432 B( 22-C , 24-H ) :   0.9251 B( 22-C , 25-C ) :   1.0680
B( 25-C , 26-H ) :   0.9509 B( 25-C , 27-H ) :   0.9550 B( 25-C , 28-C ) :   1.0853
B( 28-C , 29-H ) :   0.9746 B( 28-C , 30-H ) :   0.9739 B( 28-C , 31-H ) :   0.9731

Dispersion correction           -0.013630924
FINAL SINGLE POINT ENERGY     -1339.858728164915

DIPOLE MOMENT
-------------
                                X             Y             Z
Electronic contribution:    -30.19745       1.86726       1.54122
Nuclear contribution   :     30.87555      -1.86068      -1.70728
                        -----------------------------------------
Total Dipole Moment    :      0.67810       0.00659      -0.16606
                        -----------------------------------------
Magnitude (a.u.)       :      0.69817
Magnitude (Debye)      :      1.77460

Rotational constants in cm-1:     0.015907     0.008944     0.006565
Rotational constants in MHz :   476.892944   268.140075   196.814613

                             ****ORCA TERMINATED NORMALLY****
TOTAL RUN TIME: 0 days 0 hours 0 minutes 33 seconds 531 msec
