                         Program Version 4.2.1 -  RELEASE  -
|  1> ! wB97X-D3 SP def2-SVP
|  2> %pal
|  3> nprocs 16
|  4> end
|  5>
|  6> * xyz 0 1
|  7> S 	 -33.5758 	 62.7302 	 113.073
|  8> C 	 -35.2217 	 63.1949 	 113.415
|  9> C 	 -35.7436 	 62.2743 	 114.304
| 10> C 	 -34.7924 	 61.3115 	 114.852
| 11> C 	 -33.5398 	 61.4739 	 114.226
| 12> H 	 -34.9844 	 60.6145 	 115.625
| 13> C 	 -37.1821 	 62.0233 	 114.669
| 14> H 	 -37.3916 	 61.0241 	 114.504
| 15> H 	 -37.7255 	 62.5732 	 113.875
| 16> C 	 -37.5544 	 62.3374 	 116.202
| 17> H 	 -36.97 	 61.6901 	 116.862
| 18> H 	 -37.2153 	 63.3703 	 116.593
| 19> C 	 -39.0654 	 62.3071 	 116.43
| 20> H 	 -39.5605 	 61.3451 	 116.27
| 21> H 	 -39.2239 	 62.4748 	 117.52
| 22> H 	 -39.6134 	 63.0062 	 115.785
| 23> S 	 -31.6504 	 59.9594 	 112.903
| 24> C 	 -30.6088 	 58.9651 	 113.815
| 25> C 	 -30.8565 	 59.0421 	 115.165
| 26> C 	 -31.8807 	 59.9633 	 115.451
| 27> C 	 -32.4446 	 60.5775 	 114.379
| 28> H 	 -30.3189 	 58.4176 	 115.866
| 29> C 	 -32.4267 	 60.09 	 116.834
| 30> H 	 -33.159 	 60.9429 	 116.922
| 31> H 	 -31.5608 	 60.438 	 117.389
| 32> C 	 -33.0666 	 58.8388 	 117.466
| 33> H 	 -32.197 	 58.1688 	 117.556
| 34> H 	 -33.6679 	 58.3925 	 116.67
| 35> C 	 -33.6244 	 59.0585 	 118.906
| 36> H 	 -34.2658 	 59.9025 	 118.829
| 37> H 	 -32.8918 	 59.4814 	 119.571
| 38> H 	 -34.0983 	 58.2094 	 119.366
| 39> H 	 -35.6714 	 63.9746 	 112.863
| 40> H 	 -29.8233 	 58.3985 	 113.386
| 41> *
| 42>
| 43>                          ****END OF INPUT****

CARTESIAN COORDINATES (ANGSTROEM)
---------------------------------
  S    -33.575800   62.730200  113.073000
  C    -35.221700   63.194900  113.415000
  C    -35.743600   62.274300  114.304000
  C    -34.792400   61.311500  114.852000
  C    -33.539800   61.473900  114.226000
  H    -34.984400   60.614500  115.625000
  C    -37.182100   62.023300  114.669000
  H    -37.391600   61.024100  114.504000
  H    -37.725500   62.573200  113.875000
  C    -37.554400   62.337400  116.202000
  H    -36.970000   61.690100  116.862000
  H    -37.215300   63.370300  116.593000
  C    -39.065400   62.307100  116.430000
  H    -39.560500   61.345100  116.270000
  H    -39.223900   62.474800  117.520000
  H    -39.613400   63.006200  115.785000
  S    -31.650400   59.959400  112.903000
  C    -30.608800   58.965100  113.815000
  C    -30.856500   59.042100  115.165000
  C    -31.880700   59.963300  115.451000
  C    -32.444600   60.577500  114.379000
  H    -30.318900   58.417600  115.866000
  C    -32.426700   60.090000  116.834000
  H    -33.159000   60.942900  116.922000
  H    -31.560800   60.438000  117.389000
  C    -33.066600   58.838800  117.466000
  H    -32.197000   58.168800  117.556000
  H    -33.667900   58.392500  116.670000
  C    -33.624400   59.058500  118.906000
  H    -34.265800   59.902500  118.829000
  H    -32.891800   59.481400  119.571000
  H    -34.098300   58.209400  119.366000
  H    -35.671400   63.974600  112.863000
  H    -29.823300   58.398500  113.386000

 Total Charge           Charge          ....    0
 Multiplicity           Mult            ....    1
 Number of Electrons    NEL             ....  134
 Basis Dimension        Dim             ....  322

ORBITAL ENERGIES
----------------

  NO   OCC          E(Eh)            E(eV)
   0   2.0000     -88.964479     -2420.8465
   1   2.0000     -88.961820     -2420.7742
   2   2.0000     -10.327940      -281.0375
   3   2.0000     -10.321679      -280.8672
   4   2.0000     -10.313085      -280.6333
   5   2.0000     -10.312375      -280.6140
   6   2.0000     -10.303185      -280.3639
   7   2.0000     -10.300751      -280.2977
   8   2.0000     -10.295875      -280.1650
   9   2.0000     -10.293673      -280.1051
  10   2.0000     -10.291767      -280.0532
  11   2.0000     -10.290518      -280.0192
  12   2.0000     -10.290258      -280.0122
  13   2.0000     -10.288367      -279.9607
  14   2.0000     -10.282570      -279.8030
  15   2.0000     -10.280085      -279.7353
  16   2.0000      -8.080167      -219.8725
  17   2.0000      -8.077265      -219.7936
  18   2.0000      -6.038664      -164.3204
  19   2.0000      -6.035703      -164.2398
  20   2.0000      -6.034358      -164.2032
  21   2.0000      -6.031613      -164.1285
  22   2.0000      -6.031082      -164.1141
  23   2.0000      -6.028121      -164.0335
  24   2.0000      -1.013163       -27.5696
  25   2.0000      -0.988888       -26.9090
  26   2.0000      -0.910883       -24.7864
  27   2.0000      -0.906273       -24.6609
  28   2.0000      -0.874388       -23.7933
  29   2.0000      -0.855010       -23.2660
  30   2.0000      -0.846972       -23.0473
  31   2.0000      -0.813567       -22.1383
  32   2.0000      -0.783801       -21.3283
  33   2.0000      -0.773297       -21.0425
  34   2.0000      -0.712109       -19.3775
  35   2.0000      -0.703042       -19.1308
  36   2.0000      -0.700600       -19.0643
  37   2.0000      -0.666103       -18.1256
  38   2.0000      -0.647764       -17.6265
  39   2.0000      -0.617979       -16.8161
  40   2.0000      -0.598065       -16.2742
  41   2.0000      -0.569119       -15.4865
  42   2.0000      -0.563155       -15.3242
  43   2.0000      -0.551348       -15.0029
  44   2.0000      -0.531436       -14.4611
  45   2.0000      -0.529053       -14.3963
  46   2.0000      -0.521877       -14.2010
  47   2.0000      -0.519434       -14.1345
  48   2.0000      -0.512954       -13.9582
  49   2.0000      -0.502731       -13.6800
  50   2.0000      -0.493957       -13.4413
  51   2.0000      -0.481539       -13.1033
  52   2.0000      -0.472492       -12.8572
  53   2.0000      -0.470183       -12.7943
  54   2.0000      -0.459995       -12.5171
  55   2.0000      -0.456435       -12.4202
  56   2.0000      -0.442110       -12.0304
  57   2.0000      -0.441511       -12.0141
  58   2.0000      -0.436640       -11.8816
  59   2.0000      -0.418471       -11.3872
  60   2.0000      -0.415733       -11.3127
  61   2.0000      -0.412457       -11.2235
  62   2.0000      -0.407435       -11.0869
  63   2.0000      -0.353038        -9.6066
  64   2.0000      -0.331567        -9.0224
  65   2.0000      -0.324016        -8.8169
  66   2.0000      -0.289073        -7.8661
  67   0.0000       0.029067         0.7910
  68   0.0000       0.077321         2.1040
  69   0.0000       0.112786         3.0691
  70   0.0000       0.120563         3.2807
  71   0.0000       0.125926         3.4266

MULLIKEN ATOMIC CHARGES
-----------------------
   0 S :    0.104401
   1 C :   -0.118253
   2 C :   -0.072818
   3 C :    0.018323
   4 C :   -0.133158
   5 H :    0.004396
   6 C :    0.084168
   7 H :    0.019045
   8 H :    0.018684
   9 C :   -0.101181
  10 H :    0.028406
  11 H :    0.040572
  12 C :   -0.048440
  13 H :    0.024698
  14 H :    0.037371
  15 H :    0.040649
  16 S :    0.098976
  17 C :   -0.072309
  18 C :   -0.040013
  19 C :   -0.025307
  20 C :   -0.131732
  21 H :    0.018862
  22 C :    0.004603
  23 H :    0.023486
  24 H :    0.023501
  25 C :   -0.080171
  26 H :    0.022289
  27 H :    0.038814
  28 C :    0.009423
  29 H :    0.007704
  30 H :    0.020524
  31 H :    0.048291
  32 H :    0.040311
  33 H :    0.045886
Sum of atomic charges:   -0.0000000

LOEWDIN ATOMIC CHARGES
----------------------
   0 S :    0.427735
   1 C :   -0.200741
   2 C :   -0.055822
   3 C :   -0.057575
   4 C :   -0.203079
   5 H :    0.023385
   6 C :   -0.028445
   7 H :    0.023130
   8 H :    0.031814
   9 C :   -0.042077
  10 H :    0.020941
  11 H :    0.033808
  12 C :   -0.073616
  13 H :    0.021735
  14 H :    0.031876
  15 H :    0.028202
  16 S :    0.403770
  17 C :   -0.182742
  18 C :   -0.073598
  19 C :   -0.061651
  20 C :   -0.186532
  21 H :    0.032740
  22 C :   -0.039876
  23 H :    0.026975
  24 H :    0.029487
  25 C :   -0.042482
  26 H :    0.022526
  27 H :    0.025706
  28 C :   -0.059435
  29 H :    0.019939
  30 H :    0.029216
  31 H :    0.028927
  32 H :    0.022490
  33 H :    0.023268

  Mayer bond orders larger than 0.100000
B(  0-S ,  1-C ) :   1.1242 B(  0-S ,  4-C ) :   1.1783 B(  1-C ,  2-C ) :   1.5878
B(  1-C , 32-H ) :   0.9855 B(  2-C ,  3-C ) :   1.2377 B(  2-C ,  6-C ) :   1.0288
B(  3-C ,  4-C ) :   1.5147 B(  3-C ,  5-H ) :   1.0011 B(  4-C , 20-C ) :   1.0679
B(  6-C ,  7-H ) :   0.9407 B(  6-C ,  8-H ) :   0.9482 B(  6-C ,  9-C ) :   1.0340
B(  9-C , 10-H ) :   0.9563 B(  9-C , 11-H ) :   0.9605 B(  9-C , 12-C ) :   1.0820
B( 12-C , 13-H ) :   0.9739 B( 12-C , 14-H ) :   0.9732 B( 12-C , 15-H ) :   0.9759
B( 16-S , 17-C ) :   1.1752 B( 16-S , 20-C ) :   1.1160 B( 17-C , 18-C ) :   1.5882
B( 17-C , 33-H ) :   0.9702 B( 18-C , 19-C ) :   1.2357 B( 18-C , 21-H ) :   0.9979
B( 19-C , 20-C ) :   1.6116 B( 19-C , 22-C ) :   1.0537 B( 22-C , 23-H ) :   0.9366
B( 22-C , 24-H ) :   0.9221 B( 22-C , 25-C ) :   1.0506 B( 25-C , 26-H ) :   0.9504
B( 25-C , 27-H ) :   0.9602 B( 25-C , 28-C ) :   1.0672 B( 28-C , 29-H ) :   0.9737
B( 28-C , 30-H ) :   0.9686 B( 28-C , 31-H ) :   0.9760

Dispersion correction           -0.014102043
FINAL SINGLE POINT ENERGY     -1339.871015939977

DIPOLE MOMENT
-------------
                                X             Y             Z
Electronic contribution:     20.06538       4.01543     -25.48448
Nuclear contribution   :    -20.39879      -4.30673      26.00563
                        -----------------------------------------
Total Dipole Moment    :     -0.33341      -0.29130       0.52115
                        -----------------------------------------
Magnitude (a.u.)       :      0.68382
Magnitude (Debye)      :      1.73814

Rotational constants in cm-1:     0.017049     0.009426     0.006435
Rotational constants in MHz :   511.108369   282.581696   192.906734

                             ****ORCA TERMINATED NORMALLY****
TOTAL RUN TIME: 0 days 0 hours 0 minutes 28 seconds 514 msec
