                         Program Version 4.2.1 -  RELEASE  -
|  1> ! wB97X-D3 SP def2-SVP
|  2> %pal
|  3> nprocs 16
|  4> end
|  5>
|  6> * xyz 0 1
|  7> S 	 12.7458 	 -7.92804 	 64.5941
|  8> C 	 11.0618 	 -7.44303 	 64.845
|  9> C 	 10.4847 	 -8.13741 	 65.8878
| 10> C 	 11.3608 	 -9.13438 	 66.3795
| 11> C 	 12.6094 	 -9.23811 	 65.75
| 12> H 	 11.1836 	 -9.83739 	 67.2503
| 13> C 	 9.03398 	 -7.9087 	 66.297
| 14> H 	 8.80652 	 -8.82107 	 66.925
| 15> H 	 8.3831 	 -7.91539 	 65.4429
| 16> C 	 8.83764 	 -6.6457 	 67.1965
| 17> H 	 9.6666 	 -6.34898 	 67.8071
| 18> H 	 8.95652 	 -5.84648 	 66.5076
| 19> C 	 7.40044 	 -6.67084 	 67.7926
| 20> H 	 7.15975 	 -5.57319 	 67.9404
| 21> H 	 6.61862 	 -7.18743 	 67.2534
| 22> H 	 7.50107 	 -7.19499 	 68.7045
| 23> S 	 15.3546 	 -9.51315 	 65.7574
| 24> C 	 16.024 	 -10.856 	 66.6561
| 25> C 	 15.119 	 -11.9105 	 66.6775
| 26> C 	 13.8086 	 -11.481 	 66.3877
| 27> C 	 13.743 	 -10.1234 	 66.0378
| 28> H 	 15.5052 	 -12.8909 	 66.9514
| 29> C 	 12.6453 	 -12.4825 	 66.4091
| 30> H 	 11.6104 	 -12.0247 	 66.4836
| 31> H 	 12.7048 	 -13.181 	 67.2482
| 32> C 	 12.4609 	 -13.3568 	 65.0999
| 33> H 	 13.3211 	 -13.9876 	 64.9354
| 34> H 	 12.5514 	 -12.6555 	 64.2366
| 35> C 	 11.129 	 -14.1717 	 65.0788
| 36> H 	 11.2415 	 -15.0249 	 65.691
| 37> H 	 10.8518 	 -14.4388 	 64.0557
| 38> H 	 10.3191 	 -13.6247 	 65.5767
| 39> H 	 10.587 	 -6.64454 	 64.2856
| 40> H 	 17.0896 	 -11.0267 	 66.8401
| 41> *
| 42>
| 43>                          ****END OF INPUT****

CARTESIAN COORDINATES (ANGSTROEM)
---------------------------------
  S     12.745800   -7.928040   64.594100
  C     11.061800   -7.443030   64.845000
  C     10.484700   -8.137410   65.887800
  C     11.360800   -9.134380   66.379500
  C     12.609400   -9.238110   65.750000
  H     11.183600   -9.837390   67.250300
  C      9.033980   -7.908700   66.297000
  H      8.806520   -8.821070   66.925000
  H      8.383100   -7.915390   65.442900
  C      8.837640   -6.645700   67.196500
  H      9.666600   -6.348980   67.807100
  H      8.956520   -5.846480   66.507600
  C      7.400440   -6.670840   67.792600
  H      7.159750   -5.573190   67.940400
  H      6.618620   -7.187430   67.253400
  H      7.501070   -7.194990   68.704500
  S     15.354600   -9.513150   65.757400
  C     16.024000  -10.856000   66.656100
  C     15.119000  -11.910500   66.677500
  C     13.808600  -11.481000   66.387700
  C     13.743000  -10.123400   66.037800
  H     15.505200  -12.890900   66.951400
  C     12.645300  -12.482500   66.409100
  H     11.610400  -12.024700   66.483600
  H     12.704800  -13.181000   67.248200
  C     12.460900  -13.356800   65.099900
  H     13.321100  -13.987600   64.935400
  H     12.551400  -12.655500   64.236600
  C     11.129000  -14.171700   65.078800
  H     11.241500  -15.024900   65.691000
  H     10.851800  -14.438800   64.055700
  H     10.319100  -13.624700   65.576700
  H     10.587000   -6.644540   64.285600
  H     17.089600  -11.026700   66.840100

 Total Charge           Charge          ....    0
 Multiplicity           Mult            ....    1
 Number of Electrons    NEL             ....  134
 Basis Dimension        Dim             ....  322

ORBITAL ENERGIES
----------------

  NO   OCC          E(Eh)            E(eV)
   0   2.0000     -88.967270     -2420.9225
   1   2.0000     -88.964386     -2420.8440
   2   2.0000     -10.333352      -281.1848
   3   2.0000     -10.332448      -281.1602
   4   2.0000     -10.318568      -280.7825
   5   2.0000     -10.313391      -280.6416
   6   2.0000     -10.308924      -280.5201
   7   2.0000     -10.300400      -280.2881
   8   2.0000     -10.298873      -280.2466
   9   2.0000     -10.298488      -280.2361
  10   2.0000     -10.296803      -280.1903
  11   2.0000     -10.296487      -280.1817
  12   2.0000     -10.288371      -279.9608
  13   2.0000     -10.284258      -279.8489
  14   2.0000     -10.281603      -279.7766
  15   2.0000     -10.278283      -279.6863
  16   2.0000      -8.082279      -219.9300
  17   2.0000      -8.078880      -219.8375
  18   2.0000      -6.040786      -164.3781
  19   2.0000      -6.037435      -164.2869
  20   2.0000      -6.037064      -164.2769
  21   2.0000      -6.033412      -164.1775
  22   2.0000      -6.032710      -164.1584
  23   2.0000      -6.029640      -164.0749
  24   2.0000      -1.007508       -27.4157
  25   2.0000      -0.984478       -26.7890
  26   2.0000      -0.908753       -24.7284
  27   2.0000      -0.898141       -24.4397
  28   2.0000      -0.868695       -23.6384
  29   2.0000      -0.849510       -23.1163
  30   2.0000      -0.842410       -22.9232
  31   2.0000      -0.812163       -22.1001
  32   2.0000      -0.779168       -21.2022
  33   2.0000      -0.768768       -20.9192
  34   2.0000      -0.712025       -19.3752
  35   2.0000      -0.704064       -19.1586
  36   2.0000      -0.693401       -18.8684
  37   2.0000      -0.661236       -17.9932
  38   2.0000      -0.637807       -17.3556
  39   2.0000      -0.615981       -16.7617
  40   2.0000      -0.596123       -16.2213
  41   2.0000      -0.566008       -15.4019
  42   2.0000      -0.556871       -15.1532
  43   2.0000      -0.552263       -15.0278
  44   2.0000      -0.525479       -14.2990
  45   2.0000      -0.519745       -14.1430
  46   2.0000      -0.517620       -14.0852
  47   2.0000      -0.507587       -13.8121
  48   2.0000      -0.501868       -13.6565
  49   2.0000      -0.499803       -13.6003
  50   2.0000      -0.489723       -13.3260
  51   2.0000      -0.484807       -13.1923
  52   2.0000      -0.476531       -12.9671
  53   2.0000      -0.466630       -12.6977
  54   2.0000      -0.461355       -12.5541
  55   2.0000      -0.451259       -12.2794
  56   2.0000      -0.449258       -12.2249
  57   2.0000      -0.436562       -11.8795
  58   2.0000      -0.432141       -11.7592
  59   2.0000      -0.422081       -11.4854
  60   2.0000      -0.414226       -11.2717
  61   2.0000      -0.411836       -11.2066
  62   2.0000      -0.406368       -11.0578
  63   2.0000      -0.354883        -9.6569
  64   2.0000      -0.334247        -9.0953
  65   2.0000      -0.326158        -8.8752
  66   2.0000      -0.280165        -7.6237
  67   0.0000       0.017247         0.4693
  68   0.0000       0.068024         1.8510
  69   0.0000       0.095702         2.6042
  70   0.0000       0.120645         3.2829
  71   0.0000       0.138041         3.7563

MULLIKEN ATOMIC CHARGES
-----------------------
   0 S :    0.089104
   1 C :   -0.125362
   2 C :   -0.077086
   3 C :   -0.006237
   4 C :   -0.134934
   5 H :    0.035554
   6 C :    0.040377
   7 H :    0.025147
   8 H :    0.039866
   9 C :   -0.061582
  10 H :    0.031251
  11 H :    0.001902
  12 C :   -0.037707
  13 H :    0.046339
  14 H :    0.037826
  15 H :    0.033672
  16 S :    0.103279
  17 C :   -0.095780
  18 C :   -0.044388
  19 C :   -0.010853
  20 C :   -0.137772
  21 H :    0.026087
  22 C :    0.024126
  23 H :    0.024910
  24 H :    0.026473
  25 C :   -0.092567
  26 H :    0.020096
  27 H :    0.035661
  28 C :   -0.025123
  29 H :    0.022546
  30 H :    0.045882
  31 H :    0.026170
  32 H :    0.050498
  33 H :    0.062626
Sum of atomic charges:   -0.0000000

LOEWDIN ATOMIC CHARGES
----------------------
   0 S :    0.388594
   1 C :   -0.190038
   2 C :   -0.068292
   3 C :   -0.077460
   4 C :   -0.188205
   5 H :    0.039357
   6 C :   -0.025920
   7 H :    0.030857
   8 H :    0.029894
   9 C :   -0.041938
  10 H :    0.028377
  11 H :    0.014829
  12 C :   -0.061870
  13 H :    0.037064
  14 H :    0.026301
  15 H :    0.022391
  16 S :    0.406083
  17 C :   -0.186082
  18 C :   -0.066059
  19 C :   -0.058892
  20 C :   -0.192911
  21 H :    0.035368
  22 C :   -0.037288
  23 H :    0.032805
  24 H :    0.025463
  25 C :   -0.040964
  26 H :    0.015986
  27 H :    0.027085
  28 C :   -0.061282
  29 H :    0.020018
  30 H :    0.031753
  31 H :    0.025993
  32 H :    0.027529
  33 H :    0.031453

  Mayer bond orders larger than 0.100000
B(  0-S ,  1-C ) :   1.1361 B(  0-S ,  4-C ) :   1.1473 B(  1-C ,  2-C ) :   1.5937
B(  1-C ,  4-C ) :   0.1046 B(  1-C , 32-H ) :   0.9718 B(  2-C ,  3-C ) :   1.2681
B(  2-C ,  6-C ) :   1.0030 B(  3-C ,  4-C ) :   1.5647 B(  3-C ,  5-H ) :   0.9765
B(  4-C , 20-C ) :   1.0750 B(  6-C ,  7-H ) :   0.9523 B(  6-C ,  8-H ) :   0.9468
B(  6-C ,  9-C ) :   1.0436 B(  9-C , 10-H ) :   0.9599 B(  9-C , 11-H ) :   0.9567
B(  9-C , 12-C ) :   1.0554 B( 12-C , 13-H ) :   0.9764 B( 12-C , 14-H ) :   0.9757
B( 12-C , 15-H ) :   0.9800 B( 16-S , 17-C ) :   1.1561 B( 16-S , 20-C ) :   1.1433
B( 17-C , 18-C ) :   1.5970 B( 17-C , 20-C ) :   0.1086 B( 17-C , 33-H ) :   0.9659
B( 18-C , 19-C ) :   1.2490 B( 18-C , 21-H ) :   0.9927 B( 19-C , 20-C ) :   1.5545
B( 19-C , 22-C ) :   1.0471 B( 22-C , 23-H ) :   0.9400 B( 22-C , 24-H ) :   0.9416
B( 22-C , 25-C ) :   1.0475 B( 25-C , 26-H ) :   0.9575 B( 25-C , 27-H ) :   0.9609
B( 25-C , 28-C ) :   1.0692 B( 28-C , 29-H ) :   0.9753 B( 28-C , 30-H ) :   0.9759
B( 28-C , 31-H ) :   0.9758

Dispersion correction           -0.013388409
FINAL SINGLE POINT ENERGY     -1339.858780035409

DIPOLE MOMENT
-------------
                                X             Y             Z
Electronic contribution:     25.78768       9.25593      -6.73284
Nuclear contribution   :    -26.21113      -9.61930       6.92591
                        -----------------------------------------
Total Dipole Moment    :     -0.42346      -0.36336       0.19307
                        -----------------------------------------
Magnitude (a.u.)       :      0.59044
Magnitude (Debye)      :      1.50079

Rotational constants in cm-1:     0.018205     0.007745     0.006192
Rotational constants in MHz :   545.782144   232.201932   185.640530

                             ****ORCA TERMINATED NORMALLY****
TOTAL RUN TIME: 0 days 0 hours 0 minutes 33 seconds 247 msec
