                         Program Version 4.2.1 -  RELEASE  -
|  1> ! wB97X-D3 SP def2-SVP
|  2> %pal
|  3> nprocs 16
|  4> end
|  5>
|  6> * xyz 0 1
|  7> S 	 -56.5244 	 38.4666 	 117.527
|  8> C 	 -56.2321 	 36.816 	 118.107
|  9> C 	 -56.6795 	 35.8917 	 117.263
| 10> C 	 -57.3637 	 36.4349 	 116.115
| 11> C 	 -57.0771 	 37.7585 	 115.942
| 12> H 	 -57.7622 	 35.8292 	 115.328
| 13> C 	 -56.4247 	 34.3458 	 117.362
| 14> H 	 -57.1162 	 33.9538 	 116.718
| 15> H 	 -56.6882 	 33.9323 	 118.296
| 16> C 	 -55.0717 	 33.8447 	 116.962
| 17> H 	 -55.1777 	 32.8019 	 116.689
| 18> H 	 -54.7226 	 34.4079 	 116.098
| 19> C 	 -53.9798 	 34.0214 	 117.94
| 20> H 	 -54.2789 	 33.4173 	 118.839
| 21> H 	 -53.0958 	 33.5692 	 117.504
| 22> H 	 -53.8077 	 35.0824 	 118.205
| 23> S 	 -58.6012 	 39.9144 	 115.094
| 24> C 	 -58.729 	 40.2195 	 113.399
| 25> C 	 -57.9282 	 39.37 	 112.685
| 26> C 	 -57.1976 	 38.4191 	 113.452
| 27> C 	 -57.5441 	 38.5539 	 114.791
| 28> H 	 -57.8724 	 39.3275 	 111.606
| 29> C 	 -56.3428 	 37.3215 	 112.829
| 30> H 	 -55.8606 	 36.6182 	 113.565
| 31> H 	 -55.4193 	 37.7729 	 112.46
| 32> C 	 -57.0402 	 36.4021 	 111.709
| 33> H 	 -56.3331 	 35.6086 	 111.567
| 34> H 	 -56.9976 	 36.9602 	 110.757
| 35> C 	 -58.4349 	 35.9606 	 112.044
| 36> H 	 -59.0403 	 36.7635 	 112.426
| 37> H 	 -58.3872 	 35.198 	 112.869
| 38> H 	 -58.9579 	 35.4628 	 111.164
| 39> H 	 -55.4799 	 36.5629 	 118.914
| 40> H 	 -59.3709 	 40.9741 	 112.988
| 41> *
| 42>
| 43>                          ****END OF INPUT****

CARTESIAN COORDINATES (ANGSTROEM)
---------------------------------
  S    -56.524400   38.466600  117.527000
  C    -56.232100   36.816000  118.107000
  C    -56.679500   35.891700  117.263000
  C    -57.363700   36.434900  116.115000
  C    -57.077100   37.758500  115.942000
  H    -57.762200   35.829200  115.328000
  C    -56.424700   34.345800  117.362000
  H    -57.116200   33.953800  116.718000
  H    -56.688200   33.932300  118.296000
  C    -55.071700   33.844700  116.962000
  H    -55.177700   32.801900  116.689000
  H    -54.722600   34.407900  116.098000
  C    -53.979800   34.021400  117.940000
  H    -54.278900   33.417300  118.839000
  H    -53.095800   33.569200  117.504000
  H    -53.807700   35.082400  118.205000
  S    -58.601200   39.914400  115.094000
  C    -58.729000   40.219500  113.399000
  C    -57.928200   39.370000  112.685000
  C    -57.197600   38.419100  113.452000
  C    -57.544100   38.553900  114.791000
  H    -57.872400   39.327500  111.606000
  C    -56.342800   37.321500  112.829000
  H    -55.860600   36.618200  113.565000
  H    -55.419300   37.772900  112.460000
  C    -57.040200   36.402100  111.709000
  H    -56.333100   35.608600  111.567000
  H    -56.997600   36.960200  110.757000
  C    -58.434900   35.960600  112.044000
  H    -59.040300   36.763500  112.426000
  H    -58.387200   35.198000  112.869000
  H    -58.957900   35.462800  111.164000
  H    -55.479900   36.562900  118.914000
  H    -59.370900   40.974100  112.988000

 Total Charge           Charge          ....    0
 Multiplicity           Mult            ....    1
 Number of Electrons    NEL             ....  134
 Basis Dimension        Dim             ....  322

ORBITAL ENERGIES
----------------

  NO   OCC          E(Eh)            E(eV)
   0   2.0000     -88.966548     -2420.9029
   1   2.0000     -88.962588     -2420.7951
   2   2.0000     -10.333460      -281.1878
   3   2.0000     -10.326792      -281.0063
   4   2.0000     -10.315795      -280.7071
   5   2.0000     -10.311759      -280.5972
   6   2.0000     -10.304497      -280.3996
   7   2.0000     -10.300617      -280.2940
   8   2.0000     -10.297689      -280.2144
   9   2.0000     -10.292737      -280.0796
  10   2.0000     -10.292668      -280.0777
  11   2.0000     -10.292544      -280.0744
  12   2.0000     -10.284649      -279.8595
  13   2.0000     -10.281176      -279.7650
  14   2.0000     -10.278637      -279.6959
  15   2.0000     -10.278445      -279.6907
  16   2.0000      -8.081879      -219.9191
  17   2.0000      -8.076258      -219.7662
  18   2.0000      -6.040267      -164.3640
  19   2.0000      -6.036351      -164.2575
  20   2.0000      -6.035092      -164.2232
  21   2.0000      -6.032673      -164.1574
  22   2.0000      -6.031221      -164.1179
  23   2.0000      -6.026422      -163.9873
  24   2.0000      -1.006458       -27.3871
  25   2.0000      -0.984474       -26.7889
  26   2.0000      -0.919378       -25.0175
  27   2.0000      -0.905104       -24.6291
  28   2.0000      -0.870058       -23.6755
  29   2.0000      -0.852475       -23.1970
  30   2.0000      -0.845138       -22.9974
  31   2.0000      -0.814084       -22.1524
  32   2.0000      -0.788238       -21.4490
  33   2.0000      -0.778431       -21.1822
  34   2.0000      -0.706128       -19.2147
  35   2.0000      -0.695300       -18.9201
  36   2.0000      -0.689912       -18.7735
  37   2.0000      -0.660278       -17.9671
  38   2.0000      -0.634340       -17.2613
  39   2.0000      -0.620041       -16.8722
  40   2.0000      -0.602080       -16.3834
  41   2.0000      -0.578265       -15.7354
  42   2.0000      -0.551958       -15.0195
  43   2.0000      -0.548101       -14.9146
  44   2.0000      -0.545308       -14.8386
  45   2.0000      -0.540934       -14.7196
  46   2.0000      -0.518682       -14.1140
  47   2.0000      -0.512184       -13.9372
  48   2.0000      -0.499329       -13.5874
  49   2.0000      -0.495306       -13.4780
  50   2.0000      -0.489911       -13.3311
  51   2.0000      -0.483315       -13.1517
  52   2.0000      -0.471479       -12.8296
  53   2.0000      -0.465140       -12.6571
  54   2.0000      -0.462862       -12.5951
  55   2.0000      -0.453411       -12.3379
  56   2.0000      -0.445052       -12.1105
  57   2.0000      -0.438689       -11.9373
  58   2.0000      -0.433366       -11.7925
  59   2.0000      -0.423855       -11.5337
  60   2.0000      -0.419410       -11.4127
  61   2.0000      -0.410533       -11.1712
  62   2.0000      -0.408824       -11.1247
  63   2.0000      -0.348016        -9.4700
  64   2.0000      -0.333746        -9.0817
  65   2.0000      -0.328950        -8.9512
  66   2.0000      -0.296163        -8.0590
  67   0.0000       0.031999         0.8707
  68   0.0000       0.064775         1.7626
  69   0.0000       0.104260         2.8371
  70   0.0000       0.124607         3.3907
  71   0.0000       0.127695         3.4748

MULLIKEN ATOMIC CHARGES
-----------------------
   0 S :    0.080252
   1 C :   -0.134521
   2 C :   -0.116743
   3 C :    0.052265
   4 C :   -0.140410
   5 H :    0.005802
   6 C :    0.151384
   7 H :   -0.015849
   8 H :    0.007844
   9 C :   -0.067101
  10 H :    0.026930
  11 H :    0.018529
  12 C :   -0.051628
  13 H :    0.025220
  14 H :    0.034991
  15 H :    0.039225
  16 S :    0.118254
  17 C :   -0.081275
  18 C :   -0.020075
  19 C :   -0.040079
  20 C :   -0.183173
  21 H :    0.011813
  22 C :    0.030592
  23 H :    0.031580
  24 H :    0.033897
  25 C :   -0.071635
  26 H :    0.026905
  27 H :    0.030168
  28 C :   -0.063198
  29 H :    0.050436
  30 H :    0.034563
  31 H :    0.049628
  32 H :    0.070888
  33 H :    0.054518
Sum of atomic charges:    0.0000000

LOEWDIN ATOMIC CHARGES
----------------------
   0 S :    0.345925
   1 C :   -0.196648
   2 C :   -0.061604
   3 C :   -0.053811
   4 C :   -0.157802
   5 H :    0.026576
   6 C :   -0.017632
   7 H :    0.018251
   8 H :    0.023137
   9 C :   -0.044307
  10 H :    0.025750
  11 H :    0.023890
  12 C :   -0.064318
  13 H :    0.025338
  14 H :    0.027823
  15 H :    0.026106
  16 S :    0.416599
  17 C :   -0.187683
  18 C :   -0.069775
  19 C :   -0.060639
  20 C :   -0.197062
  21 H :    0.029241
  22 C :   -0.039364
  23 H :    0.034524
  24 H :    0.035029
  25 C :   -0.040520
  26 H :    0.023339
  27 H :    0.021894
  28 C :   -0.072818
  29 H :    0.026853
  30 H :    0.027442
  31 H :    0.037018
  32 H :    0.041114
  33 H :    0.028135

  Mayer bond orders larger than 0.100000
B(  0-S ,  1-C ) :   1.0962 B(  0-S ,  4-C ) :   1.1145 B(  1-C ,  2-C ) :   1.7098
B(  1-C , 32-H ) :   0.9474 B(  2-C ,  3-C ) :   1.1937 B(  2-C ,  6-C ) :   1.0101
B(  3-C ,  4-C ) :   1.6332 B(  3-C ,  5-H ) :   0.9842 B(  4-C , 20-C ) :   1.0297
B(  6-C ,  7-H ) :   0.9237 B(  6-C ,  8-H ) :   0.9358 B(  6-C ,  9-C ) :   1.0811
B(  9-C , 10-H ) :   0.9501 B(  9-C , 11-H ) :   0.9478 B(  9-C , 12-C ) :   1.0954
B( 12-C , 13-H ) :   0.9731 B( 12-C , 14-H ) :   0.9695 B( 12-C , 15-H ) :   0.9701
B( 16-S , 17-C ) :   1.1513 B( 16-S , 20-C ) :   1.1574 B( 17-C , 18-C ) :   1.5933
B( 17-C , 33-H ) :   0.9738 B( 18-C , 19-C ) :   1.2535 B( 18-C , 21-H ) :   0.9896
B( 19-C , 20-C ) :   1.5919 B( 19-C , 22-C ) :   1.0469 B( 22-C , 23-H ) :   0.9395
B( 22-C , 24-H ) :   0.9313 B( 22-C , 25-C ) :   1.0527 B( 25-C , 26-H ) :   0.9578
B( 25-C , 27-H ) :   0.9551 B( 25-C , 28-C ) :   1.0788 B( 28-C , 29-H ) :   0.9693
B( 28-C , 30-H ) :   0.9701 B( 28-C , 31-H ) :   0.9706

Dispersion correction           -0.015311343
FINAL SINGLE POINT ENERGY     -1339.869474927447

DIPOLE MOMENT
-------------
                                X             Y             Z
Electronic contribution:     -9.08921      25.68599       9.11632
Nuclear contribution   :      9.26362     -26.37311      -9.69519
                        -----------------------------------------
Total Dipole Moment    :      0.17442      -0.68712      -0.57887
                        -----------------------------------------
Magnitude (a.u.)       :      0.91523
Magnitude (Debye)      :      2.32633

Rotational constants in cm-1:     0.019828     0.009167     0.006854
Rotational constants in MHz :   594.439088   274.827274   205.474660

                             ****ORCA TERMINATED NORMALLY****
TOTAL RUN TIME: 0 days 0 hours 0 minutes 31 seconds 176 msec
