                         Program Version 4.2.1 -  RELEASE  -
|  1> ! wB97X-D3 SP def2-SVP
|  2> %pal
|  3> nprocs 16
|  4> end
|  5>
|  6> * xyz 0 1
|  7> S 	 -0.218209 	 7.21117 	 79.8573
|  8> C 	 0.943783 	 7.7693 	 78.6376
|  9> C 	 0.464907 	 8.94824 	 77.9746
| 10> C 	 -0.852133 	 9.30674 	 78.3865
| 11> C 	 -1.38292 	 8.50361 	 79.3774
| 12> H 	 -1.42364 	 10.1135 	 77.9027
| 13> C 	 1.23458 	 9.76594 	 76.9501
| 14> H 	 2.30774 	 9.8054 	 77.223
| 15> H 	 0.887521 	 10.747 	 76.6676
| 16> C 	 1.04372 	 9.10102 	 75.5456
| 17> H 	 1.80346 	 8.23805 	 75.5405
| 18> H 	 -0.0471197 	 8.76858 	 75.3813
| 19> C 	 1.37008 	 10.0608 	 74.3634
| 20> H 	 0.620103 	 10.8543 	 74.1993
| 21> H 	 2.38243 	 10.5463 	 74.4602
| 22> H 	 1.58424 	 9.47011 	 73.4022
| 23> S 	 -2.86458 	 8.46577 	 81.7366
| 24> C 	 -4.59563 	 8.36731 	 81.5905
| 25> C 	 -5.03208 	 8.67465 	 80.335
| 26> C 	 -3.9982 	 8.81069 	 79.3639
| 27> C 	 -2.72588 	 8.63334 	 79.9464
| 28> H 	 -6.13297 	 8.68241 	 80.1926
| 29> C 	 -4.42599 	 9.07414 	 77.9417
| 30> H 	 -5.42328 	 8.76868 	 77.7679
| 31> H 	 -3.80022 	 8.55599 	 77.1649
| 32> C 	 -4.46985 	 10.5849 	 77.6375
| 33> H 	 -3.52819 	 11.0767 	 77.9068
| 34> H 	 -5.27287 	 11.1424 	 78.1284
| 35> C 	 -4.68539 	 10.8192 	 76.156
| 36> H 	 -4.05485 	 10.2459 	 75.4279
| 37> H 	 -4.26702 	 11.8161 	 75.9432
| 38> H 	 -5.69214 	 10.7638 	 75.8466
| 39> H 	 1.94225 	 7.27941 	 78.5485
| 40> H 	 -5.2102 	 8.16057 	 82.4236
| 41> *
| 42>
| 43>                          ****END OF INPUT****

CARTESIAN COORDINATES (ANGSTROEM)
---------------------------------
  S     -0.218209    7.211170   79.857300
  C      0.943783    7.769300   78.637600
  C      0.464907    8.948240   77.974600
  C     -0.852133    9.306740   78.386500
  C     -1.382920    8.503610   79.377400
  H     -1.423640   10.113500   77.902700
  C      1.234580    9.765940   76.950100
  H      2.307740    9.805400   77.223000
  H      0.887521   10.747000   76.667600
  C      1.043720    9.101020   75.545600
  H      1.803460    8.238050   75.540500
  H     -0.047120    8.768580   75.381300
  C      1.370080   10.060800   74.363400
  H      0.620103   10.854300   74.199300
  H      2.382430   10.546300   74.460200
  H      1.584240    9.470110   73.402200
  S     -2.864580    8.465770   81.736600
  C     -4.595630    8.367310   81.590500
  C     -5.032080    8.674650   80.335000
  C     -3.998200    8.810690   79.363900
  C     -2.725880    8.633340   79.946400
  H     -6.132970    8.682410   80.192600
  C     -4.425990    9.074140   77.941700
  H     -5.423280    8.768680   77.767900
  H     -3.800220    8.555990   77.164900
  C     -4.469850   10.584900   77.637500
  H     -3.528190   11.076700   77.906800
  H     -5.272870   11.142400   78.128400
  C     -4.685390   10.819200   76.156000
  H     -4.054850   10.245900   75.427900
  H     -4.267020   11.816100   75.943200
  H     -5.692140   10.763800   75.846600
  H      1.942250    7.279410   78.548500
  H     -5.210200    8.160570   82.423600

 Total Charge           Charge          ....    0
 Multiplicity           Mult            ....    1
 Number of Electrons    NEL             ....  134
 Basis Dimension        Dim             ....  322

ORBITAL ENERGIES
----------------

  NO   OCC          E(Eh)            E(eV)
   0   2.0000     -88.969533     -2420.9841
   1   2.0000     -88.963471     -2420.8191
   2   2.0000     -10.334179      -281.2073
   3   2.0000     -10.333256      -281.1822
   4   2.0000     -10.325515      -280.9715
   5   2.0000     -10.311090      -280.5790
   6   2.0000     -10.310324      -280.5582
   7   2.0000     -10.308735      -280.5149
   8   2.0000     -10.302143      -280.3356
   9   2.0000     -10.296978      -280.1950
  10   2.0000     -10.296223      -280.1745
  11   2.0000     -10.293862      -280.1102
  12   2.0000     -10.292867      -280.0832
  13   2.0000     -10.291444      -280.0444
  14   2.0000     -10.288567      -279.9662
  15   2.0000     -10.277147      -279.6554
  16   2.0000      -8.082684      -219.9410
  17   2.0000      -8.077850      -219.8095
  18   2.0000      -6.041289      -164.3918
  19   2.0000      -6.037452      -164.2874
  20   2.0000      -6.036334      -164.2570
  21   2.0000      -6.033390      -164.1769
  22   2.0000      -6.032555      -164.1542
  23   2.0000      -6.028529      -164.0446
  24   2.0000      -0.997603       -27.1462
  25   2.0000      -0.975878       -26.5550
  26   2.0000      -0.914138       -24.8750
  27   2.0000      -0.905884       -24.6504
  28   2.0000      -0.862629       -23.4733
  29   2.0000      -0.853854       -23.2345
  30   2.0000      -0.843445       -22.9513
  31   2.0000      -0.809421       -22.0255
  32   2.0000      -0.781766       -21.2729
  33   2.0000      -0.765805       -20.8386
  34   2.0000      -0.703602       -19.1460
  35   2.0000      -0.693478       -18.8705
  36   2.0000      -0.686103       -18.6698
  37   2.0000      -0.660043       -17.9607
  38   2.0000      -0.638840       -17.3837
  39   2.0000      -0.620448       -16.8833
  40   2.0000      -0.600492       -16.3402
  41   2.0000      -0.574792       -15.6409
  42   2.0000      -0.571644       -15.5552
  43   2.0000      -0.555751       -15.1228
  44   2.0000      -0.524527       -14.2731
  45   2.0000      -0.518305       -14.1038
  46   2.0000      -0.510887       -13.9019
  47   2.0000      -0.507813       -13.8183
  48   2.0000      -0.503300       -13.6955
  49   2.0000      -0.497483       -13.5372
  50   2.0000      -0.491839       -13.3836
  51   2.0000      -0.477132       -12.9834
  52   2.0000      -0.470656       -12.8072
  53   2.0000      -0.468744       -12.7552
  54   2.0000      -0.456837       -12.4312
  55   2.0000      -0.447127       -12.1670
  56   2.0000      -0.441610       -12.0168
  57   2.0000      -0.436518       -11.8783
  58   2.0000      -0.428950       -11.6723
  59   2.0000      -0.424756       -11.5582
  60   2.0000      -0.423722       -11.5301
  61   2.0000      -0.415483       -11.3059
  62   2.0000      -0.408048       -11.1035
  63   2.0000      -0.347305        -9.4507
  64   2.0000      -0.330879        -9.0037
  65   2.0000      -0.328516        -8.9394
  66   2.0000      -0.284881        -7.7520
  67   0.0000       0.022064         0.6004
  68   0.0000       0.067622         1.8401
  69   0.0000       0.105575         2.8728
  70   0.0000       0.117450         3.1960
  71   0.0000       0.125584         3.4173

MULLIKEN ATOMIC CHARGES
-----------------------
   0 S :    0.112046
   1 C :   -0.153638
   2 C :   -0.069682
   3 C :    0.020618
   4 C :   -0.118316
   5 H :    0.010195
   6 C :    0.067864
   7 H :    0.043203
   8 H :    0.016582
   9 C :   -0.131674
  10 H :    0.042297
  11 H :    0.057404
  12 C :   -0.098978
  13 H :    0.049674
  14 H :    0.031641
  15 H :    0.046605
  16 S :    0.092013
  17 C :   -0.082105
  18 C :   -0.046464
  19 C :    0.003923
  20 C :   -0.177440
  21 H :    0.031100
  22 C :    0.080806
  23 H :    0.006633
  24 H :    0.039366
  25 C :   -0.087716
  26 H :    0.030777
  27 H :    0.034896
  28 C :   -0.049796
  29 H :    0.025391
  30 H :    0.024591
  31 H :    0.032335
  32 H :    0.072885
  33 H :    0.042965
Sum of atomic charges:   -0.0000000

LOEWDIN ATOMIC CHARGES
----------------------
   0 S :    0.382656
   1 C :   -0.202669
   2 C :   -0.055958
   3 C :   -0.063515
   4 C :   -0.180008
   5 H :    0.034701
   6 C :   -0.036885
   7 H :    0.035876
   8 H :    0.026757
   9 C :   -0.048016
  10 H :    0.029308
  11 H :    0.035144
  12 C :   -0.091383
  13 H :    0.025220
  14 H :    0.027291
  15 H :    0.037372
  16 S :    0.381862
  17 C :   -0.176621
  18 C :   -0.076970
  19 C :   -0.048056
  20 C :   -0.181439
  21 H :    0.038877
  22 C :   -0.028755
  23 H :    0.025620
  24 H :    0.037208
  25 C :   -0.037757
  26 H :    0.019957
  27 H :    0.029627
  28 C :   -0.070428
  29 H :    0.026451
  30 H :    0.030228
  31 H :    0.017526
  32 H :    0.036390
  33 H :    0.020391

  Mayer bond orders larger than 0.100000
B(  0-S ,  1-C ) :   1.1398 B(  0-S ,  4-C ) :   1.1378 B(  1-C ,  2-C ) :   1.5709
B(  1-C ,  4-C ) :   0.1042 B(  1-C , 32-H ) :   0.9647 B(  2-C ,  3-C ) :   1.2606
B(  2-C ,  6-C ) :   1.0357 B(  3-C ,  4-C ) :   1.5599 B(  3-C ,  5-H ) :   0.9895
B(  4-C , 20-C ) :   1.0681 B(  6-C ,  7-H ) :   0.9416 B(  6-C ,  8-H ) :   0.9524
B(  6-C ,  9-C ) :   1.0306 B(  9-C , 10-H ) :   0.9573 B(  9-C , 11-H ) :   0.9604
B(  9-C , 12-C ) :   1.0760 B( 12-C , 13-H ) :   0.9732 B( 12-C , 14-H ) :   0.9708
B( 12-C , 15-H ) :   0.9732 B( 16-S , 17-C ) :   1.1475 B( 16-S , 20-C ) :   1.1297
B( 17-C , 18-C ) :   1.6291 B( 17-C , 33-H ) :   0.9711 B( 18-C , 19-C ) :   1.2271
B( 18-C , 21-H ) :   0.9832 B( 19-C , 20-C ) :   1.5823 B( 19-C , 22-C ) :   1.0554
B( 22-C , 23-H ) :   0.9280 B( 22-C , 24-H ) :   0.9394 B( 22-C , 25-C ) :   1.0584
B( 25-C , 26-H ) :   0.9616 B( 25-C , 27-H ) :   0.9490 B( 25-C , 28-C ) :   1.0827
B( 28-C , 29-H ) :   0.9720 B( 28-C , 30-H ) :   0.9729 B( 28-C , 31-H ) :   0.9777

Dispersion correction           -0.013943883
FINAL SINGLE POINT ENERGY     -1339.867828973508

DIPOLE MOMENT
-------------
                                X             Y             Z
Electronic contribution:      0.18412     -14.12519      30.66680
Nuclear contribution   :     -0.39173      14.46544     -31.29326
                        -----------------------------------------
Total Dipole Moment    :     -0.20762       0.34025      -0.62647
                        -----------------------------------------
Magnitude (a.u.)       :      0.74252
Magnitude (Debye)      :      1.88734

Rotational constants in cm-1:     0.017343     0.009179     0.006303
Rotational constants in MHz :   519.939883   275.192110   188.966957

                             ****ORCA TERMINATED NORMALLY****
TOTAL RUN TIME: 0 days 0 hours 0 minutes 32 seconds 797 msec
