                         Program Version 4.2.1 -  RELEASE  -
|  1> ! wB97X-D3 SP def2-SVP
|  2> %pal
|  3> nprocs 16
|  4> end
|  5>
|  6> * xyz 0 1
|  7> S 	 -75.4886 	 48.5814 	 119.602
|  8> C 	 -76.2971 	 47.0363 	 119.883
|  9> C 	 -75.8926 	 46.4793 	 121.102
| 10> C 	 -75.0166 	 47.3792 	 121.824
| 11> C 	 -74.7764 	 48.6023 	 121.179
| 12> H 	 -74.4548 	 47.2787 	 122.712
| 13> C 	 -76.3542 	 45.1871 	 121.705
| 14> H 	 -77.461 	 45.137 	 121.733
| 15> H 	 -76.0328 	 45.3295 	 122.727
| 16> C 	 -75.798 	 43.8837 	 121.195
| 17> H 	 -74.7068 	 43.9449 	 121.243
| 18> H 	 -76.2704 	 43.1189 	 121.836
| 19> C 	 -76.2814 	 43.5622 	 119.745
| 20> H 	 -75.8419 	 44.2246 	 119.04
| 21> H 	 -75.9452 	 42.5447 	 119.48
| 22> H 	 -77.3689 	 43.6858 	 119.605
| 23> S 	 -74.4712 	 50.2986 	 123.233
| 24> C 	 -73.4284 	 51.6471 	 123.138
| 25> C 	 -72.8447 	 51.6867 	 121.861
| 26> C 	 -73.1361 	 50.5626 	 121.037
| 27> C 	 -74.06 	 49.7162 	 121.645
| 28> H 	 -72.2578 	 52.6047 	 121.667
| 29> C 	 -72.4531 	 50.3822 	 119.742
| 30> H 	 -73.0796 	 50.8804 	 119.034
| 31> H 	 -72.595 	 49.3195 	 119.461
| 32> C 	 -70.962 	 50.8876 	 119.689
| 33> H 	 -70.3908 	 50.3689 	 120.476
| 34> H 	 -70.8761 	 51.9242 	 120.012
| 35> C 	 -70.39 	 50.6023 	 118.233
| 36> H 	 -70.8968 	 49.8492 	 117.706
| 37> H 	 -69.3016 	 50.3166 	 118.32
| 38> H 	 -70.7257 	 51.5294 	 117.702
| 39> H 	 -76.9214 	 46.4906 	 119.24
| 40> H 	 -73.3964 	 52.4693 	 123.826
| 41> *
| 42>
| 43>                          ****END OF INPUT****

CARTESIAN COORDINATES (ANGSTROEM)
---------------------------------
  S    -75.488600   48.581400  119.602000
  C    -76.297100   47.036300  119.883000
  C    -75.892600   46.479300  121.102000
  C    -75.016600   47.379200  121.824000
  C    -74.776400   48.602300  121.179000
  H    -74.454800   47.278700  122.712000
  C    -76.354200   45.187100  121.705000
  H    -77.461000   45.137000  121.733000
  H    -76.032800   45.329500  122.727000
  C    -75.798000   43.883700  121.195000
  H    -74.706800   43.944900  121.243000
  H    -76.270400   43.118900  121.836000
  C    -76.281400   43.562200  119.745000
  H    -75.841900   44.224600  119.040000
  H    -75.945200   42.544700  119.480000
  H    -77.368900   43.685800  119.605000
  S    -74.471200   50.298600  123.233000
  C    -73.428400   51.647100  123.138000
  C    -72.844700   51.686700  121.861000
  C    -73.136100   50.562600  121.037000
  C    -74.060000   49.716200  121.645000
  H    -72.257800   52.604700  121.667000
  C    -72.453100   50.382200  119.742000
  H    -73.079600   50.880400  119.034000
  H    -72.595000   49.319500  119.461000
  C    -70.962000   50.887600  119.689000
  H    -70.390800   50.368900  120.476000
  H    -70.876100   51.924200  120.012000
  C    -70.390000   50.602300  118.233000
  H    -70.896800   49.849200  117.706000
  H    -69.301600   50.316600  118.320000
  H    -70.725700   51.529400  117.702000
  H    -76.921400   46.490600  119.240000
  H    -73.396400   52.469300  123.826000

 Total Charge           Charge          ....    0
 Multiplicity           Mult            ....    1
 Number of Electrons    NEL             ....  134
 Basis Dimension        Dim             ....  322

ORBITAL ENERGIES
----------------

  NO   OCC          E(Eh)            E(eV)
   0   2.0000     -88.967970     -2420.9415
   1   2.0000     -88.964690     -2420.8523
   2   2.0000     -10.325342      -280.9668
   3   2.0000     -10.320985      -280.8483
   4   2.0000     -10.313572      -280.6466
   5   2.0000     -10.312794      -280.6254
   6   2.0000     -10.304435      -280.3979
   7   2.0000     -10.301315      -280.3130
   8   2.0000     -10.294557      -280.1291
   9   2.0000     -10.294089      -280.1164
  10   2.0000     -10.292030      -280.0604
  11   2.0000     -10.289936      -280.0034
  12   2.0000     -10.289190      -279.9831
  13   2.0000     -10.287370      -279.9336
  14   2.0000     -10.284941      -279.8675
  15   2.0000     -10.278650      -279.6963
  16   2.0000      -8.082286      -219.9302
  17   2.0000      -8.080140      -219.8718
  18   2.0000      -6.040793      -164.3783
  19   2.0000      -6.038523      -164.3166
  20   2.0000      -6.036788      -164.2694
  21   2.0000      -6.034323      -164.2023
  22   2.0000      -6.033147      -164.1703
  23   2.0000      -6.031210      -164.1176
  24   2.0000      -1.011485       -27.5239
  25   2.0000      -0.983389       -26.7594
  26   2.0000      -0.916205       -24.9312
  27   2.0000      -0.907477       -24.6937
  28   2.0000      -0.872731       -23.7482
  29   2.0000      -0.850043       -23.1308
  30   2.0000      -0.843937       -22.9647
  31   2.0000      -0.808582       -22.0026
  32   2.0000      -0.785460       -21.3735
  33   2.0000      -0.772926       -21.0324
  34   2.0000      -0.713710       -19.4210
  35   2.0000      -0.707233       -19.2448
  36   2.0000      -0.698164       -18.9980
  37   2.0000      -0.659212       -17.9381
  38   2.0000      -0.638451       -17.3731
  39   2.0000      -0.613344       -16.6899
  40   2.0000      -0.595115       -16.1939
  41   2.0000      -0.575402       -15.6575
  42   2.0000      -0.560727       -15.2582
  43   2.0000      -0.546718       -14.8770
  44   2.0000      -0.543933       -14.8012
  45   2.0000      -0.529788       -14.4163
  46   2.0000      -0.521353       -14.1867
  47   2.0000      -0.516108       -14.0440
  48   2.0000      -0.510175       -13.8826
  49   2.0000      -0.492221       -13.3940
  50   2.0000      -0.486263       -13.2319
  51   2.0000      -0.478540       -13.0217
  52   2.0000      -0.476059       -12.9542
  53   2.0000      -0.467692       -12.7265
  54   2.0000      -0.461227       -12.5506
  55   2.0000      -0.448379       -12.2010
  56   2.0000      -0.439129       -11.9493
  57   2.0000      -0.437848       -11.9145
  58   2.0000      -0.436304       -11.8724
  59   2.0000      -0.428652       -11.6642
  60   2.0000      -0.423132       -11.5140
  61   2.0000      -0.410224       -11.1628
  62   2.0000      -0.406262       -11.0550
  63   2.0000      -0.348684        -9.4882
  64   2.0000      -0.330330        -8.9887
  65   2.0000      -0.326405        -8.8819
  66   2.0000      -0.285747        -7.7756
  67   0.0000       0.026274         0.7149
  68   0.0000       0.070205         1.9104
  69   0.0000       0.106440         2.8964
  70   0.0000       0.122032         3.3207
  71   0.0000       0.130013         3.5378

MULLIKEN ATOMIC CHARGES
-----------------------
   0 S :    0.114724
   1 C :   -0.091896
   2 C :   -0.093926
   3 C :    0.027750
   4 C :   -0.174630
   5 H :   -0.002897
   6 C :    0.050838
   7 H :    0.037545
   8 H :    0.016436
   9 C :   -0.044585
  10 H :    0.037260
  11 H :    0.039786
  12 C :   -0.069520
  13 H :    0.027044
  14 H :    0.039545
  15 H :    0.030347
  16 S :    0.122529
  17 C :   -0.091480
  18 C :   -0.084931
  19 C :   -0.028676
  20 C :   -0.153436
  21 H :    0.032016
  22 C :    0.076833
  23 H :    0.026677
  24 H :    0.028294
  25 C :   -0.106941
  26 H :    0.035943
  27 H :    0.036662
  28 C :   -0.042058
  29 H :    0.025690
  30 H :    0.058023
  31 H :    0.042996
  32 H :    0.023696
  33 H :    0.054345
Sum of atomic charges:   -0.0000000

LOEWDIN ATOMIC CHARGES
----------------------
   0 S :    0.416361
   1 C :   -0.190258
   2 C :   -0.056753
   3 C :   -0.066984
   4 C :   -0.201730
   5 H :    0.022784
   6 C :   -0.041271
   7 H :    0.035171
   8 H :    0.031520
   9 C :   -0.034284
  10 H :    0.028192
  11 H :    0.030860
  12 C :   -0.069313
  13 H :    0.017121
  14 H :    0.029383
  15 H :    0.024889
  16 S :    0.439586
  17 C :   -0.202871
  18 C :   -0.077489
  19 C :   -0.058019
  20 C :   -0.213043
  21 H :    0.035119
  22 C :   -0.039390
  23 H :    0.029969
  24 H :    0.031033
  25 C :   -0.036263
  26 H :    0.024944
  27 H :    0.021107
  28 C :   -0.068075
  29 H :    0.016731
  30 H :    0.038154
  31 H :    0.037316
  32 H :    0.017491
  33 H :    0.028010

  Mayer bond orders larger than 0.100000
B(  0-S ,  1-C ) :   1.1361 B(  0-S ,  4-C ) :   1.1441 B(  1-C ,  2-C ) :   1.5956
B(  1-C , 32-H ) :   0.9739 B(  2-C ,  3-C ) :   1.2351 B(  2-C ,  6-C ) :   1.0128
B(  3-C ,  4-C ) :   1.5508 B(  3-C ,  5-H ) :   0.9972 B(  4-C , 20-C ) :   1.0878
B(  6-C ,  7-H ) :   0.9399 B(  6-C ,  8-H ) :   0.9346 B(  6-C ,  9-C ) :   1.0842
B(  9-C , 10-H ) :   0.9522 B(  9-C , 11-H ) :   0.9522 B(  9-C , 12-C ) :   1.0772
B( 12-C , 13-H ) :   0.9727 B( 12-C , 14-H ) :   0.9735 B( 12-C , 15-H ) :   0.9752
B( 16-S , 17-C ) :   1.1767 B( 16-S , 20-C ) :   1.1511 B( 17-C , 18-C ) :   1.5826
B( 17-C , 20-C ) :   0.1038 B( 17-C , 33-H ) :   0.9682 B( 18-C , 19-C ) :   1.2500
B( 18-C , 21-H ) :   0.9855 B( 19-C , 20-C ) :   1.5333 B( 19-C , 22-C ) :   1.0478
B( 22-C , 23-H ) :   0.9193 B( 22-C , 24-H ) :   0.9270 B( 22-C , 25-C ) :   1.0524
B( 25-C , 26-H ) :   0.9653 B( 25-C , 27-H ) :   0.9575 B( 25-C , 28-C ) :   1.0523
B( 28-C , 29-H ) :   0.9789 B( 28-C , 30-H ) :   0.9765 B( 28-C , 31-H ) :   0.9778

Dispersion correction           -0.013896876
FINAL SINGLE POINT ENERGY     -1339.869081950173

DIPOLE MOMENT
-------------
                                X             Y             Z
Electronic contribution:     -8.47622      13.29636      10.70604
Nuclear contribution   :      8.67043     -13.41741     -10.79299
                        -----------------------------------------
Total Dipole Moment    :      0.19422      -0.12105      -0.08695
                        -----------------------------------------
Magnitude (a.u.)       :      0.24481
Magnitude (Debye)      :      0.62227

Rotational constants in cm-1:     0.021261     0.007467     0.006146
Rotational constants in MHz :   637.399194   223.844291   184.238140

                             ****ORCA TERMINATED NORMALLY****
TOTAL RUN TIME: 0 days 0 hours 0 minutes 30 seconds 628 msec
