                         Program Version 4.2.1 -  RELEASE  -
|  1> ! wB97X-D3 SP def2-SVP
|  2> %pal
|  3> nprocs 16
|  4> end
|  5>
|  6> * xyz 0 1
|  7> S 	 -116.376 	 44.8264 	 134.538
|  8> C 	 -117.348 	 45.613 	 133.281
|  9> C 	 -116.905 	 46.883 	 132.987
| 10> C 	 -115.938 	 47.3031 	 133.951
| 11> C 	 -115.502 	 46.3277 	 134.858
| 12> H 	 -115.465 	 48.3134 	 134.024
| 13> C 	 -117.517 	 47.7727 	 131.914
| 14> H 	 -117.688 	 48.7536 	 132.428
| 15> H 	 -118.521 	 47.38 	 131.734
| 16> C 	 -116.795 	 47.86 	 130.578
| 17> H 	 -117.432 	 48.4202 	 129.887
| 18> H 	 -115.882 	 48.4912 	 130.708
| 19> C 	 -116.47 	 46.4284 	 130.012
| 20> H 	 -117.448 	 45.8833 	 129.832
| 21> H 	 -116.093 	 46.62 	 128.996
| 22> H 	 -115.751 	 45.8223 	 130.561
| 23> S 	 -114.494 	 48.0671 	 136.594
| 24> C 	 -113.337 	 47.6925 	 137.821
| 25> C 	 -113.172 	 46.3145 	 137.848
| 26> C 	 -113.795 	 45.6141 	 136.778
| 27> C 	 -114.612 	 46.4765 	 136.02
| 28> H 	 -112.565 	 45.8259 	 138.599
| 29> C 	 -113.708 	 44.0883 	 136.615
| 30> H 	 -112.676 	 43.8947 	 136.673
| 31> H 	 -113.95 	 43.8677 	 135.575
| 32> C 	 -114.532 	 43.1832 	 137.52
| 33> H 	 -115.57 	 43.4981 	 137.323
| 34> H 	 -114.296 	 43.2639 	 138.542
| 35> C 	 -114.47 	 41.6946 	 137.242
| 36> H 	 -115.356 	 41.1938 	 137.689
| 37> H 	 -113.631 	 41.2538 	 137.776
| 38> H 	 -114.325 	 41.4481 	 136.2
| 39> H 	 -118.171 	 45.1071 	 132.728
| 40> H 	 -112.794 	 48.3442 	 138.436
| 41> *
| 42>
| 43>                          ****END OF INPUT****

CARTESIAN COORDINATES (ANGSTROEM)
---------------------------------
  S    -116.376000   44.826400  134.538000
  C    -117.348000   45.613000  133.281000
  C    -116.905000   46.883000  132.987000
  C    -115.938000   47.303100  133.951000
  C    -115.502000   46.327700  134.858000
  H    -115.465000   48.313400  134.024000
  C    -117.517000   47.772700  131.914000
  H    -117.688000   48.753600  132.428000
  H    -118.521000   47.380000  131.734000
  C    -116.795000   47.860000  130.578000
  H    -117.432000   48.420200  129.887000
  H    -115.882000   48.491200  130.708000
  C    -116.470000   46.428400  130.012000
  H    -117.448000   45.883300  129.832000
  H    -116.093000   46.620000  128.996000
  H    -115.751000   45.822300  130.561000
  S    -114.494000   48.067100  136.594000
  C    -113.337000   47.692500  137.821000
  C    -113.172000   46.314500  137.848000
  C    -113.795000   45.614100  136.778000
  C    -114.612000   46.476500  136.020000
  H    -112.565000   45.825900  138.599000
  C    -113.708000   44.088300  136.615000
  H    -112.676000   43.894700  136.673000
  H    -113.950000   43.867700  135.575000
  C    -114.532000   43.183200  137.520000
  H    -115.570000   43.498100  137.323000
  H    -114.296000   43.263900  138.542000
  C    -114.470000   41.694600  137.242000
  H    -115.356000   41.193800  137.689000
  H    -113.631000   41.253800  137.776000
  H    -114.325000   41.448100  136.200000
  H    -118.171000   45.107100  132.728000
  H    -112.794000   48.344200  138.436000

 Total Charge           Charge          ....    0
 Multiplicity           Mult            ....    1
 Number of Electrons    NEL             ....  134
 Basis Dimension        Dim             ....  322

ORBITAL ENERGIES
----------------

  NO   OCC          E(Eh)            E(eV)
   0   2.0000     -88.968556     -2420.9575
   1   2.0000     -88.965543     -2420.8755
   2   2.0000     -10.336296      -281.2649
   3   2.0000     -10.328234      -281.0455
   4   2.0000     -10.318850      -280.7902
   5   2.0000     -10.312572      -280.6194
   6   2.0000     -10.303617      -280.3757
   7   2.0000     -10.303166      -280.3634
   8   2.0000     -10.299965      -280.2763
   9   2.0000     -10.295474      -280.1541
  10   2.0000     -10.294634      -280.1312
  11   2.0000     -10.292718      -280.0791
  12   2.0000     -10.286118      -279.8995
  13   2.0000     -10.285759      -279.8897
  14   2.0000     -10.278660      -279.6966
  15   2.0000     -10.274382      -279.5801
  16   2.0000      -8.082064      -219.9241
  17   2.0000      -8.081426      -219.9068
  18   2.0000      -6.040687      -164.3754
  19   2.0000      -6.039806      -164.3515
  20   2.0000      -6.036720      -164.2675
  21   2.0000      -6.035619      -164.2376
  22   2.0000      -6.032828      -164.1616
  23   2.0000      -6.032393      -164.1498
  24   2.0000      -1.010490       -27.4968
  25   2.0000      -0.984763       -26.7968
  26   2.0000      -0.910549       -24.7773
  27   2.0000      -0.909478       -24.7481
  28   2.0000      -0.869195       -23.6520
  29   2.0000      -0.853839       -23.2341
  30   2.0000      -0.841055       -22.8863
  31   2.0000      -0.810367       -22.0512
  32   2.0000      -0.783430       -21.3182
  33   2.0000      -0.774412       -21.0728
  34   2.0000      -0.707581       -19.2543
  35   2.0000      -0.698123       -18.9969
  36   2.0000      -0.690676       -18.7942
  37   2.0000      -0.669072       -18.2064
  38   2.0000      -0.629059       -17.1176
  39   2.0000      -0.616330       -16.7712
  40   2.0000      -0.596388       -16.2285
  41   2.0000      -0.570279       -15.5181
  42   2.0000      -0.566911       -15.4264
  43   2.0000      -0.548090       -14.9143
  44   2.0000      -0.545775       -14.8513
  45   2.0000      -0.527478       -14.3534
  46   2.0000      -0.515662       -14.0319
  47   2.0000      -0.511430       -13.9167
  48   2.0000      -0.506252       -13.7758
  49   2.0000      -0.496035       -13.4978
  50   2.0000      -0.487566       -13.2673
  51   2.0000      -0.477061       -12.9815
  52   2.0000      -0.469810       -12.7842
  53   2.0000      -0.466278       -12.6881
  54   2.0000      -0.461547       -12.5593
  55   2.0000      -0.449915       -12.2428
  56   2.0000      -0.446211       -12.1420
  57   2.0000      -0.433477       -11.7955
  58   2.0000      -0.429822       -11.6961
  59   2.0000      -0.422532       -11.4977
  60   2.0000      -0.418937       -11.3999
  61   2.0000      -0.416397       -11.3307
  62   2.0000      -0.411150       -11.1880
  63   2.0000      -0.357642        -9.7319
  64   2.0000      -0.333466        -9.0741
  65   2.0000      -0.329787        -8.9739
  66   2.0000      -0.283795        -7.7225
  67   0.0000       0.020895         0.5686
  68   0.0000       0.081254         2.2110
  69   0.0000       0.106548         2.8993
  70   0.0000       0.123629         3.3641
  71   0.0000       0.129680         3.5288

MULLIKEN ATOMIC CHARGES
-----------------------
   0 S :    0.090768
   1 C :   -0.137282
   2 C :   -0.079444
   3 C :   -0.023059
   4 C :   -0.123132
   5 H :    0.035059
   6 C :    0.048524
   7 H :    0.038755
   8 H :    0.016413
   9 C :   -0.063208
  10 H :    0.034709
  11 H :    0.037255
  12 C :   -0.077521
  13 H :    0.032958
  14 H :    0.034492
  15 H :    0.064422
  16 S :    0.100273
  17 C :   -0.065819
  18 C :   -0.037697
  19 C :   -0.074904
  20 C :   -0.120022
  21 H :    0.014852
  22 C :    0.078130
  23 H :    0.007005
  24 H :    0.010831
  25 C :   -0.029603
  26 H :    0.027372
  27 H :    0.016418
  28 C :   -0.051250
  29 H :    0.041831
  30 H :    0.021941
  31 H :    0.029244
  32 H :    0.062498
  33 H :    0.039195
Sum of atomic charges:    0.0000000

LOEWDIN ATOMIC CHARGES
----------------------
   0 S :    0.394023
   1 C :   -0.190983
   2 C :   -0.066292
   3 C :   -0.077563
   4 C :   -0.186998
   5 H :    0.032278
   6 C :   -0.036889
   7 H :    0.036826
   8 H :    0.028197
   9 C :   -0.041384
  10 H :    0.026961
  11 H :    0.027064
  12 C :   -0.069524
  13 H :    0.029962
  14 H :    0.027970
  15 H :    0.029677
  16 S :    0.452820
  17 C :   -0.192314
  18 C :   -0.066032
  19 C :   -0.063535
  20 C :   -0.209852
  21 H :    0.029162
  22 C :   -0.034198
  23 H :    0.022410
  24 H :    0.021962
  25 C :   -0.038209
  26 H :    0.024320
  27 H :    0.018366
  28 C :   -0.064007
  29 H :    0.034256
  30 H :    0.022262
  31 H :    0.021930
  32 H :    0.035093
  33 H :    0.022240

  Mayer bond orders larger than 0.100000
B(  0-S ,  1-C ) :   1.1369 B(  0-S ,  4-C ) :   1.1312 B(  1-C ,  2-C ) :   1.6155
B(  1-C , 32-H ) :   0.9587 B(  2-C ,  3-C ) :   1.2377 B(  2-C ,  6-C ) :   1.0150
B(  3-C ,  4-C ) :   1.5781 B(  3-C ,  5-H ) :   0.9733 B(  4-C , 20-C ) :   1.0556
B(  6-C ,  7-H ) :   0.9439 B(  6-C ,  8-H ) :   0.9411 B(  6-C ,  9-C ) :   1.0698
B(  9-C , 10-H ) :   0.9561 B(  9-C , 11-H ) :   0.9556 B(  9-C , 12-C ) :   1.0686
B( 12-C , 13-H ) :   0.9748 B( 12-C , 14-H ) :   0.9739 B( 12-C , 15-H ) :   0.9735
B( 16-S , 17-C ) :   1.1623 B( 16-S , 20-C ) :   1.1784 B( 17-C , 18-C ) :   1.5637
B( 17-C , 33-H ) :   0.9792 B( 18-C , 19-C ) :   1.2925 B( 18-C , 21-H ) :   0.9886
B( 19-C , 20-C ) :   1.5193 B( 19-C , 22-C ) :   1.0467 B( 22-C , 23-H ) :   0.9225
B( 22-C , 24-H ) :   0.9268 B( 22-C , 25-C ) :   1.0696 B( 25-C , 26-H ) :   0.9535
B( 25-C , 27-H ) :   0.9547 B( 25-C , 28-C ) :   1.0839 B( 28-C , 29-H ) :   0.9737
B( 28-C , 30-H ) :   0.9758 B( 28-C , 31-H ) :   0.9759

Dispersion correction           -0.014218716
FINAL SINGLE POINT ENERGY     -1339.889006588329

DIPOLE MOMENT
-------------
                                X             Y             Z
Electronic contribution:      1.44055      10.60163      10.89932
Nuclear contribution   :     -1.41750     -10.58976     -11.08999
                        -----------------------------------------
Total Dipole Moment    :      0.02305       0.01187      -0.19068
                        -----------------------------------------
Magnitude (a.u.)       :      0.19243
Magnitude (Debye)      :      0.48912

Rotational constants in cm-1:     0.020793     0.008208     0.006306
Rotational constants in MHz :   623.343816   246.069345   189.060592

                             ****ORCA TERMINATED NORMALLY****
TOTAL RUN TIME: 0 days 0 hours 0 minutes 32 seconds 522 msec
