                         Program Version 4.2.1 -  RELEASE  -
|  1> ! wB97X-D3 SP def2-SVP
|  2> %pal
|  3> nprocs 16
|  4> end
|  5>
|  6> * xyz 0 1
|  7> S 	 45.9008 	 17.7153 	 77.9528
|  8> C 	 45.0566 	 17.3159 	 79.441
|  9> C 	 45.5867 	 16.1706 	 79.9873
| 10> C 	 46.8397 	 15.7412 	 79.4139
| 11> C 	 47.1777 	 16.6391 	 78.3821
| 12> H 	 47.4211 	 14.8784 	 79.6368
| 13> C 	 45.0293 	 15.4775 	 81.2284
| 14> H 	 45.0931 	 14.4083 	 81.2832
| 15> H 	 43.9834 	 15.5913 	 81.1706
| 16> C 	 45.4238 	 16.1926 	 82.5572
| 17> H 	 45.1513 	 17.2512 	 82.4724
| 18> H 	 44.7672 	 15.727 	 83.3495
| 19> C 	 46.8942 	 16.0767 	 83.0025
| 20> H 	 47.5835 	 16.4831 	 82.2043
| 21> H 	 46.9682 	 16.8114 	 83.8213
| 22> H 	 47.1109 	 15.0869 	 83.4206
| 23> S 	 48.1326 	 15.2638 	 76.2177
| 24> C 	 49.6799 	 15.6759 	 75.5759
| 25> C 	 50.3326 	 16.6161 	 76.3603
| 26> C 	 49.5051 	 17.145 	 77.4101
| 27> C 	 48.2805 	 16.5098 	 77.4861
| 28> H 	 51.3659 	 16.9338 	 76.0737
| 29> C 	 49.9898 	 18.2212 	 78.4092
| 30> H 	 49.1694 	 18.4174 	 79.0333
| 31> H 	 50.3714 	 19.0727 	 77.8164
| 32> C 	 51.2553 	 17.8067 	 79.2628
| 33> H 	 51.7783 	 18.7409 	 79.6179
| 34> H 	 51.9415 	 17.3789 	 78.5347
| 35> C 	 51.097 	 16.7272 	 80.2388
| 36> H 	 52.0807 	 16.3478 	 80.5669
| 37> H 	 50.5894 	 15.8386 	 79.8883
| 38> H 	 50.5033 	 17.0468 	 81.0912
| 39> H 	 44.1204 	 17.7353 	 79.7769
| 40> H 	 50.1613 	 15.1855 	 74.7589
| 41> *
| 42>
| 43>                          ****END OF INPUT****

CARTESIAN COORDINATES (ANGSTROEM)
---------------------------------
  S     45.900800   17.715300   77.952800
  C     45.056600   17.315900   79.441000
  C     45.586700   16.170600   79.987300
  C     46.839700   15.741200   79.413900
  C     47.177700   16.639100   78.382100
  H     47.421100   14.878400   79.636800
  C     45.029300   15.477500   81.228400
  H     45.093100   14.408300   81.283200
  H     43.983400   15.591300   81.170600
  C     45.423800   16.192600   82.557200
  H     45.151300   17.251200   82.472400
  H     44.767200   15.727000   83.349500
  C     46.894200   16.076700   83.002500
  H     47.583500   16.483100   82.204300
  H     46.968200   16.811400   83.821300
  H     47.110900   15.086900   83.420600
  S     48.132600   15.263800   76.217700
  C     49.679900   15.675900   75.575900
  C     50.332600   16.616100   76.360300
  C     49.505100   17.145000   77.410100
  C     48.280500   16.509800   77.486100
  H     51.365900   16.933800   76.073700
  C     49.989800   18.221200   78.409200
  H     49.169400   18.417400   79.033300
  H     50.371400   19.072700   77.816400
  C     51.255300   17.806700   79.262800
  H     51.778300   18.740900   79.617900
  H     51.941500   17.378900   78.534700
  C     51.097000   16.727200   80.238800
  H     52.080700   16.347800   80.566900
  H     50.589400   15.838600   79.888300
  H     50.503300   17.046800   81.091200
  H     44.120400   17.735300   79.776900
  H     50.161300   15.185500   74.758900

 Total Charge           Charge          ....    0
 Multiplicity           Mult            ....    1
 Number of Electrons    NEL             ....  134
 Basis Dimension        Dim             ....  322

ORBITAL ENERGIES
----------------

  NO   OCC          E(Eh)            E(eV)
   0   2.0000     -88.968094     -2420.9449
   1   2.0000     -88.962660     -2420.7971
   2   2.0000     -10.325899      -280.9820
   3   2.0000     -10.321078      -280.8508
   4   2.0000     -10.314386      -280.6687
   5   2.0000     -10.312350      -280.6133
   6   2.0000     -10.304907      -280.4108
   7   2.0000     -10.302260      -280.3387
   8   2.0000     -10.297297      -280.2037
   9   2.0000     -10.296361      -280.1782
  10   2.0000     -10.291236      -280.0388
  11   2.0000     -10.290876      -280.0290
  12   2.0000     -10.285357      -279.8788
  13   2.0000     -10.284658      -279.8598
  14   2.0000     -10.281190      -279.7654
  15   2.0000     -10.269509      -279.4475
  16   2.0000      -8.083024      -219.9503
  17   2.0000      -8.077511      -219.8002
  18   2.0000      -6.041452      -164.3963
  19   2.0000      -6.037652      -164.2929
  20   2.0000      -6.035987      -164.2476
  21   2.0000      -6.033696      -164.1852
  22   2.0000      -6.031954      -164.1378
  23   2.0000      -6.028349      -164.0397
  24   2.0000      -1.007478       -27.4149
  25   2.0000      -0.982038       -26.7226
  26   2.0000      -0.907685       -24.6994
  27   2.0000      -0.906199       -24.6589
  28   2.0000      -0.868344       -23.6288
  29   2.0000      -0.849110       -23.1055
  30   2.0000      -0.844950       -22.9923
  31   2.0000      -0.811442       -22.0805
  32   2.0000      -0.786076       -21.3902
  33   2.0000      -0.773168       -21.0390
  34   2.0000      -0.703779       -19.1508
  35   2.0000      -0.693362       -18.8673
  36   2.0000      -0.690521       -18.7900
  37   2.0000      -0.652998       -17.7690
  38   2.0000      -0.644972       -17.5506
  39   2.0000      -0.611685       -16.6448
  40   2.0000      -0.593706       -16.1556
  41   2.0000      -0.572015       -15.5653
  42   2.0000      -0.551292       -15.0014
  43   2.0000      -0.540339       -14.7034
  44   2.0000      -0.539110       -14.6699
  45   2.0000      -0.538160       -14.6441
  46   2.0000      -0.524211       -14.2645
  47   2.0000      -0.514920       -14.0117
  48   2.0000      -0.501059       -13.6345
  49   2.0000      -0.497964       -13.5503
  50   2.0000      -0.495075       -13.4717
  51   2.0000      -0.478494       -13.0205
  52   2.0000      -0.465431       -12.6650
  53   2.0000      -0.464586       -12.6420
  54   2.0000      -0.459017       -12.4905
  55   2.0000      -0.447860       -12.1869
  56   2.0000      -0.445297       -12.1172
  57   2.0000      -0.432650       -11.7730
  58   2.0000      -0.426860       -11.6154
  59   2.0000      -0.424765       -11.5585
  60   2.0000      -0.417156       -11.3514
  61   2.0000      -0.413564       -11.2536
  62   2.0000      -0.406552       -11.0629
  63   2.0000      -0.334825        -9.1111
  64   2.0000      -0.325453        -8.8560
  65   2.0000      -0.318654        -8.6710
  66   2.0000      -0.310794        -8.4571
  67   0.0000       0.038275         1.0415
  68   0.0000       0.054280         1.4770
  69   0.0000       0.103714         2.8222
  70   0.0000       0.122157         3.3241
  71   0.0000       0.128063         3.4848

MULLIKEN ATOMIC CHARGES
-----------------------
   0 S :    0.133004
   1 C :   -0.106376
   2 C :   -0.100799
   3 C :    0.058648
   4 C :   -0.189969
   5 H :    0.014176
   6 C :    0.093880
   7 H :    0.019853
   8 H :    0.000491
   9 C :   -0.105166
  10 H :    0.027037
  11 H :    0.034264
  12 C :   -0.060122
  13 H :    0.054496
  14 H :    0.030627
  15 H :    0.040431
  16 S :    0.115056
  17 C :   -0.079982
  18 C :   -0.067499
  19 C :   -0.020892
  20 C :   -0.201099
  21 H :    0.036238
  22 C :    0.116801
  23 H :    0.019037
  24 H :    0.034865
  25 C :   -0.101847
  26 H :    0.039905
  27 H :    0.014951
  28 C :   -0.024736
  29 H :    0.029850
  30 H :    0.027094
  31 H :    0.026661
  32 H :    0.042123
  33 H :    0.048997
Sum of atomic charges:    0.0000000

LOEWDIN ATOMIC CHARGES
----------------------
   0 S :    0.426450
   1 C :   -0.199425
   2 C :   -0.057069
   3 C :   -0.049759
   4 C :   -0.207818
   5 H :    0.030896
   6 C :   -0.036868
   7 H :    0.027321
   8 H :    0.024103
   9 C :   -0.039635
  10 H :    0.022506
  11 H :    0.027466
  12 C :   -0.075381
  13 H :    0.033717
  14 H :    0.028817
  15 H :    0.025772
  16 S :    0.400466
  17 C :   -0.186617
  18 C :   -0.082663
  19 C :   -0.050373
  20 C :   -0.206534
  21 H :    0.037345
  22 C :   -0.017689
  23 H :    0.019769
  24 H :    0.038386
  25 C :   -0.048829
  26 H :    0.030784
  27 H :    0.021672
  28 C :   -0.068116
  29 H :    0.030615
  30 H :    0.026460
  31 H :    0.021864
  32 H :    0.026825
  33 H :    0.025544

  Mayer bond orders larger than 0.100000
B(  0-S ,  1-C ) :   1.1298 B(  0-S ,  4-C ) :   1.1801 B(  1-C ,  2-C ) :   1.6164
B(  1-C , 32-H ) :   0.9676 B(  2-C ,  3-C ) :   1.2211 B(  2-C ,  6-C ) :   1.0312
B(  3-C ,  4-C ) :   1.5474 B(  3-C ,  5-H ) :   1.0066 B(  4-C , 20-C ) :   1.0336
B(  6-C ,  7-H ) :   0.9466 B(  6-C ,  8-H ) :   0.9268 B(  6-C ,  9-C ) :   1.0697
B(  9-C , 10-H ) :   0.9578 B(  9-C , 11-H ) :   0.9546 B(  9-C , 12-C ) :   1.0823
B( 12-C , 13-H ) :   0.9691 B( 12-C , 14-H ) :   0.9724 B( 12-C , 15-H ) :   0.9753
B( 16-S , 17-C ) :   1.1603 B( 16-S , 20-C ) :   1.1306 B( 17-C , 18-C ) :   1.6255
B( 17-C , 33-H ) :   0.9678 B( 18-C , 19-C ) :   1.2179 B( 18-C , 21-H ) :   0.9798
B( 19-C , 20-C ) :   1.6131 B( 19-C , 22-C ) :   1.0468 B( 22-C , 23-H ) :   0.9353
B( 22-C , 24-H ) :   0.9299 B( 22-C , 25-C ) :   1.0684 B( 25-C , 26-H ) :   0.9554
B( 25-C , 27-H ) :   0.9540 B( 25-C , 28-C ) :   1.0844 B( 28-C , 29-H ) :   0.9678
B( 28-C , 30-H ) :   0.9696 B( 28-C , 31-H ) :   0.9725

Dispersion correction           -0.015281095
FINAL SINGLE POINT ENERGY     -1339.876344175050

DIPOLE MOMENT
-------------
                                X             Y             Z
Electronic contribution:     -9.36396      -0.77549     -25.34622
Nuclear contribution   :      9.53664       0.66832      25.73701
                        -----------------------------------------
Total Dipole Moment    :      0.17268      -0.10717       0.39078
                        -----------------------------------------
Magnitude (a.u.)       :      0.44047
Magnitude (Debye)      :      1.11960

Rotational constants in cm-1:     0.018774     0.009542     0.007559
Rotational constants in MHz :   562.833203   286.072785   226.613660

                             ****ORCA TERMINATED NORMALLY****
TOTAL RUN TIME: 0 days 0 hours 0 minutes 29 seconds 892 msec
