                         Program Version 4.2.1 -  RELEASE  -
|  1> ! wB97X-D3 SP def2-SVP
|  2> %pal
|  3> nprocs 16
|  4> end
|  5>
|  6> * xyz 0 1
|  7> S 	 -54.0121 	 24.3832 	 96.0726
|  8> C 	 -52.8821 	 23.4831 	 95.1766
|  9> C 	 -53.1556 	 23.4153 	 93.8267
| 10> C 	 -54.3804 	 24.0975 	 93.6317
| 11> C 	 -54.886 	 24.843 	 94.6912
| 12> H 	 -54.9896 	 24.2018 	 92.753
| 13> C 	 -52.5232 	 22.549 	 92.8531
| 14> H 	 -53.2862 	 21.9299 	 92.5584
| 15> H 	 -51.7074 	 21.9467 	 93.26
| 16> C 	 -51.8838 	 23.2838 	 91.7159
| 17> H 	 -52.6803 	 23.7225 	 91.1348
| 18> H 	 -51.3842 	 24.1521 	 92.1396
| 19> C 	 -51.1643 	 22.4393 	 90.6474
| 20> H 	 -51.0779 	 22.9969 	 89.6684
| 21> H 	 -50.0796 	 22.2907 	 90.9674
| 22> H 	 -51.5414 	 21.4521 	 90.4285
| 23> S 	 -57.4202 	 25.0315 	 95.6748
| 24> C 	 -58.4301 	 26.4252 	 95.3131
| 25> C 	 -57.9831 	 27.1159 	 94.2664
| 26> C 	 -56.6867 	 26.6692 	 93.8647
| 27> C 	 -56.1476 	 25.639 	 94.6692
| 28> H 	 -58.563 	 27.9398 	 93.8879
| 29> C 	 -55.9423 	 27.1743 	 92.6443
| 30> H 	 -56.5406 	 28.0036 	 92.3234
| 31> H 	 -55.9526 	 26.3755 	 91.9123
| 32> C 	 -54.6017 	 27.7458 	 93.0327
| 33> H 	 -53.9543 	 27.1648 	 93.7028
| 34> H 	 -54.7371 	 28.7062 	 93.5064
| 35> C 	 -53.81 	 27.956 	 91.7722
| 36> H 	 -53.4448 	 26.9569 	 91.478
| 37> H 	 -52.9127 	 28.5238 	 91.7493
| 38> H 	 -54.4617 	 28.3854 	 90.9801
| 39> H 	 -52.1273 	 22.9177 	 95.5922
| 40> H 	 -59.4359 	 26.4923 	 95.6879
| 41> *
| 42>
| 43>                          ****END OF INPUT****

CARTESIAN COORDINATES (ANGSTROEM)
---------------------------------
  S    -54.012100   24.383200   96.072600
  C    -52.882100   23.483100   95.176600
  C    -53.155600   23.415300   93.826700
  C    -54.380400   24.097500   93.631700
  C    -54.886000   24.843000   94.691200
  H    -54.989600   24.201800   92.753000
  C    -52.523200   22.549000   92.853100
  H    -53.286200   21.929900   92.558400
  H    -51.707400   21.946700   93.260000
  C    -51.883800   23.283800   91.715900
  H    -52.680300   23.722500   91.134800
  H    -51.384200   24.152100   92.139600
  C    -51.164300   22.439300   90.647400
  H    -51.077900   22.996900   89.668400
  H    -50.079600   22.290700   90.967400
  H    -51.541400   21.452100   90.428500
  S    -57.420200   25.031500   95.674800
  C    -58.430100   26.425200   95.313100
  C    -57.983100   27.115900   94.266400
  C    -56.686700   26.669200   93.864700
  C    -56.147600   25.639000   94.669200
  H    -58.563000   27.939800   93.887900
  C    -55.942300   27.174300   92.644300
  H    -56.540600   28.003600   92.323400
  H    -55.952600   26.375500   91.912300
  C    -54.601700   27.745800   93.032700
  H    -53.954300   27.164800   93.702800
  H    -54.737100   28.706200   93.506400
  C    -53.810000   27.956000   91.772200
  H    -53.444800   26.956900   91.478000
  H    -52.912700   28.523800   91.749300
  H    -54.461700   28.385400   90.980100
  H    -52.127300   22.917700   95.592200
  H    -59.435900   26.492300   95.687900

 Total Charge           Charge          ....    0
 Multiplicity           Mult            ....    1
 Number of Electrons    NEL             ....  134
 Basis Dimension        Dim             ....  322

ORBITAL ENERGIES
----------------

  NO   OCC          E(Eh)            E(eV)
   0   2.0000     -88.967076     -2420.9172
   1   2.0000     -88.959824     -2420.7199
   2   2.0000     -10.327283      -281.0197
   3   2.0000     -10.326486      -280.9980
   4   2.0000     -10.309955      -280.5482
   5   2.0000     -10.305356      -280.4230
   6   2.0000     -10.303495      -280.3724
   7   2.0000     -10.296849      -280.1915
   8   2.0000     -10.290516      -280.0192
   9   2.0000     -10.289567      -279.9933
  10   2.0000     -10.289062      -279.9796
  11   2.0000     -10.286409      -279.9074
  12   2.0000     -10.283343      -279.8240
  13   2.0000     -10.281183      -279.7652
  14   2.0000     -10.276676      -279.6426
  15   2.0000     -10.268748      -279.4268
  16   2.0000      -8.083345      -219.9590
  17   2.0000      -8.075142      -219.7358
  18   2.0000      -6.041625      -164.4010
  19   2.0000      -6.037482      -164.2882
  20   2.0000      -6.034406      -164.2045
  21   2.0000      -6.033568      -164.1817
  22   2.0000      -6.029705      -164.0766
  23   2.0000      -6.025823      -163.9710
  24   2.0000      -1.016271       -27.6541
  25   2.0000      -0.993800       -27.0427
  26   2.0000      -0.927373       -25.2351
  27   2.0000      -0.915558       -24.9136
  28   2.0000      -0.874339       -23.7920
  29   2.0000      -0.852650       -23.2018
  30   2.0000      -0.846756       -23.0414
  31   2.0000      -0.821163       -22.3450
  32   2.0000      -0.787124       -21.4187
  33   2.0000      -0.767632       -20.8883
  34   2.0000      -0.710255       -19.3270
  35   2.0000      -0.702503       -19.1161
  36   2.0000      -0.690094       -18.7784
  37   2.0000      -0.662907       -18.0386
  38   2.0000      -0.650020       -17.6879
  39   2.0000      -0.623972       -16.9791
  40   2.0000      -0.595397       -16.2016
  41   2.0000      -0.582134       -15.8407
  42   2.0000      -0.575066       -15.6483
  43   2.0000      -0.566730       -15.4215
  44   2.0000      -0.528905       -14.3922
  45   2.0000      -0.525343       -14.2953
  46   2.0000      -0.518200       -14.1009
  47   2.0000      -0.513593       -13.9756
  48   2.0000      -0.507944       -13.8219
  49   2.0000      -0.503190       -13.6925
  50   2.0000      -0.496502       -13.5105
  51   2.0000      -0.490499       -13.3471
  52   2.0000      -0.469723       -12.7818
  53   2.0000      -0.467480       -12.7208
  54   2.0000      -0.459418       -12.5014
  55   2.0000      -0.450093       -12.2476
  56   2.0000      -0.441196       -12.0056
  57   2.0000      -0.439194       -11.9511
  58   2.0000      -0.428970       -11.6729
  59   2.0000      -0.427278       -11.6268
  60   2.0000      -0.417575       -11.3628
  61   2.0000      -0.414657       -11.2834
  62   2.0000      -0.405087       -11.0230
  63   2.0000      -0.346489        -9.4284
  64   2.0000      -0.330875        -9.0036
  65   2.0000      -0.323292        -8.7972
  66   2.0000      -0.296681        -8.0731
  67   0.0000       0.031629         0.8607
  68   0.0000       0.072903         1.9838
  69   0.0000       0.111379         3.0308
  70   0.0000       0.122310         3.3282
  71   0.0000       0.134823         3.6687

MULLIKEN ATOMIC CHARGES
-----------------------
   0 S :    0.134748
   1 C :   -0.087425
   2 C :   -0.077301
   3 C :    0.022262
   4 C :   -0.179005
   5 H :   -0.002605
   6 C :    0.141588
   7 H :    0.014648
   8 H :    0.011328
   9 C :   -0.097876
  10 H :    0.018162
  11 H :    0.032715
  12 C :   -0.064451
  13 H :    0.045173
  14 H :    0.035961
  15 H :    0.035199
  16 S :    0.091025
  17 C :   -0.076809
  18 C :   -0.023721
  19 C :   -0.074096
  20 C :   -0.152456
  21 H :    0.017938
  22 C :    0.093843
  23 H :    0.006361
  24 H :    0.042137
  25 C :   -0.064732
  26 H :    0.053306
  27 H :    0.022831
  28 C :   -0.046978
  29 H :    0.020751
  30 H :    0.020094
  31 H :    0.023565
  32 H :    0.012743
  33 H :    0.051076
Sum of atomic charges:    0.0000000

LOEWDIN ATOMIC CHARGES
----------------------
   0 S :    0.455306
   1 C :   -0.194402
   2 C :   -0.062150
   3 C :   -0.060167
   4 C :   -0.227595
   5 H :    0.023425
   6 C :   -0.026947
   7 H :    0.026511
   8 H :    0.030717
   9 C :   -0.045692
  10 H :    0.020293
  11 H :    0.028291
  12 C :   -0.073466
  13 H :    0.034869
  14 H :    0.029724
  15 H :    0.024462
  16 S :    0.404206
  17 C :   -0.174621
  18 C :   -0.075588
  19 C :   -0.052525
  20 C :   -0.203070
  21 H :    0.035654
  22 C :   -0.025346
  23 H :    0.029552
  24 H :    0.029432
  25 C :   -0.038884
  26 H :    0.028665
  27 H :    0.023638
  28 C :   -0.068046
  29 H :    0.024796
  30 H :    0.016884
  31 H :    0.024112
  32 H :    0.011930
  33 H :    0.026031

  Mayer bond orders larger than 0.100000
B(  0-S ,  1-C ) :   1.1773 B(  0-S ,  4-C ) :   1.1699 B(  1-C ,  2-C ) :   1.5574
B(  1-C , 32-H ) :   0.9759 B(  2-C ,  3-C ) :   1.2547 B(  2-C ,  6-C ) :   1.0407
B(  3-C ,  4-C ) :   1.5486 B(  3-C ,  5-H ) :   0.9952 B(  4-C , 20-C ) :   1.0178
B(  6-C ,  7-H ) :   0.9226 B(  6-C ,  8-H ) :   0.9353 B(  6-C ,  9-C ) :   1.0607
B(  9-C , 10-H ) :   0.9563 B(  9-C , 11-H ) :   0.9585 B(  9-C , 12-C ) :   1.0692
B( 12-C , 13-H ) :   0.9772 B( 12-C , 14-H ) :   0.9748 B( 12-C , 15-H ) :   0.9735
B( 16-S , 17-C ) :   1.1548 B( 16-S , 20-C ) :   1.1612 B( 17-C , 18-C ) :   1.6174
B( 17-C , 33-H ) :   0.9630 B( 18-C , 19-C ) :   1.2519 B( 18-C , 21-H ) :   0.9961
B( 19-C , 20-C ) :   1.5814 B( 19-C , 22-C ) :   1.0281 B( 22-C , 23-H ) :   0.9165
B( 22-C , 24-H ) :   0.9444 B( 22-C , 25-C ) :   1.0639 B( 25-C , 26-H ) :   0.9633
B( 25-C , 27-H ) :   0.9490 B( 25-C , 28-C ) :   1.0797 B( 28-C , 29-H ) :   0.9763
B( 28-C , 30-H ) :   0.9730 B( 28-C , 31-H ) :   0.9682

Dispersion correction           -0.014746931
FINAL SINGLE POINT ENERGY     -1339.854280264335

DIPOLE MOMENT
-------------
                                X             Y             Z
Electronic contribution:    -17.00975      -2.66198      25.79198
Nuclear contribution   :     17.05578       2.60836     -26.41674
                        -----------------------------------------
Total Dipole Moment    :      0.04603      -0.05362      -0.62476
                        -----------------------------------------
Magnitude (a.u.)       :      0.62875
Magnitude (Debye)      :      1.59815

Rotational constants in cm-1:     0.019735     0.008937     0.007012
Rotational constants in MHz :   591.638493   267.914468   210.226829

                             ****ORCA TERMINATED NORMALLY****
TOTAL RUN TIME: 0 days 0 hours 0 minutes 31 seconds 780 msec
