                         Program Version 4.2.1 -  RELEASE  -
|  1> ! wB97X-D3 SP def2-SVP
|  2> %pal
|  3> nprocs 16
|  4> end
|  5>
|  6> * xyz 0 1
|  7> S 	 -41.5905 	 26.5698 	 84.7048
|  8> C 	 -41.161 	 24.8751 	 84.7526
|  9> C 	 -41.8933 	 24.1593 	 83.8507
| 10> C 	 -42.853 	 24.9779 	 83.18
| 11> C 	 -42.9206 	 26.2886 	 83.6136
| 12> H 	 -43.613 	 24.637 	 82.5344
| 13> C 	 -41.7743 	 22.633 	 83.7137
| 14> H 	 -41.9826 	 22.0337 	 84.5802
| 15> H 	 -40.6976 	 22.5793 	 83.5142
| 16> C 	 -42.5616 	 22.0047 	 82.5909
| 17> H 	 -42.6295 	 20.9163 	 82.837
| 18> H 	 -43.5761 	 22.3859 	 82.5479
| 19> C 	 -41.9342 	 22.0161 	 81.1796
| 20> H 	 -41.8709 	 23.0212 	 80.7769
| 21> H 	 -40.9359 	 21.6451 	 81.0523
| 22> H 	 -42.6791 	 21.5128 	 80.5675
| 23> S 	 -44.8817 	 28.1422 	 83.9896
| 24> C 	 -45.3814 	 29.2227 	 82.7588
| 25> C 	 -45.0468 	 28.606 	 81.5971
| 26> C 	 -43.9746 	 27.6511 	 81.683
| 27> C 	 -43.7333 	 27.3119 	 83.0161
| 28> H 	 -45.4652 	 28.8464 	 80.6316
| 29> C 	 -43.2821 	 27.1043 	 80.3945
| 30> H 	 -42.3305 	 26.6433 	 80.8534
| 31> H 	 -42.8109 	 27.9025 	 79.7923
| 32> C 	 -43.9883 	 26.0761 	 79.5313
| 33> H 	 -44.2074 	 25.192 	 80.0984
| 34> H 	 -43.3553 	 25.7025 	 78.7857
| 35> C 	 -45.3405 	 26.5074 	 78.8568
| 36> H 	 -45.9162 	 27.0297 	 79.4827
| 37> H 	 -45.8763 	 25.5907 	 78.6465
| 38> H 	 -45.1966 	 27.1251 	 77.926
| 39> H 	 -40.4496 	 24.5407 	 85.4379
| 40> H 	 -46.3025 	 29.8515 	 82.9064
| 41> *
| 42>
| 43>                          ****END OF INPUT****

CARTESIAN COORDINATES (ANGSTROEM)
---------------------------------
  S    -41.590500   26.569800   84.704800
  C    -41.161000   24.875100   84.752600
  C    -41.893300   24.159300   83.850700
  C    -42.853000   24.977900   83.180000
  C    -42.920600   26.288600   83.613600
  H    -43.613000   24.637000   82.534400
  C    -41.774300   22.633000   83.713700
  H    -41.982600   22.033700   84.580200
  H    -40.697600   22.579300   83.514200
  C    -42.561600   22.004700   82.590900
  H    -42.629500   20.916300   82.837000
  H    -43.576100   22.385900   82.547900
  C    -41.934200   22.016100   81.179600
  H    -41.870900   23.021200   80.776900
  H    -40.935900   21.645100   81.052300
  H    -42.679100   21.512800   80.567500
  S    -44.881700   28.142200   83.989600
  C    -45.381400   29.222700   82.758800
  C    -45.046800   28.606000   81.597100
  C    -43.974600   27.651100   81.683000
  C    -43.733300   27.311900   83.016100
  H    -45.465200   28.846400   80.631600
  C    -43.282100   27.104300   80.394500
  H    -42.330500   26.643300   80.853400
  H    -42.810900   27.902500   79.792300
  C    -43.988300   26.076100   79.531300
  H    -44.207400   25.192000   80.098400
  H    -43.355300   25.702500   78.785700
  C    -45.340500   26.507400   78.856800
  H    -45.916200   27.029700   79.482700
  H    -45.876300   25.590700   78.646500
  H    -45.196600   27.125100   77.926000
  H    -40.449600   24.540700   85.437900
  H    -46.302500   29.851500   82.906400

 Total Charge           Charge          ....    0
 Multiplicity           Mult            ....    1
 Number of Electrons    NEL             ....  134
 Basis Dimension        Dim             ....  322

ORBITAL ENERGIES
----------------

  NO   OCC          E(Eh)            E(eV)
   0   2.0000     -88.963524     -2420.8206
   1   2.0000     -88.958340     -2420.6795
   2   2.0000     -10.326319      -280.9934
   3   2.0000     -10.325654      -280.9753
   4   2.0000     -10.314977      -280.6848
   5   2.0000     -10.309710      -280.5415
   6   2.0000     -10.306090      -280.4430
   7   2.0000     -10.302107      -280.3346
   8   2.0000     -10.299502      -280.2637
   9   2.0000     -10.292047      -280.0608
  10   2.0000     -10.291449      -280.0446
  11   2.0000     -10.291155      -280.0366
  12   2.0000     -10.289798      -279.9996
  13   2.0000     -10.283777      -279.8358
  14   2.0000     -10.276363      -279.6341
  15   2.0000     -10.273332      -279.5516
  16   2.0000      -8.078614      -219.8303
  17   2.0000      -8.074864      -219.7282
  18   2.0000      -6.037033      -164.2760
  19   2.0000      -6.033236      -164.1727
  20   2.0000      -6.032983      -164.1658
  21   2.0000      -6.029516      -164.0715
  22   2.0000      -6.029208      -164.0631
  23   2.0000      -6.025516      -163.9626
  24   2.0000      -1.014415       -27.6036
  25   2.0000      -0.991898       -26.9909
  26   2.0000      -0.914464       -24.8838
  27   2.0000      -0.904489       -24.6124
  28   2.0000      -0.877551       -23.8794
  29   2.0000      -0.847221       -23.0541
  30   2.0000      -0.842165       -22.9165
  31   2.0000      -0.819340       -22.2954
  32   2.0000      -0.788891       -21.4668
  33   2.0000      -0.780098       -21.2275
  34   2.0000      -0.714584       -19.4448
  35   2.0000      -0.701520       -19.0893
  36   2.0000      -0.691599       -18.8194
  37   2.0000      -0.659502       -17.9460
  38   2.0000      -0.647715       -17.6252
  39   2.0000      -0.624494       -16.9933
  40   2.0000      -0.594674       -16.1819
  41   2.0000      -0.570729       -15.5303
  42   2.0000      -0.553367       -15.0579
  43   2.0000      -0.550379       -14.9766
  44   2.0000      -0.542788       -14.7700
  45   2.0000      -0.534112       -14.5339
  46   2.0000      -0.531431       -14.4610
  47   2.0000      -0.510618       -13.8946
  48   2.0000      -0.509629       -13.8677
  49   2.0000      -0.499839       -13.6013
  50   2.0000      -0.494249       -13.4492
  51   2.0000      -0.486526       -13.2390
  52   2.0000      -0.477590       -12.9959
  53   2.0000      -0.471228       -12.8228
  54   2.0000      -0.462540       -12.5864
  55   2.0000      -0.448320       -12.1994
  56   2.0000      -0.440971       -11.9994
  57   2.0000      -0.435641       -11.8544
  58   2.0000      -0.431509       -11.7420
  59   2.0000      -0.426309       -11.6005
  60   2.0000      -0.416283       -11.3276
  61   2.0000      -0.409509       -11.1433
  62   2.0000      -0.407656       -11.0929
  63   2.0000      -0.341383        -9.2895
  64   2.0000      -0.332125        -9.0376
  65   2.0000      -0.321364        -8.7448
  66   2.0000      -0.304052        -8.2737
  67   0.0000       0.027102         0.7375
  68   0.0000       0.066270         1.8033
  69   0.0000       0.112631         3.0648
  70   0.0000       0.120073         3.2674
  71   0.0000       0.130305         3.5458

MULLIKEN ATOMIC CHARGES
-----------------------
   0 S :    0.113634
   1 C :   -0.119327
   2 C :   -0.060481
   3 C :    0.024065
   4 C :   -0.141829
   5 H :   -0.008077
   6 C :    0.087517
   7 H :    0.043129
   8 H :    0.030905
   9 C :   -0.111333
  10 H :    0.031850
  11 H :    0.032684
  12 C :   -0.038759
  13 H :    0.019798
  14 H :    0.033555
  15 H :    0.033654
  16 S :    0.099358
  17 C :   -0.091904
  18 C :   -0.039227
  19 C :   -0.060410
  20 C :   -0.159346
  21 H :    0.019339
  22 C :    0.022091
  23 H :    0.038412
  24 H :    0.038573
  25 C :   -0.017974
  26 H :    0.009782
  27 H :    0.018950
  28 C :   -0.028795
  29 H :   -0.002836
  30 H :    0.028696
  31 H :    0.040003
  32 H :    0.028651
  33 H :    0.085649
Sum of atomic charges:    0.0000000

LOEWDIN ATOMIC CHARGES
----------------------
   0 S :    0.414182
   1 C :   -0.179450
   2 C :   -0.063266
   3 C :   -0.056498
   4 C :   -0.204835
   5 H :    0.021227
   6 C :   -0.034476
   7 H :    0.033472
   8 H :    0.038071
   9 C :   -0.045864
  10 H :    0.031305
  11 H :    0.023781
  12 C :   -0.065465
  13 H :    0.020626
  14 H :    0.023205
  15 H :    0.029066
  16 S :    0.431785
  17 C :   -0.210926
  18 C :   -0.069934
  19 C :   -0.059445
  20 C :   -0.208439
  21 H :    0.024075
  22 C :   -0.042160
  23 H :    0.042749
  24 H :    0.032890
  25 C :   -0.034133
  26 H :    0.020018
  27 H :    0.021386
  28 C :   -0.055574
  29 H :    0.000913
  30 H :    0.029530
  31 H :    0.031866
  32 H :    0.016407
  33 H :    0.043913

  Mayer bond orders larger than 0.100000
B(  0-S ,  1-C ) :   1.1538 B(  0-S ,  4-C ) :   1.1580 B(  1-C ,  2-C ) :   1.5939
B(  1-C ,  4-C ) :   0.1013 B(  1-C , 32-H ) :   0.9872 B(  2-C ,  3-C ) :   1.2568
B(  2-C ,  6-C ) :   0.9802 B(  3-C ,  4-C ) :   1.5541 B(  3-C ,  5-H ) :   1.0048
B(  4-C , 20-C ) :   1.0309 B(  6-C ,  7-H ) :   0.9483 B(  6-C ,  8-H ) :   0.9396
B(  6-C ,  9-C ) :   1.0882 B(  9-C , 10-H ) :   0.9560 B(  9-C , 11-H ) :   0.9477
B(  9-C , 12-C ) :   1.0853 B( 12-C , 13-H ) :   0.9747 B( 12-C , 14-H ) :   0.9738
B( 12-C , 15-H ) :   0.9741 B( 16-S , 17-C ) :   1.1548 B( 16-S , 20-C ) :   1.1805
B( 17-C , 18-C ) :   1.5822 B( 17-C , 20-C ) :   0.1002 B( 17-C , 33-H ) :   0.9591
B( 18-C , 19-C ) :   1.2705 B( 18-C , 21-H ) :   0.9799 B( 19-C , 20-C ) :   1.5634
B( 19-C , 22-C ) :   1.0232 B( 22-C , 23-H ) :   0.9304 B( 22-C , 24-H ) :   0.9440
B( 22-C , 25-C ) :   1.0806 B( 25-C , 26-H ) :   0.9520 B( 25-C , 27-H ) :   0.9492
B( 25-C , 28-C ) :   1.0758 B( 28-C , 29-H ) :   0.9738 B( 28-C , 30-H ) :   0.9730
B( 28-C , 31-H ) :   0.9771

Dispersion correction           -0.015064461
FINAL SINGLE POINT ENERGY     -1339.853009032139

DIPOLE MOMENT
-------------
                                X             Y             Z
Electronic contribution:      0.90671      19.72720      23.27978
Nuclear contribution   :     -0.99665     -20.37983     -23.78553
                        -----------------------------------------
Total Dipole Moment    :     -0.08994      -0.65263      -0.50574
                        -----------------------------------------
Magnitude (a.u.)       :      0.83054
Magnitude (Debye)      :      2.11106

Rotational constants in cm-1:     0.016946     0.010344     0.007100
Rotational constants in MHz :   508.014038   310.103911   212.842706

                             ****ORCA TERMINATED NORMALLY****
TOTAL RUN TIME: 0 days 0 hours 0 minutes 31 seconds 955 msec
