                         Program Version 4.2.1 -  RELEASE  -
|  1> ! wB97X-D3 SP def2-SVP
|  2> %pal
|  3> nprocs 16
|  4> end
|  5>
|  6> * xyz 0 1
|  7> S 	 7.59662 	 23.8938 	 42.3502
|  8> C 	 6.30005 	 24.3572 	 43.5007
|  9> C 	 5.6788 	 25.5132 	 43.0095
| 10> C 	 6.22914 	 25.9768 	 41.738
| 11> C 	 7.23673 	 25.2227 	 41.2546
| 12> H 	 5.89382 	 26.8995 	 41.2695
| 13> C 	 4.59216 	 26.249 	 43.7225
| 14> H 	 4.46007 	 27.2656 	 43.3376
| 15> H 	 4.8893 	 26.3213 	 44.7911
| 16> C 	 3.27038 	 25.5085 	 43.6661
| 17> H 	 3.03108 	 25.3001 	 42.6559
| 18> H 	 3.34912 	 24.5431 	 44.147
| 19> C 	 2.126 	 26.2873 	 44.3146
| 20> H 	 2.29004 	 26.499 	 45.3506
| 21> H 	 1.77087 	 27.0478 	 43.5966
| 22> H 	 1.32152 	 25.6004 	 44.372
| 23> S 	 8.98762 	 27.096 	 40.1631
| 24> C 	 9.92417 	 26.6731 	 38.7523
| 25> C 	 9.40316 	 25.5093 	 38.2432
| 26> C 	 8.40614 	 24.8275 	 38.9846
| 27> C 	 8.03676 	 25.571 	 40.0861
| 28> H 	 9.7802 	 25.0838 	 37.3369
| 29> C 	 7.78315 	 23.4826 	 38.6279
| 30> H 	 7.80322 	 22.948 	 39.5438
| 31> H 	 8.54864 	 23.0464 	 37.9402
| 32> C 	 6.35126 	 23.4845 	 38.0582
| 33> H 	 6.23208 	 24.476 	 37.4967
| 34> H 	 5.68247 	 23.5629 	 38.8803
| 35> C 	 6.17486 	 22.3034 	 37.0424
| 36> H 	 6.82622 	 22.3633 	 36.1769
| 37> H 	 5.11071 	 22.2327 	 36.7151
| 38> H 	 6.35579 	 21.3879 	 37.6484
| 39> H 	 6.08559 	 23.8216 	 44.381
| 40> H 	 10.614 	 27.3456 	 38.3227
| 41> *
| 42>
| 43>                          ****END OF INPUT****

CARTESIAN COORDINATES (ANGSTROEM)
---------------------------------
  S      7.596620   23.893800   42.350200
  C      6.300050   24.357200   43.500700
  C      5.678800   25.513200   43.009500
  C      6.229140   25.976800   41.738000
  C      7.236730   25.222700   41.254600
  H      5.893820   26.899500   41.269500
  C      4.592160   26.249000   43.722500
  H      4.460070   27.265600   43.337600
  H      4.889300   26.321300   44.791100
  C      3.270380   25.508500   43.666100
  H      3.031080   25.300100   42.655900
  H      3.349120   24.543100   44.147000
  C      2.126000   26.287300   44.314600
  H      2.290040   26.499000   45.350600
  H      1.770870   27.047800   43.596600
  H      1.321520   25.600400   44.372000
  S      8.987620   27.096000   40.163100
  C      9.924170   26.673100   38.752300
  C      9.403160   25.509300   38.243200
  C      8.406140   24.827500   38.984600
  C      8.036760   25.571000   40.086100
  H      9.780200   25.083800   37.336900
  C      7.783150   23.482600   38.627900
  H      7.803220   22.948000   39.543800
  H      8.548640   23.046400   37.940200
  C      6.351260   23.484500   38.058200
  H      6.232080   24.476000   37.496700
  H      5.682470   23.562900   38.880300
  C      6.174860   22.303400   37.042400
  H      6.826220   22.363300   36.176900
  H      5.110710   22.232700   36.715100
  H      6.355790   21.387900   37.648400
  H      6.085590   23.821600   44.381000
  H     10.614000   27.345600   38.322700

 Total Charge           Charge          ....    0
 Multiplicity           Mult            ....    1
 Number of Electrons    NEL             ....  134
 Basis Dimension        Dim             ....  322

ORBITAL ENERGIES
----------------

  NO   OCC          E(Eh)            E(eV)
   0   2.0000     -88.965075     -2420.8628
   1   2.0000     -88.961669     -2420.7701
   2   2.0000     -10.327498      -281.0255
   3   2.0000     -10.325083      -280.9598
   4   2.0000     -10.317981      -280.7665
   5   2.0000     -10.316578      -280.7283
   6   2.0000     -10.304256      -280.3931
   7   2.0000     -10.300015      -280.2777
   8   2.0000     -10.292539      -280.0742
   9   2.0000     -10.290504      -280.0189
  10   2.0000     -10.289775      -279.9990
  11   2.0000     -10.289634      -279.9952
  12   2.0000     -10.289250      -279.9847
  13   2.0000     -10.285895      -279.8934
  14   2.0000     -10.278618      -279.6954
  15   2.0000     -10.273638      -279.5599
  16   2.0000      -8.078738      -219.8336
  17   2.0000      -8.075999      -219.7591
  18   2.0000      -6.037444      -164.2872
  19   2.0000      -6.034511      -164.2074
  20   2.0000      -6.033372      -164.1764
  21   2.0000      -6.030506      -164.0984
  22   2.0000      -6.029364      -164.0673
  23   2.0000      -6.026823      -163.9982
  24   2.0000      -1.002746       -27.2861
  25   2.0000      -0.980000       -26.6672
  26   2.0000      -0.916588       -24.9416
  27   2.0000      -0.904760       -24.6198
  28   2.0000      -0.869285       -23.6545
  29   2.0000      -0.848086       -23.0776
  30   2.0000      -0.844934       -22.9918
  31   2.0000      -0.813647       -22.1405
  32   2.0000      -0.780326       -21.2337
  33   2.0000      -0.770909       -20.9775
  34   2.0000      -0.707716       -19.2579
  35   2.0000      -0.701335       -19.0843
  36   2.0000      -0.694080       -18.8869
  37   2.0000      -0.667109       -18.1529
  38   2.0000      -0.641397       -17.4533
  39   2.0000      -0.615409       -16.7461
  40   2.0000      -0.596075       -16.2200
  41   2.0000      -0.576145       -15.6777
  42   2.0000      -0.564075       -15.3493
  43   2.0000      -0.561760       -15.2863
  44   2.0000      -0.529492       -14.4082
  45   2.0000      -0.522676       -14.2227
  46   2.0000      -0.518619       -14.1123
  47   2.0000      -0.515991       -14.0408
  48   2.0000      -0.507267       -13.8034
  49   2.0000      -0.501131       -13.6365
  50   2.0000      -0.485979       -13.2242
  51   2.0000      -0.482571       -13.1314
  52   2.0000      -0.471203       -12.8221
  53   2.0000      -0.466630       -12.6976
  54   2.0000      -0.458169       -12.4674
  55   2.0000      -0.445026       -12.1098
  56   2.0000      -0.441385       -12.0107
  57   2.0000      -0.437657       -11.9093
  58   2.0000      -0.431979       -11.7547
  59   2.0000      -0.422661       -11.5012
  60   2.0000      -0.421338       -11.4652
  61   2.0000      -0.413575       -11.2539
  62   2.0000      -0.407356       -11.0847
  63   2.0000      -0.340587        -9.2678
  64   2.0000      -0.330203        -8.9853
  65   2.0000      -0.326501        -8.8846
  66   2.0000      -0.299258        -8.1432
  67   0.0000       0.033050         0.8993
  68   0.0000       0.060465         1.6453
  69   0.0000       0.109091         2.9685
  70   0.0000       0.115799         3.1510
  71   0.0000       0.130562         3.5528

MULLIKEN ATOMIC CHARGES
-----------------------
   0 S :    0.095855
   1 C :   -0.120164
   2 C :   -0.079402
   3 C :    0.010735
   4 C :   -0.115133
   5 H :    0.015180
   6 C :    0.068362
   7 H :    0.019808
   8 H :    0.032015
   9 C :   -0.089527
  10 H :    0.015001
  11 H :    0.017226
  12 C :   -0.001382
  13 H :    0.027867
  14 H :    0.041335
  15 H :    0.009893
  16 S :    0.094262
  17 C :   -0.074856
  18 C :   -0.022249
  19 C :   -0.067679
  20 C :   -0.171813
  21 H :    0.001081
  22 C :    0.096498
  23 H :    0.017184
  24 H :    0.021265
  25 C :   -0.062991
  26 H :    0.038912
  27 H :    0.034469
  28 C :   -0.071245
  29 H :    0.047001
  30 H :    0.041658
  31 H :    0.040037
  32 H :    0.039013
  33 H :    0.051784
Sum of atomic charges:   -0.0000000

LOEWDIN ATOMIC CHARGES
----------------------
   0 S :    0.383085
   1 C :   -0.178158
   2 C :   -0.053538
   3 C :   -0.066591
   4 C :   -0.192513
   5 H :    0.032756
   6 C :   -0.037009
   7 H :    0.029194
   8 H :    0.035287
   9 C :   -0.036064
  10 H :    0.018696
  11 H :    0.019625
  12 C :   -0.063504
  13 H :    0.024310
  14 H :    0.032640
  15 H :    0.022645
  16 S :    0.389254
  17 C :   -0.174290
  18 C :   -0.071377
  19 C :   -0.056076
  20 C :   -0.184242
  21 H :    0.023266
  22 C :   -0.030282
  23 H :    0.022022
  24 H :    0.033029
  25 C :   -0.038383
  26 H :    0.029762
  27 H :    0.022543
  28 C :   -0.066600
  29 H :    0.026011
  30 H :    0.030050
  31 H :    0.029740
  32 H :    0.020339
  33 H :    0.024374

  Mayer bond orders larger than 0.100000
B(  0-S ,  1-C ) :   1.1199 B(  0-S ,  4-C ) :   1.1292 B(  1-C ,  2-C ) :   1.6054
B(  1-C , 32-H ) :   0.9816 B(  2-C ,  3-C ) :   1.2208 B(  2-C ,  6-C ) :   1.0336
B(  3-C ,  4-C ) :   1.5840 B(  3-C ,  5-H ) :   0.9998 B(  4-C , 20-C ) :   1.0431
B(  6-C ,  7-H ) :   0.9425 B(  6-C ,  8-H ) :   0.9354 B(  6-C ,  9-C ) :   1.0675
B(  9-C , 10-H ) :   0.9535 B(  9-C , 11-H ) :   0.9550 B(  9-C , 12-C ) :   1.0989
B( 12-C , 13-H ) :   0.9702 B( 12-C , 14-H ) :   0.9727 B( 12-C , 15-H ) :   0.9683
B( 16-S , 17-C ) :   1.1566 B( 16-S , 20-C ) :   1.1370 B( 17-C , 18-C ) :   1.5795
B( 17-C , 20-C ) :   0.1030 B( 17-C , 33-H ) :   0.9771 B( 18-C , 19-C ) :   1.2655
B( 18-C , 21-H ) :   0.9882 B( 19-C , 20-C ) :   1.5738 B( 19-C , 22-C ) :   1.0393
B( 22-C , 23-H ) :   0.9167 B( 22-C , 24-H ) :   0.9371 B( 22-C , 25-C ) :   1.0436
B( 25-C , 26-H ) :   0.9645 B( 25-C , 27-H ) :   0.9549 B( 25-C , 28-C ) :   1.0703
B( 28-C , 29-H ) :   0.9777 B( 28-C , 30-H ) :   0.9755 B( 28-C , 31-H ) :   0.9761

Dispersion correction           -0.013924706
FINAL SINGLE POINT ENERGY     -1339.881598119662

DIPOLE MOMENT
-------------
                                X             Y             Z
Electronic contribution:     22.54916       6.57956       2.11377
Nuclear contribution   :    -22.99864      -6.64479      -2.21434
                        -----------------------------------------
Total Dipole Moment    :     -0.44948      -0.06523      -0.10057
                        -----------------------------------------
Magnitude (a.u.)       :      0.46519
Magnitude (Debye)      :      1.18242

Rotational constants in cm-1:     0.018873     0.007711     0.006529
Rotational constants in MHz :   565.785591   231.181076   195.736746

                             ****ORCA TERMINATED NORMALLY****
TOTAL RUN TIME: 0 days 0 hours 0 minutes 33 seconds 364 msec
