                         Program Version 4.2.1 -  RELEASE  -
|  1> ! wB97X-D3 SP def2-SVP
|  2> %pal
|  3> nprocs 16
|  4> end
|  5>
|  6> * xyz 0 1
|  7> S 	 -9.60929 	 -8.92129 	 76.0481
|  8> C 	 -9.08188 	 -10.5378 	 76.1239
|  9> C 	 -9.70598 	 -11.3609 	 75.1871
| 10> C 	 -10.6156 	 -10.593 	 74.4064
| 11> C 	 -10.8356 	 -9.2894 	 74.8248
| 12> H 	 -11.2829 	 -11.0057 	 73.6789
| 13> C 	 -9.24316 	 -12.771 	 74.8116
| 14> H 	 -8.30609 	 -12.9893 	 75.4534
| 15> H 	 -8.83528 	 -12.6788 	 73.8039
| 16> C 	 -10.2748 	 -13.908 	 74.8527
| 17> H 	 -10.4739 	 -14.1593 	 75.902
| 18> H 	 -11.1473 	 -13.5419 	 74.3429
| 19> C 	 -9.83564 	 -15.2087 	 74.145
| 20> H 	 -9.70956 	 -15.1194 	 73.0687
| 21> H 	 -9.00212 	 -15.7311 	 74.5605
| 22> H 	 -10.605 	 -15.9492 	 74.2143
| 23> S 	 -12.4745 	 -7.2074 	 75.4908
| 24> C 	 -13.4805 	 -6.39098 	 74.2474
| 25> C 	 -13.1444 	 -6.87328 	 73.0286
| 26> C 	 -12.1895 	 -7.98427 	 73.0441
| 27> C 	 -11.6607 	 -8.28067 	 74.3113
| 28> H 	 -13.7114 	 -6.45927 	 72.1773
| 29> C 	 -11.8275 	 -8.6019 	 71.7377
| 30> H 	 -12.6883 	 -8.81334 	 71.1309
| 31> H 	 -11.4032 	 -9.57079 	 71.8355
| 32> C 	 -10.8751 	 -7.76873 	 70.9328
| 33> H 	 -11.1937 	 -6.72834 	 71.0785
| 34> H 	 -11.0465 	 -7.9469 	 69.8393
| 35> C 	 -9.49604 	 -7.95072 	 71.3165
| 36> H 	 -9.20917 	 -8.98489 	 71.008
| 37> H 	 -9.29454 	 -7.94828 	 72.4447
| 38> H 	 -8.82181 	 -7.25465 	 70.7479
| 39> H 	 -8.49324 	 -10.917 	 76.9368
| 40> H 	 -14.0436 	 -5.45451 	 74.4447
| 41> *
| 42>
| 43>                          ****END OF INPUT****

CARTESIAN COORDINATES (ANGSTROEM)
---------------------------------
  S     -9.609290   -8.921290   76.048100
  C     -9.081880  -10.537800   76.123900
  C     -9.705980  -11.360900   75.187100
  C    -10.615600  -10.593000   74.406400
  C    -10.835600   -9.289400   74.824800
  H    -11.282900  -11.005700   73.678900
  C     -9.243160  -12.771000   74.811600
  H     -8.306090  -12.989300   75.453400
  H     -8.835280  -12.678800   73.803900
  C    -10.274800  -13.908000   74.852700
  H    -10.473900  -14.159300   75.902000
  H    -11.147300  -13.541900   74.342900
  C     -9.835640  -15.208700   74.145000
  H     -9.709560  -15.119400   73.068700
  H     -9.002120  -15.731100   74.560500
  H    -10.605000  -15.949200   74.214300
  S    -12.474500   -7.207400   75.490800
  C    -13.480500   -6.390980   74.247400
  C    -13.144400   -6.873280   73.028600
  C    -12.189500   -7.984270   73.044100
  C    -11.660700   -8.280670   74.311300
  H    -13.711400   -6.459270   72.177300
  C    -11.827500   -8.601900   71.737700
  H    -12.688300   -8.813340   71.130900
  H    -11.403200   -9.570790   71.835500
  C    -10.875100   -7.768730   70.932800
  H    -11.193700   -6.728340   71.078500
  H    -11.046500   -7.946900   69.839300
  C     -9.496040   -7.950720   71.316500
  H     -9.209170   -8.984890   71.008000
  H     -9.294540   -7.948280   72.444700
  H     -8.821810   -7.254650   70.747900
  H     -8.493240  -10.917000   76.936800
  H    -14.043600   -5.454510   74.444700

 Total Charge           Charge          ....    0
 Multiplicity           Mult            ....    1
 Number of Electrons    NEL             ....  134
 Basis Dimension        Dim             ....  322

ORBITAL ENERGIES
----------------

  NO   OCC          E(Eh)            E(eV)
   0   2.0000     -88.966280     -2420.8955
   1   2.0000     -88.959358     -2420.7072
   2   2.0000     -10.332488      -281.1613
   3   2.0000     -10.329786      -281.0878
   4   2.0000     -10.323363      -280.9130
   5   2.0000     -10.312420      -280.6152
   6   2.0000     -10.311289      -280.5844
   7   2.0000     -10.303644      -280.3764
   8   2.0000     -10.300884      -280.3013
   9   2.0000     -10.299182      -280.2550
  10   2.0000     -10.294874      -280.1378
  11   2.0000     -10.290877      -280.0290
  12   2.0000     -10.280681      -279.7516
  13   2.0000     -10.278285      -279.6864
  14   2.0000     -10.277461      -279.6639
  15   2.0000     -10.275713      -279.6164
  16   2.0000      -8.081645      -219.9127
  17   2.0000      -8.073341      -219.6868
  18   2.0000      -6.040023      -164.3574
  19   2.0000      -6.036010      -164.2482
  20   2.0000      -6.032529      -164.1535
  21   2.0000      -6.032069      -164.1410
  22   2.0000      -6.027947      -164.0288
  23   2.0000      -6.023881      -163.9181
  24   2.0000      -1.008632       -27.4463
  25   2.0000      -0.981823       -26.7168
  26   2.0000      -0.922378       -25.0992
  27   2.0000      -0.909696       -24.7541
  28   2.0000      -0.879392       -23.9295
  29   2.0000      -0.853205       -23.2169
  30   2.0000      -0.843023       -22.9398
  31   2.0000      -0.818932       -22.2843
  32   2.0000      -0.783331       -21.3155
  33   2.0000      -0.772046       -21.0084
  34   2.0000      -0.714887       -19.4531
  35   2.0000      -0.698573       -19.0091
  36   2.0000      -0.689844       -18.7716
  37   2.0000      -0.657947       -17.9036
  38   2.0000      -0.641884       -17.4666
  39   2.0000      -0.625398       -17.0180
  40   2.0000      -0.604508       -16.4495
  41   2.0000      -0.569831       -15.5059
  42   2.0000      -0.564855       -15.3705
  43   2.0000      -0.560647       -15.2560
  44   2.0000      -0.534953       -14.5568
  45   2.0000      -0.523249       -14.2383
  46   2.0000      -0.517822       -14.0907
  47   2.0000      -0.514281       -13.9943
  48   2.0000      -0.507313       -13.8047
  49   2.0000      -0.501872       -13.6566
  50   2.0000      -0.499763       -13.5992
  51   2.0000      -0.475011       -12.9257
  52   2.0000      -0.474450       -12.9105
  53   2.0000      -0.468343       -12.7443
  54   2.0000      -0.458786       -12.4842
  55   2.0000      -0.448071       -12.1926
  56   2.0000      -0.434912       -11.8346
  57   2.0000      -0.433654       -11.8003
  58   2.0000      -0.428926       -11.6717
  59   2.0000      -0.426279       -11.5997
  60   2.0000      -0.424032       -11.5385
  61   2.0000      -0.416015       -11.3203
  62   2.0000      -0.401559       -10.9270
  63   2.0000      -0.357864        -9.7380
  64   2.0000      -0.332254        -9.0411
  65   2.0000      -0.325489        -8.8570
  66   2.0000      -0.289120        -7.8674
  67   0.0000       0.018125         0.4932
  68   0.0000       0.074938         2.0392
  69   0.0000       0.105103         2.8600
  70   0.0000       0.112439         3.0596
  71   0.0000       0.128870         3.5067

MULLIKEN ATOMIC CHARGES
-----------------------
   0 S :    0.113350
   1 C :   -0.112811
   2 C :   -0.079010
   3 C :    0.012717
   4 C :   -0.145053
   5 H :    0.017154
   6 C :    0.021606
   7 H :    0.029364
   8 H :    0.035521
   9 C :   -0.051653
  10 H :    0.037376
  11 H :    0.027760
  12 C :   -0.037806
  13 H :    0.026272
  14 H :    0.026077
  15 H :    0.018986
  16 S :    0.065963
  17 C :   -0.100328
  18 C :   -0.036487
  19 C :   -0.069949
  20 C :   -0.104789
  21 H :    0.037119
  22 C :    0.099571
  23 H :    0.014426
  24 H :   -0.015611
  25 C :   -0.062078
  26 H :    0.017784
  27 H :    0.027952
  28 C :   -0.060416
  29 H :    0.018807
  30 H :    0.053492
  31 H :    0.041392
  32 H :    0.052647
  33 H :    0.080657
Sum of atomic charges:    0.0000000

LOEWDIN ATOMIC CHARGES
----------------------
   0 S :    0.421407
   1 C :   -0.205359
   2 C :   -0.067529
   3 C :   -0.058080
   4 C :   -0.192810
   5 H :    0.025201
   6 C :   -0.036968
   7 H :    0.036196
   8 H :    0.033412
   9 C :   -0.036237
  10 H :    0.029823
  11 H :    0.023414
  12 C :   -0.066571
  13 H :    0.024468
  14 H :    0.021954
  15 H :    0.025270
  16 S :    0.359418
  17 C :   -0.172171
  18 C :   -0.074868
  19 C :   -0.047593
  20 C :   -0.187922
  21 H :    0.039474
  22 C :   -0.034482
  23 H :    0.031595
  24 H :    0.019973
  25 C :   -0.049949
  26 H :    0.021536
  27 H :    0.028315
  28 C :   -0.072773
  29 H :    0.024173
  30 H :    0.037639
  31 H :    0.031076
  32 H :    0.026735
  33 H :    0.042231

  Mayer bond orders larger than 0.100000
B(  0-S ,  1-C ) :   1.1667 B(  0-S ,  4-C ) :   1.1354 B(  1-C ,  2-C ) :   1.5860
B(  1-C ,  4-C ) :   0.1064 B(  1-C , 32-H ) :   0.9621 B(  2-C ,  3-C ) :   1.2632
B(  2-C ,  6-C ) :   1.0204 B(  3-C ,  4-C ) :   1.5719 B(  3-C ,  5-H ) :   0.9859
B(  4-C , 20-C ) :   1.0913 B(  6-C ,  7-H ) :   0.9458 B(  6-C ,  8-H ) :   0.9445
B(  6-C ,  9-C ) :   1.0538 B(  9-C , 10-H ) :   0.9546 B(  9-C , 11-H ) :   0.9579
B(  9-C , 12-C ) :   1.0901 B( 12-C , 13-H ) :   0.9732 B( 12-C , 14-H ) :   0.9752
B( 12-C , 15-H ) :   0.9717 B( 16-S , 17-C ) :   1.1273 B( 16-S , 20-C ) :   1.1065
B( 17-C , 18-C ) :   1.6570 B( 17-C , 33-H ) :   0.9581 B( 18-C , 19-C ) :   1.2003
B( 18-C , 21-H ) :   0.9808 B( 19-C , 20-C ) :   1.5933 B( 19-C , 22-C ) :   1.0709
B( 22-C , 23-H ) :   0.9198 B( 22-C , 24-H ) :   0.9281 B( 22-C , 25-C ) :   1.0714
B( 25-C , 26-H ) :   0.9494 B( 25-C , 27-H ) :   0.9456 B( 25-C , 28-C ) :   1.0939
B( 28-C , 29-H ) :   0.9667 B( 28-C , 30-H ) :   0.9700 B( 28-C , 31-H ) :   0.9678

Dispersion correction           -0.014331669
FINAL SINGLE POINT ENERGY     -1339.876689514047

DIPOLE MOMENT
-------------
                                X             Y             Z
Electronic contribution:     -6.46284      19.80897      18.02921
Nuclear contribution   :      6.38457     -20.25021     -18.62674
                        -----------------------------------------
Total Dipole Moment    :     -0.07826      -0.44124      -0.59753
                        -----------------------------------------
Magnitude (a.u.)       :      0.74690
Magnitude (Debye)      :      1.89848

Rotational constants in cm-1:     0.019656     0.008061     0.006912
Rotational constants in MHz :   589.265775   241.669868   207.225454

                             ****ORCA TERMINATED NORMALLY****
TOTAL RUN TIME: 0 days 0 hours 0 minutes 34 seconds 460 msec
