                         Program Version 4.2.1 -  RELEASE  -
|  1> ! wB97X-D3 SP def2-SVP
|  2> %pal
|  3> nprocs 16
|  4> end
|  5>
|  6> * xyz 0 1
|  7> S 	 34.2606 	 10.4022 	 85.225
|  8> C 	 34.1583 	 9.37069 	 83.7955
|  9> C 	 35.2404 	 8.50116 	 83.7172
| 10> C 	 36.2052 	 8.86239 	 84.6787
| 11> C 	 35.8581 	 9.83715 	 85.5935
| 12> H 	 37.2194 	 8.44975 	 84.8662
| 13> C 	 35.4133 	 7.53925 	 82.6118
| 14> H 	 35.899 	 8.05954 	 81.8002
| 15> H 	 34.4294 	 7.28725 	 82.2651
| 16> C 	 36.1643 	 6.36673 	 83.1622
| 17> H 	 37.1453 	 6.65551 	 83.6811
| 18> H 	 35.5211 	 5.95848 	 83.9697
| 19> C 	 36.6301 	 5.28614 	 82.0979
| 20> H 	 37.134 	 4.38796 	 82.6149
| 21> H 	 35.8918 	 4.88419 	 81.5345
| 22> H 	 37.3741 	 5.79388 	 81.4453
| 23> S 	 35.8757 	 10.4136 	 88.231
| 24> C 	 37.2318 	 11.1757 	 88.957
| 25> C 	 38.2988 	 11.1566 	 88.1365
| 26> C 	 37.9713 	 10.8264 	 86.7984
| 27> C 	 36.641 	 10.4681 	 86.6619
| 28> H 	 39.2848 	 11.5619 	 88.5064
| 29> C 	 38.9716 	 10.9248 	 85.6726
| 30> H 	 39.1068 	 9.92485 	 85.3221
| 31> H 	 39.8583 	 11.2104 	 86.2216
| 32> C 	 38.6212 	 11.8579 	 84.4831
| 33> H 	 38.4511 	 12.9126 	 84.8824
| 34> H 	 37.665 	 11.5123 	 84.1194
| 35> C 	 39.6979 	 11.9715 	 83.3552
| 36> H 	 40.4358 	 11.2239 	 83.4567
| 37> H 	 40.2421 	 12.9189 	 83.3972
| 38> H 	 39.1674 	 12.001 	 82.4495
| 39> H 	 33.2713 	 9.13508 	 83.2463
| 40> H 	 37.2829 	 11.4299 	 89.9498
| 41> *
| 42>
| 43>                          ****END OF INPUT****

CARTESIAN COORDINATES (ANGSTROEM)
---------------------------------
  S     34.260600   10.402200   85.225000
  C     34.158300    9.370690   83.795500
  C     35.240400    8.501160   83.717200
  C     36.205200    8.862390   84.678700
  C     35.858100    9.837150   85.593500
  H     37.219400    8.449750   84.866200
  C     35.413300    7.539250   82.611800
  H     35.899000    8.059540   81.800200
  H     34.429400    7.287250   82.265100
  C     36.164300    6.366730   83.162200
  H     37.145300    6.655510   83.681100
  H     35.521100    5.958480   83.969700
  C     36.630100    5.286140   82.097900
  H     37.134000    4.387960   82.614900
  H     35.891800    4.884190   81.534500
  H     37.374100    5.793880   81.445300
  S     35.875700   10.413600   88.231000
  C     37.231800   11.175700   88.957000
  C     38.298800   11.156600   88.136500
  C     37.971300   10.826400   86.798400
  C     36.641000   10.468100   86.661900
  H     39.284800   11.561900   88.506400
  C     38.971600   10.924800   85.672600
  H     39.106800    9.924850   85.322100
  H     39.858300   11.210400   86.221600
  C     38.621200   11.857900   84.483100
  H     38.451100   12.912600   84.882400
  H     37.665000   11.512300   84.119400
  C     39.697900   11.971500   83.355200
  H     40.435800   11.223900   83.456700
  H     40.242100   12.918900   83.397200
  H     39.167400   12.001000   82.449500
  H     33.271300    9.135080   83.246300
  H     37.282900   11.429900   89.949800

 Total Charge           Charge          ....    0
 Multiplicity           Mult            ....    1
 Number of Electrons    NEL             ....  134
 Basis Dimension        Dim             ....  322

ORBITAL ENERGIES
----------------

  NO   OCC          E(Eh)            E(eV)
   0   2.0000     -88.964454     -2420.8459
   1   2.0000     -88.961596     -2420.7681
   2   2.0000     -10.327797      -281.0336
   3   2.0000     -10.323802      -280.9249
   4   2.0000     -10.310748      -280.5697
   5   2.0000     -10.305950      -280.4392
   6   2.0000     -10.301194      -280.3097
   7   2.0000     -10.298345      -280.2322
   8   2.0000     -10.295590      -280.1572
   9   2.0000     -10.293490      -280.1001
  10   2.0000     -10.293027      -280.0875
  11   2.0000     -10.288456      -279.9631
  12   2.0000     -10.288411      -279.9619
  13   2.0000     -10.287570      -279.9390
  14   2.0000     -10.282118      -279.7907
  15   2.0000     -10.271225      -279.4942
  16   2.0000      -8.079104      -219.8436
  17   2.0000      -8.077492      -219.7997
  18   2.0000      -6.037526      -164.2894
  19   2.0000      -6.035909      -164.2454
  20   2.0000      -6.033513      -164.1802
  21   2.0000      -6.031882      -164.1359
  22   2.0000      -6.030057      -164.0862
  23   2.0000      -6.028223      -164.0363
  24   2.0000      -1.012764       -27.5587
  25   2.0000      -0.991131       -26.9701
  26   2.0000      -0.921333       -25.0707
  27   2.0000      -0.905359       -24.6361
  28   2.0000      -0.869654       -23.6645
  29   2.0000      -0.851427       -23.1685
  30   2.0000      -0.841215       -22.8906
  31   2.0000      -0.819204       -22.2917
  32   2.0000      -0.786363       -21.3980
  33   2.0000      -0.775971       -21.1152
  34   2.0000      -0.716523       -19.4976
  35   2.0000      -0.700093       -19.0505
  36   2.0000      -0.687394       -18.7049
  37   2.0000      -0.662286       -18.0217
  38   2.0000      -0.645441       -17.5633
  39   2.0000      -0.616416       -16.7735
  40   2.0000      -0.595384       -16.2012
  41   2.0000      -0.574977       -15.6459
  42   2.0000      -0.564599       -15.3635
  43   2.0000      -0.558623       -15.2009
  44   2.0000      -0.530242       -14.4286
  45   2.0000      -0.524073       -14.2608
  46   2.0000      -0.517040       -14.0694
  47   2.0000      -0.510097       -13.8805
  48   2.0000      -0.509394       -13.8613
  49   2.0000      -0.498860       -13.5747
  50   2.0000      -0.492537       -13.4026
  51   2.0000      -0.487224       -13.2580
  52   2.0000      -0.475827       -12.9479
  53   2.0000      -0.467228       -12.7139
  54   2.0000      -0.460076       -12.5193
  55   2.0000      -0.446271       -12.1437
  56   2.0000      -0.444017       -12.0823
  57   2.0000      -0.438659       -11.9365
  58   2.0000      -0.435982       -11.8637
  59   2.0000      -0.423471       -11.5232
  60   2.0000      -0.420005       -11.4289
  61   2.0000      -0.411263       -11.1910
  62   2.0000      -0.409909       -11.1542
  63   2.0000      -0.345766        -9.4088
  64   2.0000      -0.332385        -9.0447
  65   2.0000      -0.329208        -8.9582
  66   2.0000      -0.294174        -8.0049
  67   0.0000       0.028067         0.7637
  68   0.0000       0.071345         1.9414
  69   0.0000       0.110528         3.0076
  70   0.0000       0.125418         3.4128
  71   0.0000       0.134405         3.6574

MULLIKEN ATOMIC CHARGES
-----------------------
   0 S :    0.110788
   1 C :   -0.107327
   2 C :   -0.125407
   3 C :    0.001257
   4 C :   -0.168632
   5 H :    0.019568
   6 C :    0.158551
   7 H :    0.038723
   8 H :    0.007922
   9 C :   -0.169270
  10 H :    0.050404
  11 H :    0.041300
  12 C :   -0.021243
  13 H :    0.042948
  14 H :    0.011663
  15 H :    0.035938
  16 S :    0.101009
  17 C :   -0.042366
  18 C :   -0.064862
  19 C :   -0.074415
  20 C :   -0.139069
  21 H :    0.036776
  22 C :    0.118641
  23 H :    0.017719
  24 H :    0.003059
  25 C :   -0.110034
  26 H :    0.039495
  27 H :    0.042423
  28 C :    0.002832
  29 H :    0.021056
  30 H :    0.028173
  31 H :    0.028214
  32 H :    0.041670
  33 H :    0.022495
Sum of atomic charges:    0.0000000

LOEWDIN ATOMIC CHARGES
----------------------
   0 S :    0.409838
   1 C :   -0.195777
   2 C :   -0.062347
   3 C :   -0.074476
   4 C :   -0.204136
   5 H :    0.033769
   6 C :   -0.028344
   7 H :    0.034665
   8 H :    0.029133
   9 C :   -0.046488
  10 H :    0.032699
  11 H :    0.029516
  12 C :   -0.064013
  13 H :    0.036916
  14 H :    0.004061
  15 H :    0.029364
  16 S :    0.419880
  17 C :   -0.175899
  18 C :   -0.079629
  19 C :   -0.056442
  20 C :   -0.202494
  21 H :    0.041382
  22 C :   -0.030048
  23 H :    0.024615
  24 H :    0.025665
  25 C :   -0.037288
  26 H :    0.032446
  27 H :    0.022748
  28 C :   -0.057827
  29 H :    0.018444
  30 H :    0.029340
  31 H :    0.024466
  32 H :    0.023201
  33 H :    0.013062

  Mayer bond orders larger than 0.100000
B(  0-S ,  1-C ) :   1.1468 B(  0-S ,  4-C ) :   1.1601 B(  1-C ,  2-C ) :   1.5989
B(  1-C ,  4-C ) :   0.1102 B(  1-C , 32-H ) :   0.9634 B(  2-C ,  3-C ) :   1.2352
B(  2-C ,  6-C ) :   1.0292 B(  3-C ,  4-C ) :   1.5905 B(  3-C ,  5-H ) :   0.9829
B(  4-C , 20-C ) :   1.0067 B(  6-C ,  7-H ) :   0.9310 B(  6-C ,  8-H ) :   0.9239
B(  6-C ,  9-C ) :   1.0580 B(  9-C , 10-H ) :   0.9535 B(  9-C , 11-H ) :   0.9596
B(  9-C , 12-C ) :   1.0702 B( 12-C , 13-H ) :   0.9756 B( 12-C , 14-H ) :   0.9773
B( 12-C , 15-H ) :   0.9760 B( 16-S , 17-C ) :   1.1621 B( 16-S , 20-C ) :   1.1546
B( 17-C , 18-C ) :   1.6136 B( 17-C , 33-H ) :   0.9746 B( 18-C , 19-C ) :   1.2579
B( 18-C , 21-H ) :   0.9779 B( 19-C , 20-C ) :   1.5907 B( 19-C , 22-C ) :   1.0351
B( 22-C , 23-H ) :   0.9188 B( 22-C , 24-H ) :   0.9279 B( 22-C , 25-C ) :   1.0664
B( 25-C , 26-H ) :   0.9601 B( 25-C , 27-H ) :   0.9630 B( 25-C , 28-C ) :   1.0639
B( 28-C , 29-H ) :   0.9798 B( 28-C , 30-H ) :   0.9778 B( 28-C , 31-H ) :   0.9760

Dispersion correction           -0.014157199
FINAL SINGLE POINT ENERGY     -1339.863936067452

DIPOLE MOMENT
-------------
                                X             Y             Z
Electronic contribution:    -16.82803       9.59829      21.15522
Nuclear contribution   :     17.32465      -9.84375     -21.48484
                        -----------------------------------------
Total Dipole Moment    :      0.49662      -0.24546      -0.32963
                        -----------------------------------------
Magnitude (a.u.)       :      0.64462
Magnitude (Debye)      :      1.63850

Rotational constants in cm-1:     0.017070     0.008851     0.007282
Rotational constants in MHz :   511.731260   265.359977   218.301461

                             ****ORCA TERMINATED NORMALLY****
TOTAL RUN TIME: 0 days 0 hours 0 minutes 30 seconds 456 msec
