                         Program Version 4.2.1 -  RELEASE  -
|  1> ! wB97X-D3 SP def2-SVP
|  2> %pal
|  3> nprocs 16
|  4> end
|  5>
|  6> * xyz 0 1
|  7> S 	 44.3946 	 13.4061 	 72.3746
|  8> C 	 42.7431 	 13.0222 	 72.7217
|  9> C 	 42.0899 	 14.1707 	 73.1518
| 10> C 	 42.9054 	 15.3146 	 72.9297
| 11> C 	 44.1893 	 15.0907 	 72.4774
| 12> H 	 42.5844 	 16.329 	 73.0537
| 13> C 	 40.6824 	 14.2295 	 73.7026
| 14> H 	 40.1458 	 13.3118 	 73.4546
| 15> H 	 40.2306 	 15.1537 	 73.3012
| 16> C 	 40.647 	 14.2259 	 75.2138
| 17> H 	 40.4929 	 13.1497 	 75.4654
| 18> H 	 41.6794 	 14.5029 	 75.5042
| 19> C 	 39.5558 	 15.0649 	 75.9793
| 20> H 	 39.367 	 14.7463 	 77.0337
| 21> H 	 40.0286 	 16.0704 	 75.9996
| 22> H 	 38.5702 	 15.0859 	 75.4203
| 23> S 	 46.067 	 15.9546 	 70.848
| 24> C 	 46.9006 	 17.4432 	 71.1657
| 25> C 	 46.5511 	 18.0126 	 72.377
| 26> C 	 45.5296 	 17.2427 	 73.067
| 27> C 	 45.1971 	 16.1265 	 72.306
| 28> H 	 46.9281 	 19.0248 	 72.6894
| 29> C 	 44.9328 	 17.6793 	 74.4509
| 30> H 	 43.9725 	 18.0845 	 74.1645
| 31> H 	 45.5033 	 18.4759 	 74.9253
| 32> C 	 44.9206 	 16.5626 	 75.5343
| 33> H 	 45.957 	 16.2384 	 75.836
| 34> H 	 44.4011 	 15.6981 	 75.0928
| 35> C 	 44.2164 	 16.9489 	 76.8395
| 36> H 	 43.1515 	 16.8943 	 76.7131
| 37> H 	 44.6081 	 17.8881 	 77.2868
| 38> H 	 44.2158 	 16.2412 	 77.6112
| 39> H 	 42.4835 	 12.0141 	 72.9614
| 40> H 	 47.6672 	 17.8807 	 70.5224
| 41> *
| 42>
| 43>                          ****END OF INPUT****

CARTESIAN COORDINATES (ANGSTROEM)
---------------------------------
  S     44.394600   13.406100   72.374600
  C     42.743100   13.022200   72.721700
  C     42.089900   14.170700   73.151800
  C     42.905400   15.314600   72.929700
  C     44.189300   15.090700   72.477400
  H     42.584400   16.329000   73.053700
  C     40.682400   14.229500   73.702600
  H     40.145800   13.311800   73.454600
  H     40.230600   15.153700   73.301200
  C     40.647000   14.225900   75.213800
  H     40.492900   13.149700   75.465400
  H     41.679400   14.502900   75.504200
  C     39.555800   15.064900   75.979300
  H     39.367000   14.746300   77.033700
  H     40.028600   16.070400   75.999600
  H     38.570200   15.085900   75.420300
  S     46.067000   15.954600   70.848000
  C     46.900600   17.443200   71.165700
  C     46.551100   18.012600   72.377000
  C     45.529600   17.242700   73.067000
  C     45.197100   16.126500   72.306000
  H     46.928100   19.024800   72.689400
  C     44.932800   17.679300   74.450900
  H     43.972500   18.084500   74.164500
  H     45.503300   18.475900   74.925300
  C     44.920600   16.562600   75.534300
  H     45.957000   16.238400   75.836000
  H     44.401100   15.698100   75.092800
  C     44.216400   16.948900   76.839500
  H     43.151500   16.894300   76.713100
  H     44.608100   17.888100   77.286800
  H     44.215800   16.241200   77.611200
  H     42.483500   12.014100   72.961400
  H     47.667200   17.880700   70.522400

 Total Charge           Charge          ....    0
 Multiplicity           Mult            ....    1
 Number of Electrons    NEL             ....  134
 Basis Dimension        Dim             ....  322

ORBITAL ENERGIES
----------------

  NO   OCC          E(Eh)            E(eV)
   0   2.0000     -88.968279     -2420.9499
   1   2.0000     -88.964585     -2420.8494
   2   2.0000     -10.325559      -280.9728
   3   2.0000     -10.324901      -280.9548
   4   2.0000     -10.317020      -280.7404
   5   2.0000     -10.311756      -280.5971
   6   2.0000     -10.311531      -280.5910
   7   2.0000     -10.302769      -280.3526
   8   2.0000     -10.301339      -280.3137
   9   2.0000     -10.299806      -280.2720
  10   2.0000     -10.293702      -280.1059
  11   2.0000     -10.292546      -280.0744
  12   2.0000     -10.290196      -280.0105
  13   2.0000     -10.289595      -279.9941
  14   2.0000     -10.287978      -279.9501
  15   2.0000     -10.273024      -279.5432
  16   2.0000      -8.084134      -219.9805
  17   2.0000      -8.080550      -219.8829
  18   2.0000      -6.042467      -164.4239
  19   2.0000      -6.038898      -164.3268
  20   2.0000      -6.038534      -164.3169
  21   2.0000      -6.034956      -164.2195
  22   2.0000      -6.034746      -164.2138
  23   2.0000      -6.031519      -164.1260
  24   2.0000      -1.016507       -27.6606
  25   2.0000      -0.991265       -26.9737
  26   2.0000      -0.915062       -24.9001
  27   2.0000      -0.903290       -24.5798
  28   2.0000      -0.871247       -23.7078
  29   2.0000      -0.852637       -23.2014
  30   2.0000      -0.844107       -22.9693
  31   2.0000      -0.814922       -22.1752
  32   2.0000      -0.785479       -21.3740
  33   2.0000      -0.775838       -21.1116
  34   2.0000      -0.705672       -19.2023
  35   2.0000      -0.692917       -18.8552
  36   2.0000      -0.689211       -18.7544
  37   2.0000      -0.664027       -18.0691
  38   2.0000      -0.643498       -17.5105
  39   2.0000      -0.622719       -16.9451
  40   2.0000      -0.593228       -16.1426
  41   2.0000      -0.568892       -15.4803
  42   2.0000      -0.566755       -15.4222
  43   2.0000      -0.562607       -15.3093
  44   2.0000      -0.526094       -14.3157
  45   2.0000      -0.520524       -14.1642
  46   2.0000      -0.511806       -13.9269
  47   2.0000      -0.510506       -13.8916
  48   2.0000      -0.504692       -13.7334
  49   2.0000      -0.504179       -13.7194
  50   2.0000      -0.499209       -13.5842
  51   2.0000      -0.487641       -13.2694
  52   2.0000      -0.478937       -13.0325
  53   2.0000      -0.469998       -12.7893
  54   2.0000      -0.461791       -12.5660
  55   2.0000      -0.450896       -12.2695
  56   2.0000      -0.447995       -12.1906
  57   2.0000      -0.430890       -11.7251
  58   2.0000      -0.426466       -11.6047
  59   2.0000      -0.418611       -11.3910
  60   2.0000      -0.415905       -11.3173
  61   2.0000      -0.414467       -11.2782
  62   2.0000      -0.408910       -11.1270
  63   2.0000      -0.350268        -9.5313
  64   2.0000      -0.333827        -9.0839
  65   2.0000      -0.329264        -8.9597
  66   2.0000      -0.293929        -7.9982
  67   0.0000       0.030935         0.8418
  68   0.0000       0.074105         2.0165
  69   0.0000       0.112383         3.0581
  70   0.0000       0.116829         3.1791
  71   0.0000       0.123293         3.3550

MULLIKEN ATOMIC CHARGES
-----------------------
   0 S :    0.110201
   1 C :   -0.105822
   2 C :   -0.115586
   3 C :   -0.007333
   4 C :   -0.116421
   5 H :   -0.005797
   6 C :    0.096312
   7 H :    0.025092
   8 H :    0.032910
   9 C :   -0.113147
  10 H :    0.027074
  11 H :    0.041485
  12 C :   -0.085969
  13 H :    0.051757
  14 H :    0.043331
  15 H :    0.050299
  16 S :    0.126634
  17 C :   -0.090735
  18 C :   -0.060224
  19 C :   -0.035835
  20 C :   -0.184277
  21 H :    0.038612
  22 C :    0.086927
  23 H :    0.037088
  24 H :    0.017312
  25 C :   -0.102243
  26 H :    0.042001
  27 H :    0.049073
  28 C :   -0.020905
  29 H :    0.013215
  30 H :    0.036044
  31 H :    0.009681
  32 H :    0.049771
  33 H :    0.059476
Sum of atomic charges:    0.0000000

LOEWDIN ATOMIC CHARGES
----------------------
   0 S :    0.435227
   1 C :   -0.205286
   2 C :   -0.060240
   3 C :   -0.073854
   4 C :   -0.217212
   5 H :    0.023535
   6 C :   -0.032412
   7 H :    0.034024
   8 H :    0.032224
   9 C :   -0.051015
  10 H :    0.023616
  11 H :    0.023202
  12 C :   -0.076309
  13 H :    0.032718
  14 H :    0.029405
  15 H :    0.032321
  16 S :    0.438717
  17 C :   -0.195593
  18 C :   -0.075326
  19 C :   -0.051121
  20 C :   -0.211335
  21 H :    0.041041
  22 C :   -0.025339
  23 H :    0.030075
  24 H :    0.029317
  25 C :   -0.042842
  26 H :    0.031608
  27 H :    0.025794
  28 C :   -0.072864
  29 H :    0.023532
  30 H :    0.028178
  31 H :    0.021270
  32 H :    0.023860
  33 H :    0.031082

  Mayer bond orders larger than 0.100000
B(  0-S ,  1-C ) :   1.1548 B(  0-S ,  4-C ) :   1.1825 B(  1-C ,  2-C ) :   1.5688
B(  1-C , 32-H ) :   0.9692 B(  2-C ,  3-C ) :   1.2656 B(  2-C ,  6-C ) :   1.0405
B(  3-C ,  4-C ) :   1.5321 B(  3-C ,  5-H ) :   1.0079 B(  4-C , 20-C ) :   1.0241
B(  6-C ,  7-H ) :   0.9408 B(  6-C ,  8-H ) :   0.9462 B(  6-C ,  9-C ) :   1.0357
B(  9-C , 10-H ) :   0.9607 B(  9-C , 11-H ) :   0.9686 B(  9-C , 12-C ) :   1.0598
B( 12-C , 13-H ) :   0.9761 B( 12-C , 14-H ) :   0.9789 B( 12-C , 15-H ) :   0.9761
B( 16-S , 17-C ) :   1.1551 B( 16-S , 20-C ) :   1.1652 B( 17-C , 18-C ) :   1.6193
B( 17-C , 33-H ) :   0.9658 B( 18-C , 19-C ) :   1.2482 B( 18-C , 21-H ) :   0.9794
B( 19-C , 20-C ) :   1.5927 B( 19-C , 22-C ) :   1.0166 B( 22-C , 23-H ) :   0.9374
B( 22-C , 24-H ) :   0.9389 B( 22-C , 25-C ) :   1.0553 B( 25-C , 26-H ) :   0.9561
B( 25-C , 27-H ) :   0.9551 B( 25-C , 28-C ) :   1.0926 B( 28-C , 29-H ) :   0.9677
B( 28-C , 30-H ) :   0.9729 B( 28-C , 31-H ) :   0.9669

Dispersion correction           -0.015299272
FINAL SINGLE POINT ENERGY     -1339.871212412095

DIPOLE MOMENT
-------------
                                X             Y             Z
Electronic contribution:     18.51062      -6.71275     -26.27561
Nuclear contribution   :    -18.80832       7.02278      26.81513
                        -----------------------------------------
Total Dipole Moment    :     -0.29770       0.31003       0.53953
                        -----------------------------------------
Magnitude (a.u.)       :      0.68981
Magnitude (Debye)      :      1.75335

Rotational constants in cm-1:     0.019470     0.009511     0.007117
Rotational constants in MHz :   583.710454   285.138735   213.352304

                             ****ORCA TERMINATED NORMALLY****
TOTAL RUN TIME: 0 days 0 hours 0 minutes 32 seconds 57 msec
