                         Program Version 4.2.1 -  RELEASE  -
|  1> ! wB97X-D3 SP def2-SVP
|  2> %pal
|  3> nprocs 16
|  4> end
|  5>
|  6> * xyz 0 1
|  7> S 	 1.5033 	 -23.6444 	 60.5489
|  8> C 	 2.84886 	 -23.1666 	 59.4565
|  9> C 	 3.01578 	 -21.8213 	 59.6304
| 10> C 	 2.45975 	 -21.3437 	 60.8289
| 11> C 	 1.57269 	 -22.244 	 61.4366
| 12> H 	 2.47889 	 -20.403 	 61.2871
| 13> C 	 3.85051 	 -20.995 	 58.6672
| 14> H 	 3.4562 	 -19.976 	 58.7959
| 15> H 	 3.5903 	 -21.2298 	 57.5991
| 16> C 	 5.36889 	 -20.9079 	 58.8411
| 17> H 	 5.75446 	 -21.9605 	 58.8495
| 18> H 	 5.9289 	 -20.4198 	 57.981
| 19> C 	 5.89147 	 -20.1539 	 60.1067
| 20> H 	 5.37517 	 -20.5081 	 60.9454
| 21> H 	 6.95999 	 -20.1532 	 60.3101
| 22> H 	 5.45836 	 -19.1573 	 59.9843
| 23> S 	 -0.948234 	 -22.4807 	 62.4318
| 24> C 	 -1.30738 	 -22.0307 	 64.0622
| 25> C 	 -0.0977363 	 -21.6544 	 64.7398
| 26> C 	 1.05831 	 -21.8416 	 63.9297
| 27> C 	 0.784144 	 -22.196 	 62.6541
| 28> H 	 -0.00504554 	 -21.1452 	 65.6874
| 29> C 	 2.54133 	 -21.552 	 64.4593
| 30> H 	 2.54039 	 -20.5559 	 64.8319
| 31> H 	 3.21208 	 -21.4121 	 63.6376
| 32> C 	 3.08769 	 -22.5898 	 65.5149
| 33> H 	 2.51782 	 -22.2793 	 66.36
| 34> H 	 4.095 	 -22.5798 	 65.9283
| 35> C 	 2.91451 	 -24.0523 	 65.1652
| 36> H 	 3.2399 	 -24.1955 	 64.1322
| 37> H 	 1.89285 	 -24.4173 	 65.3701
| 38> H 	 3.60573 	 -24.6706 	 65.7893
| 39> H 	 3.43888 	 -23.8865 	 58.8365
| 40> H 	 -2.33256 	 -21.7729 	 64.3814
| 41> *
| 42>
| 43>                          ****END OF INPUT****

CARTESIAN COORDINATES (ANGSTROEM)
---------------------------------
  S      1.503300  -23.644400   60.548900
  C      2.848860  -23.166600   59.456500
  C      3.015780  -21.821300   59.630400
  C      2.459750  -21.343700   60.828900
  C      1.572690  -22.244000   61.436600
  H      2.478890  -20.403000   61.287100
  C      3.850510  -20.995000   58.667200
  H      3.456200  -19.976000   58.795900
  H      3.590300  -21.229800   57.599100
  C      5.368890  -20.907900   58.841100
  H      5.754460  -21.960500   58.849500
  H      5.928900  -20.419800   57.981000
  C      5.891470  -20.153900   60.106700
  H      5.375170  -20.508100   60.945400
  H      6.959990  -20.153200   60.310100
  H      5.458360  -19.157300   59.984300
  S     -0.948234  -22.480700   62.431800
  C     -1.307380  -22.030700   64.062200
  C     -0.097736  -21.654400   64.739800
  C      1.058310  -21.841600   63.929700
  C      0.784144  -22.196000   62.654100
  H     -0.005046  -21.145200   65.687400
  C      2.541330  -21.552000   64.459300
  H      2.540390  -20.555900   64.831900
  H      3.212080  -21.412100   63.637600
  C      3.087690  -22.589800   65.514900
  H      2.517820  -22.279300   66.360000
  H      4.095000  -22.579800   65.928300
  C      2.914510  -24.052300   65.165200
  H      3.239900  -24.195500   64.132200
  H      1.892850  -24.417300   65.370100
  H      3.605730  -24.670600   65.789300
  H      3.438880  -23.886500   58.836500
  H     -2.332560  -21.772900   64.381400

 Total Charge           Charge          ....    0
 Multiplicity           Mult            ....    1
 Number of Electrons    NEL             ....  134
 Basis Dimension        Dim             ....  322

ORBITAL ENERGIES
----------------

  NO   OCC          E(Eh)            E(eV)
   0   2.0000     -88.967790     -2420.9366
   1   2.0000     -88.962221     -2420.7851
   2   2.0000     -10.327708      -281.0312
   3   2.0000     -10.327584      -281.0278
   4   2.0000     -10.326003      -280.9848
   5   2.0000     -10.318898      -280.7915
   6   2.0000     -10.306841      -280.4634
   7   2.0000     -10.304517      -280.4002
   8   2.0000     -10.302629      -280.3488
   9   2.0000     -10.298602      -280.2392
  10   2.0000     -10.296482      -280.1815
  11   2.0000     -10.295936      -280.1667
  12   2.0000     -10.291965      -280.0586
  13   2.0000     -10.281787      -279.7817
  14   2.0000     -10.274785      -279.5911
  15   2.0000     -10.273326      -279.5514
  16   2.0000      -8.082810      -219.9444
  17   2.0000      -8.078450      -219.8258
  18   2.0000      -6.041262      -164.3911
  19   2.0000      -6.037199      -164.2805
  20   2.0000      -6.036690      -164.2667
  21   2.0000      -6.033666      -164.1844
  22   2.0000      -6.032638      -164.1564
  23   2.0000      -6.029448      -164.0696
  24   2.0000      -1.017048       -27.6753
  25   2.0000      -0.988643       -26.9023
  26   2.0000      -0.912614       -24.8335
  27   2.0000      -0.900485       -24.5034
  28   2.0000      -0.869993       -23.6737
  29   2.0000      -0.852045       -23.1853
  30   2.0000      -0.840522       -22.8718
  31   2.0000      -0.813076       -22.1249
  32   2.0000      -0.786901       -21.4127
  33   2.0000      -0.778338       -21.1797
  34   2.0000      -0.703021       -19.1302
  35   2.0000      -0.698660       -19.0115
  36   2.0000      -0.693575       -18.8731
  37   2.0000      -0.666731       -18.1427
  38   2.0000      -0.645973       -17.5778
  39   2.0000      -0.612427       -16.6650
  40   2.0000      -0.592853       -16.1324
  41   2.0000      -0.570883       -15.5345
  42   2.0000      -0.554579       -15.0909
  43   2.0000      -0.551695       -15.0124
  44   2.0000      -0.546698       -14.8764
  45   2.0000      -0.538077       -14.6418
  46   2.0000      -0.519549       -14.1376
  47   2.0000      -0.514685       -14.0053
  48   2.0000      -0.505564       -13.7571
  49   2.0000      -0.497972       -13.5505
  50   2.0000      -0.487485       -13.2651
  51   2.0000      -0.477344       -12.9892
  52   2.0000      -0.472110       -12.8468
  53   2.0000      -0.466403       -12.6915
  54   2.0000      -0.457914       -12.4605
  55   2.0000      -0.449014       -12.2183
  56   2.0000      -0.444391       -12.0925
  57   2.0000      -0.438513       -11.9325
  58   2.0000      -0.428045       -11.6477
  59   2.0000      -0.420605       -11.4452
  60   2.0000      -0.414190       -11.2707
  61   2.0000      -0.405997       -11.0477
  62   2.0000      -0.404503       -11.0071
  63   2.0000      -0.349405        -9.5078
  64   2.0000      -0.335751        -9.1362
  65   2.0000      -0.330081        -8.9820
  66   2.0000      -0.290333        -7.9004
  67   0.0000       0.030593         0.8325
  68   0.0000       0.054714         1.4888
  69   0.0000       0.099768         2.7148
  70   0.0000       0.119532         3.2526
  71   0.0000       0.123790         3.3685

MULLIKEN ATOMIC CHARGES
-----------------------
   0 S :    0.102449
   1 C :   -0.160398
   2 C :   -0.061204
   3 C :    0.057130
   4 C :   -0.160001
   5 H :   -0.011801
   6 C :    0.047671
   7 H :    0.019332
   8 H :    0.046157
   9 C :   -0.093992
  10 H :    0.025832
  11 H :    0.042014
  12 C :   -0.031996
  13 H :    0.013505
  14 H :    0.049253
  15 H :    0.018201
  16 S :    0.107685
  17 C :   -0.098136
  18 C :   -0.044796
  19 C :   -0.057761
  20 C :   -0.150222
  21 H :    0.024100
  22 C :    0.102451
  23 H :    0.017362
  24 H :    0.010354
  25 C :   -0.068108
  26 H :    0.010633
  27 H :    0.028573
  28 C :   -0.056853
  29 H :    0.038317
  30 H :    0.046600
  31 H :    0.028326
  32 H :    0.078563
  33 H :    0.080757
Sum of atomic charges:   -0.0000000

LOEWDIN ATOMIC CHARGES
----------------------
   0 S :    0.430617
   1 C :   -0.188699
   2 C :   -0.065708
   3 C :   -0.070286
   4 C :   -0.215896
   5 H :    0.022520
   6 C :   -0.038080
   7 H :    0.030348
   8 H :    0.041675
   9 C :   -0.047370
  10 H :    0.020966
  11 H :    0.030648
  12 C :   -0.065677
  13 H :    0.014857
  14 H :    0.030121
  15 H :    0.025406
  16 S :    0.411730
  17 C :   -0.198363
  18 C :   -0.068176
  19 C :   -0.057639
  20 C :   -0.194193
  21 H :    0.030963
  22 C :   -0.019521
  23 H :    0.025973
  24 H :    0.021015
  25 C :   -0.050365
  26 H :    0.016797
  27 H :    0.029663
  28 C :   -0.067537
  29 H :    0.028412
  30 H :    0.028734
  31 H :    0.027962
  32 H :    0.042255
  33 H :    0.036847

  Mayer bond orders larger than 0.100000
B(  0-S ,  1-C ) :   1.1399 B(  0-S ,  4-C ) :   1.1993 B(  1-C ,  2-C ) :   1.5716
B(  1-C ,  4-C ) :   0.1111 B(  1-C , 32-H ) :   0.9745 B(  2-C ,  3-C ) :   1.2411
B(  2-C ,  6-C ) :   1.0132 B(  3-C ,  4-C ) :   1.5440 B(  3-C ,  5-H ) :   1.0075
B(  4-C , 20-C ) :   0.9915 B(  6-C ,  7-H ) :   0.9407 B(  6-C ,  8-H ) :   0.9439
B(  6-C ,  9-C ) :   1.0661 B(  9-C , 10-H ) :   0.9561 B(  9-C , 11-H ) :   0.9580
B(  9-C , 12-C ) :   1.0661 B( 12-C , 13-H ) :   0.9768 B( 12-C , 14-H ) :   0.9753
B( 12-C , 15-H ) :   0.9729 B( 16-S , 17-C ) :   1.1711 B( 16-S , 20-C ) :   1.1443
B( 17-C , 18-C ) :   1.5651 B( 17-C , 20-C ) :   0.1085 B( 17-C , 33-H ) :   0.9657
B( 18-C , 19-C ) :   1.2570 B( 18-C , 21-H ) :   0.9863 B( 19-C , 20-C ) :   1.6342
B( 19-C , 22-C ) :   1.0185 B( 22-C , 23-H ) :   0.9434 B( 22-C , 24-H ) :   0.9414
B( 22-C , 25-C ) :   1.0407 B( 25-C , 26-H ) :   0.9594 B( 25-C , 27-H ) :   0.9655
B( 25-C , 28-C ) :   1.0786 B( 28-C , 29-H ) :   0.9762 B( 28-C , 30-H ) :   0.9726
B( 28-C , 31-H ) :   0.9773

Dispersion correction           -0.014911222
FINAL SINGLE POINT ENERGY     -1339.844810949924

DIPOLE MOMENT
-------------
                                X             Y             Z
Electronic contribution:    -24.20191      -7.59738      -4.98089
Nuclear contribution   :     24.62928       8.06260       5.11807
                        -----------------------------------------
Total Dipole Moment    :      0.42738       0.46522       0.13718
                        -----------------------------------------
Magnitude (a.u.)       :      0.64645
Magnitude (Debye)      :      1.64315

Rotational constants in cm-1:     0.019767     0.008738     0.007261
Rotational constants in MHz :   592.606111   261.969499   217.675912

                             ****ORCA TERMINATED NORMALLY****
TOTAL RUN TIME: 0 days 0 hours 0 minutes 34 seconds 866 msec
