                         Program Version 4.2.1 -  RELEASE  -
|  1> ! wB97X-D3 SP def2-SVP
|  2> %pal
|  3> nprocs 16
|  4> end
|  5>
|  6> * xyz 0 1
|  7> S 	 17.0211 	 12.1539 	 87.9243
|  8> C 	 18.1327 	 12.1416 	 86.5555
|  9> C 	 17.4634 	 11.8086 	 85.3438
| 10> C 	 16.0887 	 11.6846 	 85.5264
| 11> C 	 15.6835 	 11.8993 	 86.855
| 12> H 	 15.3338 	 11.4842 	 84.8525
| 13> C 	 18.0666 	 11.6694 	 83.9337
| 14> H 	 17.3304 	 11.3443 	 83.2168
| 15> H 	 18.804 	 10.8545 	 84.0108
| 16> C 	 18.9016 	 12.8943 	 83.3821
| 17> H 	 19.8687 	 12.9203 	 83.8622
| 18> H 	 19.1506 	 12.9628 	 82.3516
| 19> C 	 18.2282 	 14.2697 	 83.7053
| 20> H 	 17.193 	 14.3088 	 83.3041
| 21> H 	 18.2176 	 14.4602 	 84.7392
| 22> H 	 18.9448 	 15.017 	 83.2972
| 23> S 	 14.1093 	 13.5059 	 88.3728
| 24> C 	 12.4113 	 13.1008 	 88.5279
| 25> C 	 12.0173 	 12.1111 	 87.6969
| 26> C 	 13.1177 	 11.512 	 87.0136
| 27> C 	 14.3462 	 12.062 	 87.4125
| 28> H 	 10.984 	 11.9086 	 87.5142
| 29> C 	 12.863 	 10.2538 	 86.2175
| 30> H 	 12.2572 	 9.65767 	 86.9319
| 31> H 	 13.7332 	 9.75195 	 85.928
| 32> C 	 11.9423 	 10.3899 	 84.946
| 33> H 	 10.9307 	 10.6121 	 85.2607
| 34> H 	 11.7028 	 9.41175 	 84.4501
| 35> C 	 12.407 	 11.4257 	 83.8676
| 36> H 	 11.5769 	 11.616 	 83.1574
| 37> H 	 13.4129 	 11.1262 	 83.4059
| 38> H 	 12.6235 	 12.3798 	 84.3449
| 39> H 	 19.1609 	 12.0886 	 86.5094
| 40> H 	 11.6533 	 13.6648 	 89.0593
| 41> *
| 42>
| 43>                          ****END OF INPUT****

CARTESIAN COORDINATES (ANGSTROEM)
---------------------------------
  S     17.021100   12.153900   87.924300
  C     18.132700   12.141600   86.555500
  C     17.463400   11.808600   85.343800
  C     16.088700   11.684600   85.526400
  C     15.683500   11.899300   86.855000
  H     15.333800   11.484200   84.852500
  C     18.066600   11.669400   83.933700
  H     17.330400   11.344300   83.216800
  H     18.804000   10.854500   84.010800
  C     18.901600   12.894300   83.382100
  H     19.868700   12.920300   83.862200
  H     19.150600   12.962800   82.351600
  C     18.228200   14.269700   83.705300
  H     17.193000   14.308800   83.304100
  H     18.217600   14.460200   84.739200
  H     18.944800   15.017000   83.297200
  S     14.109300   13.505900   88.372800
  C     12.411300   13.100800   88.527900
  C     12.017300   12.111100   87.696900
  C     13.117700   11.512000   87.013600
  C     14.346200   12.062000   87.412500
  H     10.984000   11.908600   87.514200
  C     12.863000   10.253800   86.217500
  H     12.257200    9.657670   86.931900
  H     13.733200    9.751950   85.928000
  C     11.942300   10.389900   84.946000
  H     10.930700   10.612100   85.260700
  H     11.702800    9.411750   84.450100
  C     12.407000   11.425700   83.867600
  H     11.576900   11.616000   83.157400
  H     13.412900   11.126200   83.405900
  H     12.623500   12.379800   84.344900
  H     19.160900   12.088600   86.509400
  H     11.653300   13.664800   89.059300

 Total Charge           Charge          ....    0
 Multiplicity           Mult            ....    1
 Number of Electrons    NEL             ....  134
 Basis Dimension        Dim             ....  322

ORBITAL ENERGIES
----------------

  NO   OCC          E(Eh)            E(eV)
   0   2.0000     -88.973612     -2421.0951
   1   2.0000     -88.967240     -2420.9217
   2   2.0000     -10.329154      -281.0706
   3   2.0000     -10.327632      -281.0292
   4   2.0000     -10.314027      -280.6589
   5   2.0000     -10.311053      -280.5780
   6   2.0000     -10.305353      -280.4229
   7   2.0000     -10.304696      -280.4050
   8   2.0000     -10.298108      -280.2258
   9   2.0000     -10.295735      -280.1612
  10   2.0000     -10.294092      -280.1165
  11   2.0000     -10.289142      -279.9818
  12   2.0000     -10.288904      -279.9753
  13   2.0000     -10.287763      -279.9443
  14   2.0000     -10.285373      -279.8792
  15   2.0000     -10.271069      -279.4900
  16   2.0000      -8.087700      -220.0775
  17   2.0000      -8.081982      -219.9219
  18   2.0000      -6.046150      -164.5241
  19   2.0000      -6.042154      -164.4154
  20   2.0000      -6.040524      -164.3710
  21   2.0000      -6.038717      -164.3219
  22   2.0000      -6.036690      -164.2667
  23   2.0000      -6.032468      -164.1518
  24   2.0000      -1.009428       -27.4679
  25   2.0000      -0.984467       -26.7887
  26   2.0000      -0.906631       -24.6707
  27   2.0000      -0.902711       -24.5640
  28   2.0000      -0.867361       -23.6021
  29   2.0000      -0.851950       -23.1827
  30   2.0000      -0.844988       -22.9933
  31   2.0000      -0.812835       -22.1184
  32   2.0000      -0.783387       -21.3170
  33   2.0000      -0.773286       -21.0422
  34   2.0000      -0.709854       -19.3161
  35   2.0000      -0.703008       -19.1298
  36   2.0000      -0.693823       -18.8799
  37   2.0000      -0.662828       -18.0365
  38   2.0000      -0.642866       -17.4933
  39   2.0000      -0.616076       -16.7643
  40   2.0000      -0.593960       -16.1625
  41   2.0000      -0.571604       -15.5541
  42   2.0000      -0.555772       -15.1233
  43   2.0000      -0.545849       -14.8533
  44   2.0000      -0.542550       -14.7635
  45   2.0000      -0.535614       -14.5748
  46   2.0000      -0.514287       -13.9945
  47   2.0000      -0.507094       -13.7987
  48   2.0000      -0.500762       -13.6264
  49   2.0000      -0.496526       -13.5112
  50   2.0000      -0.490538       -13.3482
  51   2.0000      -0.478575       -13.0227
  52   2.0000      -0.473046       -12.8722
  53   2.0000      -0.464889       -12.6503
  54   2.0000      -0.460155       -12.5215
  55   2.0000      -0.450244       -12.2518
  56   2.0000      -0.446697       -12.1552
  57   2.0000      -0.435210       -11.8427
  58   2.0000      -0.431686       -11.7468
  59   2.0000      -0.427901       -11.6438
  60   2.0000      -0.420392       -11.4394
  61   2.0000      -0.415068       -11.2946
  62   2.0000      -0.413717       -11.2578
  63   2.0000      -0.352141        -9.5822
  64   2.0000      -0.336447        -9.1552
  65   2.0000      -0.328860        -8.9487
  66   2.0000      -0.283484        -7.7140
  67   0.0000       0.021149         0.5755
  68   0.0000       0.071078         1.9341
  69   0.0000       0.103505         2.8165
  70   0.0000       0.109852         2.9892
  71   0.0000       0.127030         3.4567

MULLIKEN ATOMIC CHARGES
-----------------------
   0 S :    0.126409
   1 C :   -0.063465
   2 C :   -0.118255
   3 C :    0.085024
   4 C :   -0.179886
   5 H :   -0.064971
   6 C :    0.086393
   7 H :    0.025792
   8 H :    0.036438
   9 C :   -0.083024
  10 H :    0.017070
  11 H :    0.028880
  12 C :   -0.056059
  13 H :    0.042191
  14 H :    0.028908
  15 H :    0.031104
  16 S :    0.107737
  17 C :   -0.071301
  18 C :   -0.036507
  19 C :   -0.045258
  20 C :   -0.119810
  21 H :    0.015155
  22 C :    0.072309
  23 H :    0.044104
  24 H :    0.017834
  25 C :   -0.096344
  26 H :    0.012256
  27 H :    0.033460
  28 C :   -0.084762
  29 H :    0.048474
  30 H :    0.055317
  31 H :    0.042291
  32 H :    0.012511
  33 H :    0.049986
Sum of atomic charges:   -0.0000000

LOEWDIN ATOMIC CHARGES
----------------------
   0 S :    0.427474
   1 C :   -0.199333
   2 C :   -0.049269
   3 C :   -0.058600
   4 C :   -0.193553
   5 H :    0.015087
   6 C :   -0.029226
   7 H :    0.027965
   8 H :    0.036414
   9 C :   -0.040345
  10 H :    0.019776
  11 H :    0.021584
  12 C :   -0.065236
  13 H :    0.028041
  14 H :    0.015294
  15 H :    0.028805
  16 S :    0.404361
  17 C :   -0.179827
  18 C :   -0.067271
  19 C :   -0.057240
  20 C :   -0.204015
  21 H :    0.030116
  22 C :   -0.025563
  23 H :    0.043313
  24 H :    0.019438
  25 C :   -0.046620
  26 H :    0.015855
  27 H :    0.029709
  28 C :   -0.076737
  29 H :    0.033029
  30 H :    0.030499
  31 H :    0.024761
  32 H :    0.011446
  33 H :    0.029866

  Mayer bond orders larger than 0.100000
B(  0-S ,  1-C ) :   1.1423 B(  0-S ,  4-C ) :   1.1776 B(  1-C ,  2-C ) :   1.5710
B(  1-C ,  4-C ) :   0.1123 B(  1-C , 32-H ) :   0.9705 B(  2-C ,  3-C ) :   1.2776
B(  2-C ,  6-C ) :   1.0177 B(  3-C ,  4-C ) :   1.5271 B(  3-C ,  5-H ) :   1.0033
B(  4-C , 20-C ) :   1.0334 B(  6-C ,  7-H ) :   0.9502 B(  6-C ,  8-H ) :   0.9381
B(  6-C ,  9-C ) :   1.0539 B(  9-C , 10-H ) :   0.9541 B(  9-C , 11-H ) :   0.9658
B(  9-C , 12-C ) :   1.0852 B( 12-C , 13-H ) :   0.9793 B( 12-C , 14-H ) :   0.9706
B( 12-C , 15-H ) :   0.9750 B( 16-S , 17-C ) :   1.1370 B( 16-S , 20-C ) :   1.1381
B( 17-C , 18-C ) :   1.6447 B( 17-C , 33-H ) :   0.9625 B( 18-C , 19-C ) :   1.2217
B( 18-C , 21-H ) :   0.9924 B( 19-C , 20-C ) :   1.5893 B( 19-C , 22-C ) :   1.0406
B( 22-C , 23-H ) :   0.9415 B( 22-C , 24-H ) :   0.9443 B( 22-C , 25-C ) :   1.0619
B( 25-C , 26-H ) :   0.9550 B( 25-C , 27-H ) :   0.9567 B( 25-C , 28-C ) :   1.0708
B( 28-C , 29-H ) :   0.9715 B( 28-C , 30-H ) :   0.9672 B( 28-C , 31-H ) :   0.9736

Dispersion correction           -0.015219581
FINAL SINGLE POINT ENERGY     -1339.860413147572

DIPOLE MOMENT
-------------
                                X             Y             Z
Electronic contribution:      1.00293       3.16521      25.38900
Nuclear contribution   :     -1.31051      -3.37154     -25.92697
                        -----------------------------------------
Total Dipole Moment    :     -0.30758      -0.20633      -0.53797
                        -----------------------------------------
Magnitude (a.u.)       :      0.65314
Magnitude (Debye)      :      1.66015

Rotational constants in cm-1:     0.019162     0.009191     0.007265
Rotational constants in MHz :   574.475480   275.526965   217.792304

                             ****ORCA TERMINATED NORMALLY****
TOTAL RUN TIME: 0 days 0 hours 0 minutes 36 seconds 95 msec
