                         Program Version 4.2.1 -  RELEASE  -
|  1> ! wB97X-D3 SP def2-SVP
|  2> %pal
|  3> nprocs 16
|  4> end
|  5>
|  6> * xyz 0 1
|  7> S 	 -16.1585 	 74.6441 	 54.7484
|  8> C 	 -16.4763 	 73.8503 	 53.1598
|  9> C 	 -15.5842 	 72.8223 	 52.8737
| 10> C 	 -14.6461 	 72.691 	 53.9889
| 11> C 	 -14.7052 	 73.6427 	 54.9592
| 12> H 	 -13.8378 	 71.9734 	 53.8607
| 13> C 	 -15.6717 	 71.7772 	 51.7526
| 14> H 	 -16.6155 	 71.807 	 51.2344
| 15> H 	 -15.8085 	 70.7998 	 52.3298
| 16> C 	 -14.4718 	 71.6508 	 50.8179
| 17> H 	 -14.4612 	 72.5225 	 50.1719
| 18> H 	 -13.5891 	 71.578 	 51.4438
| 19> C 	 -14.5589 	 70.3587 	 50.0634
| 20> H 	 -15.5525 	 70.3082 	 49.6022
| 21> H 	 -13.7488 	 70.3139 	 49.2434
| 22> H 	 -14.5584 	 69.3901 	 50.6342
| 23> S 	 -14.7475 	 74.0123 	 57.5793
| 24> C 	 -13.2574 	 74.2093 	 58.4944
| 25> C 	 -12.1327 	 74.0706 	 57.7047
| 26> C 	 -12.5396 	 73.5389 	 56.3943
| 27> C 	 -13.9007 	 73.6627 	 56.1296
| 28> H 	 -11.1467 	 74.1815 	 58.1859
| 29> C 	 -11.4731 	 73.3609 	 55.3078
| 30> H 	 -11.7772 	 72.672 	 54.5019
| 31> H 	 -10.593 	 72.8082 	 55.6488
| 32> C 	 -10.8485 	 74.5733 	 54.6879
| 33> H 	 -10.0337 	 74.1454 	 54.0494
| 34> H 	 -10.414 	 75.1217 	 55.4659
| 35> C 	 -11.863 	 75.4721 	 53.9737
| 36> H 	 -12.2438 	 74.9251 	 53.0872
| 37> H 	 -11.4975 	 76.4081 	 53.6025
| 38> H 	 -12.7526 	 75.7256 	 54.5763
| 39> H 	 -17.3682 	 74.0442 	 52.5479
| 40> H 	 -13.1488 	 74.506 	 59.5702
| 41> *
| 42>
| 43>                          ****END OF INPUT****

CARTESIAN COORDINATES (ANGSTROEM)
---------------------------------
  S    -16.158500   74.644100   54.748400
  C    -16.476300   73.850300   53.159800
  C    -15.584200   72.822300   52.873700
  C    -14.646100   72.691000   53.988900
  C    -14.705200   73.642700   54.959200
  H    -13.837800   71.973400   53.860700
  C    -15.671700   71.777200   51.752600
  H    -16.615500   71.807000   51.234400
  H    -15.808500   70.799800   52.329800
  C    -14.471800   71.650800   50.817900
  H    -14.461200   72.522500   50.171900
  H    -13.589100   71.578000   51.443800
  C    -14.558900   70.358700   50.063400
  H    -15.552500   70.308200   49.602200
  H    -13.748800   70.313900   49.243400
  H    -14.558400   69.390100   50.634200
  S    -14.747500   74.012300   57.579300
  C    -13.257400   74.209300   58.494400
  C    -12.132700   74.070600   57.704700
  C    -12.539600   73.538900   56.394300
  C    -13.900700   73.662700   56.129600
  H    -11.146700   74.181500   58.185900
  C    -11.473100   73.360900   55.307800
  H    -11.777200   72.672000   54.501900
  H    -10.593000   72.808200   55.648800
  C    -10.848500   74.573300   54.687900
  H    -10.033700   74.145400   54.049400
  H    -10.414000   75.121700   55.465900
  C    -11.863000   75.472100   53.973700
  H    -12.243800   74.925100   53.087200
  H    -11.497500   76.408100   53.602500
  H    -12.752600   75.725600   54.576300
  H    -17.368200   74.044200   52.547900
  H    -13.148800   74.506000   59.570200

 Total Charge           Charge          ....    0
 Multiplicity           Mult            ....    1
 Number of Electrons    NEL             ....  134
 Basis Dimension        Dim             ....  322

ORBITAL ENERGIES
----------------

  NO   OCC          E(Eh)            E(eV)
   0   2.0000     -88.970170     -2421.0014
   1   2.0000     -88.965452     -2420.8730
   2   2.0000     -10.331302      -281.1290
   3   2.0000     -10.326105      -280.9876
   4   2.0000     -10.321497      -280.8622
   5   2.0000     -10.320751      -280.8419
   6   2.0000     -10.309872      -280.5459
   7   2.0000     -10.307591      -280.4838
   8   2.0000     -10.301993      -280.3315
   9   2.0000     -10.300868      -280.3009
  10   2.0000     -10.294292      -280.1219
  11   2.0000     -10.289648      -279.9956
  12   2.0000     -10.289256      -279.9849
  13   2.0000     -10.285855      -279.8924
  14   2.0000     -10.279004      -279.7059
  15   2.0000     -10.267168      -279.3838
  16   2.0000      -8.083394      -219.9603
  17   2.0000      -8.080795      -219.8896
  18   2.0000      -6.042229      -164.4174
  19   2.0000      -6.039385      -164.3400
  20   2.0000      -6.038257      -164.3093
  21   2.0000      -6.035167      -164.2253
  22   2.0000      -6.033743      -164.1865
  23   2.0000      -6.031461      -164.1244
  24   2.0000      -1.009697       -27.4753
  25   2.0000      -0.978275       -26.6202
  26   2.0000      -0.918365       -24.9900
  27   2.0000      -0.910059       -24.7640
  28   2.0000      -0.876442       -23.8492
  29   2.0000      -0.847134       -23.0517
  30   2.0000      -0.839250       -22.8372
  31   2.0000      -0.813537       -22.1375
  32   2.0000      -0.780440       -21.2369
  33   2.0000      -0.772186       -21.0122
  34   2.0000      -0.711465       -19.3599
  35   2.0000      -0.699389       -19.0313
  36   2.0000      -0.687421       -18.7057
  37   2.0000      -0.658634       -17.9223
  38   2.0000      -0.635619       -17.2961
  39   2.0000      -0.625671       -17.0254
  40   2.0000      -0.598178       -16.2772
  41   2.0000      -0.569717       -15.5028
  42   2.0000      -0.565528       -15.3888
  43   2.0000      -0.545400       -14.8411
  44   2.0000      -0.540525       -14.7084
  45   2.0000      -0.527091       -14.3429
  46   2.0000      -0.517014       -14.0687
  47   2.0000      -0.507092       -13.7987
  48   2.0000      -0.503591       -13.7034
  49   2.0000      -0.499013       -13.5788
  50   2.0000      -0.491834       -13.3835
  51   2.0000      -0.479113       -13.0373
  52   2.0000      -0.466678       -12.6990
  53   2.0000      -0.458228       -12.4690
  54   2.0000      -0.451838       -12.2951
  55   2.0000      -0.445971       -12.1355
  56   2.0000      -0.445459       -12.1215
  57   2.0000      -0.437309       -11.8998
  58   2.0000      -0.430775       -11.7220
  59   2.0000      -0.423901       -11.5349
  60   2.0000      -0.421466       -11.4687
  61   2.0000      -0.413080       -11.2405
  62   2.0000      -0.407128       -11.0785
  63   2.0000      -0.356708        -9.7065
  64   2.0000      -0.331208        -9.0126
  65   2.0000      -0.329268        -8.9598
  66   2.0000      -0.288333        -7.8459
  67   0.0000       0.022778         0.6198
  68   0.0000       0.070961         1.9309
  69   0.0000       0.105810         2.8792
  70   0.0000       0.112128         3.0512
  71   0.0000       0.125168         3.4060

MULLIKEN ATOMIC CHARGES
-----------------------
   0 S :    0.100222
   1 C :   -0.135498
   2 C :   -0.062023
   3 C :    0.010447
   4 C :   -0.105020
   5 H :    0.017014
   6 C :   -0.002492
   7 H :    0.014347
   8 H :    0.043325
   9 C :   -0.014838
  10 H :    0.041979
  11 H :    0.026804
  12 C :   -0.092351
  13 H :    0.022785
  14 H :    0.050810
  15 H :    0.041796
  16 S :    0.102180
  17 C :   -0.113304
  18 C :   -0.044628
  19 C :   -0.031264
  20 C :   -0.131932
  21 H :    0.041918
  22 C :    0.014729
  23 H :    0.008233
  24 H :    0.013474
  25 C :   -0.030059
  26 H :    0.034789
  27 H :    0.007350
  28 C :   -0.048691
  29 H :    0.022825
  30 H :    0.023262
  31 H :    0.045707
  32 H :    0.054306
  33 H :    0.073795
Sum of atomic charges:   -0.0000000

LOEWDIN ATOMIC CHARGES
----------------------
   0 S :    0.367225
   1 C :   -0.182921
   2 C :   -0.059858
   3 C :   -0.057481
   4 C :   -0.185903
   5 H :    0.026388
   6 C :   -0.037065
   7 H :    0.024613
   8 H :    0.043112
   9 C :   -0.039962
  10 H :    0.030419
  11 H :    0.024173
  12 C :   -0.076659
  13 H :    0.022635
  14 H :    0.035296
  15 H :    0.031175
  16 S :    0.414298
  17 C :   -0.193069
  18 C :   -0.070392
  19 C :   -0.056810
  20 C :   -0.200696
  21 H :    0.041236
  22 C :   -0.044280
  23 H :    0.024168
  24 H :    0.031412
  25 C :   -0.035517
  26 H :    0.032124
  27 H :    0.012481
  28 C :   -0.069509
  29 H :    0.026776
  30 H :    0.019165
  31 H :    0.031385
  32 H :    0.031250
  33 H :    0.040791

  Mayer bond orders larger than 0.100000
B(  0-S ,  1-C ) :   1.1084 B(  0-S ,  4-C ) :   1.1069 B(  1-C ,  2-C ) :   1.6485
B(  1-C , 32-H ) :   0.9610 B(  2-C ,  3-C ) :   1.2184 B(  2-C ,  6-C ) :   1.0155
B(  3-C ,  4-C ) :   1.6007 B(  3-C ,  5-H ) :   0.9829 B(  4-C , 20-C ) :   1.0907
B(  6-C ,  7-H ) :   0.9430 B(  6-C ,  8-H ) :   0.9474 B(  6-C ,  9-C ) :   1.0516
B(  9-C , 10-H ) :   0.9511 B(  9-C , 11-H ) :   0.9549 B(  9-C , 12-C ) :   1.0802
B( 12-C , 13-H ) :   0.9707 B( 12-C , 14-H ) :   0.9725 B( 12-C , 15-H ) :   0.9740
B( 16-S , 17-C ) :   1.1398 B( 16-S , 20-C ) :   1.1369 B( 17-C , 18-C ) :   1.6461
B( 17-C , 33-H ) :   0.9597 B( 18-C , 19-C ) :   1.2056 B( 18-C , 21-H ) :   0.9828
B( 19-C , 20-C ) :   1.5813 B( 19-C , 22-C ) :   1.0593 B( 22-C , 23-H ) :   0.9390
B( 22-C , 24-H ) :   0.9267 B( 22-C , 25-C ) :   1.0796 B( 25-C , 26-H ) :   0.9512
B( 25-C , 27-H ) :   0.9495 B( 25-C , 28-C ) :   1.0782 B( 28-C , 29-H ) :   0.9734
B( 28-C , 30-H ) :   0.9748 B( 28-C , 31-H ) :   0.9705

Dispersion correction           -0.015183879
FINAL SINGLE POINT ENERGY     -1339.867273699447

DIPOLE MOMENT
-------------
                                X             Y             Z
Electronic contribution:    -14.04407       9.09770      23.20271
Nuclear contribution   :     14.40828      -9.44109     -23.58424
                        -----------------------------------------
Total Dipole Moment    :      0.36421      -0.34339      -0.38153
                        -----------------------------------------
Magnitude (a.u.)       :      0.62939
Magnitude (Debye)      :      1.59978

Rotational constants in cm-1:     0.020371     0.008785     0.007185
Rotational constants in MHz :   610.712993   263.381508   215.386102

                             ****ORCA TERMINATED NORMALLY****
TOTAL RUN TIME: 0 days 0 hours 0 minutes 33 seconds 255 msec
