                         Program Version 4.2.1 -  RELEASE  -
|  1> ! wB97X-D3 SP def2-SVP
|  2> %pal
|  3> nprocs 16
|  4> end
|  5>
|  6> * xyz 0 1
|  7> S 	 39.8821 	 9.47086 	 83.7961
|  8> C 	 41.1789 	 10.1486 	 82.7667
|  9> C 	 42.4281 	 9.99409 	 83.3502
| 10> C 	 42.327 	 9.36879 	 84.6135
| 11> C 	 41.0468 	 8.87399 	 84.8969
| 12> H 	 43.1518 	 9.22884 	 85.3848
| 13> C 	 43.7199 	 10.5831 	 82.874
| 14> H 	 43.5741 	 10.9943 	 81.8441
| 15> H 	 44.1404 	 9.59331 	 82.7798
| 16> C 	 44.3988 	 11.5689 	 83.8056
| 17> H 	 44.8553 	 11.1599 	 84.6998
| 18> H 	 45.3433 	 11.9297 	 83.3141
| 19> C 	 43.4383 	 12.6647 	 84.212
| 20> H 	 42.4673 	 12.3476 	 84.5224
| 21> H 	 43.9677 	 13.1517 	 85.0483
| 22> H 	 43.4172 	 13.3669 	 83.3138
| 23> S 	 39.4937 	 8.79696 	 87.1148
| 24> C 	 39.7086 	 7.54826 	 88.3272
| 25> C 	 40.8272 	 6.83274 	 88.0543
| 26> C 	 41.4102 	 7.19325 	 86.7929
| 27> C 	 40.7458 	 8.1855 	 86.1282
| 28> H 	 41.2013 	 6.01421 	 88.6951
| 29> C 	 42.5163 	 6.32536 	 86.1878
| 30> H 	 42.7521 	 6.54744 	 85.125
| 31> H 	 42.1457 	 5.29192 	 86.2173
| 32> C 	 43.7905 	 6.38606 	 87.0433
| 33> H 	 43.5602 	 5.8851 	 87.9921
| 34> H 	 43.9656 	 7.41787 	 87.4276
| 35> C 	 45.012 	 5.75049 	 86.3231
| 36> H 	 45.8144 	 5.61855 	 87.0222
| 37> H 	 45.3069 	 6.38247 	 85.4459
| 38> H 	 44.6809 	 4.7403 	 86.0943
| 39> H 	 40.9455 	 10.4918 	 81.7703
| 40> H 	 38.9738 	 7.37497 	 89.1112
| 41> *
| 42>
| 43>                          ****END OF INPUT****

CARTESIAN COORDINATES (ANGSTROEM)
---------------------------------
  S     39.882100    9.470860   83.796100
  C     41.178900   10.148600   82.766700
  C     42.428100    9.994090   83.350200
  C     42.327000    9.368790   84.613500
  C     41.046800    8.873990   84.896900
  H     43.151800    9.228840   85.384800
  C     43.719900   10.583100   82.874000
  H     43.574100   10.994300   81.844100
  H     44.140400    9.593310   82.779800
  C     44.398800   11.568900   83.805600
  H     44.855300   11.159900   84.699800
  H     45.343300   11.929700   83.314100
  C     43.438300   12.664700   84.212000
  H     42.467300   12.347600   84.522400
  H     43.967700   13.151700   85.048300
  H     43.417200   13.366900   83.313800
  S     39.493700    8.796960   87.114800
  C     39.708600    7.548260   88.327200
  C     40.827200    6.832740   88.054300
  C     41.410200    7.193250   86.792900
  C     40.745800    8.185500   86.128200
  H     41.201300    6.014210   88.695100
  C     42.516300    6.325360   86.187800
  H     42.752100    6.547440   85.125000
  H     42.145700    5.291920   86.217300
  C     43.790500    6.386060   87.043300
  H     43.560200    5.885100   87.992100
  H     43.965600    7.417870   87.427600
  C     45.012000    5.750490   86.323100
  H     45.814400    5.618550   87.022200
  H     45.306900    6.382470   85.445900
  H     44.680900    4.740300   86.094300
  H     40.945500   10.491800   81.770300
  H     38.973800    7.374970   89.111200

 Total Charge           Charge          ....    0
 Multiplicity           Mult            ....    1
 Number of Electrons    NEL             ....  134
 Basis Dimension        Dim             ....  322

ORBITAL ENERGIES
----------------

  NO   OCC          E(Eh)            E(eV)
   0   2.0000     -88.967883     -2420.9392
   1   2.0000     -88.958514     -2420.6842
   2   2.0000     -10.327055      -281.0134
   3   2.0000     -10.318255      -280.7740
   4   2.0000     -10.316659      -280.7306
   5   2.0000     -10.315179      -280.6903
   6   2.0000     -10.301525      -280.3187
   7   2.0000     -10.298239      -280.2293
   8   2.0000     -10.296790      -280.1899
   9   2.0000     -10.295706      -280.1604
  10   2.0000     -10.292286      -280.0673
  11   2.0000     -10.290522      -280.0193
  12   2.0000     -10.289788      -279.9994
  13   2.0000     -10.287665      -279.9416
  14   2.0000     -10.282762      -279.8082
  15   2.0000     -10.277625      -279.6684
  16   2.0000      -8.082657      -219.9403
  17   2.0000      -8.074641      -219.7222
  18   2.0000      -6.041050      -164.3853
  19   2.0000      -6.037226      -164.2813
  20   2.0000      -6.033478      -164.1793
  21   2.0000      -6.033167      -164.1708
  22   2.0000      -6.028919      -164.0552
  23   2.0000      -6.025327      -163.9575
  24   2.0000      -1.013601       -27.5815
  25   2.0000      -0.988370       -26.8949
  26   2.0000      -0.920963       -25.0607
  27   2.0000      -0.906232       -24.6598
  28   2.0000      -0.872944       -23.7540
  29   2.0000      -0.850943       -23.1553
  30   2.0000      -0.844596       -22.9826
  31   2.0000      -0.812172       -22.1003
  32   2.0000      -0.782866       -21.3029
  33   2.0000      -0.770966       -20.9791
  34   2.0000      -0.706501       -19.2249
  35   2.0000      -0.698000       -18.9935
  36   2.0000      -0.695388       -18.9225
  37   2.0000      -0.660462       -17.9721
  38   2.0000      -0.634267       -17.2593
  39   2.0000      -0.619283       -16.8516
  40   2.0000      -0.598925       -16.2976
  41   2.0000      -0.570259       -15.5175
  42   2.0000      -0.562360       -15.3026
  43   2.0000      -0.558119       -15.1872
  44   2.0000      -0.538635       -14.6570
  45   2.0000      -0.523601       -14.2479
  46   2.0000      -0.519808       -14.1447
  47   2.0000      -0.513307       -13.9678
  48   2.0000      -0.507907       -13.8208
  49   2.0000      -0.495022       -13.4702
  50   2.0000      -0.490775       -13.3547
  51   2.0000      -0.478404       -13.0180
  52   2.0000      -0.470668       -12.8075
  53   2.0000      -0.465364       -12.6632
  54   2.0000      -0.463309       -12.6073
  55   2.0000      -0.451137       -12.2760
  56   2.0000      -0.445371       -12.1191
  57   2.0000      -0.435154       -11.8412
  58   2.0000      -0.432703       -11.7744
  59   2.0000      -0.419455       -11.4140
  60   2.0000      -0.417604       -11.3636
  61   2.0000      -0.411477       -11.1969
  62   2.0000      -0.408167       -11.1068
  63   2.0000      -0.349266        -9.5040
  64   2.0000      -0.330220        -8.9857
  65   2.0000      -0.326361        -8.8807
  66   2.0000      -0.290840        -7.9142
  67   0.0000       0.027662         0.7527
  68   0.0000       0.079580         2.1655
  69   0.0000       0.109335         2.9752
  70   0.0000       0.121004         3.2927
  71   0.0000       0.125790         3.4229

MULLIKEN ATOMIC CHARGES
-----------------------
   0 S :    0.111112
   1 C :   -0.138779
   2 C :   -0.095620
   3 C :   -0.029543
   4 C :   -0.148035
   5 H :    0.044047
   6 C :    0.082054
   7 H :    0.026221
   8 H :    0.036998
   9 C :   -0.076391
  10 H :    0.019516
  11 H :    0.034809
  12 C :   -0.050102
  13 H :    0.058237
  14 H :    0.034135
  15 H :    0.039041
  16 S :    0.088394
  17 C :   -0.098291
  18 C :   -0.027512
  19 C :   -0.047730
  20 C :   -0.129125
  21 H :    0.033568
  22 C :    0.042462
  23 H :    0.036068
  24 H :    0.034131
  25 C :   -0.134943
  26 H :    0.019047
  27 H :    0.029865
  28 C :   -0.014570
  29 H :    0.029566
  30 H :    0.051713
  31 H :    0.027225
  32 H :    0.048317
  33 H :    0.064113
Sum of atomic charges:    0.0000000

LOEWDIN ATOMIC CHARGES
----------------------
   0 S :    0.408922
   1 C :   -0.193313
   2 C :   -0.063578
   3 C :   -0.071626
   4 C :   -0.204905
   5 H :    0.043100
   6 C :   -0.038135
   7 H :    0.034525
   8 H :    0.038787
   9 C :   -0.049322
  10 H :    0.019706
  11 H :    0.033365
  12 C :   -0.060753
  13 H :    0.025532
  14 H :    0.029934
  15 H :    0.033831
  16 S :    0.407861
  17 C :   -0.178739
  18 C :   -0.072705
  19 C :   -0.063247
  20 C :   -0.210786
  21 H :    0.037487
  22 C :   -0.033505
  23 H :    0.029394
  24 H :    0.031542
  25 C :   -0.050194
  26 H :    0.019299
  27 H :    0.020493
  28 C :   -0.062024
  29 H :    0.023054
  30 H :    0.033446
  31 H :    0.026824
  32 H :    0.023690
  33 H :    0.032038

  Mayer bond orders larger than 0.100000
B(  0-S ,  1-C ) :   1.1258 B(  0-S ,  4-C ) :   1.1757 B(  1-C ,  2-C ) :   1.5814
B(  1-C ,  4-C ) :   0.1010 B(  1-C , 32-H ) :   0.9712 B(  2-C ,  3-C ) :   1.2505
B(  2-C ,  6-C ) :   0.9888 B(  3-C ,  4-C ) :   1.5411 B(  3-C ,  5-H ) :   0.9822
B(  4-C , 20-C ) :   1.0404 B(  6-C ,  7-H ) :   0.9437 B(  6-C ,  8-H ) :   0.9329
B(  6-C ,  9-C ) :   1.0687 B(  9-C , 10-H ) :   0.9535 B(  9-C , 11-H ) :   0.9529
B(  9-C , 12-C ) :   1.0670 B( 12-C , 13-H ) :   0.9736 B( 12-C , 14-H ) :   0.9748
B( 12-C , 15-H ) :   0.9770 B( 16-S , 17-C ) :   1.1490 B( 16-S , 20-C ) :   1.1393
B( 17-C , 18-C ) :   1.6101 B( 17-C , 33-H ) :   0.9709 B( 18-C , 19-C ) :   1.2285
B( 18-C , 21-H ) :   0.9869 B( 19-C , 20-C ) :   1.6203 B( 19-C , 22-C ) :   1.0395
B( 22-C , 23-H ) :   0.9490 B( 22-C , 24-H ) :   0.9377 B( 22-C , 25-C ) :   1.0355
B( 25-C , 26-H ) :   0.9516 B( 25-C , 27-H ) :   0.9616 B( 25-C , 28-C ) :   1.0793
B( 28-C , 29-H ) :   0.9740 B( 28-C , 30-H ) :   0.9757 B( 28-C , 31-H ) :   0.9700

Dispersion correction           -0.014846862
FINAL SINGLE POINT ENERGY     -1339.874688435132

DIPOLE MOMENT
-------------
                                X             Y             Z
Electronic contribution:    -26.89330       0.59149       1.33992
Nuclear contribution   :     27.54542      -0.77578      -1.27266
                        -----------------------------------------
Total Dipole Moment    :      0.65212      -0.18429       0.06727
                        -----------------------------------------
Magnitude (a.u.)       :      0.68099
Magnitude (Debye)      :      1.73095

Rotational constants in cm-1:     0.016735     0.010000     0.007423
Rotational constants in MHz :   501.697801   299.803690   222.526104

                             ****ORCA TERMINATED NORMALLY****
TOTAL RUN TIME: 0 days 0 hours 0 minutes 31 seconds 445 msec
