                         Program Version 4.2.1 -  RELEASE  -
|  1> ! wB97X-D3 SP def2-SVP
|  2> %pal
|  3> nprocs 16
|  4> end
|  5>
|  6> * xyz 0 1
|  7> S 	 -57.035 	 39.9565 	 111.874
|  8> C 	 -55.7141 	 40.0197 	 110.69
|  9> C 	 -56.1901 	 40.0403 	 109.411
| 10> C 	 -57.6291 	 39.8883 	 109.351
| 11> C 	 -58.2084 	 39.9347 	 110.601
| 12> H 	 -58.161 	 39.9067 	 108.458
| 13> C 	 -55.3359 	 40.1073 	 108.161
| 14> H 	 -55.6598 	 39.3354 	 107.504
| 15> H 	 -54.2886 	 40.0195 	 108.279
| 16> C 	 -55.553 	 41.4287 	 107.377
| 17> H 	 -55.0669 	 41.3193 	 106.414
| 18> H 	 -56.6278 	 41.6605 	 107.313
| 19> C 	 -55.1928 	 42.6914 	 108.19
| 20> H 	 -55.6579 	 42.7615 	 109.177
| 21> H 	 -54.1278 	 42.6243 	 108.333
| 22> H 	 -55.5285 	 43.5844 	 107.587
| 23> S 	 -60.4309 	 38.2497 	 110.605
| 24> C 	 -62.0526 	 38.9038 	 110.879
| 25> C 	 -61.9614 	 40.1851 	 111.309
| 26> C 	 -60.6583 	 40.7072 	 111.3
| 27> C 	 -59.6658 	 39.8364 	 110.791
| 28> H 	 -62.8737 	 40.5938 	 111.655
| 29> C 	 -60.4022 	 42.0917 	 111.897
| 30> H 	 -59.4434 	 42.0308 	 112.39
| 31> H 	 -61.1314 	 42.0965 	 112.694
| 32> C 	 -60.3887 	 43.3321 	 110.889
| 33> H 	 -61.3742 	 43.2309 	 110.375
| 34> H 	 -59.5983 	 43.1584 	 110.18
| 35> C 	 -60.1227 	 44.7096 	 111.497
| 36> H 	 -59.2312 	 44.7541 	 112.039
| 37> H 	 -60.8865 	 44.9507 	 112.159
| 38> H 	 -60.0836 	 45.471 	 110.699
| 39> H 	 -54.7328 	 40.3627 	 110.982
| 40> H 	 -62.9707 	 38.2938 	 110.896
| 41> *
| 42>
| 43>                          ****END OF INPUT****

CARTESIAN COORDINATES (ANGSTROEM)
---------------------------------
  S    -57.035000   39.956500  111.874000
  C    -55.714100   40.019700  110.690000
  C    -56.190100   40.040300  109.411000
  C    -57.629100   39.888300  109.351000
  C    -58.208400   39.934700  110.601000
  H    -58.161000   39.906700  108.458000
  C    -55.335900   40.107300  108.161000
  H    -55.659800   39.335400  107.504000
  H    -54.288600   40.019500  108.279000
  C    -55.553000   41.428700  107.377000
  H    -55.066900   41.319300  106.414000
  H    -56.627800   41.660500  107.313000
  C    -55.192800   42.691400  108.190000
  H    -55.657900   42.761500  109.177000
  H    -54.127800   42.624300  108.333000
  H    -55.528500   43.584400  107.587000
  S    -60.430900   38.249700  110.605000
  C    -62.052600   38.903800  110.879000
  C    -61.961400   40.185100  111.309000
  C    -60.658300   40.707200  111.300000
  C    -59.665800   39.836400  110.791000
  H    -62.873700   40.593800  111.655000
  C    -60.402200   42.091700  111.897000
  H    -59.443400   42.030800  112.390000
  H    -61.131400   42.096500  112.694000
  C    -60.388700   43.332100  110.889000
  H    -61.374200   43.230900  110.375000
  H    -59.598300   43.158400  110.180000
  C    -60.122700   44.709600  111.497000
  H    -59.231200   44.754100  112.039000
  H    -60.886500   44.950700  112.159000
  H    -60.083600   45.471000  110.699000
  H    -54.732800   40.362700  110.982000
  H    -62.970700   38.293800  110.896000

 Total Charge           Charge          ....    0
 Multiplicity           Mult            ....    1
 Number of Electrons    NEL             ....  134
 Basis Dimension        Dim             ....  322

ORBITAL ENERGIES
----------------

  NO   OCC          E(Eh)            E(eV)
   0   2.0000     -88.967549     -2420.9301
   1   2.0000     -88.961729     -2420.7717
   2   2.0000     -10.332538      -281.1627
   3   2.0000     -10.329795      -281.0880
   4   2.0000     -10.317314      -280.7484
   5   2.0000     -10.313879      -280.6549
   6   2.0000     -10.304616      -280.4029
   7   2.0000     -10.303782      -280.3802
   8   2.0000     -10.292809      -280.0816
   9   2.0000     -10.288976      -279.9773
  10   2.0000     -10.288218      -279.9566
  11   2.0000     -10.288162      -279.9551
  12   2.0000     -10.286564      -279.9116
  13   2.0000     -10.286498      -279.9098
  14   2.0000     -10.278456      -279.6910
  15   2.0000     -10.269098      -279.4364
  16   2.0000      -8.082144      -219.9263
  17   2.0000      -8.075908      -219.7566
  18   2.0000      -6.040732      -164.3767
  19   2.0000      -6.036635      -164.2652
  20   2.0000      -6.034430      -164.2052
  21   2.0000      -6.032878      -164.1630
  22   2.0000      -6.030469      -164.0974
  23   2.0000      -6.026702      -163.9949
  24   2.0000      -1.004923       -27.3453
  25   2.0000      -0.984431       -26.7877
  26   2.0000      -0.914161       -24.8756
  27   2.0000      -0.897631       -24.4258
  28   2.0000      -0.870309       -23.6823
  29   2.0000      -0.849934       -23.1279
  30   2.0000      -0.845944       -23.0193
  31   2.0000      -0.817703       -22.2508
  32   2.0000      -0.786042       -21.3893
  33   2.0000      -0.770722       -20.9724
  34   2.0000      -0.709911       -19.3176
  35   2.0000      -0.695820       -18.9342
  36   2.0000      -0.688419       -18.7328
  37   2.0000      -0.659587       -17.9483
  38   2.0000      -0.644214       -17.5300
  39   2.0000      -0.626715       -17.0538
  40   2.0000      -0.589421       -16.0390
  41   2.0000      -0.575112       -15.6496
  42   2.0000      -0.560455       -15.2508
  43   2.0000      -0.551447       -15.0056
  44   2.0000      -0.543662       -14.7938
  45   2.0000      -0.522773       -14.2254
  46   2.0000      -0.521026       -14.1778
  47   2.0000      -0.516997       -14.0682
  48   2.0000      -0.507304       -13.8045
  49   2.0000      -0.497678       -13.5425
  50   2.0000      -0.488468       -13.2919
  51   2.0000      -0.481450       -13.1009
  52   2.0000      -0.476552       -12.9676
  53   2.0000      -0.466886       -12.7046
  54   2.0000      -0.459041       -12.4912
  55   2.0000      -0.455715       -12.4006
  56   2.0000      -0.441148       -12.0042
  57   2.0000      -0.435100       -11.8397
  58   2.0000      -0.431722       -11.7478
  59   2.0000      -0.421732       -11.4759
  60   2.0000      -0.420498       -11.4423
  61   2.0000      -0.411755       -11.2044
  62   2.0000      -0.404747       -11.0137
  63   2.0000      -0.335508        -9.1296
  64   2.0000      -0.331789        -9.0284
  65   2.0000      -0.325191        -8.8489
  66   2.0000      -0.306995        -8.3538
  67   0.0000       0.035240         0.9589
  68   0.0000       0.058407         1.5893
  69   0.0000       0.109615         2.9828
  70   0.0000       0.118801         3.2327
  71   0.0000       0.123646         3.3646

MULLIKEN ATOMIC CHARGES
-----------------------
   0 S :    0.111556
   1 C :   -0.128908
   2 C :   -0.095312
   3 C :    0.050529
   4 C :   -0.139394
   5 H :   -0.002612
   6 C :    0.117981
   7 H :    0.026253
   8 H :    0.013089
   9 C :   -0.112090
  10 H :    0.040504
  11 H :    0.029540
  12 C :   -0.074478
  13 H :    0.048964
  14 H :    0.020580
  15 H :    0.047336
  16 S :    0.096182
  17 C :   -0.106290
  18 C :   -0.027292
  19 C :   -0.038372
  20 C :   -0.168391
  21 H :    0.005539
  22 C :    0.076883
  23 H :    0.006130
  24 H :    0.016966
  25 C :   -0.072397
  26 H :    0.032461
  27 H :    0.028783
  28 C :    0.006256
  29 H :    0.019740
  30 H :    0.014097
  31 H :    0.036337
  32 H :    0.052457
  33 H :    0.067371
Sum of atomic charges:    0.0000000

LOEWDIN ATOMIC CHARGES
----------------------
   0 S :    0.401621
   1 C :   -0.192230
   2 C :   -0.053824
   3 C :   -0.046330
   4 C :   -0.199812
   5 H :    0.022915
   6 C :   -0.024115
   7 H :    0.031685
   8 H :    0.023133
   9 C :   -0.042788
  10 H :    0.024160
  11 H :    0.024578
  12 C :   -0.068334
  13 H :    0.028050
  14 H :    0.015349
  15 H :    0.033723
  16 S :    0.391515
  17 C :   -0.176765
  18 C :   -0.078601
  19 C :   -0.054150
  20 C :   -0.196511
  21 H :    0.029420
  22 C :   -0.032029
  23 H :    0.020723
  24 H :    0.026703
  25 C :   -0.033515
  26 H :    0.026774
  27 H :    0.022889
  28 C :   -0.055877
  29 H :    0.019568
  30 H :    0.016385
  31 H :    0.032700
  32 H :    0.026524
  33 H :    0.036465

  Mayer bond orders larger than 0.100000
B(  0-S ,  1-C ) :   1.1206 B(  0-S ,  4-C ) :   1.1547 B(  1-C ,  2-C ) :   1.6372
B(  1-C , 32-H ) :   0.9633 B(  2-C ,  3-C ) :   1.2168 B(  2-C ,  6-C ) :   1.0311
B(  3-C ,  4-C ) :   1.5759 B(  3-C ,  5-H ) :   1.0039 B(  4-C , 20-C ) :   1.0272
B(  6-C ,  7-H ) :   0.9334 B(  6-C ,  8-H ) :   0.9475 B(  6-C ,  9-C ) :   1.0656
B(  9-C , 10-H ) :   0.9590 B(  9-C , 11-H ) :   0.9639 B(  9-C , 12-C ) :   1.0549
B( 12-C , 13-H ) :   0.9735 B( 12-C , 14-H ) :   0.9783 B( 12-C , 15-H ) :   0.9766
B( 16-S , 17-C ) :   1.1604 B( 16-S , 20-C ) :   1.1473 B( 17-C , 18-C ) :   1.6034
B( 17-C , 20-C ) :   0.1056 B( 17-C , 33-H ) :   0.9622 B( 18-C , 19-C ) :   1.2513
B( 18-C , 21-H ) :   1.0003 B( 19-C , 20-C ) :   1.5682 B( 19-C , 22-C ) :   1.0320
B( 22-C , 23-H ) :   0.9287 B( 22-C , 24-H ) :   0.9412 B( 22-C , 25-C ) :   1.0492
B( 25-C , 26-H ) :   0.9595 B( 25-C , 27-H ) :   0.9579 B( 25-C , 28-C ) :   1.0848
B( 28-C , 29-H ) :   0.9723 B( 28-C , 30-H ) :   0.9747 B( 28-C , 31-H ) :   0.9727

Dispersion correction           -0.014583682
FINAL SINGLE POINT ENERGY     -1339.869190414415

DIPOLE MOMENT
-------------
                                X             Y             Z
Electronic contribution:     -5.92539     -23.73815       9.58320
Nuclear contribution   :      5.91397      24.18586      -9.79890
                        -----------------------------------------
Total Dipole Moment    :     -0.01142       0.44771      -0.21571
                        -----------------------------------------
Magnitude (a.u.)       :      0.49710
Magnitude (Debye)      :      1.26352

Rotational constants in cm-1:     0.017029     0.009209     0.007301
Rotational constants in MHz :   510.511243   276.074976   218.874581

                             ****ORCA TERMINATED NORMALLY****
TOTAL RUN TIME: 0 days 0 hours 0 minutes 30 seconds 499 msec
