                         Program Version 4.2.1 -  RELEASE  -
|  1> ! wB97X-D3 SP def2-SVP
|  2> %pal
|  3> nprocs 16
|  4> end
|  5>
|  6> * xyz 0 1
|  7> S 	 23.8204 	 7.22529 	 66.7844
|  8> C 	 24.8606 	 8.55244 	 66.3428
|  9> C 	 24.6037 	 9.59989 	 67.2618
| 10> C 	 23.8054 	 9.23 	 68.3651
| 11> C 	 23.3643 	 7.95345 	 68.3087
| 12> H 	 23.3104 	 9.8498 	 69.1209
| 13> C 	 25.3632 	 11.0298 	 67.2909
| 14> H 	 25.0926 	 11.6451 	 68.1772
| 15> H 	 24.8513 	 11.432 	 66.3949
| 16> C 	 26.8758 	 10.9535 	 67.0938
| 17> H 	 27.242 	 10.4194 	 67.9777
| 18> H 	 27.1872 	 10.3 	 66.3056
| 19> C 	 27.5396 	 12.3292 	 66.9131
| 20> H 	 27.8194 	 12.8653 	 67.7774
| 21> H 	 28.3692 	 12.1508 	 66.2713
| 22> H 	 26.8323 	 12.9579 	 66.4167
| 23> S 	 20.8084 	 7.19173 	 68.5655
| 24> C 	 20.0479 	 6.84799 	 70.0913
| 25> C 	 20.9977 	 6.97768 	 71.1008
| 26> C 	 22.3376 	 7.26344 	 70.6234
| 27> C 	 22.4121 	 7.41905 	 69.2461
| 28> H 	 20.6612 	 6.8021 	 72.1727
| 29> C 	 23.4961 	 7.25597 	 71.5517
| 30> H 	 24.4988 	 6.97116 	 71.0724
| 31> H 	 23.4266 	 6.37783 	 72.2167
| 32> C 	 23.5544 	 8.62196 	 72.2717
| 33> H 	 22.6999 	 8.71529 	 72.9121
| 34> H 	 23.5398 	 9.39883 	 71.4605
| 35> C 	 24.806 	 8.90808 	 73.0837
| 36> H 	 24.7998 	 8.32802 	 73.9916
| 37> H 	 24.7531 	 9.99893 	 73.3668
| 38> H 	 25.7672 	 8.86406 	 72.5759
| 39> H 	 25.4732 	 8.6597 	 65.4311
| 40> H 	 18.9875 	 6.88304 	 70.2694
| 41> *
| 42>
| 43>                          ****END OF INPUT****

CARTESIAN COORDINATES (ANGSTROEM)
---------------------------------
  S     23.820400    7.225290   66.784400
  C     24.860600    8.552440   66.342800
  C     24.603700    9.599890   67.261800
  C     23.805400    9.230000   68.365100
  C     23.364300    7.953450   68.308700
  H     23.310400    9.849800   69.120900
  C     25.363200   11.029800   67.290900
  H     25.092600   11.645100   68.177200
  H     24.851300   11.432000   66.394900
  C     26.875800   10.953500   67.093800
  H     27.242000   10.419400   67.977700
  H     27.187200   10.300000   66.305600
  C     27.539600   12.329200   66.913100
  H     27.819400   12.865300   67.777400
  H     28.369200   12.150800   66.271300
  H     26.832300   12.957900   66.416700
  S     20.808400    7.191730   68.565500
  C     20.047900    6.847990   70.091300
  C     20.997700    6.977680   71.100800
  C     22.337600    7.263440   70.623400
  C     22.412100    7.419050   69.246100
  H     20.661200    6.802100   72.172700
  C     23.496100    7.255970   71.551700
  H     24.498800    6.971160   71.072400
  H     23.426600    6.377830   72.216700
  C     23.554400    8.621960   72.271700
  H     22.699900    8.715290   72.912100
  H     23.539800    9.398830   71.460500
  C     24.806000    8.908080   73.083700
  H     24.799800    8.328020   73.991600
  H     24.753100    9.998930   73.366800
  H     25.767200    8.864060   72.575900
  H     25.473200    8.659700   65.431100
  H     18.987500    6.883040   70.269400

 Total Charge           Charge          ....    0
 Multiplicity           Mult            ....    1
 Number of Electrons    NEL             ....  134
 Basis Dimension        Dim             ....  322

ORBITAL ENERGIES
----------------

  NO   OCC          E(Eh)            E(eV)
   0   2.0000     -88.968672     -2420.9606
   1   2.0000     -88.960085     -2420.7270
   2   2.0000     -10.326768      -281.0056
   3   2.0000     -10.325738      -280.9776
   4   2.0000     -10.322099      -280.8786
   5   2.0000     -10.316890      -280.7369
   6   2.0000     -10.308464      -280.5076
   7   2.0000     -10.305981      -280.4400
   8   2.0000     -10.301724      -280.3242
   9   2.0000     -10.300044      -280.2784
  10   2.0000     -10.293318      -280.0954
  11   2.0000     -10.289595      -279.9941
  12   2.0000     -10.288347      -279.9601
  13   2.0000     -10.284554      -279.8569
  14   2.0000     -10.277502      -279.6650
  15   2.0000     -10.270305      -279.4692
  16   2.0000      -8.083198      -219.9550
  17   2.0000      -8.075266      -219.7392
  18   2.0000      -6.041708      -164.4032
  19   2.0000      -6.037680      -164.2936
  20   2.0000      -6.033994      -164.1933
  21   2.0000      -6.033816      -164.1885
  22   2.0000      -6.029514      -164.0714
  23   2.0000      -6.026129      -163.9793
  24   2.0000      -1.010521       -27.4977
  25   2.0000      -0.984150       -26.7801
  26   2.0000      -0.909259       -24.7422
  27   2.0000      -0.905645       -24.6439
  28   2.0000      -0.873705       -23.7747
  29   2.0000      -0.850753       -23.1502
  30   2.0000      -0.846892       -23.0451
  31   2.0000      -0.813380       -22.1332
  32   2.0000      -0.778861       -21.1939
  33   2.0000      -0.769548       -20.9405
  34   2.0000      -0.707331       -19.2474
  35   2.0000      -0.700276       -19.0555
  36   2.0000      -0.692165       -18.8348
  37   2.0000      -0.660382       -17.9699
  38   2.0000      -0.643996       -17.5240
  39   2.0000      -0.611451       -16.6384
  40   2.0000      -0.593444       -16.1484
  41   2.0000      -0.572615       -15.5817
  42   2.0000      -0.566146       -15.4056
  43   2.0000      -0.556330       -15.1385
  44   2.0000      -0.526874       -14.3370
  45   2.0000      -0.523149       -14.2356
  46   2.0000      -0.518866       -14.1191
  47   2.0000      -0.515535       -14.0284
  48   2.0000      -0.512610       -13.9488
  49   2.0000      -0.499500       -13.5921
  50   2.0000      -0.492145       -13.3919
  51   2.0000      -0.481552       -13.1037
  52   2.0000      -0.475332       -12.9344
  53   2.0000      -0.467760       -12.7284
  54   2.0000      -0.459539       -12.5047
  55   2.0000      -0.449870       -12.2416
  56   2.0000      -0.436570       -11.8797
  57   2.0000      -0.432930       -11.7806
  58   2.0000      -0.429077       -11.6758
  59   2.0000      -0.423266       -11.5176
  60   2.0000      -0.419887       -11.4257
  61   2.0000      -0.409019       -11.1300
  62   2.0000      -0.402932       -10.9643
  63   2.0000      -0.347927        -9.4676
  64   2.0000      -0.327749        -8.9185
  65   2.0000      -0.325028        -8.8445
  66   2.0000      -0.296838        -8.0774
  67   0.0000       0.033325         0.9068
  68   0.0000       0.058040         1.5794
  69   0.0000       0.117125         3.1871
  70   0.0000       0.124084         3.3765
  71   0.0000       0.130350         3.5470

MULLIKEN ATOMIC CHARGES
-----------------------
   0 S :    0.119625
   1 C :   -0.136232
   2 C :   -0.089516
   3 C :    0.016805
   4 C :   -0.145611
   5 H :    0.038926
   6 C :    0.024946
   7 H :    0.039246
   8 H :    0.040490
   9 C :   -0.080352
  10 H :    0.030981
  11 H :    0.016579
  12 C :   -0.000437
  13 H :    0.030671
  14 H :    0.026425
  15 H :    0.015454
  16 S :    0.088370
  17 C :   -0.085984
  18 C :   -0.069542
  19 C :   -0.039258
  20 C :   -0.148981
  21 H :    0.045894
  22 C :    0.030610
  23 H :    0.036908
  24 H :    0.028493
  25 C :   -0.086507
  26 H :    0.028834
  27 H :    0.028053
  28 C :   -0.037068
  29 H :    0.031182
  30 H :    0.030777
  31 H :    0.035743
  32 H :    0.069631
  33 H :    0.064845
Sum of atomic charges:    0.0000000

LOEWDIN ATOMIC CHARGES
----------------------
   0 S :    0.415987
   1 C :   -0.213445
   2 C :   -0.058251
   3 C :   -0.071188
   4 C :   -0.201825
   5 H :    0.038654
   6 C :   -0.032772
   7 H :    0.032082
   8 H :    0.032007
   9 C :   -0.044436
  10 H :    0.027656
  11 H :    0.019203
  12 C :   -0.055864
  13 H :    0.021266
  14 H :    0.026764
  15 H :    0.023000
  16 S :    0.406132
  17 C :   -0.193780
  18 C :   -0.079264
  19 C :   -0.059851
  20 C :   -0.191132
  21 H :    0.042098
  22 C :   -0.044008
  23 H :    0.038906
  24 H :    0.031354
  25 C :   -0.039186
  26 H :    0.022577
  27 H :    0.027339
  28 C :   -0.070012
  29 H :    0.021406
  30 H :    0.033213
  31 H :    0.024999
  32 H :    0.038599
  33 H :    0.031771

  Mayer bond orders larger than 0.100000
B(  0-S ,  1-C ) :   1.1438 B(  0-S ,  4-C ) :   1.1524 B(  1-C ,  2-C ) :   1.5831
B(  1-C ,  4-C ) :   0.1046 B(  1-C , 32-H ) :   0.9681 B(  2-C ,  3-C ) :   1.2622
B(  2-C ,  6-C ) :   0.9873 B(  3-C ,  4-C ) :   1.5779 B(  3-C ,  5-H ) :   0.9808
B(  4-C , 20-C ) :   1.0245 B(  6-C ,  7-H ) :   0.9596 B(  6-C ,  8-H ) :   0.9353
B(  6-C ,  9-C ) :   1.0713 B(  9-C , 10-H ) :   0.9554 B(  9-C , 11-H ) :   0.9598
B(  9-C , 12-C ) :   1.0669 B( 12-C , 13-H ) :   0.9768 B( 12-C , 14-H ) :   0.9761
B( 12-C , 15-H ) :   0.9768 B( 16-S , 17-C ) :   1.1620 B( 16-S , 20-C ) :   1.1429
B( 17-C , 18-C ) :   1.6110 B( 17-C , 33-H ) :   0.9665 B( 18-C , 19-C ) :   1.2369
B( 18-C , 21-H ) :   0.9777 B( 19-C , 20-C ) :   1.6093 B( 19-C , 22-C ) :   1.0473
B( 22-C , 23-H ) :   0.9454 B( 22-C , 24-H ) :   0.9383 B( 22-C , 25-C ) :   1.0404
B( 25-C , 26-H ) :   0.9559 B( 25-C , 27-H ) :   0.9554 B( 25-C , 28-C ) :   1.0950
B( 28-C , 29-H ) :   0.9723 B( 28-C , 30-H ) :   0.9717 B( 28-C , 31-H ) :   0.9738

Dispersion correction           -0.013908856
FINAL SINGLE POINT ENERGY     -1339.859155925272

DIPOLE MOMENT
-------------
                                X             Y             Z
Electronic contribution:    -20.26438     -18.99613     -12.89827
Nuclear contribution   :     20.51032      19.53496      13.29280
                        -----------------------------------------
Total Dipole Moment    :      0.24594       0.53884       0.39454
                        -----------------------------------------
Magnitude (a.u.)       :      0.71168
Magnitude (Debye)      :      1.80895

Rotational constants in cm-1:     0.018264     0.008443     0.006333
Rotational constants in MHz :   547.554776   253.128163   189.847531

                             ****ORCA TERMINATED NORMALLY****
TOTAL RUN TIME: 0 days 0 hours 0 minutes 28 seconds 496 msec
