                         Program Version 4.2.1 -  RELEASE  -
|  1> ! wB97X-D3 SP def2-SVP
|  2> %pal
|  3> nprocs 16
|  4> end
|  5>
|  6> * xyz 0 1
|  7> S 	 -32.7015 	 3.90919 	 100.857
|  8> C 	 -32.9927 	 2.33089 	 100.158
|  9> C 	 -31.801 	 1.59868 	 100.003
| 10> C 	 -30.6376 	 2.40505 	 100.233
| 11> C 	 -30.9124 	 3.70518 	 100.674
| 12> H 	 -29.6114 	 2.20474 	 99.9823
| 13> C 	 -31.7461 	 0.183339 	 99.3795
| 14> H 	 -30.7032 	 -0.0875895 	 99.0916
| 15> H 	 -32.3897 	 0.206081 	 98.5554
| 16> C 	 -32.2676 	 -0.958543 	 100.226
| 17> H 	 -33.3257 	 -0.673044 	 100.458
| 18> H 	 -32.2371 	 -1.85162 	 99.5794
| 19> C 	 -31.6208 	 -1.16468 	 101.55
| 20> H 	 -30.6114 	 -1.52005 	 101.39
| 21> H 	 -31.4632 	 -0.261262 	 102.138
| 22> H 	 -32.215 	 -1.90412 	 102.087
| 23> S 	 -29.7272 	 6.09952 	 100.27
| 24> C 	 -28.4293 	 6.59438 	 101.33
| 25> C 	 -28.2322 	 5.70913 	 102.417
| 26> C 	 -29.252 	 4.6602 	 102.483
| 27> C 	 -29.9192 	 4.63092 	 101.251
| 28> H 	 -27.5191 	 5.98713 	 103.184
| 29> C 	 -29.4122 	 3.44602 	 103.466
| 30> H 	 -29.3813 	 2.49342 	 102.874
| 31> H 	 -30.3904 	 3.54921 	 103.863
| 32> C 	 -28.4334 	 3.38497 	 104.618
| 33> H 	 -28.4596 	 4.45495 	 104.969
| 34> H 	 -27.416 	 3.27781 	 104.357
| 35> C 	 -28.7907 	 2.58493 	 105.831
| 36> H 	 -28.6913 	 1.49286 	 105.606
| 37> H 	 -29.7525 	 2.83569 	 106.266
| 38> H 	 -28.0586 	 2.84258 	 106.526
| 39> H 	 -33.9778 	 1.85789 	 100.043
| 40> H 	 -27.976 	 7.57217 	 101.369
| 41> *
| 42>
| 43>                          ****END OF INPUT****

CARTESIAN COORDINATES (ANGSTROEM)
---------------------------------
  S    -32.701500    3.909190  100.857000
  C    -32.992700    2.330890  100.158000
  C    -31.801000    1.598680  100.003000
  C    -30.637600    2.405050  100.233000
  C    -30.912400    3.705180  100.674000
  H    -29.611400    2.204740   99.982300
  C    -31.746100    0.183339   99.379500
  H    -30.703200   -0.087590   99.091600
  H    -32.389700    0.206081   98.555400
  C    -32.267600   -0.958543  100.226000
  H    -33.325700   -0.673044  100.458000
  H    -32.237100   -1.851620   99.579400
  C    -31.620800   -1.164680  101.550000
  H    -30.611400   -1.520050  101.390000
  H    -31.463200   -0.261262  102.138000
  H    -32.215000   -1.904120  102.087000
  S    -29.727200    6.099520  100.270000
  C    -28.429300    6.594380  101.330000
  C    -28.232200    5.709130  102.417000
  C    -29.252000    4.660200  102.483000
  C    -29.919200    4.630920  101.251000
  H    -27.519100    5.987130  103.184000
  C    -29.412200    3.446020  103.466000
  H    -29.381300    2.493420  102.874000
  H    -30.390400    3.549210  103.863000
  C    -28.433400    3.384970  104.618000
  H    -28.459600    4.454950  104.969000
  H    -27.416000    3.277810  104.357000
  C    -28.790700    2.584930  105.831000
  H    -28.691300    1.492860  105.606000
  H    -29.752500    2.835690  106.266000
  H    -28.058600    2.842580  106.526000
  H    -33.977800    1.857890  100.043000
  H    -27.976000    7.572170  101.369000

 Total Charge           Charge          ....    0
 Multiplicity           Mult            ....    1
 Number of Electrons    NEL             ....  134
 Basis Dimension        Dim             ....  322

ORBITAL ENERGIES
----------------

  NO   OCC          E(Eh)            E(eV)
   0   2.0000     -88.968471     -2420.9552
   1   2.0000     -88.966955     -2420.9139
   2   2.0000     -10.331750      -281.1412
   3   2.0000     -10.327942      -281.0376
   4   2.0000     -10.320129      -280.8250
   5   2.0000     -10.319112      -280.7973
   6   2.0000     -10.316049      -280.7140
   7   2.0000     -10.306387      -280.4511
   8   2.0000     -10.302875      -280.3555
   9   2.0000     -10.297379      -280.2059
  10   2.0000     -10.294872      -280.1377
  11   2.0000     -10.289211      -279.9837
  12   2.0000     -10.285168      -279.8736
  13   2.0000     -10.281689      -279.7790
  14   2.0000     -10.275479      -279.6100
  15   2.0000     -10.271290      -279.4960
  16   2.0000      -8.081934      -219.9206
  17   2.0000      -8.081229      -219.9014
  18   2.0000      -6.040424      -164.3683
  19   2.0000      -6.039619      -164.3464
  20   2.0000      -6.036591      -164.2640
  21   2.0000      -6.035834      -164.2434
  22   2.0000      -6.032807      -164.1610
  23   2.0000      -6.032107      -164.1420
  24   2.0000      -0.995967       -27.1016
  25   2.0000      -0.974263       -26.5110
  26   2.0000      -0.914219       -24.8772
  27   2.0000      -0.912285       -24.8245
  28   2.0000      -0.863617       -23.5002
  29   2.0000      -0.851797       -23.1786
  30   2.0000      -0.845392       -23.0043
  31   2.0000      -0.812151       -22.0998
  32   2.0000      -0.787415       -21.4266
  33   2.0000      -0.772455       -21.0196
  34   2.0000      -0.700505       -19.0617
  35   2.0000      -0.695516       -18.9260
  36   2.0000      -0.689740       -18.7688
  37   2.0000      -0.648461       -17.6455
  38   2.0000      -0.639745       -17.4083
  39   2.0000      -0.608137       -16.5482
  40   2.0000      -0.591368       -16.0919
  41   2.0000      -0.576708       -15.6930
  42   2.0000      -0.571374       -15.5479
  43   2.0000      -0.553815       -15.0701
  44   2.0000      -0.538581       -14.6555
  45   2.0000      -0.527918       -14.3654
  46   2.0000      -0.515446       -14.0260
  47   2.0000      -0.513261       -13.9665
  48   2.0000      -0.506663       -13.7870
  49   2.0000      -0.495607       -13.4862
  50   2.0000      -0.488827       -13.3017
  51   2.0000      -0.477281       -12.9875
  52   2.0000      -0.475034       -12.9263
  53   2.0000      -0.465255       -12.6602
  54   2.0000      -0.457427       -12.4472
  55   2.0000      -0.452177       -12.3044
  56   2.0000      -0.440530       -11.9874
  57   2.0000      -0.435502       -11.8506
  58   2.0000      -0.434441       -11.8217
  59   2.0000      -0.425680       -11.5834
  60   2.0000      -0.419347       -11.4110
  61   2.0000      -0.410582       -11.1725
  62   2.0000      -0.404959       -11.0195
  63   2.0000      -0.335493        -9.1292
  64   2.0000      -0.331158        -9.0113
  65   2.0000      -0.318756        -8.6738
  66   2.0000      -0.303230        -8.2513
  67   0.0000       0.031439         0.8555
  68   0.0000       0.048333         1.3152
  69   0.0000       0.111114         3.0236
  70   0.0000       0.117959         3.2098
  71   0.0000       0.120823         3.2878

MULLIKEN ATOMIC CHARGES
-----------------------
   0 S :    0.110825
   1 C :   -0.122383
   2 C :   -0.101984
   3 C :    0.042310
   4 C :   -0.152286
   5 H :    0.019685
   6 C :    0.088099
   7 H :    0.023344
   8 H :    0.022782
   9 C :   -0.103704
  10 H :    0.018464
  11 H :    0.037698
  12 C :   -0.030596
  13 H :    0.014259
  14 H :    0.039728
  15 H :    0.038682
  16 S :    0.115518
  17 C :   -0.080992
  18 C :   -0.061705
  19 C :   -0.023404
  20 C :   -0.216963
  21 H :    0.027375
  22 C :    0.102069
  23 H :    0.048485
  24 H :    0.019589
  25 C :   -0.126918
  26 H :    0.020762
  27 H :    0.022652
  28 C :    0.000466
  29 H :    0.037613
  30 H :    0.031907
  31 H :    0.019516
  32 H :    0.062076
  33 H :    0.057031
Sum of atomic charges:   -0.0000000

LOEWDIN ATOMIC CHARGES
----------------------
   0 S :    0.386121
   1 C :   -0.199815
   2 C :   -0.065076
   3 C :   -0.055642
   4 C :   -0.193185
   5 H :    0.033284
   6 C :   -0.027549
   7 H :    0.030015
   8 H :    0.026903
   9 C :   -0.046826
  10 H :    0.022055
  11 H :    0.028241
  12 C :   -0.066448
  13 H :    0.020479
  14 H :    0.028305
  15 H :    0.029424
  16 S :    0.405727
  17 C :   -0.190894
  18 C :   -0.075109
  19 C :   -0.041913
  20 C :   -0.196539
  21 H :    0.029765
  22 C :   -0.026318
  23 H :    0.036578
  24 H :    0.030395
  25 C :   -0.051319
  26 H :    0.027993
  27 H :    0.018039
  28 C :   -0.055724
  29 H :    0.029295
  30 H :    0.025955
  31 H :    0.022522
  32 H :    0.033003
  33 H :    0.028259

  Mayer bond orders larger than 0.100000
B(  0-S ,  1-C ) :   1.1519 B(  0-S ,  4-C ) :   1.1359 B(  1-C ,  2-C ) :   1.5956
B(  1-C ,  4-C ) :   0.1034 B(  1-C , 32-H ) :   0.9618 B(  2-C ,  3-C ) :   1.2428
B(  2-C ,  6-C ) :   1.0099 B(  3-C ,  4-C ) :   1.5847 B(  3-C ,  5-H ) :   0.9919
B(  4-C , 20-C ) :   1.0222 B(  6-C ,  7-H ) :   0.9472 B(  6-C ,  8-H ) :   0.9397
B(  6-C ,  9-C ) :   1.0814 B(  9-C , 10-H ) :   0.9534 B(  9-C , 11-H ) :   0.9538
B(  9-C , 12-C ) :   1.0853 B( 12-C , 13-H ) :   0.9707 B( 12-C , 14-H ) :   0.9709
B( 12-C , 15-H ) :   0.9727 B( 16-S , 17-C ) :   1.1578 B( 16-S , 20-C ) :   1.1483
B( 17-C , 18-C ) :   1.6207 B( 17-C , 20-C ) :   0.1021 B( 17-C , 33-H ) :   0.9625
B( 18-C , 19-C ) :   1.2267 B( 18-C , 21-H ) :   0.9804 B( 19-C , 20-C ) :   1.5944
B( 19-C , 22-C ) :   1.0201 B( 22-C , 23-H ) :   0.9415 B( 22-C , 24-H ) :   0.9217
B( 22-C , 25-C ) :   1.0724 B( 25-C , 26-H ) :   0.9498 B( 25-C , 27-H ) :   0.9543
B( 25-C , 28-C ) :   1.0965 B( 28-C , 29-H ) :   0.9713 B( 28-C , 30-H ) :   0.9716
B( 28-C , 31-H ) :   0.9687

Dispersion correction           -0.014169136
FINAL SINGLE POINT ENERGY     -1339.859358534908

DIPOLE MOMENT
-------------
                                X             Y             Z
Electronic contribution:     -5.04929      24.68069     -14.96819
Nuclear contribution   :      5.25511     -25.15522      15.32663
                        -----------------------------------------
Total Dipole Moment    :      0.20582      -0.47452       0.35844
                        -----------------------------------------
Magnitude (a.u.)       :      0.62930
Magnitude (Debye)      :      1.59955

Rotational constants in cm-1:     0.016543     0.009115     0.006655
Rotational constants in MHz :   495.937024   273.261946   199.522471

                             ****ORCA TERMINATED NORMALLY****
TOTAL RUN TIME: 0 days 0 hours 0 minutes 29 seconds 488 msec
