                         Program Version 4.2.1 -  RELEASE  -
|  1> ! wB97X-D3 SP def2-SVP
|  2> %pal
|  3> nprocs 16
|  4> end
|  5>
|  6> * xyz 0 1
|  7> S 	 -67.1855 	 53.9241 	 129.641
|  8> C 	 -65.7516 	 53.7368 	 130.682
|  9> C 	 -66.1458 	 53.2651 	 131.965
| 10> C 	 -67.5585 	 52.9833 	 132.068
| 11> C 	 -68.2892 	 53.2488 	 130.925
| 12> H 	 -68.1584 	 52.6531 	 132.954
| 13> C 	 -65.2114 	 53.0896 	 133.075
| 14> H 	 -64.2011 	 52.9899 	 132.644
| 15> H 	 -65.5575 	 52.2697 	 133.707
| 16> C 	 -64.9901 	 54.2345 	 134.082
| 17> H 	 -64.6624 	 55.0776 	 133.53
| 18> H 	 -65.8824 	 54.6306 	 134.611
| 19> C 	 -63.9731 	 53.7971 	 135.179
| 20> H 	 -63.0067 	 53.6413 	 134.761
| 21> H 	 -63.9961 	 54.5725 	 135.992
| 22> H 	 -64.2374 	 52.8596 	 135.527
| 23> S 	 -70.2569 	 51.3051 	 131.405
| 24> C 	 -71.5944 	 51.2887 	 130.284
| 25> C 	 -71.7785 	 52.4973 	 129.642
| 26> C 	 -70.6655 	 53.3706 	 129.824
| 27> C 	 -69.6817 	 52.8339 	 130.609
| 28> H 	 -72.595 	 52.7195 	 128.993
| 29> C 	 -70.7726 	 54.8642 	 129.434
| 30> H 	 -71.2953 	 54.8541 	 128.505
| 31> H 	 -69.8093 	 55.3766 	 129.228
| 32> C 	 -71.466 	 55.7747 	 130.468
| 33> H 	 -71.3608 	 56.8634 	 130.265
| 34> H 	 -70.9313 	 55.7575 	 131.468
| 35> C 	 -72.9408 	 55.564 	 130.828
| 36> H 	 -73.0702 	 54.5403 	 131.137
| 37> H 	 -73.7672 	 55.7123 	 130.143
| 38> H 	 -73.1877 	 56.2304 	 131.663
| 39> H 	 -64.7053 	 53.9966 	 130.361
| 40> H 	 -72.3154 	 50.5333 	 130.283
| 41> *
| 42>
| 43>                          ****END OF INPUT****

CARTESIAN COORDINATES (ANGSTROEM)
---------------------------------
  S    -67.185500   53.924100  129.641000
  C    -65.751600   53.736800  130.682000
  C    -66.145800   53.265100  131.965000
  C    -67.558500   52.983300  132.068000
  C    -68.289200   53.248800  130.925000
  H    -68.158400   52.653100  132.954000
  C    -65.211400   53.089600  133.075000
  H    -64.201100   52.989900  132.644000
  H    -65.557500   52.269700  133.707000
  C    -64.990100   54.234500  134.082000
  H    -64.662400   55.077600  133.530000
  H    -65.882400   54.630600  134.611000
  C    -63.973100   53.797100  135.179000
  H    -63.006700   53.641300  134.761000
  H    -63.996100   54.572500  135.992000
  H    -64.237400   52.859600  135.527000
  S    -70.256900   51.305100  131.405000
  C    -71.594400   51.288700  130.284000
  C    -71.778500   52.497300  129.642000
  C    -70.665500   53.370600  129.824000
  C    -69.681700   52.833900  130.609000
  H    -72.595000   52.719500  128.993000
  C    -70.772600   54.864200  129.434000
  H    -71.295300   54.854100  128.505000
  H    -69.809300   55.376600  129.228000
  C    -71.466000   55.774700  130.468000
  H    -71.360800   56.863400  130.265000
  H    -70.931300   55.757500  131.468000
  C    -72.940800   55.564000  130.828000
  H    -73.070200   54.540300  131.137000
  H    -73.767200   55.712300  130.143000
  H    -73.187700   56.230400  131.663000
  H    -64.705300   53.996600  130.361000
  H    -72.315400   50.533300  130.283000

 Total Charge           Charge          ....    0
 Multiplicity           Mult            ....    1
 Number of Electrons    NEL             ....  134
 Basis Dimension        Dim             ....  322

ORBITAL ENERGIES
----------------

  NO   OCC          E(Eh)            E(eV)
   0   2.0000     -88.968406     -2420.9534
   1   2.0000     -88.966790     -2420.9094
   2   2.0000     -10.338986      -281.3381
   3   2.0000     -10.334532      -281.2169
   4   2.0000     -10.325684      -280.9761
   5   2.0000     -10.317923      -280.7650
   6   2.0000     -10.307280      -280.4754
   7   2.0000     -10.305707      -280.4325
   8   2.0000     -10.300679      -280.2957
   9   2.0000     -10.296624      -280.1854
  10   2.0000     -10.296128      -280.1719
  11   2.0000     -10.292912      -280.0844
  12   2.0000     -10.289813      -280.0000
  13   2.0000     -10.283570      -279.8302
  14   2.0000     -10.275197      -279.6023
  15   2.0000     -10.271688      -279.5069
  16   2.0000      -8.082464      -219.9350
  17   2.0000      -8.079564      -219.8561
  18   2.0000      -6.040980      -164.3834
  19   2.0000      -6.038349      -164.3118
  20   2.0000      -6.037418      -164.2865
  21   2.0000      -6.034322      -164.2022
  22   2.0000      -6.032914      -164.1639
  23   2.0000      -6.030174      -164.0894
  24   2.0000      -0.999600       -27.2005
  25   2.0000      -0.976080       -26.5605
  26   2.0000      -0.912416       -24.8281
  27   2.0000      -0.902869       -24.5683
  28   2.0000      -0.865726       -23.5576
  29   2.0000      -0.850853       -23.1529
  30   2.0000      -0.844144       -22.9703
  31   2.0000      -0.814143       -22.1540
  32   2.0000      -0.787588       -21.4313
  33   2.0000      -0.767278       -20.8787
  34   2.0000      -0.707463       -19.2511
  35   2.0000      -0.701429       -19.0868
  36   2.0000      -0.689157       -18.7529
  37   2.0000      -0.672607       -18.3026
  38   2.0000      -0.634531       -17.2665
  39   2.0000      -0.613802       -16.7024
  40   2.0000      -0.595716       -16.2103
  41   2.0000      -0.573594       -15.6083
  42   2.0000      -0.561132       -15.2692
  43   2.0000      -0.549111       -14.9421
  44   2.0000      -0.540847       -14.7172
  45   2.0000      -0.521225       -14.1833
  46   2.0000      -0.516382       -14.0515
  47   2.0000      -0.512725       -13.9520
  48   2.0000      -0.500871       -13.6294
  49   2.0000      -0.493977       -13.4418
  50   2.0000      -0.489808       -13.3283
  51   2.0000      -0.478306       -13.0154
  52   2.0000      -0.470409       -12.8005
  53   2.0000      -0.467383       -12.7181
  54   2.0000      -0.462023       -12.5723
  55   2.0000      -0.448670       -12.2089
  56   2.0000      -0.444596       -12.0981
  57   2.0000      -0.434197       -11.8151
  58   2.0000      -0.432487       -11.7686
  59   2.0000      -0.427759       -11.6399
  60   2.0000      -0.420320       -11.4375
  61   2.0000      -0.414049       -11.2668
  62   2.0000      -0.402506       -10.9528
  63   2.0000      -0.354339        -9.6420
  64   2.0000      -0.334772        -9.1096
  65   2.0000      -0.326214        -8.8767
  66   2.0000      -0.283297        -7.7089
  67   0.0000       0.016285         0.4431
  68   0.0000       0.062609         1.7037
  69   0.0000       0.091016         2.4767
  70   0.0000       0.109712         2.9854
  71   0.0000       0.129698         3.5293

MULLIKEN ATOMIC CHARGES
-----------------------
   0 S :    0.088937
   1 C :   -0.146442
   2 C :   -0.057538
   3 C :   -0.020301
   4 C :   -0.101706
   5 H :    0.037564
   6 C :    0.040542
   7 H :    0.023240
   8 H :    0.025175
   9 C :   -0.074816
  10 H :    0.010760
  11 H :    0.026149
  12 C :   -0.007456
  13 H :    0.018899
  14 H :    0.047239
  15 H :    0.005848
  16 S :    0.091864
  17 C :   -0.057770
  18 C :   -0.019278
  19 C :   -0.061276
  20 C :   -0.143126
  21 H :    0.015858
  22 C :    0.091890
  23 H :    0.016821
  24 H :    0.033915
  25 C :   -0.091046
  26 H :    0.032230
  27 H :    0.037579
  28 C :   -0.058627
  29 H :    0.029418
  30 H :    0.023639
  31 H :    0.029904
  32 H :    0.074909
  33 H :    0.036999
Sum of atomic charges:   -0.0000000

LOEWDIN ATOMIC CHARGES
----------------------
   0 S :    0.366461
   1 C :   -0.200268
   2 C :   -0.060391
   3 C :   -0.078696
   4 C :   -0.163702
   5 H :    0.039434
   6 C :   -0.039390
   7 H :    0.036924
   8 H :    0.032151
   9 C :   -0.037028
  10 H :    0.013761
  11 H :    0.023091
  12 C :   -0.054384
  13 H :    0.019974
  14 H :    0.035496
  15 H :    0.012766
  16 S :    0.379858
  17 C :   -0.164569
  18 C :   -0.063180
  19 C :   -0.059246
  20 C :   -0.169204
  21 H :    0.029499
  22 C :   -0.028810
  23 H :    0.024510
  24 H :    0.034339
  25 C :   -0.047743
  26 H :    0.028396
  27 H :    0.036306
  28 C :   -0.076101
  29 H :    0.021943
  30 H :    0.019641
  31 H :    0.030562
  32 H :    0.041531
  33 H :    0.016068

  Mayer bond orders larger than 0.100000
B(  0-S ,  1-C ) :   1.1256 B(  0-S ,  4-C ) :   1.1244 B(  1-C ,  2-C ) :   1.5909
B(  1-C , 32-H ) :   0.9625 B(  2-C ,  3-C ) :   1.2221 B(  2-C ,  6-C ) :   1.0619
B(  3-C ,  4-C ) :   1.5890 B(  3-C ,  5-H ) :   0.9786 B(  4-C , 20-C ) :   1.0710
B(  6-C ,  7-H ) :   0.9365 B(  6-C ,  8-H ) :   0.9339 B(  6-C ,  9-C ) :   1.0631
B(  9-C , 10-H ) :   0.9532 B(  9-C , 11-H ) :   0.9577 B(  9-C , 12-C ) :   1.0722
B( 12-C , 13-H ) :   0.9744 B( 12-C , 14-H ) :   0.9755 B( 12-C , 15-H ) :   0.9731
B( 16-S , 17-C ) :   1.1535 B( 16-S , 20-C ) :   1.1097 B( 17-C , 18-C ) :   1.6090
B( 17-C , 33-H ) :   0.9735 B( 18-C , 19-C ) :   1.2286 B( 18-C , 21-H ) :   0.9915
B( 19-C , 20-C ) :   1.6137 B( 19-C , 22-C ) :   1.0392 B( 22-C , 23-H ) :   0.9352
B( 22-C , 24-H ) :   0.9354 B( 22-C , 25-C ) :   1.0626 B( 25-C , 26-H ) :   0.9572
B( 25-C , 27-H ) :   0.9529 B( 25-C , 28-C ) :   1.0789 B( 28-C , 29-H ) :   0.9720
B( 28-C , 30-H ) :   0.9768 B( 28-C , 31-H ) :   0.9716

Dispersion correction           -0.013995480
FINAL SINGLE POINT ENERGY     -1339.860983354535

DIPOLE MOMENT
-------------
                                X             Y             Z
Electronic contribution:     -2.77279     -13.09804     -13.19587
Nuclear contribution   :      2.66119      13.30403      13.46400
                        -----------------------------------------
Total Dipole Moment    :     -0.11160       0.20599       0.26812
                        -----------------------------------------
Magnitude (a.u.)       :      0.35605
Magnitude (Debye)      :      0.90501

Rotational constants in cm-1:     0.022233     0.006857     0.006488
Rotational constants in MHz :   666.531349   205.563520   194.519577

                             ****ORCA TERMINATED NORMALLY****
TOTAL RUN TIME: 0 days 0 hours 0 minutes 31 seconds 459 msec
