                         Program Version 4.2.1 -  RELEASE  -
|  1> ! wB97X-D3 SP def2-SVP
|  2> %pal
|  3> nprocs 16
|  4> end
|  5>
|  6> * xyz 0 1
|  7> S 	 -22.4922 	 47.9977 	 64.5388
|  8> C 	 -22.1183 	 48.9923 	 63.1356
|  9> C 	 -21.7605 	 50.3076 	 63.503
| 10> C 	 -21.8216 	 50.4683 	 64.981
| 11> C 	 -22.0435 	 49.281 	 65.6593
| 12> H 	 -21.7064 	 51.3713 	 65.622
| 13> C 	 -21.2226 	 51.4666 	 62.5939
| 14> H 	 -21.9213 	 52.2745 	 62.7068
| 15> H 	 -21.3596 	 51.1931 	 61.577
| 16> C 	 -19.7976 	 51.9831 	 62.7267
| 17> H 	 -19.7009 	 52.9027 	 62.1362
| 18> H 	 -19.6545 	 52.1867 	 63.7709
| 19> C 	 -18.5984 	 51.1371 	 62.221
| 20> H 	 -18.5492 	 51.1055 	 61.0744
| 21> H 	 -17.6423 	 51.6758 	 62.5055
| 22> H 	 -18.5677 	 50.1189 	 62.6223
| 23> S 	 -23.782 	 49.0959 	 67.8212
| 24> C 	 -23.0919 	 48.8477 	 69.3993
| 25> C 	 -21.7136 	 48.7534 	 69.371
| 26> C 	 -21.1722 	 48.6619 	 68.03
| 27> C 	 -22.1333 	 49.0827 	 67.107
| 28> H 	 -21.0546 	 48.6069 	 70.2538
| 29> C 	 -19.7123 	 48.3949 	 67.7524
| 30> H 	 -19.2709 	 48.0895 	 68.7908
| 31> H 	 -19.2341 	 49.357 	 67.5172
| 32> C 	 -19.4098 	 47.4109 	 66.645
| 33> H 	 -19.9282 	 47.6402 	 65.6949
| 34> H 	 -19.6406 	 46.3906 	 67.0057
| 35> C 	 -17.8636 	 47.454 	 66.3424
| 36> H 	 -17.6292 	 48.4226 	 65.988
| 37> H 	 -17.4536 	 46.8334 	 65.5601
| 38> H 	 -17.3415 	 47.1295 	 67.2791
| 39> H 	 -22.152 	 48.5245 	 62.1777
| 40> H 	 -23.5924 	 48.7293 	 70.2953
| 41> *
| 42>
| 43>                          ****END OF INPUT****

CARTESIAN COORDINATES (ANGSTROEM)
---------------------------------
  S    -22.492200   47.997700   64.538800
  C    -22.118300   48.992300   63.135600
  C    -21.760500   50.307600   63.503000
  C    -21.821600   50.468300   64.981000
  C    -22.043500   49.281000   65.659300
  H    -21.706400   51.371300   65.622000
  C    -21.222600   51.466600   62.593900
  H    -21.921300   52.274500   62.706800
  H    -21.359600   51.193100   61.577000
  C    -19.797600   51.983100   62.726700
  H    -19.700900   52.902700   62.136200
  H    -19.654500   52.186700   63.770900
  C    -18.598400   51.137100   62.221000
  H    -18.549200   51.105500   61.074400
  H    -17.642300   51.675800   62.505500
  H    -18.567700   50.118900   62.622300
  S    -23.782000   49.095900   67.821200
  C    -23.091900   48.847700   69.399300
  C    -21.713600   48.753400   69.371000
  C    -21.172200   48.661900   68.030000
  C    -22.133300   49.082700   67.107000
  H    -21.054600   48.606900   70.253800
  C    -19.712300   48.394900   67.752400
  H    -19.270900   48.089500   68.790800
  H    -19.234100   49.357000   67.517200
  C    -19.409800   47.410900   66.645000
  H    -19.928200   47.640200   65.694900
  H    -19.640600   46.390600   67.005700
  C    -17.863600   47.454000   66.342400
  H    -17.629200   48.422600   65.988000
  H    -17.453600   46.833400   65.560100
  H    -17.341500   47.129500   67.279100
  H    -22.152000   48.524500   62.177700
  H    -23.592400   48.729300   70.295300

 Total Charge           Charge          ....    0
 Multiplicity           Mult            ....    1
 Number of Electrons    NEL             ....  134
 Basis Dimension        Dim             ....  322

ORBITAL ENERGIES
----------------

  NO   OCC          E(Eh)            E(eV)
   0   2.0000     -88.966587     -2420.9039
   1   2.0000     -88.964372     -2420.8436
   2   2.0000     -10.329449      -281.0786
   3   2.0000     -10.326976      -281.0113
   4   2.0000     -10.321652      -280.8664
   5   2.0000     -10.318360      -280.7768
   6   2.0000     -10.313230      -280.6373
   7   2.0000     -10.306697      -280.4595
   8   2.0000     -10.304646      -280.4037
   9   2.0000     -10.299469      -280.2628
  10   2.0000     -10.296722      -280.1881
  11   2.0000     -10.292724      -280.0793
  12   2.0000     -10.289252      -279.9848
  13   2.0000     -10.288768      -279.9716
  14   2.0000     -10.286827      -279.9188
  15   2.0000     -10.274352      -279.5793
  16   2.0000      -8.080687      -219.8867
  17   2.0000      -8.078603      -219.8300
  18   2.0000      -6.039256      -164.3365
  19   2.0000      -6.037171      -164.2798
  20   2.0000      -6.035400      -164.2316
  21   2.0000      -6.033132      -164.1699
  22   2.0000      -6.031306      -164.1202
  23   2.0000      -6.029350      -164.0670
  24   2.0000      -0.998810       -27.1790
  25   2.0000      -0.975764       -26.5519
  26   2.0000      -0.907202       -24.6862
  27   2.0000      -0.905688       -24.6450
  28   2.0000      -0.864916       -23.5356
  29   2.0000      -0.847061       -23.0497
  30   2.0000      -0.840098       -22.8602
  31   2.0000      -0.810394       -22.0519
  32   2.0000      -0.782626       -21.2963
  33   2.0000      -0.770079       -20.9549
  34   2.0000      -0.707297       -19.2465
  35   2.0000      -0.693990       -18.8844
  36   2.0000      -0.686134       -18.6707
  37   2.0000      -0.659025       -17.9330
  38   2.0000      -0.646465       -17.5912
  39   2.0000      -0.611313       -16.6347
  40   2.0000      -0.593709       -16.1556
  41   2.0000      -0.568222       -15.4621
  42   2.0000      -0.563910       -15.3448
  43   2.0000      -0.544138       -14.8067
  44   2.0000      -0.541112       -14.7244
  45   2.0000      -0.517634       -14.0855
  46   2.0000      -0.514207       -13.9923
  47   2.0000      -0.508466       -13.8361
  48   2.0000      -0.505680       -13.7603
  49   2.0000      -0.496563       -13.5122
  50   2.0000      -0.485410       -13.2087
  51   2.0000      -0.477854       -13.0031
  52   2.0000      -0.468951       -12.7608
  53   2.0000      -0.463821       -12.6212
  54   2.0000      -0.454745       -12.3742
  55   2.0000      -0.446622       -12.1532
  56   2.0000      -0.443684       -12.0733
  57   2.0000      -0.438587       -11.9346
  58   2.0000      -0.431285       -11.7358
  59   2.0000      -0.422535       -11.4978
  60   2.0000      -0.418327       -11.3833
  61   2.0000      -0.415748       -11.3131
  62   2.0000      -0.410316       -11.1653
  63   2.0000      -0.333834        -9.0841
  64   2.0000      -0.327118        -8.9013
  65   2.0000      -0.316749        -8.6192
  66   2.0000      -0.312129        -8.4935
  67   0.0000       0.042568         1.1583
  68   0.0000       0.048392         1.3168
  69   0.0000       0.111411         3.0317
  70   0.0000       0.117105         3.1866
  71   0.0000       0.122902         3.3443

MULLIKEN ATOMIC CHARGES
-----------------------
   0 S :    0.101590
   1 C :   -0.123740
   2 C :   -0.085285
   3 C :    0.029857
   4 C :   -0.196996
   5 H :    0.037196
   6 C :    0.104119
   7 H :    0.028966
   8 H :   -0.001988
   9 C :   -0.062504
  10 H :    0.034397
  11 H :    0.026037
  12 C :   -0.096329
  13 H :    0.037435
  14 H :    0.042031
  15 H :    0.046891
  16 S :    0.116048
  17 C :   -0.049636
  18 C :   -0.043047
  19 C :   -0.024908
  20 C :   -0.178121
  21 H :    0.029788
  22 C :    0.037152
  23 H :    0.029005
  24 H :    0.039920
  25 C :   -0.088590
  26 H :    0.060917
  27 H :    0.036958
  28 C :   -0.048250
  29 H :    0.020380
  30 H :    0.026826
  31 H :    0.033518
  32 H :    0.050719
  33 H :    0.029645
Sum of atomic charges:    0.0000000

LOEWDIN ATOMIC CHARGES
----------------------
   0 S :    0.397204
   1 C :   -0.187042
   2 C :   -0.057539
   3 C :   -0.062079
   4 C :   -0.202052
   5 H :    0.041644
   6 C :   -0.031561
   7 H :    0.034502
   8 H :    0.022682
   9 C :   -0.042556
  10 H :    0.032042
  11 H :    0.020150
  12 C :   -0.075401
  13 H :    0.029125
  14 H :    0.033781
  15 H :    0.023937
  16 S :    0.394748
  17 C :   -0.175625
  18 C :   -0.074833
  19 C :   -0.046040
  20 C :   -0.197753
  21 H :    0.034959
  22 C :   -0.039298
  23 H :    0.038431
  24 H :    0.036153
  25 C :   -0.040720
  26 H :    0.024955
  27 H :    0.027211
  28 C :   -0.066404
  29 H :    0.016869
  30 H :    0.022560
  31 H :    0.028695
  32 H :    0.022827
  33 H :    0.016429

  Mayer bond orders larger than 0.100000
B(  0-S ,  1-C ) :   1.1398 B(  0-S ,  4-C ) :   1.1356 B(  1-C ,  2-C ) :   1.6186
B(  1-C , 32-H ) :   0.9762 B(  2-C ,  3-C ) :   1.1879 B(  2-C ,  6-C ) :   1.0195
B(  3-C ,  4-C ) :   1.6386 B(  3-C ,  5-H ) :   0.9796 B(  4-C , 20-C ) :   1.0179
B(  6-C ,  7-H ) :   0.9341 B(  6-C ,  8-H ) :   0.9387 B(  6-C ,  9-C ) :   1.0751
B(  9-C , 10-H ) :   0.9511 B(  9-C , 11-H ) :   0.9569 B(  9-C , 12-C ) :   1.0767
B( 12-C , 13-H ) :   0.9743 B( 12-C , 14-H ) :   0.9732 B( 12-C , 15-H ) :   0.9778
B( 16-S , 17-C ) :   1.1510 B( 16-S , 20-C ) :   1.1281 B( 17-C , 18-C ) :   1.6270
B( 17-C , 33-H ) :   0.9722 B( 18-C , 19-C ) :   1.2392 B( 18-C , 21-H ) :   0.9744
B( 19-C , 20-C ) :   1.6040 B( 19-C , 22-C ) :   1.0341 B( 22-C , 23-H ) :   0.9325
B( 22-C , 24-H ) :   0.9367 B( 22-C , 25-C ) :   1.0528 B( 25-C , 26-H ) :   0.9531
B( 25-C , 27-H ) :   0.9571 B( 25-C , 28-C ) :   1.0762 B( 28-C , 29-H ) :   0.9766
B( 28-C , 30-H ) :   0.9763 B( 28-C , 31-H ) :   0.9749

Dispersion correction           -0.014579180
FINAL SINGLE POINT ENERGY     -1339.870105278140

DIPOLE MOMENT
-------------
                                X             Y             Z
Electronic contribution:    -26.38630      -5.87027      10.46104
Nuclear contribution   :     26.89138       6.12586     -10.55163
                        -----------------------------------------
Total Dipole Moment    :      0.50507       0.25559      -0.09059
                        -----------------------------------------
Magnitude (a.u.)       :      0.57327
Magnitude (Debye)      :      1.45713

Rotational constants in cm-1:     0.018539     0.009047     0.007436
Rotational constants in MHz :   555.777621   271.230681   222.931980

                             ****ORCA TERMINATED NORMALLY****
TOTAL RUN TIME: 0 days 0 hours 0 minutes 34 seconds 25 msec
