                         Program Version 4.2.1 -  RELEASE  -
|  1> ! wB97X-D3 SP def2-SVP
|  2> %pal
|  3> nprocs 16
|  4> end
|  5>
|  6> * xyz 0 1
|  7> S 	 34.793 	 25.1182 	 56.5275
|  8> C 	 35.9583 	 26.2621 	 56.0916
|  9> C 	 36.7835 	 25.8102 	 55.0102
| 10> C 	 36.3443 	 24.5347 	 54.533
| 11> C 	 35.3035 	 23.9847 	 55.2806
| 12> H 	 36.7559 	 23.9335 	 53.8363
| 13> C 	 37.8922 	 26.5372 	 54.3287
| 14> H 	 37.723 	 27.5783 	 54.5713
| 15> H 	 37.8047 	 26.274 	 53.2475
| 16> C 	 39.3679 	 26.1284 	 54.6414
| 17> H 	 39.6526 	 25.1194 	 54.3981
| 18> H 	 39.9806 	 26.7186 	 54.0291
| 19> C 	 39.9099 	 26.2869 	 56.0485
| 20> H 	 39.2623 	 25.6382 	 56.7382
| 21> H 	 40.9485 	 25.8796 	 56.1382
| 22> H 	 39.9367 	 27.3366 	 56.3197
| 23> S 	 34.6552 	 21.7333 	 56.6348
| 24> C 	 33.8049 	 20.4289 	 55.8347
| 25> C 	 33.5588 	 20.7843 	 54.4962
| 26> C 	 34.0426 	 22.0899 	 54.1034
| 27> C 	 34.6947 	 22.6904 	 55.1314
| 28> H 	 33.0148 	 20.1597 	 53.79
| 29> C 	 33.734 	 22.6364 	 52.748
| 30> H 	 33.4651 	 23.7087 	 52.8453
| 31> H 	 33.008 	 21.9908 	 52.4307
| 32> C 	 34.8018 	 22.6138 	 51.717
| 33> H 	 35.2304 	 21.6007 	 51.5449
| 34> H 	 35.6464 	 23.2598 	 51.9218
| 35> C 	 34.275 	 23.0093 	 50.2859
| 36> H 	 33.8394 	 23.9847 	 50.1972
| 37> H 	 33.5847 	 22.3318 	 49.8811
| 38> H 	 35.0714 	 22.9996 	 49.596
| 39> H 	 36.0459 	 27.2553 	 56.5669
| 40> H 	 33.4847 	 19.5006 	 56.3611
| 41> *
| 42>
| 43>                          ****END OF INPUT****

CARTESIAN COORDINATES (ANGSTROEM)
---------------------------------
  S     34.793000   25.118200   56.527500
  C     35.958300   26.262100   56.091600
  C     36.783500   25.810200   55.010200
  C     36.344300   24.534700   54.533000
  C     35.303500   23.984700   55.280600
  H     36.755900   23.933500   53.836300
  C     37.892200   26.537200   54.328700
  H     37.723000   27.578300   54.571300
  H     37.804700   26.274000   53.247500
  C     39.367900   26.128400   54.641400
  H     39.652600   25.119400   54.398100
  H     39.980600   26.718600   54.029100
  C     39.909900   26.286900   56.048500
  H     39.262300   25.638200   56.738200
  H     40.948500   25.879600   56.138200
  H     39.936700   27.336600   56.319700
  S     34.655200   21.733300   56.634800
  C     33.804900   20.428900   55.834700
  C     33.558800   20.784300   54.496200
  C     34.042600   22.089900   54.103400
  C     34.694700   22.690400   55.131400
  H     33.014800   20.159700   53.790000
  C     33.734000   22.636400   52.748000
  H     33.465100   23.708700   52.845300
  H     33.008000   21.990800   52.430700
  C     34.801800   22.613800   51.717000
  H     35.230400   21.600700   51.544900
  H     35.646400   23.259800   51.921800
  C     34.275000   23.009300   50.285900
  H     33.839400   23.984700   50.197200
  H     33.584700   22.331800   49.881100
  H     35.071400   22.999600   49.596000
  H     36.045900   27.255300   56.566900
  H     33.484700   19.500600   56.361100

 Total Charge           Charge          ....    0
 Multiplicity           Mult            ....    1
 Number of Electrons    NEL             ....  134
 Basis Dimension        Dim             ....  322

ORBITAL ENERGIES
----------------

  NO   OCC          E(Eh)            E(eV)
   0   2.0000     -88.968249     -2420.9491
   1   2.0000     -88.963191     -2420.8115
   2   2.0000     -10.326200      -280.9902
   3   2.0000     -10.324603      -280.9467
   4   2.0000     -10.322786      -280.8973
   5   2.0000     -10.317857      -280.7632
   6   2.0000     -10.304052      -280.3875
   7   2.0000     -10.299583      -280.2659
   8   2.0000     -10.298337      -280.2320
   9   2.0000     -10.296414      -280.1797
  10   2.0000     -10.288172      -279.9554
  11   2.0000     -10.287142      -279.9274
  12   2.0000     -10.284707      -279.8611
  13   2.0000     -10.279484      -279.7190
  14   2.0000     -10.279274      -279.7133
  15   2.0000     -10.269101      -279.4364
  16   2.0000      -8.083597      -219.9658
  17   2.0000      -8.077684      -219.8050
  18   2.0000      -6.041893      -164.4083
  19   2.0000      -6.037889      -164.2993
  20   2.0000      -6.036271      -164.2553
  21   2.0000      -6.034669      -164.2117
  22   2.0000      -6.032191      -164.1443
  23   2.0000      -6.028397      -164.0410
  24   2.0000      -1.006696       -27.3936
  25   2.0000      -0.982263       -26.7287
  26   2.0000      -0.917353       -24.9624
  27   2.0000      -0.909906       -24.7598
  28   2.0000      -0.868901       -23.6440
  29   2.0000      -0.855765       -23.2866
  30   2.0000      -0.851246       -23.1636
  31   2.0000      -0.811110       -22.0714
  32   2.0000      -0.787981       -21.4421
  33   2.0000      -0.769959       -20.9517
  34   2.0000      -0.709416       -19.3042
  35   2.0000      -0.699636       -19.0381
  36   2.0000      -0.688840       -18.7443
  37   2.0000      -0.668721       -18.1968
  38   2.0000      -0.649252       -17.6670
  39   2.0000      -0.617411       -16.8006
  40   2.0000      -0.596763       -16.2388
  41   2.0000      -0.576038       -15.6748
  42   2.0000      -0.560658       -15.2563
  43   2.0000      -0.549294       -14.9470
  44   2.0000      -0.542252       -14.7554
  45   2.0000      -0.526029       -14.3140
  46   2.0000      -0.517842       -14.0912
  47   2.0000      -0.514151       -13.9907
  48   2.0000      -0.513271       -13.9668
  49   2.0000      -0.497496       -13.5376
  50   2.0000      -0.490485       -13.3468
  51   2.0000      -0.483100       -13.1458
  52   2.0000      -0.471520       -12.8307
  53   2.0000      -0.466191       -12.6857
  54   2.0000      -0.458045       -12.4640
  55   2.0000      -0.448179       -12.1956
  56   2.0000      -0.441445       -12.0123
  57   2.0000      -0.439607       -11.9623
  58   2.0000      -0.433807       -11.8045
  59   2.0000      -0.425465       -11.5775
  60   2.0000      -0.422380       -11.4936
  61   2.0000      -0.415227       -11.2989
  62   2.0000      -0.414088       -11.2679
  63   2.0000      -0.346953        -9.4411
  64   2.0000      -0.331553        -9.0220
  65   2.0000      -0.324926        -8.8417
  66   2.0000      -0.290292        -7.8992
  67   0.0000       0.032523         0.8850
  68   0.0000       0.064081         1.7437
  69   0.0000       0.111584         3.0364
  70   0.0000       0.115926         3.1545
  71   0.0000       0.129463         3.5229

MULLIKEN ATOMIC CHARGES
-----------------------
   0 S :    0.135782
   1 C :   -0.133040
   2 C :   -0.094775
   3 C :    0.071926
   4 C :   -0.173570
   5 H :   -0.030095
   6 C :    0.077226
   7 H :    0.021601
   8 H :    0.039119
   9 C :   -0.042342
  10 H :    0.016559
  11 H :    0.012139
  12 C :   -0.090743
  13 H :    0.049842
  14 H :    0.039792
  15 H :    0.029073
  16 S :    0.097318
  17 C :   -0.104878
  18 C :   -0.040156
  19 C :   -0.033183
  20 C :   -0.184408
  21 H :    0.017271
  22 C :    0.169279
  23 H :    0.041256
  24 H :   -0.018213
  25 C :   -0.101354
  26 H :    0.025705
  27 H :    0.025294
  28 C :   -0.016171
  29 H :    0.022328
  30 H :    0.015285
  31 H :    0.014560
  32 H :    0.062771
  33 H :    0.078801
Sum of atomic charges:   -0.0000000

LOEWDIN ATOMIC CHARGES
----------------------
   0 S :    0.436024
   1 C :   -0.226455
   2 C :   -0.065042
   3 C :   -0.046784
   4 C :   -0.197010
   5 H :    0.010329
   6 C :   -0.031228
   7 H :    0.030785
   8 H :    0.043365
   9 C :   -0.042486
  10 H :    0.022155
  11 H :    0.016623
  12 C :   -0.072487
  13 H :    0.033728
  14 H :    0.031097
  15 H :    0.018318
  16 S :    0.390269
  17 C :   -0.191728
  18 C :   -0.071990
  19 C :   -0.054274
  20 C :   -0.189246
  21 H :    0.027863
  22 C :   -0.024445
  23 H :    0.044701
  24 H :    0.020859
  25 C :   -0.034444
  26 H :    0.026680
  27 H :    0.018700
  28 C :   -0.058219
  29 H :    0.021487
  30 H :    0.016795
  31 H :    0.021401
  32 H :    0.034657
  33 H :    0.040002

  Mayer bond orders larger than 0.100000
B(  0-S ,  1-C ) :   1.1723 B(  0-S ,  4-C ) :   1.1605 B(  1-C ,  2-C ) :   1.5459
B(  1-C ,  4-C ) :   0.1019 B(  1-C , 32-H ) :   0.9646 B(  2-C ,  3-C ) :   1.2559
B(  2-C ,  6-C ) :   1.0389 B(  3-C ,  4-C ) :   1.5544 B(  3-C ,  5-H ) :   1.0060
B(  4-C , 20-C ) :   1.0491 B(  6-C ,  7-H ) :   0.9380 B(  6-C ,  8-H ) :   0.9356
B(  6-C ,  9-C ) :   1.0658 B(  9-C , 10-H ) :   0.9565 B(  9-C , 11-H ) :   0.9523
B(  9-C , 12-C ) :   1.0838 B( 12-C , 13-H ) :   0.9742 B( 12-C , 14-H ) :   0.9723
B( 12-C , 15-H ) :   0.9770 B( 16-S , 17-C ) :   1.1502 B( 16-S , 20-C ) :   1.1281
B( 17-C , 18-C ) :   1.5981 B( 17-C , 33-H ) :   0.9652 B( 18-C , 19-C ) :   1.2362
B( 18-C , 21-H ) :   0.9811 B( 19-C , 20-C ) :   1.6160 B( 19-C , 22-C ) :   1.0513
B( 22-C , 23-H ) :   0.9184 B( 22-C , 24-H ) :   0.9107 B( 22-C , 25-C ) :   1.0900
B( 25-C , 26-H ) :   0.9513 B( 25-C , 27-H ) :   0.9507 B( 25-C , 28-C ) :   1.0852
B( 28-C , 29-H ) :   0.9739 B( 28-C , 30-H ) :   0.9755 B( 28-C , 31-H ) :   0.9725

Dispersion correction           -0.014094312
FINAL SINGLE POINT ENERGY     -1339.871045653672

DIPOLE MOMENT
-------------
                                X             Y             Z
Electronic contribution:    -13.86377      -7.07812      20.70707
Nuclear contribution   :     14.03895       7.13211     -21.30676
                        -----------------------------------------
Total Dipole Moment    :      0.17518       0.05399      -0.59968
                        -----------------------------------------
Magnitude (a.u.)       :      0.62708
Magnitude (Debye)      :      1.59390

Rotational constants in cm-1:     0.017398     0.008864     0.006878
Rotational constants in MHz :   521.572424   265.734170   206.210133

                             ****ORCA TERMINATED NORMALLY****
TOTAL RUN TIME: 0 days 0 hours 0 minutes 33 seconds 811 msec
