                         Program Version 4.2.1 -  RELEASE  -
|  1> ! wB97X-D3 SP def2-SVP
|  2> %pal
|  3> nprocs 16
|  4> end
|  5>
|  6> * xyz 0 1
|  7> S 	 13.156 	 -15.2469 	 81.0641
|  8> C 	 14.3873 	 -16.2852 	 80.3257
|  9> C 	 14.5803 	 -15.9038 	 79.0293
| 10> C 	 13.8281 	 -14.726 	 78.6349
| 11> C 	 12.9222 	 -14.3194 	 79.5646
| 12> H 	 13.8657 	 -14.2229 	 77.7267
| 13> C 	 15.5227 	 -16.6245 	 78.0453
| 14> H 	 15.6445 	 -17.6528 	 78.4003
| 15> H 	 16.5152 	 -16.1445 	 78.1124
| 16> C 	 15.1217 	 -16.6106 	 76.5781
| 17> H 	 14.0555 	 -16.8424 	 76.4489
| 18> H 	 15.3274 	 -15.5608 	 76.2299
| 19> C 	 15.9569 	 -17.4281 	 75.5729
| 20> H 	 16.2281 	 -18.4179 	 75.9205
| 21> H 	 15.5784 	 -17.4607 	 74.5543
| 22> H 	 16.9787 	 -16.9862 	 75.5437
| 23> S 	 12.6423 	 -11.5398 	 79.3936
| 24> C 	 11.1247 	 -10.7813 	 79.7065
| 25> C 	 10.1364 	 -11.7368 	 79.8518
| 26> C 	 10.5942 	 -13.0917 	 79.6467
| 27> C 	 11.955 	 -13.2028 	 79.4854
| 28> H 	 9.13942 	 -11.3354 	 79.9807
| 29> C 	 9.56987 	 -14.2192 	 79.7175
| 30> H 	 9.89576 	 -14.8815 	 78.9383
| 31> H 	 8.6157 	 -13.8273 	 79.3338
| 32> C 	 9.19047 	 -14.8661 	 81.0816
| 33> H 	 8.81702 	 -14.0826 	 81.7382
| 34> H 	 10.0896 	 -15.2318 	 81.5578
| 35> C 	 8.21734 	 -16.0014 	 80.8794
| 36> H 	 7.37028 	 -15.5354 	 80.2409
| 37> H 	 7.68066 	 -16.2806 	 81.7712
| 38> H 	 8.69215 	 -16.786 	 80.2604
| 39> H 	 14.957 	 -17.0629 	 80.8894
| 40> H 	 10.8735 	 -9.7267 	 79.765
| 41> *
| 42>
| 43>                          ****END OF INPUT****

CARTESIAN COORDINATES (ANGSTROEM)
---------------------------------
  S     13.156000  -15.246900   81.064100
  C     14.387300  -16.285200   80.325700
  C     14.580300  -15.903800   79.029300
  C     13.828100  -14.726000   78.634900
  C     12.922200  -14.319400   79.564600
  H     13.865700  -14.222900   77.726700
  C     15.522700  -16.624500   78.045300
  H     15.644500  -17.652800   78.400300
  H     16.515200  -16.144500   78.112400
  C     15.121700  -16.610600   76.578100
  H     14.055500  -16.842400   76.448900
  H     15.327400  -15.560800   76.229900
  C     15.956900  -17.428100   75.572900
  H     16.228100  -18.417900   75.920500
  H     15.578400  -17.460700   74.554300
  H     16.978700  -16.986200   75.543700
  S     12.642300  -11.539800   79.393600
  C     11.124700  -10.781300   79.706500
  C     10.136400  -11.736800   79.851800
  C     10.594200  -13.091700   79.646700
  C     11.955000  -13.202800   79.485400
  H      9.139420  -11.335400   79.980700
  C      9.569870  -14.219200   79.717500
  H      9.895760  -14.881500   78.938300
  H      8.615700  -13.827300   79.333800
  C      9.190470  -14.866100   81.081600
  H      8.817020  -14.082600   81.738200
  H     10.089600  -15.231800   81.557800
  C      8.217340  -16.001400   80.879400
  H      7.370280  -15.535400   80.240900
  H      7.680660  -16.280600   81.771200
  H      8.692150  -16.786000   80.260400
  H     14.957000  -17.062900   80.889400
  H     10.873500   -9.726700   79.765000

 Total Charge           Charge          ....    0
 Multiplicity           Mult            ....    1
 Number of Electrons    NEL             ....  134
 Basis Dimension        Dim             ....  322

ORBITAL ENERGIES
----------------

  NO   OCC          E(Eh)            E(eV)
   0   2.0000     -88.964135     -2420.8372
   1   2.0000     -88.963243     -2420.8129
   2   2.0000     -10.334129      -281.2060
   3   2.0000     -10.331557      -281.1360
   4   2.0000     -10.320711      -280.8408
   5   2.0000     -10.317031      -280.7407
   6   2.0000     -10.306988      -280.4674
   7   2.0000     -10.306426      -280.4521
   8   2.0000     -10.296544      -280.1832
   9   2.0000     -10.292419      -280.0710
  10   2.0000     -10.292289      -280.0674
  11   2.0000     -10.291719      -280.0519
  12   2.0000     -10.288440      -279.9627
  13   2.0000     -10.281994      -279.7873
  14   2.0000     -10.281844      -279.7832
  15   2.0000     -10.281836      -279.7830
  16   2.0000      -8.078002      -219.8136
  17   2.0000      -8.077692      -219.8052
  18   2.0000      -6.036704      -164.2671
  19   2.0000      -6.036359      -164.2577
  20   2.0000      -6.032577      -164.1548
  21   2.0000      -6.032117      -164.1422
  22   2.0000      -6.028631      -164.0474
  23   2.0000      -6.028407      -164.0413
  24   2.0000      -1.002302       -27.2740
  25   2.0000      -0.982368       -26.7316
  26   2.0000      -0.908851       -24.7311
  27   2.0000      -0.905916       -24.6512
  28   2.0000      -0.870637       -23.6912
  29   2.0000      -0.849591       -23.1186
  30   2.0000      -0.843414       -22.9505
  31   2.0000      -0.818152       -22.2630
  32   2.0000      -0.781047       -21.2534
  33   2.0000      -0.769342       -20.9349
  34   2.0000      -0.709466       -19.3055
  35   2.0000      -0.695438       -18.9238
  36   2.0000      -0.686567       -18.6824
  37   2.0000      -0.661990       -18.0137
  38   2.0000      -0.642266       -17.4769
  39   2.0000      -0.618676       -16.8350
  40   2.0000      -0.590797       -16.0764
  41   2.0000      -0.573458       -15.6046
  42   2.0000      -0.565980       -15.4011
  43   2.0000      -0.561776       -15.2867
  44   2.0000      -0.529720       -14.4144
  45   2.0000      -0.527319       -14.3491
  46   2.0000      -0.518584       -14.1114
  47   2.0000      -0.510567       -13.8932
  48   2.0000      -0.505656       -13.7596
  49   2.0000      -0.498606       -13.5678
  50   2.0000      -0.490809       -13.3556
  51   2.0000      -0.477515       -12.9938
  52   2.0000      -0.471352       -12.8261
  53   2.0000      -0.462634       -12.5889
  54   2.0000      -0.455459       -12.3937
  55   2.0000      -0.453512       -12.3407
  56   2.0000      -0.442335       -12.0366
  57   2.0000      -0.433695       -11.8014
  58   2.0000      -0.430864       -11.7244
  59   2.0000      -0.418536       -11.3889
  60   2.0000      -0.416507       -11.3337
  61   2.0000      -0.411164       -11.1883
  62   2.0000      -0.407603       -11.0914
  63   2.0000      -0.342222        -9.3123
  64   2.0000      -0.330596        -8.9960
  65   2.0000      -0.326668        -8.8891
  66   2.0000      -0.304716        -8.2917
  67   0.0000       0.035569         0.9679
  68   0.0000       0.060158         1.6370
  69   0.0000       0.108364         2.9487
  70   0.0000       0.117866         3.2073
  71   0.0000       0.133658         3.6370

MULLIKEN ATOMIC CHARGES
-----------------------
   0 S :    0.101110
   1 C :   -0.150509
   2 C :   -0.071559
   3 C :    0.051196
   4 C :   -0.130439
   5 H :   -0.010736
   6 C :    0.077343
   7 H :    0.020214
   8 H :    0.041033
   9 C :   -0.126936
  10 H :    0.043913
  11 H :    0.040543
  12 C :   -0.034720
  13 H :    0.018760
  14 H :    0.047668
  15 H :    0.018939
  16 S :    0.100527
  17 C :   -0.086643
  18 C :   -0.050419
  19 C :   -0.031755
  20 C :   -0.163544
  21 H :    0.019077
  22 C :    0.040409
  23 H :    0.024909
  24 H :    0.009818
  25 C :   -0.031737
  26 H :    0.023461
  27 H :    0.020869
  28 C :   -0.048104
  29 H :    0.020017
  30 H :    0.038709
  31 H :    0.048525
  32 H :    0.070614
  33 H :    0.059449
Sum of atomic charges:   -0.0000000

LOEWDIN ATOMIC CHARGES
----------------------
   0 S :    0.385992
   1 C :   -0.193551
   2 C :   -0.061771
   3 C :   -0.053072
   4 C :   -0.179750
   5 H :    0.022526
   6 C :   -0.033955
   7 H :    0.026949
   8 H :    0.036494
   9 C :   -0.050689
  10 H :    0.025272
  11 H :    0.030429
  12 C :   -0.068789
  13 H :    0.019554
  14 H :    0.030605
  15 H :    0.027854
  16 S :    0.394587
  17 C :   -0.189243
  18 C :   -0.079045
  19 C :   -0.052854
  20 C :   -0.189491
  21 H :    0.031061
  22 C :   -0.033404
  23 H :    0.028967
  24 H :    0.029276
  25 C :   -0.039186
  26 H :    0.023999
  27 H :    0.013692
  28 C :   -0.067979
  29 H :    0.029525
  30 H :    0.025345
  31 H :    0.032903
  32 H :    0.042169
  33 H :    0.035579

  Mayer bond orders larger than 0.100000
B(  0-S ,  1-C ) :   1.1228 B(  0-S ,  4-C ) :   1.1312 B(  1-C ,  2-C ) :   1.6486
B(  1-C , 32-H ) :   0.9657 B(  2-C ,  3-C ) :   1.1959 B(  2-C ,  6-C ) :   1.0166
B(  3-C ,  4-C ) :   1.6126 B(  3-C ,  5-H ) :   1.0052 B(  4-C , 20-C ) :   1.0272
B(  6-C ,  7-H ) :   0.9463 B(  6-C ,  8-H ) :   0.9321 B(  6-C ,  9-C ) :   1.0679
B(  9-C , 10-H ) :   0.9638 B(  9-C , 11-H ) :   0.9479 B(  9-C , 12-C ) :   1.0813
B( 12-C , 13-H ) :   0.9746 B( 12-C , 14-H ) :   0.9752 B( 12-C , 15-H ) :   0.9717
B( 16-S , 17-C ) :   1.1604 B( 16-S , 20-C ) :   1.1149 B( 17-C , 18-C ) :   1.6276
B( 17-C , 33-H ) :   0.9634 B( 18-C , 19-C ) :   1.2205 B( 18-C , 21-H ) :   0.9910
B( 19-C , 20-C ) :   1.6169 B( 19-C , 22-C ) :   1.0397 B( 22-C , 23-H ) :   0.9360
B( 22-C , 24-H ) :   0.9321 B( 22-C , 25-C ) :   1.0556 B( 25-C , 26-H ) :   0.9508
B( 25-C , 27-H ) :   0.9492 B( 25-C , 28-C ) :   1.0850 B( 28-C , 29-H ) :   0.9711
B( 28-C , 30-H ) :   0.9713 B( 28-C , 31-H ) :   0.9735

Dispersion correction           -0.013805393
FINAL SINGLE POINT ENERGY     -1339.879948028323

DIPOLE MOMENT
-------------
                                X             Y             Z
Electronic contribution:      4.21282      17.21314      10.80166
Nuclear contribution   :     -4.28487     -17.40597     -11.07069
                        -----------------------------------------
Total Dipole Moment    :     -0.07206      -0.19283      -0.26903
                        -----------------------------------------
Magnitude (a.u.)       :      0.33875
Magnitude (Debye)      :      0.86103

Rotational constants in cm-1:     0.018133     0.007755     0.006568
Rotational constants in MHz :   543.622074   232.491772   196.915716

                             ****ORCA TERMINATED NORMALLY****
TOTAL RUN TIME: 0 days 0 hours 0 minutes 28 seconds 647 msec
