                         Program Version 4.2.1 -  RELEASE  -
|  1> ! wB97X-D3 SP def2-SVP
|  2> %pal
|  3> nprocs 16
|  4> end
|  5>
|  6> * xyz 0 1
|  7> S 	 4.00598 	 -16.2523 	 84.2199
|  8> C 	 3.41404 	 -17.6797 	 85.1389
|  9> C 	 4.34626 	 -18.6383 	 85.4433
| 10> C 	 5.58394 	 -18.334 	 84.7906
| 11> C 	 5.62394 	 -17.038 	 84.2553
| 12> H 	 6.52711 	 -18.9067 	 84.8568
| 13> C 	 4.1205 	 -19.9226 	 86.2496
| 14> H 	 3.08778 	 -20.231 	 86.0465
| 15> H 	 4.08582 	 -19.685 	 87.3264
| 16> C 	 5.01502 	 -21.1843 	 86.0691
| 17> H 	 5.11149 	 -21.2914 	 84.9825
| 18> H 	 5.99084 	 -21.0844 	 86.4835
| 19> C 	 4.37996 	 -22.4743 	 86.4901
| 20> H 	 4.42577 	 -22.6302 	 87.5891
| 21> H 	 3.33914 	 -22.5755 	 86.1724
| 22> H 	 4.92636 	 -23.3373 	 86.1525
| 23> S 	 6.71924 	 -14.5644 	 83.7216
| 24> C 	 8.27996 	 -14.4893 	 83.0315
| 25> C 	 8.75225 	 -15.6896 	 82.6883
| 26> C 	 7.99205 	 -16.7739 	 83.147
| 27> C 	 6.80347 	 -16.3511 	 83.6902
| 28> H 	 9.71633 	 -15.6202 	 82.2362
| 29> C 	 8.45999 	 -18.1951 	 82.9718
| 30> H 	 9.08288 	 -18.2413 	 81.9958
| 31> H 	 7.61239 	 -18.8292 	 82.8959
| 32> C 	 9.35016 	 -18.7649 	 84.1514
| 33> H 	 8.7635 	 -18.5223 	 85.0187
| 34> H 	 10.2723 	 -18.201 	 84.1695
| 35> C 	 9.69327 	 -20.2553 	 84.2243
| 36> H 	 8.74324 	 -20.7968 	 84.5101
| 37> H 	 10.3874 	 -20.6287 	 84.9658
| 38> H 	 9.9636 	 -20.6271 	 83.2543
| 39> H 	 2.50908 	 -17.624 	 85.7556
| 40> H 	 8.71314 	 -13.6189 	 82.717
| 41> *
| 42>
| 43>                          ****END OF INPUT****

CARTESIAN COORDINATES (ANGSTROEM)
---------------------------------
  S      4.005980  -16.252300   84.219900
  C      3.414040  -17.679700   85.138900
  C      4.346260  -18.638300   85.443300
  C      5.583940  -18.334000   84.790600
  C      5.623940  -17.038000   84.255300
  H      6.527110  -18.906700   84.856800
  C      4.120500  -19.922600   86.249600
  H      3.087780  -20.231000   86.046500
  H      4.085820  -19.685000   87.326400
  C      5.015020  -21.184300   86.069100
  H      5.111490  -21.291400   84.982500
  H      5.990840  -21.084400   86.483500
  C      4.379960  -22.474300   86.490100
  H      4.425770  -22.630200   87.589100
  H      3.339140  -22.575500   86.172400
  H      4.926360  -23.337300   86.152500
  S      6.719240  -14.564400   83.721600
  C      8.279960  -14.489300   83.031500
  C      8.752250  -15.689600   82.688300
  C      7.992050  -16.773900   83.147000
  C      6.803470  -16.351100   83.690200
  H      9.716330  -15.620200   82.236200
  C      8.459990  -18.195100   82.971800
  H      9.082880  -18.241300   81.995800
  H      7.612390  -18.829200   82.895900
  C      9.350160  -18.764900   84.151400
  H      8.763500  -18.522300   85.018700
  H     10.272300  -18.201000   84.169500
  C      9.693270  -20.255300   84.224300
  H      8.743240  -20.796800   84.510100
  H     10.387400  -20.628700   84.965800
  H      9.963600  -20.627100   83.254300
  H      2.509080  -17.624000   85.755600
  H      8.713140  -13.618900   82.717000

 Total Charge           Charge          ....    0
 Multiplicity           Mult            ....    1
 Number of Electrons    NEL             ....  134
 Basis Dimension        Dim             ....  322

ORBITAL ENERGIES
----------------

  NO   OCC          E(Eh)            E(eV)
   0   2.0000     -88.971120     -2421.0273
   1   2.0000     -88.962741     -2420.7993
   2   2.0000     -10.338517      -281.3253
   3   2.0000     -10.330311      -281.1021
   4   2.0000     -10.313669      -280.6492
   5   2.0000     -10.307183      -280.4727
   6   2.0000     -10.303116      -280.3620
   7   2.0000     -10.302328      -280.3406
   8   2.0000     -10.300296      -280.2853
   9   2.0000     -10.300091      -280.2797
  10   2.0000     -10.299039      -280.2511
  11   2.0000     -10.289831      -280.0005
  12   2.0000     -10.288673      -279.9690
  13   2.0000     -10.283582      -279.8305
  14   2.0000     -10.283323      -279.8234
  15   2.0000     -10.281005      -279.7604
  16   2.0000      -8.084168      -219.9814
  17   2.0000      -8.078218      -219.8195
  18   2.0000      -6.042866      -164.4347
  19   2.0000      -6.039230      -164.3358
  20   2.0000      -6.036629      -164.2650
  21   2.0000      -6.034511      -164.2074
  22   2.0000      -6.032781      -164.1603
  23   2.0000      -6.028879      -164.0541
  24   2.0000      -1.009335       -27.4654
  25   2.0000      -0.981377       -26.7046
  26   2.0000      -0.912213       -24.8226
  27   2.0000      -0.907613       -24.6974
  28   2.0000      -0.873108       -23.7585
  29   2.0000      -0.857615       -23.3369
  30   2.0000      -0.846187       -23.0259
  31   2.0000      -0.816642       -22.2220
  32   2.0000      -0.786675       -21.4065
  33   2.0000      -0.776396       -21.1268
  34   2.0000      -0.714069       -19.4308
  35   2.0000      -0.700285       -19.0557
  36   2.0000      -0.694003       -18.8848
  37   2.0000      -0.664245       -18.0750
  38   2.0000      -0.635862       -17.3027
  39   2.0000      -0.621039       -16.8993
  40   2.0000      -0.599524       -16.3139
  41   2.0000      -0.575714       -15.6660
  42   2.0000      -0.568438       -15.4680
  43   2.0000      -0.563270       -15.3273
  44   2.0000      -0.526888       -14.3374
  45   2.0000      -0.522368       -14.2144
  46   2.0000      -0.519970       -14.1491
  47   2.0000      -0.509197       -13.8560
  48   2.0000      -0.505461       -13.7543
  49   2.0000      -0.496618       -13.5137
  50   2.0000      -0.487019       -13.2525
  51   2.0000      -0.481427       -13.1003
  52   2.0000      -0.476248       -12.9594
  53   2.0000      -0.471158       -12.8209
  54   2.0000      -0.458783       -12.4841
  55   2.0000      -0.453645       -12.3443
  56   2.0000      -0.449350       -12.2274
  57   2.0000      -0.440726       -11.9928
  58   2.0000      -0.435614       -11.8537
  59   2.0000      -0.428222       -11.6525
  60   2.0000      -0.419628       -11.4186
  61   2.0000      -0.417662       -11.3652
  62   2.0000      -0.412877       -11.2349
  63   2.0000      -0.356257        -9.6942
  64   2.0000      -0.337019        -9.1708
  65   2.0000      -0.333136        -9.0651
  66   2.0000      -0.283301        -7.7090
  67   0.0000       0.018717         0.5093
  68   0.0000       0.070572         1.9204
  69   0.0000       0.100879         2.7451
  70   0.0000       0.118212         3.2167
  71   0.0000       0.126642         3.4461

MULLIKEN ATOMIC CHARGES
-----------------------
   0 S :    0.099008
   1 C :   -0.121395
   2 C :   -0.066220
   3 C :   -0.026373
   4 C :   -0.098699
   5 H :    0.010052
   6 C :    0.041277
   7 H :    0.022539
   8 H :    0.042316
   9 C :   -0.068385
  10 H :    0.032013
  11 H :    0.033839
  12 C :   -0.047145
  13 H :    0.027513
  14 H :    0.035742
  15 H :    0.028723
  16 S :    0.086820
  17 C :   -0.042830
  18 C :   -0.034237
  19 C :   -0.031368
  20 C :   -0.136829
  21 H :    0.006587
  22 C :    0.038822
  23 H :    0.040647
  24 H :    0.015722
  25 C :   -0.067659
  26 H :    0.025252
  27 H :    0.025928
  28 C :   -0.033038
  29 H :    0.020071
  30 H :    0.043162
  31 H :    0.026196
  32 H :    0.053882
  33 H :    0.018068
Sum of atomic charges:    0.0000000

LOEWDIN ATOMIC CHARGES
----------------------
   0 S :    0.363240
   1 C :   -0.192811
   2 C :   -0.054856
   3 C :   -0.073856
   4 C :   -0.162979
   5 H :    0.032454
   6 C :   -0.035006
   7 H :    0.033379
   8 H :    0.036156
   9 C :   -0.042857
  10 H :    0.028511
  11 H :    0.020835
  12 C :   -0.064316
  13 H :    0.026080
  14 H :    0.027043
  15 H :    0.027101
  16 S :    0.395915
  17 C :   -0.174531
  18 C :   -0.070216
  19 C :   -0.058927
  20 C :   -0.175372
  21 H :    0.031964
  22 C :   -0.027628
  23 H :    0.040007
  24 H :    0.020106
  25 C :   -0.040123
  26 H :    0.018544
  27 H :    0.021605
  28 C :   -0.068500
  29 H :    0.027690
  30 H :    0.030073
  31 H :    0.021094
  32 H :    0.028858
  33 H :    0.011326

  Mayer bond orders larger than 0.100000
B(  0-S ,  1-C ) :   1.1029 B(  0-S ,  4-C ) :   1.1315 B(  1-C ,  2-C ) :   1.6817
B(  1-C , 32-H ) :   0.9519 B(  2-C ,  3-C ) :   1.2204 B(  2-C ,  6-C ) :   1.0042
B(  3-C ,  4-C ) :   1.5951 B(  3-C ,  5-H ) :   0.9762 B(  4-C , 20-C ) :   1.0671
B(  6-C ,  7-H ) :   0.9454 B(  6-C ,  8-H ) :   0.9297 B(  6-C ,  9-C ) :   1.0710
B(  9-C , 10-H ) :   0.9555 B(  9-C , 11-H ) :   0.9471 B(  9-C , 12-C ) :   1.0976
B( 12-C , 13-H ) :   0.9729 B( 12-C , 14-H ) :   0.9722 B( 12-C , 15-H ) :   0.9709
B( 16-S , 17-C ) :   1.1490 B( 16-S , 20-C ) :   1.1292 B( 17-C , 18-C ) :   1.6524
B( 17-C , 33-H ) :   0.9690 B( 18-C , 19-C ) :   1.2138 B( 18-C , 21-H ) :   0.9950
B( 19-C , 20-C ) :   1.6043 B( 19-C , 22-C ) :   1.0528 B( 22-C , 23-H ) :   0.9331
B( 22-C , 24-H ) :   0.9287 B( 22-C , 25-C ) :   1.0548 B( 25-C , 26-H ) :   0.9558
B( 25-C , 27-H ) :   0.9546 B( 25-C , 28-C ) :   1.0800 B( 28-C , 29-H ) :   0.9723
B( 28-C , 30-H ) :   0.9742 B( 28-C , 31-H ) :   0.9740

Dispersion correction           -0.014043420
FINAL SINGLE POINT ENERGY     -1339.866607364059

DIPOLE MOMENT
-------------
                                X             Y             Z
Electronic contribution:     -9.32375      32.41282      -7.97340
Nuclear contribution   :      9.75667     -33.02303       8.17743
                        -----------------------------------------
Total Dipole Moment    :      0.43292      -0.61021       0.20403
                        -----------------------------------------
Magnitude (a.u.)       :      0.77550
Magnitude (Debye)      :      1.97117

Rotational constants in cm-1:     0.017118     0.009501     0.006290
Rotational constants in MHz :   513.176615   284.841525   188.560131

                             ****ORCA TERMINATED NORMALLY****
TOTAL RUN TIME: 0 days 0 hours 0 minutes 35 seconds 205 msec
