                         Program Version 4.2.1 -  RELEASE  -
|  1> ! wB97X-D3 SP def2-SVP
|  2> %pal
|  3> nprocs 16
|  4> end
|  5>
|  6> * xyz 0 1
|  7> S 	 48.507 	 27.3633 	 44.165
|  8> C 	 50.0954 	 28.0912 	 43.6698
|  9> C 	 50.9419 	 27.1598 	 43.1092
| 10> C 	 50.2933 	 25.9691 	 42.904
| 11> C 	 49.0233 	 25.8776 	 43.451
| 12> H 	 50.7907 	 25.125 	 42.5253
| 13> C 	 52.4457 	 27.371 	 42.8739
| 14> H 	 53.1652 	 26.8996 	 43.6428
| 15> H 	 52.6989 	 28.4197 	 42.8912
| 16> C 	 52.9349 	 26.7316 	 41.5896
| 17> H 	 52.677 	 25.6626 	 41.6051
| 18> H 	 52.567 	 27.0773 	 40.6502
| 19> C 	 54.4448 	 26.6708 	 41.55
| 20> H 	 54.9409 	 26.3306 	 42.4434
| 21> H 	 54.8718 	 26.0753 	 40.7204
| 22> H 	 54.9325 	 27.6103 	 41.2541
| 23> S 	 48.2769 	 23.7916 	 45.0791
| 24> C 	 47.2672 	 22.5461 	 44.404
| 25> C 	 46.8571 	 22.8003 	 43.1321
| 26> C 	 47.4315 	 23.9624 	 42.6218
| 27> C 	 48.3237 	 24.5743 	 43.4854
| 28> H 	 46.2204 	 22.0836 	 42.6675
| 29> C 	 47.2132 	 24.3794 	 41.1364
| 30> H 	 46.8285 	 25.3629 	 41.1695
| 31> H 	 46.4678 	 23.9194 	 40.6656
| 32> C 	 48.4546 	 24.2917 	 40.2276
| 33> H 	 48.6879 	 23.2406 	 40.0291
| 34> H 	 49.3182 	 24.7406 	 40.7175
| 35> C 	 48.2003 	 25.1367 	 38.9448
| 36> H 	 47.9819 	 26.1586 	 39.1095
| 37> H 	 47.4988 	 24.7951 	 38.2232
| 38> H 	 49.1423 	 25.2799 	 38.3751
| 39> H 	 50.4786 	 29.0665 	 43.9549
| 40> H 	 47.0286 	 21.6273 	 44.9415
| 41> *
| 42>
| 43>                          ****END OF INPUT****

CARTESIAN COORDINATES (ANGSTROEM)
---------------------------------
  S     48.507000   27.363300   44.165000
  C     50.095400   28.091200   43.669800
  C     50.941900   27.159800   43.109200
  C     50.293300   25.969100   42.904000
  C     49.023300   25.877600   43.451000
  H     50.790700   25.125000   42.525300
  C     52.445700   27.371000   42.873900
  H     53.165200   26.899600   43.642800
  H     52.698900   28.419700   42.891200
  C     52.934900   26.731600   41.589600
  H     52.677000   25.662600   41.605100
  H     52.567000   27.077300   40.650200
  C     54.444800   26.670800   41.550000
  H     54.940900   26.330600   42.443400
  H     54.871800   26.075300   40.720400
  H     54.932500   27.610300   41.254100
  S     48.276900   23.791600   45.079100
  C     47.267200   22.546100   44.404000
  C     46.857100   22.800300   43.132100
  C     47.431500   23.962400   42.621800
  C     48.323700   24.574300   43.485400
  H     46.220400   22.083600   42.667500
  C     47.213200   24.379400   41.136400
  H     46.828500   25.362900   41.169500
  H     46.467800   23.919400   40.665600
  C     48.454600   24.291700   40.227600
  H     48.687900   23.240600   40.029100
  H     49.318200   24.740600   40.717500
  C     48.200300   25.136700   38.944800
  H     47.981900   26.158600   39.109500
  H     47.498800   24.795100   38.223200
  H     49.142300   25.279900   38.375100
  H     50.478600   29.066500   43.954900
  H     47.028600   21.627300   44.941500

 Total Charge           Charge          ....    0
 Multiplicity           Mult            ....    1
 Number of Electrons    NEL             ....  134
 Basis Dimension        Dim             ....  322

ORBITAL ENERGIES
----------------

  NO   OCC          E(Eh)            E(eV)
   0   2.0000     -88.973502     -2421.0921
   1   2.0000     -88.963338     -2420.8155
   2   2.0000     -10.327788      -281.0334
   3   2.0000     -10.324221      -280.9363
   4   2.0000     -10.316149      -280.7167
   5   2.0000     -10.313034      -280.6319
   6   2.0000     -10.302171      -280.3363
   7   2.0000     -10.301429      -280.3161
   8   2.0000     -10.296613      -280.1851
   9   2.0000     -10.285825      -279.8915
  10   2.0000     -10.285219      -279.8750
  11   2.0000     -10.284883      -279.8659
  12   2.0000     -10.282225      -279.7936
  13   2.0000     -10.277149      -279.6554
  14   2.0000     -10.275706      -279.6162
  15   2.0000     -10.270782      -279.4822
  16   2.0000      -8.087071      -220.0604
  17   2.0000      -8.078153      -219.8177
  18   2.0000      -6.045602      -164.5092
  19   2.0000      -6.041775      -164.4051
  20   2.0000      -6.037840      -164.2980
  21   2.0000      -6.036486      -164.2611
  22   2.0000      -6.032757      -164.1597
  23   2.0000      -6.028991      -164.0572
  24   2.0000      -1.006766       -27.3955
  25   2.0000      -0.986501       -26.8441
  26   2.0000      -0.917341       -24.9621
  27   2.0000      -0.903976       -24.5984
  28   2.0000      -0.869735       -23.6667
  29   2.0000      -0.851020       -23.1574
  30   2.0000      -0.846437       -23.0327
  31   2.0000      -0.812352       -22.1052
  32   2.0000      -0.785262       -21.3681
  33   2.0000      -0.774388       -21.0722
  34   2.0000      -0.712441       -19.3865
  35   2.0000      -0.704514       -19.1708
  36   2.0000      -0.692407       -18.8414
  37   2.0000      -0.659897       -17.9567
  38   2.0000      -0.639285       -17.3958
  39   2.0000      -0.627318       -17.0702
  40   2.0000      -0.598589       -16.2884
  41   2.0000      -0.579118       -15.7586
  42   2.0000      -0.566576       -15.4173
  43   2.0000      -0.559366       -15.2211
  44   2.0000      -0.520923       -14.1750
  45   2.0000      -0.515316       -14.0225
  46   2.0000      -0.508592       -13.8395
  47   2.0000      -0.503243       -13.6939
  48   2.0000      -0.502994       -13.6872
  49   2.0000      -0.500431       -13.6174
  50   2.0000      -0.487615       -13.2687
  51   2.0000      -0.481650       -13.1064
  52   2.0000      -0.474913       -12.9230
  53   2.0000      -0.465741       -12.6735
  54   2.0000      -0.462646       -12.5892
  55   2.0000      -0.453104       -12.3296
  56   2.0000      -0.445325       -12.1179
  57   2.0000      -0.442454       -12.0398
  58   2.0000      -0.432701       -11.7744
  59   2.0000      -0.428432       -11.6582
  60   2.0000      -0.424211       -11.5434
  61   2.0000      -0.411680       -11.2024
  62   2.0000      -0.409814       -11.1516
  63   2.0000      -0.341182        -9.2840
  64   2.0000      -0.333656        -9.0792
  65   2.0000      -0.323565        -8.8046
  66   2.0000      -0.302715        -8.2373
  67   0.0000       0.041045         1.1169
  68   0.0000       0.050187         1.3657
  69   0.0000       0.109448         2.9782
  70   0.0000       0.118914         3.2358
  71   0.0000       0.129804         3.5322

MULLIKEN ATOMIC CHARGES
-----------------------
   0 S :    0.131653
   1 C :   -0.136189
   2 C :   -0.031040
   3 C :    0.026557
   4 C :   -0.142338
   5 H :    0.002616
   6 C :    0.072153
   7 H :    0.050257
   8 H :    0.016571
   9 C :   -0.073036
  10 H :    0.031254
  11 H :    0.026705
  12 C :   -0.068973
  13 H :    0.028278
  14 H :    0.025200
  15 H :    0.019620
  16 S :    0.104581
  17 C :   -0.096081
  18 C :   -0.026514
  19 C :   -0.006595
  20 C :   -0.214202
  21 H :    0.007341
  22 C :    0.160048
  23 H :    0.007480
  24 H :   -0.030624
  25 C :   -0.049525
  26 H :    0.032596
  27 H :    0.023081
  28 C :   -0.054544
  29 H :    0.019920
  30 H :    0.026752
  31 H :    0.021404
  32 H :    0.039231
  33 H :    0.056360
Sum of atomic charges:   -0.0000000

LOEWDIN ATOMIC CHARGES
----------------------
   0 S :    0.402536
   1 C :   -0.180142
   2 C :   -0.064187
   3 C :   -0.059188
   4 C :   -0.204435
   5 H :    0.021271
   6 C :   -0.026683
   7 H :    0.046248
   8 H :    0.026054
   9 C :   -0.043565
  10 H :    0.027067
  11 H :    0.022331
  12 C :   -0.074207
  13 H :    0.020775
  14 H :    0.029472
  15 H :    0.022838
  16 S :    0.399318
  17 C :   -0.179444
  18 C :   -0.075612
  19 C :   -0.045143
  20 C :   -0.195120
  21 H :    0.031027
  22 C :   -0.016854
  23 H :    0.028958
  24 H :    0.009083
  25 C :   -0.027652
  26 H :    0.025385
  27 H :    0.024268
  28 C :   -0.069502
  29 H :    0.021923
  30 H :    0.018374
  31 H :    0.030068
  32 H :    0.025758
  33 H :    0.028979

  Mayer bond orders larger than 0.100000
B(  0-S ,  1-C ) :   1.1304 B(  0-S ,  4-C ) :   1.1566 B(  1-C ,  2-C ) :   1.6137
B(  1-C , 32-H ) :   0.9619 B(  2-C ,  3-C ) :   1.2748 B(  2-C ,  6-C ) :   1.0148
B(  3-C ,  4-C ) :   1.5607 B(  3-C ,  5-H ) :   0.9843 B(  4-C , 20-C ) :   1.0221
B(  6-C ,  7-H ) :   0.9408 B(  6-C ,  8-H ) :   0.9414 B(  6-C ,  9-C ) :   1.0555
B(  9-C , 10-H ) :   0.9500 B(  9-C , 11-H ) :   0.9555 B(  9-C , 12-C ) :   1.0898
B( 12-C , 13-H ) :   0.9724 B( 12-C , 14-H ) :   0.9707 B( 12-C , 15-H ) :   0.9710
B( 16-S , 17-C ) :   1.1686 B( 16-S , 20-C ) :   1.1402 B( 17-C , 18-C ) :   1.6080
B( 17-C , 20-C ) :   0.1023 B( 17-C , 33-H ) :   0.9620 B( 18-C , 19-C ) :   1.2431
B( 18-C , 21-H ) :   1.0020 B( 19-C , 20-C ) :   1.6038 B( 19-C , 22-C ) :   1.0271
B( 22-C , 23-H ) :   0.9226 B( 22-C , 24-H ) :   0.9302 B( 22-C , 25-C ) :   1.0664
B( 25-C , 26-H ) :   0.9570 B( 25-C , 27-H ) :   0.9534 B( 25-C , 28-C ) :   1.0750
B( 28-C , 29-H ) :   0.9737 B( 28-C , 30-H ) :   0.9791 B( 28-C , 31-H ) :   0.9720

Dispersion correction           -0.014337378
FINAL SINGLE POINT ENERGY     -1339.855718459210

DIPOLE MOMENT
-------------
                                X             Y             Z
Electronic contribution:    -17.09705      -1.38235      24.21614
Nuclear contribution   :     17.40577       1.23589     -24.63183
                        -----------------------------------------
Total Dipole Moment    :      0.30872      -0.14646      -0.41569
                        -----------------------------------------
Magnitude (a.u.)       :      0.53810
Magnitude (Debye)      :      1.36775

Rotational constants in cm-1:     0.016996     0.008964     0.007458
Rotational constants in MHz :   509.538547   268.747681   223.575083

                             ****ORCA TERMINATED NORMALLY****
TOTAL RUN TIME: 0 days 0 hours 0 minutes 30 seconds 0 msec
