                         Program Version 4.2.1 -  RELEASE  -
|  1> ! wB97X-D3 SP def2-SVP
|  2> %pal
|  3> nprocs 16
|  4> end
|  5>
|  6> * xyz 0 1
|  7> S 	 9.92553 	 23.8007 	 59.4401
|  8> C 	 10.3576 	 22.092 	 59.3606
|  9> C 	 9.96149 	 21.3949 	 60.4704
| 10> C 	 9.12694 	 22.1994 	 61.3347
| 11> C 	 9.03468 	 23.5068 	 60.9036
| 12> H 	 8.69012 	 21.7879 	 62.2197
| 13> C 	 10.0682 	 19.8958 	 60.6393
| 14> H 	 9.99393 	 19.393 	 59.5865
| 15> H 	 9.1599 	 19.5386 	 61.1414
| 16> C 	 11.2097 	 19.3852 	 61.4843
| 17> H 	 11.2513 	 18.29 	 61.3306
| 18> H 	 12.0683 	 19.7465 	 61.0043
| 19> C 	 11.195 	 19.7785 	 62.9717
| 20> H 	 11.9101 	 19.2828 	 63.5712
| 21> H 	 11.437 	 20.9188 	 63.1145
| 22> H 	 10.2376 	 19.675 	 63.5394
| 23> S 	 9.0569 	 25.9829 	 62.1013
| 24> C 	 7.66526 	 26.3901 	 63.0108
| 25> C 	 6.58613 	 25.5348 	 62.7793
| 26> C 	 6.86992 	 24.4448 	 61.862
| 27> C 	 8.21879 	 24.5455 	 61.572
| 28> H 	 5.63932 	 25.7615 	 63.1815
| 29> C 	 5.90575 	 23.3375 	 61.3774
| 30> H 	 5.75979 	 22.7492 	 62.284
| 31> H 	 6.35948 	 22.7916 	 60.5416
| 32> C 	 4.53667 	 23.8697 	 60.869
| 33> H 	 4.69688 	 24.503 	 59.9842
| 34> H 	 3.99498 	 24.5389 	 61.5239
| 35> C 	 3.85702 	 22.7171 	 60.128
| 36> H 	 2.96003 	 23.0753 	 59.5384
| 37> H 	 3.51817 	 21.9329 	 60.8314
| 38> H 	 4.61758 	 22.3097 	 59.4881
| 39> H 	 10.9202 	 21.5421 	 58.558
| 40> H 	 7.55105 	 27.2897 	 63.6563
| 41> *
| 42>
| 43>                          ****END OF INPUT****

CARTESIAN COORDINATES (ANGSTROEM)
---------------------------------
  S      9.925530   23.800700   59.440100
  C     10.357600   22.092000   59.360600
  C      9.961490   21.394900   60.470400
  C      9.126940   22.199400   61.334700
  C      9.034680   23.506800   60.903600
  H      8.690120   21.787900   62.219700
  C     10.068200   19.895800   60.639300
  H      9.993930   19.393000   59.586500
  H      9.159900   19.538600   61.141400
  C     11.209700   19.385200   61.484300
  H     11.251300   18.290000   61.330600
  H     12.068300   19.746500   61.004300
  C     11.195000   19.778500   62.971700
  H     11.910100   19.282800   63.571200
  H     11.437000   20.918800   63.114500
  H     10.237600   19.675000   63.539400
  S      9.056900   25.982900   62.101300
  C      7.665260   26.390100   63.010800
  C      6.586130   25.534800   62.779300
  C      6.869920   24.444800   61.862000
  C      8.218790   24.545500   61.572000
  H      5.639320   25.761500   63.181500
  C      5.905750   23.337500   61.377400
  H      5.759790   22.749200   62.284000
  H      6.359480   22.791600   60.541600
  C      4.536670   23.869700   60.869000
  H      4.696880   24.503000   59.984200
  H      3.994980   24.538900   61.523900
  C      3.857020   22.717100   60.128000
  H      2.960030   23.075300   59.538400
  H      3.518170   21.932900   60.831400
  H      4.617580   22.309700   59.488100
  H     10.920200   21.542100   58.558000
  H      7.551050   27.289700   63.656300

 Total Charge           Charge          ....    0
 Multiplicity           Mult            ....    1
 Number of Electrons    NEL             ....  134
 Basis Dimension        Dim             ....  322

ORBITAL ENERGIES
----------------

  NO   OCC          E(Eh)            E(eV)
   0   2.0000     -88.967402     -2420.9261
   1   2.0000     -88.967145     -2420.9191
   2   2.0000     -10.325191      -280.9627
   3   2.0000     -10.321274      -280.8562
   4   2.0000     -10.316175      -280.7174
   5   2.0000     -10.314316      -280.6668
   6   2.0000     -10.305281      -280.4210
   7   2.0000     -10.300110      -280.2803
   8   2.0000     -10.297098      -280.1983
   9   2.0000     -10.295862      -280.1646
  10   2.0000     -10.292347      -280.0690
  11   2.0000     -10.290366      -280.0151
  12   2.0000     -10.287213      -279.9293
  13   2.0000     -10.286084      -279.8986
  14   2.0000     -10.284963      -279.8681
  15   2.0000     -10.283402      -279.8256
  16   2.0000      -8.082686      -219.9411
  17   2.0000      -8.081967      -219.9215
  18   2.0000      -6.040994      -164.3838
  19   2.0000      -6.040528      -164.3711
  20   2.0000      -6.037318      -164.2838
  21   2.0000      -6.036612      -164.2646
  22   2.0000      -6.033386      -164.1768
  23   2.0000      -6.032593      -164.1552
  24   2.0000      -1.005703       -27.3666
  25   2.0000      -0.982998       -26.7487
  26   2.0000      -0.911926       -24.8148
  27   2.0000      -0.911494       -24.8030
  28   2.0000      -0.863038       -23.4845
  29   2.0000      -0.854593       -23.2547
  30   2.0000      -0.842392       -22.9227
  31   2.0000      -0.807945       -21.9853
  32   2.0000      -0.782075       -21.2813
  33   2.0000      -0.769886       -20.9497
  34   2.0000      -0.703458       -19.1421
  35   2.0000      -0.700722       -19.0676
  36   2.0000      -0.691302       -18.8113
  37   2.0000      -0.656053       -17.8521
  38   2.0000      -0.631649       -17.1880
  39   2.0000      -0.614966       -16.7341
  40   2.0000      -0.596325       -16.2268
  41   2.0000      -0.572874       -15.5887
  42   2.0000      -0.568785       -15.4774
  43   2.0000      -0.545998       -14.8574
  44   2.0000      -0.532838       -14.4992
  45   2.0000      -0.523643       -14.2491
  46   2.0000      -0.516180       -14.0460
  47   2.0000      -0.507477       -13.8092
  48   2.0000      -0.501534       -13.6474
  49   2.0000      -0.488238       -13.2856
  50   2.0000      -0.483125       -13.1465
  51   2.0000      -0.475706       -12.9446
  52   2.0000      -0.470105       -12.7922
  53   2.0000      -0.463872       -12.6226
  54   2.0000      -0.462028       -12.5724
  55   2.0000      -0.454996       -12.3811
  56   2.0000      -0.448051       -12.1921
  57   2.0000      -0.440675       -11.9914
  58   2.0000      -0.434497       -11.8233
  59   2.0000      -0.428013       -11.6468
  60   2.0000      -0.419846       -11.4246
  61   2.0000      -0.412782       -11.2324
  62   2.0000      -0.407271       -11.0824
  63   2.0000      -0.338434        -9.2092
  64   2.0000      -0.331912        -9.0318
  65   2.0000      -0.329963        -8.9788
  66   2.0000      -0.292802        -7.9675
  67   0.0000       0.041261         1.1228
  68   0.0000       0.067213         1.8290
  69   0.0000       0.107804         2.9335
  70   0.0000       0.120554         3.2805
  71   0.0000       0.130061         3.5391

MULLIKEN ATOMIC CHARGES
-----------------------
   0 S :    0.115578
   1 C :   -0.141436
   2 C :   -0.074868
   3 C :    0.037381
   4 C :   -0.151788
   5 H :    0.002845
   6 C :   -0.009824
   7 H :    0.043525
   8 H :    0.019919
   9 C :   -0.004312
  10 H :    0.031937
  11 H :    0.010693
  12 C :   -0.088069
  13 H :    0.030845
  14 H :    0.051139
  15 H :    0.032100
  16 S :    0.130613
  17 C :   -0.101757
  18 C :   -0.035351
  19 C :   -0.020975
  20 C :   -0.188569
  21 H :   -0.004467
  22 C :    0.079147
  23 H :    0.045433
  24 H :    0.045476
  25 C :   -0.101022
  26 H :    0.030123
  27 H :    0.034817
  28 C :   -0.051576
  29 H :    0.047400
  30 H :    0.030591
  31 H :    0.030232
  32 H :    0.057880
  33 H :    0.066339
Sum of atomic charges:   -0.0000000

LOEWDIN ATOMIC CHARGES
----------------------
   0 S :    0.399080
   1 C :   -0.204654
   2 C :   -0.069333
   3 C :   -0.057414
   4 C :   -0.198314
   5 H :    0.027362
   6 C :   -0.039569
   7 H :    0.041991
   8 H :    0.026813
   9 C :   -0.040980
  10 H :    0.028926
  11 H :    0.017865
  12 C :   -0.076513
  13 H :    0.020639
  14 H :    0.041063
  15 H :    0.026406
  16 S :    0.420630
  17 C :   -0.206240
  18 C :   -0.068102
  19 C :   -0.048684
  20 C :   -0.203469
  21 H :    0.018630
  22 C :   -0.022355
  23 H :    0.035930
  24 H :    0.037001
  25 C :   -0.048715
  26 H :    0.031257
  27 H :    0.020013
  28 C :   -0.062977
  29 H :    0.032568
  30 H :    0.021564
  31 H :    0.024101
  32 H :    0.038923
  33 H :    0.036553

  Mayer bond orders larger than 0.100000
B(  0-S ,  1-C ) :   1.1203 B(  0-S ,  4-C ) :   1.1500 B(  1-C ,  2-C ) :   1.6548
B(  1-C , 32-H ) :   0.9558 B(  2-C ,  3-C ) :   1.2224 B(  2-C ,  6-C ) :   1.0125
B(  3-C ,  4-C ) :   1.5848 B(  3-C ,  5-H ) :   1.0020 B(  4-C , 20-C ) :   1.0010
B(  6-C ,  7-H ) :   0.9487 B(  6-C ,  8-H ) :   0.9460 B(  6-C ,  9-C ) :   1.0679
B(  9-C , 10-H ) :   0.9531 B(  9-C , 11-H ) :   0.9507 B(  9-C , 12-C ) :   1.0708
B( 12-C , 13-H ) :   0.9750 B( 12-C , 14-H ) :   0.9700 B( 12-C , 15-H ) :   0.9758
B( 16-S , 17-C ) :   1.1500 B( 16-S , 20-C ) :   1.1506 B( 17-C , 18-C ) :   1.6286
B( 17-C , 33-H ) :   0.9622 B( 18-C , 19-C ) :   1.2114 B( 18-C , 21-H ) :   0.9933
B( 19-C , 20-C ) :   1.6176 B( 19-C , 22-C ) :   1.0265 B( 22-C , 23-H ) :   0.9310
B( 22-C , 24-H ) :   0.9359 B( 22-C , 25-C ) :   1.0614 B( 25-C , 26-H ) :   0.9573
B( 25-C , 27-H ) :   0.9608 B( 25-C , 28-C ) :   1.0653 B( 28-C , 29-H ) :   0.9760
B( 28-C , 30-H ) :   0.9751 B( 28-C , 31-H ) :   0.9738

Dispersion correction           -0.014232749
FINAL SINGLE POINT ENERGY     -1339.870224644977

DIPOLE MOMENT
-------------
                                X             Y             Z
Electronic contribution:     11.03245      21.86610      -3.18673
Nuclear contribution   :    -11.42063     -22.34251       3.33234
                        -----------------------------------------
Total Dipole Moment    :     -0.38819      -0.47640       0.14562
                        -----------------------------------------
Magnitude (a.u.)       :      0.63155
Magnitude (Debye)      :      1.60527

Rotational constants in cm-1:     0.016824     0.008607     0.007251
Rotational constants in MHz :   504.378119   258.030526   217.393044

                             ****ORCA TERMINATED NORMALLY****
TOTAL RUN TIME: 0 days 0 hours 0 minutes 34 seconds 239 msec
