                         Program Version 4.2.1 -  RELEASE  -
|  1> ! wB97X-D3 SP def2-SVP
|  2> %pal
|  3> nprocs 16
|  4> end
|  5>
|  6> * xyz 0 1
|  7> S 	 42.6084 	 15.2801 	 85.7703
|  8> C 	 43.2248 	 14.5248 	 84.3278
|  9> C 	 42.1921 	 14.2255 	 83.4795
| 10> C 	 40.9117 	 14.2328 	 84.1601
| 11> C 	 41.017 	 14.8217 	 85.3904
| 12> H 	 39.9252 	 14.0146 	 83.7901
| 13> C 	 42.3313 	 13.9055 	 82.003
| 14> H 	 43.0975 	 14.4677 	 81.5196
| 15> H 	 41.4274 	 14.3264 	 81.5626
| 16> C 	 42.482 	 12.4344 	 81.7067
| 17> H 	 43.477 	 12.1166 	 82.0537
| 18> H 	 41.7312 	 11.8674 	 82.244
| 19> C 	 42.5806 	 12.1632 	 80.192
| 20> H 	 41.6998 	 12.0751 	 79.5671
| 21> H 	 43.3343 	 12.7673 	 79.6762
| 22> H 	 42.8864 	 11.0675 	 80.1583
| 23> S 	 39.4802 	 16.6846 	 86.545
| 24> C 	 38.5583 	 16.2656 	 88.0296
| 25> C 	 38.5586 	 14.9009 	 88.2301
| 26> C 	 39.428 	 14.2017 	 87.3005
| 27> C 	 39.9454 	 15.0203 	 86.3078
| 28> H 	 38.0212 	 14.3776 	 88.9632
| 29> C 	 39.6546 	 12.7165 	 87.4211
| 30> H 	 39.6662 	 12.3559 	 88.4882
| 31> H 	 40.7376 	 12.4843 	 87.2476
| 32> C 	 38.7582 	 11.8058 	 86.6205
| 33> H 	 39.0819 	 11.8238 	 85.5804
| 34> H 	 37.7203 	 12.2815 	 86.7026
| 35> C 	 38.8326 	 10.4046 	 87.0947
| 36> H 	 38.679 	 9.65466 	 86.338
| 37> H 	 38.0587 	 10.1807 	 87.7961
| 38> H 	 39.7688 	 10.08 	 87.4863
| 39> H 	 44.2252 	 14.3963 	 84.0419
| 40> H 	 37.9858 	 16.9731 	 88.592
| 41> *
| 42>
| 43>                          ****END OF INPUT****

CARTESIAN COORDINATES (ANGSTROEM)
---------------------------------
  S     42.608400   15.280100   85.770300
  C     43.224800   14.524800   84.327800
  C     42.192100   14.225500   83.479500
  C     40.911700   14.232800   84.160100
  C     41.017000   14.821700   85.390400
  H     39.925200   14.014600   83.790100
  C     42.331300   13.905500   82.003000
  H     43.097500   14.467700   81.519600
  H     41.427400   14.326400   81.562600
  C     42.482000   12.434400   81.706700
  H     43.477000   12.116600   82.053700
  H     41.731200   11.867400   82.244000
  C     42.580600   12.163200   80.192000
  H     41.699800   12.075100   79.567100
  H     43.334300   12.767300   79.676200
  H     42.886400   11.067500   80.158300
  S     39.480200   16.684600   86.545000
  C     38.558300   16.265600   88.029600
  C     38.558600   14.900900   88.230100
  C     39.428000   14.201700   87.300500
  C     39.945400   15.020300   86.307800
  H     38.021200   14.377600   88.963200
  C     39.654600   12.716500   87.421100
  H     39.666200   12.355900   88.488200
  H     40.737600   12.484300   87.247600
  C     38.758200   11.805800   86.620500
  H     39.081900   11.823800   85.580400
  H     37.720300   12.281500   86.702600
  C     38.832600   10.404600   87.094700
  H     38.679000    9.654660   86.338000
  H     38.058700   10.180700   87.796100
  H     39.768800   10.080000   87.486300
  H     44.225200   14.396300   84.041900
  H     37.985800   16.973100   88.592000

 Total Charge           Charge          ....    0
 Multiplicity           Mult            ....    1
 Number of Electrons    NEL             ....  134
 Basis Dimension        Dim             ....  322

ORBITAL ENERGIES
----------------

  NO   OCC          E(Eh)            E(eV)
   0   2.0000     -88.963550     -2420.8213
   1   2.0000     -88.962944     -2420.8048
   2   2.0000     -10.320506      -280.8352
   3   2.0000     -10.320431      -280.8332
   4   2.0000     -10.318279      -280.7747
   5   2.0000     -10.305946      -280.4391
   6   2.0000     -10.302720      -280.3513
   7   2.0000     -10.298798      -280.2445
   8   2.0000     -10.293757      -280.1074
   9   2.0000     -10.290821      -280.0275
  10   2.0000     -10.289959      -280.0040
  11   2.0000     -10.288438      -279.9626
  12   2.0000     -10.284954      -279.8678
  13   2.0000     -10.284715      -279.8613
  14   2.0000     -10.282712      -279.8068
  15   2.0000     -10.267147      -279.3833
  16   2.0000      -8.079366      -219.8507
  17   2.0000      -8.077319      -219.7950
  18   2.0000      -6.037840      -164.2980
  19   2.0000      -6.035918      -164.2457
  20   2.0000      -6.033757      -164.1869
  21   2.0000      -6.031841      -164.1347
  22   2.0000      -6.030046      -164.0859
  23   2.0000      -6.028041      -164.0313
  24   2.0000      -1.012481       -27.5510
  25   2.0000      -0.981868       -26.7180
  26   2.0000      -0.915667       -24.9166
  27   2.0000      -0.912655       -24.8346
  28   2.0000      -0.873731       -23.7754
  29   2.0000      -0.850323       -23.1385
  30   2.0000      -0.847290       -23.0559
  31   2.0000      -0.816642       -22.2220
  32   2.0000      -0.782840       -21.3022
  33   2.0000      -0.770907       -20.9775
  34   2.0000      -0.706235       -19.2176
  35   2.0000      -0.702516       -19.1164
  36   2.0000      -0.692102       -18.8331
  37   2.0000      -0.667996       -18.1771
  38   2.0000      -0.648997       -17.6601
  39   2.0000      -0.617065       -16.7912
  40   2.0000      -0.599806       -16.3216
  41   2.0000      -0.569246       -15.4900
  42   2.0000      -0.564069       -15.3491
  43   2.0000      -0.562586       -15.3088
  44   2.0000      -0.528614       -14.3843
  45   2.0000      -0.523454       -14.2439
  46   2.0000      -0.521053       -14.1786
  47   2.0000      -0.515764       -14.0347
  48   2.0000      -0.510402       -13.8887
  49   2.0000      -0.502512       -13.6741
  50   2.0000      -0.497172       -13.5287
  51   2.0000      -0.477359       -12.9896
  52   2.0000      -0.467253       -12.7146
  53   2.0000      -0.462416       -12.5830
  54   2.0000      -0.456118       -12.4116
  55   2.0000      -0.451587       -12.2883
  56   2.0000      -0.446152       -12.1404
  57   2.0000      -0.441410       -12.0114
  58   2.0000      -0.429875       -11.6975
  59   2.0000      -0.422876       -11.5070
  60   2.0000      -0.415863       -11.3162
  61   2.0000      -0.413902       -11.2628
  62   2.0000      -0.401939       -10.9373
  63   2.0000      -0.335264        -9.1230
  64   2.0000      -0.328149        -8.9294
  65   2.0000      -0.326307        -8.8793
  66   2.0000      -0.302980        -8.2445
  67   0.0000       0.045586         1.2404
  68   0.0000       0.056552         1.5389
  69   0.0000       0.110115         2.9964
  70   0.0000       0.117355         3.1934
  71   0.0000       0.126951         3.4545

MULLIKEN ATOMIC CHARGES
-----------------------
   0 S :    0.137862
   1 C :   -0.098968
   2 C :   -0.097294
   3 C :    0.033979
   4 C :   -0.149816
   5 H :    0.011107
   6 C :    0.088686
   7 H :    0.009222
   8 H :    0.020368
   9 C :   -0.054769
  10 H :    0.024693
  11 H :    0.030762
  12 C :   -0.067376
  13 H :    0.033432
  14 H :    0.038788
  15 H :    0.030046
  16 S :    0.089333
  17 C :   -0.083295
  18 C :    0.013418
  19 C :   -0.030975
  20 C :   -0.181693
  21 H :    0.001267
  22 C :    0.008668
  23 H :    0.020049
  24 H :    0.029444
  25 C :   -0.050157
  26 H :    0.028718
  27 H :    0.039966
  28 C :   -0.012212
  29 H :    0.014222
  30 H :    0.025938
  31 H :    0.018477
  32 H :    0.023798
  33 H :    0.054312
Sum of atomic charges:   -0.0000000

LOEWDIN ATOMIC CHARGES
----------------------
   0 S :    0.432270
   1 C :   -0.194093
   2 C :   -0.055905
   3 C :   -0.060374
   4 C :   -0.217167
   5 H :    0.031029
   6 C :   -0.034766
   7 H :    0.024137
   8 H :    0.031874
   9 C :   -0.035865
  10 H :    0.027662
  11 H :    0.025231
  12 C :   -0.076045
  13 H :    0.021566
  14 H :    0.026663
  15 H :    0.034761
  16 S :    0.388338
  17 C :   -0.163566
  18 C :   -0.058074
  19 C :   -0.051110
  20 C :   -0.204561
  21 H :    0.023777
  22 C :   -0.048100
  23 H :    0.031702
  24 H :    0.034724
  25 C :   -0.044895
  26 H :    0.024481
  27 H :    0.033741
  28 C :   -0.066341
  29 H :    0.026248
  30 H :    0.025753
  31 H :    0.023153
  32 H :    0.018807
  33 H :    0.024945

  Mayer bond orders larger than 0.100000
B(  0-S ,  1-C ) :   1.1325 B(  0-S ,  4-C ) :   1.1554 B(  1-C ,  2-C ) :   1.6284
B(  1-C , 32-H ) :   0.9775 B(  2-C ,  3-C ) :   1.2043 B(  2-C ,  6-C ) :   1.0206
B(  3-C ,  4-C ) :   1.6014 B(  3-C ,  5-H ) :   0.9918 B(  4-C , 20-C ) :   1.0224
B(  6-C ,  7-H ) :   0.9377 B(  6-C ,  8-H ) :   0.9388 B(  6-C ,  9-C ) :   1.0726
B(  9-C , 10-H ) :   0.9555 B(  9-C , 11-H ) :   0.9573 B(  9-C , 12-C ) :   1.0721
B( 12-C , 13-H ) :   0.9771 B( 12-C , 14-H ) :   0.9729 B( 12-C , 15-H ) :   0.9746
B( 16-S , 17-C ) :   1.1408 B( 16-S , 20-C ) :   1.1364 B( 17-C , 18-C ) :   1.6078
B( 17-C , 33-H ) :   0.9713 B( 18-C , 19-C ) :   1.2337 B( 18-C , 21-H ) :   0.9956
B( 19-C , 20-C ) :   1.6152 B( 19-C , 22-C ) :   1.0500 B( 22-C , 23-H ) :   0.9428
B( 22-C , 24-H ) :   0.9164 B( 22-C , 25-C ) :   1.0605 B( 25-C , 26-H ) :   0.9493
B( 25-C , 27-H ) :   0.9591 B( 25-C , 28-C ) :   1.0819 B( 28-C , 29-H ) :   0.9687
B( 28-C , 30-H ) :   0.9713 B( 28-C , 31-H ) :   0.9700

Dispersion correction           -0.014008775
FINAL SINGLE POINT ENERGY     -1339.867244019769

DIPOLE MOMENT
-------------
                                X             Y             Z
Electronic contribution:      1.28965      26.05904      13.80174
Nuclear contribution   :     -1.37123     -26.61481     -14.01355
                        -----------------------------------------
Total Dipole Moment    :     -0.08158      -0.55578      -0.21180
                        -----------------------------------------
Magnitude (a.u.)       :      0.60034
Magnitude (Debye)      :      1.52593

Rotational constants in cm-1:     0.018328     0.008405     0.006541
Rotational constants in MHz :   549.448518   251.980475   196.081788

                             ****ORCA TERMINATED NORMALLY****
TOTAL RUN TIME: 0 days 0 hours 0 minutes 28 seconds 575 msec
