                         Program Version 4.2.1 -  RELEASE  -
|  1> ! wB97X-D3 SP def2-SVP
|  2> %pal
|  3> nprocs 16
|  4> end
|  5>
|  6> * xyz 0 1
|  7> S 	 -40.2383 	 33.734 	 79.8218
|  8> C 	 -39.422 	 32.3872 	 79.0584
|  9> C 	 -38.6804 	 31.6492 	 79.9826
| 10> C 	 -38.6735 	 32.3377 	 81.2443
| 11> C 	 -39.5532 	 33.349 	 81.405
| 12> H 	 -38.1822 	 31.9921 	 82.1491
| 13> C 	 -37.8831 	 30.4152 	 79.6001
| 14> H 	 -37.7872 	 30.4149 	 78.5284
| 15> H 	 -38.5177 	 29.5866 	 79.9003
| 16> C 	 -36.4808 	 30.1453 	 80.1071
| 17> H 	 -35.6958 	 30.6469 	 79.5412
| 18> H 	 -36.3634 	 30.5054 	 81.1612
| 19> C 	 -36.2203 	 28.6077 	 79.9344
| 20> H 	 -35.2313 	 28.2617 	 80.3967
| 21> H 	 -36.9806 	 28.0342 	 80.4523
| 22> H 	 -36.2114 	 28.2774 	 78.9514
| 23> S 	 -41.7378 	 34.2463 	 82.9476
| 24> C 	 -41.4467 	 35.0025 	 84.4634
| 25> C 	 -40.1392 	 34.9557 	 84.8365
| 26> C 	 -39.3047 	 34.3563 	 83.8269
| 27> C 	 -40.0172 	 33.9707 	 82.6734
| 28> H 	 -39.8573 	 35.3853 	 85.7774
| 29> C 	 -37.8 	 34.3475 	 84.0685
| 30> H 	 -37.3564 	 33.3598 	 83.8663
| 31> H 	 -37.6186 	 34.5104 	 85.0296
| 32> C 	 -37.1036 	 35.5 	 83.3084
| 33> H 	 -37.4439 	 36.5492 	 83.5551
| 34> H 	 -37.0931 	 35.411 	 82.1789
| 35> C 	 -35.6406 	 35.4365 	 83.5803
| 36> H 	 -35.1491 	 36.1687 	 83.0071
| 37> H 	 -35.2759 	 34.4077 	 83.3996
| 38> H 	 -35.4892 	 35.6286 	 84.6197
| 39> H 	 -39.6725 	 31.9621 	 78.0425
| 40> H 	 -42.2136 	 35.3923 	 85.1127
| 41> *
| 42>
| 43>                          ****END OF INPUT****

CARTESIAN COORDINATES (ANGSTROEM)
---------------------------------
  S    -40.238300   33.734000   79.821800
  C    -39.422000   32.387200   79.058400
  C    -38.680400   31.649200   79.982600
  C    -38.673500   32.337700   81.244300
  C    -39.553200   33.349000   81.405000
  H    -38.182200   31.992100   82.149100
  C    -37.883100   30.415200   79.600100
  H    -37.787200   30.414900   78.528400
  H    -38.517700   29.586600   79.900300
  C    -36.480800   30.145300   80.107100
  H    -35.695800   30.646900   79.541200
  H    -36.363400   30.505400   81.161200
  C    -36.220300   28.607700   79.934400
  H    -35.231300   28.261700   80.396700
  H    -36.980600   28.034200   80.452300
  H    -36.211400   28.277400   78.951400
  S    -41.737800   34.246300   82.947600
  C    -41.446700   35.002500   84.463400
  C    -40.139200   34.955700   84.836500
  C    -39.304700   34.356300   83.826900
  C    -40.017200   33.970700   82.673400
  H    -39.857300   35.385300   85.777400
  C    -37.800000   34.347500   84.068500
  H    -37.356400   33.359800   83.866300
  H    -37.618600   34.510400   85.029600
  C    -37.103600   35.500000   83.308400
  H    -37.443900   36.549200   83.555100
  H    -37.093100   35.411000   82.178900
  C    -35.640600   35.436500   83.580300
  H    -35.149100   36.168700   83.007100
  H    -35.275900   34.407700   83.399600
  H    -35.489200   35.628600   84.619700
  H    -39.672500   31.962100   78.042500
  H    -42.213600   35.392300   85.112700

 Total Charge           Charge          ....    0
 Multiplicity           Mult            ....    1
 Number of Electrons    NEL             ....  134
 Basis Dimension        Dim             ....  322

ORBITAL ENERGIES
----------------

  NO   OCC          E(Eh)            E(eV)
   0   2.0000     -88.966326     -2420.8968
   1   2.0000     -88.963802     -2420.8281
   2   2.0000     -10.332973      -281.1745
   3   2.0000     -10.330675      -281.1119
   4   2.0000     -10.317392      -280.7505
   5   2.0000     -10.312355      -280.6134
   6   2.0000     -10.306804      -280.4624
   7   2.0000     -10.304251      -280.3929
   8   2.0000     -10.294514      -280.1280
   9   2.0000     -10.291448      -280.0445
  10   2.0000     -10.290840      -280.0280
  11   2.0000     -10.290618      -280.0219
  12   2.0000     -10.286964      -279.9225
  13   2.0000     -10.286669      -279.9145
  14   2.0000     -10.281818      -279.7825
  15   2.0000     -10.265784      -279.3462
  16   2.0000      -8.081297      -219.9033
  17   2.0000      -8.078251      -219.8204
  18   2.0000      -6.039790      -164.3510
  19   2.0000      -6.036885      -164.2720
  20   2.0000      -6.035738      -164.2408
  21   2.0000      -6.032743      -164.1593
  22   2.0000      -6.032093      -164.1416
  23   2.0000      -6.028943      -164.0559
  24   2.0000      -1.004687       -27.3389
  25   2.0000      -0.985188       -26.8083
  26   2.0000      -0.915822       -24.9208
  27   2.0000      -0.913353       -24.8536
  28   2.0000      -0.868561       -23.6348
  29   2.0000      -0.855185       -23.2708
  30   2.0000      -0.843176       -22.9440
  31   2.0000      -0.818862       -22.2824
  32   2.0000      -0.783255       -21.3135
  33   2.0000      -0.770569       -20.9683
  34   2.0000      -0.710628       -19.3372
  35   2.0000      -0.694002       -18.8848
  36   2.0000      -0.685916       -18.6647
  37   2.0000      -0.660993       -17.9865
  38   2.0000      -0.639313       -17.3966
  39   2.0000      -0.621266       -16.9055
  40   2.0000      -0.599327       -16.3085
  41   2.0000      -0.571808       -15.5597
  42   2.0000      -0.571271       -15.5451
  43   2.0000      -0.564668       -15.3654
  44   2.0000      -0.535986       -14.5849
  45   2.0000      -0.522110       -14.2073
  46   2.0000      -0.514999       -14.0138
  47   2.0000      -0.508925       -13.8486
  48   2.0000      -0.500489       -13.6190
  49   2.0000      -0.497434       -13.5359
  50   2.0000      -0.493101       -13.4180
  51   2.0000      -0.489995       -13.3334
  52   2.0000      -0.472146       -12.8477
  53   2.0000      -0.464640       -12.6435
  54   2.0000      -0.461502       -12.5581
  55   2.0000      -0.446670       -12.1545
  56   2.0000      -0.441636       -12.0175
  57   2.0000      -0.439332       -11.9548
  58   2.0000      -0.436687       -11.8829
  59   2.0000      -0.422944       -11.5089
  60   2.0000      -0.419594       -11.4177
  61   2.0000      -0.414535       -11.2801
  62   2.0000      -0.411468       -11.1966
  63   2.0000      -0.352360        -9.5882
  64   2.0000      -0.330929        -9.0050
  65   2.0000      -0.327632        -8.9153
  66   2.0000      -0.289872        -7.8878
  67   0.0000       0.027719         0.7543
  68   0.0000       0.077035         2.0962
  69   0.0000       0.117019         3.1842
  70   0.0000       0.121664         3.3106
  71   0.0000       0.132001         3.5919

MULLIKEN ATOMIC CHARGES
-----------------------
   0 S :    0.100896
   1 C :   -0.138294
   2 C :   -0.092494
   3 C :    0.021046
   4 C :   -0.136648
   5 H :    0.002945
   6 C :    0.060695
   7 H :    0.021033
   8 H :    0.039297
   9 C :   -0.068006
  10 H :    0.037678
  11 H :    0.036248
  12 C :   -0.071660
  13 H :    0.039811
  14 H :    0.028228
  15 H :    0.024703
  16 S :    0.114116
  17 C :   -0.084792
  18 C :   -0.031532
  19 C :   -0.042541
  20 C :   -0.146732
  21 H :    0.012165
  22 C :    0.139122
  23 H :    0.021957
  24 H :   -0.031284
  25 C :   -0.121841
  26 H :    0.039143
  27 H :    0.045577
  28 C :   -0.001696
  29 H :    0.025979
  30 H :    0.022729
  31 H :    0.008383
  32 H :    0.072569
  33 H :    0.053202
Sum of atomic charges:   -0.0000000

LOEWDIN ATOMIC CHARGES
----------------------
   0 S :    0.391860
   1 C :   -0.210551
   2 C :   -0.061048
   3 C :   -0.070610
   4 C :   -0.183997
   5 H :    0.027134
   6 C :   -0.035505
   7 H :    0.031699
   8 H :    0.035823
   9 C :   -0.037977
  10 H :    0.025923
  11 H :    0.025725
  12 C :   -0.062453
  13 H :    0.033729
  14 H :    0.022147
  15 H :    0.014911
  16 S :    0.416093
  17 C :   -0.190347
  18 C :   -0.074215
  19 C :   -0.046939
  20 C :   -0.197184
  21 H :    0.030301
  22 C :   -0.018835
  23 H :    0.031893
  24 H :    0.009757
  25 C :   -0.041614
  26 H :    0.030567
  27 H :    0.032267
  28 C :   -0.059596
  29 H :    0.019603
  30 H :    0.025064
  31 H :    0.014623
  32 H :    0.041822
  33 H :    0.029932

  Mayer bond orders larger than 0.100000
B(  0-S ,  1-C ) :   1.1349 B(  0-S ,  4-C ) :   1.1349 B(  1-C ,  2-C ) :   1.6293
B(  1-C , 32-H ) :   0.9538 B(  2-C ,  3-C ) :   1.2334 B(  2-C ,  6-C ) :   1.0130
B(  3-C ,  4-C ) :   1.6097 B(  3-C ,  5-H ) :   0.9843 B(  4-C , 20-C ) :   1.0449
B(  6-C ,  7-H ) :   0.9452 B(  6-C ,  8-H ) :   0.9357 B(  6-C ,  9-C ) :   1.0600
B(  9-C , 10-H ) :   0.9587 B(  9-C , 11-H ) :   0.9579 B(  9-C , 12-C ) :   1.0643
B( 12-C , 13-H ) :   0.9745 B( 12-C , 14-H ) :   0.9791 B( 12-C , 15-H ) :   0.9793
B( 16-S , 17-C ) :   1.1642 B( 16-S , 20-C ) :   1.1397 B( 17-C , 18-C ) :   1.6114
B( 17-C , 33-H ) :   0.9639 B( 18-C , 19-C ) :   1.2486 B( 18-C , 21-H ) :   0.9938
B( 19-C , 20-C ) :   1.5770 B( 19-C , 22-C ) :   1.0498 B( 22-C , 23-H ) :   0.9302
B( 22-C , 24-H ) :   0.9186 B( 22-C , 25-C ) :   1.0615 B( 25-C , 26-H ) :   0.9550
B( 25-C , 27-H ) :   0.9588 B( 25-C , 28-C ) :   1.0874 B( 28-C , 29-H ) :   0.9724
B( 28-C , 30-H ) :   0.9708 B( 28-C , 31-H ) :   0.9713

Dispersion correction           -0.013570351
FINAL SINGLE POINT ENERGY     -1339.866834925080

DIPOLE MOMENT
-------------
                                X             Y             Z
Electronic contribution:    -28.00679      10.91945      -2.01432
Nuclear contribution   :     28.51110     -11.22898       2.32729
                        -----------------------------------------
Total Dipole Moment    :      0.50431      -0.30953       0.31298
                        -----------------------------------------
Magnitude (a.u.)       :      0.66940
Magnitude (Debye)      :      1.70148

Rotational constants in cm-1:     0.017295     0.008443     0.006635
Rotational constants in MHz :   518.491729   253.122700   198.913067

                             ****ORCA TERMINATED NORMALLY****
TOTAL RUN TIME: 0 days 0 hours 0 minutes 29 seconds 239 msec
