                         Program Version 4.2.1 -  RELEASE  -
|  1> ! wB97X-D3 SP def2-SVP
|  2> %pal
|  3> nprocs 16
|  4> end
|  5>
|  6> * xyz 0 1
|  7> S 	 44.3191 	 18.5699 	 85.7272
|  8> C 	 42.7313 	 19.2449 	 85.5123
|  9> C 	 42.0656 	 18.5918 	 84.4745
| 10> C 	 42.8554 	 17.5366 	 83.8706
| 11> C 	 44.0832 	 17.364 	 84.4183
| 12> H 	 42.5767 	 16.829 	 82.9944
| 13> C 	 40.6612 	 19.0853 	 83.9987
| 14> H 	 40.7825 	 20.1003 	 83.6042
| 15> H 	 39.9838 	 19.2184 	 84.8267
| 16> C 	 39.8552 	 18.284 	 83.0034
| 17> H 	 40.4453 	 17.8915 	 82.2284
| 18> H 	 39.5265 	 17.3873 	 83.5229
| 19> C 	 38.7096 	 19.0117 	 82.3874
| 20> H 	 38.2335 	 19.4734 	 83.2001
| 21> H 	 39.0529 	 19.7594 	 81.6543
| 22> H 	 38.0672 	 18.3291 	 81.8218
| 23> S 	 46.7149 	 17.0157 	 83.8696
| 24> C 	 47.3594 	 15.4043 	 83.6517
| 25> C 	 46.3885 	 14.4541 	 83.7956
| 26> C 	 45.0982 	 14.9833 	 84.1034
| 27> C 	 45.1166 	 16.3758 	 84.1507
| 28> H 	 46.6327 	 13.4 	 83.7752
| 29> C 	 43.9245 	 14.0344 	 84.4283
| 30> H 	 43.7896 	 13.1859 	 83.6729
| 31> H 	 43.0069 	 14.62 	 84.4575
| 32> C 	 43.9219 	 13.6194 	 85.9033
| 33> H 	 43.7779 	 14.5386 	 86.5405
| 34> H 	 44.9328 	 13.2576 	 86.1511
| 35> C 	 42.8137 	 12.629 	 86.1273
| 36> H 	 42.622 	 11.8131 	 85.3996
| 37> H 	 41.8618 	 13.1413 	 86.1329
| 38> H 	 42.9497 	 12.1131 	 87.0847
| 39> H 	 42.4017 	 20.1582 	 86.032
| 40> H 	 48.2902 	 15.2467 	 83.1196
| 41> *
| 42>
| 43>                          ****END OF INPUT****

CARTESIAN COORDINATES (ANGSTROEM)
---------------------------------
  S     44.319100   18.569900   85.727200
  C     42.731300   19.244900   85.512300
  C     42.065600   18.591800   84.474500
  C     42.855400   17.536600   83.870600
  C     44.083200   17.364000   84.418300
  H     42.576700   16.829000   82.994400
  C     40.661200   19.085300   83.998700
  H     40.782500   20.100300   83.604200
  H     39.983800   19.218400   84.826700
  C     39.855200   18.284000   83.003400
  H     40.445300   17.891500   82.228400
  H     39.526500   17.387300   83.522900
  C     38.709600   19.011700   82.387400
  H     38.233500   19.473400   83.200100
  H     39.052900   19.759400   81.654300
  H     38.067200   18.329100   81.821800
  S     46.714900   17.015700   83.869600
  C     47.359400   15.404300   83.651700
  C     46.388500   14.454100   83.795600
  C     45.098200   14.983300   84.103400
  C     45.116600   16.375800   84.150700
  H     46.632700   13.400000   83.775200
  C     43.924500   14.034400   84.428300
  H     43.789600   13.185900   83.672900
  H     43.006900   14.620000   84.457500
  C     43.921900   13.619400   85.903300
  H     43.777900   14.538600   86.540500
  H     44.932800   13.257600   86.151100
  C     42.813700   12.629000   86.127300
  H     42.622000   11.813100   85.399600
  H     41.861800   13.141300   86.132900
  H     42.949700   12.113100   87.084700
  H     42.401700   20.158200   86.032000
  H     48.290200   15.246700   83.119600

 Total Charge           Charge          ....    0
 Multiplicity           Mult            ....    1
 Number of Electrons    NEL             ....  134
 Basis Dimension        Dim             ....  322

ORBITAL ENERGIES
----------------

  NO   OCC          E(Eh)            E(eV)
   0   2.0000     -88.965172     -2420.8654
   1   2.0000     -88.962725     -2420.7988
   2   2.0000     -10.330406      -281.1046
   3   2.0000     -10.328758      -281.0598
   4   2.0000     -10.317364      -280.7497
   5   2.0000     -10.315469      -280.6982
   6   2.0000     -10.310662      -280.5674
   7   2.0000     -10.307229      -280.4739
   8   2.0000     -10.303511      -280.3728
   9   2.0000     -10.296449      -280.1806
  10   2.0000     -10.293524      -280.1010
  11   2.0000     -10.291885      -280.0564
  12   2.0000     -10.288454      -279.9631
  13   2.0000     -10.276884      -279.6482
  14   2.0000     -10.275024      -279.5976
  15   2.0000     -10.274789      -279.5912
  16   2.0000      -8.080285      -219.8757
  17   2.0000      -8.077196      -219.7917
  18   2.0000      -6.038734      -164.3223
  19   2.0000      -6.035758      -164.2413
  20   2.0000      -6.034702      -164.2126
  21   2.0000      -6.031682      -164.1304
  22   2.0000      -6.031116      -164.1150
  23   2.0000      -6.027957      -164.0290
  24   2.0000      -1.006473       -27.3875
  25   2.0000      -0.982413       -26.7328
  26   2.0000      -0.916329       -24.9346
  27   2.0000      -0.911423       -24.8011
  28   2.0000      -0.874045       -23.7840
  29   2.0000      -0.851316       -23.1655
  30   2.0000      -0.843066       -22.9410
  31   2.0000      -0.818413       -22.2702
  32   2.0000      -0.780608       -21.2414
  33   2.0000      -0.769340       -20.9348
  34   2.0000      -0.709407       -19.3040
  35   2.0000      -0.692864       -18.8538
  36   2.0000      -0.687703       -18.7133
  37   2.0000      -0.661972       -18.0132
  38   2.0000      -0.645347       -17.5608
  39   2.0000      -0.613417       -16.6919
  40   2.0000      -0.599922       -16.3247
  41   2.0000      -0.574919       -15.6443
  42   2.0000      -0.563979       -15.3467
  43   2.0000      -0.560810       -15.2604
  44   2.0000      -0.530369       -14.4321
  45   2.0000      -0.521920       -14.2022
  46   2.0000      -0.517701       -14.0874
  47   2.0000      -0.508328       -13.8323
  48   2.0000      -0.505717       -13.7613
  49   2.0000      -0.500441       -13.6177
  50   2.0000      -0.491869       -13.3844
  51   2.0000      -0.485129       -13.2010
  52   2.0000      -0.468225       -12.7411
  53   2.0000      -0.466847       -12.7035
  54   2.0000      -0.459647       -12.5076
  55   2.0000      -0.451403       -12.2833
  56   2.0000      -0.446834       -12.1590
  57   2.0000      -0.434991       -11.8367
  58   2.0000      -0.429275       -11.6812
  59   2.0000      -0.422011       -11.4835
  60   2.0000      -0.417903       -11.3717
  61   2.0000      -0.413152       -11.2424
  62   2.0000      -0.407566       -11.0904
  63   2.0000      -0.350834        -9.5467
  64   2.0000      -0.332814        -9.0563
  65   2.0000      -0.328881        -8.9493
  66   2.0000      -0.293296        -7.9810
  67   0.0000       0.031309         0.8520
  68   0.0000       0.064521         1.7557
  69   0.0000       0.114373         3.1123
  70   0.0000       0.124119         3.3774
  71   0.0000       0.133104         3.6219

MULLIKEN ATOMIC CHARGES
-----------------------
   0 S :    0.097873
   1 C :   -0.126544
   2 C :   -0.082992
   3 C :    0.009491
   4 C :   -0.153389
   5 H :    0.054483
   6 C :    0.035522
   7 H :    0.032574
   8 H :    0.025019
   9 C :   -0.064062
  10 H :    0.008551
  11 H :    0.020880
  12 C :   -0.022909
  13 H :    0.018157
  14 H :    0.035480
  15 H :    0.035122
  16 S :    0.104296
  17 C :   -0.089524
  18 C :   -0.038089
  19 C :   -0.012134
  20 C :   -0.179719
  21 H :    0.022798
  22 C :    0.024228
  23 H :    0.051219
  24 H :    0.012285
  25 C :   -0.081122
  26 H :    0.049957
  27 H :    0.024029
  28 C :   -0.034607
  29 H :    0.028413
  30 H :    0.025381
  31 H :    0.036629
  32 H :    0.064552
  33 H :    0.068152
Sum of atomic charges:    0.0000000

LOEWDIN ATOMIC CHARGES
----------------------
   0 S :    0.385501
   1 C :   -0.201215
   2 C :   -0.062823
   3 C :   -0.079178
   4 C :   -0.184752
   5 H :    0.051714
   6 C :   -0.034104
   7 H :    0.031556
   8 H :    0.028896
   9 C :   -0.046650
  10 H :    0.012098
  11 H :    0.023356
  12 C :   -0.053935
  13 H :    0.017237
  14 H :    0.029163
  15 H :    0.030788
  16 S :    0.411189
  17 C :   -0.187480
  18 C :   -0.068620
  19 C :   -0.052879
  20 C :   -0.202424
  21 H :    0.032848
  22 C :   -0.039472
  23 H :    0.038089
  24 H :    0.028911
  25 C :   -0.041409
  26 H :    0.037972
  27 H :    0.017533
  28 C :   -0.072298
  29 H :    0.027308
  30 H :    0.025631
  31 H :    0.029376
  32 H :    0.036268
  33 H :    0.031805

  Mayer bond orders larger than 0.100000
B(  0-S ,  1-C ) :   1.1382 B(  0-S ,  4-C ) :   1.1342 B(  1-C ,  2-C ) :   1.6190
B(  1-C ,  4-C ) :   0.1008 B(  1-C , 32-H ) :   0.9707 B(  2-C ,  3-C ) :   1.2242
B(  2-C ,  6-C ) :   0.9978 B(  3-C ,  4-C ) :   1.6232 B(  3-C ,  5-H ) :   0.9740
B(  4-C , 20-C ) :   1.0169 B(  6-C ,  7-H ) :   0.9472 B(  6-C ,  8-H ) :   0.9421
B(  6-C ,  9-C ) :   1.0746 B(  9-C , 10-H ) :   0.9463 B(  9-C , 11-H ) :   0.9511
B(  9-C , 12-C ) :   1.0953 B( 12-C , 13-H ) :   0.9755 B( 12-C , 14-H ) :   0.9728
B( 12-C , 15-H ) :   0.9690 B( 16-S , 17-C ) :   1.1519 B( 16-S , 20-C ) :   1.1587
B( 17-C , 18-C ) :   1.6102 B( 17-C , 20-C ) :   0.1006 B( 17-C , 33-H ) :   0.9636
B( 18-C , 19-C ) :   1.2463 B( 18-C , 21-H ) :   0.9889 B( 19-C , 20-C ) :   1.5885
B( 19-C , 22-C ) :   1.0416 B( 22-C , 23-H ) :   0.9463 B( 22-C , 24-H ) :   0.9333
B( 22-C , 25-C ) :   1.0471 B( 25-C , 26-H ) :   0.9521 B( 25-C , 27-H ) :   0.9624
B( 25-C , 28-C ) :   1.0753 B( 28-C , 29-H ) :   0.9746 B( 28-C , 30-H ) :   0.9711
B( 28-C , 31-H ) :   0.9717

Dispersion correction           -0.013556485
FINAL SINGLE POINT ENERGY     -1339.879644194998

DIPOLE MOMENT
-------------
                                X             Y             Z
Electronic contribution:     26.48786      10.68438       2.67277
Nuclear contribution   :    -26.99936     -11.02799      -2.90241
                        -----------------------------------------
Total Dipole Moment    :     -0.51150      -0.34362      -0.22964
                        -----------------------------------------
Magnitude (a.u.)       :      0.65760
Magnitude (Debye)      :      1.67149

Rotational constants in cm-1:     0.017338     0.008126     0.006657
Rotational constants in MHz :   519.791023   243.602949   199.560799

                             ****ORCA TERMINATED NORMALLY****
TOTAL RUN TIME: 0 days 0 hours 0 minutes 29 seconds 260 msec
