                         Program Version 4.2.1 -  RELEASE  -
|  1> ! wB97X-D3 SP def2-SVP
|  2> %pal
|  3> nprocs 16
|  4> end
|  5>
|  6> * xyz 0 1
|  7> S 	 57.9349 	 28.3537 	 39.0513
|  8> C 	 57.2312 	 29.8303 	 38.5669
|  9> C 	 55.9294 	 29.8971 	 39.0229
| 10> C 	 55.5153 	 28.7026 	 39.7612
| 11> C 	 56.5741 	 27.9007 	 40.0272
| 12> H 	 54.5654 	 28.5117 	 40.2505
| 13> C 	 54.8687 	 30.9331 	 38.7233
| 14> H 	 55.3752 	 31.9064 	 38.7897
| 15> H 	 54.0131 	 30.7917 	 39.4242
| 16> C 	 54.2857 	 30.7305 	 37.2783
| 17> H 	 55.1121 	 30.9939 	 36.6175
| 18> H 	 54.0817 	 29.6824 	 37.0716
| 19> C 	 53.0739 	 31.6075 	 36.9856
| 20> H 	 52.2654 	 31.5239 	 37.7611
| 21> H 	 53.3185 	 32.6665 	 36.9962
| 22> H 	 52.65 	 31.2107 	 36.0626
| 23> S 	 57.0854 	 25.1998 	 39.8441
| 24> C 	 56.7593 	 24.1685 	 41.2488
| 25> C 	 56.4325 	 24.9295 	 42.2936
| 26> C 	 56.3127 	 26.3641 	 42.083
| 27> C 	 56.6734 	 26.7051 	 40.7437
| 28> H 	 56.1551 	 24.4177 	 43.2102
| 29> C 	 55.9462 	 27.3718 	 43.1907
| 30> H 	 54.9052 	 27.7407 	 43.1028
| 31> H 	 56.4887 	 28.3792 	 43.0642
| 32> C 	 56.1817 	 26.9771 	 44.6887
| 33> H 	 57.2106 	 26.6144 	 44.7856
| 34> H 	 55.5146 	 26.2104 	 45.0888
| 35> C 	 56.0001 	 28.0861 	 45.7516
| 36> H 	 55.0611 	 28.4965 	 45.5977
| 37> H 	 56.8281 	 28.8535 	 45.6947
| 38> H 	 55.9983 	 27.7774 	 46.7962
| 39> H 	 57.7748 	 30.4884 	 37.9201
| 40> H 	 56.6298 	 23.0828 	 41.1704
| 41> *
| 42>
| 43>                          ****END OF INPUT****

CARTESIAN COORDINATES (ANGSTROEM)
---------------------------------
  S     57.934900   28.353700   39.051300
  C     57.231200   29.830300   38.566900
  C     55.929400   29.897100   39.022900
  C     55.515300   28.702600   39.761200
  C     56.574100   27.900700   40.027200
  H     54.565400   28.511700   40.250500
  C     54.868700   30.933100   38.723300
  H     55.375200   31.906400   38.789700
  H     54.013100   30.791700   39.424200
  C     54.285700   30.730500   37.278300
  H     55.112100   30.993900   36.617500
  H     54.081700   29.682400   37.071600
  C     53.073900   31.607500   36.985600
  H     52.265400   31.523900   37.761100
  H     53.318500   32.666500   36.996200
  H     52.650000   31.210700   36.062600
  S     57.085400   25.199800   39.844100
  C     56.759300   24.168500   41.248800
  C     56.432500   24.929500   42.293600
  C     56.312700   26.364100   42.083000
  C     56.673400   26.705100   40.743700
  H     56.155100   24.417700   43.210200
  C     55.946200   27.371800   43.190700
  H     54.905200   27.740700   43.102800
  H     56.488700   28.379200   43.064200
  C     56.181700   26.977100   44.688700
  H     57.210600   26.614400   44.785600
  H     55.514600   26.210400   45.088800
  C     56.000100   28.086100   45.751600
  H     55.061100   28.496500   45.597700
  H     56.828100   28.853500   45.694700
  H     55.998300   27.777400   46.796200
  H     57.774800   30.488400   37.920100
  H     56.629800   23.082800   41.170400

 Total Charge           Charge          ....    0
 Multiplicity           Mult            ....    1
 Number of Electrons    NEL             ....  134
 Basis Dimension        Dim             ....  322

ORBITAL ENERGIES
----------------

  NO   OCC          E(Eh)            E(eV)
   0   2.0000     -88.961595     -2420.7681
   1   2.0000     -88.958780     -2420.6915
   2   2.0000     -10.330590      -281.1097
   3   2.0000     -10.320537      -280.8361
   4   2.0000     -10.316968      -280.7390
   5   2.0000     -10.316756      -280.7332
   6   2.0000     -10.311240      -280.5831
   7   2.0000     -10.306751      -280.4609
   8   2.0000     -10.303407      -280.3699
   9   2.0000     -10.294721      -280.1336
  10   2.0000     -10.294385      -280.1244
  11   2.0000     -10.292895      -280.0839
  12   2.0000     -10.290722      -280.0248
  13   2.0000     -10.285457      -279.8815
  14   2.0000     -10.280836      -279.7558
  15   2.0000     -10.278177      -279.6834
  16   2.0000      -8.075547      -219.7468
  17   2.0000      -8.075278      -219.7395
  18   2.0000      -6.034239      -164.2000
  19   2.0000      -6.033698      -164.1853
  20   2.0000      -6.030172      -164.0893
  21   2.0000      -6.029524      -164.0717
  22   2.0000      -6.026128      -163.9793
  23   2.0000      -6.026026      -163.9765
  24   2.0000      -1.011387       -27.5212
  25   2.0000      -0.980325       -26.6760
  26   2.0000      -0.909713       -24.7546
  27   2.0000      -0.899779       -24.4842
  28   2.0000      -0.878350       -23.9011
  29   2.0000      -0.850641       -23.1471
  30   2.0000      -0.842860       -22.9354
  31   2.0000      -0.818169       -22.2635
  32   2.0000      -0.780078       -21.2270
  33   2.0000      -0.767454       -20.8835
  34   2.0000      -0.707257       -19.2454
  35   2.0000      -0.699011       -19.0211
  36   2.0000      -0.696374       -18.9493
  37   2.0000      -0.656978       -17.8773
  38   2.0000      -0.642423       -17.4812
  39   2.0000      -0.617733       -16.8094
  40   2.0000      -0.599072       -16.3016
  41   2.0000      -0.565316       -15.3830
  42   2.0000      -0.564783       -15.3685
  43   2.0000      -0.558792       -15.2055
  44   2.0000      -0.530113       -14.4251
  45   2.0000      -0.524529       -14.2732
  46   2.0000      -0.519536       -14.1373
  47   2.0000      -0.514559       -14.0019
  48   2.0000      -0.507013       -13.7965
  49   2.0000      -0.500142       -13.6095
  50   2.0000      -0.495433       -13.4814
  51   2.0000      -0.474059       -12.8998
  52   2.0000      -0.468714       -12.7544
  53   2.0000      -0.461945       -12.5702
  54   2.0000      -0.460484       -12.5304
  55   2.0000      -0.453871       -12.3505
  56   2.0000      -0.445093       -12.1116
  57   2.0000      -0.435337       -11.8461
  58   2.0000      -0.425710       -11.5842
  59   2.0000      -0.423788       -11.5319
  60   2.0000      -0.417615       -11.3639
  61   2.0000      -0.412411       -11.2223
  62   2.0000      -0.411310       -11.1923
  63   2.0000      -0.351892        -9.5755
  64   2.0000      -0.327577        -8.9138
  65   2.0000      -0.323537        -8.8039
  66   2.0000      -0.292442        -7.9578
  67   0.0000       0.029476         0.8021
  68   0.0000       0.063565         1.7297
  69   0.0000       0.113522         3.0891
  70   0.0000       0.122833         3.3425
  71   0.0000       0.134278         3.6539

MULLIKEN ATOMIC CHARGES
-----------------------
   0 S :    0.098696
   1 C :   -0.112376
   2 C :   -0.094186
   3 C :    0.036341
   4 C :   -0.167834
   5 H :    0.017701
   6 C :    0.052981
   7 H :    0.035368
   8 H :    0.026573
   9 C :   -0.089107
  10 H :    0.022752
  11 H :    0.032275
  12 C :   -0.033572
  13 H :    0.027089
  14 H :    0.034426
  15 H :    0.040314
  16 S :    0.083675
  17 C :   -0.090861
  18 C :   -0.034543
  19 C :    0.000892
  20 C :   -0.141287
  21 H :    0.022085
  22 C :    0.023017
  23 H :    0.033380
  24 H :    0.047263
  25 C :   -0.098140
  26 H :    0.037133
  27 H :    0.033800
  28 C :   -0.049272
  29 H :    0.015301
  30 H :    0.038670
  31 H :    0.034120
  32 H :    0.045638
  33 H :    0.071689
Sum of atomic charges:   -0.0000000

LOEWDIN ATOMIC CHARGES
----------------------
   0 S :    0.424318
   1 C :   -0.207046
   2 C :   -0.060702
   3 C :   -0.057348
   4 C :   -0.201618
   5 H :    0.034224
   6 C :   -0.034065
   7 H :    0.032830
   8 H :    0.030159
   9 C :   -0.040414
  10 H :    0.022555
  11 H :    0.024183
  12 C :   -0.069242
  13 H :    0.026342
  14 H :    0.025502
  15 H :    0.030074
  16 S :    0.368756
  17 C :   -0.178258
  18 C :   -0.076136
  19 C :   -0.048953
  20 C :   -0.184533
  21 H :    0.032881
  22 C :   -0.044329
  23 H :    0.031806
  24 H :    0.044968
  25 C :   -0.046517
  26 H :    0.025053
  27 H :    0.022999
  28 C :   -0.063241
  29 H :    0.013084
  30 H :    0.029295
  31 H :    0.029162
  32 H :    0.024755
  33 H :    0.039454

  Mayer bond orders larger than 0.100000
B(  0-S ,  1-C ) :   1.1429 B(  0-S ,  4-C ) :   1.1509 B(  1-C ,  2-C ) :   1.5940
B(  1-C , 32-H ) :   0.9811 B(  2-C ,  3-C ) :   1.2183 B(  2-C ,  6-C ) :   1.0373
B(  3-C ,  4-C ) :   1.5966 B(  3-C ,  5-H ) :   0.9916 B(  4-C , 20-C ) :   1.0638
B(  6-C ,  7-H ) :   0.9381 B(  6-C ,  8-H ) :   0.9426 B(  6-C ,  9-C ) :   1.0586
B(  9-C , 10-H ) :   0.9532 B(  9-C , 11-H ) :   0.9611 B(  9-C , 12-C ) :   1.0815
B( 12-C , 13-H ) :   0.9745 B( 12-C , 14-H ) :   0.9730 B( 12-C , 15-H ) :   0.9737
B( 16-S , 17-C ) :   1.1259 B( 16-S , 20-C ) :   1.1298 B( 17-C , 18-C ) :   1.6475
B( 17-C , 33-H ) :   0.9611 B( 18-C , 19-C ) :   1.2229 B( 18-C , 21-H ) :   0.9835
B( 19-C , 20-C ) :   1.5914 B( 19-C , 22-C ) :   1.0368 B( 22-C , 23-H ) :   0.9277
B( 22-C , 24-H ) :   0.9429 B( 22-C , 25-C ) :   1.0595 B( 25-C , 26-H ) :   0.9607
B( 25-C , 27-H ) :   0.9522 B( 25-C , 28-C ) :   1.0828 B( 28-C , 29-H ) :   0.9750
B( 28-C , 30-H ) :   0.9756 B( 28-C , 31-H ) :   0.9753

Dispersion correction           -0.013281631
FINAL SINGLE POINT ENERGY     -1339.871398196642

DIPOLE MOMENT
-------------
                                X             Y             Z
Electronic contribution:     16.45914     -16.67657     -10.62538
Nuclear contribution   :    -17.03794      16.92255      10.93493
                        -----------------------------------------
Total Dipole Moment    :     -0.57880       0.24598       0.30955
                        -----------------------------------------
Magnitude (a.u.)       :      0.70095
Magnitude (Debye)      :      1.78168

Rotational constants in cm-1:     0.018103     0.007444     0.006104
Rotational constants in MHz :   542.717927   223.170687   183.001676

                             ****ORCA TERMINATED NORMALLY****
TOTAL RUN TIME: 0 days 0 hours 0 minutes 27 seconds 332 msec
