                         Program Version 4.2.1 -  RELEASE  -
|  1> ! wB97X-D3 SP def2-SVP
|  2> %pal
|  3> nprocs 16
|  4> end
|  5>
|  6> * xyz 0 1
|  7> S 	 -80.2896 	 44.4525 	 124.325
|  8> C 	 -81.3 	 45.319 	 123.15
|  9> C 	 -80.5675 	 45.4178 	 121.951
| 10> C 	 -79.2223 	 44.9166 	 122.018
| 11> C 	 -78.8902 	 44.405 	 123.271
| 12> H 	 -78.488 	 45.0389 	 121.295
| 13> C 	 -81.0328 	 46.0209 	 120.674
| 14> H 	 -80.2993 	 46.6665 	 120.358
| 15> H 	 -81.8738 	 46.7268 	 120.995
| 16> C 	 -81.3398 	 44.9227 	 119.573
| 17> H 	 -81.5744 	 45.3553 	 118.605
| 18> H 	 -80.4359 	 44.3562 	 119.452
| 19> C 	 -82.4722 	 43.944 	 119.925
| 20> H 	 -83.4116 	 44.4149 	 120.161
| 21> H 	 -82.6972 	 43.3247 	 119.109
| 22> H 	 -82.1358 	 43.2995 	 120.727
| 23> S 	 -76.2952 	 45.0595 	 123.883
| 24> C 	 -75.1752 	 43.6662 	 124.362
| 25> C 	 -75.8531 	 42.5579 	 124.637
| 26> C 	 -77.1617 	 42.625 	 124.123
| 27> C 	 -77.614 	 43.895 	 123.705
| 28> H 	 -75.2721 	 41.7476 	 125.104
| 29> C 	 -78.0635 	 41.372 	 124.104
| 30> H 	 -79.0381 	 41.6668 	 124.479
| 31> H 	 -77.7461 	 40.6308 	 124.787
| 32> C 	 -78.1671 	 40.5291 	 122.808
| 33> H 	 -78.5659 	 41.2135 	 122.043
| 34> H 	 -78.9864 	 39.7502 	 122.821
| 35> C 	 -76.7969 	 39.9731 	 122.262
| 36> H 	 -76.3576 	 39.2523 	 122.943
| 37> H 	 -75.9812 	 40.7156 	 122.13
| 38> H 	 -76.9161 	 39.6272 	 121.188
| 39> H 	 -82.3355 	 45.6023 	 123.29
| 40> H 	 -74.1001 	 43.7758 	 124.772
| 41> *
| 42>
| 43>                          ****END OF INPUT****

CARTESIAN COORDINATES (ANGSTROEM)
---------------------------------
  S    -80.289600   44.452500  124.325000
  C    -81.300000   45.319000  123.150000
  C    -80.567500   45.417800  121.951000
  C    -79.222300   44.916600  122.018000
  C    -78.890200   44.405000  123.271000
  H    -78.488000   45.038900  121.295000
  C    -81.032800   46.020900  120.674000
  H    -80.299300   46.666500  120.358000
  H    -81.873800   46.726800  120.995000
  C    -81.339800   44.922700  119.573000
  H    -81.574400   45.355300  118.605000
  H    -80.435900   44.356200  119.452000
  C    -82.472200   43.944000  119.925000
  H    -83.411600   44.414900  120.161000
  H    -82.697200   43.324700  119.109000
  H    -82.135800   43.299500  120.727000
  S    -76.295200   45.059500  123.883000
  C    -75.175200   43.666200  124.362000
  C    -75.853100   42.557900  124.637000
  C    -77.161700   42.625000  124.123000
  C    -77.614000   43.895000  123.705000
  H    -75.272100   41.747600  125.104000
  C    -78.063500   41.372000  124.104000
  H    -79.038100   41.666800  124.479000
  H    -77.746100   40.630800  124.787000
  C    -78.167100   40.529100  122.808000
  H    -78.565900   41.213500  122.043000
  H    -78.986400   39.750200  122.821000
  C    -76.796900   39.973100  122.262000
  H    -76.357600   39.252300  122.943000
  H    -75.981200   40.715600  122.130000
  H    -76.916100   39.627200  121.188000
  H    -82.335500   45.602300  123.290000
  H    -74.100100   43.775800  124.772000

 Total Charge           Charge          ....    0
 Multiplicity           Mult            ....    1
 Number of Electrons    NEL             ....  134
 Basis Dimension        Dim             ....  322

ORBITAL ENERGIES
----------------

  NO   OCC          E(Eh)            E(eV)
   0   2.0000     -88.967815     -2420.9373
   1   2.0000     -88.966504     -2420.9017
   2   2.0000     -10.332926      -281.1732
   3   2.0000     -10.331921      -281.1459
   4   2.0000     -10.324924      -280.9555
   5   2.0000     -10.321660      -280.8666
   6   2.0000     -10.309207      -280.5278
   7   2.0000     -10.303531      -280.3733
   8   2.0000     -10.294257      -280.1210
   9   2.0000     -10.292740      -280.0797
  10   2.0000     -10.291763      -280.0531
  11   2.0000     -10.290448      -280.0173
  12   2.0000     -10.289748      -279.9983
  13   2.0000     -10.285446      -279.8812
  14   2.0000     -10.283410      -279.8258
  15   2.0000     -10.268629      -279.4236
  16   2.0000      -8.081681      -219.9137
  17   2.0000      -8.079628      -219.8579
  18   2.0000      -6.040284      -164.3645
  19   2.0000      -6.038360      -164.3121
  20   2.0000      -6.036112      -164.2510
  21   2.0000      -6.034538      -164.2081
  22   2.0000      -6.032581      -164.1549
  23   2.0000      -6.030044      -164.0858
  24   2.0000      -1.003009       -27.2933
  25   2.0000      -0.980548       -26.6821
  26   2.0000      -0.910361       -24.7722
  27   2.0000      -0.895092       -24.3567
  28   2.0000      -0.874966       -23.8090
  29   2.0000      -0.848791       -23.0968
  30   2.0000      -0.834796       -22.7159
  31   2.0000      -0.819074       -22.2881
  32   2.0000      -0.782908       -21.3040
  33   2.0000      -0.768564       -20.9137
  34   2.0000      -0.714943       -19.4546
  35   2.0000      -0.701454       -19.0875
  36   2.0000      -0.686625       -18.6840
  37   2.0000      -0.657062       -17.8796
  38   2.0000      -0.643528       -17.5113
  39   2.0000      -0.617682       -16.8080
  40   2.0000      -0.586339       -15.9551
  41   2.0000      -0.573329       -15.6011
  42   2.0000      -0.550149       -14.9703
  43   2.0000      -0.546841       -14.8803
  44   2.0000      -0.544037       -14.8040
  45   2.0000      -0.534164       -14.5353
  46   2.0000      -0.519845       -14.1457
  47   2.0000      -0.516379       -14.0514
  48   2.0000      -0.501689       -13.6517
  49   2.0000      -0.492203       -13.3935
  50   2.0000      -0.484393       -13.1810
  51   2.0000      -0.476219       -12.9586
  52   2.0000      -0.469917       -12.7871
  53   2.0000      -0.466162       -12.6849
  54   2.0000      -0.457853       -12.4588
  55   2.0000      -0.443853       -12.0778
  56   2.0000      -0.436926       -11.8894
  57   2.0000      -0.435891       -11.8612
  58   2.0000      -0.427199       -11.6247
  59   2.0000      -0.426608       -11.6086
  60   2.0000      -0.419283       -11.4093
  61   2.0000      -0.415398       -11.3035
  62   2.0000      -0.405016       -11.0211
  63   2.0000      -0.344433        -9.3725
  64   2.0000      -0.333831        -9.0840
  65   2.0000      -0.324218        -8.8224
  66   2.0000      -0.299406        -8.1472
  67   0.0000       0.028926         0.7871
  68   0.0000       0.054130         1.4730
  69   0.0000       0.097066         2.6413
  70   0.0000       0.115327         3.1382
  71   0.0000       0.124363         3.3841

MULLIKEN ATOMIC CHARGES
-----------------------
   0 S :    0.111234
   1 C :   -0.120457
   2 C :   -0.117181
   3 C :    0.062653
   4 C :   -0.154919
   5 H :   -0.007465
   6 C :    0.087748
   7 H :    0.009770
   8 H :    0.026278
   9 C :   -0.062941
  10 H :    0.029974
  11 H :    0.024776
  12 C :   -0.030911
  13 H :    0.023935
  14 H :    0.018476
  15 H :    0.040918
  16 S :    0.091850
  17 C :   -0.125332
  18 C :   -0.034147
  19 C :   -0.032050
  20 C :   -0.151763
  21 H :    0.040279
  22 C :    0.097228
  23 H :    0.017441
  24 H :    0.003465
  25 C :   -0.073928
  26 H :    0.022639
  27 H :    0.041067
  28 C :   -0.090089
  29 H :    0.031932
  30 H :    0.038518
  31 H :    0.045696
  32 H :    0.054713
  33 H :    0.080591
Sum of atomic charges:    0.0000000

LOEWDIN ATOMIC CHARGES
----------------------
   0 S :    0.404225
   1 C :   -0.194896
   2 C :   -0.060060
   3 C :   -0.051359
   4 C :   -0.195332
   5 H :    0.021344
   6 C :   -0.031688
   7 H :    0.019331
   8 H :    0.036446
   9 C :   -0.028952
  10 H :    0.022157
  11 H :    0.022751
  12 C :   -0.060554
  13 H :    0.022181
  14 H :    0.020395
  15 H :    0.027625
  16 S :    0.360935
  17 C :   -0.166670
  18 C :   -0.075643
  19 C :   -0.050273
  20 C :   -0.193613
  21 H :    0.045942
  22 C :   -0.033933
  23 H :    0.024671
  24 H :    0.021254
  25 C :   -0.045003
  26 H :    0.021921
  27 H :    0.031939
  28 C :   -0.079862
  29 H :    0.019879
  30 H :    0.029159
  31 H :    0.036244
  32 H :    0.031858
  33 H :    0.047581

  Mayer bond orders larger than 0.100000
B(  0-S ,  1-C ) :   1.1334 B(  0-S ,  4-C ) :   1.1562 B(  1-C ,  2-C ) :   1.5857
B(  1-C ,  4-C ) :   0.1004 B(  1-C , 32-H ) :   0.9725 B(  2-C ,  3-C ) :   1.2363
B(  2-C ,  6-C ) :   1.0279 B(  3-C ,  4-C ) :   1.5593 B(  3-C ,  5-H ) :   1.0021
B(  4-C , 20-C ) :   1.0460 B(  6-C ,  7-H ) :   0.9375 B(  6-C ,  8-H ) :   0.9463
B(  6-C ,  9-C ) :   1.0512 B(  9-C , 10-H ) :   0.9615 B(  9-C , 11-H ) :   0.9565
B(  9-C , 12-C ) :   1.0811 B( 12-C , 13-H ) :   0.9766 B( 12-C , 14-H ) :   0.9717
B( 12-C , 15-H ) :   0.9743 B( 16-S , 17-C ) :   1.1176 B( 16-S , 20-C ) :   1.1277
B( 17-C , 18-C ) :   1.6791 B( 17-C , 20-C ) :   0.1003 B( 17-C , 33-H ) :   0.9472
B( 18-C , 19-C ) :   1.2098 B( 18-C , 21-H ) :   0.9804 B( 19-C , 20-C ) :   1.6050
B( 19-C , 22-C ) :   1.0366 B( 22-C , 23-H ) :   0.9303 B( 22-C , 24-H ) :   0.9405
B( 22-C , 25-C ) :   1.0624 B( 25-C , 26-H ) :   0.9567 B( 25-C , 27-H ) :   0.9574
B( 25-C , 28-C ) :   1.0627 B( 28-C , 29-H ) :   0.9784 B( 28-C , 30-H ) :   0.9740
B( 28-C , 31-H ) :   0.9746

Dispersion correction           -0.015145298
FINAL SINGLE POINT ENERGY     -1339.855996018877

DIPOLE MOMENT
-------------
                                X             Y             Z
Electronic contribution:      8.59420      14.25103      17.31220
Nuclear contribution   :     -8.65093     -14.50134     -17.61575
                        -----------------------------------------
Total Dipole Moment    :     -0.05673      -0.25031      -0.30356
                        -----------------------------------------
Magnitude (a.u.)       :      0.39752
Magnitude (Debye)      :      1.01041

Rotational constants in cm-1:     0.019638     0.008610     0.007367
Rotational constants in MHz :   588.727585   258.112603   220.852916

                             ****ORCA TERMINATED NORMALLY****
TOTAL RUN TIME: 0 days 0 hours 0 minutes 34 seconds 134 msec
