                         Program Version 4.2.1 -  RELEASE  -
|  1> ! wB97X-D3 SP def2-SVP
|  2> %pal
|  3> nprocs 16
|  4> end
|  5>
|  6> * xyz 0 1
|  7> S 	 33.495 	 27.4427 	 53.2144
|  8> C 	 34.4776 	 28.2223 	 51.9095
|  9> C 	 35.311 	 27.3016 	 51.3523
| 10> C 	 34.9159 	 25.9713 	 51.7064
| 11> C 	 33.8569 	 25.8581 	 52.6161
| 12> H 	 35.2941 	 25.0478 	 51.2252
| 13> C 	 36.4567 	 27.5721 	 50.4047
| 14> H 	 36.2884 	 28.5225 	 49.9394
| 15> H 	 36.4936 	 26.954 	 49.5176
| 16> C 	 37.8436 	 27.6723 	 51.0876
| 17> H 	 37.9173 	 26.8499 	 51.7979
| 18> H 	 38.5291 	 27.275 	 50.3164
| 19> C 	 38.3982 	 29.0105 	 51.5681
| 20> H 	 38.7516 	 29.6931 	 50.7919
| 21> H 	 37.5984 	 29.573 	 52.0029
| 22> H 	 39.2135 	 28.7862 	 52.2474
| 23> S 	 33.2529 	 24.8189 	 55.1452
| 24> C 	 32.9919 	 23.0962 	 55.2497
| 25> C 	 32.9396 	 22.4562 	 54.0643
| 26> C 	 33.2279 	 23.3747 	 52.9751
| 27> C 	 33.5061 	 24.6655 	 53.4011
| 28> H 	 32.5159 	 21.4258 	 54.0056
| 29> C 	 33.2344 	 22.936 	 51.4893
| 30> H 	 33.3505 	 23.9093 	 50.8677
| 31> H 	 32.1575 	 22.7063 	 51.318
| 32> C 	 34.1181 	 21.7539 	 51.0646
| 33> H 	 33.7622 	 20.8101 	 51.4812
| 34> H 	 35.1639 	 21.9584 	 51.2967
| 35> C 	 34.0087 	 21.4129 	 49.5636
| 36> H 	 34.4275 	 20.3883 	 49.357
| 37> H 	 34.62 	 22.1239 	 48.9542
| 38> H 	 33.0199 	 21.4547 	 49.2684
| 39> H 	 34.4949 	 29.2803 	 51.6868
| 40> H 	 32.6435 	 22.5778 	 56.1944
| 41> *
| 42>
| 43>                          ****END OF INPUT****

CARTESIAN COORDINATES (ANGSTROEM)
---------------------------------
  S     33.495000   27.442700   53.214400
  C     34.477600   28.222300   51.909500
  C     35.311000   27.301600   51.352300
  C     34.915900   25.971300   51.706400
  C     33.856900   25.858100   52.616100
  H     35.294100   25.047800   51.225200
  C     36.456700   27.572100   50.404700
  H     36.288400   28.522500   49.939400
  H     36.493600   26.954000   49.517600
  C     37.843600   27.672300   51.087600
  H     37.917300   26.849900   51.797900
  H     38.529100   27.275000   50.316400
  C     38.398200   29.010500   51.568100
  H     38.751600   29.693100   50.791900
  H     37.598400   29.573000   52.002900
  H     39.213500   28.786200   52.247400
  S     33.252900   24.818900   55.145200
  C     32.991900   23.096200   55.249700
  C     32.939600   22.456200   54.064300
  C     33.227900   23.374700   52.975100
  C     33.506100   24.665500   53.401100
  H     32.515900   21.425800   54.005600
  C     33.234400   22.936000   51.489300
  H     33.350500   23.909300   50.867700
  H     32.157500   22.706300   51.318000
  C     34.118100   21.753900   51.064600
  H     33.762200   20.810100   51.481200
  H     35.163900   21.958400   51.296700
  C     34.008700   21.412900   49.563600
  H     34.427500   20.388300   49.357000
  H     34.620000   22.123900   48.954200
  H     33.019900   21.454700   49.268400
  H     34.494900   29.280300   51.686800
  H     32.643500   22.577800   56.194400

 Total Charge           Charge          ....    0
 Multiplicity           Mult            ....    1
 Number of Electrons    NEL             ....  134
 Basis Dimension        Dim             ....  322

ORBITAL ENERGIES
----------------

  NO   OCC          E(Eh)            E(eV)
   0   2.0000     -88.965372     -2420.8708
   1   2.0000     -88.964998     -2420.8607
   2   2.0000     -10.331957      -281.1468
   3   2.0000     -10.329218      -281.0723
   4   2.0000     -10.318826      -280.7895
   5   2.0000     -10.317512      -280.7538
   6   2.0000     -10.305997      -280.4404
   7   2.0000     -10.303488      -280.3722
   8   2.0000     -10.301473      -280.3173
   9   2.0000     -10.297318      -280.2043
  10   2.0000     -10.295926      -280.1664
  11   2.0000     -10.291929      -280.0576
  12   2.0000     -10.290148      -280.0092
  13   2.0000     -10.287421      -279.9350
  14   2.0000     -10.279327      -279.7147
  15   2.0000     -10.277977      -279.6780
  16   2.0000      -8.080076      -219.8701
  17   2.0000      -8.079323      -219.8496
  18   2.0000      -6.038728      -164.3222
  19   2.0000      -6.037991      -164.3021
  20   2.0000      -6.034832      -164.2161
  21   2.0000      -6.034032      -164.1944
  22   2.0000      -6.030439      -164.0966
  23   2.0000      -6.029798      -164.0792
  24   2.0000      -1.005603       -27.3639
  25   2.0000      -0.982954       -26.7475
  26   2.0000      -0.912319       -24.8255
  27   2.0000      -0.904208       -24.6047
  28   2.0000      -0.870596       -23.6901
  29   2.0000      -0.851320       -23.1656
  30   2.0000      -0.841112       -22.8878
  31   2.0000      -0.813492       -22.1362
  32   2.0000      -0.789045       -21.4710
  33   2.0000      -0.771127       -20.9834
  34   2.0000      -0.707201       -19.2439
  35   2.0000      -0.698218       -18.9995
  36   2.0000      -0.692973       -18.8568
  37   2.0000      -0.654108       -17.7992
  38   2.0000      -0.638452       -17.3732
  39   2.0000      -0.616968       -16.7885
  40   2.0000      -0.588579       -16.0160
  41   2.0000      -0.571522       -15.5519
  42   2.0000      -0.568318       -15.4647
  43   2.0000      -0.551506       -15.0072
  44   2.0000      -0.528363       -14.3775
  45   2.0000      -0.526639       -14.3306
  46   2.0000      -0.523091       -14.2340
  47   2.0000      -0.512573       -13.9478
  48   2.0000      -0.502855       -13.6834
  49   2.0000      -0.494780       -13.4637
  50   2.0000      -0.492650       -13.4057
  51   2.0000      -0.480820       -13.0838
  52   2.0000      -0.469195       -12.7675
  53   2.0000      -0.466463       -12.6931
  54   2.0000      -0.455157       -12.3855
  55   2.0000      -0.450715       -12.2646
  56   2.0000      -0.444672       -12.1001
  57   2.0000      -0.440734       -11.9930
  58   2.0000      -0.431366       -11.7381
  59   2.0000      -0.427595       -11.6354
  60   2.0000      -0.416015       -11.3203
  61   2.0000      -0.412712       -11.2305
  62   2.0000      -0.403883       -10.9902
  63   2.0000      -0.356995        -9.7143
  64   2.0000      -0.332444        -9.0463
  65   2.0000      -0.327715        -8.9176
  66   2.0000      -0.286615        -7.7992
  67   0.0000       0.024699         0.6721
  68   0.0000       0.070871         1.9285
  69   0.0000       0.101610         2.7650
  70   0.0000       0.118908         3.2356
  71   0.0000       0.125876         3.4252

MULLIKEN ATOMIC CHARGES
-----------------------
   0 S :    0.075727
   1 C :   -0.119678
   2 C :   -0.058631
   3 C :    0.001649
   4 C :   -0.124019
   5 H :    0.024173
   6 C :    0.067313
   7 H :   -0.000125
   8 H :    0.028215
   9 C :   -0.086590
  10 H :    0.025659
  11 H :    0.018726
  12 C :   -0.009242
  13 H :    0.030697
  14 H :    0.020105
  15 H :    0.044630
  16 S :    0.097474
  17 C :   -0.107442
  18 C :   -0.034798
  19 C :   -0.056362
  20 C :   -0.132144
  21 H :    0.041401
  22 C :   -0.002182
  23 H :    0.041971
  24 H :    0.034404
  25 C :   -0.046840
  26 H :    0.030238
  27 H :    0.038657
  28 C :   -0.054098
  29 H :    0.040447
  30 H :    0.032213
  31 H :    0.017331
  32 H :    0.047112
  33 H :    0.074010
Sum of atomic charges:   -0.0000000

LOEWDIN ATOMIC CHARGES
----------------------
   0 S :    0.381598
   1 C :   -0.172430
   2 C :   -0.061651
   3 C :   -0.065080
   4 C :   -0.195632
   5 H :    0.032047
   6 C :   -0.032722
   7 H :    0.026945
   8 H :    0.032397
   9 C :   -0.045308
  10 H :    0.024512
  11 H :    0.027423
  12 C :   -0.062098
  13 H :    0.027068
  14 H :    0.021080
  15 H :    0.033758
  16 S :    0.387369
  17 C :   -0.190979
  18 C :   -0.080570
  19 C :   -0.057850
  20 C :   -0.191977
  21 H :    0.043687
  22 C :   -0.047226
  23 H :    0.039248
  24 H :    0.035927
  25 C :   -0.041233
  26 H :    0.027093
  27 H :    0.025674
  28 C :   -0.060149
  29 H :    0.032026
  30 H :    0.025414
  31 H :    0.011764
  32 H :    0.028266
  33 H :    0.041611

  Mayer bond orders larger than 0.100000
B(  0-S ,  1-C ) :   1.1208 B(  0-S ,  4-C ) :   1.1410 B(  1-C ,  2-C ) :   1.6176
B(  1-C , 32-H ) :   0.9713 B(  2-C ,  3-C ) :   1.2436 B(  2-C ,  6-C ) :   1.0301
B(  3-C ,  4-C ) :   1.5525 B(  3-C ,  5-H ) :   0.9854 B(  4-C , 20-C ) :   1.0545
B(  6-C ,  7-H ) :   0.9372 B(  6-C ,  8-H ) :   0.9476 B(  6-C ,  9-C ) :   1.0557
B(  9-C , 10-H ) :   0.9609 B(  9-C , 11-H ) :   0.9521 B(  9-C , 12-C ) :   1.0772
B( 12-C , 13-H ) :   0.9731 B( 12-C , 14-H ) :   0.9752 B( 12-C , 15-H ) :   0.9724
B( 16-S , 17-C ) :   1.1395 B( 16-S , 20-C ) :   1.1124 B( 17-C , 18-C ) :   1.6648
B( 17-C , 33-H ) :   0.9521 B( 18-C , 19-C ) :   1.2069 B( 18-C , 21-H ) :   0.9816
B( 19-C , 20-C ) :   1.6385 B( 19-C , 22-C ) :   1.0372 B( 22-C , 23-H ) :   0.9371
B( 22-C , 24-H ) :   0.9272 B( 22-C , 25-C ) :   1.0610 B( 25-C , 26-H ) :   0.9509
B( 25-C , 27-H ) :   0.9610 B( 25-C , 28-C ) :   1.0784 B( 28-C , 29-H ) :   0.9775
B( 28-C , 30-H ) :   0.9769 B( 28-C , 31-H ) :   0.9752

Dispersion correction           -0.013634573
FINAL SINGLE POINT ENERGY     -1339.864364884929

DIPOLE MOMENT
-------------
                                X             Y             Z
Electronic contribution:    -16.04147       6.26998      21.27614
Nuclear contribution   :     16.33878      -6.56816     -21.83670
                        -----------------------------------------
Total Dipole Moment    :      0.29731      -0.29818      -0.56055
                        -----------------------------------------
Magnitude (a.u.)       :      0.70109
Magnitude (Debye)      :      1.78203

Rotational constants in cm-1:     0.017184     0.008496     0.006426
Rotational constants in MHz :   515.173272   254.702493   192.643406

                             ****ORCA TERMINATED NORMALLY****
TOTAL RUN TIME: 0 days 0 hours 0 minutes 33 seconds 931 msec
