                         Program Version 4.2.1 -  RELEASE  -
|  1> ! wB97X-D3 SP def2-SVP
|  2> %pal
|  3> nprocs 16
|  4> end
|  5>
|  6> * xyz 0 1
|  7> S 	 -66.2589 	 44.3995 	 121.966
|  8> C 	 -66.2306 	 43.4047 	 123.437
|  9> C 	 -66.71 	 44.1096 	 124.522
| 10> C 	 -67.2134 	 45.3895 	 124.197
| 11> C 	 -66.9719 	 45.7443 	 122.895
| 12> H 	 -67.6887 	 45.9864 	 124.914
| 13> C 	 -66.5119 	 43.6713 	 125.989
| 14> H 	 -66.7013 	 42.5599 	 126.025
| 15> H 	 -67.2351 	 44.1812 	 126.61
| 16> C 	 -65.0908 	 43.8611 	 126.505
| 17> H 	 -64.3685 	 43.3251 	 125.858
| 18> H 	 -64.7139 	 44.9395 	 126.473
| 19> C 	 -64.9456 	 43.2161 	 127.906
| 20> H 	 -65.165 	 44.0084 	 128.608
| 21> H 	 -65.5681 	 42.3429 	 127.994
| 22> H 	 -63.9044 	 42.9116 	 128.21
| 23> S 	 -68.1317 	 47.0284 	 120.707
| 24> C 	 -67.9576 	 48.7762 	 120.587
| 25> C 	 -67.0093 	 49.2076 	 121.488
| 26> C 	 -66.616 	 48.2434 	 122.409
| 27> C 	 -67.2599 	 47.0208 	 122.245
| 28> H 	 -66.8641 	 50.3203 	 121.512
| 29> C 	 -65.6382 	 48.6485 	 123.502
| 30> H 	 -64.8803 	 49.3281 	 123.089
| 31> H 	 -65.1437 	 47.748 	 123.879
| 32> C 	 -66.2811 	 49.3288 	 124.702
| 33> H 	 -66.9383 	 48.6327 	 125.084
| 34> H 	 -66.9405 	 50.1719 	 124.461
| 35> C 	 -65.2662 	 49.744 	 125.78
| 36> H 	 -64.6836 	 48.9643 	 126.196
| 37> H 	 -65.7002 	 50.198 	 126.663
| 38> H 	 -64.6295 	 50.534 	 125.424
| 39> H 	 -65.7616 	 42.378 	 123.555
| 40> H 	 -68.3087 	 49.3756 	 119.725
| 41> *
| 42>
| 43>                          ****END OF INPUT****

CARTESIAN COORDINATES (ANGSTROEM)
---------------------------------
  S    -66.258900   44.399500  121.966000
  C    -66.230600   43.404700  123.437000
  C    -66.710000   44.109600  124.522000
  C    -67.213400   45.389500  124.197000
  C    -66.971900   45.744300  122.895000
  H    -67.688700   45.986400  124.914000
  C    -66.511900   43.671300  125.989000
  H    -66.701300   42.559900  126.025000
  H    -67.235100   44.181200  126.610000
  C    -65.090800   43.861100  126.505000
  H    -64.368500   43.325100  125.858000
  H    -64.713900   44.939500  126.473000
  C    -64.945600   43.216100  127.906000
  H    -65.165000   44.008400  128.608000
  H    -65.568100   42.342900  127.994000
  H    -63.904400   42.911600  128.210000
  S    -68.131700   47.028400  120.707000
  C    -67.957600   48.776200  120.587000
  C    -67.009300   49.207600  121.488000
  C    -66.616000   48.243400  122.409000
  C    -67.259900   47.020800  122.245000
  H    -66.864100   50.320300  121.512000
  C    -65.638200   48.648500  123.502000
  H    -64.880300   49.328100  123.089000
  H    -65.143700   47.748000  123.879000
  C    -66.281100   49.328800  124.702000
  H    -66.938300   48.632700  125.084000
  H    -66.940500   50.171900  124.461000
  C    -65.266200   49.744000  125.780000
  H    -64.683600   48.964300  126.196000
  H    -65.700200   50.198000  126.663000
  H    -64.629500   50.534000  125.424000
  H    -65.761600   42.378000  123.555000
  H    -68.308700   49.375600  119.725000

 Total Charge           Charge          ....    0
 Multiplicity           Mult            ....    1
 Number of Electrons    NEL             ....  134
 Basis Dimension        Dim             ....  322

ORBITAL ENERGIES
----------------

  NO   OCC          E(Eh)            E(eV)
   0   2.0000     -88.968650     -2420.9600
   1   2.0000     -88.965184     -2420.8657
   2   2.0000     -10.332353      -281.1576
   3   2.0000     -10.327814      -281.0341
   4   2.0000     -10.320239      -280.8280
   5   2.0000     -10.318815      -280.7892
   6   2.0000     -10.302589      -280.3477
   7   2.0000     -10.298905      -280.2475
   8   2.0000     -10.298413      -280.2341
   9   2.0000     -10.294067      -280.1158
  10   2.0000     -10.293229      -280.0930
  11   2.0000     -10.290094      -280.0077
  12   2.0000     -10.290033      -280.0060
  13   2.0000     -10.280720      -279.7526
  14   2.0000     -10.279889      -279.7300
  15   2.0000     -10.272530      -279.5297
  16   2.0000      -8.082271      -219.9298
  17   2.0000      -8.079631      -219.8579
  18   2.0000      -6.040919      -164.3818
  19   2.0000      -6.038079      -164.3045
  20   2.0000      -6.037006      -164.2753
  21   2.0000      -6.034277      -164.2010
  22   2.0000      -6.032864      -164.1626
  23   2.0000      -6.030354      -164.0943
  24   2.0000      -1.006088       -27.3770
  25   2.0000      -0.983727       -26.7686
  26   2.0000      -0.911140       -24.7934
  27   2.0000      -0.909458       -24.7476
  28   2.0000      -0.867164       -23.5967
  29   2.0000      -0.852319       -23.1928
  30   2.0000      -0.847061       -23.0497
  31   2.0000      -0.813659       -22.1408
  32   2.0000      -0.782659       -21.2972
  33   2.0000      -0.768906       -20.9230
  34   2.0000      -0.709886       -19.3170
  35   2.0000      -0.698535       -19.0081
  36   2.0000      -0.695626       -18.9290
  37   2.0000      -0.658108       -17.9080
  38   2.0000      -0.637064       -17.3354
  39   2.0000      -0.624027       -16.9806
  40   2.0000      -0.596329       -16.2269
  41   2.0000      -0.569146       -15.4872
  42   2.0000      -0.568012       -15.4564
  43   2.0000      -0.558891       -15.2082
  44   2.0000      -0.523308       -14.2399
  45   2.0000      -0.521050       -14.1785
  46   2.0000      -0.513857       -13.9828
  47   2.0000      -0.510095       -13.8804
  48   2.0000      -0.505886       -13.7659
  49   2.0000      -0.497695       -13.5430
  50   2.0000      -0.494324       -13.4512
  51   2.0000      -0.477656       -12.9977
  52   2.0000      -0.473336       -12.8801
  53   2.0000      -0.467746       -12.7280
  54   2.0000      -0.461336       -12.5536
  55   2.0000      -0.446682       -12.1548
  56   2.0000      -0.443299       -12.0628
  57   2.0000      -0.437960       -11.9175
  58   2.0000      -0.435317       -11.8456
  59   2.0000      -0.423781       -11.5317
  60   2.0000      -0.422121       -11.4865
  61   2.0000      -0.419674       -11.4199
  62   2.0000      -0.411471       -11.1967
  63   2.0000      -0.342872        -9.3300
  64   2.0000      -0.332392        -9.0449
  65   2.0000      -0.331176        -9.0117
  66   2.0000      -0.296374        -8.0647
  67   0.0000       0.029308         0.7975
  68   0.0000       0.057669         1.5693
  69   0.0000       0.105361         2.8670
  70   0.0000       0.119457         3.2506
  71   0.0000       0.131647         3.5823

MULLIKEN ATOMIC CHARGES
-----------------------
   0 S :    0.113013
   1 C :   -0.150344
   2 C :   -0.080418
   3 C :    0.049300
   4 C :   -0.141756
   5 H :   -0.005869
   6 C :    0.043905
   7 H :    0.034172
   8 H :    0.023717
   9 C :   -0.092851
  10 H :    0.026337
  11 H :    0.040803
  12 C :   -0.047573
  13 H :    0.032889
  14 H :    0.031949
  15 H :    0.035921
  16 S :    0.094472
  17 C :   -0.110689
  18 C :   -0.052893
  19 C :   -0.012868
  20 C :   -0.164534
  21 H :    0.043017
  22 C :    0.071497
  23 H :    0.025396
  24 H :    0.024481
  25 C :   -0.035626
  26 H :   -0.005303
  27 H :    0.023300
  28 C :   -0.022044
  29 H :    0.020899
  30 H :    0.021168
  31 H :    0.023134
  32 H :    0.070517
  33 H :    0.072880
Sum of atomic charges:   -0.0000000

LOEWDIN ATOMIC CHARGES
----------------------
   0 S :    0.384177
   1 C :   -0.202007
   2 C :   -0.066562
   3 C :   -0.056272
   4 C :   -0.175632
   5 H :    0.024249
   6 C :   -0.029990
   7 H :    0.036282
   8 H :    0.025491
   9 C :   -0.048236
  10 H :    0.022904
  11 H :    0.029902
  12 C :   -0.069041
  13 H :    0.025113
  14 H :    0.021771
  15 H :    0.031041
  16 S :    0.394404
  17 C :   -0.182331
  18 C :   -0.081847
  19 C :   -0.051227
  20 C :   -0.200593
  21 H :    0.042677
  22 C :   -0.025530
  23 H :    0.030723
  24 H :    0.030792
  25 C :   -0.034975
  26 H :    0.010737
  27 H :    0.025708
  28 C :   -0.062896
  29 H :    0.019979
  30 H :    0.027249
  31 H :    0.023356
  32 H :    0.042975
  33 H :    0.037608

  Mayer bond orders larger than 0.100000
B(  0-S ,  1-C ) :   1.1220 B(  0-S ,  4-C ) :   1.1409 B(  1-C ,  2-C ) :   1.6326
B(  1-C , 32-H ) :   0.9567 B(  2-C ,  3-C ) :   1.2396 B(  2-C ,  6-C ) :   1.0253
B(  3-C ,  4-C ) :   1.5833 B(  3-C ,  5-H ) :   1.0054 B(  4-C , 20-C ) :   1.0432
B(  6-C ,  7-H ) :   0.9371 B(  6-C ,  8-H ) :   0.9448 B(  6-C ,  9-C ) :   1.0639
B(  9-C , 10-H ) :   0.9569 B(  9-C , 11-H ) :   0.9578 B(  9-C , 12-C ) :   1.0632
B( 12-C , 13-H ) :   0.9780 B( 12-C , 14-H ) :   0.9752 B( 12-C , 15-H ) :   0.9766
B( 16-S , 17-C ) :   1.1634 B( 16-S , 20-C ) :   1.1334 B( 17-C , 18-C ) :   1.6063
B( 17-C , 20-C ) :   0.1055 B( 17-C , 33-H ) :   0.9605 B( 18-C , 19-C ) :   1.2619
B( 18-C , 21-H ) :   0.9791 B( 19-C , 20-C ) :   1.5714 B( 19-C , 22-C ) :   1.0480
B( 22-C , 23-H ) :   0.9393 B( 22-C , 24-H ) :   0.9246 B( 22-C , 25-C ) :   1.0683
B( 25-C , 26-H ) :   0.9473 B( 25-C , 27-H ) :   0.9538 B( 25-C , 28-C ) :   1.0874
B( 28-C , 29-H ) :   0.9740 B( 28-C , 30-H ) :   0.9710 B( 28-C , 31-H ) :   0.9745

Dispersion correction           -0.014133008
FINAL SINGLE POINT ENERGY     -1339.877417118227

DIPOLE MOMENT
-------------
                                X             Y             Z
Electronic contribution:    -11.96588      -4.42380     -30.28484
Nuclear contribution   :     12.26412       4.73310      30.89257
                        -----------------------------------------
Total Dipole Moment    :      0.29825       0.30930       0.60774
                        -----------------------------------------
Magnitude (a.u.)       :      0.74428
Magnitude (Debye)      :      1.89182

Rotational constants in cm-1:     0.018067     0.009034     0.006411
Rotational constants in MHz :   541.629691   270.817760   192.195277

                             ****ORCA TERMINATED NORMALLY****
TOTAL RUN TIME: 0 days 0 hours 0 minutes 32 seconds 67 msec
