                         Program Version 4.2.1 -  RELEASE  -
|  1> ! wB97X-D3 SP def2-SVP
|  2> %pal
|  3> nprocs 16
|  4> end
|  5>
|  6> * xyz 0 1
|  7> S 	 36.971 	 23.4591 	 84.2876
|  8> C 	 35.6247 	 24.1032 	 85.2227
|  9> C 	 36.1269 	 25.0207 	 86.1666
| 10> C 	 37.5532 	 25.0886 	 86.2103
| 11> C 	 38.1278 	 24.3268 	 85.2315
| 12> H 	 38.1374 	 25.6839 	 86.8725
| 13> C 	 35.2497 	 25.6587 	 87.2201
| 14> H 	 35.3643 	 25.0795 	 88.1007
| 15> H 	 34.1866 	 25.7281 	 86.9025
| 16> C 	 35.6219 	 27.1864 	 87.4616
| 17> H 	 36.677 	 27.1222 	 87.8329
| 18> H 	 35.7216 	 27.6516 	 86.4851
| 19> C 	 34.6115 	 27.8472 	 88.4117
| 20> H 	 34.6315 	 27.2633 	 89.3693
| 21> H 	 35.0031 	 28.8436 	 88.7426
| 22> H 	 33.6385 	 27.8811 	 87.9526
| 23> S 	 40.2559 	 22.6713 	 85.4486
| 24> C 	 41.8723 	 23.1793 	 84.9147
| 25> C 	 41.7806 	 24.4253 	 84.3236
| 26> C 	 40.5138 	 25.0246 	 84.4133
| 27> C 	 39.5747 	 24.1438 	 84.9314
| 28> H 	 42.6918 	 24.9466 	 83.9627
| 29> C 	 40.2607 	 26.4041 	 83.7846
| 30> H 	 39.6217 	 26.214 	 82.9014
| 31> H 	 41.2701 	 26.7234 	 83.4764
| 32> C 	 39.6197 	 27.553 	 84.6924
| 33> H 	 38.602 	 27.2762 	 85.0926
| 34> H 	 39.5405 	 28.4567 	 84.0296
| 35> C 	 40.5251 	 27.9656 	 85.9475
| 36> H 	 40.0692 	 28.7554 	 86.5992
| 37> H 	 41.5448 	 28.3054 	 85.7066
| 38> H 	 40.4743 	 27.0767 	 86.5771
| 39> H 	 34.5382 	 23.9331 	 85.0796
| 40> H 	 42.7951 	 22.6584 	 85.1161
| 41> *
| 42>
| 43>                          ****END OF INPUT****

CARTESIAN COORDINATES (ANGSTROEM)
---------------------------------
  S     36.971000   23.459100   84.287600
  C     35.624700   24.103200   85.222700
  C     36.126900   25.020700   86.166600
  C     37.553200   25.088600   86.210300
  C     38.127800   24.326800   85.231500
  H     38.137400   25.683900   86.872500
  C     35.249700   25.658700   87.220100
  H     35.364300   25.079500   88.100700
  H     34.186600   25.728100   86.902500
  C     35.621900   27.186400   87.461600
  H     36.677000   27.122200   87.832900
  H     35.721600   27.651600   86.485100
  C     34.611500   27.847200   88.411700
  H     34.631500   27.263300   89.369300
  H     35.003100   28.843600   88.742600
  H     33.638500   27.881100   87.952600
  S     40.255900   22.671300   85.448600
  C     41.872300   23.179300   84.914700
  C     41.780600   24.425300   84.323600
  C     40.513800   25.024600   84.413300
  C     39.574700   24.143800   84.931400
  H     42.691800   24.946600   83.962700
  C     40.260700   26.404100   83.784600
  H     39.621700   26.214000   82.901400
  H     41.270100   26.723400   83.476400
  C     39.619700   27.553000   84.692400
  H     38.602000   27.276200   85.092600
  H     39.540500   28.456700   84.029600
  C     40.525100   27.965600   85.947500
  H     40.069200   28.755400   86.599200
  H     41.544800   28.305400   85.706600
  H     40.474300   27.076700   86.577100
  H     34.538200   23.933100   85.079600
  H     42.795100   22.658400   85.116100

 Total Charge           Charge          ....    0
 Multiplicity           Mult            ....    1
 Number of Electrons    NEL             ....  134
 Basis Dimension        Dim             ....  322

ORBITAL ENERGIES
----------------

  NO   OCC          E(Eh)            E(eV)
   0   2.0000     -88.967379     -2420.9255
   1   2.0000     -88.966651     -2420.9056
   2   2.0000     -10.328766      -281.0600
   3   2.0000     -10.323330      -280.9121
   4   2.0000     -10.317632      -280.7571
   5   2.0000     -10.317347      -280.7493
   6   2.0000     -10.302193      -280.3369
   7   2.0000     -10.300624      -280.2942
   8   2.0000     -10.300497      -280.2908
   9   2.0000     -10.300443      -280.2893
  10   2.0000     -10.293952      -280.1127
  11   2.0000     -10.292899      -280.0840
  12   2.0000     -10.291672      -280.0506
  13   2.0000     -10.291122      -280.0357
  14   2.0000     -10.287805      -279.9454
  15   2.0000     -10.284315      -279.8504
  16   2.0000      -8.082078      -219.9245
  17   2.0000      -8.081712      -219.9146
  18   2.0000      -6.040621      -164.3737
  19   2.0000      -6.040171      -164.3614
  20   2.0000      -6.036407      -164.2590
  21   2.0000      -6.035981      -164.2474
  22   2.0000      -6.032998      -164.1662
  23   2.0000      -6.032700      -164.1581
  24   2.0000      -1.009898       -27.4807
  25   2.0000      -0.986064       -26.8322
  26   2.0000      -0.907887       -24.7049
  27   2.0000      -0.893283       -24.3075
  28   2.0000      -0.866421       -23.5765
  29   2.0000      -0.847748       -23.0684
  30   2.0000      -0.841750       -22.9052
  31   2.0000      -0.815603       -22.1937
  32   2.0000      -0.777249       -21.1500
  33   2.0000      -0.767029       -20.8719
  34   2.0000      -0.707506       -19.2522
  35   2.0000      -0.695228       -18.9181
  36   2.0000      -0.681733       -18.5509
  37   2.0000      -0.661958       -18.0128
  38   2.0000      -0.642778       -17.4909
  39   2.0000      -0.621132       -16.9019
  40   2.0000      -0.584735       -15.9115
  41   2.0000      -0.571036       -15.5387
  42   2.0000      -0.561864       -15.2891
  43   2.0000      -0.549698       -14.9580
  44   2.0000      -0.537010       -14.6128
  45   2.0000      -0.517794       -14.0899
  46   2.0000      -0.515209       -14.0195
  47   2.0000      -0.510164       -13.8823
  48   2.0000      -0.500797       -13.6274
  49   2.0000      -0.496447       -13.5090
  50   2.0000      -0.485971       -13.2239
  51   2.0000      -0.477707       -12.9991
  52   2.0000      -0.473767       -12.8919
  53   2.0000      -0.466803       -12.7024
  54   2.0000      -0.463088       -12.6013
  55   2.0000      -0.452838       -12.3224
  56   2.0000      -0.442789       -12.0489
  57   2.0000      -0.434965       -11.8360
  58   2.0000      -0.432231       -11.7616
  59   2.0000      -0.426917       -11.6170
  60   2.0000      -0.421334       -11.4651
  61   2.0000      -0.411018       -11.1844
  62   2.0000      -0.404241       -11.0000
  63   2.0000      -0.343006        -9.3337
  64   2.0000      -0.330599        -8.9961
  65   2.0000      -0.324101        -8.8192
  66   2.0000      -0.303143        -8.2489
  67   0.0000       0.042470         1.1557
  68   0.0000       0.057309         1.5594
  69   0.0000       0.118157         3.2152
  70   0.0000       0.124558         3.3894
  71   0.0000       0.125775         3.4225

MULLIKEN ATOMIC CHARGES
-----------------------
   0 S :    0.119642
   1 C :   -0.129182
   2 C :   -0.097337
   3 C :    0.069889
   4 C :   -0.172213
   5 H :    0.002449
   6 C :    0.042719
   7 H :    0.043346
   8 H :    0.021865
   9 C :   -0.141706
  10 H :    0.031521
  11 H :    0.039595
  12 C :   -0.027050
  13 H :    0.034682
  14 H :    0.041223
  15 H :    0.044844
  16 S :    0.122960
  17 C :   -0.100695
  18 C :   -0.049369
  19 C :   -0.028813
  20 C :   -0.186108
  21 H :    0.031947
  22 C :    0.075435
  23 H :    0.058078
  24 H :    0.015275
  25 C :   -0.107511
  26 H :    0.053718
  27 H :    0.041088
  28 C :   -0.087536
  29 H :    0.038951
  30 H :    0.042108
  31 H :    0.038100
  32 H :    0.061103
  33 H :    0.056984
Sum of atomic charges:   -0.0000000

LOEWDIN ATOMIC CHARGES
----------------------
   0 S :    0.417678
   1 C :   -0.209376
   2 C :   -0.062784
   3 C :   -0.062542
   4 C :   -0.198431
   5 H :    0.026707
   6 C :   -0.030018
   7 H :    0.027695
   8 H :    0.028877
   9 C :   -0.046890
  10 H :    0.021580
  11 H :    0.021975
  12 C :   -0.067167
  13 H :    0.032813
  14 H :    0.032581
  15 H :    0.025495
  16 S :    0.427500
  17 C :   -0.182764
  18 C :   -0.075382
  19 C :   -0.066766
  20 C :   -0.221697
  21 H :    0.037112
  22 C :   -0.027155
  23 H :    0.041553
  24 H :    0.029175
  25 C :   -0.043037
  26 H :    0.028768
  27 H :    0.026349
  28 C :   -0.077372
  29 H :    0.029935
  30 H :    0.024890
  31 H :    0.022916
  32 H :    0.038146
  33 H :    0.029637

  Mayer bond orders larger than 0.100000
B(  0-S ,  1-C ) :   1.1325 B(  0-S ,  4-C ) :   1.1828 B(  1-C ,  2-C ) :   1.6028
B(  1-C , 32-H ) :   0.9665 B(  2-C ,  3-C ) :   1.2284 B(  2-C ,  6-C ) :   1.0298
B(  3-C ,  4-C ) :   1.5879 B(  3-C ,  5-H ) :   0.9962 B(  4-C , 20-C ) :   0.9677
B(  6-C ,  7-H ) :   0.9440 B(  6-C ,  8-H ) :   0.9481 B(  6-C ,  9-C ) :   1.0432
B(  9-C , 10-H ) :   0.9541 B(  9-C , 11-H ) :   0.9630 B(  9-C , 12-C ) :   1.0798
B( 12-C , 13-H ) :   0.9714 B( 12-C , 14-H ) :   0.9724 B( 12-C , 15-H ) :   0.9741
B( 16-S , 17-C ) :   1.1572 B( 16-S , 20-C ) :   1.1836 B( 17-C , 18-C ) :   1.5902
B( 17-C , 20-C ) :   0.1062 B( 17-C , 33-H ) :   0.9709 B( 18-C , 19-C ) :   1.2794
B( 18-C , 21-H ) :   0.9751 B( 19-C , 20-C ) :   1.5742 B( 19-C , 22-C ) :   1.0197
B( 22-C , 23-H ) :   0.9405 B( 22-C , 24-H ) :   0.9371 B( 22-C , 25-C ) :   1.0576
B( 25-C , 26-H ) :   0.9546 B( 25-C , 27-H ) :   0.9586 B( 25-C , 28-C ) :   1.0576
B( 28-C , 29-H ) :   0.9771 B( 28-C , 30-H ) :   0.9771 B( 28-C , 31-H ) :   0.9763

Dispersion correction           -0.015281841
FINAL SINGLE POINT ENERGY     -1339.884927816777

DIPOLE MOMENT
-------------
                                X             Y             Z
Electronic contribution:      6.32757     -27.27022     -11.21644
Nuclear contribution   :     -6.32357      27.81467      11.47073
                        -----------------------------------------
Total Dipole Moment    :      0.00400       0.54444       0.25429
                        -----------------------------------------
Magnitude (a.u.)       :      0.60091
Magnitude (Debye)      :      1.52740

Rotational constants in cm-1:     0.019182     0.009161     0.007152
Rotational constants in MHz :   575.067920   274.652801   214.420961

                             ****ORCA TERMINATED NORMALLY****
TOTAL RUN TIME: 0 days 0 hours 0 minutes 30 seconds 188 msec
