                         Program Version 4.2.1 -  RELEASE  -
|  1> ! wB97X-D3 SP def2-SVP
|  2> %pal
|  3> nprocs 16
|  4> end
|  5>
|  6> * xyz 0 1
|  7> S 	 40.477 	 9.95705 	 83.2474
|  8> C 	 41.4126 	 9.00332 	 82.0546
|  9> C 	 41.9784 	 9.90031 	 81.1055
| 10> C 	 41.5875 	 11.2038 	 81.3947
| 11> C 	 41.113 	 11.4194 	 82.6442
| 12> H 	 41.792 	 12.0572 	 80.7658
| 13> C 	 42.6441 	 9.54245 	 79.8247
| 14> H 	 43.5626 	 9.00543 	 80.0432
| 15> H 	 43.0763 	 10.4535 	 79.2988
| 16> C 	 41.7486 	 8.63179 	 78.9155
| 17> H 	 41.3769 	 7.77469 	 79.5131
| 18> H 	 40.7111 	 9.05225 	 78.7592
| 19> C 	 42.4561 	 8.19953 	 77.6192
| 20> H 	 41.6934 	 7.79267 	 76.9393
| 21> H 	 42.8493 	 9.04157 	 77.1052
| 22> H 	 43.207 	 7.51248 	 77.756
| 23> S 	 39.3056 	 12.9619 	 84.058
| 24> C 	 39.8855 	 14.5955 	 84.5324
| 25> C 	 41.1933 	 14.8558 	 84.1427
| 26> C 	 41.6777 	 13.8305 	 83.2843
| 27> C 	 40.8614 	 12.7167 	 83.2459
| 28> H 	 41.623 	 15.8621 	 84.3558
| 29> C 	 43.0459 	 13.9916 	 82.7161
| 30> H 	 43.1589 	 15.0454 	 82.4494
| 31> H 	 43.1143 	 13.4607 	 81.76
| 32> C 	 44.2299 	 13.4891 	 83.5466
| 33> H 	 44.1702 	 12.4135 	 83.5842
| 34> H 	 44.1642 	 13.908 	 84.5603
| 35> C 	 45.5076 	 14.026 	 82.9941
| 36> H 	 46.4003 	 13.9436 	 83.7379
| 37> H 	 45.3822 	 15.0989 	 82.9585
| 38> H 	 45.6988 	 13.5016 	 81.9992
| 39> H 	 41.2798 	 7.92619 	 81.8056
| 40> H 	 39.1952 	 15.3039 	 85.0456
| 41> *
| 42>
| 43>                          ****END OF INPUT****

CARTESIAN COORDINATES (ANGSTROEM)
---------------------------------
  S     40.477000    9.957050   83.247400
  C     41.412600    9.003320   82.054600
  C     41.978400    9.900310   81.105500
  C     41.587500   11.203800   81.394700
  C     41.113000   11.419400   82.644200
  H     41.792000   12.057200   80.765800
  C     42.644100    9.542450   79.824700
  H     43.562600    9.005430   80.043200
  H     43.076300   10.453500   79.298800
  C     41.748600    8.631790   78.915500
  H     41.376900    7.774690   79.513100
  H     40.711100    9.052250   78.759200
  C     42.456100    8.199530   77.619200
  H     41.693400    7.792670   76.939300
  H     42.849300    9.041570   77.105200
  H     43.207000    7.512480   77.756000
  S     39.305600   12.961900   84.058000
  C     39.885500   14.595500   84.532400
  C     41.193300   14.855800   84.142700
  C     41.677700   13.830500   83.284300
  C     40.861400   12.716700   83.245900
  H     41.623000   15.862100   84.355800
  C     43.045900   13.991600   82.716100
  H     43.158900   15.045400   82.449400
  H     43.114300   13.460700   81.760000
  C     44.229900   13.489100   83.546600
  H     44.170200   12.413500   83.584200
  H     44.164200   13.908000   84.560300
  C     45.507600   14.026000   82.994100
  H     46.400300   13.943600   83.737900
  H     45.382200   15.098900   82.958500
  H     45.698800   13.501600   81.999200
  H     41.279800    7.926190   81.805600
  H     39.195200   15.303900   85.045600

 Total Charge           Charge          ....    0
 Multiplicity           Mult            ....    1
 Number of Electrons    NEL             ....  134
 Basis Dimension        Dim             ....  322

ORBITAL ENERGIES
----------------

  NO   OCC          E(Eh)            E(eV)
   0   2.0000     -88.968671     -2420.9606
   1   2.0000     -88.966167     -2420.8925
   2   2.0000     -10.328336      -281.0483
   3   2.0000     -10.326573      -281.0003
   4   2.0000     -10.321705      -280.8679
   5   2.0000     -10.318558      -280.7822
   6   2.0000     -10.303155      -280.3631
   7   2.0000     -10.300884      -280.3013
   8   2.0000     -10.300127      -280.2807
   9   2.0000     -10.297683      -280.2142
  10   2.0000     -10.296174      -280.1731
  11   2.0000     -10.287624      -279.9405
  12   2.0000     -10.286465      -279.9089
  13   2.0000     -10.282295      -279.7955
  14   2.0000     -10.280286      -279.7408
  15   2.0000     -10.273283      -279.5502
  16   2.0000      -8.082467      -219.9351
  17   2.0000      -8.080873      -219.8917
  18   2.0000      -6.040951      -164.3826
  19   2.0000      -6.039378      -164.3398
  20   2.0000      -6.037306      -164.2835
  21   2.0000      -6.035532      -164.2352
  22   2.0000      -6.033116      -164.1694
  23   2.0000      -6.031484      -164.1250
  24   2.0000      -1.011175       -27.5155
  25   2.0000      -0.983810       -26.7708
  26   2.0000      -0.915833       -24.9211
  27   2.0000      -0.910404       -24.7734
  28   2.0000      -0.866981       -23.5917
  29   2.0000      -0.856525       -23.3072
  30   2.0000      -0.848590       -23.0913
  31   2.0000      -0.812803       -22.1175
  32   2.0000      -0.782260       -21.2864
  33   2.0000      -0.767133       -20.8747
  34   2.0000      -0.711964       -19.3735
  35   2.0000      -0.700380       -19.0583
  36   2.0000      -0.687304       -18.7025
  37   2.0000      -0.663871       -18.0648
  38   2.0000      -0.636451       -17.3187
  39   2.0000      -0.621642       -16.9157
  40   2.0000      -0.597830       -16.2678
  41   2.0000      -0.573185       -15.5972
  42   2.0000      -0.566492       -15.4150
  43   2.0000      -0.550564       -14.9816
  44   2.0000      -0.528228       -14.3738
  45   2.0000      -0.523405       -14.2426
  46   2.0000      -0.518988       -14.1224
  47   2.0000      -0.516067       -14.0429
  48   2.0000      -0.504262       -13.7217
  49   2.0000      -0.496575       -13.5125
  50   2.0000      -0.490993       -13.3606
  51   2.0000      -0.476731       -12.9725
  52   2.0000      -0.467608       -12.7243
  53   2.0000      -0.465372       -12.6634
  54   2.0000      -0.457368       -12.4456
  55   2.0000      -0.452460       -12.3121
  56   2.0000      -0.450366       -12.2551
  57   2.0000      -0.440811       -11.9951
  58   2.0000      -0.433501       -11.7962
  59   2.0000      -0.425365       -11.5748
  60   2.0000      -0.421818       -11.4782
  61   2.0000      -0.413812       -11.2604
  62   2.0000      -0.408133       -11.1059
  63   2.0000      -0.347169        -9.4469
  64   2.0000      -0.335614        -9.1325
  65   2.0000      -0.327369        -8.9082
  66   2.0000      -0.283091        -7.7033
  67   0.0000       0.019988         0.5439
  68   0.0000       0.066626         1.8130
  69   0.0000       0.093975         2.5572
  70   0.0000       0.119266         3.2454
  71   0.0000       0.127078         3.4580

MULLIKEN ATOMIC CHARGES
-----------------------
   0 S :    0.102290
   1 C :   -0.135480
   2 C :   -0.084868
   3 C :   -0.003972
   4 C :   -0.127669
   5 H :    0.017337
   6 C :    0.061514
   7 H :    0.029498
   8 H :    0.028444
   9 C :   -0.121393
  10 H :    0.018661
  11 H :    0.034984
  12 C :    0.015525
  13 H :    0.032772
  14 H :    0.020954
  15 H :    0.021386
  16 S :    0.096137
  17 C :   -0.117838
  18 C :   -0.034152
  19 C :   -0.036778
  20 C :   -0.131232
  21 H :    0.040707
  22 C :    0.047418
  23 H :    0.013933
  24 H :    0.003093
  25 C :   -0.038887
  26 H :    0.038848
  27 H :    0.020169
  28 C :   -0.071618
  29 H :    0.046575
  30 H :    0.024404
  31 H :    0.047964
  32 H :    0.068450
  33 H :    0.072822
Sum of atomic charges:    0.0000000

LOEWDIN ATOMIC CHARGES
----------------------
   0 S :    0.410139
   1 C :   -0.207216
   2 C :   -0.059474
   3 C :   -0.070774
   4 C :   -0.203061
   5 H :    0.027320
   6 C :   -0.039713
   7 H :    0.033827
   8 H :    0.035176
   9 C :   -0.046387
  10 H :    0.023062
  11 H :    0.030966
  12 C :   -0.056242
  13 H :    0.033697
  14 H :    0.022662
  15 H :    0.014814
  16 S :    0.372058
  17 C :   -0.168181
  18 C :   -0.070820
  19 C :   -0.055445
  20 C :   -0.185300
  21 H :    0.043327
  22 C :   -0.035611
  23 H :    0.028477
  24 H :    0.026260
  25 C :   -0.039272
  26 H :    0.025464
  27 H :    0.024053
  28 C :   -0.073325
  29 H :    0.036109
  30 H :    0.021684
  31 H :    0.033021
  32 H :    0.034908
  33 H :    0.033798

  Mayer bond orders larger than 0.100000
B(  0-S ,  1-C ) :   1.1365 B(  0-S ,  4-C ) :   1.1595 B(  1-C ,  2-C ) :   1.5517
B(  1-C ,  4-C ) :   0.1125 B(  1-C , 32-H ) :   0.9640 B(  2-C ,  3-C ) :   1.2964
B(  2-C ,  6-C ) :   1.0330 B(  3-C ,  4-C ) :   1.5319 B(  3-C ,  5-H ) :   0.9878
B(  4-C , 20-C ) :   1.0661 B(  6-C ,  7-H ) :   0.9298 B(  6-C ,  8-H ) :   0.9450
B(  6-C ,  9-C ) :   1.0456 B(  9-C , 10-H ) :   0.9528 B(  9-C , 11-H ) :   0.9593
B(  9-C , 12-C ) :   1.0736 B( 12-C , 13-H ) :   0.9716 B( 12-C , 14-H ) :   0.9738
B( 12-C , 15-H ) :   0.9758 B( 16-S , 17-C ) :   1.1413 B( 16-S , 20-C ) :   1.1207
B( 17-C , 18-C ) :   1.6271 B( 17-C , 33-H ) :   0.9625 B( 18-C , 19-C ) :   1.2189
B( 18-C , 21-H ) :   0.9817 B( 19-C , 20-C ) :   1.6134 B( 19-C , 22-C ) :   1.0640
B( 22-C , 23-H ) :   0.9279 B( 22-C , 24-H ) :   0.9193 B( 22-C , 25-C ) :   1.0679
B( 25-C , 26-H ) :   0.9527 B( 25-C , 27-H ) :   0.9520 B( 25-C , 28-C ) :   1.0819
B( 28-C , 29-H ) :   0.9726 B( 28-C , 30-H ) :   0.9719 B( 28-C , 31-H ) :   0.9720

Dispersion correction           -0.013920553
FINAL SINGLE POINT ENERGY     -1339.856665186586

DIPOLE MOMENT
-------------
                                X             Y             Z
Electronic contribution:    -22.07129       1.80040      18.54311
Nuclear contribution   :     22.44933      -1.50473     -19.03961
                        -----------------------------------------
Total Dipole Moment    :      0.37803       0.29567      -0.49650
                        -----------------------------------------
Magnitude (a.u.)       :      0.69054
Magnitude (Debye)      :      1.75521

Rotational constants in cm-1:     0.018772     0.008285     0.006406
Rotational constants in MHz :   562.776031   248.375140   192.051659

                             ****ORCA TERMINATED NORMALLY****
TOTAL RUN TIME: 0 days 0 hours 0 minutes 28 seconds 28 msec
