                         Program Version 4.2.1 -  RELEASE  -
|  1> ! wB97X-D3 SP def2-SVP
|  2> %pal
|  3> nprocs 16
|  4> end
|  5>
|  6> * xyz 0 1
|  7> S 	 -14.012 	 -4.97751 	 84.9335
|  8> C 	 -13.5929 	 -5.2846 	 86.643
|  9> C 	 -14.5921 	 -6.07407 	 87.2391
| 10> C 	 -15.5447 	 -6.5258 	 86.3295
| 11> C 	 -15.4885 	 -5.92449 	 85.0751
| 12> H 	 -16.3623 	 -7.18666 	 86.5611
| 13> C 	 -14.4873 	 -6.57977 	 88.6392
| 14> H 	 -15.2422 	 -6.21426 	 89.2694
| 15> H 	 -13.7578 	 -6.09305 	 89.214
| 16> C 	 -14.158 	 -8.09485 	 88.817
| 17> H 	 -13.8006 	 -8.22102 	 89.8046
| 18> H 	 -15.1415 	 -8.61472 	 88.6407
| 19> C 	 -13.1333 	 -8.65847 	 87.8813
| 20> H 	 -12.5978 	 -9.53166 	 88.3384
| 21> H 	 -13.449 	 -9.07457 	 86.9559
| 22> H 	 -12.4432 	 -7.83447 	 87.5517
| 23> S 	 -17.5857 	 -5.17115 	 83.3491
| 24> C 	 -18.051 	 -6.232 	 82.0207
| 25> C 	 -17.3967 	 -7.44787 	 82.1914
| 26> C 	 -16.461 	 -7.51833 	 83.2795
| 27> C 	 -16.2649 	 -6.28871 	 83.8585
| 28> H 	 -17.5323 	 -8.20452 	 81.4025
| 29> C 	 -15.6193 	 -8.74562 	 83.618
| 30> H 	 -16.2526 	 -9.68643 	 83.6594
| 31> H 	 -15.2033 	 -8.58975 	 84.6205
| 32> C 	 -14.4941 	 -9.01454 	 82.6257
| 33> H 	 -14.167 	 -8.06571 	 82.3621
| 34> H 	 -14.886 	 -9.43639 	 81.7316
| 35> C 	 -13.338 	 -9.98437 	 83.1169
| 36> H 	 -12.6235 	 -9.51922 	 83.7943
| 37> H 	 -12.8203 	 -10.465 	 82.2061
| 38> H 	 -13.6679 	 -10.9154 	 83.68
| 39> H 	 -12.8432 	 -4.77105 	 87.1353
| 40> H 	 -18.6218 	 -5.9517 	 81.1531
| 41> *
| 42>
| 43>                          ****END OF INPUT****

CARTESIAN COORDINATES (ANGSTROEM)
---------------------------------
  S    -14.012000   -4.977510   84.933500
  C    -13.592900   -5.284600   86.643000
  C    -14.592100   -6.074070   87.239100
  C    -15.544700   -6.525800   86.329500
  C    -15.488500   -5.924490   85.075100
  H    -16.362300   -7.186660   86.561100
  C    -14.487300   -6.579770   88.639200
  H    -15.242200   -6.214260   89.269400
  H    -13.757800   -6.093050   89.214000
  C    -14.158000   -8.094850   88.817000
  H    -13.800600   -8.221020   89.804600
  H    -15.141500   -8.614720   88.640700
  C    -13.133300   -8.658470   87.881300
  H    -12.597800   -9.531660   88.338400
  H    -13.449000   -9.074570   86.955900
  H    -12.443200   -7.834470   87.551700
  S    -17.585700   -5.171150   83.349100
  C    -18.051000   -6.232000   82.020700
  C    -17.396700   -7.447870   82.191400
  C    -16.461000   -7.518330   83.279500
  C    -16.264900   -6.288710   83.858500
  H    -17.532300   -8.204520   81.402500
  C    -15.619300   -8.745620   83.618000
  H    -16.252600   -9.686430   83.659400
  H    -15.203300   -8.589750   84.620500
  C    -14.494100   -9.014540   82.625700
  H    -14.167000   -8.065710   82.362100
  H    -14.886000   -9.436390   81.731600
  C    -13.338000   -9.984370   83.116900
  H    -12.623500   -9.519220   83.794300
  H    -12.820300  -10.465000   82.206100
  H    -13.667900  -10.915400   83.680000
  H    -12.843200   -4.771050   87.135300
  H    -18.621800   -5.951700   81.153100

 Total Charge           Charge          ....    0
 Multiplicity           Mult            ....    1
 Number of Electrons    NEL             ....  134
 Basis Dimension        Dim             ....  322

ORBITAL ENERGIES
----------------

  NO   OCC          E(Eh)            E(eV)
   0   2.0000     -88.968821     -2420.9647
   1   2.0000     -88.961438     -2420.7638
   2   2.0000     -10.333610      -281.1918
   3   2.0000     -10.330890      -281.1178
   4   2.0000     -10.321344      -280.8580
   5   2.0000     -10.317939      -280.7654
   6   2.0000     -10.307797      -280.4894
   7   2.0000     -10.303455      -280.3713
   8   2.0000     -10.298630      -280.2400
   9   2.0000     -10.295347      -280.1506
  10   2.0000     -10.294489      -280.1273
  11   2.0000     -10.291226      -280.0385
  12   2.0000     -10.288555      -279.9658
  13   2.0000     -10.282669      -279.8056
  14   2.0000     -10.279988      -279.7327
  15   2.0000     -10.276459      -279.6367
  16   2.0000      -8.082711      -219.9418
  17   2.0000      -8.075483      -219.7451
  18   2.0000      -6.041129      -164.3875
  19   2.0000      -6.037200      -164.2806
  20   2.0000      -6.034174      -164.1982
  21   2.0000      -6.033741      -164.1864
  22   2.0000      -6.030119      -164.0879
  23   2.0000      -6.026039      -163.9769
  24   2.0000      -1.002285       -27.2736
  25   2.0000      -0.981664       -26.7124
  26   2.0000      -0.915020       -24.8990
  27   2.0000      -0.904419       -24.6105
  28   2.0000      -0.865252       -23.5447
  29   2.0000      -0.849236       -23.1089
  30   2.0000      -0.839481       -22.8434
  31   2.0000      -0.815509       -22.1911
  32   2.0000      -0.787142       -21.4192
  33   2.0000      -0.772179       -21.0121
  34   2.0000      -0.707534       -19.2530
  35   2.0000      -0.700400       -19.0589
  36   2.0000      -0.696694       -18.9580
  37   2.0000      -0.657545       -17.8927
  38   2.0000      -0.648365       -17.6429
  39   2.0000      -0.625957       -17.0332
  40   2.0000      -0.593954       -16.1623
  41   2.0000      -0.570489       -15.5238
  42   2.0000      -0.564771       -15.3682
  43   2.0000      -0.556176       -15.1343
  44   2.0000      -0.547791       -14.9062
  45   2.0000      -0.524658       -14.2767
  46   2.0000      -0.512730       -13.9521
  47   2.0000      -0.507261       -13.8033
  48   2.0000      -0.502756       -13.6807
  49   2.0000      -0.494175       -13.4472
  50   2.0000      -0.490988       -13.3605
  51   2.0000      -0.474058       -12.8998
  52   2.0000      -0.469219       -12.7681
  53   2.0000      -0.465594       -12.6695
  54   2.0000      -0.460561       -12.5325
  55   2.0000      -0.449743       -12.2381
  56   2.0000      -0.442388       -12.0380
  57   2.0000      -0.437900       -11.9159
  58   2.0000      -0.431752       -11.7486
  59   2.0000      -0.423815       -11.5326
  60   2.0000      -0.417277       -11.3547
  61   2.0000      -0.415065       -11.2945
  62   2.0000      -0.398711       -10.8495
  63   2.0000      -0.338100        -9.2002
  64   2.0000      -0.330153        -8.9839
  65   2.0000      -0.326145        -8.8749
  66   2.0000      -0.309591        -8.4244
  67   0.0000       0.027901         0.7592
  68   0.0000       0.055026         1.4973
  69   0.0000       0.105667         2.8754
  70   0.0000       0.117341         3.1930
  71   0.0000       0.123726         3.3668

MULLIKEN ATOMIC CHARGES
-----------------------
   0 S :    0.104921
   1 C :   -0.097746
   2 C :   -0.081108
   3 C :    0.037527
   4 C :   -0.161232
   5 H :    0.019361
   6 C :    0.105783
   7 H :    0.012718
   8 H :   -0.018725
   9 C :   -0.067863
  10 H :    0.027654
  11 H :    0.038722
  12 C :   -0.052849
  13 H :    0.039064
  14 H :    0.019929
  15 H :    0.033273
  16 S :    0.086673
  17 C :   -0.089214
  18 C :   -0.044678
  19 C :   -0.033373
  20 C :   -0.160234
  21 H :    0.028968
  22 C :    0.055056
  23 H :    0.035099
  24 H :    0.024841
  25 C :   -0.009075
  26 H :    0.014674
  27 H :    0.014465
  28 C :   -0.104400
  29 H :    0.048207
  30 H :    0.045981
  31 H :    0.033688
  32 H :    0.031009
  33 H :    0.062885
Sum of atomic charges:   -0.0000000

LOEWDIN ATOMIC CHARGES
----------------------
   0 S :    0.400254
   1 C :   -0.171055
   2 C :   -0.059184
   3 C :   -0.055385
   4 C :   -0.195195
   5 H :    0.033657
   6 C :   -0.039113
   7 H :    0.029982
   8 H :    0.023988
   9 C :   -0.035039
  10 H :    0.022756
  11 H :    0.027601
  12 C :   -0.076160
  13 H :    0.034091
  14 H :    0.018666
  15 H :    0.032461
  16 S :    0.373471
  17 C :   -0.175150
  18 C :   -0.074980
  19 C :   -0.053067
  20 C :   -0.188079
  21 H :    0.033305
  22 C :   -0.033059
  23 H :    0.035961
  24 H :    0.029164
  25 C :   -0.031518
  26 H :    0.016524
  27 H :    0.018972
  28 C :   -0.078848
  29 H :    0.024460
  30 H :    0.036700
  31 H :    0.029212
  32 H :    0.012615
  33 H :    0.031993

  Mayer bond orders larger than 0.100000
B(  0-S ,  1-C ) :   1.1546 B(  0-S ,  4-C ) :   1.1649 B(  1-C ,  2-C ) :   1.5591
B(  1-C ,  4-C ) :   0.1133 B(  1-C , 32-H ) :   0.9773 B(  2-C ,  3-C ) :   1.2689
B(  2-C ,  6-C ) :   1.0460 B(  3-C ,  4-C ) :   1.5567 B(  3-C ,  5-H ) :   0.9977
B(  4-C , 20-C ) :   0.9875 B(  6-C ,  7-H ) :   0.9266 B(  6-C ,  8-H ) :   0.9228
B(  6-C ,  9-C ) :   1.0657 B(  9-C , 10-H ) :   0.9596 B(  9-C , 11-H ) :   0.9564
B(  9-C , 12-C ) :   1.0794 B( 12-C , 13-H ) :   0.9722 B( 12-C , 14-H ) :   0.9692
B( 12-C , 15-H ) :   0.9716 B( 16-S , 17-C ) :   1.1468 B( 16-S , 20-C ) :   1.1266
B( 17-C , 18-C ) :   1.6270 B( 17-C , 20-C ) :   0.1028 B( 17-C , 33-H ) :   0.9699
B( 18-C , 19-C ) :   1.2059 B( 18-C , 21-H ) :   0.9862 B( 19-C , 20-C ) :   1.6196
B( 19-C , 22-C ) :   1.0535 B( 22-C , 23-H ) :   0.9304 B( 22-C , 24-H ) :   0.9332
B( 22-C , 25-C ) :   1.0627 B( 25-C , 26-H ) :   0.9560 B( 25-C , 27-H ) :   0.9557
B( 25-C , 28-C ) :   1.0681 B( 28-C , 29-H ) :   0.9781 B( 28-C , 30-H ) :   0.9764
B( 28-C , 31-H ) :   0.9763

Dispersion correction           -0.015673329
FINAL SINGLE POINT ENERGY     -1339.857226865391

DIPOLE MOMENT
-------------
                                X             Y             Z
Electronic contribution:    -12.92978      23.79119      -9.45536
Nuclear contribution   :     13.07996     -24.35573       9.70619
                        -----------------------------------------
Total Dipole Moment    :      0.15019      -0.56454       0.25084
                        -----------------------------------------
Magnitude (a.u.)       :      0.63575
Magnitude (Debye)      :      1.61595

Rotational constants in cm-1:     0.017854     0.009765     0.007630
Rotational constants in MHz :   535.257883   292.753671   228.744042

                             ****ORCA TERMINATED NORMALLY****
TOTAL RUN TIME: 0 days 0 hours 0 minutes 35 seconds 847 msec
