                         Program Version 4.2.1 -  RELEASE  -
|  1> ! wB97X-D3 SP def2-SVP
|  2> %pal
|  3> nprocs 16
|  4> end
|  5>
|  6> * xyz 0 1
|  7> S 	 -45.9741 	 -3.7856 	 96.6098
|  8> C 	 -47.2941 	 -4.88235 	 96.7347
|  9> C 	 -47.8979 	 -4.87293 	 98.0206
| 10> C 	 -47.235 	 -3.87741 	 98.8263
| 11> C 	 -46.2185 	 -3.21245 	 98.2143
| 12> H 	 -47.4669 	 -3.59928 	 99.8112
| 13> C 	 -49.1934 	 -5.58887 	 98.4066
| 14> H 	 -48.8459 	 -6.64608 	 98.5632
| 15> H 	 -49.8564 	 -5.52506 	 97.5802
| 16> C 	 -49.9843 	 -5.15377 	 99.6874
| 17> H 	 -50.7411 	 -5.93189 	 99.9521
| 18> H 	 -49.3469 	 -5.08868 	 100.536
| 19> C 	 -50.8289 	 -3.8753 	 99.4327
| 20> H 	 -50.209 	 -2.9996 	 99.2916
| 21> H 	 -51.4806 	 -3.99109 	 98.5776
| 22> H 	 -51.4475 	 -3.60429 	 100.346
| 23> S 	 -43.9202 	 -2.30904 	 99.5694
| 24> C 	 -43.8172 	 -0.608295 	 99.9102
| 25> C 	 -44.8751 	 0.0792903 	 99.3008
| 26> C 	 -45.6982 	 -0.75972 	 98.5478
| 27> C 	 -45.4345 	 -2.07923 	 98.7539
| 28> H 	 -44.8304 	 1.16548 	 99.3929
| 29> C 	 -46.8209 	 -0.171555 	 97.7395
| 30> H 	 -47.3005 	 0.61925 	 98.315
| 31> H 	 -47.6283 	 -0.934665 	 97.5499
| 32> C 	 -46.2967 	 0.459088 	 96.4576
| 33> H 	 -45.9367 	 -0.350168 	 95.8308
| 34> H 	 -45.5054 	 1.20895 	 96.6686
| 35> C 	 -47.4011 	 1.19542 	 95.7433
| 36> H 	 -47.6181 	 2.16707 	 96.273
| 37> H 	 -48.2037 	 0.471664 	 95.6823
| 38> H 	 -47.0832 	 1.49681 	 94.7622
| 39> H 	 -47.8019 	 -5.32391 	 95.8255
| 40> H 	 -43.1097 	 -0.141395 	 100.567
| 41> *
| 42>
| 43>                          ****END OF INPUT****

CARTESIAN COORDINATES (ANGSTROEM)
---------------------------------
  S    -45.974100   -3.785600   96.609800
  C    -47.294100   -4.882350   96.734700
  C    -47.897900   -4.872930   98.020600
  C    -47.235000   -3.877410   98.826300
  C    -46.218500   -3.212450   98.214300
  H    -47.466900   -3.599280   99.811200
  C    -49.193400   -5.588870   98.406600
  H    -48.845900   -6.646080   98.563200
  H    -49.856400   -5.525060   97.580200
  C    -49.984300   -5.153770   99.687400
  H    -50.741100   -5.931890   99.952100
  H    -49.346900   -5.088680  100.536000
  C    -50.828900   -3.875300   99.432700
  H    -50.209000   -2.999600   99.291600
  H    -51.480600   -3.991090   98.577600
  H    -51.447500   -3.604290  100.346000
  S    -43.920200   -2.309040   99.569400
  C    -43.817200   -0.608295   99.910200
  C    -44.875100    0.079290   99.300800
  C    -45.698200   -0.759720   98.547800
  C    -45.434500   -2.079230   98.753900
  H    -44.830400    1.165480   99.392900
  C    -46.820900   -0.171555   97.739500
  H    -47.300500    0.619250   98.315000
  H    -47.628300   -0.934665   97.549900
  C    -46.296700    0.459088   96.457600
  H    -45.936700   -0.350168   95.830800
  H    -45.505400    1.208950   96.668600
  C    -47.401100    1.195420   95.743300
  H    -47.618100    2.167070   96.273000
  H    -48.203700    0.471664   95.682300
  H    -47.083200    1.496810   94.762200
  H    -47.801900   -5.323910   95.825500
  H    -43.109700   -0.141395  100.567000

 Total Charge           Charge          ....    0
 Multiplicity           Mult            ....    1
 Number of Electrons    NEL             ....  134
 Basis Dimension        Dim             ....  322

ORBITAL ENERGIES
----------------

  NO   OCC          E(Eh)            E(eV)
   0   2.0000     -88.965839     -2420.8836
   1   2.0000     -88.965272     -2420.8681
   2   2.0000     -10.321849      -280.8718
   3   2.0000     -10.319543      -280.8090
   4   2.0000     -10.317056      -280.7414
   5   2.0000     -10.314922      -280.6833
   6   2.0000     -10.307929      -280.4930
   7   2.0000     -10.298175      -280.2276
   8   2.0000     -10.294958      -280.1401
   9   2.0000     -10.293938      -280.1123
  10   2.0000     -10.290594      -280.0213
  11   2.0000     -10.288483      -279.9638
  12   2.0000     -10.287760      -279.9442
  13   2.0000     -10.282101      -279.7902
  14   2.0000     -10.279891      -279.7300
  15   2.0000     -10.274159      -279.5741
  16   2.0000      -8.081261      -219.9023
  17   2.0000      -8.080383      -219.8784
  18   2.0000      -6.039580      -164.3453
  19   2.0000      -6.038727      -164.3221
  20   2.0000      -6.035526      -164.2350
  21   2.0000      -6.034883      -164.2175
  22   2.0000      -6.032345      -164.1485
  23   2.0000      -6.031266      -164.1191
  24   2.0000      -1.010659       -27.5014
  25   2.0000      -0.988389       -26.8954
  26   2.0000      -0.914240       -24.8777
  27   2.0000      -0.906526       -24.6678
  28   2.0000      -0.865234       -23.5442
  29   2.0000      -0.854223       -23.2446
  30   2.0000      -0.846389       -23.0314
  31   2.0000      -0.814627       -22.1671
  32   2.0000      -0.780580       -21.2407
  33   2.0000      -0.768350       -20.9079
  34   2.0000      -0.708420       -19.2771
  35   2.0000      -0.688507       -18.7352
  36   2.0000      -0.686691       -18.6858
  37   2.0000      -0.659680       -17.9508
  38   2.0000      -0.643150       -17.5010
  39   2.0000      -0.621665       -16.9164
  40   2.0000      -0.598508       -16.2862
  41   2.0000      -0.571501       -15.5513
  42   2.0000      -0.566582       -15.4175
  43   2.0000      -0.549638       -14.9564
  44   2.0000      -0.536789       -14.6068
  45   2.0000      -0.526868       -14.3368
  46   2.0000      -0.516137       -14.0448
  47   2.0000      -0.514268       -13.9939
  48   2.0000      -0.507353       -13.8058
  49   2.0000      -0.493595       -13.4314
  50   2.0000      -0.484918       -13.1953
  51   2.0000      -0.479169       -13.0389
  52   2.0000      -0.467837       -12.7305
  53   2.0000      -0.464052       -12.6275
  54   2.0000      -0.458546       -12.4777
  55   2.0000      -0.447581       -12.1793
  56   2.0000      -0.444276       -12.0894
  57   2.0000      -0.441981       -12.0269
  58   2.0000      -0.428057       -11.6480
  59   2.0000      -0.423836       -11.5332
  60   2.0000      -0.422165       -11.4877
  61   2.0000      -0.418454       -11.3867
  62   2.0000      -0.416239       -11.3264
  63   2.0000      -0.336635        -9.1603
  64   2.0000      -0.329652        -8.9703
  65   2.0000      -0.315552        -8.5866
  66   2.0000      -0.311286        -8.4705
  67   0.0000       0.045481         1.2376
  68   0.0000       0.057638         1.5684
  69   0.0000       0.122066         3.3216
  70   0.0000       0.125181         3.4064
  71   0.0000       0.130127         3.5409

MULLIKEN ATOMIC CHARGES
-----------------------
   0 S :    0.131925
   1 C :   -0.160978
   2 C :   -0.084596
   3 C :    0.060543
   4 C :   -0.197042
   5 H :   -0.014126
   6 C :    0.052429
   7 H :    0.054779
   8 H :    0.023689
   9 C :   -0.071165
  10 H :    0.038001
  11 H :    0.029084
  12 C :   -0.072225
  13 H :    0.032791
  14 H :    0.034043
  15 H :    0.041570
  16 S :    0.123791
  17 C :   -0.101566
  18 C :   -0.044957
  19 C :    0.015222
  20 C :   -0.184982
  21 H :    0.023284
  22 C :    0.056744
  23 H :    0.015744
  24 H :    0.040035
  25 C :   -0.098154
  26 H :    0.026706
  27 H :    0.032121
  28 C :   -0.015016
  29 H :    0.035826
  30 H :    0.027310
  31 H :    0.025041
  32 H :    0.073028
  33 H :    0.051102
Sum of atomic charges:   -0.0000000

LOEWDIN ATOMIC CHARGES
----------------------
   0 S :    0.432770
   1 C :   -0.225541
   2 C :   -0.059886
   3 C :   -0.058820
   4 C :   -0.206885
   5 H :    0.022823
   6 C :   -0.031909
   7 H :    0.044850
   8 H :    0.025388
   9 C :   -0.039974
  10 H :    0.033673
  11 H :    0.018105
  12 C :   -0.069639
  13 H :    0.021185
  14 H :    0.023044
  15 H :    0.033338
  16 S :    0.419571
  17 C :   -0.186167
  18 C :   -0.072205
  19 C :   -0.055752
  20 C :   -0.215546
  21 H :    0.034001
  22 C :   -0.033038
  23 H :    0.027657
  24 H :    0.034696
  25 C :   -0.040889
  26 H :    0.021756
  27 H :    0.025353
  28 C :   -0.062380
  29 H :    0.030340
  30 H :    0.023843
  31 H :    0.021404
  32 H :    0.039014
  33 H :    0.025821

  Mayer bond orders larger than 0.100000
B(  0-S ,  1-C ) :   1.1667 B(  0-S ,  4-C ) :   1.1642 B(  1-C ,  2-C ) :   1.5884
B(  1-C , 32-H ) :   0.9595 B(  2-C ,  3-C ) :   1.2486 B(  2-C ,  6-C ) :   0.9976
B(  3-C ,  4-C ) :   1.6037 B(  3-C ,  5-H ) :   0.9974 B(  4-C , 20-C ) :   0.9891
B(  6-C ,  7-H ) :   0.9324 B(  6-C ,  8-H ) :   0.9504 B(  6-C ,  9-C ) :   1.0861
B(  9-C , 10-H ) :   0.9549 B(  9-C , 11-H ) :   0.9526 B(  9-C , 12-C ) :   1.0720
B( 12-C , 13-H ) :   0.9786 B( 12-C , 14-H ) :   0.9753 B( 12-C , 15-H ) :   0.9746
B( 16-S , 17-C ) :   1.1711 B( 16-S , 20-C ) :   1.1499 B( 17-C , 18-C ) :   1.5988
B( 17-C , 20-C ) :   0.1010 B( 17-C , 33-H ) :   0.9690 B( 18-C , 19-C ) :   1.2447
B( 18-C , 21-H ) :   0.9903 B( 19-C , 20-C ) :   1.5990 B( 19-C , 22-C ) :   1.0468
B( 22-C , 23-H ) :   0.9366 B( 22-C , 24-H ) :   0.9248 B( 22-C , 25-C ) :   1.0665
B( 25-C , 26-H ) :   0.9472 B( 25-C , 27-H ) :   0.9572 B( 25-C , 28-C ) :   1.0944
B( 28-C , 29-H ) :   0.9730 B( 28-C , 30-H ) :   0.9699 B( 28-C , 31-H ) :   0.9718

Dispersion correction           -0.014663814
FINAL SINGLE POINT ENERGY     -1339.885245211045

DIPOLE MOMENT
-------------
                                X             Y             Z
Electronic contribution:     23.63128      -7.72917       2.18241
Nuclear contribution   :    -24.18773       8.01424      -2.11152
                        -----------------------------------------
Total Dipole Moment    :     -0.55645       0.28507       0.07089
                        -----------------------------------------
Magnitude (a.u.)       :      0.62923
Magnitude (Debye)      :      1.59937

Rotational constants in cm-1:     0.017155     0.008807     0.007757
Rotational constants in MHz :   514.279217   264.029574   232.544141

                             ****ORCA TERMINATED NORMALLY****
TOTAL RUN TIME: 0 days 0 hours 0 minutes 28 seconds 531 msec
