                         Program Version 4.2.1 -  RELEASE  -
|  1> ! wB97X-D3 SP def2-SVP
|  2> %pal
|  3> nprocs 16
|  4> end
|  5>
|  6> * xyz 0 1
|  7> S 	 -35.6606 	 31.7442 	 81.7409
|  8> C 	 -35.293 	 32.0624 	 80.0962
|  9> C 	 -36.302 	 32.8369 	 79.5244
| 10> C 	 -37.3123 	 33.2869 	 80.3956
| 11> C 	 -37.1395 	 32.725 	 81.6339
| 12> H 	 -38.1376 	 33.8783 	 80.1484
| 13> C 	 -36.206 	 33.4398 	 78.1194
| 14> H 	 -37.2491 	 33.7563 	 77.8677
| 15> H 	 -35.9951 	 32.5897 	 77.4186
| 16> C 	 -35.2287 	 34.592 	 77.9304
| 17> H 	 -35.5563 	 35.4926 	 78.4889
| 18> H 	 -34.3112 	 34.4305 	 78.5715
| 19> C 	 -34.9274 	 34.8658 	 76.4573
| 20> H 	 -35.7448 	 35.2691 	 75.8613
| 21> H 	 -34.1834 	 35.6575 	 76.501
| 22> H 	 -34.3292 	 34.0909 	 75.9672
| 23> S 	 -36.8802 	 33.8075 	 84.101
| 24> C 	 -38.2938 	 34.1075 	 85.0836
| 25> C 	 -39.4547 	 33.8181 	 84.3688
| 26> C 	 -39.2637 	 33.3267 	 83.0808
| 27> C 	 -37.8977 	 33.1301 	 82.8536
| 28> H 	 -40.4773 	 33.9344 	 84.8921
| 29> C 	 -40.3827 	 32.8025 	 82.1749
| 30> H 	 -41.1816 	 32.4135 	 82.8177
| 31> H 	 -40.0247 	 31.9828 	 81.5429
| 32> C 	 -41.0295 	 33.8685 	 81.2961
| 33> H 	 -40.4744 	 33.8779 	 80.3204
| 34> H 	 -40.9289 	 34.8931 	 81.6229
| 35> C 	 -42.4629 	 33.4336 	 81.0379
| 36> H 	 -42.8737 	 34.1933 	 80.3148
| 37> H 	 -42.957 	 33.4048 	 81.9591
| 38> H 	 -42.4557 	 32.4435 	 80.4848
| 39> H 	 -34.4488 	 31.8778 	 79.4928
| 40> H 	 -38.2527 	 34.4301 	 86.0855
| 41> *
| 42>
| 43>                          ****END OF INPUT****

CARTESIAN COORDINATES (ANGSTROEM)
---------------------------------
  S    -35.660600   31.744200   81.740900
  C    -35.293000   32.062400   80.096200
  C    -36.302000   32.836900   79.524400
  C    -37.312300   33.286900   80.395600
  C    -37.139500   32.725000   81.633900
  H    -38.137600   33.878300   80.148400
  C    -36.206000   33.439800   78.119400
  H    -37.249100   33.756300   77.867700
  H    -35.995100   32.589700   77.418600
  C    -35.228700   34.592000   77.930400
  H    -35.556300   35.492600   78.488900
  H    -34.311200   34.430500   78.571500
  C    -34.927400   34.865800   76.457300
  H    -35.744800   35.269100   75.861300
  H    -34.183400   35.657500   76.501000
  H    -34.329200   34.090900   75.967200
  S    -36.880200   33.807500   84.101000
  C    -38.293800   34.107500   85.083600
  C    -39.454700   33.818100   84.368800
  C    -39.263700   33.326700   83.080800
  C    -37.897700   33.130100   82.853600
  H    -40.477300   33.934400   84.892100
  C    -40.382700   32.802500   82.174900
  H    -41.181600   32.413500   82.817700
  H    -40.024700   31.982800   81.542900
  C    -41.029500   33.868500   81.296100
  H    -40.474400   33.877900   80.320400
  H    -40.928900   34.893100   81.622900
  C    -42.462900   33.433600   81.037900
  H    -42.873700   34.193300   80.314800
  H    -42.957000   33.404800   81.959100
  H    -42.455700   32.443500   80.484800
  H    -34.448800   31.877800   79.492800
  H    -38.252700   34.430100   86.085500

 Total Charge           Charge          ....    0
 Multiplicity           Mult            ....    1
 Number of Electrons    NEL             ....  134
 Basis Dimension        Dim             ....  322

ORBITAL ENERGIES
----------------

  NO   OCC          E(Eh)            E(eV)
   0   2.0000     -88.970920     -2421.0218
   1   2.0000     -88.965593     -2420.8769
   2   2.0000     -10.329637      -281.0837
   3   2.0000     -10.326207      -280.9904
   4   2.0000     -10.311778      -280.5977
   5   2.0000     -10.307814      -280.4899
   6   2.0000     -10.301196      -280.3098
   7   2.0000     -10.297954      -280.2216
   8   2.0000     -10.294707      -280.1332
   9   2.0000     -10.292885      -280.0836
  10   2.0000     -10.292109      -280.0625
  11   2.0000     -10.291689      -280.0511
  12   2.0000     -10.287476      -279.9364
  13   2.0000     -10.285239      -279.8756
  14   2.0000     -10.282478      -279.8005
  15   2.0000     -10.280011      -279.7333
  16   2.0000      -8.085237      -220.0105
  17   2.0000      -8.080348      -219.8774
  18   2.0000      -6.043752      -164.4589
  19   2.0000      -6.039733      -164.3495
  20   2.0000      -6.038690      -164.3211
  21   2.0000      -6.036086      -164.2502
  22   2.0000      -6.034836      -164.2162
  23   2.0000      -6.031302      -164.1201
  24   2.0000      -1.007509       -27.4157
  25   2.0000      -0.985908       -26.8279
  26   2.0000      -0.914578       -24.8869
  27   2.0000      -0.906478       -24.6665
  28   2.0000      -0.865009       -23.5381
  29   2.0000      -0.857212       -23.3259
  30   2.0000      -0.850855       -23.1529
  31   2.0000      -0.811536       -22.0830
  32   2.0000      -0.778045       -21.1717
  33   2.0000      -0.767281       -20.8788
  34   2.0000      -0.703282       -19.1373
  35   2.0000      -0.699673       -19.0391
  36   2.0000      -0.694224       -18.8908
  37   2.0000      -0.661434       -17.9985
  38   2.0000      -0.641275       -17.4500
  39   2.0000      -0.618883       -16.8407
  40   2.0000      -0.599822       -16.3220
  41   2.0000      -0.568700       -15.4751
  42   2.0000      -0.564662       -15.3652
  43   2.0000      -0.549178       -14.9439
  44   2.0000      -0.526304       -14.3215
  45   2.0000      -0.521525       -14.1914
  46   2.0000      -0.517569       -14.0838
  47   2.0000      -0.514449       -13.9989
  48   2.0000      -0.504299       -13.7227
  49   2.0000      -0.500978       -13.6323
  50   2.0000      -0.492690       -13.4068
  51   2.0000      -0.481135       -13.0923
  52   2.0000      -0.472888       -12.8679
  53   2.0000      -0.465294       -12.6613
  54   2.0000      -0.463705       -12.6180
  55   2.0000      -0.448438       -12.2026
  56   2.0000      -0.444509       -12.0957
  57   2.0000      -0.441169       -12.0048
  58   2.0000      -0.434066       -11.8115
  59   2.0000      -0.420826       -11.4513
  60   2.0000      -0.415822       -11.3151
  61   2.0000      -0.414399       -11.2764
  62   2.0000      -0.405675       -11.0390
  63   2.0000      -0.349475        -9.5097
  64   2.0000      -0.333102        -9.0642
  65   2.0000      -0.327726        -8.9179
  66   2.0000      -0.288923        -7.8620
  67   0.0000       0.028128         0.7654
  68   0.0000       0.071534         1.9465
  69   0.0000       0.114161         3.1065
  70   0.0000       0.122512         3.3337
  71   0.0000       0.129277         3.5178

MULLIKEN ATOMIC CHARGES
-----------------------
   0 S :    0.124532
   1 C :   -0.082286
   2 C :   -0.113506
   3 C :    0.063819
   4 C :   -0.148459
   5 H :   -0.015196
   6 C :    0.037887
   7 H :    0.019830
   8 H :    0.032010
   9 C :   -0.084053
  10 H :    0.023736
  11 H :    0.026158
  12 C :   -0.024718
  13 H :    0.045645
  14 H :    0.018214
  15 H :    0.036360
  16 S :    0.111431
  17 C :   -0.089617
  18 C :   -0.066164
  19 C :   -0.000432
  20 C :   -0.166911
  21 H :    0.042672
  22 C :    0.042882
  23 H :    0.024563
  24 H :    0.041935
  25 C :   -0.101468
  26 H :    0.030560
  27 H :    0.036543
  28 C :   -0.054892
  29 H :    0.040277
  30 H :    0.035425
  31 H :    0.044881
  32 H :    0.027325
  33 H :    0.041018
Sum of atomic charges:    0.0000000

LOEWDIN ATOMIC CHARGES
----------------------
   0 S :    0.416543
   1 C :   -0.210574
   2 C :   -0.064402
   3 C :   -0.053343
   4 C :   -0.186034
   5 H :    0.023841
   6 C :   -0.042511
   7 H :    0.028885
   8 H :    0.032177
   9 C :   -0.053273
  10 H :    0.028416
  11 H :    0.029387
  12 C :   -0.068730
  13 H :    0.029145
  14 H :    0.028816
  15 H :    0.029137
  16 S :    0.414562
  17 C :   -0.189725
  18 C :   -0.077454
  19 C :   -0.065468
  20 C :   -0.193551
  21 H :    0.043863
  22 C :   -0.026986
  23 H :    0.029950
  24 H :    0.036277
  25 C :   -0.048475
  26 H :    0.024004
  27 H :    0.021506
  28 C :   -0.062301
  29 H :    0.032055
  30 H :    0.015316
  31 H :    0.035023
  32 H :    0.024700
  33 H :    0.019221

  Mayer bond orders larger than 0.100000
B(  0-S ,  1-C ) :   1.1351 B(  0-S ,  4-C ) :   1.1603 B(  1-C ,  2-C ) :   1.5975
B(  1-C , 32-H ) :   0.9707 B(  2-C ,  3-C ) :   1.2629 B(  2-C ,  6-C ) :   1.0277
B(  3-C ,  4-C ) :   1.5489 B(  3-C ,  5-H ) :   1.0014 B(  4-C , 20-C ) :   1.0060
B(  6-C ,  7-H ) :   0.9402 B(  6-C ,  8-H ) :   0.9432 B(  6-C ,  9-C ) :   1.0546
B(  9-C , 10-H ) :   0.9485 B(  9-C , 11-H ) :   0.9566 B(  9-C , 12-C ) :   1.0775
B( 12-C , 13-H ) :   0.9749 B( 12-C , 14-H ) :   0.9685 B( 12-C , 15-H ) :   0.9732
B( 16-S , 17-C ) :   1.1548 B( 16-S , 20-C ) :   1.1734 B( 17-C , 18-C ) :   1.5885
B( 17-C , 20-C ) :   0.1106 B( 17-C , 33-H ) :   0.9763 B( 18-C , 19-C ) :   1.2701
B( 18-C , 21-H ) :   0.9737 B( 19-C , 20-C ) :   1.5705 B( 19-C , 22-C ) :   1.0321
B( 22-C , 23-H ) :   0.9554 B( 22-C , 24-H ) :   0.9347 B( 22-C , 25-C ) :   1.0392
B( 25-C , 26-H ) :   0.9443 B( 25-C , 27-H ) :   0.9662 B( 25-C , 28-C ) :   1.0815
B( 28-C , 29-H ) :   0.9721 B( 28-C , 30-H ) :   0.9792 B( 28-C , 31-H ) :   0.9709

Dispersion correction           -0.013920281
FINAL SINGLE POINT ENERGY     -1339.870613355336

DIPOLE MOMENT
-------------
                                X             Y             Z
Electronic contribution:     12.76033      -8.28469      23.39231
Nuclear contribution   :    -13.06229       8.61928     -23.78816
                        -----------------------------------------
Total Dipole Moment    :     -0.30195       0.33460      -0.39585
                        -----------------------------------------
Magnitude (a.u.)       :      0.59986
Magnitude (Debye)      :      1.52471

Rotational constants in cm-1:     0.017413     0.008411     0.006504
Rotational constants in MHz :   522.013770   252.151117   194.994696

                             ****ORCA TERMINATED NORMALLY****
TOTAL RUN TIME: 0 days 0 hours 0 minutes 28 seconds 38 msec
