                         Program Version 4.2.1 -  RELEASE  -
|  1> ! wB97X-D3 SP def2-SVP
|  2> %pal
|  3> nprocs 16
|  4> end
|  5>
|  6> * xyz 0 1
|  7> S 	 -31.8527 	 66.1694 	 119.012
|  8> C 	 -33.1824 	 65.23 	 118.387
|  9> C 	 -32.8075 	 63.8834 	 118.276
| 10> C 	 -31.3867 	 63.7376 	 118.474
| 11> C 	 -30.7839 	 64.8727 	 119.009
| 12> H 	 -30.9049 	 62.7956 	 118.408
| 13> C 	 -33.7264 	 62.7299 	 118.065
| 14> H 	 -33.2509 	 61.9192 	 117.462
| 15> H 	 -34.6798 	 62.9395 	 117.48
| 16> C 	 -34.2518 	 62.1078 	 119.346
| 17> H 	 -35.0173 	 61.3391 	 119.01
| 18> H 	 -33.374 	 61.7253 	 119.875
| 19> C 	 -34.9708 	 63.0327 	 120.33
| 20> H 	 -35.1565 	 62.4598 	 121.263
| 21> H 	 -34.5066 	 63.9707 	 120.579
| 22> H 	 -35.8923 	 63.2328 	 119.837
| 23> S 	 -29.1865 	 65.7391 	 120.953
| 24> C 	 -27.429 	 65.6068 	 120.849
| 25> C 	 -27.0265 	 65.356 	 119.553
| 26> C 	 -28.1461 	 64.9403 	 118.775
| 27> C 	 -29.3762 	 64.9987 	 119.43
| 28> H 	 -25.9637 	 65.3798 	 119.246
| 29> C 	 -27.9011 	 64.4944 	 117.418
| 30> H 	 -27.0639 	 65.0677 	 117.096
| 31> H 	 -28.647 	 65.1 	 116.819
| 32> C 	 -27.8191 	 63.0208 	 117.145
| 33> H 	 -28.7026 	 62.5422 	 117.505
| 34> H 	 -26.9204 	 62.6686 	 117.716
| 35> C 	 -27.6984 	 62.7771 	 115.652
| 36> H 	 -26.765 	 63.0911 	 115.271
| 37> H 	 -28.3994 	 63.3671 	 115.032
| 38> H 	 -27.8595 	 61.6903 	 115.397
| 39> H 	 -34.1808 	 65.6472 	 118.224
| 40> H 	 -26.7442 	 66.0041 	 121.611
| 41> *
| 42>
| 43>                          ****END OF INPUT****

CARTESIAN COORDINATES (ANGSTROEM)
---------------------------------
  S    -31.852700   66.169400  119.012000
  C    -33.182400   65.230000  118.387000
  C    -32.807500   63.883400  118.276000
  C    -31.386700   63.737600  118.474000
  C    -30.783900   64.872700  119.009000
  H    -30.904900   62.795600  118.408000
  C    -33.726400   62.729900  118.065000
  H    -33.250900   61.919200  117.462000
  H    -34.679800   62.939500  117.480000
  C    -34.251800   62.107800  119.346000
  H    -35.017300   61.339100  119.010000
  H    -33.374000   61.725300  119.875000
  C    -34.970800   63.032700  120.330000
  H    -35.156500   62.459800  121.263000
  H    -34.506600   63.970700  120.579000
  H    -35.892300   63.232800  119.837000
  S    -29.186500   65.739100  120.953000
  C    -27.429000   65.606800  120.849000
  C    -27.026500   65.356000  119.553000
  C    -28.146100   64.940300  118.775000
  C    -29.376200   64.998700  119.430000
  H    -25.963700   65.379800  119.246000
  C    -27.901100   64.494400  117.418000
  H    -27.063900   65.067700  117.096000
  H    -28.647000   65.100000  116.819000
  C    -27.819100   63.020800  117.145000
  H    -28.702600   62.542200  117.505000
  H    -26.920400   62.668600  117.716000
  C    -27.698400   62.777100  115.652000
  H    -26.765000   63.091100  115.271000
  H    -28.399400   63.367100  115.032000
  H    -27.859500   61.690300  115.397000
  H    -34.180800   65.647200  118.224000
  H    -26.744200   66.004100  121.611000

 Total Charge           Charge          ....    0
 Multiplicity           Mult            ....    1
 Number of Electrons    NEL             ....  134
 Basis Dimension        Dim             ....  322

ORBITAL ENERGIES
----------------

  NO   OCC          E(Eh)            E(eV)
   0   2.0000     -88.968926     -2420.9676
   1   2.0000     -88.963748     -2420.8267
   2   2.0000     -10.328857      -281.0625
   3   2.0000     -10.323267      -280.9104
   4   2.0000     -10.317624      -280.7568
   5   2.0000     -10.316288      -280.7205
   6   2.0000     -10.304590      -280.4021
   7   2.0000     -10.296772      -280.1894
   8   2.0000     -10.296397      -280.1792
   9   2.0000     -10.296073      -280.1704
  10   2.0000     -10.292337      -280.0687
  11   2.0000     -10.287922      -279.9486
  12   2.0000     -10.286683      -279.9149
  13   2.0000     -10.278890      -279.7028
  14   2.0000     -10.277084      -279.6537
  15   2.0000     -10.270399      -279.4718
  16   2.0000      -8.084754      -219.9973
  17   2.0000      -8.079317      -219.8494
  18   2.0000      -6.043128      -164.4419
  19   2.0000      -6.038918      -164.3273
  20   2.0000      -6.037747      -164.2954
  21   2.0000      -6.035774      -164.2418
  22   2.0000      -6.033754      -164.1868
  23   2.0000      -6.030050      -164.0860
  24   2.0000      -1.015343       -27.6289
  25   2.0000      -0.990764       -26.9601
  26   2.0000      -0.919624       -25.0242
  27   2.0000      -0.915554       -24.9135
  28   2.0000      -0.870050       -23.6753
  29   2.0000      -0.853058       -23.2129
  30   2.0000      -0.848168       -23.0798
  31   2.0000      -0.814833       -22.1727
  32   2.0000      -0.784974       -21.3602
  33   2.0000      -0.768675       -20.9167
  34   2.0000      -0.710185       -19.3251
  35   2.0000      -0.694547       -18.8996
  36   2.0000      -0.686949       -18.6928
  37   2.0000      -0.665249       -18.1023
  38   2.0000      -0.642115       -17.4728
  39   2.0000      -0.623150       -16.9568
  40   2.0000      -0.593201       -16.1418
  41   2.0000      -0.575072       -15.6485
  42   2.0000      -0.563961       -15.3462
  43   2.0000      -0.554636       -15.0924
  44   2.0000      -0.543573       -14.7914
  45   2.0000      -0.530370       -14.4321
  46   2.0000      -0.520449       -14.1621
  47   2.0000      -0.510156       -13.8821
  48   2.0000      -0.503648       -13.7050
  49   2.0000      -0.498707       -13.5705
  50   2.0000      -0.496161       -13.5012
  51   2.0000      -0.477723       -12.9995
  52   2.0000      -0.471447       -12.8287
  53   2.0000      -0.462519       -12.5858
  54   2.0000      -0.457885       -12.4597
  55   2.0000      -0.450439       -12.2571
  56   2.0000      -0.445774       -12.1301
  57   2.0000      -0.437235       -11.8978
  58   2.0000      -0.433436       -11.7944
  59   2.0000      -0.422899       -11.5077
  60   2.0000      -0.419860       -11.4250
  61   2.0000      -0.408967       -11.1286
  62   2.0000      -0.404430       -11.0051
  63   2.0000      -0.347365        -9.4523
  64   2.0000      -0.330791        -9.0013
  65   2.0000      -0.326579        -8.8867
  66   2.0000      -0.293076        -7.9750
  67   0.0000       0.035350         0.9619
  68   0.0000       0.061893         1.6842
  69   0.0000       0.106405         2.8954
  70   0.0000       0.116421         3.1680
  71   0.0000       0.134792         3.6679

MULLIKEN ATOMIC CHARGES
-----------------------
   0 S :    0.131453
   1 C :   -0.137931
   2 C :   -0.071534
   3 C :    0.033707
   4 C :   -0.136771
   5 H :    0.000627
   6 C :    0.023683
   7 H :    0.034673
   8 H :    0.026551
   9 C :   -0.095611
  10 H :    0.044249
  11 H :    0.027807
  12 C :   -0.039329
  13 H :    0.041105
  14 H :    0.044710
  15 H :    0.009567
  16 S :    0.094558
  17 C :   -0.095307
  18 C :   -0.040418
  19 C :   -0.066706
  20 C :   -0.144538
  21 H :    0.037218
  22 C :    0.039865
  23 H :   -0.006954
  24 H :    0.022520
  25 C :    0.002234
  26 H :    0.017703
  27 H :    0.035130
  28 C :   -0.034091
  29 H :    0.013414
  30 H :    0.027395
  31 H :    0.040335
  32 H :    0.057898
  33 H :    0.062785
Sum of atomic charges:   -0.0000000

LOEWDIN ATOMIC CHARGES
----------------------
   0 S :    0.443983
   1 C :   -0.206962
   2 C :   -0.058344
   3 C :   -0.063528
   4 C :   -0.219352
   5 H :    0.022370
   6 C :   -0.047329
   7 H :    0.035539
   8 H :    0.033280
   9 C :   -0.042879
  10 H :    0.034249
  11 H :    0.019807
  12 C :   -0.064938
  13 H :    0.033382
  14 H :    0.022657
  15 H :    0.017003
  16 S :    0.420718
  17 C :   -0.184955
  18 C :   -0.070923
  19 C :   -0.060861
  20 C :   -0.213226
  21 H :    0.040769
  22 C :   -0.049071
  23 H :    0.025023
  24 H :    0.038205
  25 C :   -0.032075
  26 H :    0.019631
  27 H :    0.034269
  28 C :   -0.064688
  29 H :    0.016869
  30 H :    0.028486
  31 H :    0.031264
  32 H :    0.030885
  33 H :    0.030741

  Mayer bond orders larger than 0.100000
B(  0-S ,  1-C ) :   1.1445 B(  0-S ,  4-C ) :   1.1872 B(  1-C ,  2-C ) :   1.5664
B(  1-C ,  4-C ) :   0.1000 B(  1-C , 32-H ) :   0.9714 B(  2-C ,  3-C ) :   1.2668
B(  2-C ,  6-C ) :   1.0418 B(  3-C ,  4-C ) :   1.5393 B(  3-C ,  5-H ) :   0.9966
B(  4-C , 20-C ) :   1.0190 B(  6-C ,  7-H ) :   0.9373 B(  6-C ,  8-H ) :   0.9426
B(  6-C ,  9-C ) :   1.0691 B(  9-C , 10-H ) :   0.9571 B(  9-C , 11-H ) :   0.9547
B(  9-C , 12-C ) :   1.0792 B( 12-C , 13-H ) :   0.9727 B( 12-C , 14-H ) :   0.9719
B( 12-C , 15-H ) :   0.9750 B( 16-S , 17-C ) :   1.1658 B( 16-S , 20-C ) :   1.1455
B( 17-C , 18-C ) :   1.5922 B( 17-C , 20-C ) :   0.1006 B( 17-C , 33-H ) :   0.9631
B( 18-C , 19-C ) :   1.2626 B( 18-C , 21-H ) :   0.9856 B( 19-C , 20-C ) :   1.5696
B( 19-C , 22-C ) :   1.0570 B( 22-C , 23-H ) :   0.9222 B( 22-C , 24-H ) :   0.9145
B( 22-C , 25-C ) :   1.0599 B( 25-C , 26-H ) :   0.9529 B( 25-C , 27-H ) :   0.9469
B( 25-C , 28-C ) :   1.0822 B( 28-C , 29-H ) :   0.9731 B( 28-C , 30-H ) :   0.9725
B( 28-C , 31-H ) :   0.9748

Dispersion correction           -0.014612762
FINAL SINGLE POINT ENERGY     -1339.869190309403

DIPOLE MOMENT
-------------
                                X             Y             Z
Electronic contribution:      4.78829      18.52603      12.04134
Nuclear contribution   :     -4.69048     -18.79749     -12.35295
                        -----------------------------------------
Total Dipole Moment    :      0.09781      -0.27145      -0.31161
                        -----------------------------------------
Magnitude (a.u.)       :      0.42468
Magnitude (Debye)      :      1.07945

Rotational constants in cm-1:     0.019114     0.008936     0.007060
Rotational constants in MHz :   573.035106   267.900941   211.650519

                             ****ORCA TERMINATED NORMALLY****
TOTAL RUN TIME: 0 days 0 hours 0 minutes 30 seconds 762 msec
