                         Program Version 4.2.1 -  RELEASE  -
|  1> ! wB97X-D3 SP def2-SVP
|  2> %pal
|  3> nprocs 16
|  4> end
|  5>
|  6> * xyz 0 1
|  7> S 	 -50.0059 	 65.5663 	 135.553
|  8> C 	 -49.0563 	 64.1598 	 135.86
|  9> C 	 -48.7788 	 63.9149 	 137.204
| 10> C 	 -49.3823 	 64.8627 	 138.043
| 11> C 	 -50.0862 	 65.7972 	 137.317
| 12> H 	 -49.3801 	 65.0245 	 139.135
| 13> C 	 -47.8811 	 62.8003 	 137.692
| 14> H 	 -47.3092 	 63.2089 	 138.481
| 15> H 	 -47.0456 	 62.6429 	 136.962
| 16> C 	 -48.6095 	 61.5587 	 138.131
| 17> H 	 -49.4324 	 61.7224 	 138.834
| 18> H 	 -49.0081 	 60.9952 	 137.235
| 19> C 	 -47.6759 	 60.5827 	 138.837
| 20> H 	 -46.9419 	 60.3117 	 138.17
| 21> H 	 -47.1963 	 61.1772 	 139.606
| 22> H 	 -48.2357 	 59.7419 	 139.12
| 23> S 	 -50.2521 	 68.5221 	 137.276
| 24> C 	 -51.3116 	 69.4423 	 138.297
| 25> C 	 -51.8056 	 68.5401 	 139.233
| 26> C 	 -51.6426 	 67.1151 	 138.975
| 27> C 	 -50.7383 	 66.9535 	 137.913
| 28> H 	 -52.359 	 68.9666 	 139.96
| 29> C 	 -52.2564 	 66.0175 	 139.747
| 30> H 	 -52.8864 	 66.4882 	 140.43
| 31> H 	 -51.3782 	 65.6181 	 140.286
| 32> C 	 -52.9252 	 64.9497 	 138.876
| 33> H 	 -53.3556 	 64.2329 	 139.42
| 34> H 	 -52.2352 	 64.4095 	 138.268
| 35> C 	 -54.084 	 65.5094 	 138.068
| 36> H 	 -53.6991 	 66.1863 	 137.242
| 37> H 	 -54.9166 	 65.93 	 138.621
| 38> H 	 -54.4824 	 64.6047 	 137.527
| 39> H 	 -48.6803 	 63.5311 	 135.024
| 40> H 	 -51.5392 	 70.4854 	 138.086
| 41> *
| 42>
| 43>                          ****END OF INPUT****

CARTESIAN COORDINATES (ANGSTROEM)
---------------------------------
  S    -50.005900   65.566300  135.553000
  C    -49.056300   64.159800  135.860000
  C    -48.778800   63.914900  137.204000
  C    -49.382300   64.862700  138.043000
  C    -50.086200   65.797200  137.317000
  H    -49.380100   65.024500  139.135000
  C    -47.881100   62.800300  137.692000
  H    -47.309200   63.208900  138.481000
  H    -47.045600   62.642900  136.962000
  C    -48.609500   61.558700  138.131000
  H    -49.432400   61.722400  138.834000
  H    -49.008100   60.995200  137.235000
  C    -47.675900   60.582700  138.837000
  H    -46.941900   60.311700  138.170000
  H    -47.196300   61.177200  139.606000
  H    -48.235700   59.741900  139.120000
  S    -50.252100   68.522100  137.276000
  C    -51.311600   69.442300  138.297000
  C    -51.805600   68.540100  139.233000
  C    -51.642600   67.115100  138.975000
  C    -50.738300   66.953500  137.913000
  H    -52.359000   68.966600  139.960000
  C    -52.256400   66.017500  139.747000
  H    -52.886400   66.488200  140.430000
  H    -51.378200   65.618100  140.286000
  C    -52.925200   64.949700  138.876000
  H    -53.355600   64.232900  139.420000
  H    -52.235200   64.409500  138.268000
  C    -54.084000   65.509400  138.068000
  H    -53.699100   66.186300  137.242000
  H    -54.916600   65.930000  138.621000
  H    -54.482400   64.604700  137.527000
  H    -48.680300   63.531100  135.024000
  H    -51.539200   70.485400  138.086000

 Total Charge           Charge          ....    0
 Multiplicity           Mult            ....    1
 Number of Electrons    NEL             ....  134
 Basis Dimension        Dim             ....  322

ORBITAL ENERGIES
----------------

  NO   OCC          E(Eh)            E(eV)
   0   2.0000     -88.970860     -2421.0202
   1   2.0000     -88.953840     -2420.5571
   2   2.0000     -10.326849      -281.0079
   3   2.0000     -10.321052      -280.8501
   4   2.0000     -10.315593      -280.7016
   5   2.0000     -10.315299      -280.6936
   6   2.0000     -10.302642      -280.3491
   7   2.0000     -10.301056      -280.3060
   8   2.0000     -10.296026      -280.1691
   9   2.0000     -10.290513      -280.0191
  10   2.0000     -10.287317      -279.9321
  11   2.0000     -10.287173      -279.9282
  12   2.0000     -10.285741      -279.8892
  13   2.0000     -10.275899      -279.6214
  14   2.0000     -10.270122      -279.4642
  15   2.0000     -10.265612      -279.3415
  16   2.0000      -8.085369      -220.0141
  17   2.0000      -8.069135      -219.5723
  18   2.0000      -6.043603      -164.4548
  19   2.0000      -6.040067      -164.3586
  20   2.0000      -6.036268      -164.2552
  21   2.0000      -6.027591      -164.0191
  22   2.0000      -6.023381      -163.9045
  23   2.0000      -6.020100      -163.8152
  24   2.0000      -1.005719       -27.3670
  25   2.0000      -0.982088       -26.7240
  26   2.0000      -0.918043       -24.9812
  27   2.0000      -0.915532       -24.9129
  28   2.0000      -0.868446       -23.6316
  29   2.0000      -0.859464       -23.3872
  30   2.0000      -0.846717       -23.0403
  31   2.0000      -0.814618       -22.1669
  32   2.0000      -0.782290       -21.2872
  33   2.0000      -0.768874       -20.9221
  34   2.0000      -0.708998       -19.2928
  35   2.0000      -0.699211       -19.0265
  36   2.0000      -0.689109       -18.7516
  37   2.0000      -0.666480       -18.1358
  38   2.0000      -0.644731       -17.5440
  39   2.0000      -0.617301       -16.7976
  40   2.0000      -0.585100       -15.9214
  41   2.0000      -0.573558       -15.6073
  42   2.0000      -0.564861       -15.3707
  43   2.0000      -0.557971       -15.1832
  44   2.0000      -0.553981       -15.0746
  45   2.0000      -0.541341       -14.7306
  46   2.0000      -0.520776       -14.1710
  47   2.0000      -0.509097       -13.8532
  48   2.0000      -0.499775       -13.5996
  49   2.0000      -0.497661       -13.5420
  50   2.0000      -0.490439       -13.3455
  51   2.0000      -0.479429       -13.0459
  52   2.0000      -0.471762       -12.8373
  53   2.0000      -0.463080       -12.6011
  54   2.0000      -0.459364       -12.4999
  55   2.0000      -0.449073       -12.2199
  56   2.0000      -0.446591       -12.1524
  57   2.0000      -0.436533       -11.8787
  58   2.0000      -0.426453       -11.6044
  59   2.0000      -0.423357       -11.5201
  60   2.0000      -0.423254       -11.5173
  61   2.0000      -0.415589       -11.3087
  62   2.0000      -0.409184       -11.1345
  63   2.0000      -0.345497        -9.4014
  64   2.0000      -0.331386        -9.0175
  65   2.0000      -0.319635        -8.6977
  66   2.0000      -0.287859        -7.8330
  67   0.0000       0.027338         0.7439
  68   0.0000       0.072608         1.9758
  69   0.0000       0.110737         3.0133
  70   0.0000       0.121911         3.3174
  71   0.0000       0.131351         3.5743

MULLIKEN ATOMIC CHARGES
-----------------------
   0 S :    0.133866
   1 C :   -0.136359
   2 C :   -0.059434
   3 C :    0.019695
   4 C :   -0.174065
   5 H :    0.026477
   6 C :    0.072326
   7 H :    0.002125
   8 H :    0.026059
   9 C :   -0.099547
  10 H :    0.032347
  11 H :    0.031498
  12 C :    0.027901
  13 H :    0.003921
  14 H :    0.019382
  15 H :    0.029565
  16 S :    0.081931
  17 C :   -0.112262
  18 C :   -0.000903
  19 C :   -0.070729
  20 C :   -0.175244
  21 H :   -0.026903
  22 C :    0.128012
  23 H :   -0.005652
  24 H :    0.034616
  25 C :    0.008354
  26 H :   -0.011418
  27 H :    0.032143
  28 C :   -0.091628
  29 H :    0.054363
  30 H :    0.037493
  31 H :    0.030078
  32 H :    0.057417
  33 H :    0.074575
Sum of atomic charges:    0.0000000

LOEWDIN ATOMIC CHARGES
----------------------
   0 S :    0.411114
   1 C :   -0.206637
   2 C :   -0.063960
   3 C :   -0.057110
   4 C :   -0.189910
   5 H :    0.041634
   6 C :   -0.036792
   7 H :    0.023607
   8 H :    0.037331
   9 C :   -0.040091
  10 H :    0.024363
  11 H :    0.028281
  12 C :   -0.049221
  13 H :    0.012490
  14 H :    0.023940
  15 H :    0.021811
  16 S :    0.395125
  17 C :   -0.191115
  18 C :   -0.064020
  19 C :   -0.055019
  20 C :   -0.200268
  21 H :    0.006760
  22 C :   -0.025916
  23 H :    0.022092
  24 H :    0.037572
  25 C :   -0.029679
  26 H :    0.008560
  27 H :    0.027625
  28 C :   -0.067104
  29 H :    0.033002
  30 H :    0.022187
  31 H :    0.031321
  32 H :    0.032254
  33 H :    0.035775

  Mayer bond orders larger than 0.100000
B(  0-S ,  1-C ) :   1.1486 B(  0-S ,  4-C ) :   1.1493 B(  1-C ,  2-C ) :   1.6020
B(  1-C , 32-H ) :   0.9619 B(  2-C ,  3-C ) :   1.2401 B(  2-C ,  6-C ) :   1.0182
B(  3-C ,  4-C ) :   1.5727 B(  3-C ,  5-H ) :   0.9896 B(  4-C , 20-C ) :   1.0527
B(  6-C ,  7-H ) :   0.9344 B(  6-C ,  8-H ) :   0.9365 B(  6-C ,  9-C ) :   1.0658
B(  9-C , 10-H ) :   0.9599 B(  9-C , 11-H ) :   0.9520 B(  9-C , 12-C ) :   1.0822
B( 12-C , 13-H ) :   0.9719 B( 12-C , 14-H ) :   0.9747 B( 12-C , 15-H ) :   0.9731
B( 16-S , 17-C ) :   1.1565 B( 16-S , 20-C ) :   1.1562 B( 17-C , 18-C ) :   1.5781
B( 17-C , 20-C ) :   0.1032 B( 17-C , 33-H ) :   0.9728 B( 18-C , 19-C ) :   1.2377
B( 18-C , 21-H ) :   1.0019 B( 19-C , 20-C ) :   1.5517 B( 19-C , 22-C ) :   1.0326
B( 22-C , 23-H ) :   0.9221 B( 22-C , 24-H ) :   0.9256 B( 22-C , 25-C ) :   1.0803
B( 25-C , 26-H ) :   0.9466 B( 25-C , 27-H ) :   0.9460 B( 25-C , 28-C ) :   1.0803
B( 28-C , 29-H ) :   0.9721 B( 28-C , 30-H ) :   0.9764 B( 28-C , 31-H ) :   0.9727

Dispersion correction           -0.015088962
FINAL SINGLE POINT ENERGY     -1339.855416271513

DIPOLE MOMENT
-------------
                                X             Y             Z
Electronic contribution:      3.14025      23.02297     -12.06055
Nuclear contribution   :     -3.17986     -23.52110      12.47154
                        -----------------------------------------
Total Dipole Moment    :     -0.03960      -0.49813       0.41100
                        -----------------------------------------
Magnitude (a.u.)       :      0.64701
Magnitude (Debye)      :      1.64457

Rotational constants in cm-1:     0.021338     0.008350     0.007237
Rotational constants in MHz :   639.688244   250.329683   216.962347

                             ****ORCA TERMINATED NORMALLY****
TOTAL RUN TIME: 0 days 0 hours 0 minutes 36 seconds 212 msec
