                         Program Version 4.2.1 -  RELEASE  -
|  1> ! wB97X-D3 SP def2-SVP
|  2> %pal
|  3> nprocs 16
|  4> end
|  5>
|  6> * xyz 0 1
|  7> S 	 -30.583 	 60.2678 	 117.824
|  8> C 	 -32.2145 	 59.6428 	 117.675
|  9> C 	 -33.1113 	 60.5859 	 117.107
| 10> C 	 -32.3017 	 61.5917 	 116.413
| 11> C 	 -30.9636 	 61.6864 	 116.735
| 12> H 	 -32.7565 	 62.4153 	 115.702
| 13> C 	 -34.6342 	 60.579 	 117.065
| 14> H 	 -35.0842 	 61.543 	 117.333
| 15> H 	 -35.012 	 59.9321 	 117.908
| 16> C 	 -35.2034 	 60.1515 	 115.641
| 17> H 	 -36.2633 	 60.2358 	 115.661
| 18> H 	 -34.782 	 60.8551 	 114.963
| 19> C 	 -34.8072 	 58.7946 	 115.087
| 20> H 	 -35.5482 	 58.5923 	 114.319
| 21> H 	 -33.8226 	 58.7328 	 114.693
| 22> H 	 -35.0898 	 58.0238 	 115.813
| 23> S 	 -28.5694 	 62.2241 	 115.39
| 24> C 	 -27.9793 	 63.8703 	 115.394
| 25> C 	 -28.9206 	 64.745 	 115.834
| 26> C 	 -30.0723 	 64.1506 	 116.44
| 27> C 	 -30.0372 	 62.7465 	 116.281
| 28> H 	 -28.4888 	 65.7457 	 115.841
| 29> C 	 -31.1112 	 64.8927 	 117.247
| 30> H 	 -31.7497 	 64.076 	 117.639
| 31> H 	 -31.716 	 65.5626 	 116.651
| 32> C 	 -30.6105 	 65.5505 	 118.518
| 33> H 	 -29.7546 	 66.1861 	 118.275
| 34> H 	 -30.1695 	 64.8032 	 119.184
| 35> C 	 -31.653 	 66.4182 	 119.303
| 36> H 	 -32.1446 	 67.0259 	 118.543
| 37> H 	 -31.1275 	 67.0303 	 119.993
| 38> H 	 -32.3788 	 65.8197 	 119.785
| 39> H 	 -32.5934 	 58.8378 	 118.317
| 40> H 	 -27.1436 	 64.1369 	 114.811
| 41> *
| 42>
| 43>                          ****END OF INPUT****

CARTESIAN COORDINATES (ANGSTROEM)
---------------------------------
  S    -30.583000   60.267800  117.824000
  C    -32.214500   59.642800  117.675000
  C    -33.111300   60.585900  117.107000
  C    -32.301700   61.591700  116.413000
  C    -30.963600   61.686400  116.735000
  H    -32.756500   62.415300  115.702000
  C    -34.634200   60.579000  117.065000
  H    -35.084200   61.543000  117.333000
  H    -35.012000   59.932100  117.908000
  C    -35.203400   60.151500  115.641000
  H    -36.263300   60.235800  115.661000
  H    -34.782000   60.855100  114.963000
  C    -34.807200   58.794600  115.087000
  H    -35.548200   58.592300  114.319000
  H    -33.822600   58.732800  114.693000
  H    -35.089800   58.023800  115.813000
  S    -28.569400   62.224100  115.390000
  C    -27.979300   63.870300  115.394000
  C    -28.920600   64.745000  115.834000
  C    -30.072300   64.150600  116.440000
  C    -30.037200   62.746500  116.281000
  H    -28.488800   65.745700  115.841000
  C    -31.111200   64.892700  117.247000
  H    -31.749700   64.076000  117.639000
  H    -31.716000   65.562600  116.651000
  C    -30.610500   65.550500  118.518000
  H    -29.754600   66.186100  118.275000
  H    -30.169500   64.803200  119.184000
  C    -31.653000   66.418200  119.303000
  H    -32.144600   67.025900  118.543000
  H    -31.127500   67.030300  119.993000
  H    -32.378800   65.819700  119.785000
  H    -32.593400   58.837800  118.317000
  H    -27.143600   64.136900  114.811000

 Total Charge           Charge          ....    0
 Multiplicity           Mult            ....    1
 Number of Electrons    NEL             ....  134
 Basis Dimension        Dim             ....  322

ORBITAL ENERGIES
----------------

  NO   OCC          E(Eh)            E(eV)
   0   2.0000     -88.967125     -2420.9186
   1   2.0000     -88.963063     -2420.8080
   2   2.0000     -10.336628      -281.2739
   3   2.0000     -10.336339      -281.2661
   4   2.0000     -10.322237      -280.8824
   5   2.0000     -10.313317      -280.6396
   6   2.0000     -10.312620      -280.6206
   7   2.0000     -10.312210      -280.6095
   8   2.0000     -10.306766      -280.4614
   9   2.0000     -10.303719      -280.3785
  10   2.0000     -10.293542      -280.1015
  11   2.0000     -10.289901      -280.0024
  12   2.0000     -10.285146      -279.8730
  13   2.0000     -10.283460      -279.8272
  14   2.0000     -10.274422      -279.5812
  15   2.0000     -10.271632      -279.5053
  16   2.0000      -8.080452      -219.8803
  17   2.0000      -8.077548      -219.8013
  18   2.0000      -6.039192      -164.3348
  19   2.0000      -6.035952      -164.2466
  20   2.0000      -6.035258      -164.2277
  21   2.0000      -6.032142      -164.1429
  22   2.0000      -6.030917      -164.1096
  23   2.0000      -6.028375      -164.0404
  24   2.0000      -0.997168       -27.1343
  25   2.0000      -0.975941       -26.5567
  26   2.0000      -0.908583       -24.7238
  27   2.0000      -0.904981       -24.6258
  28   2.0000      -0.867710       -23.6116
  29   2.0000      -0.848707       -23.0945
  30   2.0000      -0.841917       -22.9097
  31   2.0000      -0.814355       -22.1597
  32   2.0000      -0.783472       -21.3193
  33   2.0000      -0.772896       -21.0316
  34   2.0000      -0.705509       -19.1979
  35   2.0000      -0.696801       -18.9609
  36   2.0000      -0.693337       -18.8667
  37   2.0000      -0.652098       -17.7445
  38   2.0000      -0.635526       -17.2935
  39   2.0000      -0.613114       -16.6837
  40   2.0000      -0.596565       -16.2334
  41   2.0000      -0.573126       -15.5956
  42   2.0000      -0.565727       -15.3942
  43   2.0000      -0.548123       -14.9152
  44   2.0000      -0.537100       -14.6152
  45   2.0000      -0.528114       -14.3707
  46   2.0000      -0.516189       -14.0462
  47   2.0000      -0.513311       -13.9679
  48   2.0000      -0.497162       -13.5285
  49   2.0000      -0.492741       -13.4082
  50   2.0000      -0.485087       -13.1999
  51   2.0000      -0.478226       -13.0132
  52   2.0000      -0.471944       -12.8422
  53   2.0000      -0.463727       -12.6187
  54   2.0000      -0.456861       -12.4318
  55   2.0000      -0.451205       -12.2779
  56   2.0000      -0.441094       -12.0028
  57   2.0000      -0.434552       -11.8248
  58   2.0000      -0.428774       -11.6675
  59   2.0000      -0.422951       -11.5091
  60   2.0000      -0.422502       -11.4969
  61   2.0000      -0.415005       -11.2929
  62   2.0000      -0.409820       -11.1518
  63   2.0000      -0.344073        -9.3627
  64   2.0000      -0.332785        -9.0555
  65   2.0000      -0.323289        -8.7971
  66   2.0000      -0.297903        -8.1064
  67   0.0000       0.026475         0.7204
  68   0.0000       0.061029         1.6607
  69   0.0000       0.103818         2.8250
  70   0.0000       0.114190         3.1073
  71   0.0000       0.129109         3.5132

MULLIKEN ATOMIC CHARGES
-----------------------
   0 S :    0.104090
   1 C :   -0.107133
   2 C :   -0.119528
   3 C :   -0.006728
   4 C :   -0.148228
   5 H :    0.057409
   6 C :    0.043128
   7 H :    0.036625
   8 H :    0.026177
   9 C :   -0.072461
  10 H :    0.026533
  11 H :    0.023188
  12 C :   -0.026820
  13 H :    0.022801
  14 H :    0.051643
  15 H :    0.020733
  16 S :    0.094660
  17 C :   -0.090095
  18 C :   -0.043668
  19 C :   -0.011494
  20 C :   -0.185420
  21 H :    0.029969
  22 C :    0.088154
  23 H :    0.030204
  24 H :    0.028846
  25 C :   -0.117932
  26 H :    0.018920
  27 H :    0.030487
  28 C :    0.000090
  29 H :    0.022251
  30 H :    0.031935
  31 H :    0.028928
  32 H :    0.063466
  33 H :    0.049271
Sum of atomic charges:    0.0000000

LOEWDIN ATOMIC CHARGES
----------------------
   0 S :    0.371364
   1 C :   -0.197204
   2 C :   -0.062935
   3 C :   -0.069671
   4 C :   -0.188724
   5 H :    0.047279
   6 C :   -0.038002
   7 H :    0.034366
   8 H :    0.032028
   9 C :   -0.032669
  10 H :    0.019926
  11 H :    0.020581
  12 C :   -0.062716
  13 H :    0.030079
  14 H :    0.025404
  15 H :    0.025493
  16 S :    0.385063
  17 C :   -0.172617
  18 C :   -0.078085
  19 C :   -0.044512
  20 C :   -0.182709
  21 H :    0.038018
  22 C :   -0.036773
  23 H :    0.038050
  24 H :    0.027812
  25 C :   -0.041576
  26 H :    0.017156
  27 H :    0.025511
  28 C :   -0.050984
  29 H :    0.024789
  30 H :    0.024578
  31 H :    0.019516
  32 H :    0.031540
  33 H :    0.020623

  Mayer bond orders larger than 0.100000
B(  0-S ,  1-C ) :   1.1431 B(  0-S ,  4-C ) :   1.1051 B(  1-C ,  2-C ) :   1.6185
B(  1-C , 32-H ) :   0.9563 B(  2-C ,  3-C ) :   1.2061 B(  2-C ,  6-C ) :   1.0386
B(  3-C ,  4-C ) :   1.6234 B(  3-C ,  5-H ) :   0.9646 B(  4-C , 20-C ) :   1.0541
B(  6-C ,  7-H ) :   0.9435 B(  6-C ,  8-H ) :   0.9420 B(  6-C ,  9-C ) :   1.0570
B(  9-C , 10-H ) :   0.9594 B(  9-C , 11-H ) :   0.9575 B(  9-C , 12-C ) :   1.0850
B( 12-C , 13-H ) :   0.9694 B( 12-C , 14-H ) :   0.9756 B( 12-C , 15-H ) :   0.9729
B( 16-S , 17-C ) :   1.1478 B( 16-S , 20-C ) :   1.1438 B( 17-C , 18-C ) :   1.6523
B( 17-C , 33-H ) :   0.9653 B( 18-C , 19-C ) :   1.1999 B( 18-C , 21-H ) :   0.9844
B( 19-C , 20-C ) :   1.5953 B( 19-C , 22-C ) :   1.0467 B( 22-C , 23-H ) :   0.9265
B( 22-C , 24-H ) :   0.9317 B( 22-C , 25-C ) :   1.0658 B( 25-C , 26-H ) :   0.9598
B( 25-C , 27-H ) :   0.9528 B( 25-C , 28-C ) :   1.0763 B( 28-C , 29-H ) :   0.9751
B( 28-C , 30-H ) :   0.9750 B( 28-C , 31-H ) :   0.9789

Dispersion correction           -0.013994086
FINAL SINGLE POINT ENERGY     -1339.862972055756

DIPOLE MOMENT
-------------
                                X             Y             Z
Electronic contribution:     21.90800      -8.63677      -3.80534
Nuclear contribution   :    -22.49843       9.11335       3.85244
                        -----------------------------------------
Total Dipole Moment    :     -0.59043       0.47657       0.04710
                        -----------------------------------------
Magnitude (a.u.)       :      0.76023
Magnitude (Debye)      :      1.93234

Rotational constants in cm-1:     0.017678     0.008122     0.006707
Rotational constants in MHz :   529.985457   243.493279   201.084844

                             ****ORCA TERMINATED NORMALLY****
TOTAL RUN TIME: 0 days 0 hours 0 minutes 28 seconds 915 msec
