                         Program Version 4.2.1 -  RELEASE  -
|  1> ! wB97X-D3 SP def2-SVP
|  2> %pal
|  3> nprocs 16
|  4> end
|  5>
|  6> * xyz 0 1
|  7> S 	 56.3369 	 14.8268 	 59.7808
|  8> C 	 57.1927 	 16.0356 	 60.7219
|  9> C 	 57.5437 	 15.5112 	 61.9598
| 10> C 	 57.0562 	 14.1969 	 62.1927
| 11> C 	 56.3867 	 13.6495 	 61.1042
| 12> H 	 57.1648 	 13.5342 	 63.0528
| 13> C 	 58.3148 	 16.2795 	 63.0409
| 14> H 	 59.3728 	 16.3411 	 62.6537
| 15> H 	 58.4193 	 15.7473 	 64.0001
| 16> C 	 57.7956 	 17.707 	 63.3808
| 17> H 	 58.4232 	 18.1361 	 64.1264
| 18> H 	 57.9186 	 18.2778 	 62.46
| 19> C 	 56.3724 	 17.7309 	 64.0066
| 20> H 	 55.6585 	 17.7438 	 63.13
| 21> H 	 56.1034 	 16.8924 	 64.6633
| 22> H 	 56.2548 	 18.6948 	 64.4776
| 23> S 	 54.3308 	 11.8834 	 60.8799
| 24> C 	 54.6355 	 10.1496 	 61.0143
| 25> C 	 55.9391 	 9.89337 	 61.1819
| 26> C 	 56.7588 	 11.061 	 61.2227
| 27> C 	 56.037 	 12.2321 	 60.9932
| 28> H 	 56.1942 	 8.83799 	 61.2959
| 29> C 	 58.2368 	 10.9282 	 61.5001
| 30> H 	 58.3384 	 10 	 62.0773
| 31> H 	 58.3564 	 11.734 	 62.277
| 32> C 	 59.1825 	 10.8978 	 60.3069
| 33> H 	 58.9622 	 10.0206 	 59.7234
| 34> H 	 60.2137 	 10.61 	 60.7061
| 35> C 	 59.2784 	 12.1683 	 59.4777
| 36> H 	 59.8478 	 12.0778 	 58.5453
| 37> H 	 59.7718 	 12.9608 	 60.103
| 38> H 	 58.2686 	 12.5896 	 59.237
| 39> H 	 57.5871 	 16.9767 	 60.1861
| 40> H 	 53.824 	 9.36763 	 60.9991
| 41> *
| 42>
| 43>                          ****END OF INPUT****

CARTESIAN COORDINATES (ANGSTROEM)
---------------------------------
  S     56.336900   14.826800   59.780800
  C     57.192700   16.035600   60.721900
  C     57.543700   15.511200   61.959800
  C     57.056200   14.196900   62.192700
  C     56.386700   13.649500   61.104200
  H     57.164800   13.534200   63.052800
  C     58.314800   16.279500   63.040900
  H     59.372800   16.341100   62.653700
  H     58.419300   15.747300   64.000100
  C     57.795600   17.707000   63.380800
  H     58.423200   18.136100   64.126400
  H     57.918600   18.277800   62.460000
  C     56.372400   17.730900   64.006600
  H     55.658500   17.743800   63.130000
  H     56.103400   16.892400   64.663300
  H     56.254800   18.694800   64.477600
  S     54.330800   11.883400   60.879900
  C     54.635500   10.149600   61.014300
  C     55.939100    9.893370   61.181900
  C     56.758800   11.061000   61.222700
  C     56.037000   12.232100   60.993200
  H     56.194200    8.837990   61.295900
  C     58.236800   10.928200   61.500100
  H     58.338400   10.000000   62.077300
  H     58.356400   11.734000   62.277000
  C     59.182500   10.897800   60.306900
  H     58.962200   10.020600   59.723400
  H     60.213700   10.610000   60.706100
  C     59.278400   12.168300   59.477700
  H     59.847800   12.077800   58.545300
  H     59.771800   12.960800   60.103000
  H     58.268600   12.589600   59.237000
  H     57.587100   16.976700   60.186100
  H     53.824000    9.367630   60.999100

 Total Charge           Charge          ....    0
 Multiplicity           Mult            ....    1
 Number of Electrons    NEL             ....  134
 Basis Dimension        Dim             ....  322

ORBITAL ENERGIES
----------------

  NO   OCC          E(Eh)            E(eV)
   0   2.0000     -88.968188     -2420.9475
   1   2.0000     -88.961101     -2420.7546
   2   2.0000     -10.331264      -281.1280
   3   2.0000     -10.326820      -281.0070
   4   2.0000     -10.324733      -280.9503
   5   2.0000     -10.317357      -280.7496
   6   2.0000     -10.307723      -280.4874
   7   2.0000     -10.304361      -280.3959
   8   2.0000     -10.297330      -280.2046
   9   2.0000     -10.296813      -280.1905
  10   2.0000     -10.293030      -280.0876
  11   2.0000     -10.289804      -279.9998
  12   2.0000     -10.288543      -279.9655
  13   2.0000     -10.286398      -279.9071
  14   2.0000     -10.279527      -279.7202
  15   2.0000     -10.275925      -279.6221
  16   2.0000      -8.082086      -219.9247
  17   2.0000      -8.076109      -219.7621
  18   2.0000      -6.040593      -164.3729
  19   2.0000      -6.036535      -164.2625
  20   2.0000      -6.034627      -164.2105
  21   2.0000      -6.033058      -164.1678
  22   2.0000      -6.030574      -164.1003
  23   2.0000      -6.026837      -163.9986
  24   2.0000      -1.005955       -27.3734
  25   2.0000      -0.984311       -26.7845
  26   2.0000      -0.906245       -24.6602
  27   2.0000      -0.904576       -24.6148
  28   2.0000      -0.870344       -23.6833
  29   2.0000      -0.847835       -23.0708
  30   2.0000      -0.842523       -22.9262
  31   2.0000      -0.813780       -22.1441
  32   2.0000      -0.779811       -21.2197
  33   2.0000      -0.768617       -20.9151
  34   2.0000      -0.704222       -19.1629
  35   2.0000      -0.698939       -19.0191
  36   2.0000      -0.687639       -18.7116
  37   2.0000      -0.657850       -17.9010
  38   2.0000      -0.640895       -17.4396
  39   2.0000      -0.607835       -16.5400
  40   2.0000      -0.585375       -15.9289
  41   2.0000      -0.575588       -15.6625
  42   2.0000      -0.549652       -14.9568
  43   2.0000      -0.545795       -14.8518
  44   2.0000      -0.543168       -14.7804
  45   2.0000      -0.529446       -14.4070
  46   2.0000      -0.517017       -14.0688
  47   2.0000      -0.508083       -13.8257
  48   2.0000      -0.503285       -13.6951
  49   2.0000      -0.494521       -13.4566
  50   2.0000      -0.488427       -13.2908
  51   2.0000      -0.483623       -13.1600
  52   2.0000      -0.471315       -12.8251
  53   2.0000      -0.459749       -12.5104
  54   2.0000      -0.455100       -12.3839
  55   2.0000      -0.440846       -11.9960
  56   2.0000      -0.437864       -11.9149
  57   2.0000      -0.435166       -11.8415
  58   2.0000      -0.431225       -11.7342
  59   2.0000      -0.423327       -11.5193
  60   2.0000      -0.420814       -11.4509
  61   2.0000      -0.410375       -11.1669
  62   2.0000      -0.401342       -10.9211
  63   2.0000      -0.345155        -9.3922
  64   2.0000      -0.332458        -9.0467
  65   2.0000      -0.327130        -8.9017
  66   2.0000      -0.298617        -8.1258
  67   0.0000       0.031876         0.8674
  68   0.0000       0.060965         1.6589
  69   0.0000       0.116240         3.1630
  70   0.0000       0.117186         3.1888
  71   0.0000       0.135089         3.6760

MULLIKEN ATOMIC CHARGES
-----------------------
   0 S :    0.110433
   1 C :   -0.165523
   2 C :   -0.063241
   3 C :    0.031421
   4 C :   -0.158280
   5 H :    0.027351
   6 C :    0.018758
   7 H :    0.045377
   8 H :    0.024071
   9 C :   -0.065958
  10 H :    0.023582
  11 H :    0.028285
  12 C :   -0.064854
  13 H :    0.043286
  14 H :    0.046025
  15 H :    0.034215
  16 S :    0.095281
  17 C :   -0.110354
  18 C :   -0.037653
  19 C :   -0.055538
  20 C :   -0.169648
  21 H :    0.022779
  22 C :    0.071955
  23 H :    0.015536
  24 H :    0.019856
  25 C :   -0.031748
  26 H :    0.016806
  27 H :    0.028885
  28 C :   -0.057344
  29 H :    0.039438
  30 H :    0.033405
  31 H :    0.037695
  32 H :    0.093710
  33 H :    0.071991
Sum of atomic charges:    0.0000000

LOEWDIN ATOMIC CHARGES
----------------------
   0 S :    0.404918
   1 C :   -0.213288
   2 C :   -0.066064
   3 C :   -0.061091
   4 C :   -0.194760
   5 H :    0.035843
   6 C :   -0.038552
   7 H :    0.038783
   8 H :    0.027220
   9 C :   -0.038448
  10 H :    0.018895
  11 H :    0.021709
  12 C :   -0.069629
  13 H :    0.034260
  14 H :    0.029068
  15 H :    0.024471
  16 S :    0.398094
  17 C :   -0.182601
  18 C :   -0.080910
  19 C :   -0.055476
  20 C :   -0.207359
  21 H :    0.037447
  22 C :   -0.037728
  23 H :    0.033158
  24 H :    0.033926
  25 C :   -0.043197
  26 H :    0.021470
  27 H :    0.030474
  28 C :   -0.074068
  29 H :    0.027475
  30 H :    0.031006
  31 H :    0.024468
  32 H :    0.049580
  33 H :    0.040907

  Mayer bond orders larger than 0.100000
B(  0-S ,  1-C ) :   1.1426 B(  0-S ,  4-C ) :   1.1620 B(  1-C ,  2-C ) :   1.5875
B(  1-C ,  4-C ) :   0.1010 B(  1-C , 32-H ) :   0.9580 B(  2-C ,  3-C ) :   1.2474
B(  2-C ,  6-C ) :   1.0070 B(  3-C ,  4-C ) :   1.5684 B(  3-C ,  5-H ) :   0.9920
B(  4-C , 20-C ) :   1.0128 B(  6-C ,  7-H ) :   0.9373 B(  6-C ,  8-H ) :   0.9528
B(  6-C ,  9-C ) :   1.0821 B(  9-C , 10-H ) :   0.9597 B(  9-C , 11-H ) :   0.9563
B(  9-C , 12-C ) :   1.0622 B( 12-C , 13-H ) :   0.9756 B( 12-C , 14-H ) :   0.9782
B( 12-C , 15-H ) :   0.9772 B( 16-S , 17-C ) :   1.1473 B( 16-S , 20-C ) :   1.1454
B( 17-C , 18-C ) :   1.6445 B( 17-C , 33-H ) :   0.9570 B( 18-C , 19-C ) :   1.2226
B( 18-C , 21-H ) :   0.9901 B( 19-C , 20-C ) :   1.6034 B( 19-C , 22-C ) :   1.0212
B( 22-C , 23-H ) :   0.9266 B( 22-C , 24-H ) :   0.9327 B( 22-C , 25-C ) :   1.0769
B( 25-C , 26-H ) :   0.9486 B( 25-C , 27-H ) :   0.9506 B( 25-C , 28-C ) :   1.0764
B( 28-C , 29-H ) :   0.9728 B( 28-C , 30-H ) :   0.9732 B( 28-C , 31-H ) :   0.9697

Dispersion correction           -0.015764563
FINAL SINGLE POINT ENERGY     -1339.884700985193

DIPOLE MOMENT
-------------
                                X             Y             Z
Electronic contribution:    -17.30751      -7.76975      -9.66339
Nuclear contribution   :     17.85000       7.64939      10.06122
                        -----------------------------------------
Total Dipole Moment    :      0.54250      -0.12036       0.39783
                        -----------------------------------------
Magnitude (a.u.)       :      0.68341
Magnitude (Debye)      :      1.73710

Rotational constants in cm-1:     0.021262     0.008488     0.007467
Rotational constants in MHz :   637.414827   254.468489   223.858068

                             ****ORCA TERMINATED NORMALLY****
TOTAL RUN TIME: 0 days 0 hours 0 minutes 31 seconds 379 msec
