                         Program Version 4.2.1 -  RELEASE  -
|  1> ! wB97X-D3 SP def2-SVP
|  2> %pal
|  3> nprocs 16
|  4> end
|  5>
|  6> * xyz 0 1
|  7> S 	 -37.7206 	 20.3983 	 79.7265
|  8> C 	 -39.0826 	 20.8166 	 78.7146
|  9> C 	 -38.7767 	 20.3134 	 77.4529
| 10> C 	 -37.7536 	 19.3403 	 77.4133
| 11> C 	 -36.9733 	 19.3084 	 78.5525
| 12> H 	 -37.4287 	 18.8019 	 76.4857
| 13> C 	 -39.7328 	 20.5458 	 76.317
| 14> H 	 -39.2618 	 21.2792 	 75.6978
| 15> H 	 -40.6754 	 20.9937 	 76.6707
| 16> C 	 -40.0201 	 19.4496 	 75.3722
| 17> H 	 -40.5709 	 19.809 	 74.5742
| 18> H 	 -39.1749 	 19.0167 	 74.8146
| 19> C 	 -40.6888 	 18.2056 	 76.0637
| 20> H 	 -40.8085 	 17.3644 	 75.3583
| 21> H 	 -40.2134 	 17.8072 	 76.9196
| 22> H 	 -41.6151 	 18.5384 	 76.4504
| 23> S 	 -34.4757 	 19.4978 	 79.5671
| 24> C 	 -33.4861 	 18.1168 	 79.803
| 25> C 	 -34.1266 	 16.9811 	 79.3519
| 26> C 	 -35.4207 	 17.2226 	 78.7565
| 27> C 	 -35.7817 	 18.5241 	 78.935
| 28> H 	 -33.6016 	 16.0392 	 79.3231
| 29> C 	 -36.1793 	 16.1634 	 78.0205
| 30> H 	 -36.5546 	 16.5137 	 77.0496
| 31> H 	 -37.1526 	 16.1701 	 78.4778
| 32> C 	 -35.4031 	 14.8439 	 77.8986
| 33> H 	 -34.9512 	 14.5682 	 78.8394
| 34> H 	 -34.6131 	 15.0042 	 77.1233
| 35> C 	 -36.3003 	 13.6436 	 77.4506
| 36> H 	 -35.6494 	 12.8033 	 77.2261
| 37> H 	 -36.9298 	 13.7969 	 76.5891
| 38> H 	 -36.9683 	 13.3864 	 78.3069
| 39> H 	 -39.886 	 21.5347 	 78.9155
| 40> H 	 -32.3921 	 18.1533 	 80.1062
| 41> *
| 42>
| 43>                          ****END OF INPUT****

CARTESIAN COORDINATES (ANGSTROEM)
---------------------------------
  S    -37.720600   20.398300   79.726500
  C    -39.082600   20.816600   78.714600
  C    -38.776700   20.313400   77.452900
  C    -37.753600   19.340300   77.413300
  C    -36.973300   19.308400   78.552500
  H    -37.428700   18.801900   76.485700
  C    -39.732800   20.545800   76.317000
  H    -39.261800   21.279200   75.697800
  H    -40.675400   20.993700   76.670700
  C    -40.020100   19.449600   75.372200
  H    -40.570900   19.809000   74.574200
  H    -39.174900   19.016700   74.814600
  C    -40.688800   18.205600   76.063700
  H    -40.808500   17.364400   75.358300
  H    -40.213400   17.807200   76.919600
  H    -41.615100   18.538400   76.450400
  S    -34.475700   19.497800   79.567100
  C    -33.486100   18.116800   79.803000
  C    -34.126600   16.981100   79.351900
  C    -35.420700   17.222600   78.756500
  C    -35.781700   18.524100   78.935000
  H    -33.601600   16.039200   79.323100
  C    -36.179300   16.163400   78.020500
  H    -36.554600   16.513700   77.049600
  H    -37.152600   16.170100   78.477800
  C    -35.403100   14.843900   77.898600
  H    -34.951200   14.568200   78.839400
  H    -34.613100   15.004200   77.123300
  C    -36.300300   13.643600   77.450600
  H    -35.649400   12.803300   77.226100
  H    -36.929800   13.796900   76.589100
  H    -36.968300   13.386400   78.306900
  H    -39.886000   21.534700   78.915500
  H    -32.392100   18.153300   80.106200

 Total Charge           Charge          ....    0
 Multiplicity           Mult            ....    1
 Number of Electrons    NEL             ....  134
 Basis Dimension        Dim             ....  322

ORBITAL ENERGIES
----------------

  NO   OCC          E(Eh)            E(eV)
   0   2.0000     -88.963565     -2420.8217
   1   2.0000     -88.961720     -2420.7715
   2   2.0000     -10.333664      -281.1933
   3   2.0000     -10.323810      -280.9251
   4   2.0000     -10.318877      -280.7909
   5   2.0000     -10.315321      -280.6942
   6   2.0000     -10.302943      -280.3573
   7   2.0000     -10.298749      -280.2432
   8   2.0000     -10.296977      -280.1950
   9   2.0000     -10.295741      -280.1614
  10   2.0000     -10.292098      -280.0622
  11   2.0000     -10.292068      -280.0614
  12   2.0000     -10.285187      -279.8742
  13   2.0000     -10.282597      -279.8037
  14   2.0000     -10.280688      -279.7517
  15   2.0000     -10.269181      -279.4386
  16   2.0000      -8.079088      -219.8432
  17   2.0000      -8.076229      -219.7654
  18   2.0000      -6.037587      -164.2911
  19   2.0000      -6.034768      -164.2144
  20   2.0000      -6.033454      -164.1786
  21   2.0000      -6.030603      -164.1011
  22   2.0000      -6.029829      -164.0800
  23   2.0000      -6.027088      -164.0054
  24   2.0000      -1.009790       -27.4778
  25   2.0000      -0.988399       -26.8957
  26   2.0000      -0.917718       -24.9724
  27   2.0000      -0.912307       -24.8251
  28   2.0000      -0.868958       -23.6455
  29   2.0000      -0.850806       -23.1516
  30   2.0000      -0.838342       -22.8124
  31   2.0000      -0.818026       -22.2596
  32   2.0000      -0.786189       -21.3933
  33   2.0000      -0.776160       -21.1204
  34   2.0000      -0.716039       -19.4844
  35   2.0000      -0.707701       -19.2575
  36   2.0000      -0.691524       -18.8173
  37   2.0000      -0.650282       -17.6951
  38   2.0000      -0.638117       -17.3641
  39   2.0000      -0.622679       -16.9440
  40   2.0000      -0.602382       -16.3917
  41   2.0000      -0.567188       -15.4340
  42   2.0000      -0.565402       -15.3854
  43   2.0000      -0.558368       -15.1940
  44   2.0000      -0.534169       -14.5355
  45   2.0000      -0.533144       -14.5076
  46   2.0000      -0.519568       -14.1382
  47   2.0000      -0.512432       -13.9440
  48   2.0000      -0.506128       -13.7724
  49   2.0000      -0.495910       -13.4944
  50   2.0000      -0.486621       -13.2416
  51   2.0000      -0.485748       -13.2179
  52   2.0000      -0.474528       -12.9126
  53   2.0000      -0.463752       -12.6193
  54   2.0000      -0.461258       -12.5515
  55   2.0000      -0.457343       -12.4449
  56   2.0000      -0.447360       -12.1733
  57   2.0000      -0.436467       -11.8769
  58   2.0000      -0.435282       -11.8446
  59   2.0000      -0.426408       -11.6032
  60   2.0000      -0.419578       -11.4173
  61   2.0000      -0.410073       -11.1587
  62   2.0000      -0.406809       -11.0698
  63   2.0000      -0.348828        -9.4921
  64   2.0000      -0.327964        -8.9244
  65   2.0000      -0.326913        -8.8958
  66   2.0000      -0.290831        -7.9139
  67   0.0000       0.032582         0.8866
  68   0.0000       0.067569         1.8386
  69   0.0000       0.114989         3.1290
  70   0.0000       0.125226         3.4076
  71   0.0000       0.131332         3.5737

MULLIKEN ATOMIC CHARGES
-----------------------
   0 S :    0.100654
   1 C :   -0.131939
   2 C :   -0.108206
   3 C :   -0.003738
   4 C :   -0.133341
   5 H :    0.035496
   6 C :    0.092779
   7 H :    0.026378
   8 H :    0.020053
   9 C :   -0.060205
  10 H :    0.008574
  11 H :    0.015068
  12 C :   -0.036539
  13 H :    0.033272
  14 H :    0.027126
  15 H :    0.010136
  16 S :    0.113481
  17 C :   -0.103403
  18 C :   -0.059808
  19 C :   -0.037488
  20 C :   -0.155275
  21 H :    0.017387
  22 C :    0.094653
  23 H :    0.016600
  24 H :    0.021163
  25 C :   -0.109000
  26 H :    0.047285
  27 H :    0.045825
  28 C :   -0.039514
  29 H :    0.033661
  30 H :    0.029989
  31 H :    0.040197
  32 H :    0.065878
  33 H :    0.082799
Sum of atomic charges:   -0.0000000

LOEWDIN ATOMIC CHARGES
----------------------
   0 S :    0.401301
   1 C :   -0.205658
   2 C :   -0.065351
   3 C :   -0.080831
   4 C :   -0.184070
   5 H :    0.039466
   6 C :   -0.034062
   7 H :    0.034804
   8 H :    0.032061
   9 C :   -0.040229
  10 H :    0.018422
  11 H :    0.023129
  12 C :   -0.061497
  13 H :    0.027116
  14 H :    0.020056
  15 H :    0.016964
  16 S :    0.423703
  17 C :   -0.206772
  18 C :   -0.079451
  19 C :   -0.051638
  20 C :   -0.204032
  21 H :    0.028620
  22 C :   -0.039260
  23 H :    0.034256
  24 H :    0.035998
  25 C :   -0.037175
  26 H :    0.024137
  27 H :    0.032004
  28 C :   -0.064281
  29 H :    0.025898
  30 H :    0.020999
  31 H :    0.030979
  32 H :    0.037575
  33 H :    0.046821

  Mayer bond orders larger than 0.100000
B(  0-S ,  1-C ) :   1.1375 B(  0-S ,  4-C ) :   1.1659 B(  1-C ,  2-C ) :   1.5761
B(  1-C ,  4-C ) :   0.1117 B(  1-C , 32-H ) :   0.9702 B(  2-C ,  3-C ) :   1.2632
B(  2-C ,  6-C ) :   1.0293 B(  3-C ,  4-C ) :   1.5650 B(  3-C ,  5-H ) :   0.9791
B(  4-C , 20-C ) :   1.0085 B(  6-C ,  7-H ) :   0.9113 B(  6-C ,  8-H ) :   0.9464
B(  6-C ,  9-C ) :   1.1059 B(  9-C , 10-H ) :   0.9448 B(  9-C , 11-H ) :   0.9428
B(  9-C , 12-C ) :   1.0663 B( 12-C , 13-H ) :   0.9774 B( 12-C , 14-H ) :   0.9763
B( 12-C , 15-H ) :   0.9750 B( 16-S , 17-C ) :   1.1624 B( 16-S , 20-C ) :   1.1523
B( 17-C , 18-C ) :   1.6009 B( 17-C , 33-H ) :   0.9553 B( 18-C , 19-C ) :   1.2403
B( 18-C , 21-H ) :   0.9818 B( 19-C , 20-C ) :   1.6148 B( 19-C , 22-C ) :   1.0388
B( 22-C , 23-H ) :   0.9221 B( 22-C , 24-H ) :   0.9182 B( 22-C , 25-C ) :   1.0649
B( 25-C , 26-H ) :   0.9507 B( 25-C , 27-H ) :   0.9535 B( 25-C , 28-C ) :   1.0806
B( 28-C , 29-H ) :   0.9741 B( 28-C , 30-H ) :   0.9761 B( 28-C , 31-H ) :   0.9777

Dispersion correction           -0.014061157
FINAL SINGLE POINT ENERGY     -1339.869115528460

DIPOLE MOMENT
-------------
                                X             Y             Z
Electronic contribution:     13.27438      20.09890      18.13023
Nuclear contribution   :    -13.38010     -20.50840     -18.77879
                        -----------------------------------------
Total Dipole Moment    :     -0.10572      -0.40950      -0.64856
                        -----------------------------------------
Magnitude (a.u.)       :      0.77427
Magnitude (Debye)      :      1.96804

Rotational constants in cm-1:     0.016635     0.009635     0.006556
Rotational constants in MHz :   498.711625   288.861961   196.544847

                             ****ORCA TERMINATED NORMALLY****
TOTAL RUN TIME: 0 days 0 hours 0 minutes 30 seconds 672 msec
