                         Program Version 4.2.1 -  RELEASE  -
|  1> ! wB97X-D3 SP def2-SVP
|  2> %pal
|  3> nprocs 16
|  4> end
|  5>
|  6> * xyz 0 1
|  7> S 	 -31.4701 	 34.258 	 39.7143
|  8> C 	 -31.1292 	 35.163 	 38.2454
|  9> C 	 -30.5582 	 36.3653 	 38.7155
| 10> C 	 -30.3272 	 36.5256 	 40.0929
| 11> C 	 -30.6128 	 35.4101 	 40.81
| 12> H 	 -29.8624 	 37.3184 	 40.6045
| 13> C 	 -30.0523 	 37.4401 	 37.756
| 14> H 	 -30.7183 	 38.3362 	 37.7548
| 15> H 	 -30.2118 	 36.9357 	 36.7809
| 16> C 	 -28.5375 	 37.935 	 37.9564
| 17> H 	 -28.2311 	 38.6553 	 37.2014
| 18> H 	 -28.511 	 38.5324 	 38.8779
| 19> C 	 -27.4164 	 36.8289 	 37.9329
| 20> H 	 -26.9791 	 36.766 	 36.9239
| 21> H 	 -26.5419 	 37.1087 	 38.5344
| 22> H 	 -27.6004 	 35.8084 	 38.3174
| 23> S 	 -30.5256 	 33.4085 	 42.5608
| 24> C 	 -29.8499 	 33.5341 	 44.1434
| 25> C 	 -29.3499 	 34.773 	 44.4155
| 26> C 	 -29.5099 	 35.6578 	 43.3103
| 27> C 	 -30.1274 	 35.0507 	 42.1916
| 28> H 	 -28.9083 	 35.0193 	 45.3384
| 29> C 	 -29.0853 	 37.0612 	 43.2975
| 30> H 	 -29.4134 	 37.4248 	 44.2528
| 31> H 	 -29.7877 	 37.6936 	 42.6895
| 32> C 	 -27.5668 	 37.3493 	 43.0215
| 33> H 	 -26.9278 	 36.8082 	 43.7491
| 34> H 	 -27.4602 	 38.4063 	 43.0265
| 35> C 	 -26.9707 	 37.0585 	 41.6175
| 36> H 	 -25.9442 	 37.3524 	 41.4259
| 37> H 	 -27.5634 	 37.5561 	 40.8489
| 38> H 	 -27.1632 	 36.0146 	 41.4012
| 39> H 	 -31.4372 	 34.9412 	 37.2382
| 40> H 	 -29.7762 	 32.6875 	 44.8214
| 41> *
| 42>
| 43>                          ****END OF INPUT****

CARTESIAN COORDINATES (ANGSTROEM)
---------------------------------
  S    -31.470100   34.258000   39.714300
  C    -31.129200   35.163000   38.245400
  C    -30.558200   36.365300   38.715500
  C    -30.327200   36.525600   40.092900
  C    -30.612800   35.410100   40.810000
  H    -29.862400   37.318400   40.604500
  C    -30.052300   37.440100   37.756000
  H    -30.718300   38.336200   37.754800
  H    -30.211800   36.935700   36.780900
  C    -28.537500   37.935000   37.956400
  H    -28.231100   38.655300   37.201400
  H    -28.511000   38.532400   38.877900
  C    -27.416400   36.828900   37.932900
  H    -26.979100   36.766000   36.923900
  H    -26.541900   37.108700   38.534400
  H    -27.600400   35.808400   38.317400
  S    -30.525600   33.408500   42.560800
  C    -29.849900   33.534100   44.143400
  C    -29.349900   34.773000   44.415500
  C    -29.509900   35.657800   43.310300
  C    -30.127400   35.050700   42.191600
  H    -28.908300   35.019300   45.338400
  C    -29.085300   37.061200   43.297500
  H    -29.413400   37.424800   44.252800
  H    -29.787700   37.693600   42.689500
  C    -27.566800   37.349300   43.021500
  H    -26.927800   36.808200   43.749100
  H    -27.460200   38.406300   43.026500
  C    -26.970700   37.058500   41.617500
  H    -25.944200   37.352400   41.425900
  H    -27.563400   37.556100   40.848900
  H    -27.163200   36.014600   41.401200
  H    -31.437200   34.941200   37.238200
  H    -29.776200   32.687500   44.821400

 Total Charge           Charge          ....    0
 Multiplicity           Mult            ....    1
 Number of Electrons    NEL             ....  134
 Basis Dimension        Dim             ....  322

ORBITAL ENERGIES
----------------

  NO   OCC          E(Eh)            E(eV)
   0   2.0000     -88.965062     -2420.8624
   1   2.0000     -88.964562     -2420.8488
   2   2.0000     -10.339207      -281.3441
   3   2.0000     -10.334033      -281.2033
   4   2.0000     -10.320378      -280.8318
   5   2.0000     -10.315811      -280.7075
   6   2.0000     -10.306854      -280.4638
   7   2.0000     -10.303106      -280.3618
   8   2.0000     -10.297771      -280.2166
   9   2.0000     -10.297599      -280.2119
  10   2.0000     -10.296740      -280.1885
  11   2.0000     -10.293168      -280.0914
  12   2.0000     -10.293008      -280.0870
  13   2.0000     -10.286087      -279.8986
  14   2.0000     -10.279871      -279.7295
  15   2.0000     -10.275157      -279.6012
  16   2.0000      -8.080375      -219.8782
  17   2.0000      -8.078608      -219.8301
  18   2.0000      -6.038764      -164.3231
  19   2.0000      -6.037463      -164.2877
  20   2.0000      -6.034630      -164.2106
  21   2.0000      -6.033204      -164.1718
  22   2.0000      -6.031298      -164.1200
  23   2.0000      -6.029112      -164.0605
  24   2.0000      -1.009815       -27.4785
  25   2.0000      -0.986667       -26.8486
  26   2.0000      -0.911236       -24.7960
  27   2.0000      -0.894942       -24.3526
  28   2.0000      -0.869367       -23.6567
  29   2.0000      -0.855085       -23.2680
  30   2.0000      -0.840464       -22.8702
  31   2.0000      -0.823569       -22.4105
  32   2.0000      -0.781725       -21.2718
  33   2.0000      -0.767272       -20.8785
  34   2.0000      -0.711353       -19.3569
  35   2.0000      -0.699087       -19.0231
  36   2.0000      -0.696172       -18.9438
  37   2.0000      -0.665575       -18.1112
  38   2.0000      -0.642358       -17.4795
  39   2.0000      -0.625991       -17.0341
  40   2.0000      -0.600543       -16.3416
  41   2.0000      -0.561093       -15.2681
  42   2.0000      -0.553936       -15.0734
  43   2.0000      -0.547225       -14.8908
  44   2.0000      -0.541516       -14.7354
  45   2.0000      -0.535004       -14.5582
  46   2.0000      -0.525125       -14.2894
  47   2.0000      -0.517257       -14.0753
  48   2.0000      -0.502346       -13.6695
  49   2.0000      -0.498335       -13.5604
  50   2.0000      -0.488587       -13.2951
  51   2.0000      -0.479052       -13.0357
  52   2.0000      -0.473908       -12.8957
  53   2.0000      -0.463756       -12.6195
  54   2.0000      -0.453433       -12.3385
  55   2.0000      -0.450661       -12.2631
  56   2.0000      -0.448986       -12.2175
  57   2.0000      -0.438864       -11.9421
  58   2.0000      -0.431110       -11.7311
  59   2.0000      -0.424709       -11.5569
  60   2.0000      -0.413122       -11.2416
  61   2.0000      -0.408067       -11.1041
  62   2.0000      -0.398211       -10.8359
  63   2.0000      -0.365289        -9.9400
  64   2.0000      -0.338325        -9.2063
  65   2.0000      -0.323623        -8.8062
  66   2.0000      -0.282909        -7.6984
  67   0.0000       0.016278         0.4429
  68   0.0000       0.085654         2.3308
  69   0.0000       0.099453         2.7063
  70   0.0000       0.119177         3.2430
  71   0.0000       0.130594         3.5536

MULLIKEN ATOMIC CHARGES
-----------------------
   0 S :    0.079408
   1 C :   -0.097613
   2 C :   -0.108812
   3 C :    0.025914
   4 C :   -0.064874
   5 H :   -0.024434
   6 C :    0.056984
   7 H :    0.046287
   8 H :    0.012596
   9 C :   -0.081055
  10 H :    0.032137
  11 H :    0.032832
  12 C :   -0.077408
  13 H :    0.032896
  14 H :    0.024445
  15 H :    0.053960
  16 S :    0.091028
  17 C :   -0.077271
  18 C :   -0.002377
  19 C :   -0.070445
  20 C :   -0.130226
  21 H :   -0.000352
  22 C :    0.029245
  23 H :    0.013795
  24 H :    0.032151
  25 C :   -0.034272
  26 H :    0.039398
  27 H :    0.025837
  28 C :   -0.052547
  29 H :    0.045416
  30 H :   -0.003478
  31 H :    0.035555
  32 H :    0.057120
  33 H :    0.058160
Sum of atomic charges:   -0.0000000

LOEWDIN ATOMIC CHARGES
----------------------
   0 S :    0.369471
   1 C :   -0.197499
   2 C :   -0.063085
   3 C :   -0.070044
   4 C :   -0.160796
   5 H :    0.020086
   6 C :   -0.035573
   7 H :    0.035124
   8 H :    0.026802
   9 C :   -0.041810
  10 H :    0.028454
  11 H :    0.018606
  12 C :   -0.080635
  13 H :    0.027693
  14 H :    0.026939
  15 H :    0.031700
  16 S :    0.427447
  17 C :   -0.185557
  18 C :   -0.066131
  19 C :   -0.063230
  20 C :   -0.191931
  21 H :    0.027418
  22 C :   -0.042594
  23 H :    0.033924
  24 H :    0.036658
  25 C :   -0.030447
  26 H :    0.028579
  27 H :    0.021795
  28 C :   -0.068554
  29 H :    0.028796
  30 H :    0.018661
  31 H :    0.025174
  32 H :    0.034359
  33 H :    0.030201

  Mayer bond orders larger than 0.100000
B(  0-S ,  1-C ) :   1.1140 B(  0-S ,  4-C ) :   1.1384 B(  1-C ,  2-C ) :   1.5890
B(  1-C ,  4-C ) :   0.1010 B(  1-C , 32-H ) :   0.9726 B(  2-C ,  3-C ) :   1.2353
B(  2-C ,  6-C ) :   1.0298 B(  3-C ,  4-C ) :   1.5861 B(  3-C ,  5-H ) :   0.9989
B(  4-C , 20-C ) :   1.0503 B(  6-C ,  7-H ) :   0.9405 B(  6-C ,  8-H ) :   0.9469
B(  6-C ,  9-C ) :   1.0549 B(  9-C , 10-H ) :   0.9574 B(  9-C , 11-H ) :   0.9585
B(  9-C , 12-C ) :   1.0559 B( 12-C , 13-H ) :   0.9786 B( 12-C , 14-H ) :   0.9725
B( 12-C , 15-H ) :   0.9794 B( 16-S , 17-C ) :   1.1781 B( 16-S , 20-C ) :   1.1492
B( 17-C , 18-C ) :   1.5799 B( 17-C , 33-H ) :   0.9666 B( 18-C , 19-C ) :   1.2658
B( 18-C , 21-H ) :   1.0029 B( 19-C , 20-C ) :   1.5484 B( 19-C , 22-C ) :   1.0419
B( 22-C , 23-H ) :   0.9196 B( 22-C , 24-H ) :   0.9339 B( 22-C , 25-C ) :   1.0667
B( 25-C , 26-H ) :   0.9571 B( 25-C , 27-H ) :   0.9552 B( 25-C , 28-C ) :   1.0787
B( 28-C , 29-H ) :   0.9714 B( 28-C , 30-H ) :   0.9652 B( 28-C , 31-H ) :   0.9739

Dispersion correction           -0.016717416
FINAL SINGLE POINT ENERGY     -1339.857105253463

DIPOLE MOMENT
-------------
                                X             Y             Z
Electronic contribution:    -20.16559     -20.54628       7.46764
Nuclear contribution   :     20.63738      21.09908      -7.35105
                        -----------------------------------------
Total Dipole Moment    :      0.47179       0.55280       0.11660
                        -----------------------------------------
Magnitude (a.u.)       :      0.73605
Magnitude (Debye)      :      1.87088

Rotational constants in cm-1:     0.018517     0.011193     0.007708
Rotational constants in MHz :   555.116762   335.561637   231.090123

                             ****ORCA TERMINATED NORMALLY****
TOTAL RUN TIME: 0 days 0 hours 0 minutes 36 seconds 118 msec
