                         Program Version 4.2.1 -  RELEASE  -
|  1> ! wB97X-D3 SP def2-SVP
|  2> %pal
|  3> nprocs 16
|  4> end
|  5>
|  6> * xyz 0 1
|  7> S 	 -53.6593 	 44.425 	 107.317
|  8> C 	 -52.3879 	 45.6641 	 107.087
|  9> C 	 -52.7828 	 46.8301 	 107.699
| 10> C 	 -54.1535 	 46.78 	 108.086
| 11> C 	 -54.7697 	 45.5953 	 107.827
| 12> H 	 -54.7882 	 47.5473 	 108.459
| 13> C 	 -51.9718 	 48.0367 	 107.925
| 14> H 	 -51.0157 	 47.7539 	 108.208
| 15> H 	 -52.397 	 48.5409 	 108.759
| 16> C 	 -51.8804 	 48.976 	 106.718
| 17> H 	 -51.4116 	 48.5156 	 105.894
| 18> H 	 -52.8805 	 49.253 	 106.357
| 19> C 	 -51.2127 	 50.2943 	 107.011
| 20> H 	 -51.7895 	 51.0616 	 107.539
| 21> H 	 -50.2508 	 50.138 	 107.527
| 22> H 	 -51.059 	 50.7295 	 105.986
| 23> S 	 -57.4077 	 45.1648 	 106.894
| 24> C 	 -58.6577 	 44.7662 	 108.042
| 25> C 	 -58.1244 	 44.8806 	 109.369
| 26> C 	 -56.6829 	 45.0507 	 109.377
| 27> C 	 -56.1271 	 45.2409 	 108.149
| 28> H 	 -58.8121 	 44.6654 	 110.245
| 29> C 	 -56.0151 	 45.2527 	 110.724
| 30> H 	 -56.6999 	 45.7493 	 111.376
| 31> H 	 -55.2222 	 45.9429 	 110.553
| 32> C 	 -55.4941 	 44.024 	 111.544
| 33> H 	 -54.7045 	 43.6714 	 110.909
| 34> H 	 -56.2292 	 43.2268 	 111.702
| 35> C 	 -54.8534 	 44.5723 	 112.822
| 36> H 	 -55.4851 	 45.1783 	 113.521
| 37> H 	 -53.9564 	 45.1393 	 112.604
| 38> H 	 -54.5044 	 43.7136 	 113.346
| 39> H 	 -51.4304 	 45.3744 	 106.578
| 40> H 	 -59.6313 	 44.2691 	 107.903
| 41> *
| 42>
| 43>                          ****END OF INPUT****

CARTESIAN COORDINATES (ANGSTROEM)
---------------------------------
  S    -53.659300   44.425000  107.317000
  C    -52.387900   45.664100  107.087000
  C    -52.782800   46.830100  107.699000
  C    -54.153500   46.780000  108.086000
  C    -54.769700   45.595300  107.827000
  H    -54.788200   47.547300  108.459000
  C    -51.971800   48.036700  107.925000
  H    -51.015700   47.753900  108.208000
  H    -52.397000   48.540900  108.759000
  C    -51.880400   48.976000  106.718000
  H    -51.411600   48.515600  105.894000
  H    -52.880500   49.253000  106.357000
  C    -51.212700   50.294300  107.011000
  H    -51.789500   51.061600  107.539000
  H    -50.250800   50.138000  107.527000
  H    -51.059000   50.729500  105.986000
  S    -57.407700   45.164800  106.894000
  C    -58.657700   44.766200  108.042000
  C    -58.124400   44.880600  109.369000
  C    -56.682900   45.050700  109.377000
  C    -56.127100   45.240900  108.149000
  H    -58.812100   44.665400  110.245000
  C    -56.015100   45.252700  110.724000
  H    -56.699900   45.749300  111.376000
  H    -55.222200   45.942900  110.553000
  C    -55.494100   44.024000  111.544000
  H    -54.704500   43.671400  110.909000
  H    -56.229200   43.226800  111.702000
  C    -54.853400   44.572300  112.822000
  H    -55.485100   45.178300  113.521000
  H    -53.956400   45.139300  112.604000
  H    -54.504400   43.713600  113.346000
  H    -51.430400   45.374400  106.578000
  H    -59.631300   44.269100  107.903000

 Total Charge           Charge          ....    0
 Multiplicity           Mult            ....    1
 Number of Electrons    NEL             ....  134
 Basis Dimension        Dim             ....  322

ORBITAL ENERGIES
----------------

  NO   OCC          E(Eh)            E(eV)
   0   2.0000     -88.964582     -2420.8493
   1   2.0000     -88.961659     -2420.7698
   2   2.0000     -10.323506      -280.9169
   3   2.0000     -10.323301      -280.9113
   4   2.0000     -10.320062      -280.8232
   5   2.0000     -10.319433      -280.8060
   6   2.0000     -10.301551      -280.3195
   7   2.0000     -10.301214      -280.3103
   8   2.0000     -10.300781      -280.2985
   9   2.0000     -10.288162      -279.9551
  10   2.0000     -10.284967      -279.8682
  11   2.0000     -10.281939      -279.7858
  12   2.0000     -10.281561      -279.7755
  13   2.0000     -10.281196      -279.7656
  14   2.0000     -10.280581      -279.7488
  15   2.0000     -10.275927      -279.6222
  16   2.0000      -8.078523      -219.8278
  17   2.0000      -8.077266      -219.7936
  18   2.0000      -6.037247      -164.2818
  19   2.0000      -6.035675      -164.2391
  20   2.0000      -6.032984      -164.1658
  21   2.0000      -6.031676      -164.1302
  22   2.0000      -6.029245      -164.0641
  23   2.0000      -6.028033      -164.0311
  24   2.0000      -1.010518       -27.4976
  25   2.0000      -0.980516       -26.6812
  26   2.0000      -0.921331       -25.0707
  27   2.0000      -0.905255       -24.6332
  28   2.0000      -0.871620       -23.7180
  29   2.0000      -0.852940       -23.2097
  30   2.0000      -0.844611       -22.9830
  31   2.0000      -0.811275       -22.0759
  32   2.0000      -0.783468       -21.3193
  33   2.0000      -0.770735       -20.9728
  34   2.0000      -0.704087       -19.1592
  35   2.0000      -0.703165       -19.1341
  36   2.0000      -0.692455       -18.8427
  37   2.0000      -0.655917       -17.8484
  38   2.0000      -0.650899       -17.7119
  39   2.0000      -0.620322       -16.8798
  40   2.0000      -0.589288       -16.0354
  41   2.0000      -0.571631       -15.5549
  42   2.0000      -0.565496       -15.3879
  43   2.0000      -0.560374       -15.2485
  44   2.0000      -0.532801       -14.4982
  45   2.0000      -0.524439       -14.2707
  46   2.0000      -0.518721       -14.1151
  47   2.0000      -0.513840       -13.9823
  48   2.0000      -0.509989       -13.8775
  49   2.0000      -0.497454       -13.5364
  50   2.0000      -0.495329       -13.4786
  51   2.0000      -0.474577       -12.9139
  52   2.0000      -0.468590       -12.7510
  53   2.0000      -0.464657       -12.6440
  54   2.0000      -0.462261       -12.5788
  55   2.0000      -0.451662       -12.2903
  56   2.0000      -0.440425       -11.9846
  57   2.0000      -0.436909       -11.8889
  58   2.0000      -0.434978       -11.8363
  59   2.0000      -0.424383       -11.5481
  60   2.0000      -0.417772       -11.3682
  61   2.0000      -0.415453       -11.3050
  62   2.0000      -0.410108       -11.1596
  63   2.0000      -0.331546        -9.0218
  64   2.0000      -0.324353        -8.8261
  65   2.0000      -0.320838        -8.7305
  66   2.0000      -0.312847        -8.5130
  67   0.0000       0.034494         0.9386
  68   0.0000       0.059402         1.6164
  69   0.0000       0.107055         2.9131
  70   0.0000       0.113178         3.0797
  71   0.0000       0.138918         3.7802

MULLIKEN ATOMIC CHARGES
-----------------------
   0 S :    0.107605
   1 C :   -0.165345
   2 C :   -0.067310
   3 C :    0.049006
   4 C :   -0.179523
   5 H :    0.003255
   6 C :    0.145304
   7 H :   -0.000025
   8 H :    0.006445
   9 C :   -0.061305
  10 H :    0.017860
  11 H :    0.022324
  12 C :   -0.062548
  13 H :    0.038755
  14 H :    0.032152
  15 H :    0.036486
  16 S :    0.111593
  17 C :   -0.112160
  18 C :   -0.075112
  19 C :    0.006607
  20 C :   -0.175870
  21 H :    0.046595
  22 C :    0.060412
  23 H :    0.009259
  24 H :    0.001570
  25 C :   -0.052870
  26 H :    0.025377
  27 H :    0.037473
  28 C :   -0.044910
  29 H :    0.038378
  30 H :    0.029107
  31 H :    0.024002
  32 H :    0.069778
  33 H :    0.077636
Sum of atomic charges:   -0.0000000

LOEWDIN ATOMIC CHARGES
----------------------
   0 S :    0.414059
   1 C :   -0.189522
   2 C :   -0.058453
   3 C :   -0.058821
   4 C :   -0.212793
   5 H :    0.029322
   6 C :   -0.025167
   7 H :    0.021510
   8 H :    0.029363
   9 C :   -0.034806
  10 H :    0.018554
  11 H :    0.027446
  12 C :   -0.070040
  13 H :    0.024530
  14 H :    0.023504
  15 H :    0.035028
  16 S :    0.393487
  17 C :   -0.200298
  18 C :   -0.079727
  19 C :   -0.053194
  20 C :   -0.200299
  21 H :    0.039814
  22 C :   -0.029111
  23 H :    0.023691
  24 H :    0.023373
  25 C :   -0.030936
  26 H :    0.024722
  27 H :    0.024545
  28 C :   -0.066490
  29 H :    0.027739
  30 H :    0.026536
  31 H :    0.022988
  32 H :    0.037572
  33 H :    0.041870

  Mayer bond orders larger than 0.100000
B(  0-S ,  1-C ) :   1.1345 B(  0-S ,  4-C ) :   1.1711 B(  1-C ,  2-C ) :   1.5899
B(  1-C , 32-H ) :   0.9733 B(  2-C ,  3-C ) :   1.2199 B(  2-C ,  6-C ) :   1.0361
B(  3-C ,  4-C ) :   1.5933 B(  3-C ,  5-H ) :   1.0012 B(  4-C , 20-C ) :   1.0167
B(  6-C ,  7-H ) :   0.9201 B(  6-C ,  8-H ) :   0.9324 B(  6-C ,  9-C ) :   1.0736
B(  9-C , 10-H ) :   0.9559 B(  9-C , 11-H ) :   0.9524 B(  9-C , 12-C ) :   1.0878
B( 12-C , 13-H ) :   0.9766 B( 12-C , 14-H ) :   0.9721 B( 12-C , 15-H ) :   0.9730
B( 16-S , 17-C ) :   1.1655 B( 16-S , 20-C ) :   1.1139 B( 17-C , 18-C ) :   1.6044
B( 17-C , 33-H ) :   0.9618 B( 18-C , 19-C ) :   1.2386 B( 18-C , 21-H ) :   0.9753
B( 19-C , 20-C ) :   1.6185 B( 19-C , 22-C ) :   1.0339 B( 22-C , 23-H ) :   0.9410
B( 22-C , 24-H ) :   0.9313 B( 22-C , 25-C ) :   1.0614 B( 25-C , 26-H ) :   0.9492
B( 25-C , 27-H ) :   0.9603 B( 25-C , 28-C ) :   1.0856 B( 28-C , 29-H ) :   0.9758
B( 28-C , 30-H ) :   0.9721 B( 28-C , 31-H ) :   0.9717

Dispersion correction           -0.013939379
FINAL SINGLE POINT ENERGY     -1339.864656031295

DIPOLE MOMENT
-------------
                                X             Y             Z
Electronic contribution:    -13.54322     -14.22811     -15.49451
Nuclear contribution   :     13.82018      14.53207      15.95325
                        -----------------------------------------
Total Dipole Moment    :      0.27696       0.30397       0.45874
                        -----------------------------------------
Magnitude (a.u.)       :      0.61607
Magnitude (Debye)      :      1.56593

Rotational constants in cm-1:     0.017936     0.007946     0.006726
Rotational constants in MHz :   537.701444   238.211786   201.633503

                             ****ORCA TERMINATED NORMALLY****
TOTAL RUN TIME: 0 days 0 hours 0 minutes 27 seconds 975 msec
