                         Program Version 4.2.1 -  RELEASE  -
|  1> ! wB97X-D3 SP def2-SVP
|  2> %pal
|  3> nprocs 16
|  4> end
|  5>
|  6> * xyz 0 1
|  7> S 	 0.148447 	 4.71287 	 82.0094
|  8> C 	 1.4399 	 5.37597 	 81.054
|  9> C 	 1.08664 	 5.5312 	 79.7574
| 10> C 	 -0.281651 	 5.11879 	 79.4727
| 11> C 	 -0.908993 	 4.58554 	 80.581
| 12> H 	 -0.713145 	 5.09331 	 78.5066
| 13> C 	 1.91639 	 6.16714 	 78.6811
| 14> H 	 2.12031 	 7.20266 	 78.9408
| 15> H 	 1.21965 	 6.34313 	 77.8507
| 16> C 	 3.15307 	 5.38716 	 78.2291
| 17> H 	 4.108 	 5.31889 	 78.6623
| 18> H 	 2.73362 	 4.38512 	 78.3592
| 19> C 	 3.50254 	 5.72591 	 76.6948
| 20> H 	 4.33716 	 5.15843 	 76.2223
| 21> H 	 2.62575 	 5.56131 	 76.0342
| 22> H 	 3.75465 	 6.75909 	 76.4627
| 23> S 	 -2.52705 	 2.5049 	 79.8833
| 24> C 	 -4.13625 	 2.47237 	 80.53
| 25> C 	 -4.47212 	 3.53081 	 81.2721
| 26> C 	 -3.41313 	 4.5363 	 81.3212
| 27> C 	 -2.26505 	 4.06968 	 80.7023
| 28> H 	 -5.37196 	 3.60677 	 81.8742
| 29> C 	 -3.61919 	 5.84443 	 82.0358
| 30> H 	 -2.63673 	 6.10554 	 82.3891
| 31> H 	 -4.19595 	 5.68446 	 82.9743
| 32> C 	 -4.23503 	 7.01563 	 81.1756
| 33> H 	 -5.28887 	 6.74359 	 80.8824
| 34> H 	 -3.73055 	 7.20366 	 80.2125
| 35> C 	 -4.37104 	 8.29195 	 81.96
| 36> H 	 -4.91924 	 8.30278 	 82.8711
| 37> H 	 -4.887 	 9.0406 	 81.3189
| 38> H 	 -3.37416 	 8.62177 	 82.2361
| 39> H 	 2.48796 	 5.59484 	 81.4098
| 40> H 	 -4.84396 	 1.68743 	 80.3814
| 41> *
| 42>
| 43>                          ****END OF INPUT****

CARTESIAN COORDINATES (ANGSTROEM)
---------------------------------
  S      0.148447    4.712870   82.009400
  C      1.439900    5.375970   81.054000
  C      1.086640    5.531200   79.757400
  C     -0.281651    5.118790   79.472700
  C     -0.908993    4.585540   80.581000
  H     -0.713145    5.093310   78.506600
  C      1.916390    6.167140   78.681100
  H      2.120310    7.202660   78.940800
  H      1.219650    6.343130   77.850700
  C      3.153070    5.387160   78.229100
  H      4.108000    5.318890   78.662300
  H      2.733620    4.385120   78.359200
  C      3.502540    5.725910   76.694800
  H      4.337160    5.158430   76.222300
  H      2.625750    5.561310   76.034200
  H      3.754650    6.759090   76.462700
  S     -2.527050    2.504900   79.883300
  C     -4.136250    2.472370   80.530000
  C     -4.472120    3.530810   81.272100
  C     -3.413130    4.536300   81.321200
  C     -2.265050    4.069680   80.702300
  H     -5.371960    3.606770   81.874200
  C     -3.619190    5.844430   82.035800
  H     -2.636730    6.105540   82.389100
  H     -4.195950    5.684460   82.974300
  C     -4.235030    7.015630   81.175600
  H     -5.288870    6.743590   80.882400
  H     -3.730550    7.203660   80.212500
  C     -4.371040    8.291950   81.960000
  H     -4.919240    8.302780   82.871100
  H     -4.887000    9.040600   81.318900
  H     -3.374160    8.621770   82.236100
  H      2.487960    5.594840   81.409800
  H     -4.843960    1.687430   80.381400

 Total Charge           Charge          ....    0
 Multiplicity           Mult            ....    1
 Number of Electrons    NEL             ....  134
 Basis Dimension        Dim             ....  322

ORBITAL ENERGIES
----------------

  NO   OCC          E(Eh)            E(eV)
   0   2.0000     -88.966314     -2420.8965
   1   2.0000     -88.963650     -2420.8240
   2   2.0000     -10.331343      -281.1301
   3   2.0000     -10.326732      -281.0047
   4   2.0000     -10.314696      -280.6772
   5   2.0000     -10.309467      -280.5349
   6   2.0000     -10.304973      -280.4126
   7   2.0000     -10.297080      -280.1978
   8   2.0000     -10.295301      -280.1494
   9   2.0000     -10.293729      -280.1066
  10   2.0000     -10.292745      -280.0798
  11   2.0000     -10.292439      -280.0715
  12   2.0000     -10.290531      -280.0196
  13   2.0000     -10.288885      -279.9748
  14   2.0000     -10.284418      -279.8532
  15   2.0000     -10.273440      -279.5545
  16   2.0000      -8.080572      -219.8835
  17   2.0000      -8.078459      -219.8261
  18   2.0000      -6.039197      -164.3349
  19   2.0000      -6.037054      -164.2766
  20   2.0000      -6.035099      -164.2234
  21   2.0000      -6.033122      -164.1696
  22   2.0000      -6.031275      -164.1193
  23   2.0000      -6.028958      -164.0563
  24   2.0000      -1.004114       -27.3233
  25   2.0000      -0.983754       -26.7693
  26   2.0000      -0.909274       -24.7426
  27   2.0000      -0.904403       -24.6101
  28   2.0000      -0.869373       -23.6568
  29   2.0000      -0.852898       -23.2085
  30   2.0000      -0.843656       -22.9570
  31   2.0000      -0.815103       -22.1801
  32   2.0000      -0.780987       -21.2517
  33   2.0000      -0.767866       -20.8947
  34   2.0000      -0.713994       -19.4288
  35   2.0000      -0.704459       -19.1693
  36   2.0000      -0.693670       -18.8757
  37   2.0000      -0.660698       -17.9785
  38   2.0000      -0.641142       -17.4464
  39   2.0000      -0.615214       -16.7408
  40   2.0000      -0.595232       -16.1971
  41   2.0000      -0.566944       -15.4273
  42   2.0000      -0.563992       -15.3470
  43   2.0000      -0.556607       -15.1461
  44   2.0000      -0.527121       -14.3437
  45   2.0000      -0.518688       -14.1142
  46   2.0000      -0.517154       -14.0725
  47   2.0000      -0.512643       -13.9497
  48   2.0000      -0.508978       -13.8500
  49   2.0000      -0.499138       -13.5822
  50   2.0000      -0.485761       -13.2182
  51   2.0000      -0.475742       -12.9456
  52   2.0000      -0.467730       -12.7276
  53   2.0000      -0.458325       -12.4717
  54   2.0000      -0.452936       -12.3250
  55   2.0000      -0.451846       -12.2953
  56   2.0000      -0.446735       -12.1563
  57   2.0000      -0.443082       -12.0569
  58   2.0000      -0.438608       -11.9351
  59   2.0000      -0.425577       -11.5805
  60   2.0000      -0.420043       -11.4300
  61   2.0000      -0.409413       -11.1407
  62   2.0000      -0.405622       -11.0375
  63   2.0000      -0.338421        -9.2089
  64   2.0000      -0.332865        -9.0577
  65   2.0000      -0.326139        -8.8747
  66   2.0000      -0.304739        -8.2924
  67   0.0000       0.041533         1.1302
  68   0.0000       0.061700         1.6790
  69   0.0000       0.110042         2.9944
  70   0.0000       0.111804         3.0423
  71   0.0000       0.130271         3.5448

MULLIKEN ATOMIC CHARGES
-----------------------
   0 S :    0.114946
   1 C :   -0.131052
   2 C :   -0.124062
   3 C :    0.063201
   4 C :   -0.163281
   5 H :    0.005241
   6 C :    0.093596
   7 H :    0.032443
   8 H :    0.012171
   9 C :   -0.040464
  10 H :    0.031282
  11 H :    0.035597
  12 C :   -0.104780
  13 H :    0.038461
  14 H :    0.027880
  15 H :    0.029998
  16 S :    0.106404
  17 C :   -0.057856
  18 C :   -0.033547
  19 C :   -0.026162
  20 C :   -0.189317
  21 H :    0.021012
  22 C :    0.073342
  23 H :    0.006789
  24 H :    0.028118
  25 C :   -0.075908
  26 H :    0.025703
  27 H :    0.041993
  28 C :   -0.033619
  29 H :    0.021697
  30 H :    0.036594
  31 H :    0.024912
  32 H :    0.066417
  33 H :    0.042252
Sum of atomic charges:   -0.0000000

LOEWDIN ATOMIC CHARGES
----------------------
   0 S :    0.399027
   1 C :   -0.204470
   2 C :   -0.074059
   3 C :   -0.053680
   4 C :   -0.187222
   5 H :    0.027113
   6 C :   -0.033060
   7 H :    0.030556
   8 H :    0.034658
   9 C :   -0.038525
  10 H :    0.021053
  11 H :    0.031150
  12 C :   -0.078304
  13 H :    0.027955
  14 H :    0.023560
  15 H :    0.022771
  16 S :    0.392951
  17 C :   -0.179699
  18 C :   -0.072377
  19 C :   -0.047160
  20 C :   -0.193438
  21 H :    0.033382
  22 C :   -0.034460
  23 H :    0.022170
  24 H :    0.035792
  25 C :   -0.038559
  26 H :    0.025573
  27 H :    0.030908
  28 C :   -0.067685
  29 H :    0.019327
  30 H :    0.032277
  31 H :    0.023185
  32 H :    0.043894
  33 H :    0.025397

  Mayer bond orders larger than 0.100000
B(  0-S ,  1-C ) :   1.1301 B(  0-S ,  4-C ) :   1.1382 B(  1-C ,  2-C ) :   1.6471
B(  1-C , 32-H ) :   0.9599 B(  2-C ,  3-C ) :   1.2171 B(  2-C ,  6-C ) :   1.0312
B(  3-C ,  4-C ) :   1.6034 B(  3-C ,  5-H ) :   0.9957 B(  4-C , 20-C ) :   1.0189
B(  6-C ,  7-H ) :   0.9306 B(  6-C ,  8-H ) :   0.9410 B(  6-C ,  9-C ) :   1.0242
B(  9-C , 10-H ) :   0.9662 B(  9-C , 11-H ) :   0.9630 B(  9-C , 12-C ) :   1.0625
B( 12-C , 13-H ) :   0.9796 B( 12-C , 14-H ) :   0.9787 B( 12-C , 15-H ) :   0.9784
B( 16-S , 17-C ) :   1.1329 B( 16-S , 20-C ) :   1.1228 B( 17-C , 18-C ) :   1.6681
B( 17-C , 33-H ) :   0.9627 B( 18-C , 19-C ) :   1.1949 B( 18-C , 21-H ) :   0.9866
B( 19-C , 20-C ) :   1.6428 B( 19-C , 22-C ) :   1.0523 B( 22-C , 23-H ) :   0.9236
B( 22-C , 24-H ) :   0.9365 B( 22-C , 25-C ) :   1.0538 B( 25-C , 26-H ) :   0.9553
B( 25-C , 27-H ) :   0.9551 B( 25-C , 28-C ) :   1.0885 B( 28-C , 29-H ) :   0.9735
B( 28-C , 30-H ) :   0.9720 B( 28-C , 31-H ) :   0.9734

Dispersion correction           -0.013747264
FINAL SINGLE POINT ENERGY     -1339.871379760371

DIPOLE MOMENT
-------------
                                X             Y             Z
Electronic contribution:     -4.27304     -18.76889       8.90688
Nuclear contribution   :      4.16940      19.15413      -9.03037
                        -----------------------------------------
Total Dipole Moment    :     -0.10365       0.38524      -0.12349
                        -----------------------------------------
Magnitude (a.u.)       :      0.41762
Magnitude (Debye)      :      1.06150

Rotational constants in cm-1:     0.019151     0.007412     0.006395
Rotational constants in MHz :   574.133682   222.211635   191.710575

                             ****ORCA TERMINATED NORMALLY****
TOTAL RUN TIME: 0 days 0 hours 0 minutes 32 seconds 675 msec
