                         Program Version 4.2.1 -  RELEASE  -
|  1> ! wB97X-D3 SP def2-SVP
|  2> %pal
|  3> nprocs 16
|  4> end
|  5>
|  6> * xyz 0 1
|  7> S 	 -11.8508 	 43.0209 	 39.3663
|  8> C 	 -13.2377 	 41.9371 	 39.2441
|  9> C 	 -12.8107 	 40.6256 	 39.1563
| 10> C 	 -11.3845 	 40.4155 	 39.2001
| 11> C 	 -10.7365 	 41.6705 	 39.3414
| 12> H 	 -10.8744 	 39.4867 	 39.11
| 13> C 	 -13.7313 	 39.4812 	 38.8811
| 14> H 	 -13.5228 	 39.0713 	 37.9064
| 15> H 	 -14.785 	 39.8278 	 38.7923
| 16> C 	 -13.7097 	 38.4132 	 39.9661
| 17> H 	 -12.7567 	 37.9551 	 40.0805
| 18> H 	 -13.9827 	 38.8544 	 40.9476
| 19> C 	 -14.6994 	 37.2419 	 39.7287
| 20> H 	 -14.4485 	 36.7952 	 38.7941
| 21> H 	 -14.6899 	 36.3645 	 40.4384
| 22> H 	 -15.7401 	 37.5366 	 39.6123
| 23> S 	 -8.56229 	 40.9905 	 40.8169
| 24> C 	 -6.98629 	 41.5123 	 40.2243
| 25> C 	 -7.01224 	 42.3353 	 39.1425
| 26> C 	 -8.37408 	 42.4493 	 38.6199
| 27> C 	 -9.29438 	 41.8302 	 39.4683
| 28> H 	 -6.15399 	 42.776 	 38.671
| 29> C 	 -8.69386 	 43.2514 	 37.3617
| 30> H 	 -7.89575 	 44.0402 	 37.291
| 31> H 	 -9.60032 	 43.765 	 37.5307
| 32> C 	 -8.78638 	 42.429 	 36.1005
| 33> H 	 -9.15763 	 41.4712 	 36.3295
| 34> H 	 -7.75332 	 42.1928 	 35.7656
| 35> C 	 -9.4006 	 43.238 	 34.9392
| 36> H 	 -8.68874 	 44.0017 	 34.5307
| 37> H 	 -10.2999 	 43.7066 	 35.2168
| 38> H 	 -9.699 	 42.551 	 34.117
| 39> H 	 -14.2623 	 42.2387 	 39.2735
| 40> H 	 -6.08652 	 41.5278 	 40.8257
| 41> *
| 42>
| 43>                          ****END OF INPUT****

CARTESIAN COORDINATES (ANGSTROEM)
---------------------------------
  S    -11.850800   43.020900   39.366300
  C    -13.237700   41.937100   39.244100
  C    -12.810700   40.625600   39.156300
  C    -11.384500   40.415500   39.200100
  C    -10.736500   41.670500   39.341400
  H    -10.874400   39.486700   39.110000
  C    -13.731300   39.481200   38.881100
  H    -13.522800   39.071300   37.906400
  H    -14.785000   39.827800   38.792300
  C    -13.709700   38.413200   39.966100
  H    -12.756700   37.955100   40.080500
  H    -13.982700   38.854400   40.947600
  C    -14.699400   37.241900   39.728700
  H    -14.448500   36.795200   38.794100
  H    -14.689900   36.364500   40.438400
  H    -15.740100   37.536600   39.612300
  S     -8.562290   40.990500   40.816900
  C     -6.986290   41.512300   40.224300
  C     -7.012240   42.335300   39.142500
  C     -8.374080   42.449300   38.619900
  C     -9.294380   41.830200   39.468300
  H     -6.153990   42.776000   38.671000
  C     -8.693860   43.251400   37.361700
  H     -7.895750   44.040200   37.291000
  H     -9.600320   43.765000   37.530700
  C     -8.786380   42.429000   36.100500
  H     -9.157630   41.471200   36.329500
  H     -7.753320   42.192800   35.765600
  C     -9.400600   43.238000   34.939200
  H     -8.688740   44.001700   34.530700
  H    -10.299900   43.706600   35.216800
  H     -9.699000   42.551000   34.117000
  H    -14.262300   42.238700   39.273500
  H     -6.086520   41.527800   40.825700

 Total Charge           Charge          ....    0
 Multiplicity           Mult            ....    1
 Number of Electrons    NEL             ....  134
 Basis Dimension        Dim             ....  322

ORBITAL ENERGIES
----------------

  NO   OCC          E(Eh)            E(eV)
   0   2.0000     -88.970053     -2420.9982
   1   2.0000     -88.968153     -2420.9465
   2   2.0000     -10.333754      -281.1958
   3   2.0000     -10.324841      -280.9532
   4   2.0000     -10.313659      -280.6489
   5   2.0000     -10.313643      -280.6485
   6   2.0000     -10.304297      -280.3942
   7   2.0000     -10.301015      -280.3049
   8   2.0000     -10.297743      -280.2158
   9   2.0000     -10.294130      -280.1175
  10   2.0000     -10.290461      -280.0177
  11   2.0000     -10.287301      -279.9317
  12   2.0000     -10.285929      -279.8944
  13   2.0000     -10.279980      -279.7325
  14   2.0000     -10.278067      -279.6804
  15   2.0000     -10.277844      -279.6744
  16   2.0000      -8.084008      -219.9770
  17   2.0000      -8.082589      -219.9384
  18   2.0000      -6.042569      -164.4267
  19   2.0000      -6.041169      -164.3886
  20   2.0000      -6.038555      -164.3174
  21   2.0000      -6.037250      -164.2819
  22   2.0000      -6.034850      -164.2166
  23   2.0000      -6.033176      -164.1711
  24   2.0000      -1.003228       -27.2992
  25   2.0000      -0.980256       -26.6741
  26   2.0000      -0.912342       -24.8261
  27   2.0000      -0.909261       -24.7423
  28   2.0000      -0.869426       -23.6583
  29   2.0000      -0.850182       -23.1346
  30   2.0000      -0.843907       -22.9639
  31   2.0000      -0.813499       -22.1364
  32   2.0000      -0.781161       -21.2565
  33   2.0000      -0.767633       -20.8883
  34   2.0000      -0.709828       -19.3154
  35   2.0000      -0.701055       -19.0767
  36   2.0000      -0.691300       -18.8112
  37   2.0000      -0.664697       -18.0873
  38   2.0000      -0.643009       -17.4972
  39   2.0000      -0.617073       -16.7914
  40   2.0000      -0.594476       -16.1765
  41   2.0000      -0.569782       -15.5046
  42   2.0000      -0.564195       -15.3525
  43   2.0000      -0.557159       -15.1611
  44   2.0000      -0.523460       -14.2441
  45   2.0000      -0.522524       -14.2186
  46   2.0000      -0.517367       -14.0783
  47   2.0000      -0.511508       -13.9188
  48   2.0000      -0.502736       -13.6801
  49   2.0000      -0.499505       -13.5922
  50   2.0000      -0.490864       -13.3571
  51   2.0000      -0.476848       -12.9757
  52   2.0000      -0.467958       -12.7338
  53   2.0000      -0.465031       -12.6541
  54   2.0000      -0.461339       -12.5537
  55   2.0000      -0.454495       -12.3674
  56   2.0000      -0.442431       -12.0392
  57   2.0000      -0.439318       -11.9545
  58   2.0000      -0.429282       -11.6814
  59   2.0000      -0.426658       -11.6099
  60   2.0000      -0.422163       -11.4876
  61   2.0000      -0.417659       -11.3651
  62   2.0000      -0.409732       -11.1494
  63   2.0000      -0.341301        -9.2873
  64   2.0000      -0.335178        -9.1207
  65   2.0000      -0.329151        -8.9567
  66   2.0000      -0.294708        -8.0194
  67   0.0000       0.034149         0.9292
  68   0.0000       0.064452         1.7538
  69   0.0000       0.105724         2.8769
  70   0.0000       0.112492         3.0611
  71   0.0000       0.128616         3.4998

MULLIKEN ATOMIC CHARGES
-----------------------
   0 S :    0.116670
   1 C :   -0.117950
   2 C :   -0.066088
   3 C :    0.037916
   4 C :   -0.160356
   5 H :    0.015611
   6 C :    0.065985
   7 H :    0.029792
   8 H :    0.012208
   9 C :   -0.076622
  10 H :    0.025654
  11 H :    0.035494
  12 C :   -0.056388
  13 H :    0.009670
  14 H :    0.043083
  15 H :    0.025285
  16 S :    0.118647
  17 C :   -0.074777
  18 C :   -0.027262
  19 C :   -0.067508
  20 C :   -0.172420
  21 H :    0.018687
  22 C :    0.089924
  23 H :    0.023473
  24 H :    0.001236
  25 C :   -0.047794
  26 H :    0.022920
  27 H :    0.017935
  28 C :   -0.040613
  29 H :    0.041810
  30 H :    0.022852
  31 H :    0.035983
  32 H :    0.041103
  33 H :    0.055840
Sum of atomic charges:   -0.0000000

LOEWDIN ATOMIC CHARGES
----------------------
   0 S :    0.407996
   1 C :   -0.197356
   2 C :   -0.057990
   3 C :   -0.058255
   4 C :   -0.190952
   5 H :    0.028967
   6 C :   -0.032499
   7 H :    0.029721
   8 H :    0.030932
   9 C :   -0.038045
  10 H :    0.018300
  11 H :    0.028888
  12 C :   -0.072737
  13 H :    0.016942
  14 H :    0.033160
  15 H :    0.021120
  16 S :    0.406155
  17 C :   -0.185506
  18 C :   -0.062332
  19 C :   -0.049805
  20 C :   -0.204864
  21 H :    0.031400
  22 C :   -0.030966
  23 H :    0.033965
  24 H :    0.014834
  25 C :   -0.038815
  26 H :    0.019155
  27 H :    0.027188
  28 C :   -0.063201
  29 H :    0.032697
  30 H :    0.015361
  31 H :    0.031882
  32 H :    0.026011
  33 H :    0.028649

  Mayer bond orders larger than 0.100000
B(  0-S ,  1-C ) :   1.1179 B(  0-S ,  4-C ) :   1.1736 B(  1-C ,  2-C ) :   1.6177
B(  1-C , 32-H ) :   0.9732 B(  2-C ,  3-C ) :   1.2229 B(  2-C ,  6-C ) :   1.0377
B(  3-C ,  4-C ) :   1.5480 B(  3-C ,  5-H ) :   0.9989 B(  4-C , 20-C ) :   1.0275
B(  6-C ,  7-H ) :   0.9373 B(  6-C ,  8-H ) :   0.9418 B(  6-C ,  9-C ) :   1.0544
B(  9-C , 10-H ) :   0.9578 B(  9-C , 11-H ) :   0.9576 B(  9-C , 12-C ) :   1.0785
B( 12-C , 13-H ) :   0.9717 B( 12-C , 14-H ) :   0.9765 B( 12-C , 15-H ) :   0.9760
B( 16-S , 17-C ) :   1.1353 B( 16-S , 20-C ) :   1.1390 B( 17-C , 18-C ) :   1.6536
B( 17-C , 33-H ) :   0.9563 B( 18-C , 19-C ) :   1.2218 B( 18-C , 21-H ) :   0.9856
B( 19-C , 20-C ) :   1.6131 B( 19-C , 22-C ) :   1.0415 B( 22-C , 23-H ) :   0.9324
B( 22-C , 24-H ) :   0.9335 B( 22-C , 25-C ) :   1.0565 B( 25-C , 26-H ) :   0.9616
B( 25-C , 27-H ) :   0.9493 B( 25-C , 28-C ) :   1.0744 B( 28-C , 29-H ) :   0.9745
B( 28-C , 30-H ) :   0.9788 B( 28-C , 31-H ) :   0.9739

Dispersion correction           -0.014103642
FINAL SINGLE POINT ENERGY     -1339.886037260130

DIPOLE MOMENT
-------------
                                X             Y             Z
Electronic contribution:      9.67715       9.87286      15.25650
Nuclear contribution   :     -9.70290     -10.01693     -15.62764
                        -----------------------------------------
Total Dipole Moment    :     -0.02575      -0.14407      -0.37115
                        -----------------------------------------
Magnitude (a.u.)       :      0.39896
Magnitude (Debye)      :      1.01407

Rotational constants in cm-1:     0.018507     0.008129     0.006806
Rotational constants in MHz :   554.811125   243.695785   204.027419

                             ****ORCA TERMINATED NORMALLY****
TOTAL RUN TIME: 0 days 0 hours 0 minutes 33 seconds 305 msec
