                         Program Version 4.2.1 -  RELEASE  -
|  1> ! wB97X-D3 SP def2-SVP
|  2> %pal
|  3> nprocs 16
|  4> end
|  5>
|  6> * xyz 0 1
|  7> S 	 44.6763 	 18.0357 	 85.9158
|  8> C 	 43.1922 	 18.8605 	 86.4733
|  9> C 	 42.1976 	 17.998 	 86.8614
| 10> C 	 42.6379 	 16.6025 	 86.6271
| 11> C 	 43.8558 	 16.4939 	 85.9956
| 12> H 	 41.9908 	 15.7669 	 86.7131
| 13> C 	 40.8209 	 18.299 	 87.4315
| 14> H 	 40.5996 	 19.3232 	 87.1589
| 15> H 	 40.9124 	 18.2339 	 88.4905
| 16> C 	 39.5966 	 17.4197 	 86.8484
| 17> H 	 39.5006 	 17.4625 	 85.7315
| 18> H 	 39.9864 	 16.4317 	 87.0471
| 19> C 	 38.3022 	 17.7198 	 87.5729
| 20> H 	 38.0889 	 18.7842 	 87.4046
| 21> H 	 37.4173 	 17.1954 	 87.3223
| 22> H 	 38.4869 	 17.7273 	 88.6886
| 23> S 	 46.1782 	 15.0391 	 86.1279
| 24> C 	 46.358 	 13.4856 	 85.4739
| 25> C 	 45.1042 	 13.0056 	 85.1798
| 26> C 	 44.0989 	 14.0317 	 85.0841
| 27> C 	 44.4812 	 15.2581 	 85.6281
| 28> H 	 44.9668 	 11.9171 	 84.8748
| 29> C 	 42.6729 	 13.5927 	 84.7951
| 30> H 	 42.5742 	 13.342 	 83.6946
| 31> H 	 41.986 	 14.4904 	 84.9364
| 32> C 	 42.1634 	 12.2996 	 85.4413
| 33> H 	 42.4335 	 12.4125 	 86.449
| 34> H 	 42.7898 	 11.5501 	 85.01
| 35> C 	 40.7594 	 11.8485 	 85.2226
| 36> H 	 40.5681 	 10.8476 	 85.6599
| 37> H 	 40.6799 	 11.7435 	 84.1443
| 38> H 	 40.0095 	 12.5479 	 85.4971
| 39> H 	 43.0754 	 19.9267 	 86.472
| 40> H 	 47.1904 	 12.7562 	 85.7088
| 41> *
| 42>
| 43>                          ****END OF INPUT****

CARTESIAN COORDINATES (ANGSTROEM)
---------------------------------
  S     44.676300   18.035700   85.915800
  C     43.192200   18.860500   86.473300
  C     42.197600   17.998000   86.861400
  C     42.637900   16.602500   86.627100
  C     43.855800   16.493900   85.995600
  H     41.990800   15.766900   86.713100
  C     40.820900   18.299000   87.431500
  H     40.599600   19.323200   87.158900
  H     40.912400   18.233900   88.490500
  C     39.596600   17.419700   86.848400
  H     39.500600   17.462500   85.731500
  H     39.986400   16.431700   87.047100
  C     38.302200   17.719800   87.572900
  H     38.088900   18.784200   87.404600
  H     37.417300   17.195400   87.322300
  H     38.486900   17.727300   88.688600
  S     46.178200   15.039100   86.127900
  C     46.358000   13.485600   85.473900
  C     45.104200   13.005600   85.179800
  C     44.098900   14.031700   85.084100
  C     44.481200   15.258100   85.628100
  H     44.966800   11.917100   84.874800
  C     42.672900   13.592700   84.795100
  H     42.574200   13.342000   83.694600
  H     41.986000   14.490400   84.936400
  C     42.163400   12.299600   85.441300
  H     42.433500   12.412500   86.449000
  H     42.789800   11.550100   85.010000
  C     40.759400   11.848500   85.222600
  H     40.568100   10.847600   85.659900
  H     40.679900   11.743500   84.144300
  H     40.009500   12.547900   85.497100
  H     43.075400   19.926700   86.472000
  H     47.190400   12.756200   85.708800

 Total Charge           Charge          ....    0
 Multiplicity           Mult            ....    1
 Number of Electrons    NEL             ....  134
 Basis Dimension        Dim             ....  322

ORBITAL ENERGIES
----------------

  NO   OCC          E(Eh)            E(eV)
   0   2.0000     -88.968082     -2420.9446
   1   2.0000     -88.960900     -2420.7492
   2   2.0000     -10.332199      -281.1534
   3   2.0000     -10.331948      -281.1466
   4   2.0000     -10.317962      -280.7660
   5   2.0000     -10.317150      -280.7439
   6   2.0000     -10.308678      -280.5134
   7   2.0000     -10.307351      -280.4773
   8   2.0000     -10.299803      -280.2719
   9   2.0000     -10.299097      -280.2527
  10   2.0000     -10.297755      -280.2162
  11   2.0000     -10.296916      -280.1933
  12   2.0000     -10.295862      -280.1647
  13   2.0000     -10.284696      -279.8608
  14   2.0000     -10.278338      -279.6878
  15   2.0000     -10.277982      -279.6781
  16   2.0000      -8.082397      -219.9332
  17   2.0000      -8.076494      -219.7726
  18   2.0000      -6.041172      -164.3887
  19   2.0000      -6.037099      -164.2778
  20   2.0000      -6.034968      -164.2198
  21   2.0000      -6.032742      -164.1593
  22   2.0000      -6.030865      -164.1082
  23   2.0000      -6.027193      -164.0083
  24   2.0000      -1.009150       -27.4604
  25   2.0000      -0.984142       -26.7799
  26   2.0000      -0.914988       -24.8981
  27   2.0000      -0.910222       -24.7684
  28   2.0000      -0.876039       -23.8382
  29   2.0000      -0.855665       -23.2838
  30   2.0000      -0.844474       -22.9793
  31   2.0000      -0.814951       -22.1759
  32   2.0000      -0.782348       -21.2888
  33   2.0000      -0.775713       -21.1082
  34   2.0000      -0.716103       -19.4862
  35   2.0000      -0.701442       -19.0872
  36   2.0000      -0.695482       -18.9250
  37   2.0000      -0.654338       -17.8054
  38   2.0000      -0.638612       -17.3775
  39   2.0000      -0.623000       -16.9527
  40   2.0000      -0.593880       -16.1603
  41   2.0000      -0.574917       -15.6443
  42   2.0000      -0.570126       -15.5139
  43   2.0000      -0.560841       -15.2613
  44   2.0000      -0.533492       -14.5170
  45   2.0000      -0.526482       -14.3263
  46   2.0000      -0.515533       -14.0284
  47   2.0000      -0.509373       -13.8607
  48   2.0000      -0.506087       -13.7713
  49   2.0000      -0.504717       -13.7341
  50   2.0000      -0.496317       -13.5055
  51   2.0000      -0.484711       -13.1897
  52   2.0000      -0.477219       -12.9858
  53   2.0000      -0.468735       -12.7549
  54   2.0000      -0.463150       -12.6030
  55   2.0000      -0.453407       -12.3378
  56   2.0000      -0.448725       -12.2104
  57   2.0000      -0.438707       -11.9378
  58   2.0000      -0.431949       -11.7539
  59   2.0000      -0.418532       -11.3888
  60   2.0000      -0.416546       -11.3348
  61   2.0000      -0.413333       -11.2474
  62   2.0000      -0.408770       -11.1232
  63   2.0000      -0.355438        -9.6720
  64   2.0000      -0.330675        -8.9981
  65   2.0000      -0.324509        -8.8303
  66   2.0000      -0.292287        -7.9535
  67   0.0000       0.024028         0.6538
  68   0.0000       0.071317         1.9406
  69   0.0000       0.101755         2.7689
  70   0.0000       0.116142         3.1604
  71   0.0000       0.128648         3.5007

MULLIKEN ATOMIC CHARGES
-----------------------
   0 S :    0.111805
   1 C :   -0.119074
   2 C :   -0.082924
   3 C :    0.023129
   4 C :   -0.127340
   5 H :    0.002858
   6 C :    0.065305
   7 H :    0.017937
   8 H :    0.046478
   9 C :   -0.104184
  10 H :    0.048735
  11 H :    0.027064
  12 C :   -0.026612
  13 H :    0.021596
  14 H :    0.040740
  15 H :    0.031515
  16 S :    0.085705
  17 C :   -0.087529
  18 C :   -0.101380
  19 C :   -0.021538
  20 C :   -0.130216
  21 H :    0.052371
  22 C :   -0.011640
  23 H :    0.027331
  24 H :    0.026553
  25 C :   -0.059802
  26 H :    0.019494
  27 H :    0.018139
  28 C :   -0.005892
  29 H :    0.044629
  30 H :    0.015420
  31 H :    0.025892
  32 H :    0.038878
  33 H :    0.086555
Sum of atomic charges:    0.0000000

LOEWDIN ATOMIC CHARGES
----------------------
   0 S :    0.389124
   1 C :   -0.179755
   2 C :   -0.055461
   3 C :   -0.054547
   4 C :   -0.192264
   5 H :    0.019100
   6 C :   -0.023896
   7 H :    0.026659
   8 H :    0.033069
   9 C :   -0.040016
  10 H :    0.032518
  11 H :    0.015194
  12 C :   -0.069368
  13 H :    0.027717
  14 H :    0.022807
  15 H :    0.033901
  16 S :    0.411694
  17 C :   -0.217176
  18 C :   -0.084574
  19 C :   -0.064108
  20 C :   -0.181695
  21 H :    0.041232
  22 C :   -0.042610
  23 H :    0.033136
  24 H :    0.027529
  25 C :   -0.042249
  26 H :    0.014144
  27 H :    0.021117
  28 C :   -0.056960
  29 H :    0.036209
  30 H :    0.026035
  31 H :    0.019478
  32 H :    0.024286
  33 H :    0.049728

  Mayer bond orders larger than 0.100000
B(  0-S ,  1-C ) :   1.1114 B(  0-S ,  4-C ) :   1.1292 B(  1-C ,  2-C ) :   1.6670
B(  1-C , 32-H ) :   0.9680 B(  2-C ,  3-C ) :   1.1906 B(  2-C ,  6-C ) :   1.0180
B(  3-C ,  4-C ) :   1.6045 B(  3-C ,  5-H ) :   0.9876 B(  4-C , 20-C ) :   1.0661
B(  6-C ,  7-H ) :   0.9426 B(  6-C ,  8-H ) :   0.9380 B(  6-C ,  9-C ) :   1.0424
B(  9-C , 10-H ) :   0.9601 B(  9-C , 11-H ) :   0.9560 B(  9-C , 12-C ) :   1.0804
B( 12-C , 13-H ) :   0.9717 B( 12-C , 14-H ) :   0.9749 B( 12-C , 15-H ) :   0.9712
B( 16-S , 17-C ) :   1.1700 B( 16-S , 20-C ) :   1.1389 B( 17-C , 18-C ) :   1.5998
B( 17-C , 33-H ) :   0.9536 B( 18-C , 19-C ) :   1.2535 B( 18-C , 21-H ) :   0.9715
B( 19-C , 20-C ) :   1.5763 B( 19-C , 22-C ) :   1.0562 B( 22-C , 23-H ) :   0.9224
B( 22-C , 24-H ) :   0.9437 B( 22-C , 25-C ) :   1.0592 B( 25-C , 26-H ) :   0.9584
B( 25-C , 27-H ) :   0.9399 B( 25-C , 28-C ) :   1.0923 B( 28-C , 29-H ) :   0.9696
B( 28-C , 30-H ) :   0.9691 B( 28-C , 31-H ) :   0.9751

Dispersion correction           -0.013535112
FINAL SINGLE POINT ENERGY     -1339.857077048223

DIPOLE MOMENT
-------------
                                X             Y             Z
Electronic contribution:     31.90513       9.83573      -1.82769
Nuclear contribution   :    -32.71167     -10.15537       2.00628
                        -----------------------------------------
Total Dipole Moment    :     -0.80654      -0.31964       0.17858
                        -----------------------------------------
Magnitude (a.u.)       :      0.88575
Magnitude (Debye)      :      2.25141

Rotational constants in cm-1:     0.015677     0.009646     0.006201
Rotational constants in MHz :   469.981953   289.192617   185.911669

                             ****ORCA TERMINATED NORMALLY****
TOTAL RUN TIME: 0 days 0 hours 0 minutes 30 seconds 38 msec
