                         Program Version 4.2.1 -  RELEASE  -
|  1> ! wB97X-D3 SP def2-SVP
|  2> %pal
|  3> nprocs 16
|  4> end
|  5>
|  6> * xyz 0 1
|  7> S 	 -33.465 	 59.489 	 116.169
|  8> C 	 -34.9042 	 59.5569 	 117.124
|  9> C 	 -35.219 	 60.9417 	 117.268
| 10> C 	 -34.2654 	 61.8694 	 116.67
| 11> C 	 -33.1286 	 61.2428 	 116.264
| 12> H 	 -34.2879 	 62.922 	 116.54
| 13> C 	 -36.5948 	 61.4547 	 117.709
| 14> H 	 -36.4139 	 62.3155 	 118.399
| 15> H 	 -37.1249 	 60.7428 	 118.373
| 16> C 	 -37.5919 	 61.7753 	 116.579
| 17> H 	 -38.5916 	 62.0576 	 117.055
| 18> H 	 -37.2586 	 62.6088 	 115.961
| 19> C 	 -37.8711 	 60.5873 	 115.695
| 20> H 	 -38.607 	 60.8264 	 114.953
| 21> H 	 -36.9066 	 60.3221 	 115.227
| 22> H 	 -38.2875 	 59.7601 	 116.257
| 23> S 	 -31.2671 	 61.5096 	 114.236
| 24> C 	 -30.0614 	 62.812 	 114.313
| 25> C 	 -30.1142 	 63.4617 	 115.513
| 26> C 	 -31.166 	 62.9341 	 116.335
| 27> C 	 -31.9048 	 61.8757 	 115.795
| 28> H 	 -29.3419 	 64.1801 	 115.653
| 29> C 	 -31.2781 	 63.3649 	 117.763
| 30> H 	 -31.8386 	 62.565 	 118.284
| 31> H 	 -31.7649 	 64.3213 	 117.766
| 32> C 	 -30.011 	 63.6985 	 118.638
| 33> H 	 -29.5025 	 64.4892 	 118.145
| 34> H 	 -29.385 	 62.8871 	 118.516
| 35> C 	 -30.1018 	 63.8861 	 120.141
| 36> H 	 -30.734 	 64.8014 	 120.485
| 37> H 	 -29.1038 	 63.9232 	 120.509
| 38> H 	 -30.5091 	 62.9288 	 120.58
| 39> H 	 -35.7408 	 58.8319 	 117.016
| 40> H 	 -29.2512 	 62.8455 	 113.54
| 41> *
| 42>
| 43>                          ****END OF INPUT****

CARTESIAN COORDINATES (ANGSTROEM)
---------------------------------
  S    -33.465000   59.489000  116.169000
  C    -34.904200   59.556900  117.124000
  C    -35.219000   60.941700  117.268000
  C    -34.265400   61.869400  116.670000
  C    -33.128600   61.242800  116.264000
  H    -34.287900   62.922000  116.540000
  C    -36.594800   61.454700  117.709000
  H    -36.413900   62.315500  118.399000
  H    -37.124900   60.742800  118.373000
  C    -37.591900   61.775300  116.579000
  H    -38.591600   62.057600  117.055000
  H    -37.258600   62.608800  115.961000
  C    -37.871100   60.587300  115.695000
  H    -38.607000   60.826400  114.953000
  H    -36.906600   60.322100  115.227000
  H    -38.287500   59.760100  116.257000
  S    -31.267100   61.509600  114.236000
  C    -30.061400   62.812000  114.313000
  C    -30.114200   63.461700  115.513000
  C    -31.166000   62.934100  116.335000
  C    -31.904800   61.875700  115.795000
  H    -29.341900   64.180100  115.653000
  C    -31.278100   63.364900  117.763000
  H    -31.838600   62.565000  118.284000
  H    -31.764900   64.321300  117.766000
  C    -30.011000   63.698500  118.638000
  H    -29.502500   64.489200  118.145000
  H    -29.385000   62.887100  118.516000
  C    -30.101800   63.886100  120.141000
  H    -30.734000   64.801400  120.485000
  H    -29.103800   63.923200  120.509000
  H    -30.509100   62.928800  120.580000
  H    -35.740800   58.831900  117.016000
  H    -29.251200   62.845500  113.540000

 Total Charge           Charge          ....    0
 Multiplicity           Mult            ....    1
 Number of Electrons    NEL             ....  134
 Basis Dimension        Dim             ....  322

ORBITAL ENERGIES
----------------

  NO   OCC          E(Eh)            E(eV)
   0   2.0000     -88.963946     -2420.8320
   1   2.0000     -88.963318     -2420.8149
   2   2.0000     -10.334652      -281.2202
   3   2.0000     -10.329615      -281.0831
   4   2.0000     -10.325895      -280.9819
   5   2.0000     -10.320477      -280.8345
   6   2.0000     -10.312524      -280.6180
   7   2.0000     -10.310147      -280.5533
   8   2.0000     -10.297939      -280.2212
   9   2.0000     -10.296839      -280.1912
  10   2.0000     -10.295259      -280.1482
  11   2.0000     -10.289975      -280.0044
  12   2.0000     -10.288951      -279.9766
  13   2.0000     -10.286622      -279.9132
  14   2.0000     -10.277474      -279.6643
  15   2.0000     -10.272684      -279.5339
  16   2.0000      -8.079188      -219.8459
  17   2.0000      -8.077915      -219.8112
  18   2.0000      -6.037667      -164.2933
  19   2.0000      -6.036547      -164.2628
  20   2.0000      -6.033501      -164.1799
  21   2.0000      -6.032434      -164.1509
  22   2.0000      -6.030065      -164.0864
  23   2.0000      -6.028521      -164.0444
  24   2.0000      -1.009029       -27.4571
  25   2.0000      -0.985335       -26.8123
  26   2.0000      -0.909916       -24.7601
  27   2.0000      -0.906789       -24.6750
  28   2.0000      -0.877151       -23.8685
  29   2.0000      -0.854545       -23.2534
  30   2.0000      -0.843728       -22.9590
  31   2.0000      -0.823095       -22.3975
  32   2.0000      -0.778798       -21.1922
  33   2.0000      -0.768688       -20.9171
  34   2.0000      -0.707685       -19.2571
  35   2.0000      -0.697271       -18.9737
  36   2.0000      -0.687572       -18.7098
  37   2.0000      -0.657421       -17.8893
  38   2.0000      -0.643310       -17.5054
  39   2.0000      -0.620796       -16.8927
  40   2.0000      -0.594987       -16.1904
  41   2.0000      -0.577648       -15.7186
  42   2.0000      -0.569298       -15.4914
  43   2.0000      -0.550555       -14.9814
  44   2.0000      -0.544133       -14.8066
  45   2.0000      -0.523096       -14.2342
  46   2.0000      -0.518299       -14.1036
  47   2.0000      -0.516255       -14.0480
  48   2.0000      -0.509002       -13.8507
  49   2.0000      -0.501299       -13.6410
  50   2.0000      -0.483628       -13.1602
  51   2.0000      -0.480690       -13.0802
  52   2.0000      -0.472692       -12.8626
  53   2.0000      -0.465362       -12.6631
  54   2.0000      -0.459036       -12.4910
  55   2.0000      -0.453764       -12.3475
  56   2.0000      -0.440541       -11.9877
  57   2.0000      -0.436609       -11.8807
  58   2.0000      -0.426274       -11.5995
  59   2.0000      -0.422496       -11.4967
  60   2.0000      -0.419175       -11.4063
  61   2.0000      -0.409642       -11.1469
  62   2.0000      -0.404648       -11.0110
  63   2.0000      -0.354542        -9.6476
  64   2.0000      -0.332153        -9.0383
  65   2.0000      -0.321045        -8.7361
  66   2.0000      -0.296175        -8.0593
  67   0.0000       0.018300         0.4980
  68   0.0000       0.065811         1.7908
  69   0.0000       0.107884         2.9357
  70   0.0000       0.117082         3.1860
  71   0.0000       0.131315         3.5733

MULLIKEN ATOMIC CHARGES
-----------------------
   0 S :    0.089534
   1 C :   -0.087021
   2 C :   -0.151944
   3 C :    0.052556
   4 C :   -0.152816
   5 H :    0.013364
   6 C :    0.030244
   7 H :    0.036951
   8 H :    0.022754
   9 C :   -0.079347
  10 H :    0.035594
  11 H :    0.032891
  12 C :   -0.054813
  13 H :    0.032438
  14 H :    0.049950
  15 H :    0.021908
  16 S :    0.091981
  17 C :   -0.121432
  18 C :   -0.017247
  19 C :   -0.044167
  20 C :   -0.130971
  21 H :    0.019850
  22 C :    0.058024
  23 H :    0.040749
  24 H :    0.024408
  25 C :   -0.066779
  26 H :    0.013953
  27 H :    0.005991
  28 C :   -0.054820
  29 H :    0.051689
  30 H :    0.033295
  31 H :    0.038073
  32 H :    0.085447
  33 H :    0.079711
Sum of atomic charges:   -0.0000000

LOEWDIN ATOMIC CHARGES
----------------------
   0 S :    0.392227
   1 C :   -0.222765
   2 C :   -0.059075
   3 C :   -0.054995
   4 C :   -0.176782
   5 H :    0.031790
   6 C :   -0.044673
   7 H :    0.034176
   8 H :    0.029806
   9 C :   -0.043115
  10 H :    0.030407
  11 H :    0.021377
  12 C :   -0.066231
  13 H :    0.025034
  14 H :    0.029767
  15 H :    0.020353
  16 S :    0.402466
  17 C :   -0.171714
  18 C :   -0.071405
  19 C :   -0.052458
  20 C :   -0.213852
  21 H :    0.034210
  22 C :   -0.036080
  23 H :    0.034187
  24 H :    0.028645
  25 C :   -0.041031
  26 H :    0.013872
  27 H :    0.014744
  28 C :   -0.064811
  29 H :    0.034302
  30 H :    0.026313
  31 H :    0.033128
  32 H :    0.043633
  33 H :    0.038549

  Mayer bond orders larger than 0.100000
B(  0-S ,  1-C ) :   1.1383 B(  0-S ,  4-C ) :   1.1401 B(  1-C ,  2-C ) :   1.5864
B(  1-C ,  4-C ) :   0.1011 B(  1-C , 32-H ) :   0.9542 B(  2-C ,  3-C ) :   1.2231
B(  2-C ,  6-C ) :   1.0358 B(  3-C ,  4-C ) :   1.5705 B(  3-C ,  5-H ) :   1.0024
B(  4-C , 20-C ) :   1.0444 B(  6-C ,  7-H ) :   0.9420 B(  6-C ,  8-H ) :   0.9477
B(  6-C ,  9-C ) :   1.0628 B(  9-C , 10-H ) :   0.9541 B(  9-C , 11-H ) :   0.9567
B(  9-C , 12-C ) :   1.0818 B( 12-C , 13-H ) :   0.9706 B( 12-C , 14-H ) :   0.9709
B( 12-C , 15-H ) :   0.9731 B( 16-S , 17-C ) :   1.1655 B( 16-S , 20-C ) :   1.1355
B( 17-C , 18-C ) :   1.6046 B( 17-C , 33-H ) :   0.9587 B( 18-C , 19-C ) :   1.2176
B( 18-C , 21-H ) :   1.0014 B( 19-C , 20-C ) :   1.5847 B( 19-C , 22-C ) :   1.0566
B( 22-C , 23-H ) :   0.9451 B( 22-C , 24-H ) :   0.9194 B( 22-C , 25-C ) :   1.0619
B( 25-C , 26-H ) :   0.9463 B( 25-C , 27-H ) :   0.9525 B( 25-C , 28-C ) :   1.0963
B( 28-C , 29-H ) :   0.9743 B( 28-C , 30-H ) :   0.9690 B( 28-C , 31-H ) :   0.9706

Dispersion correction           -0.014224075
FINAL SINGLE POINT ENERGY     -1339.853091633328

DIPOLE MOMENT
-------------
                                X             Y             Z
Electronic contribution:     10.21615     -11.17106     -15.80265
Nuclear contribution   :    -10.25269      11.75350      15.93846
                        -----------------------------------------
Total Dipole Moment    :     -0.03654       0.58243       0.13581
                        -----------------------------------------
Magnitude (a.u.)       :      0.59917
Magnitude (Debye)      :      1.52298

Rotational constants in cm-1:     0.019043     0.008036     0.006588
Rotational constants in MHz :   570.903674   240.912387   197.497841

                             ****ORCA TERMINATED NORMALLY****
TOTAL RUN TIME: 0 days 0 hours 0 minutes 29 seconds 744 msec
