                         Program Version 4.2.1 -  RELEASE  -
|  1> ! wB97X-D3 SP def2-SVP
|  2> %pal
|  3> nprocs 16
|  4> end
|  5>
|  6> * xyz 0 1
|  7> S 	 -2.20603 	 -12.2801 	 86.1308
|  8> C 	 -1.16329 	 -13.678 	 86.4483
|  9> C 	 -0.993726 	 -14.4833 	 85.2966
| 10> C 	 -1.94442 	 -14.1064 	 84.3096
| 11> C 	 -2.75335 	 -13.018 	 84.5856
| 12> H 	 -1.97481 	 -14.6998 	 83.4016
| 13> C 	 -0.0609104 	 -15.6903 	 85.1809
| 14> H 	 0.36652 	 -15.8359 	 86.1746
| 15> H 	 0.845055 	 -15.4992 	 84.6352
| 16> C 	 -0.703449 	 -17.0951 	 84.7743
| 17> H 	 -1.43109 	 -17.2861 	 85.509
| 18> H 	 -1.37009 	 -17.0076 	 83.8781
| 19> C 	 0.228907 	 -18.2824 	 84.6713
| 20> H 	 -0.342824 	 -19.1004 	 84.2412
| 21> H 	 1.15762 	 -18.054 	 84.0944
| 22> H 	 0.675644 	 -18.4498 	 85.6898
| 23> S 	 -3.56529 	 -10.6092 	 83.3675
| 24> C 	 -4.95478 	 -10.7852 	 82.3097
| 25> C 	 -5.50331 	 -12.0323 	 82.182
| 26> C 	 -4.82053 	 -12.9468 	 83.0479
| 27> C 	 -3.78113 	 -12.3498 	 83.7721
| 28> H 	 -6.3561 	 -12.089 	 81.512
| 29> C 	 -5.35114 	 -14.4034 	 83.1575
| 30> H 	 -6.42883 	 -14.3483 	 83.1174
| 31> H 	 -5.21514 	 -14.7101 	 84.1517
| 32> C 	 -4.71073 	 -15.4214 	 82.1708
| 33> H 	 -3.68527 	 -15.581 	 82.4741
| 34> H 	 -4.61585 	 -14.9503 	 81.1688
| 35> C 	 -5.41188 	 -16.8551 	 82.2172
| 36> H 	 -5.46267 	 -17.2978 	 83.2685
| 37> H 	 -4.81835 	 -17.4631 	 81.5971
| 38> H 	 -6.39699 	 -16.9833 	 81.7896
| 39> H 	 -0.570938 	 -13.8537 	 87.3415
| 40> H 	 -5.30733 	 -10.0159 	 81.6344
| 41> *
| 42>
| 43>                          ****END OF INPUT****

CARTESIAN COORDINATES (ANGSTROEM)
---------------------------------
  S     -2.206030  -12.280100   86.130800
  C     -1.163290  -13.678000   86.448300
  C     -0.993726  -14.483300   85.296600
  C     -1.944420  -14.106400   84.309600
  C     -2.753350  -13.018000   84.585600
  H     -1.974810  -14.699800   83.401600
  C     -0.060910  -15.690300   85.180900
  H      0.366520  -15.835900   86.174600
  H      0.845055  -15.499200   84.635200
  C     -0.703449  -17.095100   84.774300
  H     -1.431090  -17.286100   85.509000
  H     -1.370090  -17.007600   83.878100
  C      0.228907  -18.282400   84.671300
  H     -0.342824  -19.100400   84.241200
  H      1.157620  -18.054000   84.094400
  H      0.675644  -18.449800   85.689800
  S     -3.565290  -10.609200   83.367500
  C     -4.954780  -10.785200   82.309700
  C     -5.503310  -12.032300   82.182000
  C     -4.820530  -12.946800   83.047900
  C     -3.781130  -12.349800   83.772100
  H     -6.356100  -12.089000   81.512000
  C     -5.351140  -14.403400   83.157500
  H     -6.428830  -14.348300   83.117400
  H     -5.215140  -14.710100   84.151700
  C     -4.710730  -15.421400   82.170800
  H     -3.685270  -15.581000   82.474100
  H     -4.615850  -14.950300   81.168800
  C     -5.411880  -16.855100   82.217200
  H     -5.462670  -17.297800   83.268500
  H     -4.818350  -17.463100   81.597100
  H     -6.396990  -16.983300   81.789600
  H     -0.570938  -13.853700   87.341500
  H     -5.307330  -10.015900   81.634400

 Total Charge           Charge          ....    0
 Multiplicity           Mult            ....    1
 Number of Electrons    NEL             ....  134
 Basis Dimension        Dim             ....  322

ORBITAL ENERGIES
----------------

  NO   OCC          E(Eh)            E(eV)
   0   2.0000     -88.969962     -2420.9957
   1   2.0000     -88.967121     -2420.9185
   2   2.0000     -10.334724      -281.2221
   3   2.0000     -10.332070      -281.1499
   4   2.0000     -10.320319      -280.8301
   5   2.0000     -10.314600      -280.6745
   6   2.0000     -10.308879      -280.5189
   7   2.0000     -10.305593      -280.4295
   8   2.0000     -10.298805      -280.2447
   9   2.0000     -10.296287      -280.1762
  10   2.0000     -10.294904      -280.1386
  11   2.0000     -10.292984      -280.0863
  12   2.0000     -10.290334      -280.0142
  13   2.0000     -10.288063      -279.9524
  14   2.0000     -10.287544      -279.9383
  15   2.0000     -10.284480      -279.8549
  16   2.0000      -8.083821      -219.9720
  17   2.0000      -8.080696      -219.8869
  18   2.0000      -6.042290      -164.4191
  19   2.0000      -6.039246      -164.3363
  20   2.0000      -6.038730      -164.3222
  21   2.0000      -6.035504      -164.2344
  22   2.0000      -6.034394      -164.2042
  23   2.0000      -6.031338      -164.1211
  24   2.0000      -0.997552       -27.1448
  25   2.0000      -0.976633       -26.5755
  26   2.0000      -0.905118       -24.6295
  27   2.0000      -0.898558       -24.4510
  28   2.0000      -0.866547       -23.5799
  29   2.0000      -0.847166       -23.0525
  30   2.0000      -0.845401       -23.0045
  31   2.0000      -0.814197       -22.1554
  32   2.0000      -0.784849       -21.3568
  33   2.0000      -0.769107       -20.9285
  34   2.0000      -0.711340       -19.3566
  35   2.0000      -0.704000       -19.1568
  36   2.0000      -0.692538       -18.8449
  37   2.0000      -0.655296       -17.8315
  38   2.0000      -0.639872       -17.4118
  39   2.0000      -0.622316       -16.9341
  40   2.0000      -0.591799       -16.1037
  41   2.0000      -0.566760       -15.4223
  42   2.0000      -0.555711       -15.1217
  43   2.0000      -0.551054       -14.9949
  44   2.0000      -0.533733       -14.5236
  45   2.0000      -0.521560       -14.1924
  46   2.0000      -0.513011       -13.9597
  47   2.0000      -0.505078       -13.7439
  48   2.0000      -0.497020       -13.5246
  49   2.0000      -0.492096       -13.3906
  50   2.0000      -0.490164       -13.3380
  51   2.0000      -0.483955       -13.1691
  52   2.0000      -0.469728       -12.7820
  53   2.0000      -0.461379       -12.5548
  54   2.0000      -0.456586       -12.4243
  55   2.0000      -0.452402       -12.3105
  56   2.0000      -0.448604       -12.2071
  57   2.0000      -0.443986       -12.0815
  58   2.0000      -0.432702       -11.7744
  59   2.0000      -0.426433       -11.6038
  60   2.0000      -0.419647       -11.4192
  61   2.0000      -0.418386       -11.3849
  62   2.0000      -0.411425       -11.1954
  63   2.0000      -0.347263        -9.4495
  64   2.0000      -0.335043        -9.1170
  65   2.0000      -0.330923        -9.0049
  66   2.0000      -0.286973        -7.8089
  67   0.0000       0.026723         0.7272
  68   0.0000       0.061043         1.6611
  69   0.0000       0.101964         2.7746
  70   0.0000       0.122157         3.3241
  71   0.0000       0.125250         3.4082

MULLIKEN ATOMIC CHARGES
-----------------------
   0 S :    0.096308
   1 C :   -0.113582
   2 C :   -0.102765
   3 C :    0.034025
   4 C :   -0.148188
   5 H :    0.007014
   6 C :    0.075893
   7 H :    0.004392
   8 H :    0.033705
   9 C :   -0.093475
  10 H :    0.021501
  11 H :    0.027694
  12 C :   -0.049623
  13 H :    0.051029
  14 H :    0.033975
  15 H :    0.034483
  16 S :    0.108427
  17 C :   -0.087585
  18 C :   -0.039807
  19 C :   -0.049963
  20 C :   -0.130773
  21 H :    0.025795
  22 C :    0.100240
  23 H :    0.019452
  24 H :    0.009247
  25 C :   -0.069926
  26 H :    0.019186
  27 H :    0.036864
  28 C :   -0.050714
  29 H :    0.045496
  30 H :    0.020990
  31 H :    0.033258
  32 H :    0.049085
  33 H :    0.048343
Sum of atomic charges:   -0.0000000

LOEWDIN ATOMIC CHARGES
----------------------
   0 S :    0.376825
   1 C :   -0.186740
   2 C :   -0.063197
   3 C :   -0.059895
   4 C :   -0.177829
   5 H :    0.027609
   6 C :   -0.032891
   7 H :    0.029719
   8 H :    0.028935
   9 C :   -0.045466
  10 H :    0.019497
  11 H :    0.022090
  12 C :   -0.068614
  13 H :    0.033006
  14 H :    0.028144
  15 H :    0.031402
  16 S :    0.381535
  17 C :   -0.176297
  18 C :   -0.074149
  19 C :   -0.044749
  20 C :   -0.190236
  21 H :    0.038834
  22 C :   -0.027394
  23 H :    0.029187
  24 H :    0.023310
  25 C :   -0.033805
  26 H :    0.019798
  27 H :    0.028344
  28 C :   -0.068584
  29 H :    0.036131
  30 H :    0.019176
  31 H :    0.023001
  32 H :    0.027319
  33 H :    0.025986

  Mayer bond orders larger than 0.100000
B(  0-S ,  1-C ) :   1.1447 B(  0-S ,  4-C ) :   1.1275 B(  1-C ,  2-C ) :   1.6029
B(  1-C ,  4-C ) :   0.1051 B(  1-C , 32-H ) :   0.9620 B(  2-C ,  3-C ) :   1.2610
B(  2-C ,  6-C ) :   1.0307 B(  3-C ,  4-C ) :   1.5685 B(  3-C ,  5-H ) :   0.9894
B(  4-C , 20-C ) :   1.0430 B(  6-C ,  7-H ) :   0.9367 B(  6-C ,  8-H ) :   0.9375
B(  6-C ,  9-C ) :   1.0417 B(  9-C , 10-H ) :   0.9539 B(  9-C , 11-H ) :   0.9584
B(  9-C , 12-C ) :   1.0849 B( 12-C , 13-H ) :   0.9713 B( 12-C , 14-H ) :   0.9759
B( 12-C , 15-H ) :   0.9727 B( 16-S , 17-C ) :   1.1421 B( 16-S , 20-C ) :   1.1163
B( 17-C , 18-C ) :   1.6685 B( 17-C , 33-H ) :   0.9586 B( 18-C , 19-C ) :   1.1968
B( 18-C , 21-H ) :   0.9906 B( 19-C , 20-C ) :   1.6357 B( 19-C , 22-C ) :   1.0293
B( 22-C , 23-H ) :   0.9466 B( 22-C , 24-H ) :   0.9300 B( 22-C , 25-C ) :   1.0521
B( 25-C , 26-H ) :   0.9504 B( 25-C , 27-H ) :   0.9608 B( 25-C , 28-C ) :   1.0683
B( 28-C , 29-H ) :   0.9749 B( 28-C , 30-H ) :   0.9757 B( 28-C , 31-H ) :   0.9786

Dispersion correction           -0.014204490
FINAL SINGLE POINT ENERGY     -1339.863652219944

DIPOLE MOMENT
-------------
                                X             Y             Z
Electronic contribution:     -2.10844      33.47297       6.91722
Nuclear contribution   :      2.11009     -34.18391      -7.25914
                        -----------------------------------------
Total Dipole Moment    :      0.00164      -0.71093      -0.34192
                        -----------------------------------------
Magnitude (a.u.)       :      0.78888
Magnitude (Debye)      :      2.00518

Rotational constants in cm-1:     0.016605     0.009310     0.006417
Rotational constants in MHz :   497.799355   279.111921   192.385012

                             ****ORCA TERMINATED NORMALLY****
TOTAL RUN TIME: 0 days 0 hours 0 minutes 33 seconds 327 msec
