                         Program Version 4.2.1 -  RELEASE  -
|  1> ! wB97X-D3 SP def2-SVP
|  2> %pal
|  3> nprocs 16
|  4> end
|  5>
|  6> * xyz 0 1
|  7> S 	 -40.0692 	 0.578695 	 99.0215
|  8> C 	 -38.383 	 0.257389 	 99.2812
|  9> C 	 -37.6943 	 0.218288 	 98.0199
| 10> C 	 -38.6641 	 0.301413 	 96.9204
| 11> C 	 -39.9861 	 0.386961 	 97.2816
| 12> H 	 -38.4315 	 0.351902 	 95.8712
| 13> C 	 -36.2222 	 -0.113134 	 97.7305
| 14> H 	 -35.4465 	 0.275349 	 98.4357
| 15> H 	 -35.9817 	 0.522044 	 96.8725
| 16> C 	 -36.0087 	 -1.63495 	 97.5167
| 17> H 	 -36.3488 	 -2.16158 	 98.4167
| 18> H 	 -36.6687 	 -1.89088 	 96.7122
| 19> C 	 -34.6249 	 -2.07805 	 97.2293
| 20> H 	 -33.987 	 -1.62961 	 97.9951
| 21> H 	 -34.5535 	 -3.13131 	 97.2841
| 22> H 	 -34.2465 	 -1.59184 	 96.3169
| 23> S 	 -41.9712 	 2.09569 	 96.5906
| 24> C 	 -43.1582 	 1.65024 	 95.3828
| 25> C 	 -42.9523 	 0.368717 	 94.8588
| 26> C 	 -41.7261 	 -0.159102 	 95.4102
| 27> C 	 -41.1615 	 0.595587 	 96.4058
| 28> H 	 -43.6418 	 0.00230166 	 94.1501
| 29> C 	 -41.3214 	 -1.64316 	 94.9897
| 30> H 	 -40.4609 	 -1.64101 	 94.3034
| 31> H 	 -42.0403 	 -1.8463 	 94.16
| 32> C 	 -41.3291 	 -2.7267 	 96.0003
| 33> H 	 -42.1106 	 -2.55252 	 96.6603
| 34> H 	 -40.3127 	 -2.69669 	 96.6449
| 35> C 	 -41.5151 	 -4.10514 	 95.2808
| 36> H 	 -40.6595 	 -4.13852 	 94.5678
| 37> H 	 -42.4311 	 -4.37714 	 94.7648
| 38> H 	 -41.3267 	 -4.86693 	 95.9317
| 39> H 	 -37.9841 	 0.163523 	 100.275
| 40> H 	 -43.9815 	 2.36089 	 95.0749
| 41> *
| 42>
| 43>                          ****END OF INPUT****

CARTESIAN COORDINATES (ANGSTROEM)
---------------------------------
  S    -40.069200    0.578695   99.021500
  C    -38.383000    0.257389   99.281200
  C    -37.694300    0.218288   98.019900
  C    -38.664100    0.301413   96.920400
  C    -39.986100    0.386961   97.281600
  H    -38.431500    0.351902   95.871200
  C    -36.222200   -0.113134   97.730500
  H    -35.446500    0.275349   98.435700
  H    -35.981700    0.522044   96.872500
  C    -36.008700   -1.634950   97.516700
  H    -36.348800   -2.161580   98.416700
  H    -36.668700   -1.890880   96.712200
  C    -34.624900   -2.078050   97.229300
  H    -33.987000   -1.629610   97.995100
  H    -34.553500   -3.131310   97.284100
  H    -34.246500   -1.591840   96.316900
  S    -41.971200    2.095690   96.590600
  C    -43.158200    1.650240   95.382800
  C    -42.952300    0.368717   94.858800
  C    -41.726100   -0.159102   95.410200
  C    -41.161500    0.595587   96.405800
  H    -43.641800    0.002302   94.150100
  C    -41.321400   -1.643160   94.989700
  H    -40.460900   -1.641010   94.303400
  H    -42.040300   -1.846300   94.160000
  C    -41.329100   -2.726700   96.000300
  H    -42.110600   -2.552520   96.660300
  H    -40.312700   -2.696690   96.644900
  C    -41.515100   -4.105140   95.280800
  H    -40.659500   -4.138520   94.567800
  H    -42.431100   -4.377140   94.764800
  H    -41.326700   -4.866930   95.931700
  H    -37.984100    0.163523  100.275000
  H    -43.981500    2.360890   95.074900

 Total Charge           Charge          ....    0
 Multiplicity           Mult            ....    1
 Number of Electrons    NEL             ....  134
 Basis Dimension        Dim             ....  322

ORBITAL ENERGIES
----------------

  NO   OCC          E(Eh)            E(eV)
   0   2.0000     -88.965552     -2420.8757
   1   2.0000     -88.964625     -2420.8505
   2   2.0000     -10.330174      -281.0983
   3   2.0000     -10.325015      -280.9579
   4   2.0000     -10.322721      -280.8955
   5   2.0000     -10.321742      -280.8689
   6   2.0000     -10.314398      -280.6690
   7   2.0000     -10.307740      -280.4879
   8   2.0000     -10.298165      -280.2273
   9   2.0000     -10.297089      -280.1980
  10   2.0000     -10.295972      -280.1676
  11   2.0000     -10.291824      -280.0548
  12   2.0000     -10.288635      -279.9680
  13   2.0000     -10.281516      -279.7743
  14   2.0000     -10.273692      -279.5614
  15   2.0000     -10.273020      -279.5431
  16   2.0000      -8.081090      -219.8976
  17   2.0000      -8.079579      -219.8565
  18   2.0000      -6.039440      -164.3415
  19   2.0000      -6.038059      -164.3039
  20   2.0000      -6.035485      -164.2339
  21   2.0000      -6.033950      -164.1921
  22   2.0000      -6.031951      -164.1377
  23   2.0000      -6.030455      -164.0970
  24   2.0000      -1.006607       -27.3912
  25   2.0000      -0.981520       -26.7085
  26   2.0000      -0.912284       -24.8245
  27   2.0000      -0.905050       -24.6277
  28   2.0000      -0.868599       -23.6358
  29   2.0000      -0.849424       -23.1140
  30   2.0000      -0.845653       -23.0114
  31   2.0000      -0.813734       -22.1428
  32   2.0000      -0.780045       -21.2261
  33   2.0000      -0.770672       -20.9710
  34   2.0000      -0.704474       -19.1697
  35   2.0000      -0.698552       -19.0086
  36   2.0000      -0.686249       -18.6738
  37   2.0000      -0.665068       -18.0974
  38   2.0000      -0.647676       -17.6242
  39   2.0000      -0.617418       -16.8008
  40   2.0000      -0.593775       -16.1574
  41   2.0000      -0.568490       -15.4694
  42   2.0000      -0.562679       -15.3113
  43   2.0000      -0.551309       -15.0019
  44   2.0000      -0.536932       -14.6107
  45   2.0000      -0.525165       -14.2905
  46   2.0000      -0.515204       -14.0194
  47   2.0000      -0.512158       -13.9365
  48   2.0000      -0.507076       -13.7982
  49   2.0000      -0.495564       -13.4850
  50   2.0000      -0.490518       -13.3477
  51   2.0000      -0.484300       -13.1785
  52   2.0000      -0.468898       -12.7594
  53   2.0000      -0.457340       -12.4449
  54   2.0000      -0.453038       -12.3278
  55   2.0000      -0.449106       -12.2208
  56   2.0000      -0.445816       -12.1313
  57   2.0000      -0.440049       -11.9744
  58   2.0000      -0.437550       -11.9063
  59   2.0000      -0.423917       -11.5354
  60   2.0000      -0.411354       -11.1935
  61   2.0000      -0.408747       -11.1226
  62   2.0000      -0.403687       -10.9849
  63   2.0000      -0.346182        -9.4201
  64   2.0000      -0.332304        -9.0425
  65   2.0000      -0.325016        -8.8441
  66   2.0000      -0.297501        -8.0954
  67   0.0000       0.037489         1.0201
  68   0.0000       0.062015         1.6875
  69   0.0000       0.114665         3.1202
  70   0.0000       0.124437         3.3861
  71   0.0000       0.128428         3.4947

MULLIKEN ATOMIC CHARGES
-----------------------
   0 S :    0.103164
   1 C :   -0.117529
   2 C :   -0.081795
   3 C :    0.039566
   4 C :   -0.155910
   5 H :    0.011215
   6 C :    0.025080
   7 H :    0.022837
   8 H :    0.024670
   9 C :   -0.068021
  10 H :    0.027710
  11 H :    0.020462
  12 C :    0.003887
  13 H :    0.014288
  14 H :    0.037349
  15 H :    0.025740
  16 S :    0.116213
  17 C :   -0.129809
  18 C :   -0.016559
  19 C :   -0.046635
  20 C :   -0.151832
  21 H :    0.015206
  22 C :    0.048031
  23 H :    0.020776
  24 H :    0.001594
  25 C :   -0.043431
  26 H :    0.020293
  27 H :    0.060026
  28 C :   -0.034271
  29 H :    0.024151
  30 H :    0.041882
  31 H :    0.007335
  32 H :    0.055770
  33 H :    0.078549
Sum of atomic charges:    0.0000000

LOEWDIN ATOMIC CHARGES
----------------------
   0 S :    0.409908
   1 C :   -0.197197
   2 C :   -0.056976
   3 C :   -0.061012
   4 C :   -0.200444
   5 H :    0.030148
   6 C :   -0.040885
   7 H :    0.029434
   8 H :    0.030764
   9 C :   -0.040447
  10 H :    0.027178
  11 H :    0.019643
  12 C :   -0.061254
  13 H :    0.024476
  14 H :    0.024923
  15 H :    0.027392
  16 S :    0.423879
  17 C :   -0.191237
  18 C :   -0.067856
  19 C :   -0.056148
  20 C :   -0.214461
  21 H :    0.029177
  22 C :   -0.042881
  23 H :    0.028960
  24 H :    0.030373
  25 C :   -0.039314
  26 H :    0.014684
  27 H :    0.044634
  28 C :   -0.060479
  29 H :    0.029628
  30 H :    0.027546
  31 H :    0.011919
  32 H :    0.027199
  33 H :    0.038727

  Mayer bond orders larger than 0.100000
B(  0-S ,  1-C ) :   1.1623 B(  0-S ,  4-C ) :   1.1488 B(  1-C ,  2-C ) :   1.5652
B(  1-C ,  4-C ) :   0.1017 B(  1-C , 32-H ) :   0.9786 B(  2-C ,  3-C ) :   1.2382
B(  2-C ,  6-C ) :   1.0326 B(  3-C ,  4-C ) :   1.5916 B(  3-C ,  5-H ) :   0.9928
B(  4-C , 20-C ) :   1.0084 B(  6-C ,  7-H ) :   0.9454 B(  6-C ,  8-H ) :   0.9383
B(  6-C ,  9-C ) :   1.0536 B(  9-C , 10-H ) :   0.9542 B(  9-C , 11-H ) :   0.9537
B(  9-C , 12-C ) :   1.0945 B( 12-C , 13-H ) :   0.9685 B( 12-C , 14-H ) :   0.9713
B( 12-C , 15-H ) :   0.9707 B( 16-S , 17-C ) :   1.1692 B( 16-S , 20-C ) :   1.1535
B( 17-C , 18-C ) :   1.6039 B( 17-C , 33-H ) :   0.9585 B( 18-C , 19-C ) :   1.2361
B( 18-C , 21-H ) :   0.9991 B( 19-C , 20-C ) :   1.6266 B( 19-C , 22-C ) :   1.0227
B( 22-C , 23-H ) :   0.9252 B( 22-C , 24-H ) :   0.9364 B( 22-C , 25-C ) :   1.0582
B( 25-C , 26-H ) :   0.9581 B( 25-C , 27-H ) :   0.9464 B( 25-C , 28-C ) :   1.0704
B( 28-C , 29-H ) :   0.9757 B( 28-C , 30-H ) :   0.9760 B( 28-C , 31-H ) :   0.9721

Dispersion correction           -0.013965661
FINAL SINGLE POINT ENERGY     -1339.856780268090

DIPOLE MOMENT
-------------
                                X             Y             Z
Electronic contribution:    -16.83803      23.56149       8.65907
Nuclear contribution   :     17.08984     -23.94238      -8.99008
                        -----------------------------------------
Total Dipole Moment    :      0.25181      -0.38090      -0.33101
                        -----------------------------------------
Magnitude (a.u.)       :      0.56397
Magnitude (Debye)      :      1.43349

Rotational constants in cm-1:     0.017561     0.008712     0.006681
Rotational constants in MHz :   526.460509   261.175060   200.301805

                             ****ORCA TERMINATED NORMALLY****
TOTAL RUN TIME: 0 days 0 hours 0 minutes 28 seconds 931 msec
