                         Program Version 4.2.1 -  RELEASE  -
|  1> ! wB97X-D3 SP def2-SVP
|  2> %pal
|  3> nprocs 16
|  4> end
|  5>
|  6> * xyz 0 1
|  7> S 	 8.25556 	 -16.0876 	 66.8129
|  8> C 	 7.59081 	 -15.4325 	 65.3715
|  9> C 	 8.44218 	 -14.449 	 64.9425
| 10> C 	 9.39404 	 -14.0611 	 65.885
| 11> C 	 9.44733 	 -14.8794 	 66.9138
| 12> H 	 10.1108 	 -13.2877 	 65.8177
| 13> C 	 8.38717 	 -13.9448 	 63.4977
| 14> H 	 7.82008 	 -14.5975 	 62.8644
| 15> H 	 9.37138 	 -14.1415 	 63.0809
| 16> C 	 8.14623 	 -12.4544 	 63.1301
| 17> H 	 8.80468 	 -11.7863 	 63.7683
| 18> H 	 8.6182 	 -12.3885 	 62.1498
| 19> C 	 6.67711 	 -12.0947 	 63.2208
| 20> H 	 6.3799 	 -11.205 	 62.6461
| 21> H 	 5.9968 	 -12.814 	 62.8851
| 22> H 	 6.33676 	 -11.8849 	 64.2836
| 23> S 	 11.1699 	 -16.186 	 68.7029
| 24> C 	 11.9719 	 -15.3477 	 69.9108
| 25> C 	 11.6849 	 -14.012 	 69.8857
| 26> C 	 10.9095 	 -13.6209 	 68.7699
| 27> C 	 10.3301 	 -14.7319 	 68.114
| 28> H 	 12.0718 	 -13.4211 	 70.6869
| 29> C 	 10.726 	 -12.1498 	 68.5631
| 30> H 	 10.8811 	 -11.8532 	 67.5087
| 31> H 	 11.6566 	 -11.7604 	 69.0634
| 32> C 	 9.4317 	 -11.5879 	 69.1768
| 33> H 	 9.586 	 -10.4924 	 69.0994
| 34> H 	 9.43918 	 -11.891 	 70.203
| 35> C 	 8.30494 	 -11.9813 	 68.3442
| 36> H 	 7.90815 	 -12.9466 	 68.523
| 37> H 	 8.42572 	 -11.8395 	 67.2807
| 38> H 	 7.55779 	 -11.1631 	 68.5411
| 39> H 	 6.99783 	 -15.9418 	 64.648
| 40> H 	 12.6163 	 -15.8292 	 70.5857
| 41> *
| 42>
| 43>                          ****END OF INPUT****

CARTESIAN COORDINATES (ANGSTROEM)
---------------------------------
  S      8.255560  -16.087600   66.812900
  C      7.590810  -15.432500   65.371500
  C      8.442180  -14.449000   64.942500
  C      9.394040  -14.061100   65.885000
  C      9.447330  -14.879400   66.913800
  H     10.110800  -13.287700   65.817700
  C      8.387170  -13.944800   63.497700
  H      7.820080  -14.597500   62.864400
  H      9.371380  -14.141500   63.080900
  C      8.146230  -12.454400   63.130100
  H      8.804680  -11.786300   63.768300
  H      8.618200  -12.388500   62.149800
  C      6.677110  -12.094700   63.220800
  H      6.379900  -11.205000   62.646100
  H      5.996800  -12.814000   62.885100
  H      6.336760  -11.884900   64.283600
  S     11.169900  -16.186000   68.702900
  C     11.971900  -15.347700   69.910800
  C     11.684900  -14.012000   69.885700
  C     10.909500  -13.620900   68.769900
  C     10.330100  -14.731900   68.114000
  H     12.071800  -13.421100   70.686900
  C     10.726000  -12.149800   68.563100
  H     10.881100  -11.853200   67.508700
  H     11.656600  -11.760400   69.063400
  C      9.431700  -11.587900   69.176800
  H      9.586000  -10.492400   69.099400
  H      9.439180  -11.891000   70.203000
  C      8.304940  -11.981300   68.344200
  H      7.908150  -12.946600   68.523000
  H      8.425720  -11.839500   67.280700
  H      7.557790  -11.163100   68.541100
  H      6.997830  -15.941800   64.648000
  H     12.616300  -15.829200   70.585700

 Total Charge           Charge          ....    0
 Multiplicity           Mult            ....    1
 Number of Electrons    NEL             ....  134
 Basis Dimension        Dim             ....  322

ORBITAL ENERGIES
----------------

  NO   OCC          E(Eh)            E(eV)
   0   2.0000     -88.962600     -2420.7954
   1   2.0000     -88.961148     -2420.7559
   2   2.0000     -10.331375      -281.1310
   3   2.0000     -10.322202      -280.8814
   4   2.0000     -10.307163      -280.4722
   5   2.0000     -10.304525      -280.4004
   6   2.0000     -10.303290      -280.3668
   7   2.0000     -10.296275      -280.1759
   8   2.0000     -10.294806      -280.1359
   9   2.0000     -10.290820      -280.0275
  10   2.0000     -10.288770      -279.9717
  11   2.0000     -10.286616      -279.9131
  12   2.0000     -10.281826      -279.7827
  13   2.0000     -10.278840      -279.7014
  14   2.0000     -10.276513      -279.6381
  15   2.0000     -10.265774      -279.3459
  16   2.0000      -8.078508      -219.8274
  17   2.0000      -8.077512      -219.8003
  18   2.0000      -6.036813      -164.2700
  19   2.0000      -6.035945      -164.2464
  20   2.0000      -6.032708      -164.1583
  21   2.0000      -6.031750      -164.1322
  22   2.0000      -6.029566      -164.0728
  23   2.0000      -6.028285      -164.0380
  24   2.0000      -1.020255       -27.7625
  25   2.0000      -0.997060       -27.1314
  26   2.0000      -0.920315       -25.0430
  27   2.0000      -0.909231       -24.7414
  28   2.0000      -0.871085       -23.7034
  29   2.0000      -0.857863       -23.3436
  30   2.0000      -0.850578       -23.1454
  31   2.0000      -0.819565       -22.3015
  32   2.0000      -0.784775       -21.3548
  33   2.0000      -0.776019       -21.1166
  34   2.0000      -0.710699       -19.3391
  35   2.0000      -0.697755       -18.9869
  36   2.0000      -0.693461       -18.8700
  37   2.0000      -0.659490       -17.9456
  38   2.0000      -0.645167       -17.5559
  39   2.0000      -0.628672       -17.1070
  40   2.0000      -0.604649       -16.4533
  41   2.0000      -0.573494       -15.6056
  42   2.0000      -0.558103       -15.1867
  43   2.0000      -0.548599       -14.9281
  44   2.0000      -0.539451       -14.6792
  45   2.0000      -0.532644       -14.4940
  46   2.0000      -0.520636       -14.1672
  47   2.0000      -0.515009       -14.0141
  48   2.0000      -0.509841       -13.8735
  49   2.0000      -0.498995       -13.5783
  50   2.0000      -0.487320       -13.2606
  51   2.0000      -0.484764       -13.1911
  52   2.0000      -0.479130       -13.0378
  53   2.0000      -0.472829       -12.8663
  54   2.0000      -0.464631       -12.6433
  55   2.0000      -0.446923       -12.1614
  56   2.0000      -0.443956       -12.0806
  57   2.0000      -0.431964       -11.7543
  58   2.0000      -0.430825       -11.7233
  59   2.0000      -0.427219       -11.6252
  60   2.0000      -0.412137       -11.2148
  61   2.0000      -0.410289       -11.1645
  62   2.0000      -0.406597       -11.0641
  63   2.0000      -0.354548        -9.6478
  64   2.0000      -0.329848        -8.9756
  65   2.0000      -0.327226        -8.9043
  66   2.0000      -0.291680        -7.9370
  67   0.0000       0.032622         0.8877
  68   0.0000       0.078538         2.1371
  69   0.0000       0.113529         3.0893
  70   0.0000       0.123003         3.3471
  71   0.0000       0.131081         3.5669

MULLIKEN ATOMIC CHARGES
-----------------------
   0 S :    0.100395
   1 C :   -0.087934
   2 C :   -0.086381
   3 C :    0.013882
   4 C :   -0.098297
   5 H :   -0.018388
   6 C :    0.036771
   7 H :    0.003768
   8 H :    0.022095
   9 C :   -0.059605
  10 H :    0.032713
  11 H :    0.027557
  12 C :   -0.035419
  13 H :    0.030002
  14 H :    0.012823
  15 H :    0.042624
  16 S :    0.100812
  17 C :   -0.064011
  18 C :   -0.040345
  19 C :   -0.056588
  20 C :   -0.136193
  21 H :    0.012850
  22 C :    0.001278
  23 H :    0.028570
  24 H :    0.019498
  25 C :   -0.010302
  26 H :    0.030014
  27 H :    0.023980
  28 C :   -0.023546
  29 H :    0.049247
  30 H :    0.021255
  31 H :    0.024511
  32 H :    0.043227
  33 H :    0.039139
Sum of atomic charges:    0.0000000

LOEWDIN ATOMIC CHARGES
----------------------
   0 S :    0.430167
   1 C :   -0.213132
   2 C :   -0.056656
   3 C :   -0.069091
   4 C :   -0.198038
   5 H :    0.024685
   6 C :   -0.033705
   7 H :    0.023343
   8 H :    0.033069
   9 C :   -0.042534
  10 H :    0.029098
  11 H :    0.026234
  12 C :   -0.072998
  13 H :    0.027566
  14 H :    0.015877
  15 H :    0.037198
  16 S :    0.425862
  17 C :   -0.194713
  18 C :   -0.077892
  19 C :   -0.054875
  20 C :   -0.195193
  21 H :    0.029625
  22 C :   -0.040135
  23 H :    0.025920
  24 H :    0.032737
  25 C :   -0.032894
  26 H :    0.028817
  27 H :    0.025148
  28 C :   -0.064570
  29 H :    0.025235
  30 H :    0.025130
  31 H :    0.034803
  32 H :    0.025604
  33 H :    0.020307

  Mayer bond orders larger than 0.100000
B(  0-S ,  1-C ) :   1.1295 B(  0-S ,  4-C ) :   1.1683 B(  1-C ,  2-C ) :   1.6148
B(  1-C , 32-H ) :   0.9640 B(  2-C ,  3-C ) :   1.2317 B(  2-C ,  6-C ) :   1.0184
B(  3-C ,  4-C ) :   1.5975 B(  3-C ,  5-H ) :   1.0114 B(  4-C , 20-C ) :   0.9909
B(  6-C ,  7-H ) :   0.9407 B(  6-C ,  8-H ) :   0.9389 B(  6-C ,  9-C ) :   1.0747
B(  9-C , 10-H ) :   0.9563 B(  9-C , 11-H ) :   0.9549 B(  9-C , 12-C ) :   1.0649
B( 12-C , 13-H ) :   0.9740 B( 12-C , 14-H ) :   0.9770 B( 12-C , 15-H ) :   0.9739
B( 16-S , 17-C ) :   1.1905 B( 16-S , 20-C ) :   1.1488 B( 17-C , 18-C ) :   1.5817
B( 17-C , 20-C ) :   0.1030 B( 17-C , 33-H ) :   0.9722 B( 18-C , 19-C ) :   1.2625
B( 18-C , 21-H ) :   0.9947 B( 19-C , 20-C ) :   1.5638 B( 19-C , 22-C ) :   1.0360
B( 22-C , 23-H ) :   0.9389 B( 22-C , 24-H ) :   0.9284 B( 22-C , 25-C ) :   1.0730
B( 25-C , 26-H ) :   0.9520 B( 25-C , 27-H ) :   0.9479 B( 25-C , 28-C ) :   1.0908
B( 28-C , 29-H ) :   0.9707 B( 28-C , 30-H ) :   0.9644 B( 28-C , 31-H ) :   0.9651

Dispersion correction           -0.015622329
FINAL SINGLE POINT ENERGY     -1339.855698609334

DIPOLE MOMENT
-------------
                                X             Y             Z
Electronic contribution:      8.98756     -24.33704      11.97270
Nuclear contribution   :     -8.74367      24.89953     -12.23638
                        -----------------------------------------
Total Dipole Moment    :      0.24389       0.56249      -0.26367
                        -----------------------------------------
Magnitude (a.u.)       :      0.66738
Magnitude (Debye)      :      1.69635

Rotational constants in cm-1:     0.021947     0.009069     0.007274
Rotational constants in MHz :   657.950857   271.874501   218.064350

                             ****ORCA TERMINATED NORMALLY****
TOTAL RUN TIME: 0 days 0 hours 0 minutes 37 seconds 30 msec
