                         Program Version 4.2.1 -  RELEASE  -
|  1> ! wB97X-D3 SP def2-SVP
|  2> %pal
|  3> nprocs 16
|  4> end
|  5>
|  6> * xyz 0 1
|  7> S 	 69.1145 	 22.142 	 81.1545
|  8> C 	 69.2831 	 20.4973 	 81.6564
|  9> C 	 69.4717 	 19.6558 	 80.5416
| 10> C 	 69.2753 	 20.4156 	 79.3062
| 11> C 	 68.9465 	 21.7231 	 79.4361
| 12> H 	 69.2264 	 19.9173 	 78.3284
| 13> C 	 69.4885 	 18.1004 	 80.6141
| 14> H 	 68.8003 	 17.8043 	 81.4267
| 15> H 	 70.4759 	 17.7543 	 80.9222
| 16> C 	 69.0245 	 17.4621 	 79.3338
| 17> H 	 68.1432 	 17.9844 	 78.9965
| 18> H 	 69.8913 	 17.662 	 78.6532
| 19> C 	 68.8107 	 16.006 	 79.2782
| 20> H 	 67.8767 	 15.8697 	 79.79
| 21> H 	 68.851 	 15.5985 	 78.2147
| 22> H 	 69.5564 	 15.5135 	 79.8368
| 23> S 	 66.7502 	 23.2402 	 78.5785
| 24> C 	 66.8903 	 23.9118 	 76.9373
| 25> C 	 68.1333 	 23.8325 	 76.4103
| 26> C 	 69.0181 	 23.135 	 77.2658
| 27> C 	 68.4523 	 22.707 	 78.439
| 28> H 	 68.3047 	 24.2746 	 75.4832
| 29> C 	 70.4513 	 23.0107 	 76.8291
| 30> H 	 71.0962 	 23.0831 	 77.8019
| 31> H 	 70.8094 	 23.9216 	 76.3315
| 32> C 	 70.8034 	 21.6517 	 76.0993
| 33> H 	 70.3746 	 20.739 	 76.624
| 34> H 	 71.8979 	 21.4665 	 76.0966
| 35> C 	 70.418 	 21.6216 	 74.6152
| 36> H 	 70.911 	 22.4569 	 74.1278
| 37> H 	 69.4241 	 21.9431 	 74.4986
| 38> H 	 70.7169 	 20.6832 	 74.0843
| 39> H 	 69.4265 	 20.2184 	 82.6687
| 40> H 	 66.089 	 24.4923 	 76.479
| 41> *
| 42>
| 43>                          ****END OF INPUT****

CARTESIAN COORDINATES (ANGSTROEM)
---------------------------------
  S     69.114500   22.142000   81.154500
  C     69.283100   20.497300   81.656400
  C     69.471700   19.655800   80.541600
  C     69.275300   20.415600   79.306200
  C     68.946500   21.723100   79.436100
  H     69.226400   19.917300   78.328400
  C     69.488500   18.100400   80.614100
  H     68.800300   17.804300   81.426700
  H     70.475900   17.754300   80.922200
  C     69.024500   17.462100   79.333800
  H     68.143200   17.984400   78.996500
  H     69.891300   17.662000   78.653200
  C     68.810700   16.006000   79.278200
  H     67.876700   15.869700   79.790000
  H     68.851000   15.598500   78.214700
  H     69.556400   15.513500   79.836800
  S     66.750200   23.240200   78.578500
  C     66.890300   23.911800   76.937300
  C     68.133300   23.832500   76.410300
  C     69.018100   23.135000   77.265800
  C     68.452300   22.707000   78.439000
  H     68.304700   24.274600   75.483200
  C     70.451300   23.010700   76.829100
  H     71.096200   23.083100   77.801900
  H     70.809400   23.921600   76.331500
  C     70.803400   21.651700   76.099300
  H     70.374600   20.739000   76.624000
  H     71.897900   21.466500   76.096600
  C     70.418000   21.621600   74.615200
  H     70.911000   22.456900   74.127800
  H     69.424100   21.943100   74.498600
  H     70.716900   20.683200   74.084300
  H     69.426500   20.218400   82.668700
  H     66.089000   24.492300   76.479000

 Total Charge           Charge          ....    0
 Multiplicity           Mult            ....    1
 Number of Electrons    NEL             ....  134
 Basis Dimension        Dim             ....  322

ORBITAL ENERGIES
----------------

  NO   OCC          E(Eh)            E(eV)
   0   2.0000     -88.966195     -2420.8933
   1   2.0000     -88.960277     -2420.7322
   2   2.0000     -10.330207      -281.0992
   3   2.0000     -10.329677      -281.0848
   4   2.0000     -10.318434      -280.7789
   5   2.0000     -10.313784      -280.6523
   6   2.0000     -10.307537      -280.4823
   7   2.0000     -10.302874      -280.3555
   8   2.0000     -10.301908      -280.3292
   9   2.0000     -10.296036      -280.1694
  10   2.0000     -10.295888      -280.1653
  11   2.0000     -10.295597      -280.1574
  12   2.0000     -10.287305      -279.9318
  13   2.0000     -10.280374      -279.7432
  14   2.0000     -10.275176      -279.6017
  15   2.0000     -10.274037      -279.5707
  16   2.0000      -8.080141      -219.8718
  17   2.0000      -8.075254      -219.7388
  18   2.0000      -6.038699      -164.3213
  19   2.0000      -6.034952      -164.2194
  20   2.0000      -6.033768      -164.1872
  21   2.0000      -6.030699      -164.1037
  22   2.0000      -6.029669      -164.0756
  23   2.0000      -6.026050      -163.9772
  24   2.0000      -1.002824       -27.2882
  25   2.0000      -0.982799       -26.7433
  26   2.0000      -0.918782       -25.0013
  27   2.0000      -0.900840       -24.5131
  28   2.0000      -0.870861       -23.6973
  29   2.0000      -0.849740       -23.1226
  30   2.0000      -0.844659       -22.9843
  31   2.0000      -0.820752       -22.3338
  32   2.0000      -0.781410       -21.2633
  33   2.0000      -0.769671       -20.9438
  34   2.0000      -0.709233       -19.2992
  35   2.0000      -0.695642       -18.9294
  36   2.0000      -0.681063       -18.5327
  37   2.0000      -0.662466       -18.0266
  38   2.0000      -0.644944       -17.5498
  39   2.0000      -0.616389       -16.7728
  40   2.0000      -0.594386       -16.1741
  41   2.0000      -0.583530       -15.8786
  42   2.0000      -0.567540       -15.4435
  43   2.0000      -0.551134       -14.9971
  44   2.0000      -0.535806       -14.5800
  45   2.0000      -0.528335       -14.3767
  46   2.0000      -0.517309       -14.0767
  47   2.0000      -0.509748       -13.8709
  48   2.0000      -0.503594       -13.7035
  49   2.0000      -0.499951       -13.6044
  50   2.0000      -0.487452       -13.2642
  51   2.0000      -0.477816       -13.0020
  52   2.0000      -0.473395       -12.8817
  53   2.0000      -0.468578       -12.7507
  54   2.0000      -0.458781       -12.4841
  55   2.0000      -0.451929       -12.2976
  56   2.0000      -0.444517       -12.0959
  57   2.0000      -0.434614       -11.8264
  58   2.0000      -0.431268       -11.7354
  59   2.0000      -0.420079       -11.4309
  60   2.0000      -0.414470       -11.2783
  61   2.0000      -0.407755       -11.0956
  62   2.0000      -0.404099       -10.9961
  63   2.0000      -0.346084        -9.4174
  64   2.0000      -0.331416        -9.0183
  65   2.0000      -0.323821        -8.8116
  66   2.0000      -0.301005        -8.1908
  67   0.0000       0.032665         0.8889
  68   0.0000       0.062370         1.6972
  69   0.0000       0.110626         3.0103
  70   0.0000       0.119838         3.2609
  71   0.0000       0.132965         3.6182

MULLIKEN ATOMIC CHARGES
-----------------------
   0 S :    0.096371
   1 C :   -0.107694
   2 C :   -0.112016
   3 C :    0.024630
   4 C :   -0.161606
   5 H :    0.029914
   6 C :    0.075828
   7 H :    0.026348
   8 H :    0.031838
   9 C :   -0.158842
  10 H :    0.043109
  11 H :    0.031689
  12 C :    0.017609
  13 H :    0.024098
  14 H :    0.050404
  15 H :    0.010821
  16 S :    0.103116
  17 C :   -0.094880
  18 C :   -0.005996
  19 C :    0.004116
  20 C :   -0.147925
  21 H :   -0.002703
  22 C :    0.004455
  23 H :    0.045900
  24 H :    0.033905
  25 C :   -0.079880
  26 H :    0.034838
  27 H :    0.033140
  28 C :   -0.026088
  29 H :    0.008357
  30 H :    0.012724
  31 H :    0.052051
  32 H :    0.044546
  33 H :    0.057823
Sum of atomic charges:    0.0000000

LOEWDIN ATOMIC CHARGES
----------------------
   0 S :    0.395475
   1 C :   -0.191931
   2 C :   -0.063178
   3 C :   -0.063919
   4 C :   -0.190221
   5 H :    0.031902
   6 C :   -0.029893
   7 H :    0.030113
   8 H :    0.029026
   9 C :   -0.055692
  10 H :    0.024696
  11 H :    0.026427
  12 C :   -0.059174
  13 H :    0.024416
  14 H :    0.040299
  15 H :    0.017546
  16 S :    0.379107
  17 C :   -0.162332
  18 C :   -0.067988
  19 C :   -0.053459
  20 C :   -0.188478
  21 H :    0.025006
  22 C :   -0.039327
  23 H :    0.045591
  24 H :    0.032370
  25 C :   -0.042259
  26 H :    0.028414
  27 H :    0.025883
  28 C :   -0.071284
  29 H :    0.022084
  30 H :    0.015343
  31 H :    0.034316
  32 H :    0.021679
  33 H :    0.029443

  Mayer bond orders larger than 0.100000
B(  0-S ,  1-C ) :   1.1568 B(  0-S ,  4-C ) :   1.1360 B(  1-C ,  2-C ) :   1.6057
B(  1-C , 32-H ) :   0.9753 B(  2-C ,  3-C ) :   1.2445 B(  2-C ,  6-C ) :   0.9998
B(  3-C ,  4-C ) :   1.6071 B(  3-C ,  5-H ) :   0.9759 B(  4-C , 20-C ) :   1.0025
B(  6-C ,  7-H ) :   0.9496 B(  6-C ,  8-H ) :   0.9264 B(  6-C ,  9-C ) :   1.0954
B(  9-C , 10-H ) :   0.9551 B(  9-C , 11-H ) :   0.9407 B(  9-C , 12-C ) :   1.0889
B( 12-C , 13-H ) :   0.9700 B( 12-C , 14-H ) :   0.9711 B( 12-C , 15-H ) :   0.9676
B( 16-S , 17-C ) :   1.1471 B( 16-S , 20-C ) :   1.1210 B( 17-C , 18-C ) :   1.6393
B( 17-C , 33-H ) :   0.9606 B( 18-C , 19-C ) :   1.2040 B( 18-C , 21-H ) :   1.0023
B( 19-C , 20-C ) :   1.6433 B( 19-C , 22-C ) :   1.0348 B( 22-C , 23-H ) :   0.9354
B( 22-C , 24-H ) :   0.9503 B( 22-C , 25-C ) :   1.0512 B( 25-C , 26-H ) :   0.9559
B( 25-C , 27-H ) :   0.9563 B( 25-C , 28-C ) :   1.0739 B( 28-C , 29-H ) :   0.9689
B( 28-C , 30-H ) :   0.9732 B( 28-C , 31-H ) :   0.9730

Dispersion correction           -0.014418227
FINAL SINGLE POINT ENERGY     -1339.865728535441

DIPOLE MOMENT
-------------
                                X             Y             Z
Electronic contribution:    -11.03284      21.26601      14.73090
Nuclear contribution   :     11.26364     -21.63195     -15.16013
                        -----------------------------------------
Total Dipole Moment    :      0.23079      -0.36594      -0.42923
                        -----------------------------------------
Magnitude (a.u.)       :      0.60944
Magnitude (Debye)      :      1.54908

Rotational constants in cm-1:     0.016700     0.009026     0.007187
Rotational constants in MHz :   500.650451   270.601789   215.457887

                             ****ORCA TERMINATED NORMALLY****
TOTAL RUN TIME: 0 days 0 hours 0 minutes 30 seconds 854 msec
