                         Program Version 4.2.1 -  RELEASE  -
|  1> ! wB97X-D3 SP def2-SVP
|  2> %pal
|  3> nprocs 16
|  4> end
|  5>
|  6> * xyz 0 1
|  7> S 	 -9.42581 	 -8.47251 	 86.2149
|  8> C 	 -10.287 	 -9.07317 	 84.7846
|  9> C 	 -11.2346 	 -9.98859 	 85.2517
| 10> C 	 -11.1164 	 -10.2254 	 86.6452
| 11> C 	 -10.1786 	 -9.476 	 87.3387
| 12> H 	 -11.7697 	 -10.9494 	 87.2033
| 13> C 	 -12.3174 	 -10.6627 	 84.4636
| 14> H 	 -12.9471 	 -9.80829 	 84.0757
| 15> H 	 -12.9702 	 -11.3533 	 85.0474
| 16> C 	 -11.79 	 -11.5113 	 83.3096
| 17> H 	 -11.1859 	 -10.8748 	 82.5849
| 18> H 	 -11.2733 	 -12.3731 	 83.7242
| 19> C 	 -12.9935 	 -12.1928 	 82.6498
| 20> H 	 -12.6995 	 -12.8016 	 81.7732
| 21> H 	 -13.5214 	 -12.7731 	 83.4188
| 22> H 	 -13.5925 	 -11.4355 	 82.1564
| 23> S 	 -9.98014 	 -7.84029 	 89.5173
| 24> C 	 -9.45827 	 -8.56523 	 91.0903
| 25> C 	 -9.25705 	 -9.88196 	 91.0384
| 26> C 	 -9.38195 	 -10.3603 	 89.7211
| 27> C 	 -9.92422 	 -9.41436 	 88.7843
| 28> H 	 -8.93159 	 -10.3091 	 92.0003
| 29> C 	 -9.09137 	 -11.7799 	 89.3331
| 30> H 	 -9.5268 	 -11.947 	 88.3131
| 31> H 	 -9.63306 	 -12.5861 	 89.9062
| 32> C 	 -7.60644 	 -12.2424 	 89.2826
| 33> H 	 -7.07121 	 -11.6454 	 88.525
| 34> H 	 -7.59832 	 -13.2363 	 88.9907
| 35> C 	 -7.02977 	 -12.0922 	 90.6751
| 36> H 	 -7.6059 	 -12.7013 	 91.3503
| 37> H 	 -6.97525 	 -11.0562 	 91.0141
| 38> H 	 -5.95758 	 -12.3552 	 90.7314
| 39> H 	 -10.3278 	 -8.78902 	 83.7723
| 40> H 	 -9.39365 	 -7.96902 	 91.9688
| 41> *
| 42>
| 43>                          ****END OF INPUT****

CARTESIAN COORDINATES (ANGSTROEM)
---------------------------------
  S     -9.425810   -8.472510   86.214900
  C    -10.287000   -9.073170   84.784600
  C    -11.234600   -9.988590   85.251700
  C    -11.116400  -10.225400   86.645200
  C    -10.178600   -9.476000   87.338700
  H    -11.769700  -10.949400   87.203300
  C    -12.317400  -10.662700   84.463600
  H    -12.947100   -9.808290   84.075700
  H    -12.970200  -11.353300   85.047400
  C    -11.790000  -11.511300   83.309600
  H    -11.185900  -10.874800   82.584900
  H    -11.273300  -12.373100   83.724200
  C    -12.993500  -12.192800   82.649800
  H    -12.699500  -12.801600   81.773200
  H    -13.521400  -12.773100   83.418800
  H    -13.592500  -11.435500   82.156400
  S     -9.980140   -7.840290   89.517300
  C     -9.458270   -8.565230   91.090300
  C     -9.257050   -9.881960   91.038400
  C     -9.381950  -10.360300   89.721100
  C     -9.924220   -9.414360   88.784300
  H     -8.931590  -10.309100   92.000300
  C     -9.091370  -11.779900   89.333100
  H     -9.526800  -11.947000   88.313100
  H     -9.633060  -12.586100   89.906200
  C     -7.606440  -12.242400   89.282600
  H     -7.071210  -11.645400   88.525000
  H     -7.598320  -13.236300   88.990700
  C     -7.029770  -12.092200   90.675100
  H     -7.605900  -12.701300   91.350300
  H     -6.975250  -11.056200   91.014100
  H     -5.957580  -12.355200   90.731400
  H    -10.327800   -8.789020   83.772300
  H     -9.393650   -7.969020   91.968800

 Total Charge           Charge          ....    0
 Multiplicity           Mult            ....    1
 Number of Electrons    NEL             ....  134
 Basis Dimension        Dim             ....  322

ORBITAL ENERGIES
----------------

  NO   OCC          E(Eh)            E(eV)
   0   2.0000     -88.968139     -2420.9462
   1   2.0000     -88.966146     -2420.8919
   2   2.0000     -10.334835      -281.2252
   3   2.0000     -10.328074      -281.0412
   4   2.0000     -10.315535      -280.7000
   5   2.0000     -10.313870      -280.6547
   6   2.0000     -10.310170      -280.5540
   7   2.0000     -10.298933      -280.2482
   8   2.0000     -10.296684      -280.1870
   9   2.0000     -10.294230      -280.1202
  10   2.0000     -10.292040      -280.0606
  11   2.0000     -10.290837      -280.0279
  12   2.0000     -10.289979      -280.0046
  13   2.0000     -10.280044      -279.7342
  14   2.0000     -10.278824      -279.7010
  15   2.0000     -10.272292      -279.5233
  16   2.0000      -8.083039      -219.9507
  17   2.0000      -8.080481      -219.8811
  18   2.0000      -6.041672      -164.4023
  19   2.0000      -6.038903      -164.3269
  20   2.0000      -6.037175      -164.2799
  21   2.0000      -6.035140      -164.2245
  22   2.0000      -6.033955      -164.1923
  23   2.0000      -6.031247      -164.1186
  24   2.0000      -1.010682       -27.5021
  25   2.0000      -0.987460       -26.8701
  26   2.0000      -0.919130       -25.0108
  27   2.0000      -0.907038       -24.6818
  28   2.0000      -0.876897       -23.8616
  29   2.0000      -0.847123       -23.0514
  30   2.0000      -0.844554       -22.9815
  31   2.0000      -0.818613       -22.2756
  32   2.0000      -0.778277       -21.1780
  33   2.0000      -0.767399       -20.8820
  34   2.0000      -0.712773       -19.3955
  35   2.0000      -0.696121       -18.9424
  36   2.0000      -0.689674       -18.7670
  37   2.0000      -0.657424       -17.8894
  38   2.0000      -0.637285       -17.3414
  39   2.0000      -0.617577       -16.8051
  40   2.0000      -0.595763       -16.2115
  41   2.0000      -0.585557       -15.9338
  42   2.0000      -0.572331       -15.5739
  43   2.0000      -0.557232       -15.1631
  44   2.0000      -0.539083       -14.6692
  45   2.0000      -0.521759       -14.1978
  46   2.0000      -0.517503       -14.0820
  47   2.0000      -0.514759       -14.0073
  48   2.0000      -0.503121       -13.6906
  49   2.0000      -0.500464       -13.6183
  50   2.0000      -0.488971       -13.3056
  51   2.0000      -0.477916       -13.0048
  52   2.0000      -0.472244       -12.8504
  53   2.0000      -0.467812       -12.7298
  54   2.0000      -0.460127       -12.5207
  55   2.0000      -0.444518       -12.0959
  56   2.0000      -0.438007       -11.9188
  57   2.0000      -0.428906       -11.6711
  58   2.0000      -0.425876       -11.5887
  59   2.0000      -0.423413       -11.5217
  60   2.0000      -0.420211       -11.4345
  61   2.0000      -0.414423       -11.2770
  62   2.0000      -0.411599       -11.2002
  63   2.0000      -0.349687        -9.5155
  64   2.0000      -0.330603        -8.9962
  65   2.0000      -0.327387        -8.9087
  66   2.0000      -0.294053        -8.0016
  67   0.0000       0.029297         0.7972
  68   0.0000       0.064856         1.7648
  69   0.0000       0.109539         2.9807
  70   0.0000       0.121382         3.3030
  71   0.0000       0.128769         3.5040

MULLIKEN ATOMIC CHARGES
-----------------------
   0 S :    0.121963
   1 C :   -0.091320
   2 C :   -0.084473
   3 C :    0.011611
   4 C :   -0.148887
   5 H :    0.022102
   6 C :    0.024185
   7 H :    0.047580
   8 H :    0.023088
   9 C :   -0.099144
  10 H :    0.043108
  11 H :    0.035916
  12 C :   -0.046659
  13 H :    0.035453
  14 H :    0.039849
  15 H :    0.020804
  16 S :    0.091523
  17 C :   -0.093570
  18 C :   -0.016025
  19 C :   -0.008701
  20 C :   -0.143775
  21 H :    0.039142
  22 C :   -0.011484
  23 H :    0.021218
  24 H :    0.034731
  25 C :   -0.012435
  26 H :    0.033588
  27 H :    0.014566
  28 C :   -0.062332
  29 H :    0.021979
  30 H :    0.038537
  31 H :    0.029199
  32 H :    0.025571
  33 H :    0.043090
Sum of atomic charges:   -0.0000000

LOEWDIN ATOMIC CHARGES
----------------------
   0 S :    0.440063
   1 C :   -0.199268
   2 C :   -0.063792
   3 C :   -0.078021
   4 C :   -0.225041
   5 H :    0.034510
   6 C :   -0.038700
   7 H :    0.039908
   8 H :    0.031608
   9 C :   -0.042886
  10 H :    0.028139
  11 H :    0.027284
  12 C :   -0.068601
  13 H :    0.028039
  14 H :    0.027124
  15 H :    0.020789
  16 S :    0.387134
  17 C :   -0.153357
  18 C :   -0.073836
  19 C :   -0.051252
  20 C :   -0.198053
  21 H :    0.047526
  22 C :   -0.045982
  23 H :    0.031927
  24 H :    0.032074
  25 C :   -0.028199
  26 H :    0.027376
  27 H :    0.015281
  28 C :   -0.068985
  29 H :    0.020011
  30 H :    0.026144
  31 H :    0.026879
  32 H :    0.023350
  33 H :    0.020804

  Mayer bond orders larger than 0.100000
B(  0-S ,  1-C ) :   1.1395 B(  0-S ,  4-C ) :   1.1815 B(  1-C ,  2-C ) :   1.5614
B(  1-C ,  4-C ) :   0.1066 B(  1-C , 32-H ) :   0.9765 B(  2-C ,  3-C ) :   1.2986
B(  2-C ,  6-C ) :   1.0128 B(  3-C ,  4-C ) :   1.5267 B(  3-C ,  5-H ) :   0.9875
B(  4-C , 20-C ) :   1.0241 B(  6-C ,  7-H ) :   0.9347 B(  6-C ,  8-H ) :   0.9495
B(  6-C ,  9-C ) :   1.0690 B(  9-C , 10-H ) :   0.9536 B(  9-C , 11-H ) :   0.9565
B(  9-C , 12-C ) :   1.0846 B( 12-C , 13-H ) :   0.9730 B( 12-C , 14-H ) :   0.9722
B( 12-C , 15-H ) :   0.9735 B( 16-S , 17-C ) :   1.1425 B( 16-S , 20-C ) :   1.1478
B( 17-C , 18-C ) :   1.6416 B( 17-C , 20-C ) :   0.1020 B( 17-C , 33-H ) :   0.9651
B( 18-C , 19-C ) :   1.2139 B( 18-C , 21-H ) :   0.9846 B( 19-C , 20-C ) :   1.5797
B( 19-C , 22-C ) :   1.0475 B( 22-C , 23-H ) :   0.9280 B( 22-C , 24-H ) :   0.9438
B( 22-C , 25-C ) :   1.0755 B( 25-C , 26-H ) :   0.9518 B( 25-C , 27-H ) :   0.9527
B( 25-C , 28-C ) :   1.0907 B( 28-C , 29-H ) :   0.9719 B( 28-C , 30-H ) :   0.9665
B( 28-C , 31-H ) :   0.9682

Dispersion correction           -0.013720628
FINAL SINGLE POINT ENERGY     -1339.863587893452

DIPOLE MOMENT
-------------
                                X             Y             Z
Electronic contribution:      2.38739      23.24170       8.45199
Nuclear contribution   :     -2.54643     -23.75363      -8.43857
                        -----------------------------------------
Total Dipole Moment    :     -0.15905      -0.51193       0.01341
                        -----------------------------------------
Magnitude (a.u.)       :      0.53624
Magnitude (Debye)      :      1.36300

Rotational constants in cm-1:     0.022495     0.007232     0.006161
Rotational constants in MHz :   674.392684   216.796120   184.698460

                             ****ORCA TERMINATED NORMALLY****
TOTAL RUN TIME: 0 days 0 hours 0 minutes 33 seconds 74 msec
