                         Program Version 4.2.1 -  RELEASE  -
|  1> ! wB97X-D3 SP def2-SVP
|  2> %pal
|  3> nprocs 16
|  4> end
|  5>
|  6> * xyz 0 1
|  7> S 	 -54.7292 	 34.013 	 99.1874
|  8> C 	 -56.1961 	 33.314 	 98.6761
|  9> C 	 -56.024 	 32.0748 	 98.1062
| 10> C 	 -54.6816 	 31.5721 	 98.2948
| 11> C 	 -53.8432 	 32.5296 	 98.9162
| 12> H 	 -54.2583 	 30.6383 	 97.9392
| 13> C 	 -57.2077 	 31.1859 	 97.648
| 14> H 	 -57.5161 	 31.3849 	 96.6624
| 15> H 	 -58.0558 	 31.267 	 98.2467
| 16> C 	 -56.8309 	 29.6833 	 97.7428
| 17> H 	 -55.9869 	 29.4809 	 97.0389
| 18> H 	 -56.4593 	 29.532 	 98.7485
| 19> C 	 -58.2225 	 29.0082 	 97.4324
| 20> H 	 -58.4814 	 28.976 	 96.3654
| 21> H 	 -58.0456 	 27.9361 	 97.6538
| 22> H 	 -59.0609 	 29.4428 	 98.0376
| 23> S 	 -51.9607 	 31.5273 	 100.539
| 24> C 	 -50.3268 	 32.1863 	 100.353
| 25> C 	 -50.0732 	 32.7197 	 99.0857
| 26> C 	 -51.3507 	 32.8409 	 98.4217
| 27> C 	 -52.4594 	 32.3566 	 99.1052
| 28> H 	 -49.0517 	 32.9218 	 98.784
| 29> C 	 -51.3825 	 33.6327 	 97.15
| 30> H 	 -50.3813 	 34.0506 	 97.0794
| 31> H 	 -51.9828 	 34.462 	 97.2821
| 32> C 	 -51.7738 	 32.9262 	 95.8524
| 33> H 	 -52.7162 	 32.4954 	 96.0173
| 34> H 	 -51.1025 	 32.1113 	 95.6642
| 35> C 	 -51.7447 	 33.8119 	 94.5444
| 36> H 	 -50.6902 	 34.0336 	 94.3564
| 37> H 	 -52.3744 	 34.717 	 94.6343
| 38> H 	 -52.0277 	 33.3558 	 93.6212
| 39> H 	 -57.089 	 33.9087 	 98.8029
| 40> H 	 -49.6558 	 31.9782 	 101.036
| 41> *
| 42>
| 43>                          ****END OF INPUT****

CARTESIAN COORDINATES (ANGSTROEM)
---------------------------------
  S    -54.729200   34.013000   99.187400
  C    -56.196100   33.314000   98.676100
  C    -56.024000   32.074800   98.106200
  C    -54.681600   31.572100   98.294800
  C    -53.843200   32.529600   98.916200
  H    -54.258300   30.638300   97.939200
  C    -57.207700   31.185900   97.648000
  H    -57.516100   31.384900   96.662400
  H    -58.055800   31.267000   98.246700
  C    -56.830900   29.683300   97.742800
  H    -55.986900   29.480900   97.038900
  H    -56.459300   29.532000   98.748500
  C    -58.222500   29.008200   97.432400
  H    -58.481400   28.976000   96.365400
  H    -58.045600   27.936100   97.653800
  H    -59.060900   29.442800   98.037600
  S    -51.960700   31.527300  100.539000
  C    -50.326800   32.186300  100.353000
  C    -50.073200   32.719700   99.085700
  C    -51.350700   32.840900   98.421700
  C    -52.459400   32.356600   99.105200
  H    -49.051700   32.921800   98.784000
  C    -51.382500   33.632700   97.150000
  H    -50.381300   34.050600   97.079400
  H    -51.982800   34.462000   97.282100
  C    -51.773800   32.926200   95.852400
  H    -52.716200   32.495400   96.017300
  H    -51.102500   32.111300   95.664200
  C    -51.744700   33.811900   94.544400
  H    -50.690200   34.033600   94.356400
  H    -52.374400   34.717000   94.634300
  H    -52.027700   33.355800   93.621200
  H    -57.089000   33.908700   98.802900
  H    -49.655800   31.978200  101.036000

 Total Charge           Charge          ....    0
 Multiplicity           Mult            ....    1
 Number of Electrons    NEL             ....  134
 Basis Dimension        Dim             ....  322

ORBITAL ENERGIES
----------------

  NO   OCC          E(Eh)            E(eV)
   0   2.0000     -88.965547     -2420.8756
   1   2.0000     -88.961919     -2420.7769
   2   2.0000     -10.324754      -280.9508
   3   2.0000     -10.316236      -280.7190
   4   2.0000     -10.309694      -280.5410
   5   2.0000     -10.309486      -280.5354
   6   2.0000     -10.302631      -280.3488
   7   2.0000     -10.301798      -280.3262
   8   2.0000     -10.299319      -280.2587
   9   2.0000     -10.298820      -280.2451
  10   2.0000     -10.290499      -280.0187
  11   2.0000     -10.288024      -279.9514
  12   2.0000     -10.281174      -279.7650
  13   2.0000     -10.276606      -279.6407
  14   2.0000     -10.276381      -279.6345
  15   2.0000     -10.275936      -279.6224
  16   2.0000      -8.080994      -219.8950
  17   2.0000      -8.077116      -219.7895
  18   2.0000      -6.039294      -164.3376
  19   2.0000      -6.035490      -164.2340
  20   2.0000      -6.035318      -164.2294
  21   2.0000      -6.032027      -164.1398
  22   2.0000      -6.031686      -164.1305
  23   2.0000      -6.027870      -164.0267
  24   2.0000      -1.008019       -27.4296
  25   2.0000      -0.983685       -26.7674
  26   2.0000      -0.911034       -24.7905
  27   2.0000      -0.904156       -24.6033
  28   2.0000      -0.876026       -23.8379
  29   2.0000      -0.845423       -23.0051
  30   2.0000      -0.842363       -22.9219
  31   2.0000      -0.811967       -22.0947
  32   2.0000      -0.778114       -21.1736
  33   2.0000      -0.766390       -20.8545
  34   2.0000      -0.716404       -19.4944
  35   2.0000      -0.702507       -19.1162
  36   2.0000      -0.688840       -18.7443
  37   2.0000      -0.672240       -18.2926
  38   2.0000      -0.649334       -17.6693
  39   2.0000      -0.615376       -16.7452
  40   2.0000      -0.595332       -16.1998
  41   2.0000      -0.572979       -15.5915
  42   2.0000      -0.570682       -15.5291
  43   2.0000      -0.560997       -15.2655
  44   2.0000      -0.523651       -14.2493
  45   2.0000      -0.518097       -14.0981
  46   2.0000      -0.512776       -13.9533
  47   2.0000      -0.507229       -13.8024
  48   2.0000      -0.505344       -13.7511
  49   2.0000      -0.496879       -13.5208
  50   2.0000      -0.486233       -13.2311
  51   2.0000      -0.482603       -13.1323
  52   2.0000      -0.476393       -12.9633
  53   2.0000      -0.468744       -12.7552
  54   2.0000      -0.457287       -12.4434
  55   2.0000      -0.450318       -12.2538
  56   2.0000      -0.446916       -12.1612
  57   2.0000      -0.438741       -11.9387
  58   2.0000      -0.433277       -11.7901
  59   2.0000      -0.427113       -11.6223
  60   2.0000      -0.419067       -11.4034
  61   2.0000      -0.414914       -11.2904
  62   2.0000      -0.398584       -10.8460
  63   2.0000      -0.334780        -9.1098
  64   2.0000      -0.332909        -9.0589
  65   2.0000      -0.318543        -8.6680
  66   2.0000      -0.300455        -8.1758
  67   0.0000       0.042895         1.1672
  68   0.0000       0.048236         1.3126
  69   0.0000       0.103887         2.8269
  70   0.0000       0.124756         3.3948
  71   0.0000       0.132494         3.6053

MULLIKEN ATOMIC CHARGES
-----------------------
   0 S :    0.129809
   1 C :   -0.139595
   2 C :   -0.037311
   3 C :    0.012275
   4 C :   -0.152198
   5 H :    0.019985
   6 C :    0.088013
   7 H :    0.019448
   8 H :    0.006847
   9 C :   -0.134891
  10 H :    0.048693
  11 H :    0.041266
  12 C :   -0.061513
  13 H :    0.040843
  14 H :    0.034628
  15 H :    0.051694
  16 S :    0.106651
  17 C :   -0.044561
  18 C :   -0.025642
  19 C :   -0.053823
  20 C :   -0.180609
  21 H :    0.033966
  22 C :    0.125672
  23 H :   -0.004478
  24 H :    0.002410
  25 C :   -0.043589
  26 H :    0.019394
  27 H :    0.014740
  28 C :   -0.052849
  29 H :    0.025367
  30 H :    0.037940
  31 H :    0.024985
  32 H :    0.051737
  33 H :   -0.005305
Sum of atomic charges:    0.0000000

LOEWDIN ATOMIC CHARGES
----------------------
   0 S :    0.432041
   1 C :   -0.205027
   2 C :   -0.065342
   3 C :   -0.057511
   4 C :   -0.209177
   5 H :    0.031893
   6 C :   -0.022625
   7 H :    0.022914
   8 H :    0.018521
   9 C :   -0.039734
  10 H :    0.027212
  11 H :    0.023040
  12 C :   -0.070346
  13 H :    0.028887
  14 H :    0.027941
  15 H :    0.033224
  16 S :    0.409523
  17 C :   -0.142769
  18 C :   -0.062528
  19 C :   -0.045092
  20 C :   -0.219712
  21 H :    0.038648
  22 C :   -0.028426
  23 H :    0.026309
  24 H :    0.019702
  25 C :   -0.030183
  26 H :    0.015250
  27 H :    0.020088
  28 C :   -0.066678
  29 H :    0.025383
  30 H :    0.027171
  31 H :    0.022169
  32 H :    0.026526
  33 H :   -0.011293

  Mayer bond orders larger than 0.100000
B(  0-S ,  1-C ) :   1.1658 B(  0-S ,  4-C ) :   1.1571 B(  1-C ,  2-C ) :   1.5856
B(  1-C , 32-H ) :   0.9766 B(  2-C ,  3-C ) :   1.2594 B(  2-C ,  6-C ) :   0.9946
B(  3-C ,  4-C ) :   1.5383 B(  3-C ,  5-H ) :   0.9881 B(  4-C , 20-C ) :   1.0559
B(  6-C ,  7-H ) :   0.9317 B(  6-C ,  8-H ) :   0.9572 B(  6-C ,  9-C ) :   1.0846
B(  9-C , 10-H ) :   0.9474 B(  9-C , 11-H ) :   0.9598 B(  9-C , 12-C ) :   1.0653
B( 12-C , 13-H ) :   0.9750 B( 12-C , 14-H ) :   0.9726 B( 12-C , 15-H ) :   0.9741
B( 16-S , 17-C ) :   1.1745 B( 16-S , 20-C ) :   1.1284 B( 17-C , 18-C ) :   1.5984
B( 17-C , 33-H ) :   0.9840 B( 18-C , 19-C ) :   1.2236 B( 18-C , 21-H ) :   0.9932
B( 19-C , 20-C ) :   1.6002 B( 19-C , 22-C ) :   1.0507 B( 22-C , 23-H ) :   0.9266
B( 22-C , 24-H ) :   0.9213 B( 22-C , 25-C ) :   1.0599 B( 25-C , 26-H ) :   0.9582
B( 25-C , 27-H ) :   0.9554 B( 25-C , 28-C ) :   1.0776 B( 28-C , 29-H ) :   0.9766
B( 28-C , 30-H ) :   0.9774 B( 28-C , 31-H ) :   0.9762

Dispersion correction           -0.014250480
FINAL SINGLE POINT ENERGY     -1339.844657753049

DIPOLE MOMENT
-------------
                                X             Y             Z
Electronic contribution:      8.46815       7.58986      21.16075
Nuclear contribution   :     -8.55042      -7.72936     -21.54781
                        -----------------------------------------
Total Dipole Moment    :     -0.08226      -0.13950      -0.38706
                        -----------------------------------------
Magnitude (a.u.)       :      0.41957
Magnitude (Debye)      :      1.06647

Rotational constants in cm-1:     0.017607     0.008381     0.007256
Rotational constants in MHz :   527.851490   251.263382   217.532977

                             ****ORCA TERMINATED NORMALLY****
TOTAL RUN TIME: 0 days 0 hours 0 minutes 28 seconds 378 msec
