                         Program Version 4.2.1 -  RELEASE  -
|  1> ! wB97X-D3 SP def2-SVP
|  2> %pal
|  3> nprocs 16
|  4> end
|  5>
|  6> * xyz 0 1
|  7> S 	 -47.3805 	 62.2244 	 141.117
|  8> C 	 -46.692 	 60.6354 	 141.337
|  9> C 	 -47.3958 	 59.8458 	 142.237
| 10> C 	 -48.3124 	 60.7294 	 142.966
| 11> C 	 -48.3326 	 62.0305 	 142.581
| 12> H 	 -48.857 	 60.3639 	 143.879
| 13> C 	 -46.9952 	 58.412 	 142.703
| 14> H 	 -47.5319 	 57.6484 	 142.131
| 15> H 	 -47.4662 	 58.3533 	 143.684
| 16> C 	 -45.5103 	 58.1667 	 142.974
| 17> H 	 -44.9573 	 58.2027 	 142.007
| 18> H 	 -45.2679 	 58.9658 	 143.669
| 19> C 	 -45.2504 	 56.7038 	 143.517
| 20> H 	 -45.9963 	 56.3335 	 144.332
| 21> H 	 -45.3638 	 55.8962 	 142.681
| 22> H 	 -44.3594 	 56.4531 	 143.961
| 23> S 	 -48.2196 	 64.6513 	 143.439
| 24> C 	 -49.6304 	 65.4575 	 143.983
| 25> C 	 -50.7199 	 64.5996 	 143.903
| 26> C 	 -50.4403 	 63.2511 	 143.625
| 27> C 	 -49.0994 	 63.1127 	 143.141
| 28> H 	 -51.7091 	 64.9437 	 144.224
| 29> C 	 -51.5414 	 62.1514 	 143.73
| 30> H 	 -52.3903 	 62.5473 	 144.306
| 31> H 	 -51.1183 	 61.2684 	 144.247
| 32> C 	 -51.9853 	 61.5349 	 142.375
| 33> H 	 -51.1977 	 60.7812 	 142.048
| 34> H 	 -52.0838 	 62.3569 	 141.595
| 35> C 	 -53.3301 	 60.7842 	 142.636
| 36> H 	 -53.3654 	 60.2883 	 143.668
| 37> H 	 -53.644 	 60.0778 	 141.853
| 38> H 	 -54.2015 	 61.4839 	 142.663
| 39> H 	 -45.8826 	 60.2404 	 140.672
| 40> H 	 -49.6718 	 66.5004 	 144.143
| 41> *
| 42>
| 43>                          ****END OF INPUT****

CARTESIAN COORDINATES (ANGSTROEM)
---------------------------------
  S    -47.380500   62.224400  141.117000
  C    -46.692000   60.635400  141.337000
  C    -47.395800   59.845800  142.237000
  C    -48.312400   60.729400  142.966000
  C    -48.332600   62.030500  142.581000
  H    -48.857000   60.363900  143.879000
  C    -46.995200   58.412000  142.703000
  H    -47.531900   57.648400  142.131000
  H    -47.466200   58.353300  143.684000
  C    -45.510300   58.166700  142.974000
  H    -44.957300   58.202700  142.007000
  H    -45.267900   58.965800  143.669000
  C    -45.250400   56.703800  143.517000
  H    -45.996300   56.333500  144.332000
  H    -45.363800   55.896200  142.681000
  H    -44.359400   56.453100  143.961000
  S    -48.219600   64.651300  143.439000
  C    -49.630400   65.457500  143.983000
  C    -50.719900   64.599600  143.903000
  C    -50.440300   63.251100  143.625000
  C    -49.099400   63.112700  143.141000
  H    -51.709100   64.943700  144.224000
  C    -51.541400   62.151400  143.730000
  H    -52.390300   62.547300  144.306000
  H    -51.118300   61.268400  144.247000
  C    -51.985300   61.534900  142.375000
  H    -51.197700   60.781200  142.048000
  H    -52.083800   62.356900  141.595000
  C    -53.330100   60.784200  142.636000
  H    -53.365400   60.288300  143.668000
  H    -53.644000   60.077800  141.853000
  H    -54.201500   61.483900  142.663000
  H    -45.882600   60.240400  140.672000
  H    -49.671800   66.500400  144.143000

 Total Charge           Charge          ....    0
 Multiplicity           Mult            ....    1
 Number of Electrons    NEL             ....  134
 Basis Dimension        Dim             ....  322

ORBITAL ENERGIES
----------------

  NO   OCC          E(Eh)            E(eV)
   0   2.0000     -88.965740     -2420.8809
   1   2.0000     -88.965038     -2420.8618
   2   2.0000     -10.332164      -281.1525
   3   2.0000     -10.326891      -281.0090
   4   2.0000     -10.317988      -280.7667
   5   2.0000     -10.314005      -280.6584
   6   2.0000     -10.310976      -280.5759
   7   2.0000     -10.307920      -280.4928
   8   2.0000     -10.301283      -280.3122
   9   2.0000     -10.300561      -280.2925
  10   2.0000     -10.299363      -280.2599
  11   2.0000     -10.298330      -280.2318
  12   2.0000     -10.298104      -280.2257
  13   2.0000     -10.293349      -280.0963
  14   2.0000     -10.292893      -280.0839
  15   2.0000     -10.288648      -279.9683
  16   2.0000      -8.080347      -219.8774
  17   2.0000      -8.079953      -219.8667
  18   2.0000      -6.038741      -164.3225
  19   2.0000      -6.038480      -164.3154
  20   2.0000      -6.034671      -164.2117
  21   2.0000      -6.034629      -164.2106
  22   2.0000      -6.031435      -164.1237
  23   2.0000      -6.030477      -164.0976
  24   2.0000      -1.004646       -27.3378
  25   2.0000      -0.982510       -26.7355
  26   2.0000      -0.908489       -24.7213
  27   2.0000      -0.902384       -24.5551
  28   2.0000      -0.866934       -23.5905
  29   2.0000      -0.847662       -23.0661
  30   2.0000      -0.841296       -22.8928
  31   2.0000      -0.807318       -21.9682
  32   2.0000      -0.779981       -21.2244
  33   2.0000      -0.769102       -20.9283
  34   2.0000      -0.708322       -19.2744
  35   2.0000      -0.701921       -19.1002
  36   2.0000      -0.685955       -18.6658
  37   2.0000      -0.660150       -17.9636
  38   2.0000      -0.634862       -17.2755
  39   2.0000      -0.614754       -16.7283
  40   2.0000      -0.597275       -16.2527
  41   2.0000      -0.570152       -15.5146
  42   2.0000      -0.562610       -15.3094
  43   2.0000      -0.556978       -15.1561
  44   2.0000      -0.522499       -14.2179
  45   2.0000      -0.519145       -14.1267
  46   2.0000      -0.513613       -13.9761
  47   2.0000      -0.507315       -13.8048
  48   2.0000      -0.501143       -13.6368
  49   2.0000      -0.492060       -13.3896
  50   2.0000      -0.483134       -13.1467
  51   2.0000      -0.479799       -13.0560
  52   2.0000      -0.466592       -12.6966
  53   2.0000      -0.457778       -12.4568
  54   2.0000      -0.454366       -12.3639
  55   2.0000      -0.451389       -12.2829
  56   2.0000      -0.443310       -12.0631
  57   2.0000      -0.437095       -11.8940
  58   2.0000      -0.433850       -11.8057
  59   2.0000      -0.426361       -11.6019
  60   2.0000      -0.421042       -11.4571
  61   2.0000      -0.416821       -11.3423
  62   2.0000      -0.416585       -11.3359
  63   2.0000      -0.347128        -9.4458
  64   2.0000      -0.333183        -9.0664
  65   2.0000      -0.328187        -8.9304
  66   2.0000      -0.288720        -7.8565
  67   0.0000       0.021348         0.5809
  68   0.0000       0.072078         1.9613
  69   0.0000       0.106805         2.9063
  70   0.0000       0.117181         3.1887
  71   0.0000       0.132284         3.5996

MULLIKEN ATOMIC CHARGES
-----------------------
   0 S :    0.116474
   1 C :   -0.146978
   2 C :   -0.089957
   3 C :   -0.014728
   4 C :   -0.123029
   5 H :    0.030979
   6 C :    0.051395
   7 H :    0.040539
   8 H :    0.011970
   9 C :   -0.058711
  10 H :    0.045939
  11 H :    0.050881
  12 C :   -0.085206
  13 H :    0.032284
  14 H :    0.039854
  15 H :    0.022098
  16 S :    0.107739
  17 C :   -0.074534
  18 C :   -0.050444
  19 C :   -0.012089
  20 C :   -0.178625
  21 H :    0.019096
  22 C :    0.041409
  23 H :    0.029767
  24 H :    0.035577
  25 C :   -0.096858
  26 H :    0.058865
  27 H :    0.052612
  28 C :   -0.091218
  29 H :    0.041441
  30 H :    0.041931
  31 H :    0.032644
  32 H :    0.066859
  33 H :    0.052027
Sum of atomic charges:   -0.0000000

LOEWDIN ATOMIC CHARGES
----------------------
   0 S :    0.399302
   1 C :   -0.198054
   2 C :   -0.066941
   3 C :   -0.069487
   4 C :   -0.200766
   5 H :    0.035837
   6 C :   -0.034246
   7 H :    0.031213
   8 H :    0.028824
   9 C :   -0.035922
  10 H :    0.029560
  11 H :    0.032077
  12 C :   -0.077898
  13 H :    0.032089
  14 H :    0.036255
  15 H :    0.010802
  16 S :    0.414869
  17 C :   -0.193230
  18 C :   -0.077750
  19 C :   -0.048169
  20 C :   -0.191444
  21 H :    0.030490
  22 C :   -0.032034
  23 H :    0.030390
  24 H :    0.034396
  25 C :   -0.046055
  26 H :    0.033999
  27 H :    0.031248
  28 C :   -0.082183
  29 H :    0.031830
  30 H :    0.026041
  31 H :    0.026626
  32 H :    0.034683
  33 H :    0.023648

  Mayer bond orders larger than 0.100000
B(  0-S ,  1-C ) :   1.1384 B(  0-S ,  4-C ) :   1.1287 B(  1-C ,  2-C ) :   1.6269
B(  1-C , 32-H ) :   0.9617 B(  2-C ,  3-C ) :   1.2259 B(  2-C ,  6-C ) :   1.0111
B(  3-C ,  4-C ) :   1.6115 B(  3-C ,  5-H ) :   0.9800 B(  4-C , 20-C ) :   1.0736
B(  6-C ,  7-H ) :   0.9357 B(  6-C ,  8-H ) :   0.9471 B(  6-C ,  9-C ) :   1.0603
B(  9-C , 10-H ) :   0.9545 B(  9-C , 11-H ) :   0.9602 B(  9-C , 12-C ) :   1.0606
B( 12-C , 13-H ) :   0.9762 B( 12-C , 14-H ) :   0.9755 B( 12-C , 15-H ) :   0.9798
B( 16-S , 17-C ) :   1.1763 B( 16-S , 20-C ) :   1.1579 B( 17-C , 18-C ) :   1.5625
B( 17-C , 20-C ) :   0.1187 B( 17-C , 33-H ) :   0.9725 B( 18-C , 19-C ) :   1.2957
B( 18-C , 21-H ) :   0.9812 B( 19-C , 20-C ) :   1.5180 B( 19-C , 22-C ) :   1.0390
B( 22-C , 23-H ) :   0.9453 B( 22-C , 24-H ) :   0.9315 B( 22-C , 25-C ) :   1.0478
B( 25-C , 26-H ) :   0.9538 B( 25-C , 27-H ) :   0.9619 B( 25-C , 28-C ) :   1.0623
B( 28-C , 29-H ) :   0.9715 B( 28-C , 30-H ) :   0.9756 B( 28-C , 31-H ) :   0.9760

Dispersion correction           -0.013816186
FINAL SINGLE POINT ENERGY     -1339.863007440535

DIPOLE MOMENT
-------------
                                X             Y             Z
Electronic contribution:      8.24262      26.23289      -4.68436
Nuclear contribution   :     -8.52463     -26.71594       4.92330
                        -----------------------------------------
Total Dipole Moment    :     -0.28202      -0.48305       0.23894
                        -----------------------------------------
Magnitude (a.u.)       :      0.60824
Magnitude (Debye)      :      1.54603

Rotational constants in cm-1:     0.018355     0.007777     0.006260
Rotational constants in MHz :   550.254999   233.137503   187.666288

                             ****ORCA TERMINATED NORMALLY****
TOTAL RUN TIME: 0 days 0 hours 0 minutes 35 seconds 29 msec
