                         Program Version 4.2.1 -  RELEASE  -
|  1> ! wB97X-D3 SP def2-SVP
|  2> %pal
|  3> nprocs 16
|  4> end
|  5>
|  6> * xyz 0 1
|  7> S 	 -12.439 	 71.6528 	 47.6267
|  8> C 	 -12.9743 	 71.1453 	 46.122
|  9> C 	 -14.3559 	 71.127 	 46.0698
| 10> C 	 -14.9209 	 71.6888 	 47.2504
| 11> C 	 -14.0286 	 72.0973 	 48.17
| 12> H 	 -15.9598 	 71.758 	 47.5159
| 13> C 	 -15.2262 	 70.6293 	 44.8814
| 14> H 	 -14.8034 	 70.8476 	 43.8836
| 15> H 	 -16.1411 	 71.2262 	 44.9714
| 16> C 	 -15.5643 	 69.1371 	 44.8866
| 17> H 	 -14.6219 	 68.6727 	 45.177
| 18> H 	 -16.1951 	 68.9472 	 45.7461
| 19> C 	 -15.9691 	 68.6198 	 43.4398
| 20> H 	 -15.2724 	 68.9976 	 42.7065
| 21> H 	 -15.9928 	 67.5212 	 43.4034
| 22> H 	 -16.9705 	 69.01 	 43.1568
| 23> S 	 -13.3293 	 72.0595 	 50.9567
| 24> C 	 -14.4835 	 72.8084 	 52.0632
| 25> C 	 -15.4824 	 73.4912 	 51.3745
| 26> C 	 -15.3741 	 73.3843 	 49.9189
| 27> C 	 -14.364 	 72.4967 	 49.5502
| 28> H 	 -16.2877 	 74.0369 	 51.8286
| 29> C 	 -16.2992 	 74.2464 	 49.0751
| 30> H 	 -17.3107 	 73.7376 	 49.1962
| 31> H 	 -16.0938 	 73.9783 	 48.0135
| 32> C 	 -16.2838 	 75.7701 	 49.2893
| 33> H 	 -15.2973 	 76.161 	 49.0133
| 34> H 	 -16.4133 	 75.9054 	 50.3553
| 35> C 	 -17.4639 	 76.4405 	 48.4771
| 36> H 	 -18.2873 	 75.7906 	 48.5956
| 37> H 	 -17.2226 	 76.5935 	 47.3864
| 38> H 	 -17.7808 	 77.4181 	 48.8276
| 39> H 	 -12.2738 	 70.7582 	 45.4323
| 40> H 	 -14.3412 	 72.8872 	 53.1606
| 41> *
| 42>
| 43>                          ****END OF INPUT****

CARTESIAN COORDINATES (ANGSTROEM)
---------------------------------
  S    -12.439000   71.652800   47.626700
  C    -12.974300   71.145300   46.122000
  C    -14.355900   71.127000   46.069800
  C    -14.920900   71.688800   47.250400
  C    -14.028600   72.097300   48.170000
  H    -15.959800   71.758000   47.515900
  C    -15.226200   70.629300   44.881400
  H    -14.803400   70.847600   43.883600
  H    -16.141100   71.226200   44.971400
  C    -15.564300   69.137100   44.886600
  H    -14.621900   68.672700   45.177000
  H    -16.195100   68.947200   45.746100
  C    -15.969100   68.619800   43.439800
  H    -15.272400   68.997600   42.706500
  H    -15.992800   67.521200   43.403400
  H    -16.970500   69.010000   43.156800
  S    -13.329300   72.059500   50.956700
  C    -14.483500   72.808400   52.063200
  C    -15.482400   73.491200   51.374500
  C    -15.374100   73.384300   49.918900
  C    -14.364000   72.496700   49.550200
  H    -16.287700   74.036900   51.828600
  C    -16.299200   74.246400   49.075100
  H    -17.310700   73.737600   49.196200
  H    -16.093800   73.978300   48.013500
  C    -16.283800   75.770100   49.289300
  H    -15.297300   76.161000   49.013300
  H    -16.413300   75.905400   50.355300
  C    -17.463900   76.440500   48.477100
  H    -18.287300   75.790600   48.595600
  H    -17.222600   76.593500   47.386400
  H    -17.780800   77.418100   48.827600
  H    -12.273800   70.758200   45.432300
  H    -14.341200   72.887200   53.160600

 Total Charge           Charge          ....    0
 Multiplicity           Mult            ....    1
 Number of Electrons    NEL             ....  134
 Basis Dimension        Dim             ....  322

ORBITAL ENERGIES
----------------

  NO   OCC          E(Eh)            E(eV)
   0   2.0000     -88.968388     -2420.9529
   1   2.0000     -88.962605     -2420.7956
   2   2.0000     -10.334058      -281.2040
   3   2.0000     -10.324208      -280.9360
   4   2.0000     -10.323974      -280.9296
   5   2.0000     -10.308963      -280.5212
   6   2.0000     -10.306104      -280.4433
   7   2.0000     -10.302731      -280.3516
   8   2.0000     -10.299495      -280.2635
   9   2.0000     -10.296455      -280.1808
  10   2.0000     -10.294948      -280.1398
  11   2.0000     -10.293029      -280.0875
  12   2.0000     -10.288486      -279.9639
  13   2.0000     -10.287622      -279.9404
  14   2.0000     -10.286621      -279.9132
  15   2.0000     -10.283456      -279.8271
  16   2.0000      -8.081952      -219.9211
  17   2.0000      -8.079326      -219.8496
  18   2.0000      -6.040787      -164.3782
  19   2.0000      -6.037626      -164.2922
  20   2.0000      -6.036757      -164.2685
  21   2.0000      -6.033497      -164.1798
  22   2.0000      -6.032318      -164.1477
  23   2.0000      -6.030259      -164.0917
  24   2.0000      -1.013687       -27.5838
  25   2.0000      -0.980964       -26.6934
  26   2.0000      -0.905549       -24.6413
  27   2.0000      -0.904482       -24.6122
  28   2.0000      -0.872473       -23.7412
  29   2.0000      -0.849668       -23.1207
  30   2.0000      -0.843243       -22.9458
  31   2.0000      -0.811826       -22.0909
  32   2.0000      -0.779243       -21.2043
  33   2.0000      -0.770117       -20.9560
  34   2.0000      -0.709306       -19.3012
  35   2.0000      -0.701310       -19.0836
  36   2.0000      -0.694592       -18.9008
  37   2.0000      -0.661536       -18.0013
  38   2.0000      -0.649406       -17.6712
  39   2.0000      -0.619830       -16.8664
  40   2.0000      -0.592786       -16.1305
  41   2.0000      -0.564147       -15.3512
  42   2.0000      -0.561830       -15.2882
  43   2.0000      -0.556711       -15.1489
  44   2.0000      -0.522859       -14.2277
  45   2.0000      -0.520637       -14.1672
  46   2.0000      -0.515855       -14.0371
  47   2.0000      -0.510396       -13.8886
  48   2.0000      -0.502391       -13.6708
  49   2.0000      -0.501574       -13.6485
  50   2.0000      -0.493402       -13.4261
  51   2.0000      -0.475888       -12.9496
  52   2.0000      -0.471635       -12.8338
  53   2.0000      -0.462671       -12.5899
  54   2.0000      -0.458201       -12.4683
  55   2.0000      -0.455624       -12.3982
  56   2.0000      -0.446761       -12.1570
  57   2.0000      -0.440106       -11.9759
  58   2.0000      -0.437216       -11.8973
  59   2.0000      -0.428336       -11.6556
  60   2.0000      -0.421916       -11.4809
  61   2.0000      -0.415886       -11.3168
  62   2.0000      -0.408355       -11.1119
  63   2.0000      -0.360694        -9.8150
  64   2.0000      -0.330218        -8.9857
  65   2.0000      -0.327107        -8.9010
  66   2.0000      -0.288066        -7.8387
  67   0.0000       0.027441         0.7467
  68   0.0000       0.076586         2.0840
  69   0.0000       0.105269         2.8645
  70   0.0000       0.118651         3.2286
  71   0.0000       0.138572         3.7707

MULLIKEN ATOMIC CHARGES
-----------------------
   0 S :    0.102136
   1 C :   -0.106164
   2 C :   -0.079134
   3 C :   -0.000260
   4 C :   -0.131357
   5 H :    0.012196
   6 C :    0.047271
   7 H :    0.020961
   8 H :    0.022911
   9 C :   -0.061692
  10 H :    0.020659
  11 H :    0.027087
  12 C :   -0.050967
  13 H :    0.032925
  14 H :    0.045576
  15 H :    0.037579
  16 S :    0.098267
  17 C :   -0.100842
  18 C :   -0.023653
  19 C :   -0.073475
  20 C :   -0.130710
  21 H :    0.019208
  22 C :    0.001498
  23 H :    0.042719
  24 H :    0.022630
  25 C :   -0.034925
  26 H :    0.044638
  27 H :    0.025280
  28 C :   -0.045032
  29 H :    0.018908
  30 H :    0.048188
  31 H :    0.032326
  32 H :    0.040167
  33 H :    0.075080
Sum of atomic charges:   -0.0000000

LOEWDIN ATOMIC CHARGES
----------------------
   0 S :    0.435125
   1 C :   -0.205117
   2 C :   -0.065412
   3 C :   -0.066211
   4 C :   -0.197200
   5 H :    0.030332
   6 C :   -0.032585
   7 H :    0.028235
   8 H :    0.027058
   9 C :   -0.043637
  10 H :    0.022106
  11 H :    0.023269
  12 C :   -0.063035
  13 H :    0.023706
  14 H :    0.029409
  15 H :    0.028153
  16 S :    0.372990
  17 C :   -0.185393
  18 C :   -0.067666
  19 C :   -0.057876
  20 C :   -0.180222
  21 H :    0.026854
  22 C :   -0.047704
  23 H :    0.037948
  24 H :    0.029500
  25 C :   -0.030757
  26 H :    0.030974
  27 H :    0.021017
  28 C :   -0.062432
  29 H :    0.017855
  30 H :    0.034751
  31 H :    0.025032
  32 H :    0.021898
  33 H :    0.039036

  Mayer bond orders larger than 0.100000
B(  0-S ,  1-C ) :   1.1745 B(  0-S ,  4-C ) :   1.1507 B(  1-C ,  2-C ) :   1.5661
B(  1-C , 32-H ) :   0.9816 B(  2-C ,  3-C ) :   1.2703 B(  2-C ,  6-C ) :   1.0140
B(  3-C ,  4-C ) :   1.5651 B(  3-C ,  5-H ) :   0.9944 B(  4-C , 20-C ) :   1.0558
B(  6-C ,  7-H ) :   0.9501 B(  6-C ,  8-H ) :   0.9417 B(  6-C ,  9-C ) :   1.0539
B(  9-C , 10-H ) :   0.9595 B(  9-C , 11-H ) :   0.9566 B(  9-C , 12-C ) :   1.0643
B( 12-C , 13-H ) :   0.9747 B( 12-C , 14-H ) :   0.9778 B( 12-C , 15-H ) :   0.9781
B( 16-S , 17-C ) :   1.1348 B( 16-S , 20-C ) :   1.1101 B( 17-C , 18-C ) :   1.6286
B( 17-C , 33-H ) :   0.9628 B( 18-C , 19-C ) :   1.2172 B( 18-C , 21-H ) :   0.9869
B( 19-C , 20-C ) :   1.6203 B( 19-C , 22-C ) :   1.0382 B( 22-C , 23-H ) :   0.9332
B( 22-C , 24-H ) :   0.9286 B( 22-C , 25-C ) :   1.0532 B( 25-C , 26-H ) :   0.9566
B( 25-C , 27-H ) :   0.9573 B( 25-C , 28-C ) :   1.0663 B( 28-C , 29-H ) :   0.9770
B( 28-C , 30-H ) :   0.9780 B( 28-C , 31-H ) :   0.9770

Dispersion correction           -0.013319510
FINAL SINGLE POINT ENERGY     -1339.880070564877

DIPOLE MOMENT
-------------
                                X             Y             Z
Electronic contribution:     21.46237      -3.55433      17.83806
Nuclear contribution   :    -22.01630       3.70460     -18.09007
                        -----------------------------------------
Total Dipole Moment    :     -0.55393       0.15027      -0.25201
                        -----------------------------------------
Magnitude (a.u.)       :      0.62684
Magnitude (Debye)      :      1.59330

Rotational constants in cm-1:     0.017697     0.007662     0.006072
Rotational constants in MHz :   530.542745   229.695341   182.040180

                             ****ORCA TERMINATED NORMALLY****
TOTAL RUN TIME: 0 days 0 hours 0 minutes 30 seconds 156 msec
