                         Program Version 4.2.1 -  RELEASE  -
|  1> ! wB97X-D3 SP def2-SVP
|  2> %pal
|  3> nprocs 16
|  4> end
|  5>
|  6> * xyz 0 1
|  7> S 	 11.9556 	 -5.76658 	 68.9121
|  8> C 	 11.7456 	 -4.44817 	 70.0714
|  9> C 	 12.6541 	 -4.52554 	 71.1005
| 10> C 	 13.4362 	 -5.74302 	 71.0812
| 11> C 	 13.2235 	 -6.43306 	 69.9311
| 12> H 	 14.0239 	 -6.18621 	 71.8709
| 13> C 	 12.8073 	 -3.564 	 72.2823
| 14> H 	 13.7689 	 -3.13321 	 72.313
| 15> H 	 12.6234 	 -4.11365 	 73.1685
| 16> C 	 11.8508 	 -2.38814 	 72.3767
| 17> H 	 12.0168 	 -1.75354 	 71.4927
| 18> H 	 10.8145 	 -2.66976 	 72.3356
| 19> C 	 12.09 	 -1.53821 	 73.615
| 20> H 	 13.1648 	 -1.25625 	 73.6297
| 21> H 	 11.5502 	 -0.631259 	 73.614
| 22> H 	 11.9074 	 -2.03945 	 74.6083
| 23> S 	 13.4872 	 -8.92878 	 70.8625
| 24> C 	 14.3342 	 -10.0962 	 69.945
| 25> C 	 14.6966 	 -9.63051 	 68.699
| 26> C 	 14.2253 	 -8.31737 	 68.4935
| 27> C 	 13.7227 	 -7.77281 	 69.6593
| 28> H 	 15.1614 	 -10.3894 	 68.0861
| 29> C 	 14.4997 	 -7.50564 	 67.2955
| 30> H 	 15.581 	 -7.74015 	 67.0753
| 31> H 	 14.2607 	 -6.54171 	 67.5303
| 32> C 	 13.8058 	 -7.91855 	 66.0288
| 33> H 	 12.6886 	 -7.8452 	 66.2463
| 34> H 	 13.9093 	 -9.00269 	 65.8627
| 35> C 	 14.1451 	 -7.01387 	 64.8298
| 36> H 	 15.1054 	 -7.25108 	 64.3924
| 37> H 	 14.1854 	 -5.94974 	 65.1114
| 38> H 	 13.3568 	 -7.15063 	 64.0932
| 39> H 	 11.1128 	 -3.60523 	 69.9353
| 40> H 	 14.5133 	 -11.1385 	 70.2408
| 41> *
| 42>
| 43>                          ****END OF INPUT****

CARTESIAN COORDINATES (ANGSTROEM)
---------------------------------
  S     11.955600   -5.766580   68.912100
  C     11.745600   -4.448170   70.071400
  C     12.654100   -4.525540   71.100500
  C     13.436200   -5.743020   71.081200
  C     13.223500   -6.433060   69.931100
  H     14.023900   -6.186210   71.870900
  C     12.807300   -3.564000   72.282300
  H     13.768900   -3.133210   72.313000
  H     12.623400   -4.113650   73.168500
  C     11.850800   -2.388140   72.376700
  H     12.016800   -1.753540   71.492700
  H     10.814500   -2.669760   72.335600
  C     12.090000   -1.538210   73.615000
  H     13.164800   -1.256250   73.629700
  H     11.550200   -0.631259   73.614000
  H     11.907400   -2.039450   74.608300
  S     13.487200   -8.928780   70.862500
  C     14.334200  -10.096200   69.945000
  C     14.696600   -9.630510   68.699000
  C     14.225300   -8.317370   68.493500
  C     13.722700   -7.772810   69.659300
  H     15.161400  -10.389400   68.086100
  C     14.499700   -7.505640   67.295500
  H     15.581000   -7.740150   67.075300
  H     14.260700   -6.541710   67.530300
  C     13.805800   -7.918550   66.028800
  H     12.688600   -7.845200   66.246300
  H     13.909300   -9.002690   65.862700
  C     14.145100   -7.013870   64.829800
  H     15.105400   -7.251080   64.392400
  H     14.185400   -5.949740   65.111400
  H     13.356800   -7.150630   64.093200
  H     11.112800   -3.605230   69.935300
  H     14.513300  -11.138500   70.240800

 Total Charge           Charge          ....    0
 Multiplicity           Mult            ....    1
 Number of Electrons    NEL             ....  134
 Basis Dimension        Dim             ....  322

ORBITAL ENERGIES
----------------

  NO   OCC          E(Eh)            E(eV)
   0   2.0000     -88.967589     -2420.9312
   1   2.0000     -88.964133     -2420.8371
   2   2.0000     -10.326162      -280.9892
   3   2.0000     -10.314059      -280.6598
   4   2.0000     -10.312861      -280.6272
   5   2.0000     -10.310106      -280.5522
   6   2.0000     -10.304552      -280.4011
   7   2.0000     -10.294089      -280.1164
   8   2.0000     -10.292664      -280.0776
   9   2.0000     -10.288897      -279.9751
  10   2.0000     -10.285747      -279.8894
  11   2.0000     -10.284971      -279.8683
  12   2.0000     -10.284147      -279.8459
  13   2.0000     -10.280818      -279.7553
  14   2.0000     -10.276515      -279.6382
  15   2.0000     -10.276281      -279.6318
  16   2.0000      -8.081598      -219.9115
  17   2.0000      -8.080709      -219.8873
  18   2.0000      -6.040234      -164.3631
  19   2.0000      -6.038951      -164.3282
  20   2.0000      -6.036348      -164.2574
  21   2.0000      -6.034926      -164.2187
  22   2.0000      -6.032135      -164.1428
  23   2.0000      -6.031684      -164.1305
  24   2.0000      -1.017879       -27.6979
  25   2.0000      -0.988136       -26.8885
  26   2.0000      -0.917070       -24.9547
  27   2.0000      -0.915657       -24.9163
  28   2.0000      -0.872809       -23.7503
  29   2.0000      -0.855261       -23.2728
  30   2.0000      -0.848245       -23.0819
  31   2.0000      -0.816775       -22.2256
  32   2.0000      -0.784435       -21.3455
  33   2.0000      -0.771622       -20.9969
  34   2.0000      -0.711908       -19.3720
  35   2.0000      -0.696509       -18.9530
  36   2.0000      -0.692827       -18.8528
  37   2.0000      -0.662480       -18.0270
  38   2.0000      -0.639349       -17.3976
  39   2.0000      -0.616524       -16.7765
  40   2.0000      -0.598652       -16.2901
  41   2.0000      -0.579234       -15.7618
  42   2.0000      -0.571223       -15.5438
  43   2.0000      -0.565624       -15.3914
  44   2.0000      -0.526535       -14.3277
  45   2.0000      -0.521939       -14.2027
  46   2.0000      -0.518953       -14.1214
  47   2.0000      -0.509920       -13.8756
  48   2.0000      -0.504939       -13.7401
  49   2.0000      -0.498495       -13.5647
  50   2.0000      -0.495444       -13.4817
  51   2.0000      -0.485318       -13.2062
  52   2.0000      -0.471995       -12.8436
  53   2.0000      -0.468645       -12.7525
  54   2.0000      -0.463409       -12.6100
  55   2.0000      -0.449843       -12.2409
  56   2.0000      -0.444606       -12.0983
  57   2.0000      -0.436639       -11.8815
  58   2.0000      -0.431405       -11.7391
  59   2.0000      -0.427370       -11.6293
  60   2.0000      -0.423488       -11.5237
  61   2.0000      -0.420954       -11.4547
  62   2.0000      -0.407833       -11.0977
  63   2.0000      -0.346279        -9.4227
  64   2.0000      -0.333546        -9.0763
  65   2.0000      -0.327553        -8.9132
  66   2.0000      -0.293539        -7.9876
  67   0.0000       0.037823         1.0292
  68   0.0000       0.076957         2.0941
  69   0.0000       0.101556         2.7635
  70   0.0000       0.115324         3.1381
  71   0.0000       0.134388         3.6569

MULLIKEN ATOMIC CHARGES
-----------------------
   0 S :    0.108237
   1 C :   -0.115465
   2 C :   -0.077426
   3 C :   -0.010407
   4 C :   -0.125057
   5 H :    0.022232
   6 C :    0.099210
   7 H :    0.025344
   8 H :    0.024041
   9 C :   -0.107166
  10 H :    0.028107
  11 H :    0.028208
  12 C :   -0.043545
  13 H :    0.023062
  14 H :    0.027944
  15 H :    0.038425
  16 S :    0.131129
  17 C :   -0.110978
  18 C :   -0.041497
  19 C :   -0.018062
  20 C :   -0.154145
  21 H :    0.016541
  22 C :    0.106738
  23 H :    0.033786
  24 H :   -0.010027
  25 C :   -0.125017
  26 H :    0.021899
  27 H :    0.026495
  28 C :   -0.014568
  29 H :    0.029962
  30 H :    0.033271
  31 H :    0.036771
  32 H :    0.037192
  33 H :    0.054768
Sum of atomic charges:    0.0000000

LOEWDIN ATOMIC CHARGES
----------------------
   0 S :    0.395040
   1 C :   -0.191214
   2 C :   -0.051889
   3 C :   -0.063746
   4 C :   -0.181226
   5 H :    0.033019
   6 C :   -0.024973
   7 H :    0.028271
   8 H :    0.029962
   9 C :   -0.046184
  10 H :    0.024280
  11 H :    0.019113
  12 C :   -0.064854
  13 H :    0.026845
  14 H :    0.021000
  15 H :    0.029969
  16 S :    0.453938
  17 C :   -0.202579
  18 C :   -0.072917
  19 C :   -0.058470
  20 C :   -0.223636
  21 H :    0.034077
  22 C :   -0.032154
  23 H :    0.041633
  24 H :    0.006163
  25 C :   -0.047098
  26 H :    0.023504
  27 H :    0.022113
  28 C :   -0.062176
  29 H :    0.022719
  30 H :    0.030092
  31 H :    0.028780
  32 H :    0.021538
  33 H :    0.031061

  Mayer bond orders larger than 0.100000
B(  0-S ,  1-C ) :   1.1070 B(  0-S ,  4-C ) :   1.1340 B(  1-C ,  2-C ) :   1.6738
B(  1-C , 32-H ) :   0.9626 B(  2-C ,  3-C ) :   1.1829 B(  2-C ,  6-C ) :   1.0071
B(  3-C ,  4-C ) :   1.6131 B(  3-C ,  5-H ) :   1.0014 B(  4-C , 20-C ) :   1.0214
B(  6-C ,  7-H ) :   0.9356 B(  6-C ,  8-H ) :   0.9394 B(  6-C ,  9-C ) :   1.0860
B(  9-C , 10-H ) :   0.9480 B(  9-C , 11-H ) :   0.9505 B(  9-C , 12-C ) :   1.0937
B( 12-C , 13-H ) :   0.9715 B( 12-C , 14-H ) :   0.9715 B( 12-C , 15-H ) :   0.9740
B( 16-S , 17-C ) :   1.1719 B( 16-S , 20-C ) :   1.1660 B( 17-C , 18-C ) :   1.6078
B( 17-C , 33-H ) :   0.9638 B( 18-C , 19-C ) :   1.2272 B( 18-C , 21-H ) :   0.9967
B( 19-C , 20-C ) :   1.5505 B( 19-C , 22-C ) :   1.0703 B( 22-C , 23-H ) :   0.9313
B( 22-C , 24-H ) :   0.9191 B( 22-C , 25-C ) :   1.0641 B( 25-C , 26-H ) :   0.9504
B( 25-C , 27-H ) :   0.9572 B( 25-C , 28-C ) :   1.0757 B( 28-C , 29-H ) :   0.9744
B( 28-C , 30-H ) :   0.9722 B( 28-C , 31-H ) :   0.9755

Dispersion correction           -0.013655109
FINAL SINGLE POINT ENERGY     -1339.880860126176

DIPOLE MOMENT
-------------
                                X             Y             Z
Electronic contribution:     -1.86890     -16.42301       3.22776
Nuclear contribution   :      1.98975      16.58052      -3.10806
                        -----------------------------------------
Total Dipole Moment    :      0.12085       0.15751       0.11970
                        -----------------------------------------
Magnitude (a.u.)       :      0.23182
Magnitude (Debye)      :      0.58925

Rotational constants in cm-1:     0.023001     0.007313     0.005900
Rotational constants in MHz :   689.548221   219.252678   176.864623

                             ****ORCA TERMINATED NORMALLY****
TOTAL RUN TIME: 0 days 0 hours 0 minutes 32 seconds 566 msec
