                         Program Version 4.2.1 -  RELEASE  -
|  1> ! wB97X-D3 SP def2-SVP
|  2> %pal
|  3> nprocs 16
|  4> end
|  5>
|  6> * xyz 0 1
|  7> S 	 -33.4879 	 61.1801 	 107.698
|  8> C 	 -33.7621 	 60.3208 	 109.161
|  9> C 	 -34.7299 	 59.3052 	 109.009
| 10> C 	 -34.9672 	 59.0881 	 107.595
| 11> C 	 -34.4745 	 60.0762 	 106.752
| 12> H 	 -35.5953 	 58.3804 	 107.119
| 13> C 	 -35.3683 	 58.5503 	 110.142
| 14> H 	 -36.4504 	 58.4604 	 110.06
| 15> H 	 -35.1492 	 59.077 	 111.101
| 16> C 	 -34.6832 	 57.1603 	 110.274
| 17> H 	 -33.6242 	 57.3251 	 110.407
| 18> H 	 -35.0887 	 56.5663 	 111.071
| 19> C 	 -34.8558 	 56.1559 	 109.138
| 20> H 	 -34.3207 	 55.2257 	 109.292
| 21> H 	 -35.8558 	 55.768 	 109.013
| 22> H 	 -34.5359 	 56.6237 	 108.186
| 23> S 	 -33.2292 	 60.4293 	 104.221
| 24> C 	 -34.2341 	 60.6619 	 102.893
| 25> C 	 -35.5731 	 60.6487 	 103.156
| 26> C 	 -35.8697 	 60.3573 	 104.522
| 27> C 	 -34.6709 	 60.2572 	 105.279
| 28> H 	 -36.3059 	 60.8424 	 102.364
| 29> C 	 -37.3144 	 60.2081 	 105.116
| 30> H 	 -37.2481 	 60.0781 	 106.165
| 31> H 	 -37.847 	 59.2906 	 104.793
| 32> C 	 -38.1313 	 61.4027 	 105.007
| 33> H 	 -38.3122 	 61.7029 	 104.002
| 34> H 	 -37.6028 	 62.2151 	 105.35
| 35> C 	 -39.482 	 61.5157 	 105.762
| 36> H 	 -39.2461 	 61.6005 	 106.824
| 37> H 	 -39.9791 	 60.5596 	 105.714
| 38> H 	 -40.1538 	 62.3631 	 105.476
| 39> H 	 -33.3445 	 60.5178 	 110.132
| 40> H 	 -33.8091 	 60.8348 	 101.898
| 41> *
| 42>
| 43>                          ****END OF INPUT****

CARTESIAN COORDINATES (ANGSTROEM)
---------------------------------
  S    -33.487900   61.180100  107.698000
  C    -33.762100   60.320800  109.161000
  C    -34.729900   59.305200  109.009000
  C    -34.967200   59.088100  107.595000
  C    -34.474500   60.076200  106.752000
  H    -35.595300   58.380400  107.119000
  C    -35.368300   58.550300  110.142000
  H    -36.450400   58.460400  110.060000
  H    -35.149200   59.077000  111.101000
  C    -34.683200   57.160300  110.274000
  H    -33.624200   57.325100  110.407000
  H    -35.088700   56.566300  111.071000
  C    -34.855800   56.155900  109.138000
  H    -34.320700   55.225700  109.292000
  H    -35.855800   55.768000  109.013000
  H    -34.535900   56.623700  108.186000
  S    -33.229200   60.429300  104.221000
  C    -34.234100   60.661900  102.893000
  C    -35.573100   60.648700  103.156000
  C    -35.869700   60.357300  104.522000
  C    -34.670900   60.257200  105.279000
  H    -36.305900   60.842400  102.364000
  C    -37.314400   60.208100  105.116000
  H    -37.248100   60.078100  106.165000
  H    -37.847000   59.290600  104.793000
  C    -38.131300   61.402700  105.007000
  H    -38.312200   61.702900  104.002000
  H    -37.602800   62.215100  105.350000
  C    -39.482000   61.515700  105.762000
  H    -39.246100   61.600500  106.824000
  H    -39.979100   60.559600  105.714000
  H    -40.153800   62.363100  105.476000
  H    -33.344500   60.517800  110.132000
  H    -33.809100   60.834800  101.898000

 Total Charge           Charge          ....    0
 Multiplicity           Mult            ....    1
 Number of Electrons    NEL             ....  134
 Basis Dimension        Dim             ....  322

ORBITAL ENERGIES
----------------

  NO   OCC          E(Eh)            E(eV)
   0   2.0000     -88.969295     -2420.9776
   1   2.0000     -88.965964     -2420.8870
   2   2.0000     -10.336294      -281.2648
   3   2.0000     -10.331479      -281.1338
   4   2.0000     -10.315622      -280.7023
   5   2.0000     -10.314948      -280.6840
   6   2.0000     -10.313757      -280.6516
   7   2.0000     -10.306055      -280.4420
   8   2.0000     -10.298750      -280.2432
   9   2.0000     -10.294946      -280.1397
  10   2.0000     -10.293759      -280.1074
  11   2.0000     -10.291483      -280.0455
  12   2.0000     -10.282498      -279.8010
  13   2.0000     -10.279726      -279.7256
  14   2.0000     -10.271729      -279.5080
  15   2.0000     -10.268471      -279.4193
  16   2.0000      -8.084686      -219.9955
  17   2.0000      -8.080865      -219.8915
  18   2.0000      -6.043009      -164.4386
  19   2.0000      -6.039324      -164.3384
  20   2.0000      -6.039106      -164.3324
  21   2.0000      -6.035590      -164.2367
  22   2.0000      -6.035262      -164.2278
  23   2.0000      -6.031752      -164.1323
  24   2.0000      -1.004239       -27.3267
  25   2.0000      -0.986316       -26.8390
  26   2.0000      -0.919079       -25.0094
  27   2.0000      -0.911066       -24.7914
  28   2.0000      -0.864427       -23.5223
  29   2.0000      -0.852657       -23.2020
  30   2.0000      -0.843036       -22.9402
  31   2.0000      -0.815218       -22.1832
  32   2.0000      -0.789369       -21.4798
  33   2.0000      -0.772961       -21.0333
  34   2.0000      -0.704037       -19.1578
  35   2.0000      -0.695736       -18.9319
  36   2.0000      -0.694313       -18.8932
  37   2.0000      -0.654281       -17.8039
  38   2.0000      -0.643819       -17.5192
  39   2.0000      -0.619715       -16.8633
  40   2.0000      -0.603789       -16.4299
  41   2.0000      -0.578581       -15.7440
  42   2.0000      -0.568137       -15.4598
  43   2.0000      -0.544780       -14.8242
  44   2.0000      -0.539055       -14.6684
  45   2.0000      -0.527426       -14.3520
  46   2.0000      -0.512847       -13.9553
  47   2.0000      -0.508224       -13.8295
  48   2.0000      -0.504498       -13.7281
  49   2.0000      -0.499261       -13.5856
  50   2.0000      -0.490378       -13.3439
  51   2.0000      -0.480643       -13.0790
  52   2.0000      -0.473429       -12.8826
  53   2.0000      -0.469782       -12.7834
  54   2.0000      -0.462004       -12.5718
  55   2.0000      -0.459508       -12.5038
  56   2.0000      -0.442246       -12.0341
  57   2.0000      -0.439920       -11.9708
  58   2.0000      -0.426676       -11.6104
  59   2.0000      -0.425307       -11.5732
  60   2.0000      -0.419815       -11.4237
  61   2.0000      -0.413094       -11.2409
  62   2.0000      -0.407449       -11.0872
  63   2.0000      -0.342557        -9.3215
  64   2.0000      -0.338296        -9.2055
  65   2.0000      -0.325102        -8.8465
  66   2.0000      -0.294395        -8.0109
  67   0.0000       0.031830         0.8661
  68   0.0000       0.068219         1.8563
  69   0.0000       0.110640         3.0107
  70   0.0000       0.119686         3.2568
  71   0.0000       0.133615         3.6358

MULLIKEN ATOMIC CHARGES
-----------------------
   0 S :    0.120823
   1 C :   -0.098897
   2 C :   -0.132627
   3 C :    0.056456
   4 C :   -0.171356
   5 H :    0.005708
   6 C :    0.081962
   7 H :    0.037280
   8 H :    0.028755
   9 C :   -0.061105
  10 H :    0.027931
  11 H :    0.022956
  12 C :   -0.066718
  13 H :    0.029167
  14 H :    0.017901
  15 H :    0.036531
  16 S :    0.126274
  17 C :   -0.091959
  18 C :   -0.041528
  19 C :   -0.026044
  20 C :   -0.187746
  21 H :    0.027319
  22 C :    0.128029
  23 H :   -0.004299
  24 H :    0.036887
  25 C :   -0.063311
  26 H :    0.006373
  27 H :    0.008761
  28 C :   -0.057117
  29 H :    0.026608
  30 H :    0.019374
  31 H :    0.053066
  32 H :    0.041471
  33 H :    0.063074
Sum of atomic charges:    0.0000000

LOEWDIN ATOMIC CHARGES
----------------------
   0 S :    0.416582
   1 C :   -0.207445
   2 C :   -0.059940
   3 C :   -0.064143
   4 C :   -0.197091
   5 H :    0.023933
   6 C :   -0.029933
   7 H :    0.031942
   8 H :    0.037366
   9 C :   -0.038322
  10 H :    0.024490
  11 H :    0.021012
  12 C :   -0.071511
  13 H :    0.027315
  14 H :    0.019250
  15 H :    0.025028
  16 S :    0.422846
  17 C :   -0.201580
  18 C :   -0.080385
  19 C :   -0.035588
  20 C :   -0.195441
  21 H :    0.036480
  22 C :   -0.026988
  23 H :    0.025550
  24 H :    0.034423
  25 C :   -0.045917
  26 H :    0.014333
  27 H :    0.018942
  28 C :   -0.063826
  29 H :    0.024036
  30 H :    0.019405
  31 H :    0.036554
  32 H :    0.026274
  33 H :    0.032350

  Mayer bond orders larger than 0.100000
B(  0-S ,  1-C ) :   1.1590 B(  0-S ,  4-C ) :   1.1511 B(  1-C ,  2-C ) :   1.5944
B(  1-C , 32-H ) :   0.9648 B(  2-C ,  3-C ) :   1.2268 B(  2-C ,  6-C ) :   1.0356
B(  3-C ,  4-C ) :   1.5866 B(  3-C ,  5-H ) :   0.9873 B(  4-C , 20-C ) :   1.0269
B(  6-C ,  7-H ) :   0.9441 B(  6-C ,  8-H ) :   0.9369 B(  6-C ,  9-C ) :   1.0661
B(  9-C , 10-H ) :   0.9531 B(  9-C , 11-H ) :   0.9568 B(  9-C , 12-C ) :   1.0865
B( 12-C , 13-H ) :   0.9703 B( 12-C , 14-H ) :   0.9747 B( 12-C , 15-H ) :   0.9676
B( 16-S , 17-C ) :   1.1779 B( 16-S , 20-C ) :   1.1502 B( 17-C , 18-C ) :   1.5993
B( 17-C , 33-H ) :   0.9613 B( 18-C , 19-C ) :   1.2508 B( 18-C , 21-H ) :   0.9905
B( 19-C , 20-C ) :   1.5821 B( 19-C , 22-C ) :   1.0325 B( 22-C , 23-H ) :   0.9233
B( 22-C , 24-H ) :   0.9308 B( 22-C , 25-C ) :   1.0693 B( 25-C , 26-H ) :   0.9510
B( 25-C , 27-H ) :   0.9484 B( 25-C , 28-C ) :   1.0820 B( 28-C , 29-H ) :   0.9752
B( 28-C , 30-H ) :   0.9751 B( 28-C , 31-H ) :   0.9742

Dispersion correction           -0.014061643
FINAL SINGLE POINT ENERGY     -1339.871483524470

DIPOLE MOMENT
-------------
                                X             Y             Z
Electronic contribution:     21.40022      10.79774     -10.40649
Nuclear contribution   :    -21.91519     -10.99007      10.51189
                        -----------------------------------------
Total Dipole Moment    :     -0.51497      -0.19233       0.10540
                        -----------------------------------------
Magnitude (a.u.)       :      0.55973
Magnitude (Debye)      :      1.42272

Rotational constants in cm-1:     0.016786     0.008742     0.007126
Rotational constants in MHz :   503.220060   262.078877   213.640435

                             ****ORCA TERMINATED NORMALLY****
TOTAL RUN TIME: 0 days 0 hours 0 minutes 29 seconds 948 msec
