                         Program Version 4.2.1 -  RELEASE  -
|  1> ! wB97X-D3 SP def2-SVP
|  2> %pal
|  3> nprocs 16
|  4> end
|  5>
|  6> * xyz 0 1
|  7> S 	 -35.9335 	 69.5909 	 167.982
|  8> C 	 -34.6422 	 70.6004 	 168.476
|  9> C 	 -34.6856 	 70.804 	 169.839
| 10> C 	 -36.0222 	 70.5419 	 170.333
| 11> C 	 -36.7978 	 69.8541 	 169.423
| 12> H 	 -36.3713 	 70.6793 	 171.353
| 13> C 	 -33.6547 	 71.5293 	 170.657
| 14> H 	 -32.7679 	 70.8213 	 170.91
| 15> H 	 -34.0972 	 71.7488 	 171.621
| 16> C 	 -33.219 	 72.8877 	 170.184
| 17> H 	 -32.6401 	 72.737 	 169.303
| 18> H 	 -34.0383 	 73.5698 	 169.825
| 19> C 	 -32.4578 	 73.7121 	 171.204
| 20> H 	 -32.2085 	 74.7047 	 170.775
| 21> H 	 -33.078 	 73.9433 	 172.073
| 22> H 	 -31.5048 	 73.2207 	 171.372
| 23> S 	 -39.4464 	 69.9944 	 168.561
| 24> C 	 -40.7408 	 69.3083 	 169.543
| 25> C 	 -40.2579 	 68.6598 	 170.628
| 26> C 	 -38.813 	 68.679 	 170.649
| 27> C 	 -38.1624 	 69.3689 	 169.634
| 28> H 	 -40.9978 	 68.2207 	 171.312
| 29> C 	 -38.2171 	 67.9939 	 171.855
| 30> H 	 -37.18 	 68.1567 	 171.738
| 31> H 	 -38.3773 	 66.9015 	 171.989
| 32> C 	 -38.6713 	 68.6131 	 173.186
| 33> H 	 -38.1252 	 68.1351 	 173.987
| 34> H 	 -39.7764 	 68.5006 	 173.507
| 35> C 	 -38.3809 	 70.1072 	 173.437
| 36> H 	 -38.9702 	 70.8119 	 172.821
| 37> H 	 -37.3213 	 70.2988 	 173.396
| 38> H 	 -38.713 	 70.4459 	 174.44
| 39> H 	 -33.7116 	 70.6837 	 167.909
| 40> H 	 -41.8141 	 69.2493 	 169.293
| 41> *
| 42>
| 43>                          ****END OF INPUT****

CARTESIAN COORDINATES (ANGSTROEM)
---------------------------------
  S    -35.933500   69.590900  167.982000
  C    -34.642200   70.600400  168.476000
  C    -34.685600   70.804000  169.839000
  C    -36.022200   70.541900  170.333000
  C    -36.797800   69.854100  169.423000
  H    -36.371300   70.679300  171.353000
  C    -33.654700   71.529300  170.657000
  H    -32.767900   70.821300  170.910000
  H    -34.097200   71.748800  171.621000
  C    -33.219000   72.887700  170.184000
  H    -32.640100   72.737000  169.303000
  H    -34.038300   73.569800  169.825000
  C    -32.457800   73.712100  171.204000
  H    -32.208500   74.704700  170.775000
  H    -33.078000   73.943300  172.073000
  H    -31.504800   73.220700  171.372000
  S    -39.446400   69.994400  168.561000
  C    -40.740800   69.308300  169.543000
  C    -40.257900   68.659800  170.628000
  C    -38.813000   68.679000  170.649000
  C    -38.162400   69.368900  169.634000
  H    -40.997800   68.220700  171.312000
  C    -38.217100   67.993900  171.855000
  H    -37.180000   68.156700  171.738000
  H    -38.377300   66.901500  171.989000
  C    -38.671300   68.613100  173.186000
  H    -38.125200   68.135100  173.987000
  H    -39.776400   68.500600  173.507000
  C    -38.380900   70.107200  173.437000
  H    -38.970200   70.811900  172.821000
  H    -37.321300   70.298800  173.396000
  H    -38.713000   70.445900  174.440000
  H    -33.711600   70.683700  167.909000
  H    -41.814100   69.249300  169.293000

 Total Charge           Charge          ....    0
 Multiplicity           Mult            ....    1
 Number of Electrons    NEL             ....  134
 Basis Dimension        Dim             ....  322

ORBITAL ENERGIES
----------------

  NO   OCC          E(Eh)            E(eV)
   0   2.0000     -88.966190     -2420.8931
   1   2.0000     -88.960141     -2420.7285
   2   2.0000     -10.332159      -281.1523
   3   2.0000     -10.327397      -281.0228
   4   2.0000     -10.317494      -280.7533
   5   2.0000     -10.311223      -280.5826
   6   2.0000     -10.306692      -280.4593
   7   2.0000     -10.302633      -280.3489
   8   2.0000     -10.295752      -280.1617
   9   2.0000     -10.295156      -280.1454
  10   2.0000     -10.292553      -280.0746
  11   2.0000     -10.291536      -280.0469
  12   2.0000     -10.289695      -279.9968
  13   2.0000     -10.283311      -279.8231
  14   2.0000     -10.280067      -279.7348
  15   2.0000     -10.278570      -279.6941
  16   2.0000      -8.082508      -219.9362
  17   2.0000      -8.074442      -219.7167
  18   2.0000      -6.040826      -164.3792
  19   2.0000      -6.036835      -164.2706
  20   2.0000      -6.033315      -164.1748
  21   2.0000      -6.033217      -164.1722
  22   2.0000      -6.028931      -164.0556
  23   2.0000      -6.025004      -163.9487
  24   2.0000      -1.012593       -27.5541
  25   2.0000      -0.986427       -26.8421
  26   2.0000      -0.918085       -24.9824
  27   2.0000      -0.906623       -24.6705
  28   2.0000      -0.873752       -23.7760
  29   2.0000      -0.852817       -23.2063
  30   2.0000      -0.840998       -22.8847
  31   2.0000      -0.818679       -22.2774
  32   2.0000      -0.782917       -21.3042
  33   2.0000      -0.773955       -21.0604
  34   2.0000      -0.706196       -19.2166
  35   2.0000      -0.699943       -19.0464
  36   2.0000      -0.688551       -18.7364
  37   2.0000      -0.656552       -17.8657
  38   2.0000      -0.642892       -17.4940
  39   2.0000      -0.615801       -16.7568
  40   2.0000      -0.593403       -16.1473
  41   2.0000      -0.578244       -15.7348
  42   2.0000      -0.568759       -15.4767
  43   2.0000      -0.550111       -14.9693
  44   2.0000      -0.538199       -14.6451
  45   2.0000      -0.529155       -14.3990
  46   2.0000      -0.517961       -14.0944
  47   2.0000      -0.514253       -13.9935
  48   2.0000      -0.507110       -13.7992
  49   2.0000      -0.505107       -13.7447
  50   2.0000      -0.491744       -13.3810
  51   2.0000      -0.473975       -12.8975
  52   2.0000      -0.472765       -12.8646
  53   2.0000      -0.461243       -12.5511
  54   2.0000      -0.455030       -12.3820
  55   2.0000      -0.452772       -12.3206
  56   2.0000      -0.440216       -11.9789
  57   2.0000      -0.436232       -11.8705
  58   2.0000      -0.432990       -11.7823
  59   2.0000      -0.421079       -11.4581
  60   2.0000      -0.416913       -11.3448
  61   2.0000      -0.410288       -11.1645
  62   2.0000      -0.405418       -11.0320
  63   2.0000      -0.345743        -9.4081
  64   2.0000      -0.329586        -8.9685
  65   2.0000      -0.325259        -8.8508
  66   2.0000      -0.302446        -8.2300
  67   0.0000       0.032294         0.8788
  68   0.0000       0.070056         1.9063
  69   0.0000       0.109933         2.9914
  70   0.0000       0.125486         3.4146
  71   0.0000       0.126568         3.4441

MULLIKEN ATOMIC CHARGES
-----------------------
   0 S :    0.134309
   1 C :   -0.123563
   2 C :   -0.092520
   3 C :    0.042233
   4 C :   -0.156927
   5 H :   -0.011760
   6 C :    0.056225
   7 H :    0.050929
   8 H :    0.003564
   9 C :   -0.092056
  10 H :    0.014605
  11 H :    0.038042
  12 C :   -0.043327
  13 H :    0.031522
  14 H :    0.039785
  15 H :    0.031110
  16 S :    0.083950
  17 C :   -0.090112
  18 C :   -0.044237
  19 C :   -0.052217
  20 C :   -0.122771
  21 H :    0.032982
  22 C :    0.116190
  23 H :    0.003646
  24 H :    0.048868
  25 C :   -0.124150
  26 H :    0.026510
  27 H :    0.039131
  28 C :   -0.070568
  29 H :    0.042258
  30 H :    0.037962
  31 H :    0.024464
  32 H :    0.061191
  33 H :    0.064736
Sum of atomic charges:    0.0000000

LOEWDIN ATOMIC CHARGES
----------------------
   0 S :    0.448017
   1 C :   -0.211247
   2 C :   -0.061479
   3 C :   -0.057528
   4 C :   -0.215837
   5 H :    0.028897
   6 C :   -0.042876
   7 H :    0.043917
   8 H :    0.025263
   9 C :   -0.048941
  10 H :    0.015019
  11 H :    0.033312
  12 C :   -0.063281
  13 H :    0.031019
  14 H :    0.026532
  15 H :    0.024201
  16 S :    0.378616
  17 C :   -0.176155
  18 C :   -0.079013
  19 C :   -0.051676
  20 C :   -0.192304
  21 H :    0.039802
  22 C :   -0.033111
  23 H :    0.022524
  24 H :    0.041770
  25 C :   -0.048129
  26 H :    0.023426
  27 H :    0.030113
  28 C :   -0.074017
  29 H :    0.027785
  30 H :    0.016566
  31 H :    0.029551
  32 H :    0.030999
  33 H :    0.038265

  Mayer bond orders larger than 0.100000
B(  0-S ,  1-C ) :   1.1593 B(  0-S ,  4-C ) :   1.1801 B(  1-C ,  2-C ) :   1.5847
B(  1-C , 32-H ) :   0.9653 B(  2-C ,  3-C ) :   1.2479 B(  2-C ,  6-C ) :   1.0410
B(  3-C ,  4-C ) :   1.5642 B(  3-C ,  5-H ) :   0.9906 B(  4-C , 20-C ) :   1.0139
B(  6-C ,  7-H ) :   0.9239 B(  6-C ,  8-H ) :   0.9434 B(  6-C ,  9-C ) :   1.0645
B(  9-C , 10-H ) :   0.9476 B(  9-C , 11-H ) :   0.9555 B(  9-C , 12-C ) :   1.0991
B( 12-C , 13-H ) :   0.9718 B( 12-C , 14-H ) :   0.9734 B( 12-C , 15-H ) :   0.9733
B( 16-S , 17-C ) :   1.1477 B( 16-S , 20-C ) :   1.1087 B( 17-C , 18-C ) :   1.6512
B( 17-C , 33-H ) :   0.9577 B( 18-C , 19-C ) :   1.1968 B( 18-C , 21-H ) :   0.9902
B( 19-C , 20-C ) :   1.6275 B( 19-C , 22-C ) :   1.0506 B( 22-C , 23-H ) :   0.9272
B( 22-C , 24-H ) :   0.9379 B( 22-C , 25-C ) :   1.0658 B( 25-C , 26-H ) :   0.9551
B( 25-C , 27-H ) :   0.9544 B( 25-C , 28-C ) :   1.0805 B( 28-C , 29-H ) :   0.9725
B( 28-C , 30-H ) :   0.9672 B( 28-C , 31-H ) :   0.9682

Dispersion correction           -0.014582409
FINAL SINGLE POINT ENERGY     -1339.868996784494

DIPOLE MOMENT
-------------
                                X             Y             Z
Electronic contribution:    -12.62233      -9.92061     -23.59127
Nuclear contribution   :     12.82093       9.92550      24.28983
                        -----------------------------------------
Total Dipole Moment    :      0.19861       0.00489       0.69857
                        -----------------------------------------
Magnitude (a.u.)       :      0.72627
Magnitude (Debye)      :      1.84602

Rotational constants in cm-1:     0.020451     0.008104     0.006546
Rotational constants in MHz :   613.103177   242.940757   196.251145

                             ****ORCA TERMINATED NORMALLY****
TOTAL RUN TIME: 0 days 0 hours 0 minutes 34 seconds 259 msec
