                         Program Version 4.2.1 -  RELEASE  -
|  1> ! wB97X-D3 SP def2-SVP
|  2> %pal
|  3> nprocs 16
|  4> end
|  5>
|  6> * xyz 0 1
|  7> S 	 -8.31789 	 62.5279 	 53.1173
|  8> C 	 -9.3997 	 62.4439 	 54.5145
|  9> C 	 -10.3824 	 63.446 	 54.4511
| 10> C 	 -10.1149 	 64.3932 	 53.3953
| 11> C 	 -8.93609 	 64.1258 	 52.6811
| 12> H 	 -10.752 	 65.2957 	 53.185
| 13> C 	 -11.4779 	 63.5588 	 55.4234
| 14> H 	 -11.6324 	 62.4824 	 55.4918
| 15> H 	 -12.2869 	 64.047 	 54.9175
| 16> C 	 -11.2494 	 64.2543 	 56.8329
| 17> H 	 -11.1667 	 65.2849 	 56.6865
| 18> H 	 -12.1158 	 64.1385 	 57.4956
| 19> C 	 -10.0298 	 63.7919 	 57.6066
| 20> H 	 -10.0525 	 64.3043 	 58.6107
| 21> H 	 -10.2296 	 62.7425 	 57.8295
| 22> H 	 -9.03622 	 63.9707 	 57.0585
| 23> S 	 -9.50145 	 65.9758 	 50.8248
| 24> C 	 -8.27103 	 66.568 	 49.6946
| 25> C 	 -7.05192 	 65.95 	 49.8773
| 26> C 	 -7.11622 	 64.9863 	 50.9021
| 27> C 	 -8.35515 	 64.9732 	 51.5917
| 28> H 	 -6.1866 	 66.3282 	 49.3797
| 29> C 	 -5.92869 	 64.224 	 51.2623
| 30> H 	 -5.12661 	 64.2614 	 50.4842
| 31> H 	 -6.27162 	 63.2119 	 51.2205
| 32> C 	 -5.33088 	 64.4544 	 52.6689
| 33> H 	 -4.62213 	 63.6038 	 52.8044
| 34> H 	 -6.12056 	 64.2965 	 53.3752
| 35> C 	 -4.68707 	 65.8572 	 52.7663
| 36> H 	 -5.48043 	 66.6093 	 52.6191
| 37> H 	 -3.95333 	 66.018 	 51.919
| 38> H 	 -4.19898 	 65.9242 	 53.7262
| 39> H 	 -9.29257 	 61.746 	 55.3153
| 40> H 	 -8.35793 	 67.301 	 48.9304
| 41> *
| 42>
| 43>                          ****END OF INPUT****

CARTESIAN COORDINATES (ANGSTROEM)
---------------------------------
  S     -8.317890   62.527900   53.117300
  C     -9.399700   62.443900   54.514500
  C    -10.382400   63.446000   54.451100
  C    -10.114900   64.393200   53.395300
  C     -8.936090   64.125800   52.681100
  H    -10.752000   65.295700   53.185000
  C    -11.477900   63.558800   55.423400
  H    -11.632400   62.482400   55.491800
  H    -12.286900   64.047000   54.917500
  C    -11.249400   64.254300   56.832900
  H    -11.166700   65.284900   56.686500
  H    -12.115800   64.138500   57.495600
  C    -10.029800   63.791900   57.606600
  H    -10.052500   64.304300   58.610700
  H    -10.229600   62.742500   57.829500
  H     -9.036220   63.970700   57.058500
  S     -9.501450   65.975800   50.824800
  C     -8.271030   66.568000   49.694600
  C     -7.051920   65.950000   49.877300
  C     -7.116220   64.986300   50.902100
  C     -8.355150   64.973200   51.591700
  H     -6.186600   66.328200   49.379700
  C     -5.928690   64.224000   51.262300
  H     -5.126610   64.261400   50.484200
  H     -6.271620   63.211900   51.220500
  C     -5.330880   64.454400   52.668900
  H     -4.622130   63.603800   52.804400
  H     -6.120560   64.296500   53.375200
  C     -4.687070   65.857200   52.766300
  H     -5.480430   66.609300   52.619100
  H     -3.953330   66.018000   51.919000
  H     -4.198980   65.924200   53.726200
  H     -9.292570   61.746000   55.315300
  H     -8.357930   67.301000   48.930400

 Total Charge           Charge          ....    0
 Multiplicity           Mult            ....    1
 Number of Electrons    NEL             ....  134
 Basis Dimension        Dim             ....  322

ORBITAL ENERGIES
----------------

  NO   OCC          E(Eh)            E(eV)
   0   2.0000     -88.970072     -2420.9987
   1   2.0000     -88.969782     -2420.9908
   2   2.0000     -10.340103      -281.3685
   3   2.0000     -10.329421      -281.0778
   4   2.0000     -10.315848      -280.7085
   5   2.0000     -10.313962      -280.6572
   6   2.0000     -10.303805      -280.3808
   7   2.0000     -10.301164      -280.3089
   8   2.0000     -10.301123      -280.3078
   9   2.0000     -10.290421      -280.0166
  10   2.0000     -10.289606      -279.9944
  11   2.0000     -10.286752      -279.9167
  12   2.0000     -10.285302      -279.8773
  13   2.0000     -10.282386      -279.7979
  14   2.0000     -10.281823      -279.7826
  15   2.0000     -10.278513      -279.6926
  16   2.0000      -8.084730      -219.9967
  17   2.0000      -8.083101      -219.9524
  18   2.0000      -6.043199      -164.4438
  19   2.0000      -6.041737      -164.4040
  20   2.0000      -6.039225      -164.3357
  21   2.0000      -6.037850      -164.2983
  22   2.0000      -6.035578      -164.2364
  23   2.0000      -6.033796      -164.1879
  24   2.0000      -1.007106       -27.4048
  25   2.0000      -0.982562       -26.7369
  26   2.0000      -0.911763       -24.8103
  27   2.0000      -0.911243       -24.7962
  28   2.0000      -0.870558       -23.6891
  29   2.0000      -0.853344       -23.2207
  30   2.0000      -0.841123       -22.8881
  31   2.0000      -0.815441       -22.1893
  32   2.0000      -0.780454       -21.2372
  33   2.0000      -0.768571       -20.9139
  34   2.0000      -0.711441       -19.3593
  35   2.0000      -0.697635       -18.9836
  36   2.0000      -0.687216       -18.7001
  37   2.0000      -0.670228       -18.2378
  38   2.0000      -0.631175       -17.1751
  39   2.0000      -0.613610       -16.6972
  40   2.0000      -0.592704       -16.1283
  41   2.0000      -0.566810       -15.4237
  42   2.0000      -0.557549       -15.1717
  43   2.0000      -0.548855       -14.9351
  44   2.0000      -0.545167       -14.8347
  45   2.0000      -0.539426       -14.6785
  46   2.0000      -0.526845       -14.3362
  47   2.0000      -0.514704       -14.0058
  48   2.0000      -0.499251       -13.5853
  49   2.0000      -0.492607       -13.4045
  50   2.0000      -0.480345       -13.0708
  51   2.0000      -0.478913       -13.0319
  52   2.0000      -0.471984       -12.8433
  53   2.0000      -0.466012       -12.6808
  54   2.0000      -0.459478       -12.5030
  55   2.0000      -0.450406       -12.2562
  56   2.0000      -0.437216       -11.8972
  57   2.0000      -0.433575       -11.7982
  58   2.0000      -0.431470       -11.7409
  59   2.0000      -0.425973       -11.5913
  60   2.0000      -0.420807       -11.4507
  61   2.0000      -0.417888       -11.3713
  62   2.0000      -0.413320       -11.2470
  63   2.0000      -0.357310        -9.7229
  64   2.0000      -0.329089        -8.9550
  65   2.0000      -0.326949        -8.8967
  66   2.0000      -0.279547        -7.6069
  67   0.0000       0.014284         0.3887
  68   0.0000       0.078232         2.1288
  69   0.0000       0.103804         2.8247
  70   0.0000       0.112751         3.0681
  71   0.0000       0.130389         3.5481

MULLIKEN ATOMIC CHARGES
-----------------------
   0 S :    0.098340
   1 C :   -0.130839
   2 C :   -0.103417
   3 C :   -0.022841
   4 C :   -0.111300
   5 H :    0.041298
   6 C :    0.070434
   7 H :    0.031598
   8 H :    0.021044
   9 C :   -0.029980
  10 H :    0.015558
  11 H :    0.031493
  12 C :   -0.103612
  13 H :    0.042637
  14 H :    0.027289
  15 H :    0.070667
  16 S :    0.098302
  17 C :   -0.065941
  18 C :   -0.037163
  19 C :   -0.055077
  20 C :   -0.120250
  21 H :    0.015910
  22 C :    0.021031
  23 H :    0.022062
  24 H :    0.022159
  25 C :   -0.054614
  26 H :    0.030629
  27 H :    0.027339
  28 C :   -0.051585
  29 H :    0.046827
  30 H :    0.028585
  31 H :    0.041838
  32 H :    0.043721
  33 H :    0.037859
Sum of atomic charges:    0.0000000

LOEWDIN ATOMIC CHARGES
----------------------
   0 S :    0.400607
   1 C :   -0.198064
   2 C :   -0.057789
   3 C :   -0.085154
   4 C :   -0.181140
   5 H :    0.034625
   6 C :   -0.036165
   7 H :    0.037745
   8 H :    0.030969
   9 C :   -0.034220
  10 H :    0.014594
  11 H :    0.028647
  12 C :   -0.077571
  13 H :    0.034127
  14 H :    0.020957
  15 H :    0.038208
  16 S :    0.432043
  17 C :   -0.173224
  18 C :   -0.065766
  19 C :   -0.059087
  20 C :   -0.212369
  21 H :    0.032452
  22 C :   -0.045562
  23 H :    0.032229
  24 H :    0.024791
  25 C :   -0.036026
  26 H :    0.027062
  27 H :    0.012043
  28 C :   -0.066599
  29 H :    0.030272
  30 H :    0.027362
  31 H :    0.024978
  32 H :    0.022149
  33 H :    0.022875

  Mayer bond orders larger than 0.100000
B(  0-S ,  1-C ) :   1.1252 B(  0-S ,  4-C ) :   1.1431 B(  1-C ,  2-C ) :   1.5905
B(  1-C , 32-H ) :   0.9728 B(  2-C ,  3-C ) :   1.2522 B(  2-C ,  6-C ) :   1.0161
B(  3-C ,  4-C ) :   1.5498 B(  3-C ,  5-H ) :   0.9717 B(  4-C , 20-C ) :   1.0575
B(  6-C ,  7-H ) :   0.9408 B(  6-C ,  8-H ) :   0.9373 B(  6-C ,  9-C ) :   1.0550
B(  9-C , 10-H ) :   0.9550 B(  9-C , 11-H ) :   0.9558 B(  9-C , 12-C ) :   1.0884
B( 12-C , 13-H ) :   0.9696 B( 12-C , 14-H ) :   0.9761 B( 12-C , 15-H ) :   0.9677
B( 16-S , 17-C ) :   1.1603 B( 16-S , 20-C ) :   1.1532 B( 17-C , 18-C ) :   1.6008
B( 17-C , 33-H ) :   0.9677 B( 18-C , 19-C ) :   1.2650 B( 18-C , 21-H ) :   0.9944
B( 19-C , 20-C ) :   1.5247 B( 19-C , 22-C ) :   1.0561 B( 22-C , 23-H ) :   0.9372
B( 22-C , 24-H ) :   0.9135 B( 22-C , 25-C ) :   1.0814 B( 25-C , 26-H ) :   0.9537
B( 25-C , 27-H ) :   0.9491 B( 25-C , 28-C ) :   1.0639 B( 28-C , 29-H ) :   0.9753
B( 28-C , 30-H ) :   0.9753 B( 28-C , 31-H ) :   0.9752

Dispersion correction           -0.015055829
FINAL SINGLE POINT ENERGY     -1339.867984138075

DIPOLE MOMENT
-------------
                                X             Y             Z
Electronic contribution:     -6.55519      -1.39053     -17.74676
Nuclear contribution   :      6.57371       1.55482      17.98713
                        -----------------------------------------
Total Dipole Moment    :      0.01853       0.16429       0.24037
                        -----------------------------------------
Magnitude (a.u.)       :      0.29173
Magnitude (Debye)      :      0.74153

Rotational constants in cm-1:     0.021746     0.008374     0.007170
Rotational constants in MHz :   651.928817   251.050882   214.955444

                             ****ORCA TERMINATED NORMALLY****
TOTAL RUN TIME: 0 days 0 hours 0 minutes 36 seconds 447 msec
