                         Program Version 4.2.1 -  RELEASE  -
|  1> ! wB97X-D3 SP def2-SVP
|  2> %pal
|  3> nprocs 16
|  4> end
|  5>
|  6> * xyz 0 1
|  7> S 	 67.3734 	 -5.53869 	 87.8181
|  8> C 	 65.6833 	 -5.57757 	 88.3581
|  9> C 	 65.5078 	 -4.76612 	 89.535
| 10> C 	 66.711 	 -4.13672 	 89.8921
| 11> C 	 67.6758 	 -4.30047 	 88.9897
| 12> H 	 66.6872 	 -3.34993 	 90.6211
| 13> C 	 64.2075 	 -4.54945 	 90.2286
| 14> H 	 63.8417 	 -5.57137 	 90.5418
| 15> H 	 63.4926 	 -4.23398 	 89.4966
| 16> C 	 64.1589 	 -3.56297 	 91.3994
| 17> H 	 64.9564 	 -3.76814 	 91.9938
| 18> H 	 64.2006 	 -2.4902 	 91.1369
| 19> C 	 62.9619 	 -3.7623 	 92.3816
| 20> H 	 63.0556 	 -4.76346 	 92.8077
| 21> H 	 62.9688 	 -3.12806 	 93.2168
| 22> H 	 61.9957 	 -3.64072 	 91.8143
| 23> S 	 70.4538 	 -4.48681 	 88.6216
| 24> C 	 71.5168 	 -3.14764 	 88.8517
| 25> C 	 70.7648 	 -2.04699 	 89.3143
| 26> C 	 69.3819 	 -2.26497 	 89.3566
| 27> C 	 68.9566 	 -3.54913 	 88.9553
| 28> H 	 71.3716 	 -1.17492 	 89.4262
| 29> C 	 68.5565 	 -1.1094 	 89.8915
| 30> H 	 67.4651 	 -1.46381 	 89.9293
| 31> H 	 68.4047 	 -0.435748 	 89.1395
| 32> C 	 69.0256 	 -0.450701 	 91.2397
| 33> H 	 70.0507 	 -0.23733 	 91.2489
| 34> H 	 68.8674 	 -1.23686 	 92.0724
| 35> C 	 68.4231 	 0.918067 	 91.5318
| 36> H 	 68.6677 	 1.6383 	 90.8414
| 37> H 	 68.7243 	 1.20617 	 92.5706
| 38> H 	 67.3087 	 0.957026 	 91.3846
| 39> H 	 64.9294 	 -6.26473 	 87.942
| 40> H 	 72.5436 	 -3.21451 	 88.6564
| 41> *
| 42>
| 43>                          ****END OF INPUT****

CARTESIAN COORDINATES (ANGSTROEM)
---------------------------------
  S     67.373400   -5.538690   87.818100
  C     65.683300   -5.577570   88.358100
  C     65.507800   -4.766120   89.535000
  C     66.711000   -4.136720   89.892100
  C     67.675800   -4.300470   88.989700
  H     66.687200   -3.349930   90.621100
  C     64.207500   -4.549450   90.228600
  H     63.841700   -5.571370   90.541800
  H     63.492600   -4.233980   89.496600
  C     64.158900   -3.562970   91.399400
  H     64.956400   -3.768140   91.993800
  H     64.200600   -2.490200   91.136900
  C     62.961900   -3.762300   92.381600
  H     63.055600   -4.763460   92.807700
  H     62.968800   -3.128060   93.216800
  H     61.995700   -3.640720   91.814300
  S     70.453800   -4.486810   88.621600
  C     71.516800   -3.147640   88.851700
  C     70.764800   -2.046990   89.314300
  C     69.381900   -2.264970   89.356600
  C     68.956600   -3.549130   88.955300
  H     71.371600   -1.174920   89.426200
  C     68.556500   -1.109400   89.891500
  H     67.465100   -1.463810   89.929300
  H     68.404700   -0.435748   89.139500
  C     69.025600   -0.450701   91.239700
  H     70.050700   -0.237330   91.248900
  H     68.867400   -1.236860   92.072400
  C     68.423100    0.918067   91.531800
  H     68.667700    1.638300   90.841400
  H     68.724300    1.206170   92.570600
  H     67.308700    0.957026   91.384600
  H     64.929400   -6.264730   87.942000
  H     72.543600   -3.214510   88.656400

 Total Charge           Charge          ....    0
 Multiplicity           Mult            ....    1
 Number of Electrons    NEL             ....  134
 Basis Dimension        Dim             ....  322

ORBITAL ENERGIES
----------------

  NO   OCC          E(Eh)            E(eV)
   0   2.0000     -88.969575     -2420.9852
   1   2.0000     -88.961594     -2420.7680
   2   2.0000     -10.333716      -281.1947
   3   2.0000     -10.327896      -281.0363
   4   2.0000     -10.318316      -280.7757
   5   2.0000     -10.314817      -280.6805
   6   2.0000     -10.306337      -280.4497
   7   2.0000     -10.304173      -280.3908
   8   2.0000     -10.294619      -280.1308
   9   2.0000     -10.293447      -280.0989
  10   2.0000     -10.291062      -280.0340
  11   2.0000     -10.290731      -280.0250
  12   2.0000     -10.285356      -279.8788
  13   2.0000     -10.284556      -279.8570
  14   2.0000     -10.281831      -279.7828
  15   2.0000     -10.280448      -279.7452
  16   2.0000      -8.084059      -219.9784
  17   2.0000      -8.076128      -219.7626
  18   2.0000      -6.042503      -164.4249
  19   2.0000      -6.038736      -164.3223
  20   2.0000      -6.034782      -164.2148
  21   2.0000      -6.034546      -164.2083
  22   2.0000      -6.030491      -164.0980
  23   2.0000      -6.027189      -164.0082
  24   2.0000      -1.006612       -27.3913
  25   2.0000      -0.982955       -26.7476
  26   2.0000      -0.915760       -24.9191
  27   2.0000      -0.905869       -24.6499
  28   2.0000      -0.864671       -23.5289
  29   2.0000      -0.857327       -23.3291
  30   2.0000      -0.848754       -23.0958
  31   2.0000      -0.816442       -22.2165
  32   2.0000      -0.782993       -21.3063
  33   2.0000      -0.770754       -20.9733
  34   2.0000      -0.715112       -19.4592
  35   2.0000      -0.706806       -19.2332
  36   2.0000      -0.691138       -18.8068
  37   2.0000      -0.656388       -17.8612
  38   2.0000      -0.641582       -17.4583
  39   2.0000      -0.629412       -17.1272
  40   2.0000      -0.599482       -16.3127
  41   2.0000      -0.575322       -15.6553
  42   2.0000      -0.565641       -15.3919
  43   2.0000      -0.554790       -15.0966
  44   2.0000      -0.538970       -14.6661
  45   2.0000      -0.529858       -14.4182
  46   2.0000      -0.515494       -14.0273
  47   2.0000      -0.513373       -13.9696
  48   2.0000      -0.502895       -13.6845
  49   2.0000      -0.498781       -13.5725
  50   2.0000      -0.492038       -13.3890
  51   2.0000      -0.481833       -13.1114
  52   2.0000      -0.465820       -12.6756
  53   2.0000      -0.464781       -12.6473
  54   2.0000      -0.460774       -12.5383
  55   2.0000      -0.449074       -12.2199
  56   2.0000      -0.443287       -12.0625
  57   2.0000      -0.441104       -12.0030
  58   2.0000      -0.435882       -11.8609
  59   2.0000      -0.431523       -11.7423
  60   2.0000      -0.421075       -11.4580
  61   2.0000      -0.414218       -11.2715
  62   2.0000      -0.408646       -11.1198
  63   2.0000      -0.348741        -9.4897
  64   2.0000      -0.333081        -9.0636
  65   2.0000      -0.328337        -8.9345
  66   2.0000      -0.282588        -7.6896
  67   0.0000       0.022082         0.6009
  68   0.0000       0.070742         1.9250
  69   0.0000       0.102841         2.7984
  70   0.0000       0.122781         3.3410
  71   0.0000       0.130216         3.5433

MULLIKEN ATOMIC CHARGES
-----------------------
   0 S :    0.121377
   1 C :   -0.134932
   2 C :   -0.117429
   3 C :    0.023625
   4 C :   -0.115048
   5 H :    0.011539
   6 C :    0.061725
   7 H :    0.039434
   8 H :    0.033807
   9 C :   -0.082779
  10 H :    0.018413
  11 H :    0.041833
  12 C :   -0.047059
  13 H :    0.029613
  14 H :    0.025385
  15 H :    0.039820
  16 S :    0.076791
  17 C :   -0.089666
  18 C :   -0.049468
  19 C :   -0.024567
  20 C :   -0.117912
  21 H :    0.019482
  22 C :    0.075480
  23 H :    0.009718
  24 H :    0.003651
  25 C :   -0.072261
  26 H :    0.023934
  27 H :    0.047931
  28 C :   -0.041796
  29 H :    0.013954
  30 H :    0.048847
  31 H :    0.024188
  32 H :    0.054905
  33 H :    0.047464
Sum of atomic charges:   -0.0000000

LOEWDIN ATOMIC CHARGES
----------------------
   0 S :    0.410375
   1 C :   -0.204607
   2 C :   -0.052208
   3 C :   -0.070099
   4 C :   -0.188235
   5 H :    0.029540
   6 C :   -0.036847
   7 H :    0.042328
   8 H :    0.033865
   9 C :   -0.039944
  10 H :    0.010134
  11 H :    0.028599
  12 C :   -0.057004
  13 H :    0.025636
  14 H :    0.018239
  15 H :    0.029256
  16 S :    0.395150
  17 C :   -0.180092
  18 C :   -0.074723
  19 C :   -0.060436
  20 C :   -0.182581
  21 H :    0.030053
  22 C :   -0.035030
  23 H :    0.035024
  24 H :    0.017647
  25 C :   -0.037592
  26 H :    0.016389
  27 H :    0.036058
  28 C :   -0.065058
  29 H :    0.013552
  30 H :    0.036336
  31 H :    0.027718
  32 H :    0.029144
  33 H :    0.019414

  Mayer bond orders larger than 0.100000
B(  0-S ,  1-C ) :   1.1331 B(  0-S ,  4-C ) :   1.1639 B(  1-C ,  2-C ) :   1.5825
B(  1-C ,  4-C ) :   0.1077 B(  1-C , 32-H ) :   0.9718 B(  2-C ,  3-C ) :   1.2834
B(  2-C ,  6-C ) :   1.0107 B(  3-C ,  4-C ) :   1.5682 B(  3-C ,  5-H ) :   0.9779
B(  4-C , 20-C ) :   1.0165 B(  6-C ,  7-H ) :   0.9344 B(  6-C ,  8-H ) :   0.9325
B(  6-C ,  9-C ) :   1.0789 B(  9-C , 10-H ) :   0.9445 B(  9-C , 11-H ) :   0.9534
B(  9-C , 12-C ) :   1.0885 B( 12-C , 13-H ) :   0.9763 B( 12-C , 14-H ) :   0.9747
B( 12-C , 15-H ) :   0.9773 B( 16-S , 17-C ) :   1.1864 B( 16-S , 20-C ) :   1.1413
B( 17-C , 18-C ) :   1.5550 B( 17-C , 20-C ) :   0.1154 B( 17-C , 33-H ) :   0.9766
B( 18-C , 19-C ) :   1.2655 B( 18-C , 21-H ) :   0.9992 B( 19-C , 20-C ) :   1.5665
B( 19-C , 22-C ) :   1.0316 B( 22-C , 23-H ) :   0.9285 B( 22-C , 24-H ) :   0.9309
B( 22-C , 25-C ) :   1.0475 B( 25-C , 26-H ) :   0.9538 B( 25-C , 27-H ) :   0.9581
B( 25-C , 28-C ) :   1.0772 B( 28-C , 29-H ) :   0.9722 B( 28-C , 30-H ) :   0.9735
B( 28-C , 31-H ) :   0.9737

Dispersion correction           -0.013489009
FINAL SINGLE POINT ENERGY     -1339.843803233318

DIPOLE MOMENT
-------------
                                X             Y             Z
Electronic contribution:     18.14410     -19.63412     -20.33960
Nuclear contribution   :    -18.45197      20.20280      20.75175
                        -----------------------------------------
Total Dipole Moment    :     -0.30787       0.56868       0.41215
                        -----------------------------------------
Magnitude (a.u.)       :      0.76684
Magnitude (Debye)      :      1.94915

Rotational constants in cm-1:     0.015234     0.009676     0.006193
Rotational constants in MHz :   456.707066   290.085438   185.667728

                             ****ORCA TERMINATED NORMALLY****
TOTAL RUN TIME: 0 days 0 hours 0 minutes 27 seconds 850 msec
