                         Program Version 4.2.1 -  RELEASE  -
|  1> ! wB97X-D3 SP def2-SVP
|  2> %pal
|  3> nprocs 16
|  4> end
|  5>
|  6> * xyz 0 1
|  7> S 	 -56.0364 	 38.0665 	 117.038
|  8> C 	 -57.2048 	 37.4229 	 118.129
|  9> C 	 -58.1427 	 36.7681 	 117.341
| 10> C 	 -57.8846 	 36.8308 	 115.921
| 11> C 	 -56.7604 	 37.5578 	 115.587
| 12> H 	 -58.4887 	 36.2991 	 115.119
| 13> C 	 -59.3284 	 35.887 	 117.77
| 14> H 	 -60.0279 	 36.1322 	 116.882
| 15> H 	 -59.68 	 36.2316 	 118.737
| 16> C 	 -59.2106 	 34.3617 	 117.766
| 17> H 	 -60.1626 	 33.8738 	 117.88
| 18> H 	 -58.735 	 33.8783 	 116.926
| 19> C 	 -58.3369 	 33.8813 	 118.923
| 20> H 	 -58.6451 	 34.524 	 119.708
| 21> H 	 -58.5076 	 32.8372 	 119.103
| 22> H 	 -57.2556 	 34.0776 	 118.705
| 23> S 	 -55.2884 	 39.2509 	 114.073
| 24> C 	 -54.9177 	 38.8297 	 112.443
| 25> C 	 -55.4906 	 37.5852 	 112.086
| 26> C 	 -56.1435 	 36.934 	 113.189
| 27> C 	 -56.1401 	 37.7452 	 114.31
| 28> H 	 -55.4237 	 37.1402 	 111.062
| 29> C 	 -56.8867 	 35.5822 	 112.937
| 30> H 	 -57.3011 	 35.211 	 113.871
| 31> H 	 -56.1261 	 34.8681 	 112.57
| 32> C 	 -57.9742 	 35.5431 	 111.855
| 33> H 	 -58.3183 	 34.4959 	 111.973
| 34> H 	 -57.5064 	 35.5919 	 110.908
| 35> C 	 -58.9445 	 36.6434 	 111.993
| 36> H 	 -59.7971 	 36.4584 	 111.314
| 37> H 	 -58.4628 	 37.6045 	 111.69
| 38> H 	 -59.3484 	 36.5723 	 113.007
| 39> H 	 -57.3007 	 37.6276 	 119.167
| 40> H 	 -54.5528 	 39.4828 	 111.61
| 41> *
| 42>
| 43>                          ****END OF INPUT****

CARTESIAN COORDINATES (ANGSTROEM)
---------------------------------
  S    -56.036400   38.066500  117.038000
  C    -57.204800   37.422900  118.129000
  C    -58.142700   36.768100  117.341000
  C    -57.884600   36.830800  115.921000
  C    -56.760400   37.557800  115.587000
  H    -58.488700   36.299100  115.119000
  C    -59.328400   35.887000  117.770000
  H    -60.027900   36.132200  116.882000
  H    -59.680000   36.231600  118.737000
  C    -59.210600   34.361700  117.766000
  H    -60.162600   33.873800  117.880000
  H    -58.735000   33.878300  116.926000
  C    -58.336900   33.881300  118.923000
  H    -58.645100   34.524000  119.708000
  H    -58.507600   32.837200  119.103000
  H    -57.255600   34.077600  118.705000
  S    -55.288400   39.250900  114.073000
  C    -54.917700   38.829700  112.443000
  C    -55.490600   37.585200  112.086000
  C    -56.143500   36.934000  113.189000
  C    -56.140100   37.745200  114.310000
  H    -55.423700   37.140200  111.062000
  C    -56.886700   35.582200  112.937000
  H    -57.301100   35.211000  113.871000
  H    -56.126100   34.868100  112.570000
  C    -57.974200   35.543100  111.855000
  H    -58.318300   34.495900  111.973000
  H    -57.506400   35.591900  110.908000
  C    -58.944500   36.643400  111.993000
  H    -59.797100   36.458400  111.314000
  H    -58.462800   37.604500  111.690000
  H    -59.348400   36.572300  113.007000
  H    -57.300700   37.627600  119.167000
  H    -54.552800   39.482800  111.610000

 Total Charge           Charge          ....    0
 Multiplicity           Mult            ....    1
 Number of Electrons    NEL             ....  134
 Basis Dimension        Dim             ....  322

ORBITAL ENERGIES
----------------

  NO   OCC          E(Eh)            E(eV)
   0   2.0000     -88.972420     -2421.0626
   1   2.0000     -88.962154     -2420.7833
   2   2.0000     -10.328184      -281.0442
   3   2.0000     -10.325717      -280.9770
   4   2.0000     -10.324911      -280.9551
   5   2.0000     -10.312953      -280.6297
   6   2.0000     -10.308078      -280.4971
   7   2.0000     -10.303995      -280.3860
   8   2.0000     -10.302633      -280.3489
   9   2.0000     -10.298914      -280.2477
  10   2.0000     -10.296447      -280.1806
  11   2.0000     -10.295131      -280.1448
  12   2.0000     -10.283878      -279.8385
  13   2.0000     -10.281115      -279.7634
  14   2.0000     -10.279623      -279.7228
  15   2.0000     -10.269173      -279.4384
  16   2.0000      -8.087366      -220.0684
  17   2.0000      -8.078345      -219.8230
  18   2.0000      -6.045856      -164.5161
  19   2.0000      -6.041803      -164.4058
  20   2.0000      -6.038157      -164.3066
  21   2.0000      -6.036889      -164.2721
  22   2.0000      -6.032411      -164.1502
  23   2.0000      -6.029188      -164.0625
  24   2.0000      -1.015805       -27.6415
  25   2.0000      -0.989042       -26.9132
  26   2.0000      -0.919269       -25.0146
  27   2.0000      -0.912621       -24.8337
  28   2.0000      -0.874530       -23.7972
  29   2.0000      -0.855768       -23.2866
  30   2.0000      -0.843956       -22.9652
  31   2.0000      -0.810907       -22.0659
  32   2.0000      -0.786221       -21.3942
  33   2.0000      -0.773033       -21.0353
  34   2.0000      -0.708748       -19.2860
  35   2.0000      -0.696484       -18.9523
  36   2.0000      -0.691272       -18.8105
  37   2.0000      -0.659771       -17.9533
  38   2.0000      -0.638770       -17.3818
  39   2.0000      -0.623734       -16.9727
  40   2.0000      -0.597847       -16.2682
  41   2.0000      -0.568008       -15.4563
  42   2.0000      -0.558375       -15.1941
  43   2.0000      -0.552631       -15.0379
  44   2.0000      -0.547130       -14.8882
  45   2.0000      -0.536968       -14.6116
  46   2.0000      -0.524164       -14.2632
  47   2.0000      -0.514915       -14.0116
  48   2.0000      -0.513601       -13.9758
  49   2.0000      -0.498162       -13.5557
  50   2.0000      -0.491410       -13.3720
  51   2.0000      -0.483169       -13.1477
  52   2.0000      -0.474667       -12.9163
  53   2.0000      -0.465005       -12.6534
  54   2.0000      -0.456017       -12.4088
  55   2.0000      -0.451828       -12.2949
  56   2.0000      -0.446313       -12.1448
  57   2.0000      -0.438117       -11.9218
  58   2.0000      -0.429378       -11.6840
  59   2.0000      -0.422119       -11.4864
  60   2.0000      -0.417108       -11.3501
  61   2.0000      -0.414285       -11.2733
  62   2.0000      -0.401946       -10.9375
  63   2.0000      -0.357982        -9.7412
  64   2.0000      -0.334636        -9.1059
  65   2.0000      -0.323944        -8.8150
  66   2.0000      -0.289200        -7.8695
  67   0.0000       0.024533         0.6676
  68   0.0000       0.078968         2.1488
  69   0.0000       0.105706         2.8764
  70   0.0000       0.113654         3.0927
  71   0.0000       0.127377         3.4661

MULLIKEN ATOMIC CHARGES
-----------------------
   0 S :    0.095459
   1 C :   -0.099337
   2 C :   -0.096368
   3 C :   -0.035587
   4 C :   -0.100380
   5 H :    0.023839
   6 C :    0.023498
   7 H :    0.044439
   8 H :    0.024649
   9 C :   -0.044171
  10 H :    0.027595
  11 H :    0.019845
  12 C :   -0.054144
  13 H :    0.006031
  14 H :    0.033706
  15 H :    0.048591
  16 S :    0.131394
  17 C :   -0.095599
  18 C :   -0.082606
  19 C :   -0.040217
  20 C :   -0.155257
  21 H :    0.037837
  22 C :    0.035130
  23 H :    0.022302
  24 H :    0.035584
  25 C :   -0.066860
  26 H :    0.035023
  27 H :    0.011811
  28 C :   -0.028763
  29 H :    0.033340
  30 H :    0.058551
  31 H :    0.026992
  32 H :    0.044615
  33 H :    0.079058
Sum of atomic charges:    0.0000000

LOEWDIN ATOMIC CHARGES
----------------------
   0 S :    0.434647
   1 C :   -0.211119
   2 C :   -0.065055
   3 C :   -0.085809
   4 C :   -0.206370
   5 H :    0.033667
   6 C :   -0.035109
   7 H :    0.044120
   8 H :    0.025392
   9 C :   -0.042503
  10 H :    0.023654
  11 H :    0.021823
  12 C :   -0.061451
  13 H :    0.013035
  14 H :    0.022299
  15 H :    0.031653
  16 S :    0.428860
  17 C :   -0.209243
  18 C :   -0.075869
  19 C :   -0.053776
  20 C :   -0.202020
  21 H :    0.037165
  22 C :   -0.029635
  23 H :    0.022597
  24 H :    0.037520
  25 C :   -0.044051
  26 H :    0.031581
  27 H :    0.013696
  28 C :   -0.065668
  29 H :    0.029035
  30 H :    0.039193
  31 H :    0.024740
  32 H :    0.028772
  33 H :    0.044228

  Mayer bond orders larger than 0.100000
B(  0-S ,  1-C ) :   1.1374 B(  0-S ,  4-C ) :   1.1749 B(  1-C ,  2-C ) :   1.5720
B(  1-C , 32-H ) :   0.9804 B(  2-C ,  3-C ) :   1.2660 B(  2-C ,  6-C ) :   1.0145
B(  3-C ,  4-C ) :   1.5444 B(  3-C ,  5-H ) :   0.9754 B(  4-C , 20-C ) :   1.0558
B(  6-C ,  7-H ) :   0.9405 B(  6-C ,  8-H ) :   0.9436 B(  6-C ,  9-C ) :   1.0778
B(  9-C , 10-H ) :   0.9548 B(  9-C , 11-H ) :   0.9553 B(  9-C , 12-C ) :   1.0697
B( 12-C , 13-H ) :   0.9783 B( 12-C , 14-H ) :   0.9739 B( 12-C , 15-H ) :   0.9784
B( 16-S , 17-C ) :   1.1611 B( 16-S , 20-C ) :   1.1456 B( 17-C , 18-C ) :   1.5986
B( 17-C , 20-C ) :   0.1009 B( 17-C , 33-H ) :   0.9592 B( 18-C , 19-C ) :   1.2502
B( 18-C , 21-H ) :   0.9782 B( 19-C , 20-C ) :   1.5871 B( 19-C , 22-C ) :   1.0310
B( 22-C , 23-H ) :   0.9410 B( 22-C , 24-H ) :   0.9306 B( 22-C , 25-C ) :   1.0758
B( 25-C , 26-H ) :   0.9527 B( 25-C , 27-H ) :   0.9458 B( 25-C , 28-C ) :   1.0893
B( 28-C , 29-H ) :   0.9681 B( 28-C , 30-H ) :   0.9617 B( 28-C , 31-H ) :   0.9737

Dispersion correction           -0.015047452
FINAL SINGLE POINT ENERGY     -1339.867034787589

DIPOLE MOMENT
-------------
                                X             Y             Z
Electronic contribution:     18.16162      21.65588       1.99545
Nuclear contribution   :    -18.60545     -22.15669      -2.42576
                        -----------------------------------------
Total Dipole Moment    :     -0.44383      -0.50080      -0.43031
                        -----------------------------------------
Magnitude (a.u.)       :      0.79559
Magnitude (Debye)      :      2.02223

Rotational constants in cm-1:     0.019920     0.009405     0.006967
Rotational constants in MHz :   597.189223   281.964814   208.868715

                             ****ORCA TERMINATED NORMALLY****
TOTAL RUN TIME: 0 days 0 hours 0 minutes 31 seconds 684 msec
