                         Program Version 4.2.1 -  RELEASE  -
|  1> ! wB97X-D3 SP def2-SVP
|  2> %pal
|  3> nprocs 16
|  4> end
|  5>
|  6> * xyz 0 1
|  7> S 	 56.2128 	 5.29656 	 78.1379
|  8> C 	 54.52 	 4.86197 	 78.0823
|  9> C 	 54.2176 	 4.09608 	 79.222
| 10> C 	 55.3962 	 3.88333 	 80.0348
| 11> C 	 56.5277 	 4.36679 	 79.5664
| 12> H 	 55.513 	 3.285 	 80.9395
| 13> C 	 52.8423 	 3.56895 	 79.5759
| 14> H 	 52.1575 	 4.39127 	 79.8213
| 15> H 	 53.0946 	 2.95459 	 80.4347
| 16> C 	 52.1059 	 2.64563 	 78.5818
| 17> H 	 51.0193 	 2.62089 	 78.743
| 18> H 	 52.2991 	 2.95025 	 77.5733
| 19> C 	 52.6379 	 1.19103 	 78.7027
| 20> H 	 52.0579 	 0.555266 	 78.0144
| 21> H 	 53.6626 	 0.978966 	 78.2563
| 22> H 	 52.4722 	 0.906093 	 79.7083
| 23> S 	 58.8639 	 5.37461 	 80.6339
| 24> C 	 60.0899 	 4.24458 	 81.1388
| 25> C 	 59.7789 	 2.96138 	 80.86
| 26> C 	 58.4661 	 2.86433 	 80.2797
| 27> C 	 57.8546 	 4.07294 	 80.0916
| 28> H 	 60.4186 	 2.1722 	 81.0799
| 29> C 	 57.967 	 1.48728 	 79.6261
| 30> H 	 58.3747 	 1.35127 	 78.586
| 31> H 	 56.8487 	 1.55654 	 79.5421
| 32> C 	 58.3762 	 0.217835 	 80.2866
| 33> H 	 57.8101 	 0.0929141 	 81.2119
| 34> H 	 59.4273 	 0.223862 	 80.5598
| 35> C 	 58.1138 	 -0.9817 	 79.3404
| 36> H 	 58.4502 	 -1.93586 	 79.7974
| 37> H 	 58.6553 	 -0.821305 	 78.4035
| 38> H 	 57.0684 	 -1.19742 	 79.184
| 39> H 	 53.7255 	 5.08336 	 77.4521
| 40> H 	 61.1424 	 4.51656 	 81.2634
| 41> *
| 42>
| 43>                          ****END OF INPUT****

CARTESIAN COORDINATES (ANGSTROEM)
---------------------------------
  S     56.212800    5.296560   78.137900
  C     54.520000    4.861970   78.082300
  C     54.217600    4.096080   79.222000
  C     55.396200    3.883330   80.034800
  C     56.527700    4.366790   79.566400
  H     55.513000    3.285000   80.939500
  C     52.842300    3.568950   79.575900
  H     52.157500    4.391270   79.821300
  H     53.094600    2.954590   80.434700
  C     52.105900    2.645630   78.581800
  H     51.019300    2.620890   78.743000
  H     52.299100    2.950250   77.573300
  C     52.637900    1.191030   78.702700
  H     52.057900    0.555266   78.014400
  H     53.662600    0.978966   78.256300
  H     52.472200    0.906093   79.708300
  S     58.863900    5.374610   80.633900
  C     60.089900    4.244580   81.138800
  C     59.778900    2.961380   80.860000
  C     58.466100    2.864330   80.279700
  C     57.854600    4.072940   80.091600
  H     60.418600    2.172200   81.079900
  C     57.967000    1.487280   79.626100
  H     58.374700    1.351270   78.586000
  H     56.848700    1.556540   79.542100
  C     58.376200    0.217835   80.286600
  H     57.810100    0.092914   81.211900
  H     59.427300    0.223862   80.559800
  C     58.113800   -0.981700   79.340400
  H     58.450200   -1.935860   79.797400
  H     58.655300   -0.821305   78.403500
  H     57.068400   -1.197420   79.184000
  H     53.725500    5.083360   77.452100
  H     61.142400    4.516560   81.263400

 Total Charge           Charge          ....    0
 Multiplicity           Mult            ....    1
 Number of Electrons    NEL             ....  134
 Basis Dimension        Dim             ....  322

ORBITAL ENERGIES
----------------

  NO   OCC          E(Eh)            E(eV)
   0   2.0000     -88.965255     -2420.8677
   1   2.0000     -88.964720     -2420.8531
   2   2.0000     -10.324549      -280.9453
   3   2.0000     -10.319556      -280.8094
   4   2.0000     -10.314146      -280.6622
   5   2.0000     -10.312201      -280.6093
   6   2.0000     -10.306446      -280.4527
   7   2.0000     -10.303127      -280.3623
   8   2.0000     -10.297576      -280.2113
   9   2.0000     -10.291807      -280.0543
  10   2.0000     -10.289729      -279.9978
  11   2.0000     -10.289089      -279.9804
  12   2.0000     -10.287177      -279.9283
  13   2.0000     -10.284608      -279.8584
  14   2.0000     -10.281233      -279.7666
  15   2.0000     -10.280687      -279.7517
  16   2.0000      -8.080250      -219.8748
  17   2.0000      -8.080079      -219.8701
  18   2.0000      -6.038764      -164.3231
  19   2.0000      -6.038713      -164.3217
  20   2.0000      -6.034668      -164.2117
  21   2.0000      -6.034483      -164.2066
  22   2.0000      -6.030926      -164.1098
  23   2.0000      -6.030763      -164.1054
  24   2.0000      -1.013418       -27.5765
  25   2.0000      -0.989773       -26.9331
  26   2.0000      -0.912033       -24.8177
  27   2.0000      -0.909456       -24.7476
  28   2.0000      -0.875428       -23.8216
  29   2.0000      -0.849664       -23.1205
  30   2.0000      -0.843744       -22.9594
  31   2.0000      -0.821474       -22.3534
  32   2.0000      -0.779334       -21.2068
  33   2.0000      -0.771517       -20.9940
  34   2.0000      -0.710088       -19.3225
  35   2.0000      -0.701987       -19.1020
  36   2.0000      -0.694252       -18.8915
  37   2.0000      -0.659843       -17.9552
  38   2.0000      -0.643229       -17.5031
  39   2.0000      -0.612702       -16.6725
  40   2.0000      -0.597951       -16.2711
  41   2.0000      -0.580112       -15.7856
  42   2.0000      -0.573803       -15.6140
  43   2.0000      -0.555827       -15.1248
  44   2.0000      -0.547188       -14.8897
  45   2.0000      -0.519103       -14.1255
  46   2.0000      -0.516577       -14.0568
  47   2.0000      -0.511732       -13.9249
  48   2.0000      -0.506803       -13.7908
  49   2.0000      -0.500765       -13.6265
  50   2.0000      -0.487579       -13.2677
  51   2.0000      -0.474642       -12.9157
  52   2.0000      -0.471089       -12.8190
  53   2.0000      -0.463583       -12.6147
  54   2.0000      -0.463204       -12.6044
  55   2.0000      -0.453724       -12.3464
  56   2.0000      -0.440101       -11.9758
  57   2.0000      -0.433423       -11.7940
  58   2.0000      -0.430731       -11.7208
  59   2.0000      -0.426330       -11.6010
  60   2.0000      -0.423897       -11.5348
  61   2.0000      -0.413095       -11.2409
  62   2.0000      -0.410706       -11.1759
  63   2.0000      -0.345818        -9.4102
  64   2.0000      -0.333643        -9.0789
  65   2.0000      -0.327687        -8.9168
  66   2.0000      -0.303781        -8.2663
  67   0.0000       0.037148         1.0108
  68   0.0000       0.067235         1.8295
  69   0.0000       0.115922         3.1544
  70   0.0000       0.121167         3.2971
  71   0.0000       0.131317         3.5733

MULLIKEN ATOMIC CHARGES
-----------------------
   0 S :    0.116515
   1 C :   -0.067828
   2 C :   -0.140642
   3 C :    0.034494
   4 C :   -0.148740
   5 H :    0.014918
   6 C :    0.078707
   7 H :    0.048227
   8 H :    0.013099
   9 C :   -0.063560
  10 H :    0.037134
  11 H :    0.019624
  12 C :   -0.081510
  13 H :    0.025737
  14 H :    0.052635
  15 H :    0.030612
  16 S :    0.108904
  17 C :   -0.077356
  18 C :   -0.032094
  19 C :   -0.004833
  20 C :   -0.170407
  21 H :    0.000661
  22 C :    0.026203
  23 H :    0.041239
  24 H :    0.037862
  25 C :   -0.080622
  26 H :    0.027839
  27 H :    0.028258
  28 C :   -0.056798
  29 H :    0.030318
  30 H :    0.037170
  31 H :    0.031911
  32 H :    0.017105
  33 H :    0.065220
Sum of atomic charges:   -0.0000000

LOEWDIN ATOMIC CHARGES
----------------------
   0 S :    0.412616
   1 C :   -0.189692
   2 C :   -0.061571
   3 C :   -0.068010
   4 C :   -0.203714
   5 H :    0.035207
   6 C :   -0.035828
   7 H :    0.036686
   8 H :    0.028861
   9 C :   -0.037324
  10 H :    0.028417
  11 H :    0.017544
  12 C :   -0.070394
  13 H :    0.025681
  14 H :    0.035850
  15 H :    0.016608
  16 S :    0.412481
  17 C :   -0.186434
  18 C :   -0.063101
  19 C :   -0.053557
  20 C :   -0.203190
  21 H :    0.021958
  22 C :   -0.034961
  23 H :    0.036374
  24 H :    0.033592
  25 C :   -0.047302
  26 H :    0.024069
  27 H :    0.020502
  28 C :   -0.063984
  29 H :    0.028986
  30 H :    0.025472
  31 H :    0.023854
  32 H :    0.019129
  33 H :    0.035176

  Mayer bond orders larger than 0.100000
B(  0-S ,  1-C ) :   1.1364 B(  0-S ,  4-C ) :   1.1336 B(  1-C ,  2-C ) :   1.6132
B(  1-C , 32-H ) :   0.9770 B(  2-C ,  3-C ) :   1.2193 B(  2-C ,  6-C ) :   1.0118
B(  3-C ,  4-C ) :   1.6386 B(  3-C ,  5-H ) :   0.9902 B(  4-C , 20-C ) :   0.9923
B(  6-C ,  7-H ) :   0.9358 B(  6-C ,  8-H ) :   0.9474 B(  6-C ,  9-C ) :   1.0678
B(  9-C , 10-H ) :   0.9563 B(  9-C , 11-H ) :   0.9588 B(  9-C , 12-C ) :   1.0792
B( 12-C , 13-H ) :   0.9730 B( 12-C , 14-H ) :   0.9754 B( 12-C , 15-H ) :   0.9770
B( 16-S , 17-C ) :   1.1508 B( 16-S , 20-C ) :   1.1436 B( 17-C , 18-C ) :   1.6432
B( 17-C , 33-H ) :   0.9543 B( 18-C , 19-C ) :   1.2240 B( 18-C , 21-H ) :   0.9977
B( 19-C , 20-C ) :   1.6384 B( 19-C , 22-C ) :   1.0149 B( 22-C , 23-H ) :   0.9463
B( 22-C , 24-H ) :   0.9370 B( 22-C , 25-C ) :   1.0648 B( 25-C , 26-H ) :   0.9513
B( 25-C , 27-H ) :   0.9502 B( 25-C , 28-C ) :   1.0888 B( 28-C , 29-H ) :   0.9726
B( 28-C , 30-H ) :   0.9731 B( 28-C , 31-H ) :   0.9759

Dispersion correction           -0.013963922
FINAL SINGLE POINT ENERGY     -1339.865790110889

DIPOLE MOMENT
-------------
                                X             Y             Z
Electronic contribution:     13.75033      28.62179       1.78192
Nuclear contribution   :    -13.97849     -29.33095      -1.80369
                        -----------------------------------------
Total Dipole Moment    :     -0.22816      -0.70916      -0.02178
                        -----------------------------------------
Magnitude (a.u.)       :      0.74528
Magnitude (Debye)      :      1.89435

Rotational constants in cm-1:     0.016644     0.009553     0.006644
Rotational constants in MHz :   498.984230   286.381119   199.195004

                             ****ORCA TERMINATED NORMALLY****
TOTAL RUN TIME: 0 days 0 hours 0 minutes 30 seconds 158 msec
