                         Program Version 4.2.1 -  RELEASE  -
|  1> ! wB97X-D3 SP def2-SVP
|  2> %pal
|  3> nprocs 16
|  4> end
|  5>
|  6> * xyz 0 1
|  7> S 	 -40.1391 	 35.8358 	 83.8195
|  8> C 	 -39.6118 	 37.4509 	 83.8523
|  9> C 	 -39.8341 	 38.1774 	 82.6639
| 10> C 	 -40.7241 	 37.4443 	 81.8314
| 11> C 	 -40.9315 	 36.1367 	 82.2878
| 12> H 	 -41.0818 	 37.9138 	 80.9059
| 13> C 	 -39.4844 	 39.6032 	 82.3431
| 14> H 	 -39.6686 	 39.7277 	 81.2749
| 15> H 	 -38.4026 	 39.6546 	 82.5862
| 16> C 	 -40.3924 	 40.5783 	 83.1041
| 17> H 	 -41.4635 	 40.345 	 82.9732
| 18> H 	 -40.3686 	 40.5465 	 84.1833
| 19> C 	 -40.1803 	 42.1196 	 82.7562
| 20> H 	 -40.9562 	 42.6961 	 83.2048
| 21> H 	 -39.2953 	 42.5627 	 83.2079
| 22> H 	 -40.1699 	 42.2256 	 81.6695
| 23> S 	 -42.9362 	 34.3623 	 82.7575
| 24> C 	 -43.79 	 33.606 	 81.3312
| 25> C 	 -43.1916 	 33.9018 	 80.158
| 26> C 	 -42.0012 	 34.7339 	 80.2639
| 27> C 	 -41.7895 	 35.1588 	 81.5947
| 28> H 	 -43.716 	 33.5832 	 79.3125
| 29> C 	 -41.1299 	 35.1141 	 79.0604
| 30> H 	 -41.0601 	 36.2316 	 79.1272
| 31> H 	 -41.7399 	 34.9373 	 78.1927
| 32> C 	 -39.7169 	 34.5217 	 78.8491
| 33> H 	 -39.9137 	 33.4403 	 78.6065
| 34> H 	 -39.2682 	 34.5938 	 79.7342
| 35> C 	 -38.9089 	 35.3005 	 77.8487
| 36> H 	 -39.3164 	 35.5122 	 76.8485
| 37> H 	 -37.869 	 34.9423 	 77.6944
| 38> H 	 -38.8825 	 36.3399 	 78.2387
| 39> H 	 -39.1331 	 37.906 	 84.6858
| 40> H 	 -44.6838 	 33.0317 	 81.3875
| 41> *
| 42>
| 43>                          ****END OF INPUT****

CARTESIAN COORDINATES (ANGSTROEM)
---------------------------------
  S    -40.139100   35.835800   83.819500
  C    -39.611800   37.450900   83.852300
  C    -39.834100   38.177400   82.663900
  C    -40.724100   37.444300   81.831400
  C    -40.931500   36.136700   82.287800
  H    -41.081800   37.913800   80.905900
  C    -39.484400   39.603200   82.343100
  H    -39.668600   39.727700   81.274900
  H    -38.402600   39.654600   82.586200
  C    -40.392400   40.578300   83.104100
  H    -41.463500   40.345000   82.973200
  H    -40.368600   40.546500   84.183300
  C    -40.180300   42.119600   82.756200
  H    -40.956200   42.696100   83.204800
  H    -39.295300   42.562700   83.207900
  H    -40.169900   42.225600   81.669500
  S    -42.936200   34.362300   82.757500
  C    -43.790000   33.606000   81.331200
  C    -43.191600   33.901800   80.158000
  C    -42.001200   34.733900   80.263900
  C    -41.789500   35.158800   81.594700
  H    -43.716000   33.583200   79.312500
  C    -41.129900   35.114100   79.060400
  H    -41.060100   36.231600   79.127200
  H    -41.739900   34.937300   78.192700
  C    -39.716900   34.521700   78.849100
  H    -39.913700   33.440300   78.606500
  H    -39.268200   34.593800   79.734200
  C    -38.908900   35.300500   77.848700
  H    -39.316400   35.512200   76.848500
  H    -37.869000   34.942300   77.694400
  H    -38.882500   36.339900   78.238700
  H    -39.133100   37.906000   84.685800
  H    -44.683800   33.031700   81.387500

 Total Charge           Charge          ....    0
 Multiplicity           Mult            ....    1
 Number of Electrons    NEL             ....  134
 Basis Dimension        Dim             ....  322

ORBITAL ENERGIES
----------------

  NO   OCC          E(Eh)            E(eV)
   0   2.0000     -88.974469     -2421.1184
   1   2.0000     -88.960252     -2420.7315
   2   2.0000     -10.335097      -281.2323
   3   2.0000     -10.331766      -281.1416
   4   2.0000     -10.315805      -280.7073
   5   2.0000     -10.313112      -280.6341
   6   2.0000     -10.309630      -280.5393
   7   2.0000     -10.299053      -280.2515
   8   2.0000     -10.298903      -280.2474
   9   2.0000     -10.295829      -280.1637
  10   2.0000     -10.293310      -280.0952
  11   2.0000     -10.291949      -280.0582
  12   2.0000     -10.290868      -280.0287
  13   2.0000     -10.281979      -279.7869
  14   2.0000     -10.280301      -279.7412
  15   2.0000     -10.278895      -279.7030
  16   2.0000      -8.089488      -220.1262
  17   2.0000      -8.073287      -219.6853
  18   2.0000      -6.047847      -164.5703
  19   2.0000      -6.044017      -164.4661
  20   2.0000      -6.040349      -164.3663
  21   2.0000      -6.031966      -164.1381
  22   2.0000      -6.028210      -164.0359
  23   2.0000      -6.023784      -163.9155
  24   2.0000      -1.003644       -27.3105
  25   2.0000      -0.973323       -26.4855
  26   2.0000      -0.911681       -24.8081
  27   2.0000      -0.907208       -24.6864
  28   2.0000      -0.866040       -23.5662
  29   2.0000      -0.853873       -23.2351
  30   2.0000      -0.843577       -22.9549
  31   2.0000      -0.813708       -22.1421
  32   2.0000      -0.780579       -21.2406
  33   2.0000      -0.767323       -20.8799
  34   2.0000      -0.710378       -19.3304
  35   2.0000      -0.707249       -19.2452
  36   2.0000      -0.693551       -18.8725
  37   2.0000      -0.661939       -18.0123
  38   2.0000      -0.638503       -17.3746
  39   2.0000      -0.620808       -16.8930
  40   2.0000      -0.587598       -15.9894
  41   2.0000      -0.572479       -15.5780
  42   2.0000      -0.569313       -15.4918
  43   2.0000      -0.552120       -15.0240
  44   2.0000      -0.526164       -14.3177
  45   2.0000      -0.519348       -14.1322
  46   2.0000      -0.517366       -14.0782
  47   2.0000      -0.511575       -13.9207
  48   2.0000      -0.508826       -13.8459
  49   2.0000      -0.496270       -13.5042
  50   2.0000      -0.492008       -13.3882
  51   2.0000      -0.478884       -13.0311
  52   2.0000      -0.471630       -12.8337
  53   2.0000      -0.462445       -12.5838
  54   2.0000      -0.454690       -12.3727
  55   2.0000      -0.448725       -12.2104
  56   2.0000      -0.447070       -12.1654
  57   2.0000      -0.440732       -11.9929
  58   2.0000      -0.430113       -11.7040
  59   2.0000      -0.424241       -11.5442
  60   2.0000      -0.421467       -11.4687
  61   2.0000      -0.417615       -11.3639
  62   2.0000      -0.416531       -11.3344
  63   2.0000      -0.348367        -9.4795
  64   2.0000      -0.333224        -9.0675
  65   2.0000      -0.325322        -8.8525
  66   2.0000      -0.284937        -7.7535
  67   0.0000       0.023503         0.6396
  68   0.0000       0.070331         1.9138
  69   0.0000       0.096689         2.6310
  70   0.0000       0.113659         3.0928
  71   0.0000       0.135982         3.7003

MULLIKEN ATOMIC CHARGES
-----------------------
   0 S :    0.149330
   1 C :   -0.120909
   2 C :   -0.119431
   3 C :    0.008495
   4 C :   -0.137034
   5 H :    0.023798
   6 C :    0.101389
   7 H :    0.021185
   8 H :    0.045375
   9 C :   -0.096085
  10 H :    0.029945
  11 H :    0.020769
  12 C :   -0.038068
  13 H :    0.026279
  14 H :    0.030957
  15 H :    0.032264
  16 S :    0.058907
  17 C :   -0.077537
  18 C :   -0.012652
  19 C :   -0.036616
  20 C :   -0.143113
  21 H :    0.001099
  22 C :    0.027689
  23 H :    0.016345
  24 H :    0.008645
  25 C :    0.034530
  26 H :    0.037255
  27 H :    0.004546
  28 C :   -0.072856
  29 H :    0.026697
  30 H :    0.047396
  31 H :    0.022497
  32 H :    0.034061
  33 H :    0.044851
Sum of atomic charges:    0.0000000

LOEWDIN ATOMIC CHARGES
----------------------
   0 S :    0.439896
   1 C :   -0.214184
   2 C :   -0.061864
   3 C :   -0.060179
   4 C :   -0.208775
   5 H :    0.033248
   6 C :   -0.031665
   7 H :    0.031842
   8 H :    0.040065
   9 C :   -0.042249
  10 H :    0.029443
  11 H :    0.021492
  12 C :   -0.065001
  13 H :    0.023119
  14 H :    0.023964
  15 H :    0.022727
  16 S :    0.332664
  17 C :   -0.152010
  18 C :   -0.065095
  19 C :   -0.053787
  20 C :   -0.163282
  21 H :    0.025979
  22 C :   -0.033378
  23 H :    0.030692
  24 H :    0.023912
  25 C :   -0.027931
  26 H :    0.031802
  27 H :    0.010478
  28 C :   -0.071793
  29 H :    0.024461
  30 H :    0.032212
  31 H :    0.029763
  32 H :    0.019087
  33 H :    0.024346

  Mayer bond orders larger than 0.100000
B(  0-S ,  1-C ) :   1.1636 B(  0-S ,  4-C ) :   1.1608 B(  1-C ,  2-C ) :   1.5645
B(  1-C , 32-H ) :   0.9696 B(  2-C ,  3-C ) :   1.2899 B(  2-C ,  6-C ) :   1.0305
B(  3-C ,  4-C ) :   1.5353 B(  3-C ,  5-H ) :   0.9833 B(  4-C , 20-C ) :   1.0443
B(  6-C ,  7-H ) :   0.9356 B(  6-C ,  8-H ) :   0.9337 B(  6-C ,  9-C ) :   1.0590
B(  9-C , 10-H ) :   0.9569 B(  9-C , 11-H ) :   0.9583 B(  9-C , 12-C ) :   1.0754
B( 12-C , 13-H ) :   0.9748 B( 12-C , 14-H ) :   0.9780 B( 12-C , 15-H ) :   0.9784
B( 16-S , 17-C ) :   1.1078 B( 16-S , 20-C ) :   1.1131 B( 17-C , 18-C ) :   1.6926
B( 17-C , 33-H ) :   0.9666 B( 18-C , 19-C ) :   1.1772 B( 18-C , 21-H ) :   0.9943
B( 19-C , 20-C ) :   1.6280 B( 19-C , 22-C ) :   1.0338 B( 22-C , 23-H ) :   0.9342
B( 22-C , 24-H ) :   0.9304 B( 22-C , 25-C ) :   1.0606 B( 25-C , 26-H ) :   0.9511
B( 25-C , 27-H ) :   0.9500 B( 25-C , 28-C ) :   1.0776 B( 28-C , 29-H ) :   0.9774
B( 28-C , 30-H ) :   0.9733 B( 28-C , 31-H ) :   0.9687

Dispersion correction           -0.013700012
FINAL SINGLE POINT ENERGY     -1339.858364767358

DIPOLE MOMENT
-------------
                                X             Y             Z
Electronic contribution:     -9.99073     -20.03527      16.37229
Nuclear contribution   :     10.06476      20.52368     -16.80475
                        -----------------------------------------
Total Dipole Moment    :      0.07403       0.48841      -0.43246
                        -----------------------------------------
Magnitude (a.u.)       :      0.65654
Magnitude (Debye)      :      1.66880

Rotational constants in cm-1:     0.017171     0.008178     0.006660
Rotational constants in MHz :   514.766904   245.184503   199.663626

                             ****ORCA TERMINATED NORMALLY****
TOTAL RUN TIME: 0 days 0 hours 0 minutes 29 seconds 956 msec
