                         Program Version 4.2.1 -  RELEASE  -
|  1> ! wB97X-D3 SP def2-SVP
|  2> %pal
|  3> nprocs 16
|  4> end
|  5>
|  6> * xyz 0 1
|  7> S 	 -46.4003 	 32.1133 	 91.926
|  8> C 	 -47.7205 	 30.915 	 92.1997
|  9> C 	 -48.7559 	 31.4464 	 92.9603
| 10> C 	 -48.4052 	 32.7547 	 93.3892
| 11> C 	 -47.1986 	 33.2423 	 92.995
| 12> H 	 -49.1217 	 33.3998 	 93.8681
| 13> C 	 -50.0222 	 30.8146 	 93.236
| 14> H 	 -50.2212 	 30.9788 	 94.3552
| 15> H 	 -49.9789 	 29.7339 	 92.9684
| 16> C 	 -51.2659 	 31.3443 	 92.4065
| 17> H 	 -51.3626 	 32.4445 	 92.3895
| 18> H 	 -51.0001 	 31.1574 	 91.3907
| 19> C 	 -52.6032 	 30.623 	 92.5491
| 20> H 	 -52.9871 	 30.4966 	 93.5796
| 21> H 	 -53.4011 	 31.0645 	 91.8449
| 22> H 	 -52.467 	 29.5982 	 92.1441
| 23> S 	 -46.81 	 35.4383 	 91.4549
| 24> C 	 -46.6031 	 37.0159 	 92.157
| 25> C 	 -46.6809 	 36.9316 	 93.5611
| 26> C 	 -46.7464 	 35.5458 	 94.0253
| 27> C 	 -46.797 	 34.6621 	 93.0151
| 28> H 	 -46.5222 	 37.8344 	 94.0967
| 29> C 	 -46.7966 	 35.1668 	 95.5197
| 30> H 	 -45.8589 	 35.4855 	 95.8868
| 31> H 	 -46.6071 	 34.0618 	 95.5239
| 32> C 	 -48.0073 	 35.5892 	 96.354
| 33> H 	 -48.8935 	 35.0995 	 95.9463
| 34> H 	 -48.1242 	 36.6658 	 96.2055
| 35> C 	 -47.856 	 35.3304 	 97.8678
| 36> H 	 -48.6185 	 35.8716 	 98.389
| 37> H 	 -46.8857 	 35.599 	 98.2108
| 38> H 	 -47.8729 	 34.2867 	 98.0376
| 39> H 	 -47.8303 	 29.9896 	 91.6243
| 40> H 	 -46.574 	 37.9821 	 91.6583
| 41> *
| 42>
| 43>                          ****END OF INPUT****

CARTESIAN COORDINATES (ANGSTROEM)
---------------------------------
  S    -46.400300   32.113300   91.926000
  C    -47.720500   30.915000   92.199700
  C    -48.755900   31.446400   92.960300
  C    -48.405200   32.754700   93.389200
  C    -47.198600   33.242300   92.995000
  H    -49.121700   33.399800   93.868100
  C    -50.022200   30.814600   93.236000
  H    -50.221200   30.978800   94.355200
  H    -49.978900   29.733900   92.968400
  C    -51.265900   31.344300   92.406500
  H    -51.362600   32.444500   92.389500
  H    -51.000100   31.157400   91.390700
  C    -52.603200   30.623000   92.549100
  H    -52.987100   30.496600   93.579600
  H    -53.401100   31.064500   91.844900
  H    -52.467000   29.598200   92.144100
  S    -46.810000   35.438300   91.454900
  C    -46.603100   37.015900   92.157000
  C    -46.680900   36.931600   93.561100
  C    -46.746400   35.545800   94.025300
  C    -46.797000   34.662100   93.015100
  H    -46.522200   37.834400   94.096700
  C    -46.796600   35.166800   95.519700
  H    -45.858900   35.485500   95.886800
  H    -46.607100   34.061800   95.523900
  C    -48.007300   35.589200   96.354000
  H    -48.893500   35.099500   95.946300
  H    -48.124200   36.665800   96.205500
  C    -47.856000   35.330400   97.867800
  H    -48.618500   35.871600   98.389000
  H    -46.885700   35.599000   98.210800
  H    -47.872900   34.286700   98.037600
  H    -47.830300   29.989600   91.624300
  H    -46.574000   37.982100   91.658300

 Total Charge           Charge          ....    0
 Multiplicity           Mult            ....    1
 Number of Electrons    NEL             ....  134
 Basis Dimension        Dim             ....  322

ORBITAL ENERGIES
----------------

  NO   OCC          E(Eh)            E(eV)
   0   2.0000     -88.966714     -2420.9074
   1   2.0000     -88.963072     -2420.8083
   2   2.0000     -10.328429      -281.0509
   3   2.0000     -10.321389      -280.8593
   4   2.0000     -10.319604      -280.8107
   5   2.0000     -10.319153      -280.7984
   6   2.0000     -10.303397      -280.3697
   7   2.0000     -10.302591      -280.3478
   8   2.0000     -10.300074      -280.2793
   9   2.0000     -10.295387      -280.1517
  10   2.0000     -10.291468      -280.0451
  11   2.0000     -10.290759      -280.0258
  12   2.0000     -10.290339      -280.0144
  13   2.0000     -10.288526      -279.9650
  14   2.0000     -10.288318      -279.9594
  15   2.0000     -10.271941      -279.5137
  16   2.0000      -8.080695      -219.8869
  17   2.0000      -8.078233      -219.8199
  18   2.0000      -6.039300      -164.3377
  19   2.0000      -6.036839      -164.2707
  20   2.0000      -6.035360      -164.2305
  21   2.0000      -6.032664      -164.1571
  22   2.0000      -6.031344      -164.1212
  23   2.0000      -6.028847      -164.0533
  24   2.0000      -1.008401       -27.4400
  25   2.0000      -0.983235       -26.7552
  26   2.0000      -0.913430       -24.8557
  27   2.0000      -0.906293       -24.6615
  28   2.0000      -0.868275       -23.6270
  29   2.0000      -0.853948       -23.2371
  30   2.0000      -0.845045       -22.9948
  31   2.0000      -0.816045       -22.2057
  32   2.0000      -0.782654       -21.2971
  33   2.0000      -0.772663       -21.0252
  34   2.0000      -0.707018       -19.2389
  35   2.0000      -0.701782       -19.0965
  36   2.0000      -0.696260       -18.9462
  37   2.0000      -0.662153       -18.0181
  38   2.0000      -0.639820       -17.4104
  39   2.0000      -0.623436       -16.9645
  40   2.0000      -0.588567       -16.0157
  41   2.0000      -0.567817       -15.4511
  42   2.0000      -0.562723       -15.3125
  43   2.0000      -0.556817       -15.1518
  44   2.0000      -0.535339       -14.5673
  45   2.0000      -0.526025       -14.3139
  46   2.0000      -0.515593       -14.0300
  47   2.0000      -0.510797       -13.8995
  48   2.0000      -0.509510       -13.8645
  49   2.0000      -0.504140       -13.7183
  50   2.0000      -0.489470       -13.3192
  51   2.0000      -0.475398       -12.9362
  52   2.0000      -0.467902       -12.7323
  53   2.0000      -0.462112       -12.5747
  54   2.0000      -0.456939       -12.4339
  55   2.0000      -0.452202       -12.3051
  56   2.0000      -0.448004       -12.1908
  57   2.0000      -0.441001       -12.0003
  58   2.0000      -0.430724       -11.7206
  59   2.0000      -0.430000       -11.7009
  60   2.0000      -0.417754       -11.3677
  61   2.0000      -0.415391       -11.3034
  62   2.0000      -0.414071       -11.2675
  63   2.0000      -0.343522        -9.3477
  64   2.0000      -0.330616        -8.9965
  65   2.0000      -0.326421        -8.8824
  66   2.0000      -0.300102        -8.1662
  67   0.0000       0.034734         0.9451
  68   0.0000       0.065343         1.7781
  69   0.0000       0.110506         3.0070
  70   0.0000       0.117993         3.2108
  71   0.0000       0.126561         3.4439

MULLIKEN ATOMIC CHARGES
-----------------------
   0 S :    0.091687
   1 C :   -0.124476
   2 C :   -0.074504
   3 C :    0.045995
   4 C :   -0.150179
   5 H :    0.005951
   6 C :    0.033344
   7 H :    0.049505
   8 H :    0.026740
   9 C :   -0.075814
  10 H :    0.033163
  11 H :    0.014388
  12 C :   -0.074138
  13 H :    0.042543
  14 H :    0.052742
  15 H :    0.028288
  16 S :    0.106662
  17 C :   -0.100868
  18 C :   -0.037282
  19 C :   -0.062381
  20 C :   -0.125877
  21 H :    0.012712
  22 C :    0.064817
  23 H :    0.010287
  24 H :    0.024561
  25 C :   -0.066881
  26 H :    0.029392
  27 H :    0.025858
  28 C :    0.006749
  29 H :    0.037508
  30 H :    0.012985
  31 H :    0.020508
  32 H :    0.053496
  33 H :    0.062516
Sum of atomic charges:   -0.0000000

LOEWDIN ATOMIC CHARGES
----------------------
   0 S :    0.383204
   1 C :   -0.181235
   2 C :   -0.068322
   3 C :   -0.054493
   4 C :   -0.194385
   5 H :    0.028056
   6 C :   -0.037576
   7 H :    0.042015
   8 H :    0.036342
   9 C :   -0.047717
  10 H :    0.023955
  11 H :    0.022555
  12 C :   -0.075845
  13 H :    0.024703
  14 H :    0.041097
  15 H :    0.026223
  16 S :    0.410399
  17 C :   -0.189433
  18 C :   -0.069620
  19 C :   -0.057013
  20 C :   -0.202756
  21 H :    0.024845
  22 C :   -0.035202
  23 H :    0.024104
  24 H :    0.034105
  25 C :   -0.035762
  26 H :    0.023805
  27 H :    0.023075
  28 C :   -0.052235
  29 H :    0.026883
  30 H :    0.021079
  31 H :    0.021968
  32 H :    0.029600
  33 H :    0.033582

  Mayer bond orders larger than 0.100000
B(  0-S ,  1-C ) :   1.1275 B(  0-S ,  4-C ) :   1.1384 B(  1-C ,  2-C ) :   1.6125
B(  1-C , 32-H ) :   0.9611 B(  2-C ,  3-C ) :   1.2389 B(  2-C ,  6-C ) :   1.0562
B(  3-C ,  4-C ) :   1.5919 B(  3-C ,  5-H ) :   0.9911 B(  4-C , 20-C ) :   0.9929
B(  6-C ,  7-H ) :   0.9322 B(  6-C ,  8-H ) :   0.9362 B(  6-C ,  9-C ) :   1.0457
B(  9-C , 10-H ) :   0.9595 B(  9-C , 11-H ) :   0.9504 B(  9-C , 12-C ) :   1.0819
B( 12-C , 13-H ) :   0.9768 B( 12-C , 14-H ) :   0.9712 B( 12-C , 15-H ) :   0.9727
B( 16-S , 17-C ) :   1.1551 B( 16-S , 20-C ) :   1.1301 B( 17-C , 18-C ) :   1.6296
B( 17-C , 33-H ) :   0.9664 B( 18-C , 19-C ) :   1.2027 B( 18-C , 21-H ) :   0.9953
B( 19-C , 20-C ) :   1.6681 B( 19-C , 22-C ) :   1.0308 B( 22-C , 23-H ) :   0.9295
B( 22-C , 24-H ) :   0.9318 B( 22-C , 25-C ) :   1.0561 B( 25-C , 26-H ) :   0.9538
B( 25-C , 27-H ) :   0.9573 B( 25-C , 28-C ) :   1.0820 B( 28-C , 29-H ) :   0.9750
B( 28-C , 30-H ) :   0.9733 B( 28-C , 31-H ) :   0.9750

Dispersion correction           -0.013857617
FINAL SINGLE POINT ENERGY     -1339.874431379837

DIPOLE MOMENT
-------------
                                X             Y             Z
Electronic contribution:     20.39757       4.32445     -18.15013
Nuclear contribution   :    -20.99279      -4.21556      18.45120
                        -----------------------------------------
Total Dipole Moment    :     -0.59522       0.10888       0.30108
                        -----------------------------------------
Magnitude (a.u.)       :      0.67586
Magnitude (Debye)      :      1.71790

Rotational constants in cm-1:     0.015906     0.008636     0.006893
Rotational constants in MHz :   476.846278   258.893516   206.660321

                             ****ORCA TERMINATED NORMALLY****
TOTAL RUN TIME: 0 days 0 hours 0 minutes 29 seconds 146 msec
