                         Program Version 4.2.1 -  RELEASE  -
|  1> ! wB97X-D3 SP def2-SVP
|  2> %pal
|  3> nprocs 16
|  4> end
|  5>
|  6> * xyz 0 1
|  7> S 	 40.4218 	 26.7248 	 97.1604
|  8> C 	 40.079 	 26.7498 	 95.3981
|  9> C 	 40.6153 	 25.5735 	 94.8305
| 10> C 	 41.0518 	 24.5951 	 95.8192
| 11> C 	 41.073 	 25.083 	 97.1164
| 12> H 	 41.4747 	 23.6578 	 95.6071
| 13> C 	 40.7015 	 25.1676 	 93.3283
| 14> H 	 41.4624 	 24.3578 	 93.1456
| 15> H 	 40.9391 	 26.0363 	 92.7802
| 16> C 	 39.3251 	 24.601 	 92.7013
| 17> H 	 38.4546 	 25.2733 	 92.9314
| 18> H 	 39.4834 	 24.5774 	 91.6056
| 19> C 	 38.9054 	 23.2573 	 93.1681
| 20> H 	 38.7001 	 23.2758 	 94.1934
| 21> H 	 38.0729 	 22.9717 	 92.5228
| 22> H 	 39.7498 	 22.5896 	 93.0274
| 23> S 	 42.8083 	 24.8505 	 99.1828
| 24> C 	 42.7376 	 23.4394 	 100.211
| 25> C 	 41.6445 	 22.642 	 99.8391
| 26> C 	 40.8953 	 23.0746 	 98.725
| 27> C 	 41.3931 	 24.2963 	 98.2822
| 28> H 	 41.586 	 21.6681 	 100.377
| 29> C 	 39.8009 	 22.1759 	 98.0049
| 30> H 	 40.0871 	 21.1388 	 98.0971
| 31> H 	 39.8575 	 22.2501 	 96.9098
| 32> C 	 38.357 	 22.4628 	 98.4564
| 33> H 	 37.7441 	 22.1585 	 97.6367
| 34> H 	 38.2121 	 23.576 	 98.6659
| 35> C 	 37.9799 	 21.6604 	 99.7074
| 36> H 	 38.1375 	 20.5808 	 99.5882
| 37> H 	 36.9169 	 21.7956 	 100.03
| 38> H 	 38.4502 	 22.1223 	 100.58
| 39> H 	 39.7778 	 27.5534 	 94.756
| 40> H 	 43.3796 	 23.203 	 100.974
| 41> *
| 42>
| 43>                          ****END OF INPUT****

CARTESIAN COORDINATES (ANGSTROEM)
---------------------------------
  S     40.421800   26.724800   97.160400
  C     40.079000   26.749800   95.398100
  C     40.615300   25.573500   94.830500
  C     41.051800   24.595100   95.819200
  C     41.073000   25.083000   97.116400
  H     41.474700   23.657800   95.607100
  C     40.701500   25.167600   93.328300
  H     41.462400   24.357800   93.145600
  H     40.939100   26.036300   92.780200
  C     39.325100   24.601000   92.701300
  H     38.454600   25.273300   92.931400
  H     39.483400   24.577400   91.605600
  C     38.905400   23.257300   93.168100
  H     38.700100   23.275800   94.193400
  H     38.072900   22.971700   92.522800
  H     39.749800   22.589600   93.027400
  S     42.808300   24.850500   99.182800
  C     42.737600   23.439400  100.211000
  C     41.644500   22.642000   99.839100
  C     40.895300   23.074600   98.725000
  C     41.393100   24.296300   98.282200
  H     41.586000   21.668100  100.377000
  C     39.800900   22.175900   98.004900
  H     40.087100   21.138800   98.097100
  H     39.857500   22.250100   96.909800
  C     38.357000   22.462800   98.456400
  H     37.744100   22.158500   97.636700
  H     38.212100   23.576000   98.665900
  C     37.979900   21.660400   99.707400
  H     38.137500   20.580800   99.588200
  H     36.916900   21.795600  100.030000
  H     38.450200   22.122300  100.580000
  H     39.777800   27.553400   94.756000
  H     43.379600   23.203000  100.974000

 Total Charge           Charge          ....    0
 Multiplicity           Mult            ....    1
 Number of Electrons    NEL             ....  134
 Basis Dimension        Dim             ....  322

ORBITAL ENERGIES
----------------

  NO   OCC          E(Eh)            E(eV)
   0   2.0000     -88.968932     -2420.9677
   1   2.0000     -88.968256     -2420.9493
   2   2.0000     -10.329489      -281.0797
   3   2.0000     -10.328194      -281.0444
   4   2.0000     -10.320913      -280.8463
   5   2.0000     -10.314065      -280.6600
   6   2.0000     -10.310662      -280.5674
   7   2.0000     -10.310062      -280.5511
   8   2.0000     -10.300219      -280.2832
   9   2.0000     -10.298815      -280.2450
  10   2.0000     -10.297360      -280.2054
  11   2.0000     -10.292002      -280.0596
  12   2.0000     -10.290767      -280.0260
  13   2.0000     -10.288373      -279.9608
  14   2.0000     -10.278366      -279.6886
  15   2.0000     -10.269405      -279.4447
  16   2.0000      -8.082667      -219.9406
  17   2.0000      -8.082241      -219.9290
  18   2.0000      -6.041064      -164.3857
  19   2.0000      -6.041022      -164.3846
  20   2.0000      -6.037117      -164.2783
  21   2.0000      -6.036875      -164.2717
  22   2.0000      -6.033670      -164.1845
  23   2.0000      -6.032850      -164.1622
  24   2.0000      -1.002541       -27.2805
  25   2.0000      -0.975432       -26.5429
  26   2.0000      -0.905027       -24.6270
  27   2.0000      -0.903595       -24.5881
  28   2.0000      -0.869366       -23.6566
  29   2.0000      -0.849029       -23.1033
  30   2.0000      -0.843409       -22.9503
  31   2.0000      -0.810559       -22.0564
  32   2.0000      -0.784107       -21.3366
  33   2.0000      -0.773774       -21.0555
  34   2.0000      -0.708272       -19.2731
  35   2.0000      -0.692742       -18.8505
  36   2.0000      -0.688301       -18.7296
  37   2.0000      -0.660829       -17.9821
  38   2.0000      -0.639776       -17.4092
  39   2.0000      -0.613965       -16.7068
  40   2.0000      -0.597241       -16.2517
  41   2.0000      -0.570948       -15.5363
  42   2.0000      -0.551053       -14.9949
  43   2.0000      -0.549083       -14.9413
  44   2.0000      -0.546994       -14.8845
  45   2.0000      -0.535927       -14.5833
  46   2.0000      -0.517577       -14.0840
  47   2.0000      -0.512876       -13.9561
  48   2.0000      -0.508055       -13.8249
  49   2.0000      -0.491317       -13.3694
  50   2.0000      -0.488528       -13.2935
  51   2.0000      -0.477755       -13.0004
  52   2.0000      -0.473002       -12.8710
  53   2.0000      -0.464377       -12.6363
  54   2.0000      -0.461601       -12.5608
  55   2.0000      -0.440070       -11.9749
  56   2.0000      -0.435018       -11.8374
  57   2.0000      -0.434411       -11.8209
  58   2.0000      -0.433019       -11.7830
  59   2.0000      -0.421783       -11.4773
  60   2.0000      -0.418911       -11.3991
  61   2.0000      -0.415593       -11.3089
  62   2.0000      -0.412623       -11.2280
  63   2.0000      -0.339451        -9.2369
  64   2.0000      -0.335010        -9.1161
  65   2.0000      -0.326976        -8.8975
  66   2.0000      -0.296686        -8.0732
  67   0.0000       0.030073         0.8183
  68   0.0000       0.057760         1.5717
  69   0.0000       0.107211         2.9174
  70   0.0000       0.116504         3.1702
  71   0.0000       0.124900         3.3987

MULLIKEN ATOMIC CHARGES
-----------------------
   0 S :    0.108689
   1 C :   -0.106372
   2 C :   -0.102340
   3 C :    0.036906
   4 C :   -0.129619
   5 H :    0.000495
   6 C :    0.054042
   7 H :    0.038471
   8 H :    0.021022
   9 C :   -0.121358
  10 H :    0.034004
  11 H :    0.034487
  12 C :   -0.009425
  13 H :    0.030566
  14 H :    0.041096
  15 H :    0.012108
  16 S :    0.115628
  17 C :   -0.066935
  18 C :   -0.071085
  19 C :    0.010819
  20 C :   -0.194403
  21 H :    0.033912
  22 C :    0.063682
  23 H :    0.017395
  24 H :    0.020459
  25 C :   -0.059751
  26 H :    0.025996
  27 H :    0.055494
  28 C :   -0.069540
  29 H :    0.037359
  30 H :    0.031071
  31 H :    0.034091
  32 H :    0.047322
  33 H :    0.025711
Sum of atomic charges:   -0.0000000

LOEWDIN ATOMIC CHARGES
----------------------
   0 S :    0.387581
   1 C :   -0.194760
   2 C :   -0.055056
   3 C :   -0.058864
   4 C :   -0.194715
   5 H :    0.021741
   6 C :   -0.029234
   7 H :    0.035341
   8 H :    0.022844
   9 C :   -0.042201
  10 H :    0.026239
  11 H :    0.023283
  12 C :   -0.061697
  13 H :    0.018104
  14 H :    0.032926
  15 H :    0.019908
  16 S :    0.411244
  17 C :   -0.178470
  18 C :   -0.075958
  19 C :   -0.050668
  20 C :   -0.194811
  21 H :    0.037402
  22 C :   -0.025289
  23 H :    0.027847
  24 H :    0.030814
  25 C :   -0.040193
  26 H :    0.019823
  27 H :    0.039637
  28 C :   -0.076420
  29 H :    0.024589
  30 H :    0.029287
  31 H :    0.027825
  32 H :    0.029573
  33 H :    0.012329

  Mayer bond orders larger than 0.100000
B(  0-S ,  1-C ) :   1.1204 B(  0-S ,  4-C ) :   1.1385 B(  1-C ,  2-C ) :   1.6215
B(  1-C ,  4-C ) :   0.1009 B(  1-C , 32-H ) :   0.9676 B(  2-C ,  3-C ) :   1.2205
B(  2-C ,  6-C ) :   1.0216 B(  3-C ,  4-C ) :   1.5880 B(  3-C ,  5-H ) :   0.9968
B(  4-C , 20-C ) :   1.0228 B(  6-C ,  7-H ) :   0.9506 B(  6-C ,  8-H ) :   0.9384
B(  6-C ,  9-C ) :   1.0612 B(  9-C , 10-H ) :   0.9565 B(  9-C , 11-H ) :   0.9586
B(  9-C , 12-C ) :   1.0861 B( 12-C , 13-H ) :   0.9736 B( 12-C , 14-H ) :   0.9693
B( 12-C , 15-H ) :   0.9718 B( 16-S , 17-C ) :   1.1565 B( 16-S , 20-C ) :   1.1608
B( 17-C , 18-C ) :   1.6044 B( 17-C , 20-C ) :   0.1141 B( 17-C , 33-H ) :   0.9798
B( 18-C , 19-C ) :   1.2502 B( 18-C , 21-H ) :   0.9789 B( 19-C , 20-C ) :   1.5864
B( 19-C , 22-C ) :   1.0175 B( 22-C , 23-H ) :   0.9407 B( 22-C , 24-H ) :   0.9423
B( 22-C , 25-C ) :   1.0577 B( 25-C , 26-H ) :   0.9556 B( 25-C , 27-H ) :   0.9585
B( 25-C , 28-C ) :   1.0829 B( 28-C , 29-H ) :   0.9754 B( 28-C , 30-H ) :   0.9721
B( 28-C , 31-H ) :   0.9739

Dispersion correction           -0.014927990
FINAL SINGLE POINT ENERGY     -1339.865534218830

DIPOLE MOMENT
-------------
                                X             Y             Z
Electronic contribution:     17.14289      17.72958      13.68899
Nuclear contribution   :    -17.27398     -18.32261     -14.11234
                        -----------------------------------------
Total Dipole Moment    :     -0.13108      -0.59303      -0.42335
                        -----------------------------------------
Magnitude (a.u.)       :      0.74033
Magnitude (Debye)      :      1.88177

Rotational constants in cm-1:     0.017538     0.009324     0.007214
Rotational constants in MHz :   525.768915   279.516951   216.255370

                             ****ORCA TERMINATED NORMALLY****
TOTAL RUN TIME: 0 days 0 hours 0 minutes 29 seconds 144 msec
