                         Program Version 4.2.1 -  RELEASE  -
|  1> ! wB97X-D3 SP def2-SVP
|  2> %pal
|  3> nprocs 16
|  4> end
|  5>
|  6> * xyz 0 1
|  7> S 	 -29.1649 	 63.2068 	 107.116
|  8> C 	 -28.3343 	 64.3574 	 105.992
|  9> C 	 -29.2797 	 65.0078 	 105.187
| 10> C 	 -30.6388 	 64.6043 	 105.512
| 11> C 	 -30.7964 	 63.5182 	 106.346
| 12> H 	 -31.4777 	 65.0258 	 104.963
| 13> C 	 -29.007 	 66.1604 	 104.207
| 14> H 	 -28.3797 	 66.8624 	 104.784
| 15> H 	 -29.8146 	 66.7431 	 103.884
| 16> C 	 -28.1543 	 65.8073 	 103.021
| 17> H 	 -27.2127 	 65.3492 	 103.389
| 18> H 	 -28.621 	 65.1321 	 102.322
| 19> C 	 -27.5852 	 67.0324 	 102.347
| 20> H 	 -28.3673 	 67.6001 	 101.82
| 21> H 	 -27.059 	 67.6166 	 103.076
| 22> H 	 -26.8089 	 66.8032 	 101.635
| 23> S 	 -32.4709 	 62.7504 	 108.257
| 24> C 	 -34.0854 	 62.2329 	 107.911
| 25> C 	 -34.1862 	 61.8708 	 106.595
| 26> C 	 -33.0536 	 62.2393 	 105.817
| 27> C 	 -31.9927 	 62.6995 	 106.606
| 28> H 	 -35.1029 	 61.5307 	 106.194
| 29> C 	 -33.0168 	 62.1489 	 104.303
| 30> H 	 -32.1359 	 62.6393 	 103.954
| 31> H 	 -33.7897 	 62.7668 	 103.941
| 32> C 	 -32.8864 	 60.7634 	 103.643
| 33> H 	 -33.761 	 60.2284 	 103.733
| 34> H 	 -32.054 	 60.3229 	 104.156
| 35> C 	 -32.6352 	 60.9627 	 102.176
| 36> H 	 -32.3049 	 60.0572 	 101.623
| 37> H 	 -31.8141 	 61.6776 	 102.144
| 38> H 	 -33.5681 	 61.3574 	 101.817
| 39> H 	 -27.3218 	 64.5232 	 105.903
| 40> H 	 -34.8729 	 62.2018 	 108.657
| 41> *
| 42>
| 43>                          ****END OF INPUT****

CARTESIAN COORDINATES (ANGSTROEM)
---------------------------------
  S    -29.164900   63.206800  107.116000
  C    -28.334300   64.357400  105.992000
  C    -29.279700   65.007800  105.187000
  C    -30.638800   64.604300  105.512000
  C    -30.796400   63.518200  106.346000
  H    -31.477700   65.025800  104.963000
  C    -29.007000   66.160400  104.207000
  H    -28.379700   66.862400  104.784000
  H    -29.814600   66.743100  103.884000
  C    -28.154300   65.807300  103.021000
  H    -27.212700   65.349200  103.389000
  H    -28.621000   65.132100  102.322000
  C    -27.585200   67.032400  102.347000
  H    -28.367300   67.600100  101.820000
  H    -27.059000   67.616600  103.076000
  H    -26.808900   66.803200  101.635000
  S    -32.470900   62.750400  108.257000
  C    -34.085400   62.232900  107.911000
  C    -34.186200   61.870800  106.595000
  C    -33.053600   62.239300  105.817000
  C    -31.992700   62.699500  106.606000
  H    -35.102900   61.530700  106.194000
  C    -33.016800   62.148900  104.303000
  H    -32.135900   62.639300  103.954000
  H    -33.789700   62.766800  103.941000
  C    -32.886400   60.763400  103.643000
  H    -33.761000   60.228400  103.733000
  H    -32.054000   60.322900  104.156000
  C    -32.635200   60.962700  102.176000
  H    -32.304900   60.057200  101.623000
  H    -31.814100   61.677600  102.144000
  H    -33.568100   61.357400  101.817000
  H    -27.321800   64.523200  105.903000
  H    -34.872900   62.201800  108.657000

 Total Charge           Charge          ....    0
 Multiplicity           Mult            ....    1
 Number of Electrons    NEL             ....  134
 Basis Dimension        Dim             ....  322

ORBITAL ENERGIES
----------------

  NO   OCC          E(Eh)            E(eV)
   0   2.0000     -88.963968     -2420.8326
   1   2.0000     -88.963042     -2420.8074
   2   2.0000     -10.338880      -281.3352
   3   2.0000     -10.327588      -281.0280
   4   2.0000     -10.319741      -280.8144
   5   2.0000     -10.317018      -280.7403
   6   2.0000     -10.308328      -280.5039
   7   2.0000     -10.307688      -280.4864
   8   2.0000     -10.295699      -280.1602
   9   2.0000     -10.292454      -280.0719
  10   2.0000     -10.290494      -280.0186
  11   2.0000     -10.283382      -279.8250
  12   2.0000     -10.282887      -279.8116
  13   2.0000     -10.275712      -279.6164
  14   2.0000     -10.275152      -279.6011
  15   2.0000     -10.274408      -279.5809
  16   2.0000      -8.079146      -219.8447
  17   2.0000      -8.076621      -219.7760
  18   2.0000      -6.037575      -164.2908
  19   2.0000      -6.035494      -164.2341
  20   2.0000      -6.033267      -164.1735
  21   2.0000      -6.031501      -164.1255
  22   2.0000      -6.030078      -164.0868
  23   2.0000      -6.027025      -164.0037
  24   2.0000      -1.008470       -27.4419
  25   2.0000      -0.973950       -26.5025
  26   2.0000      -0.919531       -25.0217
  27   2.0000      -0.917854       -24.9761
  28   2.0000      -0.871953       -23.7271
  29   2.0000      -0.856663       -23.3110
  30   2.0000      -0.840710       -22.8769
  31   2.0000      -0.816954       -22.2304
  32   2.0000      -0.781079       -21.2542
  33   2.0000      -0.771408       -20.9911
  34   2.0000      -0.706468       -19.2240
  35   2.0000      -0.702390       -19.1130
  36   2.0000      -0.695917       -18.9369
  37   2.0000      -0.665899       -18.1200
  38   2.0000      -0.642395       -17.4804
  39   2.0000      -0.618943       -16.8423
  40   2.0000      -0.602770       -16.4022
  41   2.0000      -0.586300       -15.9540
  42   2.0000      -0.582375       -15.8472
  43   2.0000      -0.565191       -15.3796
  44   2.0000      -0.529194       -14.4001
  45   2.0000      -0.522572       -14.2199
  46   2.0000      -0.519702       -14.1418
  47   2.0000      -0.516944       -14.0668
  48   2.0000      -0.506673       -13.7873
  49   2.0000      -0.504697       -13.7335
  50   2.0000      -0.492192       -13.3932
  51   2.0000      -0.481263       -13.0958
  52   2.0000      -0.472386       -12.8543
  53   2.0000      -0.460303       -12.5255
  54   2.0000      -0.455158       -12.3855
  55   2.0000      -0.451478       -12.2854
  56   2.0000      -0.437962       -11.9175
  57   2.0000      -0.435752       -11.8574
  58   2.0000      -0.434510       -11.8236
  59   2.0000      -0.424923       -11.5627
  60   2.0000      -0.421092       -11.4585
  61   2.0000      -0.419828       -11.4241
  62   2.0000      -0.414373       -11.2757
  63   2.0000      -0.349440        -9.5087
  64   2.0000      -0.329165        -8.9570
  65   2.0000      -0.326035        -8.8719
  66   2.0000      -0.292868        -7.9693
  67   0.0000       0.028908         0.7866
  68   0.0000       0.058696         1.5972
  69   0.0000       0.105518         2.8713
  70   0.0000       0.119732         3.2581
  71   0.0000       0.132308         3.6003

MULLIKEN ATOMIC CHARGES
-----------------------
   0 S :    0.080758
   1 C :   -0.080292
   2 C :   -0.090417
   3 C :    0.041559
   4 C :   -0.135054
   5 H :    0.013487
   6 C :    0.079182
   7 H :    0.025310
   8 H :    0.008868
   9 C :   -0.083258
  10 H :    0.020160
  11 H :    0.032720
  12 C :   -0.041997
  13 H :    0.032588
  14 H :    0.019255
  15 H :    0.028360
  16 S :    0.101980
  17 C :   -0.093300
  18 C :    0.000494
  19 C :   -0.071640
  20 C :   -0.121860
  21 H :    0.002942
  22 C :    0.054724
  23 H :   -0.002798
  24 H :    0.013615
  25 C :   -0.011875
  26 H :    0.009442
  27 H :    0.030601
  28 C :   -0.038888
  29 H :    0.044697
  30 H :    0.022400
  31 H :    0.025973
  32 H :    0.019592
  33 H :    0.062671
Sum of atomic charges:   -0.0000000

LOEWDIN ATOMIC CHARGES
----------------------
   0 S :    0.342351
   1 C :   -0.165762
   2 C :   -0.053818
   3 C :   -0.066366
   4 C :   -0.169382
   5 H :    0.029358
   6 C :   -0.029156
   7 H :    0.037189
   8 H :    0.021387
   9 C :   -0.041312
  10 H :    0.026115
  11 H :    0.020727
  12 C :   -0.062863
  13 H :    0.023392
  14 H :    0.021556
  15 H :    0.025456
  16 S :    0.433160
  17 C :   -0.178862
  18 C :   -0.069378
  19 C :   -0.045906
  20 C :   -0.214275
  21 H :    0.025615
  22 C :   -0.029598
  23 H :    0.025003
  24 H :    0.022770
  25 C :   -0.025231
  26 H :    0.009436
  27 H :    0.025723
  28 C :   -0.058039
  29 H :    0.030488
  30 H :    0.022784
  31 H :    0.024135
  32 H :    0.011981
  33 H :    0.031322

  Mayer bond orders larger than 0.100000
B(  0-S ,  1-C ) :   1.1135 B(  0-S ,  4-C ) :   1.1122 B(  1-C ,  2-C ) :   1.6374
B(  1-C ,  4-C ) :   0.1007 B(  1-C , 32-H ) :   0.9768 B(  2-C ,  3-C ) :   1.2235
B(  2-C ,  6-C ) :   1.0086 B(  3-C ,  4-C ) :   1.6062 B(  3-C ,  5-H ) :   0.9875
B(  4-C , 20-C ) :   1.0062 B(  6-C ,  7-H ) :   0.9402 B(  6-C ,  8-H ) :   0.9515
B(  6-C ,  9-C ) :   1.0639 B(  9-C , 10-H ) :   0.9557 B(  9-C , 11-H ) :   0.9567
B(  9-C , 12-C ) :   1.0859 B( 12-C , 13-H ) :   0.9734 B( 12-C , 14-H ) :   0.9725
B( 12-C , 15-H ) :   0.9730 B( 16-S , 17-C ) :   1.1852 B( 16-S , 20-C ) :   1.1527
B( 17-C , 18-C ) :   1.5694 B( 17-C , 33-H ) :   0.9703 B( 18-C , 19-C ) :   1.2599
B( 18-C , 21-H ) :   1.0014 B( 19-C , 20-C ) :   1.5804 B( 19-C , 22-C ) :   1.0452
B( 22-C , 23-H ) :   0.9338 B( 22-C , 24-H ) :   0.9258 B( 22-C , 25-C ) :   1.0592
B( 25-C , 26-H ) :   0.9551 B( 25-C , 27-H ) :   0.9526 B( 25-C , 28-C ) :   1.0836
B( 28-C , 29-H ) :   0.9728 B( 28-C , 30-H ) :   0.9764 B( 28-C , 31-H ) :   0.9753

Dispersion correction           -0.013296136
FINAL SINGLE POINT ENERGY     -1339.857076717184

DIPOLE MOMENT
-------------
                                X             Y             Z
Electronic contribution:     -3.95516      -6.40233      29.92206
Nuclear contribution   :      3.61419       6.68308     -30.61400
                        -----------------------------------------
Total Dipole Moment    :     -0.34098       0.28074      -0.69194
                        -----------------------------------------
Magnitude (a.u.)       :      0.82089
Magnitude (Debye)      :      2.08654

Rotational constants in cm-1:     0.017761     0.008122     0.006227
Rotational constants in MHz :   532.465229   243.496514   186.694839

                             ****ORCA TERMINATED NORMALLY****
TOTAL RUN TIME: 0 days 0 hours 0 minutes 29 seconds 337 msec
