                         Program Version 4.2.1 -  RELEASE  -
|  1> ! wB97X-D3 SP def2-SVP
|  2> %pal
|  3> nprocs 16
|  4> end
|  5>
|  6> * xyz 0 1
|  7> S 	 22.9921 	 3.48873 	 78.952
|  8> C 	 24.0969 	 3.87649 	 80.2626
|  9> C 	 23.3788 	 4.24936 	 81.4172
| 10> C 	 21.941 	 4.19465 	 81.2052
| 11> C 	 21.5834 	 3.85804 	 79.9056
| 12> H 	 21.1787 	 4.38416 	 82.0142
| 13> C 	 23.9176 	 4.64171 	 82.8191
| 14> H 	 23.8091 	 3.73052 	 83.3622
| 15> H 	 23.34 	 5.45083 	 83.2605
| 16> C 	 25.4486 	 4.95485 	 82.866
| 17> H 	 25.9166 	 3.9708 	 82.6818
| 18> H 	 25.7368 	 5.656 	 81.9524
| 19> C 	 26.0508 	 5.53795 	 84.154
| 20> H 	 27.1532 	 5.43434 	 83.9871
| 21> H 	 25.7488 	 6.58678 	 84.3987
| 22> H 	 25.9809 	 4.83509 	 84.9502
| 23> S 	 19.853 	 1.96467 	 78.9003
| 24> C 	 18.2057 	 2.3614 	 78.5505
| 25> C 	 17.8593 	 3.50508 	 79.2264
| 26> C 	 19.0333 	 4.20839 	 79.7735
| 27> C 	 20.211 	 3.51024 	 79.5826
| 28> H 	 16.862 	 3.71098 	 79.4589
| 29> C 	 19.006 	 5.61671 	 80.4301
| 30> H 	 19.9175 	 6.18063 	 80.2527
| 31> H 	 19.1313 	 5.45582 	 81.4945
| 32> C 	 17.8129 	 6.49184 	 80.1067
| 33> H 	 16.8801 	 6.22408 	 80.6084
| 34> H 	 17.6888 	 6.56717 	 79.0472
| 35> C 	 17.9511 	 7.80158 	 80.762
| 36> H 	 18.1848 	 7.69908 	 81.7811
| 37> H 	 17.0845 	 8.39524 	 80.6885
| 38> H 	 18.8735 	 8.2809 	 80.4604
| 39> H 	 25.13 	 3.73224 	 80.2324
| 40> H 	 17.6108 	 1.5868 	 78.1279
| 41> *
| 42>
| 43>                          ****END OF INPUT****

CARTESIAN COORDINATES (ANGSTROEM)
---------------------------------
  S     22.992100    3.488730   78.952000
  C     24.096900    3.876490   80.262600
  C     23.378800    4.249360   81.417200
  C     21.941000    4.194650   81.205200
  C     21.583400    3.858040   79.905600
  H     21.178700    4.384160   82.014200
  C     23.917600    4.641710   82.819100
  H     23.809100    3.730520   83.362200
  H     23.340000    5.450830   83.260500
  C     25.448600    4.954850   82.866000
  H     25.916600    3.970800   82.681800
  H     25.736800    5.656000   81.952400
  C     26.050800    5.537950   84.154000
  H     27.153200    5.434340   83.987100
  H     25.748800    6.586780   84.398700
  H     25.980900    4.835090   84.950200
  S     19.853000    1.964670   78.900300
  C     18.205700    2.361400   78.550500
  C     17.859300    3.505080   79.226400
  C     19.033300    4.208390   79.773500
  C     20.211000    3.510240   79.582600
  H     16.862000    3.710980   79.458900
  C     19.006000    5.616710   80.430100
  H     19.917500    6.180630   80.252700
  H     19.131300    5.455820   81.494500
  C     17.812900    6.491840   80.106700
  H     16.880100    6.224080   80.608400
  H     17.688800    6.567170   79.047200
  C     17.951100    7.801580   80.762000
  H     18.184800    7.699080   81.781100
  H     17.084500    8.395240   80.688500
  H     18.873500    8.280900   80.460400
  H     25.130000    3.732240   80.232400
  H     17.610800    1.586800   78.127900

 Total Charge           Charge          ....    0
 Multiplicity           Mult            ....    1
 Number of Electrons    NEL             ....  134
 Basis Dimension        Dim             ....  322

ORBITAL ENERGIES
----------------

  NO   OCC          E(Eh)            E(eV)
   0   2.0000     -88.970007     -2420.9970
   1   2.0000     -88.956417     -2420.6272
   2   2.0000     -10.329490      -281.0797
   3   2.0000     -10.321012      -280.8490
   4   2.0000     -10.317012      -280.7402
   5   2.0000     -10.313307      -280.6393
   6   2.0000     -10.310512      -280.5633
   7   2.0000     -10.304827      -280.4086
   8   2.0000     -10.301564      -280.3198
   9   2.0000     -10.300915      -280.3021
  10   2.0000     -10.296343      -280.1777
  11   2.0000     -10.294107      -280.1169
  12   2.0000     -10.289993      -280.0049
  13   2.0000     -10.287151      -279.9276
  14   2.0000     -10.276950      -279.6500
  15   2.0000     -10.262473      -279.2561
  16   2.0000      -8.084351      -219.9864
  17   2.0000      -8.072537      -219.6649
  18   2.0000      -6.042979      -164.4378
  19   2.0000      -6.038839      -164.3252
  20   2.0000      -6.035063      -164.2224
  21   2.0000      -6.030958      -164.1107
  22   2.0000      -6.026894      -164.0001
  23   2.0000      -6.023256      -163.9011
  24   2.0000      -1.006580       -27.3904
  25   2.0000      -0.982031       -26.7224
  26   2.0000      -0.918989       -25.0070
  27   2.0000      -0.906340       -24.6628
  28   2.0000      -0.871801       -23.7229
  29   2.0000      -0.853039       -23.2124
  30   2.0000      -0.845025       -22.9943
  31   2.0000      -0.813972       -22.1493
  32   2.0000      -0.783600       -21.3228
  33   2.0000      -0.773844       -21.0574
  34   2.0000      -0.707598       -19.2547
  35   2.0000      -0.705837       -19.2068
  36   2.0000      -0.685663       -18.6578
  37   2.0000      -0.658163       -17.9095
  38   2.0000      -0.639977       -17.4147
  39   2.0000      -0.609961       -16.5979
  40   2.0000      -0.599062       -16.3013
  41   2.0000      -0.576217       -15.6797
  42   2.0000      -0.575250       -15.6534
  43   2.0000      -0.566976       -15.4282
  44   2.0000      -0.540480       -14.7072
  45   2.0000      -0.522953       -14.2303
  46   2.0000      -0.519690       -14.1415
  47   2.0000      -0.511864       -13.9285
  48   2.0000      -0.506790       -13.7905
  49   2.0000      -0.503167       -13.6919
  50   2.0000      -0.490660       -13.3515
  51   2.0000      -0.480000       -13.0615
  52   2.0000      -0.473935       -12.8964
  53   2.0000      -0.468496       -12.7484
  54   2.0000      -0.458785       -12.4842
  55   2.0000      -0.450198       -12.2505
  56   2.0000      -0.446852       -12.1595
  57   2.0000      -0.437481       -11.9045
  58   2.0000      -0.430978       -11.7275
  59   2.0000      -0.420375       -11.4390
  60   2.0000      -0.416297       -11.3280
  61   2.0000      -0.412092       -11.2136
  62   2.0000      -0.407891       -11.0993
  63   2.0000      -0.348193        -9.4748
  64   2.0000      -0.328769        -8.9463
  65   2.0000      -0.320657        -8.7255
  66   2.0000      -0.294326        -8.0090
  67   0.0000       0.028736         0.7819
  68   0.0000       0.076687         2.0868
  69   0.0000       0.112793         3.0693
  70   0.0000       0.122088         3.3222
  71   0.0000       0.131073         3.5667

MULLIKEN ATOMIC CHARGES
-----------------------
   0 S :    0.122980
   1 C :   -0.112383
   2 C :   -0.098847
   3 C :   -0.021074
   4 C :   -0.130161
   5 H :    0.040378
   6 C :    0.101265
   7 H :    0.036082
   8 H :    0.037480
   9 C :   -0.180337
  10 H :    0.033073
  11 H :    0.050417
  12 C :   -0.018761
  13 H :    0.033002
  14 H :    0.058476
  15 H :    0.018780
  16 S :    0.091673
  17 C :   -0.088079
  18 C :   -0.002284
  19 C :   -0.054204
  20 C :   -0.145251
  21 H :    0.008360
  22 C :    0.029686
  23 H :    0.025783
  24 H :    0.019977
  25 C :   -0.040963
  26 H :    0.021991
  27 H :    0.035835
  28 C :    0.008781
  29 H :   -0.003359
  30 H :    0.028416
  31 H :    0.004651
  32 H :    0.031980
  33 H :    0.056635
Sum of atomic charges:    0.0000000

LOEWDIN ATOMIC CHARGES
----------------------
   0 S :    0.416268
   1 C :   -0.194376
   2 C :   -0.055387
   3 C :   -0.063190
   4 C :   -0.204404
   5 H :    0.040582
   6 C :   -0.031929
   7 H :    0.034212
   8 H :    0.029160
   9 C :   -0.055772
  10 H :    0.024207
  11 H :    0.032410
  12 C :   -0.072296
  13 H :    0.038190
  14 H :    0.033162
  15 H :    0.020537
  16 S :    0.411267
  17 C :   -0.181031
  18 C :   -0.064521
  19 C :   -0.054673
  20 C :   -0.206118
  21 H :    0.023009
  22 C :   -0.034454
  23 H :    0.032553
  24 H :    0.027982
  25 C :   -0.041804
  26 H :    0.028421
  27 H :    0.024530
  28 C :   -0.056538
  29 H :    0.018649
  30 H :    0.021613
  31 H :    0.019991
  32 H :    0.016751
  33 H :    0.023000

  Mayer bond orders larger than 0.100000
B(  0-S ,  1-C ) :   1.1331 B(  0-S ,  4-C ) :   1.1533 B(  1-C ,  2-C ) :   1.6000
B(  1-C , 32-H ) :   0.9753 B(  2-C ,  3-C ) :   1.2612 B(  2-C ,  6-C ) :   1.0027
B(  3-C ,  4-C ) :   1.5457 B(  3-C ,  5-H ) :   0.9820 B(  4-C , 20-C ) :   1.0538
B(  6-C ,  7-H ) :   0.9314 B(  6-C ,  8-H ) :   0.9522 B(  6-C ,  9-C ) :   1.0643
B(  9-C , 10-H ) :   0.9498 B(  9-C , 11-H ) :   0.9598 B(  9-C , 12-C ) :   1.0904
B( 12-C , 13-H ) :   0.9676 B( 12-C , 14-H ) :   0.9741 B( 12-C , 15-H ) :   0.9683
B( 16-S , 17-C ) :   1.1647 B( 16-S , 20-C ) :   1.1436 B( 17-C , 18-C ) :   1.5847
B( 17-C , 33-H ) :   0.9727 B( 18-C , 19-C ) :   1.2407 B( 18-C , 21-H ) :   0.9986
B( 19-C , 20-C ) :   1.6062 B( 19-C , 22-C ) :   1.0268 B( 22-C , 23-H ) :   0.9378
B( 22-C , 24-H ) :   0.9219 B( 22-C , 25-C ) :   1.0845 B( 25-C , 26-H ) :   0.9435
B( 25-C , 27-H ) :   0.9557 B( 25-C , 28-C ) :   1.0913 B( 28-C , 29-H ) :   0.9634
B( 28-C , 30-H ) :   0.9719 B( 28-C , 31-H ) :   0.9636

Dispersion correction           -0.013268099
FINAL SINGLE POINT ENERGY     -1339.857067678596

DIPOLE MOMENT
-------------
                                X             Y             Z
Electronic contribution:     -3.31987     -20.75325     -20.02294
Nuclear contribution   :      3.30102      20.97867      20.79367
                        -----------------------------------------
Total Dipole Moment    :     -0.01885       0.22542       0.77073
                        -----------------------------------------
Magnitude (a.u.)       :      0.80324
Magnitude (Debye)      :      2.04168

Rotational constants in cm-1:     0.018612     0.007553     0.005807
Rotational constants in MHz :   557.972591   226.421258   174.098547

                             ****ORCA TERMINATED NORMALLY****
TOTAL RUN TIME: 0 days 0 hours 0 minutes 33 seconds 879 msec
