                         Program Version 4.2.1 -  RELEASE  -
|  1> ! wB97X-D3 SP def2-SVP
|  2> %pal
|  3> nprocs 16
|  4> end
|  5>
|  6> * xyz 0 1
|  7> S 	 -93.6798 	 55.5309 	 129.07
|  8> C 	 -93.4014 	 54.6314 	 130.533
|  9> C 	 -92.2344 	 54.9512 	 131.118
| 10> C 	 -91.6578 	 56.1454 	 130.551
| 11> C 	 -92.2591 	 56.4902 	 129.403
| 12> H 	 -90.8801 	 56.7241 	 130.973
| 13> C 	 -91.6454 	 54.4105 	 132.433
| 14> H 	 -90.7529 	 53.9518 	 132.073
| 15> H 	 -92.2132 	 53.5167 	 132.736
| 16> C 	 -91.4643 	 55.4302 	 133.569
| 17> H 	 -90.811 	 56.1215 	 133.09
| 18> H 	 -92.4476 	 55.8515 	 133.859
| 19> C 	 -90.8111 	 54.8468 	 134.797
| 20> H 	 -91.4619 	 54.239 	 135.443
| 21> H 	 -90.0446 	 54.2154 	 134.369
| 22> H 	 -90.3951 	 55.6192 	 135.431
| 23> S 	 -93.4632 	 58.2974 	 127.848
| 24> C 	 -92.5395 	 59.266 	 126.713
| 25> C 	 -91.1972 	 59.2405 	 127.024
| 26> C 	 -90.9054 	 58.3513 	 128.062
| 27> C 	 -92.0514 	 57.669 	 128.573
| 28> H 	 -90.5028 	 59.7595 	 126.309
| 29> C 	 -89.481 	 58.0003 	 128.42
| 30> H 	 -89.3162 	 56.9834 	 128.106
| 31> H 	 -89.3772 	 58.0925 	 129.554
| 32> C 	 -88.4579 	 59.0501 	 127.766
| 33> H 	 -88.8773 	 60.0652 	 127.877
| 34> H 	 -88.3597 	 58.8765 	 126.674
| 35> C 	 -87.1213 	 58.9479 	 128.406
| 36> H 	 -86.463 	 59.6572 	 127.963
| 37> H 	 -86.5287 	 58.0984 	 128.099
| 38> H 	 -87.1131 	 59.1327 	 129.467
| 39> H 	 -93.9572 	 53.7954 	 130.924
| 40> H 	 -92.9485 	 59.9256 	 125.935
| 41> *
| 42>
| 43>                          ****END OF INPUT****

CARTESIAN COORDINATES (ANGSTROEM)
---------------------------------
  S    -93.679800   55.530900  129.070000
  C    -93.401400   54.631400  130.533000
  C    -92.234400   54.951200  131.118000
  C    -91.657800   56.145400  130.551000
  C    -92.259100   56.490200  129.403000
  H    -90.880100   56.724100  130.973000
  C    -91.645400   54.410500  132.433000
  H    -90.752900   53.951800  132.073000
  H    -92.213200   53.516700  132.736000
  C    -91.464300   55.430200  133.569000
  H    -90.811000   56.121500  133.090000
  H    -92.447600   55.851500  133.859000
  C    -90.811100   54.846800  134.797000
  H    -91.461900   54.239000  135.443000
  H    -90.044600   54.215400  134.369000
  H    -90.395100   55.619200  135.431000
  S    -93.463200   58.297400  127.848000
  C    -92.539500   59.266000  126.713000
  C    -91.197200   59.240500  127.024000
  C    -90.905400   58.351300  128.062000
  C    -92.051400   57.669000  128.573000
  H    -90.502800   59.759500  126.309000
  C    -89.481000   58.000300  128.420000
  H    -89.316200   56.983400  128.106000
  H    -89.377200   58.092500  129.554000
  C    -88.457900   59.050100  127.766000
  H    -88.877300   60.065200  127.877000
  H    -88.359700   58.876500  126.674000
  C    -87.121300   58.947900  128.406000
  H    -86.463000   59.657200  127.963000
  H    -86.528700   58.098400  128.099000
  H    -87.113100   59.132700  129.467000
  H    -93.957200   53.795400  130.924000
  H    -92.948500   59.925600  125.935000

 Total Charge           Charge          ....    0
 Multiplicity           Mult            ....    1
 Number of Electrons    NEL             ....  134
 Basis Dimension        Dim             ....  322

ORBITAL ENERGIES
----------------

  NO   OCC          E(Eh)            E(eV)
   0   2.0000     -88.963674     -2420.8247
   1   2.0000     -88.963416     -2420.8176
   2   2.0000     -10.324181      -280.9353
   3   2.0000     -10.322259      -280.8829
   4   2.0000     -10.313672      -280.6493
   5   2.0000     -10.305572      -280.4289
   6   2.0000     -10.301257      -280.3115
   7   2.0000     -10.296528      -280.1828
   8   2.0000     -10.295266      -280.1484
   9   2.0000     -10.292571      -280.0751
  10   2.0000     -10.292410      -280.0707
  11   2.0000     -10.289888      -280.0021
  12   2.0000     -10.287551      -279.9385
  13   2.0000     -10.285344      -279.8784
  14   2.0000     -10.277519      -279.6655
  15   2.0000     -10.270364      -279.4708
  16   2.0000      -8.079055      -219.8423
  17   2.0000      -8.078647      -219.8312
  18   2.0000      -6.037434      -164.2869
  19   2.0000      -6.037258      -164.2821
  20   2.0000      -6.033264      -164.1734
  21   2.0000      -6.033236      -164.1727
  22   2.0000      -6.030130      -164.0882
  23   2.0000      -6.029056      -164.0590
  24   2.0000      -1.013844       -27.5881
  25   2.0000      -0.987955       -26.8836
  26   2.0000      -0.916106       -24.9285
  27   2.0000      -0.907260       -24.6878
  28   2.0000      -0.874547       -23.7976
  29   2.0000      -0.856491       -23.3063
  30   2.0000      -0.847364       -23.0580
  31   2.0000      -0.819776       -22.3072
  32   2.0000      -0.780627       -21.2420
  33   2.0000      -0.767900       -20.8956
  34   2.0000      -0.710794       -19.3417
  35   2.0000      -0.702893       -19.1267
  36   2.0000      -0.694338       -18.8939
  37   2.0000      -0.651410       -17.7258
  38   2.0000      -0.635422       -17.2907
  39   2.0000      -0.626125       -17.0377
  40   2.0000      -0.592393       -16.1198
  41   2.0000      -0.574844       -15.6423
  42   2.0000      -0.573911       -15.6169
  43   2.0000      -0.562549       -15.3077
  44   2.0000      -0.532511       -14.4904
  45   2.0000      -0.520472       -14.1628
  46   2.0000      -0.516707       -14.0603
  47   2.0000      -0.509360       -13.8604
  48   2.0000      -0.502018       -13.6606
  49   2.0000      -0.499916       -13.6034
  50   2.0000      -0.499344       -13.5878
  51   2.0000      -0.478334       -13.0161
  52   2.0000      -0.474900       -12.9227
  53   2.0000      -0.469948       -12.7879
  54   2.0000      -0.461011       -12.5447
  55   2.0000      -0.453807       -12.3487
  56   2.0000      -0.448572       -12.2063
  57   2.0000      -0.436279       -11.8717
  58   2.0000      -0.431364       -11.7380
  59   2.0000      -0.425168       -11.5694
  60   2.0000      -0.419731       -11.4215
  61   2.0000      -0.413058       -11.2399
  62   2.0000      -0.405228       -11.0268
  63   2.0000      -0.356823        -9.7097
  64   2.0000      -0.332037        -9.0352
  65   2.0000      -0.329138        -8.9563
  66   2.0000      -0.282704        -7.6928
  67   0.0000       0.025075         0.6823
  68   0.0000       0.086102         2.3429
  69   0.0000       0.110513         3.0072
  70   0.0000       0.123923         3.3721
  71   0.0000       0.140530         3.8240

MULLIKEN ATOMIC CHARGES
-----------------------
   0 S :    0.103523
   1 C :   -0.114007
   2 C :   -0.080949
   3 C :   -0.016491
   4 C :   -0.097119
   5 H :    0.001895
   6 C :    0.059807
   7 H :    0.021511
   8 H :    0.004832
   9 C :   -0.060528
  10 H :    0.024976
  11 H :    0.044027
  12 C :   -0.027593
  13 H :    0.035698
  14 H :    0.020933
  15 H :    0.036035
  16 S :    0.102284
  17 C :   -0.103981
  18 C :   -0.069803
  19 C :   -0.053317
  20 C :   -0.138644
  21 H :    0.045208
  22 C :    0.047715
  23 H :    0.046427
  24 H :    0.044235
  25 C :   -0.130818
  26 H :    0.042390
  27 H :    0.039293
  28 C :    0.014817
  29 H :    0.005599
  30 H :    0.020827
  31 H :    0.035012
  32 H :    0.036777
  33 H :    0.059430
Sum of atomic charges:   -0.0000000

LOEWDIN ATOMIC CHARGES
----------------------
   0 S :    0.398190
   1 C :   -0.199052
   2 C :   -0.059986
   3 C :   -0.062433
   4 C :   -0.183421
   5 H :    0.023967
   6 C :   -0.034124
   7 H :    0.027570
   8 H :    0.024071
   9 C :   -0.036191
  10 H :    0.020793
  11 H :    0.031293
  12 C :   -0.062378
  13 H :    0.027014
  14 H :    0.024690
  15 H :    0.027141
  16 S :    0.426706
  17 C :   -0.194390
  18 C :   -0.085591
  19 C :   -0.064762
  20 C :   -0.213538
  21 H :    0.045491
  22 C :   -0.030783
  23 H :    0.033533
  24 H :    0.035664
  25 C :   -0.043554
  26 H :    0.027366
  27 H :    0.027684
  28 C :   -0.069986
  29 H :    0.024745
  30 H :    0.028162
  31 H :    0.024548
  32 H :    0.028585
  33 H :    0.032979

  Mayer bond orders larger than 0.100000
B(  0-S ,  1-C ) :   1.1079 B(  0-S ,  4-C ) :   1.1264 B(  1-C ,  2-C ) :   1.6810
B(  1-C , 32-H ) :   0.9594 B(  2-C ,  3-C ) :   1.1805 B(  2-C ,  6-C ) :   1.0194
B(  3-C ,  4-C ) :   1.6299 B(  3-C ,  5-H ) :   0.9981 B(  4-C , 20-C ) :   1.0621
B(  6-C ,  7-H ) :   0.9261 B(  6-C ,  8-H ) :   0.9407 B(  6-C ,  9-C ) :   1.0608
B(  9-C , 10-H ) :   0.9492 B(  9-C , 11-H ) :   0.9568 B(  9-C , 12-C ) :   1.0885
B( 12-C , 13-H ) :   0.9753 B( 12-C , 14-H ) :   0.9729 B( 12-C , 15-H ) :   0.9729
B( 16-S , 17-C ) :   1.1657 B( 16-S , 20-C ) :   1.1639 B( 17-C , 18-C ) :   1.5720
B( 17-C , 20-C ) :   0.1068 B( 17-C , 33-H ) :   0.9596 B( 18-C , 19-C ) :   1.3035
B( 18-C , 21-H ) :   0.9766 B( 19-C , 20-C ) :   1.5299 B( 19-C , 22-C ) :   1.0247
B( 22-C , 23-H ) :   0.9279 B( 22-C , 24-H ) :   0.9411 B( 22-C , 25-C ) :   1.0777
B( 25-C , 26-H ) :   0.9551 B( 25-C , 27-H ) :   0.9443 B( 25-C , 28-C ) :   1.1030
B( 28-C , 29-H ) :   0.9586 B( 28-C , 30-H ) :   0.9635 B( 28-C , 31-H ) :   0.9719

Dispersion correction           -0.013187281
FINAL SINGLE POINT ENERGY     -1339.866010928293

DIPOLE MOMENT
-------------
                                X             Y             Z
Electronic contribution:    -25.09064       0.40273     -16.35486
Nuclear contribution   :     25.75566      -0.36196      16.58538
                        -----------------------------------------
Total Dipole Moment    :      0.66503       0.04078       0.23052
                        -----------------------------------------
Magnitude (a.u.)       :      0.70503
Magnitude (Debye)      :      1.79204

Rotational constants in cm-1:     0.016903     0.008550     0.006072
Rotational constants in MHz :   506.744780   256.331793   182.029194

                             ****ORCA TERMINATED NORMALLY****
TOTAL RUN TIME: 0 days 0 hours 0 minutes 33 seconds 563 msec
