                         Program Version 4.2.1 -  RELEASE  -
|  1> ! wB97X-D3 SP def2-SVP
|  2> %pal
|  3> nprocs 16
|  4> end
|  5>
|  6> * xyz 0 1
|  7> S 	 42.8454 	 12.6134 	 48.8622
|  8> C 	 43.3275 	 11.0702 	 49.5378
|  9> C 	 43.6047 	 11.1725 	 50.8919
| 10> C 	 43.5158 	 12.5421 	 51.3181
| 11> C 	 43.2836 	 13.415 	 50.2857
| 12> H 	 43.7392 	 12.9941 	 52.2645
| 13> C 	 43.8767 	 10.0276 	 51.7933
| 14> H 	 44.9385 	 10.131 	 52.1711
| 15> H 	 43.6787 	 9.16844 	 51.1512
| 16> C 	 42.9086 	 10.0244 	 52.9636
| 17> H 	 43.1001 	 11.0406 	 53.3772
| 18> H 	 41.903 	 9.92448 	 52.5531
| 19> C 	 43.2508 	 8.86139 	 53.9444
| 20> H 	 42.9458 	 7.88738 	 53.575
| 21> H 	 44.3356 	 8.77699 	 54.03
| 22> H 	 42.78 	 8.95345 	 54.9089
| 23> S 	 44.6212 	 15.7753 	 49.7381
| 24> C 	 43.8365 	 17.2808 	 50.0424
| 25> C 	 42.6855 	 17.1555 	 50.7406
| 26> C 	 42.3999 	 15.7622 	 51.0135
| 27> C 	 43.2663 	 14.8664 	 50.4013
| 28> H 	 42.0851 	 17.9769 	 51.0059
| 29> C 	 41.1059 	 15.3342 	 51.6901
| 30> H 	 41.1768 	 15.6927 	 52.7
| 31> H 	 41.1278 	 14.265 	 51.7774
| 32> C 	 39.8237 	 15.7729 	 50.8802
| 33> H 	 39.799 	 16.8395 	 50.9286
| 34> H 	 38.8932 	 15.525 	 51.36
| 35> C 	 39.8574 	 15.2098 	 49.4128
| 36> H 	 39.0653 	 15.5649 	 48.7134
| 37> H 	 39.6029 	 14.1416 	 49.4859
| 38> H 	 40.7008 	 15.3104 	 48.8273
| 39> H 	 43.2578 	 10.1292 	 49.0957
| 40> H 	 44.2611 	 18.1982 	 49.5623
| 41> *
| 42>
| 43>                          ****END OF INPUT****

CARTESIAN COORDINATES (ANGSTROEM)
---------------------------------
  S     42.845400   12.613400   48.862200
  C     43.327500   11.070200   49.537800
  C     43.604700   11.172500   50.891900
  C     43.515800   12.542100   51.318100
  C     43.283600   13.415000   50.285700
  H     43.739200   12.994100   52.264500
  C     43.876700   10.027600   51.793300
  H     44.938500   10.131000   52.171100
  H     43.678700    9.168440   51.151200
  C     42.908600   10.024400   52.963600
  H     43.100100   11.040600   53.377200
  H     41.903000    9.924480   52.553100
  C     43.250800    8.861390   53.944400
  H     42.945800    7.887380   53.575000
  H     44.335600    8.776990   54.030000
  H     42.780000    8.953450   54.908900
  S     44.621200   15.775300   49.738100
  C     43.836500   17.280800   50.042400
  C     42.685500   17.155500   50.740600
  C     42.399900   15.762200   51.013500
  C     43.266300   14.866400   50.401300
  H     42.085100   17.976900   51.005900
  C     41.105900   15.334200   51.690100
  H     41.176800   15.692700   52.700000
  H     41.127800   14.265000   51.777400
  C     39.823700   15.772900   50.880200
  H     39.799000   16.839500   50.928600
  H     38.893200   15.525000   51.360000
  C     39.857400   15.209800   49.412800
  H     39.065300   15.564900   48.713400
  H     39.602900   14.141600   49.485900
  H     40.700800   15.310400   48.827300
  H     43.257800   10.129200   49.095700
  H     44.261100   18.198200   49.562300

 Total Charge           Charge          ....    0
 Multiplicity           Mult            ....    1
 Number of Electrons    NEL             ....  134
 Basis Dimension        Dim             ....  322

ORBITAL ENERGIES
----------------

  NO   OCC          E(Eh)            E(eV)
   0   2.0000     -88.966588     -2420.9039
   1   2.0000     -88.958081     -2420.6725
   2   2.0000     -10.322409      -280.8870
   3   2.0000     -10.321712      -280.8681
   4   2.0000     -10.316363      -280.7225
   5   2.0000     -10.308364      -280.5049
   6   2.0000     -10.303000      -280.3589
   7   2.0000     -10.298407      -280.2339
   8   2.0000     -10.292145      -280.0635
   9   2.0000     -10.291230      -280.0386
  10   2.0000     -10.289749      -279.9983
  11   2.0000     -10.289654      -279.9957
  12   2.0000     -10.289299      -279.9861
  13   2.0000     -10.286961      -279.9224
  14   2.0000     -10.279549      -279.7207
  15   2.0000     -10.271688      -279.5068
  16   2.0000      -8.082098      -219.9251
  17   2.0000      -8.073726      -219.6973
  18   2.0000      -6.040546      -164.3716
  19   2.0000      -6.036497      -164.2614
  20   2.0000      -6.032877      -164.1629
  21   2.0000      -6.032213      -164.1449
  22   2.0000      -6.028096      -164.0328
  23   2.0000      -6.024472      -163.9342
  24   2.0000      -1.011479       -27.5237
  25   2.0000      -0.988342       -26.8942
  26   2.0000      -0.920790       -25.0560
  27   2.0000      -0.900488       -24.5035
  28   2.0000      -0.870655       -23.6917
  29   2.0000      -0.847563       -23.0634
  30   2.0000      -0.839235       -22.8368
  31   2.0000      -0.816860       -22.2279
  32   2.0000      -0.783989       -21.3334
  33   2.0000      -0.772029       -21.0080
  34   2.0000      -0.714884       -19.4530
  35   2.0000      -0.703204       -19.1351
  36   2.0000      -0.690987       -18.8027
  37   2.0000      -0.656866       -17.8742
  38   2.0000      -0.644737       -17.5442
  39   2.0000      -0.619379       -16.8541
  40   2.0000      -0.595121       -16.1941
  41   2.0000      -0.579633       -15.7726
  42   2.0000      -0.566210       -15.4074
  43   2.0000      -0.548840       -14.9347
  44   2.0000      -0.541685       -14.7400
  45   2.0000      -0.522119       -14.2076
  46   2.0000      -0.517309       -14.0767
  47   2.0000      -0.506512       -13.7829
  48   2.0000      -0.504304       -13.7228
  49   2.0000      -0.496051       -13.4982
  50   2.0000      -0.485164       -13.2020
  51   2.0000      -0.475726       -12.9452
  52   2.0000      -0.471562       -12.8319
  53   2.0000      -0.462895       -12.5960
  54   2.0000      -0.455134       -12.3848
  55   2.0000      -0.452382       -12.3099
  56   2.0000      -0.450785       -12.2665
  57   2.0000      -0.438253       -11.9255
  58   2.0000      -0.436594       -11.8803
  59   2.0000      -0.425111       -11.5679
  60   2.0000      -0.419702       -11.4207
  61   2.0000      -0.415924       -11.3179
  62   2.0000      -0.414043       -11.2667
  63   2.0000      -0.335616        -9.1326
  64   2.0000      -0.327122        -8.9014
  65   2.0000      -0.324793        -8.8381
  66   2.0000      -0.308382        -8.3915
  67   0.0000       0.041622         1.1326
  68   0.0000       0.066944         1.8216
  69   0.0000       0.113208         3.0805
  70   0.0000       0.120856         3.2887
  71   0.0000       0.133355         3.6288

MULLIKEN ATOMIC CHARGES
-----------------------
   0 S :    0.131718
   1 C :   -0.089157
   2 C :   -0.108432
   3 C :    0.046984
   4 C :   -0.177376
   5 H :    0.008521
   6 C :    0.077443
   7 H :    0.051309
   8 H :    0.010325
   9 C :   -0.115540
  10 H :    0.039834
  11 H :    0.039615
  12 C :   -0.008396
  13 H :    0.022411
  14 H :    0.022159
  15 H :    0.036349
  16 S :    0.099666
  17 C :   -0.102288
  18 C :   -0.006736
  19 C :   -0.055231
  20 C :   -0.192524
  21 H :    0.004820
  22 C :    0.096347
  23 H :    0.027047
  24 H :    0.014076
  25 C :   -0.038538
  26 H :    0.015328
  27 H :    0.026050
  28 C :   -0.055302
  29 H :    0.027510
  30 H :    0.029373
  31 H :    0.029613
  32 H :    0.016712
  33 H :    0.076311
Sum of atomic charges:   -0.0000000

LOEWDIN ATOMIC CHARGES
----------------------
   0 S :    0.436873
   1 C :   -0.193668
   2 C :   -0.059791
   3 C :   -0.063008
   4 C :   -0.215741
   5 H :    0.028271
   6 C :   -0.035444
   7 H :    0.040167
   8 H :    0.026779
   9 C :   -0.038170
  10 H :    0.027607
  11 H :    0.027341
  12 C :   -0.063938
  13 H :    0.024918
  14 H :    0.025080
  15 H :    0.024792
  16 S :    0.401241
  17 C :   -0.185848
  18 C :   -0.071507
  19 C :   -0.047992
  20 C :   -0.206022
  21 H :    0.026219
  22 C :   -0.027425
  23 H :    0.029722
  24 H :    0.024002
  25 C :   -0.029687
  26 H :    0.014239
  27 H :    0.023940
  28 C :   -0.067668
  29 H :    0.031145
  30 H :    0.028696
  31 H :    0.012635
  32 H :    0.014757
  33 H :    0.037485

  Mayer bond orders larger than 0.100000
B(  0-S ,  1-C ) :   1.1335 B(  0-S ,  4-C ) :   1.1785 B(  1-C ,  2-C ) :   1.6227
B(  1-C , 32-H ) :   0.9719 B(  2-C ,  3-C ) :   1.2116 B(  2-C ,  6-C ) :   1.0318
B(  3-C ,  4-C ) :   1.5922 B(  3-C ,  5-H ) :   0.9923 B(  4-C , 20-C ) :   1.0110
B(  6-C ,  7-H ) :   0.9283 B(  6-C ,  8-H ) :   0.9346 B(  6-C ,  9-C ) :   1.0637
B(  9-C , 10-H ) :   0.9564 B(  9-C , 11-H ) :   0.9577 B(  9-C , 12-C ) :   1.0762
B( 12-C , 13-H ) :   0.9730 B( 12-C , 14-H ) :   0.9732 B( 12-C , 15-H ) :   0.9754
B( 16-S , 17-C ) :   1.1655 B( 16-S , 20-C ) :   1.1365 B( 17-C , 18-C ) :   1.6115
B( 17-C , 33-H ) :   0.9598 B( 18-C , 19-C ) :   1.2065 B( 18-C , 21-H ) :   1.0064
B( 19-C , 20-C ) :   1.6186 B( 19-C , 22-C ) :   1.0479 B( 22-C , 23-H ) :   0.9303
B( 22-C , 24-H ) :   0.9363 B( 22-C , 25-C ) :   1.0579 B( 25-C , 26-H ) :   0.9603
B( 25-C , 27-H ) :   0.9594 B( 25-C , 28-C ) :   1.0568 B( 28-C , 29-H ) :   0.9742
B( 28-C , 30-H ) :   0.9765 B( 28-C , 31-H ) :   0.9807

Dispersion correction           -0.015312100
FINAL SINGLE POINT ENERGY     -1339.877834381175

DIPOLE MOMENT
-------------
                                X             Y             Z
Electronic contribution:     13.06544      11.59900     -14.53384
Nuclear contribution   :    -13.41616     -11.74692      14.94245
                        -----------------------------------------
Total Dipole Moment    :     -0.35072      -0.14792       0.40861
                        -----------------------------------------
Magnitude (a.u.)       :      0.55843
Magnitude (Debye)      :      1.41941

Rotational constants in cm-1:     0.021167     0.007968     0.007406
Rotational constants in MHz :   634.556499   238.889331   222.035486

                             ****ORCA TERMINATED NORMALLY****
TOTAL RUN TIME: 0 days 0 hours 0 minutes 35 seconds 461 msec
