                         Program Version 4.2.1 -  RELEASE  -
|  1> ! wB97X-D3 SP def2-SVP
|  2> %pal
|  3> nprocs 16
|  4> end
|  5>
|  6> * xyz 0 1
|  7> S 	 54.8099 	 6.78021 	 75.8116
|  8> C 	 54.763 	 8.2463 	 76.6393
|  9> C 	 54.4075 	 9.21339 	 75.7105
| 10> C 	 54.3239 	 8.80348 	 74.3329
| 11> C 	 54.614 	 7.49825 	 74.2373
| 12> H 	 54.0291 	 9.36238 	 73.4421
| 13> C 	 54.2856 	 10.6739 	 76.1581
| 14> H 	 55.0134 	 10.9213 	 76.9145
| 15> H 	 53.355 	 10.7839 	 76.597
| 16> C 	 54.256 	 11.7044 	 74.9893
| 17> H 	 55.2176 	 11.6847 	 74.4365
| 18> H 	 53.4057 	 11.4591 	 74.2828
| 19> C 	 53.9524 	 13.1087 	 75.5253
| 20> H 	 53.6723 	 13.8858 	 74.7398
| 21> H 	 53.1226 	 13.0505 	 76.2082
| 22> H 	 54.8801 	 13.4954 	 75.9656
| 23> S 	 53.6338 	 5.25914 	 72.7529
| 24> C 	 54.1649 	 5.10438 	 71.1251
| 25> C 	 55.0605 	 6.05576 	 70.743
| 26> C 	 55.3365 	 6.99716 	 71.8078
| 27> C 	 54.6752 	 6.71485 	 72.9688
| 28> H 	 55.3633 	 6.07388 	 69.6809
| 29> C 	 56.3473 	 8.15558 	 71.6812
| 30> H 	 56.7507 	 8.32723 	 72.6491
| 31> H 	 55.6539 	 8.98435 	 71.4476
| 32> C 	 57.2865 	 8.06983 	 70.4696
| 33> H 	 57.8782 	 9.02391 	 70.3741
| 34> H 	 56.702 	 7.88106 	 69.5538
| 35> C 	 58.4096 	 6.99374 	 70.5687
| 36> H 	 58.9526 	 6.85978 	 69.5799
| 37> H 	 57.9025 	 6.07047 	 70.874
| 38> H 	 59.0375 	 7.07837 	 71.4798
| 39> H 	 54.6543 	 8.49009 	 77.6678
| 40> H 	 53.5831 	 4.46087 	 70.4387
| 41> *
| 42>
| 43>                          ****END OF INPUT****

CARTESIAN COORDINATES (ANGSTROEM)
---------------------------------
  S     54.809900    6.780210   75.811600
  C     54.763000    8.246300   76.639300
  C     54.407500    9.213390   75.710500
  C     54.323900    8.803480   74.332900
  C     54.614000    7.498250   74.237300
  H     54.029100    9.362380   73.442100
  C     54.285600   10.673900   76.158100
  H     55.013400   10.921300   76.914500
  H     53.355000   10.783900   76.597000
  C     54.256000   11.704400   74.989300
  H     55.217600   11.684700   74.436500
  H     53.405700   11.459100   74.282800
  C     53.952400   13.108700   75.525300
  H     53.672300   13.885800   74.739800
  H     53.122600   13.050500   76.208200
  H     54.880100   13.495400   75.965600
  S     53.633800    5.259140   72.752900
  C     54.164900    5.104380   71.125100
  C     55.060500    6.055760   70.743000
  C     55.336500    6.997160   71.807800
  C     54.675200    6.714850   72.968800
  H     55.363300    6.073880   69.680900
  C     56.347300    8.155580   71.681200
  H     56.750700    8.327230   72.649100
  H     55.653900    8.984350   71.447600
  C     57.286500    8.069830   70.469600
  H     57.878200    9.023910   70.374100
  H     56.702000    7.881060   69.553800
  C     58.409600    6.993740   70.568700
  H     58.952600    6.859780   69.579900
  H     57.902500    6.070470   70.874000
  H     59.037500    7.078370   71.479800
  H     54.654300    8.490090   77.667800
  H     53.583100    4.460870   70.438700

 Total Charge           Charge          ....    0
 Multiplicity           Mult            ....    1
 Number of Electrons    NEL             ....  134
 Basis Dimension        Dim             ....  322

ORBITAL ENERGIES
----------------

  NO   OCC          E(Eh)            E(eV)
   0   2.0000     -88.963806     -2420.8282
   1   2.0000     -88.962477     -2420.7921
   2   2.0000     -10.327632      -281.0291
   3   2.0000     -10.327174      -281.0167
   4   2.0000     -10.316859      -280.7360
   5   2.0000     -10.307166      -280.4722
   6   2.0000     -10.305984      -280.4401
   7   2.0000     -10.299928      -280.2753
   8   2.0000     -10.296877      -280.1923
   9   2.0000     -10.295443      -280.1532
  10   2.0000     -10.294090      -280.1164
  11   2.0000     -10.293480      -280.0998
  12   2.0000     -10.292771      -280.0805
  13   2.0000     -10.284268      -279.8492
  14   2.0000     -10.282682      -279.8060
  15   2.0000     -10.281349      -279.7697
  16   2.0000      -8.079779      -219.8620
  17   2.0000      -8.077364      -219.7963
  18   2.0000      -6.038280      -164.3099
  19   2.0000      -6.035833      -164.2434
  20   2.0000      -6.034025      -164.1942
  21   2.0000      -6.031938      -164.1374
  22   2.0000      -6.030533      -164.0991
  23   2.0000      -6.028077      -164.0323
  24   2.0000      -1.012706       -27.5571
  25   2.0000      -0.989666       -26.9302
  26   2.0000      -0.909209       -24.7408
  27   2.0000      -0.906968       -24.6799
  28   2.0000      -0.875047       -23.8112
  29   2.0000      -0.847630       -23.0652
  30   2.0000      -0.841583       -22.9006
  31   2.0000      -0.821475       -22.3535
  32   2.0000      -0.782649       -21.2970
  33   2.0000      -0.768014       -20.8987
  34   2.0000      -0.708132       -19.2692
  35   2.0000      -0.696307       -18.9475
  36   2.0000      -0.686392       -18.6777
  37   2.0000      -0.649469       -17.6729
  38   2.0000      -0.644844       -17.5471
  39   2.0000      -0.618768       -16.8375
  40   2.0000      -0.597974       -16.2717
  41   2.0000      -0.575868       -15.6702
  42   2.0000      -0.569561       -15.4985
  43   2.0000      -0.548433       -14.9236
  44   2.0000      -0.536019       -14.5858
  45   2.0000      -0.524678       -14.2772
  46   2.0000      -0.519766       -14.1436
  47   2.0000      -0.513013       -13.9598
  48   2.0000      -0.505587       -13.7577
  49   2.0000      -0.501727       -13.6527
  50   2.0000      -0.489485       -13.3196
  51   2.0000      -0.480565       -13.0768
  52   2.0000      -0.470601       -12.8057
  53   2.0000      -0.465122       -12.6566
  54   2.0000      -0.460331       -12.5262
  55   2.0000      -0.453662       -12.3448
  56   2.0000      -0.439820       -11.9681
  57   2.0000      -0.434556       -11.8249
  58   2.0000      -0.433321       -11.7913
  59   2.0000      -0.429005       -11.6738
  60   2.0000      -0.419088       -11.4040
  61   2.0000      -0.408796       -11.1239
  62   2.0000      -0.403158       -10.9705
  63   2.0000      -0.352832        -9.6011
  64   2.0000      -0.329793        -8.9741
  65   2.0000      -0.327011        -8.8984
  66   2.0000      -0.296875        -8.0784
  67   0.0000       0.036806         1.0015
  68   0.0000       0.068217         1.8563
  69   0.0000       0.119299         3.2463
  70   0.0000       0.128232         3.4894
  71   0.0000       0.131896         3.5891

MULLIKEN ATOMIC CHARGES
-----------------------
   0 S :    0.119112
   1 C :   -0.081213
   2 C :   -0.129952
   3 C :    0.014977
   4 C :   -0.147722
   5 H :    0.027002
   6 C :    0.088141
   7 H :    0.029696
   8 H :    0.008777
   9 C :   -0.134053
  10 H :    0.041293
  11 H :    0.042948
  12 C :   -0.049745
  13 H :    0.041438
  14 H :    0.028767
  15 H :    0.034547
  16 S :    0.096493
  17 C :   -0.097406
  18 C :   -0.052713
  19 C :   -0.070032
  20 C :   -0.161788
  21 H :    0.033509
  22 C :    0.097690
  23 H :    0.039846
  24 H :    0.040755
  25 C :   -0.090425
  26 H :    0.042116
  27 H :    0.033984
  28 C :   -0.075531
  29 H :    0.058309
  30 H :    0.024007
  31 H :    0.033633
  32 H :    0.042697
  33 H :    0.070843
Sum of atomic charges:    0.0000000

LOEWDIN ATOMIC CHARGES
----------------------
   0 S :    0.434847
   1 C :   -0.223486
   2 C :   -0.058687
   3 C :   -0.069962
   4 C :   -0.192750
   5 H :    0.039915
   6 C :   -0.030679
   7 H :    0.029244
   8 H :    0.020889
   9 C :   -0.047031
  10 H :    0.024402
  11 H :    0.027947
  12 C :   -0.069842
  13 H :    0.032795
  14 H :    0.020573
  15 H :    0.025934
  16 S :    0.386532
  17 C :   -0.188655
  18 C :   -0.087039
  19 C :   -0.050771
  20 C :   -0.189809
  21 H :    0.039083
  22 C :   -0.028222
  23 H :    0.029113
  24 H :    0.041681
  25 C :   -0.046303
  26 H :    0.031918
  27 H :    0.025432
  28 C :   -0.083603
  29 H :    0.035951
  30 H :    0.023697
  31 H :    0.029881
  32 H :    0.031546
  33 H :    0.035459

  Mayer bond orders larger than 0.100000
B(  0-S ,  1-C ) :   1.1373 B(  0-S ,  4-C ) :   1.1707 B(  1-C ,  2-C ) :   1.6132
B(  1-C , 32-H ) :   0.9738 B(  2-C ,  3-C ) :   1.2411 B(  2-C ,  6-C ) :   1.0062
B(  3-C ,  4-C ) :   1.5650 B(  3-C ,  5-H ) :   0.9947 B(  4-C , 20-C ) :   1.0099
B(  6-C ,  7-H ) :   0.9525 B(  6-C ,  8-H ) :   0.9204 B(  6-C ,  9-C ) :   1.0841
B(  9-C , 10-H ) :   0.9585 B(  9-C , 11-H ) :   0.9461 B(  9-C , 12-C ) :   1.0772
B( 12-C , 13-H ) :   0.9746 B( 12-C , 14-H ) :   0.9748 B( 12-C , 15-H ) :   0.9756
B( 16-S , 17-C ) :   1.1648 B( 16-S , 20-C ) :   1.1192 B( 17-C , 18-C ) :   1.6371
B( 17-C , 33-H ) :   0.9544 B( 18-C , 19-C ) :   1.2064 B( 18-C , 21-H ) :   0.9838
B( 19-C , 20-C ) :   1.6587 B( 19-C , 22-C ) :   1.0065 B( 22-C , 23-H ) :   0.9430
B( 22-C , 24-H ) :   0.9218 B( 22-C , 25-C ) :   1.0819 B( 25-C , 26-H ) :   0.9558
B( 25-C , 27-H ) :   0.9458 B( 25-C , 28-C ) :   1.0726 B( 28-C , 29-H ) :   0.9745
B( 28-C , 30-H ) :   0.9730 B( 28-C , 31-H ) :   0.9704

Dispersion correction           -0.014033477
FINAL SINGLE POINT ENERGY     -1339.870747010331

DIPOLE MOMENT
-------------
                                X             Y             Z
Electronic contribution:     -9.91380     -24.46503       7.27987
Nuclear contribution   :      9.86364      25.13537      -7.57084
                        -----------------------------------------
Total Dipole Moment    :     -0.05016       0.67034      -0.29096
                        -----------------------------------------
Magnitude (a.u.)       :      0.73248
Magnitude (Debye)      :      1.86183

Rotational constants in cm-1:     0.018115     0.008262     0.006635
Rotational constants in MHz :   543.068105   247.678094   198.898452

                             ****ORCA TERMINATED NORMALLY****
TOTAL RUN TIME: 0 days 0 hours 0 minutes 29 seconds 42 msec
