                         Program Version 4.2.1 -  RELEASE  -
|  1> ! wB97X-D3 SP def2-SVP
|  2> %pal
|  3> nprocs 16
|  4> end
|  5>
|  6> * xyz 0 1
|  7> S 	 0.0940811 	 -16.4306 	 91.5936
|  8> C 	 0.34698 	 -15.4489 	 90.2334
|  9> C 	 0.451689 	 -16.212 	 89.0894
| 10> C 	 0.453813 	 -17.637 	 89.3495
| 11> C 	 0.407202 	 -17.933 	 90.7056
| 12> H 	 0.528847 	 -18.3889 	 88.6218
| 13> C 	 0.204587 	 -15.6226 	 87.6878
| 14> H 	 0.942982 	 -16.1493 	 87.073
| 15> H 	 0.529762 	 -14.6365 	 87.8403
| 16> C 	 -1.2182 	 -15.8082 	 87.1653
| 17> H 	 -1.27269 	 -15.3787 	 86.1318
| 18> H 	 -1.50439 	 -16.8252 	 86.8615
| 19> C 	 -2.32759 	 -15.2645 	 88.0541
| 20> H 	 -2.54165 	 -15.9601 	 88.8459
| 21> H 	 -2.12752 	 -14.2969 	 88.4406
| 22> H 	 -3.23778 	 -15.267 	 87.4649
| 23> S 	 1.31414 	 -19.3274 	 92.858
| 24> C 	 1.66085 	 -21.0009 	 92.7416
| 25> C 	 1.16491 	 -21.5409 	 91.5593
| 26> C 	 0.491064 	 -20.5575 	 90.7756
| 27> C 	 0.605075 	 -19.2521 	 91.2751
| 28> H 	 1.45186 	 -22.5145 	 91.2902
| 29> C 	 -0.0703949 	 -20.885 	 89.4057
| 30> H 	 -0.750997 	 -19.9998 	 89.126
| 31> H 	 -0.798356 	 -21.6487 	 89.3184
| 32> C 	 0.957554 	 -21.1319 	 88.312
| 33> H 	 1.35124 	 -22.1764 	 88.4547
| 34> H 	 1.82125 	 -20.3699 	 88.4401
| 35> C 	 0.396051 	 -21.1283 	 86.9236
| 36> H 	 0.367761 	 -20.1726 	 86.4952
| 37> H 	 -0.488026 	 -21.7811 	 86.9091
| 38> H 	 1.19394 	 -21.5759 	 86.3268
| 39> H 	 0.21071 	 -14.4027 	 90.2886
| 40> H 	 2.44224 	 -21.6016 	 93.2883
| 41> *
| 42>
| 43>                          ****END OF INPUT****

CARTESIAN COORDINATES (ANGSTROEM)
---------------------------------
  S      0.094081  -16.430600   91.593600
  C      0.346980  -15.448900   90.233400
  C      0.451689  -16.212000   89.089400
  C      0.453813  -17.637000   89.349500
  C      0.407202  -17.933000   90.705600
  H      0.528847  -18.388900   88.621800
  C      0.204587  -15.622600   87.687800
  H      0.942982  -16.149300   87.073000
  H      0.529762  -14.636500   87.840300
  C     -1.218200  -15.808200   87.165300
  H     -1.272690  -15.378700   86.131800
  H     -1.504390  -16.825200   86.861500
  C     -2.327590  -15.264500   88.054100
  H     -2.541650  -15.960100   88.845900
  H     -2.127520  -14.296900   88.440600
  H     -3.237780  -15.267000   87.464900
  S      1.314140  -19.327400   92.858000
  C      1.660850  -21.000900   92.741600
  C      1.164910  -21.540900   91.559300
  C      0.491064  -20.557500   90.775600
  C      0.605075  -19.252100   91.275100
  H      1.451860  -22.514500   91.290200
  C     -0.070395  -20.885000   89.405700
  H     -0.750997  -19.999800   89.126000
  H     -0.798356  -21.648700   89.318400
  C      0.957554  -21.131900   88.312000
  H      1.351240  -22.176400   88.454700
  H      1.821250  -20.369900   88.440100
  C      0.396051  -21.128300   86.923600
  H      0.367761  -20.172600   86.495200
  H     -0.488026  -21.781100   86.909100
  H      1.193940  -21.575900   86.326800
  H      0.210710  -14.402700   90.288600
  H      2.442240  -21.601600   93.288300

 Total Charge           Charge          ....    0
 Multiplicity           Mult            ....    1
 Number of Electrons    NEL             ....  134
 Basis Dimension        Dim             ....  322

ORBITAL ENERGIES
----------------

  NO   OCC          E(Eh)            E(eV)
   0   2.0000     -88.966053     -2420.8894
   1   2.0000     -88.965879     -2420.8847
   2   2.0000     -10.334386      -281.2129
   3   2.0000     -10.330170      -281.0982
   4   2.0000     -10.317716      -280.7593
   5   2.0000     -10.308445      -280.5071
   6   2.0000     -10.306512      -280.4544
   7   2.0000     -10.298863      -280.2463
   8   2.0000     -10.294160      -280.1183
   9   2.0000     -10.291549      -280.0473
  10   2.0000     -10.291323      -280.0411
  11   2.0000     -10.290274      -280.0126
  12   2.0000     -10.290093      -280.0077
  13   2.0000     -10.289856      -280.0012
  14   2.0000     -10.277160      -279.6557
  15   2.0000     -10.270349      -279.4704
  16   2.0000      -8.081653      -219.9129
  17   2.0000      -8.081161      -219.8996
  18   2.0000      -6.040141      -164.3606
  19   2.0000      -6.039760      -164.3502
  20   2.0000      -6.035902      -164.2452
  21   2.0000      -6.035619      -164.2375
  22   2.0000      -6.032493      -164.1525
  23   2.0000      -6.031768      -164.1327
  24   2.0000      -1.011028       -27.5115
  25   2.0000      -0.989118       -26.9153
  26   2.0000      -0.915796       -24.9201
  27   2.0000      -0.910496       -24.7759
  28   2.0000      -0.874565       -23.7981
  29   2.0000      -0.857629       -23.3373
  30   2.0000      -0.846312       -23.0293
  31   2.0000      -0.818890       -22.2831
  32   2.0000      -0.785310       -21.3694
  33   2.0000      -0.774131       -21.0652
  34   2.0000      -0.710572       -19.3356
  35   2.0000      -0.696386       -18.9496
  36   2.0000      -0.688757       -18.7420
  37   2.0000      -0.664791       -18.0899
  38   2.0000      -0.643112       -17.5000
  39   2.0000      -0.623085       -16.9550
  40   2.0000      -0.600175       -16.3316
  41   2.0000      -0.571508       -15.5515
  42   2.0000      -0.563922       -15.3451
  43   2.0000      -0.555949       -15.1282
  44   2.0000      -0.541906       -14.7460
  45   2.0000      -0.531001       -14.4493
  46   2.0000      -0.528141       -14.3714
  47   2.0000      -0.514266       -13.9939
  48   2.0000      -0.509572       -13.8662
  49   2.0000      -0.495847       -13.4927
  50   2.0000      -0.492290       -13.3959
  51   2.0000      -0.485737       -13.2176
  52   2.0000      -0.478961       -13.0332
  53   2.0000      -0.467756       -12.7283
  54   2.0000      -0.457910       -12.4604
  55   2.0000      -0.451098       -12.2750
  56   2.0000      -0.446510       -12.1502
  57   2.0000      -0.436064       -11.8659
  58   2.0000      -0.428925       -11.6716
  59   2.0000      -0.428165       -11.6510
  60   2.0000      -0.418955       -11.4003
  61   2.0000      -0.406625       -11.0648
  62   2.0000      -0.401098       -10.9144
  63   2.0000      -0.362751        -9.8710
  64   2.0000      -0.332672        -9.0525
  65   2.0000      -0.324557        -8.8317
  66   2.0000      -0.282861        -7.6970
  67   0.0000       0.020744         0.5645
  68   0.0000       0.077441         2.1073
  69   0.0000       0.105334         2.8663
  70   0.0000       0.118904         3.2356
  71   0.0000       0.128030         3.4839

MULLIKEN ATOMIC CHARGES
-----------------------
   0 S :    0.111466
   1 C :   -0.108611
   2 C :   -0.119881
   3 C :    0.026614
   4 C :   -0.105963
   5 H :   -0.033064
   6 C :    0.111352
   7 H :    0.024954
   8 H :    0.010390
   9 C :   -0.080591
  10 H :    0.028426
  11 H :    0.018997
  12 C :   -0.016254
  13 H :    0.038730
  14 H :    0.023398
  15 H :    0.025023
  16 S :    0.112940
  17 C :   -0.105142
  18 C :   -0.032266
  19 C :   -0.019107
  20 C :   -0.133648
  21 H :    0.005821
  22 C :    0.025828
  23 H :    0.029502
  24 H :    0.009968
  25 C :   -0.143631
  26 H :    0.032333
  27 H :    0.049276
  28 C :    0.002725
  29 H :    0.024290
  30 H :    0.040891
  31 H :    0.025224
  32 H :    0.040375
  33 H :    0.079635
Sum of atomic charges:   -0.0000000

LOEWDIN ATOMIC CHARGES
----------------------
   0 S :    0.412807
   1 C :   -0.207515
   2 C :   -0.064607
   3 C :   -0.058598
   4 C :   -0.181751
   5 H :    0.018891
   6 C :   -0.025534
   7 H :    0.032095
   8 H :    0.022780
   9 C :   -0.047604
  10 H :    0.028364
  11 H :    0.025792
  12 C :   -0.058175
  13 H :    0.027737
  14 H :    0.017512
  15 H :    0.028762
  16 S :    0.431285
  17 C :   -0.210769
  18 C :   -0.064481
  19 C :   -0.055881
  20 C :   -0.196389
  21 H :    0.024213
  22 C :   -0.048140
  23 H :    0.035699
  24 H :    0.021737
  25 C :   -0.052575
  26 H :    0.026766
  27 H :    0.030828
  28 C :   -0.063135
  29 H :    0.017912
  30 H :    0.031536
  31 H :    0.032611
  32 H :    0.021040
  33 H :    0.046788

  Mayer bond orders larger than 0.100000
B(  0-S ,  1-C ) :   1.1452 B(  0-S ,  4-C ) :   1.1436 B(  1-C ,  2-C ) :   1.5926
B(  1-C , 32-H ) :   0.9736 B(  2-C ,  3-C ) :   1.2422 B(  2-C ,  6-C ) :   1.0195
B(  3-C ,  4-C ) :   1.5422 B(  3-C ,  5-H ) :   1.0061 B(  4-C , 20-C ) :   1.0839
B(  6-C ,  7-H ) :   0.9343 B(  6-C ,  8-H ) :   0.9419 B(  6-C ,  9-C ) :   1.0714
B(  9-C , 10-H ) :   0.9544 B(  9-C , 11-H ) :   0.9502 B(  9-C , 12-C ) :   1.0789
B( 12-C , 13-H ) :   0.9718 B( 12-C , 14-H ) :   0.9782 B( 12-C , 15-H ) :   0.9694
B( 16-S , 17-C ) :   1.1732 B( 16-S , 20-C ) :   1.1452 B( 17-C , 18-C ) :   1.5996
B( 17-C , 33-H ) :   0.9558 B( 18-C , 19-C ) :   1.2507 B( 18-C , 21-H ) :   1.0005
B( 19-C , 20-C ) :   1.5570 B( 19-C , 22-C ) :   1.0461 B( 22-C , 23-H ) :   0.9404
B( 22-C , 24-H ) :   0.9273 B( 22-C , 25-C ) :   1.0529 B( 25-C , 26-H ) :   0.9512
B( 25-C , 27-H ) :   0.9529 B( 25-C , 28-C ) :   1.0895 B( 28-C , 29-H ) :   0.9722
B( 28-C , 30-H ) :   0.9670 B( 28-C , 31-H ) :   0.9670

Dispersion correction           -0.015189687
FINAL SINGLE POINT ENERGY     -1339.861469567822

DIPOLE MOMENT
-------------
                                X             Y             Z
Electronic contribution:      7.56221       2.24624      28.56949
Nuclear contribution   :     -7.55625      -2.49758     -29.34777
                        -----------------------------------------
Total Dipole Moment    :      0.00596      -0.25134      -0.77828
                        -----------------------------------------
Magnitude (a.u.)       :      0.81788
Magnitude (Debye)      :      2.07889

Rotational constants in cm-1:     0.018393     0.010090     0.007002
Rotational constants in MHz :   551.418944   302.492530   209.899814

                             ****ORCA TERMINATED NORMALLY****
TOTAL RUN TIME: 0 days 0 hours 0 minutes 35 seconds 778 msec
