                         Program Version 4.2.1 -  RELEASE  -
|  1> ! wB97X-D3 SP def2-SVP
|  2> %pal
|  3> nprocs 16
|  4> end
|  5>
|  6> * xyz 0 1
|  7> S 	 3.2027 	 -7.44212 	 77.6649
|  8> C 	 4.23475 	 -8.21832 	 78.7573
|  9> C 	 4.1473 	 -7.71058 	 80.0239
| 10> C 	 3.04295 	 -6.80759 	 80.1785
| 11> C 	 2.40783 	 -6.54119 	 78.9856
| 12> H 	 3.02236 	 -6.18753 	 81.0405
| 13> C 	 5.08018 	 -7.98117 	 81.1845
| 14> H 	 5.82861 	 -7.21679 	 81.2002
| 15> H 	 5.59231 	 -8.92191 	 81.0802
| 16> C 	 4.60268 	 -8.03119 	 82.6524
| 17> H 	 5.50782 	 -8.18672 	 83.2188
| 18> H 	 4.37358 	 -7.0003 	 82.9028
| 19> C 	 3.41756 	 -8.94176 	 82.9341
| 20> H 	 2.43938 	 -8.46781 	 82.7141
| 21> H 	 3.59375 	 -9.94857 	 82.499
| 22> H 	 3.36901 	 -9.12054 	 83.9199
| 23> S 	 1.97982 	 -4.17196 	 77.563
| 24> C 	 0.49009 	 -3.27619 	 77.7405
| 25> C 	 -0.242835 	 -3.78603 	 78.7769
| 26> C 	 0.33433 	 -4.96917 	 79.3642
| 27> C 	 1.51784 	 -5.33937 	 78.7567
| 28> H 	 -1.08067 	 -3.23874 	 79.0593
| 29> C 	 -0.413529 	 -5.76408 	 80.4469
| 30> H 	 -0.333651 	 -5.22194 	 81.3844
| 31> H 	 0.178586 	 -6.69347 	 80.5657
| 32> C 	 -1.96351 	 -6.03957 	 80.2551
| 33> H 	 -2.5456 	 -5.22149 	 79.9405
| 34> H 	 -2.43226 	 -6.23687 	 81.2305
| 35> C 	 -2.32611 	 -7.33783 	 79.3417
| 36> H 	 -2.19982 	 -8.3193 	 79.9321
| 37> H 	 -1.73703 	 -7.34664 	 78.4507
| 38> H 	 -3.34878 	 -7.3412 	 78.973
| 39> H 	 5.01961 	 -8.86213 	 78.429
| 40> H 	 0.311076 	 -2.3344 	 77.3656
| 41> *
| 42>
| 43>                          ****END OF INPUT****

CARTESIAN COORDINATES (ANGSTROEM)
---------------------------------
  S      3.202700   -7.442120   77.664900
  C      4.234750   -8.218320   78.757300
  C      4.147300   -7.710580   80.023900
  C      3.042950   -6.807590   80.178500
  C      2.407830   -6.541190   78.985600
  H      3.022360   -6.187530   81.040500
  C      5.080180   -7.981170   81.184500
  H      5.828610   -7.216790   81.200200
  H      5.592310   -8.921910   81.080200
  C      4.602680   -8.031190   82.652400
  H      5.507820   -8.186720   83.218800
  H      4.373580   -7.000300   82.902800
  C      3.417560   -8.941760   82.934100
  H      2.439380   -8.467810   82.714100
  H      3.593750   -9.948570   82.499000
  H      3.369010   -9.120540   83.919900
  S      1.979820   -4.171960   77.563000
  C      0.490090   -3.276190   77.740500
  C     -0.242835   -3.786030   78.776900
  C      0.334330   -4.969170   79.364200
  C      1.517840   -5.339370   78.756700
  H     -1.080670   -3.238740   79.059300
  C     -0.413529   -5.764080   80.446900
  H     -0.333651   -5.221940   81.384400
  H      0.178586   -6.693470   80.565700
  C     -1.963510   -6.039570   80.255100
  H     -2.545600   -5.221490   79.940500
  H     -2.432260   -6.236870   81.230500
  C     -2.326110   -7.337830   79.341700
  H     -2.199820   -8.319300   79.932100
  H     -1.737030   -7.346640   78.450700
  H     -3.348780   -7.341200   78.973000
  H      5.019610   -8.862130   78.429000
  H      0.311076   -2.334400   77.365600

 Total Charge           Charge          ....    0
 Multiplicity           Mult            ....    1
 Number of Electrons    NEL             ....  134
 Basis Dimension        Dim             ....  322

ORBITAL ENERGIES
----------------

  NO   OCC          E(Eh)            E(eV)
   0   2.0000     -88.968033     -2420.9433
   1   2.0000     -88.962100     -2420.7818
   2   2.0000     -10.336356      -281.2665
   3   2.0000     -10.329126      -281.0698
   4   2.0000     -10.308262      -280.5021
   5   2.0000     -10.307782      -280.4890
   6   2.0000     -10.302685      -280.3503
   7   2.0000     -10.298231      -280.2291
   8   2.0000     -10.295824      -280.1636
   9   2.0000     -10.292561      -280.0748
  10   2.0000     -10.291788      -280.0538
  11   2.0000     -10.287186      -279.9286
  12   2.0000     -10.286158      -279.9006
  13   2.0000     -10.285749      -279.8895
  14   2.0000     -10.280094      -279.7356
  15   2.0000     -10.272495      -279.5288
  16   2.0000      -8.083230      -219.9559
  17   2.0000      -8.077319      -219.7950
  18   2.0000      -6.041670      -164.4022
  19   2.0000      -6.037711      -164.2945
  20   2.0000      -6.035811      -164.2428
  21   2.0000      -6.033982      -164.1930
  22   2.0000      -6.031782      -164.1331
  23   2.0000      -6.028032      -164.0311
  24   2.0000      -1.007488       -27.4152
  25   2.0000      -0.988589       -26.9009
  26   2.0000      -0.912359       -24.8265
  27   2.0000      -0.891122       -24.2486
  28   2.0000      -0.870322       -23.6827
  29   2.0000      -0.851562       -23.1722
  30   2.0000      -0.837063       -22.7777
  31   2.0000      -0.820831       -22.3359
  32   2.0000      -0.787053       -21.4168
  33   2.0000      -0.771291       -20.9879
  34   2.0000      -0.709080       -19.2951
  35   2.0000      -0.701920       -19.1002
  36   2.0000      -0.694861       -18.9081
  37   2.0000      -0.658593       -17.9212
  38   2.0000      -0.642071       -17.4717
  39   2.0000      -0.628155       -17.0930
  40   2.0000      -0.591117       -16.0851
  41   2.0000      -0.570290       -15.5184
  42   2.0000      -0.561236       -15.2720
  43   2.0000      -0.542188       -14.7537
  44   2.0000      -0.541172       -14.7260
  45   2.0000      -0.527124       -14.3438
  46   2.0000      -0.518008       -14.0957
  47   2.0000      -0.508164       -13.8278
  48   2.0000      -0.501764       -13.6537
  49   2.0000      -0.497445       -13.5362
  50   2.0000      -0.489622       -13.3233
  51   2.0000      -0.481071       -13.0906
  52   2.0000      -0.472223       -12.8498
  53   2.0000      -0.462461       -12.5842
  54   2.0000      -0.455325       -12.3900
  55   2.0000      -0.450319       -12.2538
  56   2.0000      -0.441675       -12.0186
  57   2.0000      -0.435597       -11.8532
  58   2.0000      -0.431648       -11.7457
  59   2.0000      -0.425009       -11.5651
  60   2.0000      -0.423479       -11.5234
  61   2.0000      -0.413505       -11.2520
  62   2.0000      -0.410013       -11.1570
  63   2.0000      -0.354039        -9.6339
  64   2.0000      -0.328081        -8.9275
  65   2.0000      -0.327225        -8.9042
  66   2.0000      -0.295701        -8.0464
  67   0.0000       0.033141         0.9018
  68   0.0000       0.072222         1.9653
  69   0.0000       0.111840         3.0433
  70   0.0000       0.128649         3.5007
  71   0.0000       0.130481         3.5506

MULLIKEN ATOMIC CHARGES
-----------------------
   0 S :    0.115250
   1 C :   -0.106064
   2 C :   -0.099029
   3 C :    0.051570
   4 C :   -0.140264
   5 H :    0.014152
   6 C :    0.051734
   7 H :    0.031507
   8 H :    0.015366
   9 C :   -0.090551
  10 H :    0.023685
  11 H :    0.010373
  12 C :    0.015835
  13 H :    0.041552
  14 H :    0.033197
  15 H :   -0.000585
  16 S :    0.096685
  17 C :   -0.061719
  18 C :   -0.022118
  19 C :   -0.041239
  20 C :   -0.156398
  21 H :   -0.002838
  22 C :    0.070868
  23 H :    0.033188
  24 H :    0.033830
  25 C :   -0.065979
  26 H :    0.019592
  27 H :    0.025545
  28 C :   -0.084660
  29 H :    0.046686
  30 H :    0.040322
  31 H :    0.029717
  32 H :    0.040664
  33 H :    0.030126
Sum of atomic charges:    0.0000000

LOEWDIN ATOMIC CHARGES
----------------------
   0 S :    0.419827
   1 C :   -0.206868
   2 C :   -0.064246
   3 C :   -0.056118
   4 C :   -0.182694
   5 H :    0.029201
   6 C :   -0.033600
   7 H :    0.032149
   8 H :    0.025012
   9 C :   -0.041245
  10 H :    0.026521
  11 H :    0.016839
  12 C :   -0.060223
  13 H :    0.035670
  14 H :    0.033197
  15 H :    0.010591
  16 S :    0.406444
  17 C :   -0.174635
  18 C :   -0.060032
  19 C :   -0.063899
  20 C :   -0.199574
  21 H :    0.021055
  22 C :   -0.031000
  23 H :    0.032817
  24 H :    0.034283
  25 C :   -0.037220
  26 H :    0.014924
  27 H :    0.026618
  28 C :   -0.072416
  29 H :    0.033859
  30 H :    0.021441
  31 H :    0.023274
  32 H :    0.025289
  33 H :    0.014756

  Mayer bond orders larger than 0.100000
B(  0-S ,  1-C ) :   1.1482 B(  0-S ,  4-C ) :   1.1578 B(  1-C ,  2-C ) :   1.6186
B(  1-C , 32-H ) :   0.9678 B(  2-C ,  3-C ) :   1.2695 B(  2-C ,  6-C ) :   1.0176
B(  3-C ,  4-C ) :   1.5585 B(  3-C ,  5-H ) :   0.9863 B(  4-C , 20-C ) :   1.0102
B(  6-C ,  7-H ) :   0.9327 B(  6-C ,  8-H ) :   0.9455 B(  6-C ,  9-C ) :   1.0884
B(  9-C , 10-H ) :   0.9523 B(  9-C , 11-H ) :   0.9467 B(  9-C , 12-C ) :   1.0797
B( 12-C , 13-H ) :   0.9679 B( 12-C , 14-H ) :   0.9739 B( 12-C , 15-H ) :   0.9672
B( 16-S , 17-C ) :   1.1448 B( 16-S , 20-C ) :   1.1496 B( 17-C , 18-C ) :   1.6318
B( 17-C , 33-H ) :   0.9721 B( 18-C , 19-C ) :   1.2236 B( 18-C , 21-H ) :   1.0003
B( 19-C , 20-C ) :   1.6108 B( 19-C , 22-C ) :   1.0395 B( 22-C , 23-H ) :   0.9334
B( 22-C , 24-H ) :   0.9390 B( 22-C , 25-C ) :   1.0591 B( 25-C , 26-H ) :   0.9615
B( 25-C , 27-H ) :   0.9592 B( 25-C , 28-C ) :   1.0590 B( 28-C , 29-H ) :   0.9795
B( 28-C , 30-H ) :   0.9829 B( 28-C , 31-H ) :   0.9777

Dispersion correction           -0.014178299
FINAL SINGLE POINT ENERGY     -1339.859829688259

DIPOLE MOMENT
-------------
                                X             Y             Z
Electronic contribution:      8.81008      11.04567     -22.30309
Nuclear contribution   :     -8.70811     -10.95039      23.01025
                        -----------------------------------------
Total Dipole Moment    :      0.10197       0.09528       0.70715
                        -----------------------------------------
Magnitude (a.u.)       :      0.72079
Magnitude (Debye)      :      1.83211

Rotational constants in cm-1:     0.017446     0.008907     0.007148
Rotational constants in MHz :   523.008222   267.020635   214.306114

                             ****ORCA TERMINATED NORMALLY****
TOTAL RUN TIME: 0 days 0 hours 0 minutes 35 seconds 143 msec
