                         Program Version 4.2.1 -  RELEASE  -
|  1> ! wB97X-D3 SP def2-SVP
|  2> %pal
|  3> nprocs 16
|  4> end
|  5>
|  6> * xyz 0 1
|  7> S 	 -47.617 	 56.9067 	 97.1304
|  8> C 	 -49.0438 	 55.9446 	 97.3911
|  9> C 	 -48.6774 	 54.6075 	 97.308
| 10> C 	 -47.2236 	 54.3847 	 97.2428
| 11> C 	 -46.5202 	 55.579 	 97.1677
| 12> H 	 -46.7531 	 53.4673 	 97.2692
| 13> C 	 -49.5402 	 53.3974 	 97.485
| 14> H 	 -49.1067 	 52.6125 	 98.1792
| 15> H 	 -49.6734 	 52.923 	 96.5363
| 16> C 	 -50.975 	 53.5512 	 98.0596
| 17> H 	 -50.9908 	 54.1413 	 98.9146
| 18> H 	 -51.5874 	 54.0039 	 97.3618
| 19> C 	 -51.5625 	 52.1555 	 98.2436
| 20> H 	 -51.0198 	 51.6445 	 98.9613
| 21> H 	 -52.6717 	 52.1953 	 98.5237
| 22> H 	 -51.447 	 51.6814 	 97.2696
| 23> S 	 -44.8063 	 55.6018 	 94.9417
| 24> C 	 -43.1236 	 56.1284 	 95.1845
| 25> C 	 -42.8477 	 56.2806 	 96.4966
| 26> C 	 -43.9432 	 55.989 	 97.3459
| 27> C 	 -45.1473 	 55.6472 	 96.718
| 28> H 	 -41.9209 	 56.703 	 96.8204
| 29> C 	 -43.8211 	 56.1989 	 98.8709
| 30> H 	 -43.0565 	 55.5339 	 99.2675
| 31> H 	 -44.7517 	 55.9562 	 99.3825
| 32> C 	 -43.36 	 57.5884 	 99.3555
| 33> H 	 -42.4177 	 57.8118 	 98.8431
| 34> H 	 -43.0081 	 57.5809 	 100.357
| 35> C 	 -44.3125 	 58.7113 	 99.1866
| 36> H 	 -43.8578 	 59.6375 	 99.5338
| 37> H 	 -45.3116 	 58.5728 	 99.6254
| 38> H 	 -44.6172 	 59.0645 	 98.1784
| 39> H 	 -50.0352 	 56.3167 	 97.3131
| 40> H 	 -42.3504 	 56.4071 	 94.4023
| 41> *
| 42>
| 43>                          ****END OF INPUT****

CARTESIAN COORDINATES (ANGSTROEM)
---------------------------------
  S    -47.617000   56.906700   97.130400
  C    -49.043800   55.944600   97.391100
  C    -48.677400   54.607500   97.308000
  C    -47.223600   54.384700   97.242800
  C    -46.520200   55.579000   97.167700
  H    -46.753100   53.467300   97.269200
  C    -49.540200   53.397400   97.485000
  H    -49.106700   52.612500   98.179200
  H    -49.673400   52.923000   96.536300
  C    -50.975000   53.551200   98.059600
  H    -50.990800   54.141300   98.914600
  H    -51.587400   54.003900   97.361800
  C    -51.562500   52.155500   98.243600
  H    -51.019800   51.644500   98.961300
  H    -52.671700   52.195300   98.523700
  H    -51.447000   51.681400   97.269600
  S    -44.806300   55.601800   94.941700
  C    -43.123600   56.128400   95.184500
  C    -42.847700   56.280600   96.496600
  C    -43.943200   55.989000   97.345900
  C    -45.147300   55.647200   96.718000
  H    -41.920900   56.703000   96.820400
  C    -43.821100   56.198900   98.870900
  H    -43.056500   55.533900   99.267500
  H    -44.751700   55.956200   99.382500
  C    -43.360000   57.588400   99.355500
  H    -42.417700   57.811800   98.843100
  H    -43.008100   57.580900  100.357000
  C    -44.312500   58.711300   99.186600
  H    -43.857800   59.637500   99.533800
  H    -45.311600   58.572800   99.625400
  H    -44.617200   59.064500   98.178400
  H    -50.035200   56.316700   97.313100
  H    -42.350400   56.407100   94.402300

 Total Charge           Charge          ....    0
 Multiplicity           Mult            ....    1
 Number of Electrons    NEL             ....  134
 Basis Dimension        Dim             ....  322

ORBITAL ENERGIES
----------------

  NO   OCC          E(Eh)            E(eV)
   0   2.0000     -88.965462     -2420.8733
   1   2.0000     -88.962792     -2420.8006
   2   2.0000     -10.329762      -281.0871
   3   2.0000     -10.327872      -281.0357
   4   2.0000     -10.322924      -280.9010
   5   2.0000     -10.316298      -280.7207
   6   2.0000     -10.306178      -280.4454
   7   2.0000     -10.306053      -280.4420
   8   2.0000     -10.292727      -280.0793
   9   2.0000     -10.292189      -280.0647
  10   2.0000     -10.288859      -279.9741
  11   2.0000     -10.288344      -279.9601
  12   2.0000     -10.280444      -279.7451
  13   2.0000     -10.277750      -279.6718
  14   2.0000     -10.273372      -279.5527
  15   2.0000     -10.269758      -279.4543
  16   2.0000      -8.080684      -219.8866
  17   2.0000      -8.076270      -219.7665
  18   2.0000      -6.039241      -164.3361
  19   2.0000      -6.035011      -164.2210
  20   2.0000      -6.034938      -164.2190
  21   2.0000      -6.031517      -164.1259
  22   2.0000      -6.030945      -164.1104
  23   2.0000      -6.026838      -163.9986
  24   2.0000      -1.004851       -27.3434
  25   2.0000      -0.981168       -26.6989
  26   2.0000      -0.916726       -24.9454
  27   2.0000      -0.905503       -24.6400
  28   2.0000      -0.874652       -23.8005
  29   2.0000      -0.851197       -23.1623
  30   2.0000      -0.843035       -22.9402
  31   2.0000      -0.816359       -22.2142
  32   2.0000      -0.779483       -21.2108
  33   2.0000      -0.768543       -20.9131
  34   2.0000      -0.715023       -19.4568
  35   2.0000      -0.703044       -19.1308
  36   2.0000      -0.692826       -18.8528
  37   2.0000      -0.654178       -17.8011
  38   2.0000      -0.652308       -17.7502
  39   2.0000      -0.612070       -16.6553
  40   2.0000      -0.593317       -16.1450
  41   2.0000      -0.582704       -15.8562
  42   2.0000      -0.574930       -15.6446
  43   2.0000      -0.550779       -14.9875
  44   2.0000      -0.536407       -14.5964
  45   2.0000      -0.523259       -14.2386
  46   2.0000      -0.516293       -14.0491
  47   2.0000      -0.514896       -14.0110
  48   2.0000      -0.505794       -13.7634
  49   2.0000      -0.504915       -13.7394
  50   2.0000      -0.492367       -13.3980
  51   2.0000      -0.481209       -13.0944
  52   2.0000      -0.471321       -12.8253
  53   2.0000      -0.460200       -12.5227
  54   2.0000      -0.457710       -12.4549
  55   2.0000      -0.448827       -12.2132
  56   2.0000      -0.443581       -12.0704
  57   2.0000      -0.436240       -11.8707
  58   2.0000      -0.425083       -11.5671
  59   2.0000      -0.421024       -11.4566
  60   2.0000      -0.419537       -11.4162
  61   2.0000      -0.418662       -11.3924
  62   2.0000      -0.402555       -10.9541
  63   2.0000      -0.335576        -9.1315
  64   2.0000      -0.327026        -8.8988
  65   2.0000      -0.319751        -8.7009
  66   2.0000      -0.314175        -8.5491
  67   0.0000       0.042480         1.1559
  68   0.0000       0.045705         1.2437
  69   0.0000       0.111278         3.0280
  70   0.0000       0.124090         3.3767
  71   0.0000       0.130513         3.5514

MULLIKEN ATOMIC CHARGES
-----------------------
   0 S :    0.117317
   1 C :   -0.101213
   2 C :   -0.062277
   3 C :    0.040185
   4 C :   -0.131323
   5 H :   -0.008686
   6 C :   -0.016565
   7 H :    0.040679
   8 H :    0.031201
   9 C :   -0.028798
  10 H :    0.018467
  11 H :    0.006874
  12 C :   -0.049505
  13 H :    0.020503
  14 H :    0.046612
  15 H :    0.026897
  16 S :    0.095045
  17 C :   -0.106820
  18 C :   -0.021025
  19 C :   -0.016429
  20 C :   -0.173073
  21 H :    0.012809
  22 C :    0.072200
  23 H :    0.027663
  24 H :    0.026303
  25 C :   -0.049691
  26 H :    0.008966
  27 H :    0.018573
  28 C :   -0.052008
  29 H :    0.022279
  30 H :    0.030299
  31 H :    0.024596
  32 H :    0.050647
  33 H :    0.079299
Sum of atomic charges:   -0.0000000

LOEWDIN ATOMIC CHARGES
----------------------
   0 S :    0.428428
   1 C :   -0.199057
   2 C :   -0.059361
   3 C :   -0.038928
   4 C :   -0.212826
   5 H :    0.020402
   6 C :   -0.038895
   7 H :    0.038220
   8 H :    0.030261
   9 C :   -0.033097
  10 H :    0.012631
  11 H :    0.011915
  12 C :   -0.054986
  13 H :    0.011123
  14 H :    0.036018
  15 H :    0.026326
  16 S :    0.368143
  17 C :   -0.176292
  18 C :   -0.078603
  19 C :   -0.045465
  20 C :   -0.189308
  21 H :    0.029198
  22 C :   -0.027949
  23 H :    0.033445
  24 H :    0.027757
  25 C :   -0.045161
  26 H :    0.022192
  27 H :    0.024167
  28 C :   -0.077055
  29 H :    0.027029
  30 H :    0.026068
  31 H :    0.027546
  32 H :    0.027432
  33 H :    0.048682

  Mayer bond orders larger than 0.100000
B(  0-S ,  1-C ) :   1.1368 B(  0-S ,  4-C ) :   1.1623 B(  1-C ,  2-C ) :   1.6065
B(  1-C , 32-H ) :   0.9707 B(  2-C ,  3-C ) :   1.2340 B(  2-C ,  6-C ) :   1.0201
B(  3-C ,  4-C ) :   1.5480 B(  3-C ,  5-H ) :   1.0142 B(  4-C , 20-C ) :   1.0475
B(  6-C ,  7-H ) :   0.9601 B(  6-C ,  8-H ) :   0.9253 B(  6-C ,  9-C ) :   1.0779
B(  9-C , 10-H ) :   0.9564 B(  9-C , 11-H ) :   0.9448 B(  9-C , 12-C ) :   1.0839
B( 12-C , 13-H ) :   0.9792 B( 12-C , 14-H ) :   0.9715 B( 12-C , 15-H ) :   0.9735
B( 16-S , 17-C ) :   1.1471 B( 16-S , 20-C ) :   1.1059 B( 17-C , 18-C ) :   1.6373
B( 17-C , 33-H ) :   0.9528 B( 18-C , 19-C ) :   1.2321 B( 18-C , 21-H ) :   0.9910
B( 19-C , 20-C ) :   1.6079 B( 19-C , 22-C ) :   1.0417 B( 22-C , 23-H ) :   0.9319
B( 22-C , 24-H ) :   0.9408 B( 22-C , 25-C ) :   1.0811 B( 25-C , 26-H ) :   0.9456
B( 25-C , 27-H ) :   0.9484 B( 25-C , 28-C ) :   1.0823 B( 28-C , 29-H ) :   0.9685
B( 28-C , 30-H ) :   0.9727 B( 28-C , 31-H ) :   0.9727

Dispersion correction           -0.014111309
FINAL SINGLE POINT ENERGY     -1339.862389715191

DIPOLE MOMENT
-------------
                                X             Y             Z
Electronic contribution:      8.58456       4.89161     -15.51831
Nuclear contribution   :     -8.58253      -5.00936      15.75913
                        -----------------------------------------
Total Dipole Moment    :      0.00203      -0.11775       0.24082
                        -----------------------------------------
Magnitude (a.u.)       :      0.26808
Magnitude (Debye)      :      0.68140

Rotational constants in cm-1:     0.024242     0.006979     0.006221
Rotational constants in MHz :   726.754276   209.223577   186.495306

                             ****ORCA TERMINATED NORMALLY****
TOTAL RUN TIME: 0 days 0 hours 0 minutes 27 seconds 899 msec
