                         Program Version 4.2.1 -  RELEASE  -
|  1> ! wB97X-D3 SP def2-SVP
|  2> %pal
|  3> nprocs 16
|  4> end
|  5>
|  6> * xyz 0 1
|  7> S 	 -38.822 	 -0.682518 	 99.2376
|  8> C 	 -37.3585 	 -1.40354 	 99.8704
|  9> C 	 -36.3302 	 -0.503807 	 99.7321
| 10> C 	 -36.7565 	 0.86258 	 99.3495
| 11> C 	 -38.1067 	 0.857405 	 99.062
| 12> H 	 -36.2011 	 1.74986 	 99.2607
| 13> C 	 -34.8737 	 -0.818368 	 99.9518
| 14> H 	 -34.6331 	 -1.52294 	 99.1902
| 15> H 	 -34.883 	 -1.31816 	 100.954
| 16> C 	 -33.7816 	 0.275229 	 100.11
| 17> H 	 -34.0439 	 0.944145 	 100.919
| 18> H 	 -32.8048 	 -0.0853452 	 100.571
| 19> C 	 -33.444 	 1.08278 	 98.8658
| 20> H 	 -32.9886 	 2.0413 	 99.1637
| 21> H 	 -32.6484 	 0.68401 	 98.2763
| 22> H 	 -34.2651 	 1.2465 	 98.2521
| 23> S 	 -40.1942 	 2.3798 	 99.783
| 24> C 	 -40.653 	 3.78378 	 98.8866
| 25> C 	 -39.9892 	 3.83624 	 97.6732
| 26> C 	 -38.8823 	 2.91167 	 97.5958
| 27> C 	 -38.9375 	 1.995 	 98.6479
| 28> H 	 -40.3628 	 4.58018 	 96.937
| 29> C 	 -37.9064 	 2.77951 	 96.4057
| 30> H 	 -37.3587 	 1.80059 	 96.6516
| 31> H 	 -37.2201 	 3.61894 	 96.5457
| 32> C 	 -38.5215 	 2.76794 	 95.0026
| 33> H 	 -39.2189 	 3.59607 	 94.8947
| 34> H 	 -39.0369 	 1.82435 	 94.7974
| 35> C 	 -37.5297 	 3.01509 	 93.8112
| 36> H 	 -36.8722 	 3.85329 	 93.9139
| 37> H 	 -38.0371 	 3.10695 	 92.867
| 38> H 	 -36.7871 	 2.21494 	 93.8448
| 39> H 	 -37.21 	 -2.40411 	 100.36
| 40> H 	 -41.5151 	 4.3923 	 99.1197
| 41> *
| 42>
| 43>                          ****END OF INPUT****

CARTESIAN COORDINATES (ANGSTROEM)
---------------------------------
  S    -38.822000   -0.682518   99.237600
  C    -37.358500   -1.403540   99.870400
  C    -36.330200   -0.503807   99.732100
  C    -36.756500    0.862580   99.349500
  C    -38.106700    0.857405   99.062000
  H    -36.201100    1.749860   99.260700
  C    -34.873700   -0.818368   99.951800
  H    -34.633100   -1.522940   99.190200
  H    -34.883000   -1.318160  100.954000
  C    -33.781600    0.275229  100.110000
  H    -34.043900    0.944145  100.919000
  H    -32.804800   -0.085345  100.571000
  C    -33.444000    1.082780   98.865800
  H    -32.988600    2.041300   99.163700
  H    -32.648400    0.684010   98.276300
  H    -34.265100    1.246500   98.252100
  S    -40.194200    2.379800   99.783000
  C    -40.653000    3.783780   98.886600
  C    -39.989200    3.836240   97.673200
  C    -38.882300    2.911670   97.595800
  C    -38.937500    1.995000   98.647900
  H    -40.362800    4.580180   96.937000
  C    -37.906400    2.779510   96.405700
  H    -37.358700    1.800590   96.651600
  H    -37.220100    3.618940   96.545700
  C    -38.521500    2.767940   95.002600
  H    -39.218900    3.596070   94.894700
  H    -39.036900    1.824350   94.797400
  C    -37.529700    3.015090   93.811200
  H    -36.872200    3.853290   93.913900
  H    -38.037100    3.106950   92.867000
  H    -36.787100    2.214940   93.844800
  H    -37.210000   -2.404110  100.360000
  H    -41.515100    4.392300   99.119700

 Total Charge           Charge          ....    0
 Multiplicity           Mult            ....    1
 Number of Electrons    NEL             ....  134
 Basis Dimension        Dim             ....  322

ORBITAL ENERGIES
----------------

  NO   OCC          E(Eh)            E(eV)
   0   2.0000     -88.964662     -2420.8515
   1   2.0000     -88.962607     -2420.7956
   2   2.0000     -10.326529      -280.9991
   3   2.0000     -10.324869      -280.9540
   4   2.0000     -10.314668      -280.6764
   5   2.0000     -10.313800      -280.6528
   6   2.0000     -10.309409      -280.5333
   7   2.0000     -10.305497      -280.4268
   8   2.0000     -10.300071      -280.2792
   9   2.0000     -10.298011      -280.2231
  10   2.0000     -10.292965      -280.0858
  11   2.0000     -10.292929      -280.0849
  12   2.0000     -10.292419      -280.0710
  13   2.0000     -10.290300      -280.0133
  14   2.0000     -10.275934      -279.6224
  15   2.0000     -10.270378      -279.4712
  16   2.0000      -8.080123      -219.8713
  17   2.0000      -8.078156      -219.8178
  18   2.0000      -6.038761      -164.3230
  19   2.0000      -6.036567      -164.2633
  20   2.0000      -6.034449      -164.2057
  21   2.0000      -6.032487      -164.1523
  22   2.0000      -6.030764      -164.1054
  23   2.0000      -6.029014      -164.0578
  24   2.0000      -1.009694       -27.4752
  25   2.0000      -0.985080       -26.8054
  26   2.0000      -0.909943       -24.7608
  27   2.0000      -0.902964       -24.5709
  28   2.0000      -0.870985       -23.7007
  29   2.0000      -0.849272       -23.1099
  30   2.0000      -0.843151       -22.9433
  31   2.0000      -0.818249       -22.2657
  32   2.0000      -0.784606       -21.3502
  33   2.0000      -0.772786       -21.0286
  34   2.0000      -0.710795       -19.3417
  35   2.0000      -0.700770       -19.0689
  36   2.0000      -0.691345       -18.8125
  37   2.0000      -0.654180       -17.8011
  38   2.0000      -0.639801       -17.4099
  39   2.0000      -0.616320       -16.7709
  40   2.0000      -0.589801       -16.0493
  41   2.0000      -0.566757       -15.4223
  42   2.0000      -0.561386       -15.2761
  43   2.0000      -0.548505       -14.9256
  44   2.0000      -0.541233       -14.7277
  45   2.0000      -0.530760       -14.4427
  46   2.0000      -0.518847       -14.1186
  47   2.0000      -0.514516       -14.0007
  48   2.0000      -0.508425       -13.8349
  49   2.0000      -0.499698       -13.5975
  50   2.0000      -0.497204       -13.5296
  51   2.0000      -0.480101       -13.0642
  52   2.0000      -0.465929       -12.6786
  53   2.0000      -0.465016       -12.6537
  54   2.0000      -0.457585       -12.4515
  55   2.0000      -0.448602       -12.2071
  56   2.0000      -0.447010       -12.1638
  57   2.0000      -0.437605       -11.9078
  58   2.0000      -0.436356       -11.8739
  59   2.0000      -0.427260       -11.6263
  60   2.0000      -0.423028       -11.5112
  61   2.0000      -0.409785       -11.1508
  62   2.0000      -0.400520       -10.8987
  63   2.0000      -0.340620        -9.2687
  64   2.0000      -0.327798        -8.9198
  65   2.0000      -0.322650        -8.7798
  66   2.0000      -0.300812        -8.1855
  67   0.0000       0.037540         1.0215
  68   0.0000       0.069968         1.9039
  69   0.0000       0.115943         3.1550
  70   0.0000       0.123120         3.3503
  71   0.0000       0.131321         3.5734

MULLIKEN ATOMIC CHARGES
-----------------------
   0 S :    0.120154
   1 C :   -0.149192
   2 C :   -0.095966
   3 C :    0.055446
   4 C :   -0.158254
   5 H :    0.000750
   6 C :    0.049476
   7 H :    0.043659
   8 H :    0.040101
   9 C :   -0.086346
  10 H :    0.023113
  11 H :    0.032505
  12 C :   -0.029397
  13 H :    0.025387
  14 H :    0.023833
  15 H :    0.022417
  16 S :    0.116455
  17 C :   -0.093982
  18 C :   -0.066697
  19 C :   -0.023409
  20 C :   -0.183646
  21 H :    0.037550
  22 C :    0.060060
  23 H :    0.049802
  24 H :    0.034088
  25 C :   -0.082207
  26 H :    0.028235
  27 H :    0.044190
  28 C :   -0.040762
  29 H :    0.015337
  30 H :    0.040333
  31 H :    0.021336
  32 H :    0.068394
  33 H :    0.057237
Sum of atomic charges:    0.0000000

LOEWDIN ATOMIC CHARGES
----------------------
   0 S :    0.422821
   1 C :   -0.221498
   2 C :   -0.054328
   3 C :   -0.065481
   4 C :   -0.207404
   5 H :    0.025497
   6 C :   -0.039714
   7 H :    0.031015
   8 H :    0.043783
   9 C :   -0.050159
  10 H :    0.023245
  11 H :    0.036158
  12 C :   -0.066510
  13 H :    0.032046
  14 H :    0.023398
  15 H :    0.012898
  16 S :    0.424746
  17 C :   -0.194199
  18 C :   -0.078756
  19 C :   -0.054766
  20 C :   -0.210735
  21 H :    0.038015
  22 C :   -0.035720
  23 H :    0.041248
  24 H :    0.032470
  25 C :   -0.038891
  26 H :    0.021100
  27 H :    0.030582
  28 C :   -0.064161
  29 H :    0.019325
  30 H :    0.026338
  31 H :    0.023872
  32 H :    0.045508
  33 H :    0.028257

  Mayer bond orders larger than 0.100000
B(  0-S ,  1-C ) :   1.1115 B(  0-S ,  4-C ) :   1.1800 B(  1-C ,  2-C ) :   1.6418
B(  1-C , 32-H ) :   0.9674 B(  2-C ,  3-C ) :   1.2010 B(  2-C ,  6-C ) :   1.0006
B(  3-C ,  4-C ) :   1.5789 B(  3-C ,  5-H ) :   1.0001 B(  4-C , 20-C ) :   0.9883
B(  6-C ,  7-H ) :   0.9438 B(  6-C ,  8-H ) :   0.9386 B(  6-C ,  9-C ) :   1.0808
B(  9-C , 10-H ) :   0.9566 B(  9-C , 11-H ) :   0.9542 B(  9-C , 12-C ) :   1.0709
B( 12-C , 13-H ) :   0.9713 B( 12-C , 14-H ) :   0.9725 B( 12-C , 15-H ) :   0.9797
B( 16-S , 17-C ) :   1.1644 B( 16-S , 20-C ) :   1.1621 B( 17-C , 18-C ) :   1.6192
B( 17-C , 20-C ) :   0.1030 B( 17-C , 33-H ) :   0.9654 B( 18-C , 19-C ) :   1.2201
B( 18-C , 21-H ) :   0.9828 B( 19-C , 20-C ) :   1.6005 B( 19-C , 22-C ) :   1.0270
B( 22-C , 23-H ) :   0.9368 B( 22-C , 24-H ) :   0.9298 B( 22-C , 25-C ) :   1.0653
B( 25-C , 26-H ) :   0.9573 B( 25-C , 27-H ) :   0.9572 B( 25-C , 28-C ) :   1.0784
B( 28-C , 29-H ) :   0.9750 B( 28-C , 30-H ) :   0.9769 B( 28-C , 31-H ) :   0.9754

Dispersion correction           -0.013968213
FINAL SINGLE POINT ENERGY     -1339.867900698319

DIPOLE MOMENT
-------------
                                X             Y             Z
Electronic contribution:    -23.19582      -5.17305      15.24573
Nuclear contribution   :     23.67487       5.38048     -15.50049
                        -----------------------------------------
Total Dipole Moment    :      0.47905       0.20744      -0.25475
                        -----------------------------------------
Magnitude (a.u.)       :      0.58088
Magnitude (Debye)      :      1.47648

Rotational constants in cm-1:     0.015834     0.009272     0.007054
Rotational constants in MHz :   474.689612   277.979542   211.461735

                             ****ORCA TERMINATED NORMALLY****
TOTAL RUN TIME: 0 days 0 hours 0 minutes 29 seconds 358 msec
