                         Program Version 4.2.1 -  RELEASE  -
|  1> ! wB97X-D3 SP def2-SVP
|  2> %pal
|  3> nprocs 16
|  4> end
|  5>
|  6> * xyz 0 1
|  7> S 	 3.76785 	 -22.2462 	 61.8023
|  8> C 	 4.45562 	 -20.6812 	 61.235
|  9> C 	 3.56564 	 -19.6611 	 61.4397
| 10> C 	 2.36313 	 -20.1897 	 62.0634
| 11> C 	 2.3932 	 -21.514 	 62.4457
| 12> H 	 1.41814 	 -19.6709 	 62.2763
| 13> C 	 3.85431 	 -18.1651 	 61.1231
| 14> H 	 3.58007 	 -17.845 	 60.0927
| 15> H 	 4.87799 	 -18.0826 	 61.2619
| 16> C 	 3.16844 	 -17.1471 	 61.9843
| 17> H 	 3.26309 	 -16.1624 	 61.5544
| 18> H 	 2.0965 	 -17.3488 	 61.9639
| 19> C 	 3.56377 	 -17.1612 	 63.4341
| 20> H 	 4.55361 	 -16.6531 	 63.6764
| 21> H 	 2.86487 	 -16.5391 	 64.0488
| 22> H 	 3.60674 	 -18.1668 	 63.8342
| 23> S 	 0.928783 	 -23.8316 	 62.2381
| 24> C 	 -0.0250611 	 -24.3097 	 63.5857
| 25> C 	 -0.112007 	 -23.2891 	 64.4602
| 26> C 	 0.689495 	 -22.1424 	 64.1825
| 27> C 	 1.3218 	 -22.3428 	 63.0179
| 28> H 	 -0.820123 	 -23.4344 	 65.3111
| 29> C 	 0.924711 	 -20.9777 	 65.1241
| 30> H 	 0.0405541 	 -20.4508 	 65.4718
| 31> H 	 1.53328 	 -20.2752 	 64.5684
| 32> C 	 1.8579 	 -21.34 	 66.2746
| 33> H 	 1.37383 	 -21.9444 	 66.9882
| 34> H 	 2.06767 	 -20.3927 	 66.8195
| 35> C 	 3.20678 	 -22.0718 	 65.9467
| 36> H 	 3.81265 	 -21.6219 	 65.1833
| 37> H 	 3.01185 	 -23.1064 	 65.8173
| 38> H 	 3.93854 	 -21.9767 	 66.7691
| 39> H 	 5.4456 	 -20.5269 	 60.809
| 40> H 	 -0.476706 	 -25.332 	 63.7759
| 41> *
| 42>
| 43>                          ****END OF INPUT****

CARTESIAN COORDINATES (ANGSTROEM)
---------------------------------
  S      3.767850  -22.246200   61.802300
  C      4.455620  -20.681200   61.235000
  C      3.565640  -19.661100   61.439700
  C      2.363130  -20.189700   62.063400
  C      2.393200  -21.514000   62.445700
  H      1.418140  -19.670900   62.276300
  C      3.854310  -18.165100   61.123100
  H      3.580070  -17.845000   60.092700
  H      4.877990  -18.082600   61.261900
  C      3.168440  -17.147100   61.984300
  H      3.263090  -16.162400   61.554400
  H      2.096500  -17.348800   61.963900
  C      3.563770  -17.161200   63.434100
  H      4.553610  -16.653100   63.676400
  H      2.864870  -16.539100   64.048800
  H      3.606740  -18.166800   63.834200
  S      0.928783  -23.831600   62.238100
  C     -0.025061  -24.309700   63.585700
  C     -0.112007  -23.289100   64.460200
  C      0.689495  -22.142400   64.182500
  C      1.321800  -22.342800   63.017900
  H     -0.820123  -23.434400   65.311100
  C      0.924711  -20.977700   65.124100
  H      0.040554  -20.450800   65.471800
  H      1.533280  -20.275200   64.568400
  C      1.857900  -21.340000   66.274600
  H      1.373830  -21.944400   66.988200
  H      2.067670  -20.392700   66.819500
  C      3.206780  -22.071800   65.946700
  H      3.812650  -21.621900   65.183300
  H      3.011850  -23.106400   65.817300
  H      3.938540  -21.976700   66.769100
  H      5.445600  -20.526900   60.809000
  H     -0.476706  -25.332000   63.775900

 Total Charge           Charge          ....    0
 Multiplicity           Mult            ....    1
 Number of Electrons    NEL             ....  134
 Basis Dimension        Dim             ....  322

ORBITAL ENERGIES
----------------

  NO   OCC          E(Eh)            E(eV)
   0   2.0000     -88.964433     -2420.8453
   1   2.0000     -88.963698     -2420.8253
   2   2.0000     -10.324304      -280.9386
   3   2.0000     -10.320439      -280.8334
   4   2.0000     -10.316775      -280.7337
   5   2.0000     -10.315363      -280.6953
   6   2.0000     -10.307756      -280.4883
   7   2.0000     -10.297479      -280.2086
   8   2.0000     -10.294409      -280.1251
   9   2.0000     -10.292572      -280.0751
  10   2.0000     -10.291013      -280.0327
  11   2.0000     -10.289193      -279.9832
  12   2.0000     -10.282531      -279.8019
  13   2.0000     -10.282468      -279.8002
  14   2.0000     -10.279986      -279.7326
  15   2.0000     -10.269871      -279.4574
  16   2.0000      -8.080431      -219.8797
  17   2.0000      -8.078870      -219.8372
  18   2.0000      -6.038897      -164.3268
  19   2.0000      -6.037361      -164.2850
  20   2.0000      -6.034851      -164.2167
  21   2.0000      -6.033280      -164.1739
  22   2.0000      -6.031049      -164.1132
  23   2.0000      -6.029606      -164.0739
  24   2.0000      -1.018653       -27.7190
  25   2.0000      -0.990545       -26.9541
  26   2.0000      -0.919611       -25.0239
  27   2.0000      -0.909667       -24.7533
  28   2.0000      -0.872858       -23.7517
  29   2.0000      -0.847933       -23.0734
  30   2.0000      -0.836626       -22.7657
  31   2.0000      -0.815137       -22.1810
  32   2.0000      -0.789469       -21.4826
  33   2.0000      -0.781548       -21.2670
  34   2.0000      -0.708417       -19.2770
  35   2.0000      -0.696519       -18.9532
  36   2.0000      -0.690706       -18.7951
  37   2.0000      -0.653684       -17.7877
  38   2.0000      -0.641227       -17.4487
  39   2.0000      -0.618353       -16.8262
  40   2.0000      -0.599494       -16.3131
  41   2.0000      -0.568133       -15.4597
  42   2.0000      -0.557147       -15.1607
  43   2.0000      -0.551939       -15.0190
  44   2.0000      -0.545030       -14.8310
  45   2.0000      -0.540642       -14.7116
  46   2.0000      -0.521452       -14.1894
  47   2.0000      -0.507600       -13.8125
  48   2.0000      -0.500191       -13.6109
  49   2.0000      -0.496404       -13.5078
  50   2.0000      -0.486698       -13.2437
  51   2.0000      -0.481114       -13.0918
  52   2.0000      -0.471325       -12.8254
  53   2.0000      -0.466994       -12.7075
  54   2.0000      -0.459618       -12.5069
  55   2.0000      -0.445243       -12.1157
  56   2.0000      -0.441027       -12.0010
  57   2.0000      -0.437588       -11.9074
  58   2.0000      -0.436499       -11.8777
  59   2.0000      -0.421916       -11.4809
  60   2.0000      -0.416223       -11.3260
  61   2.0000      -0.415297       -11.3008
  62   2.0000      -0.408974       -11.1287
  63   2.0000      -0.349247        -9.5035
  64   2.0000      -0.334200        -9.0941
  65   2.0000      -0.327932        -8.9235
  66   2.0000      -0.298201        -8.1145
  67   0.0000       0.035408         0.9635
  68   0.0000       0.077423         2.1068
  69   0.0000       0.114757         3.1227
  70   0.0000       0.121050         3.2939
  71   0.0000       0.131676         3.5831

MULLIKEN ATOMIC CHARGES
-----------------------
   0 S :    0.102756
   1 C :   -0.138697
   2 C :   -0.089253
   3 C :    0.011635
   4 C :   -0.165375
   5 H :    0.021343
   6 C :    0.127449
   7 H :    0.047543
   8 H :    0.003586
   9 C :   -0.074767
  10 H :    0.024958
  11 H :    0.025345
  12 C :   -0.088423
  13 H :    0.032526
  14 H :    0.033372
  15 H :    0.047516
  16 S :    0.119997
  17 C :   -0.121195
  18 C :   -0.056951
  19 C :   -0.044454
  20 C :   -0.155921
  21 H :    0.026749
  22 C :    0.139724
  23 H :    0.033705
  24 H :    0.002788
  25 C :   -0.090383
  26 H :    0.014711
  27 H :    0.028649
  28 C :   -0.044674
  29 H :    0.030759
  30 H :    0.042246
  31 H :    0.024315
  32 H :    0.048891
  33 H :    0.079532
Sum of atomic charges:    0.0000000

LOEWDIN ATOMIC CHARGES
----------------------
   0 S :    0.412969
   1 C :   -0.185035
   2 C :   -0.059314
   3 C :   -0.077424
   4 C :   -0.209101
   5 H :    0.030672
   6 C :   -0.022301
   7 H :    0.041448
   8 H :    0.020312
   9 C :   -0.048450
  10 H :    0.026119
  11 H :    0.024752
  12 C :   -0.075196
  13 H :    0.028854
  14 H :    0.029491
  15 H :    0.024129
  16 S :    0.418650
  17 C :   -0.206354
  18 C :   -0.079033
  19 C :   -0.059257
  20 C :   -0.201303
  21 H :    0.035887
  22 C :   -0.028218
  23 H :    0.033797
  24 H :    0.029134
  25 C :   -0.035141
  26 H :    0.012428
  27 H :    0.026578
  28 C :   -0.065560
  29 H :    0.022365
  30 H :    0.023699
  31 H :    0.031411
  32 H :    0.030901
  33 H :    0.048093

  Mayer bond orders larger than 0.100000
B(  0-S ,  1-C ) :   1.1286 B(  0-S ,  4-C ) :   1.1574 B(  1-C ,  2-C ) :   1.6350
B(  1-C , 32-H ) :   0.9686 B(  2-C ,  3-C ) :   1.2200 B(  2-C ,  6-C ) :   0.9960
B(  3-C ,  4-C ) :   1.5910 B(  3-C ,  5-H ) :   0.9818 B(  4-C , 20-C ) :   0.9977
B(  6-C ,  7-H ) :   0.9354 B(  6-C ,  8-H ) :   0.9402 B(  6-C ,  9-C ) :   1.0920
B(  9-C , 10-H ) :   0.9503 B(  9-C , 11-H ) :   0.9467 B(  9-C , 12-C ) :   1.0829
B( 12-C , 13-H ) :   0.9711 B( 12-C , 14-H ) :   0.9736 B( 12-C , 15-H ) :   0.9740
B( 16-S , 17-C ) :   1.1354 B( 16-S , 20-C ) :   1.1505 B( 17-C , 18-C ) :   1.6498
B( 17-C , 33-H ) :   0.9584 B( 18-C , 19-C ) :   1.2095 B( 18-C , 21-H ) :   0.9848
B( 19-C , 20-C ) :   1.6314 B( 19-C , 22-C ) :   1.0488 B( 22-C , 23-H ) :   0.9328
B( 22-C , 24-H ) :   0.9156 B( 22-C , 25-C ) :   1.0722 B( 25-C , 26-H ) :   0.9589
B( 25-C , 27-H ) :   0.9589 B( 25-C , 28-C ) :   1.0714 B( 28-C , 29-H ) :   0.9745
B( 28-C , 30-H ) :   0.9751 B( 28-C , 31-H ) :   0.9720

Dispersion correction           -0.016078843
FINAL SINGLE POINT ENERGY     -1339.877259770492

DIPOLE MOMENT
-------------
                                X             Y             Z
Electronic contribution:     -4.80468     -22.05454     -14.59511
Nuclear contribution   :      4.74159      22.55352      14.91454
                        -----------------------------------------
Total Dipole Moment    :     -0.06310       0.49899       0.31943
                        -----------------------------------------
Magnitude (a.u.)       :      0.59582
Magnitude (Debye)      :      1.51445

Rotational constants in cm-1:     0.020728     0.009810     0.008024
Rotational constants in MHz :   621.424338   294.094755   240.549113

                             ****ORCA TERMINATED NORMALLY****
TOTAL RUN TIME: 0 days 0 hours 0 minutes 37 seconds 774 msec
