                         Program Version 4.2.1 -  RELEASE  -
|  1> ! wB97X-D3 SP def2-SVP
|  2> %pal
|  3> nprocs 16
|  4> end
|  5>
|  6> * xyz 0 1
|  7> S 	 -4.10239 	 -16.5661 	 84.788
|  8> C 	 -3.93197 	 -16.5119 	 86.5882
|  9> C 	 -4.78571 	 -15.7661 	 87.2944
| 10> C 	 -5.59041 	 -15.0023 	 86.3516
| 11> C 	 -5.3776 	 -15.3071 	 84.9706
| 12> H 	 -6.21403 	 -14.1671 	 86.5745
| 13> C 	 -4.8877 	 -15.6499 	 88.7856
| 14> H 	 -4.07325 	 -14.9896 	 89.1203
| 15> H 	 -4.63953 	 -16.5943 	 89.2092
| 16> C 	 -6.23506 	 -15.0993 	 89.1995
| 17> H 	 -6.18319 	 -14.031 	 89.0607
| 18> H 	 -7.05109 	 -15.6201 	 88.7026
| 19> C 	 -6.53812 	 -15.2722 	 90.6601
| 20> H 	 -5.80339 	 -14.7933 	 91.3369
| 21> H 	 -7.5622 	 -14.8241 	 90.7223
| 22> H 	 -6.58711 	 -16.2781 	 90.9707
| 23> S 	 -5.51984 	 -13.0293 	 83.3214
| 24> C 	 -7.12944 	 -12.6158 	 82.6524
| 25> C 	 -7.96826 	 -13.662 	 82.8227
| 26> C 	 -7.39898 	 -14.7859 	 83.4798
| 27> C 	 -6.06298 	 -14.6094 	 83.84
| 28> H 	 -8.94928 	 -13.409 	 82.4911
| 29> C 	 -8.19275 	 -16.0504 	 83.8106
| 30> H 	 -7.64885 	 -17.0029 	 84.0009
| 31> H 	 -8.85817 	 -16.3626 	 83.0266
| 32> C 	 -8.88884 	 -15.9526 	 85.1729
| 33> H 	 -9.55007 	 -15.0523 	 85.33
| 34> H 	 -8.05161 	 -15.8681 	 85.9183
| 35> C 	 -9.81336 	 -17.1127 	 85.5138
| 36> H 	 -9.19661 	 -18.067 	 85.4047
| 37> H 	 -10.7464 	 -17.16 	 84.9892
| 38> H 	 -10.1081 	 -17.1781 	 86.5605
| 39> H 	 -3.18516 	 -17.1114 	 87.0899
| 40> H 	 -7.36131 	 -11.7148 	 82.0203
| 41> *
| 42>
| 43>                          ****END OF INPUT****

CARTESIAN COORDINATES (ANGSTROEM)
---------------------------------
  S     -4.102390  -16.566100   84.788000
  C     -3.931970  -16.511900   86.588200
  C     -4.785710  -15.766100   87.294400
  C     -5.590410  -15.002300   86.351600
  C     -5.377600  -15.307100   84.970600
  H     -6.214030  -14.167100   86.574500
  C     -4.887700  -15.649900   88.785600
  H     -4.073250  -14.989600   89.120300
  H     -4.639530  -16.594300   89.209200
  C     -6.235060  -15.099300   89.199500
  H     -6.183190  -14.031000   89.060700
  H     -7.051090  -15.620100   88.702600
  C     -6.538120  -15.272200   90.660100
  H     -5.803390  -14.793300   91.336900
  H     -7.562200  -14.824100   90.722300
  H     -6.587110  -16.278100   90.970700
  S     -5.519840  -13.029300   83.321400
  C     -7.129440  -12.615800   82.652400
  C     -7.968260  -13.662000   82.822700
  C     -7.398980  -14.785900   83.479800
  C     -6.062980  -14.609400   83.840000
  H     -8.949280  -13.409000   82.491100
  C     -8.192750  -16.050400   83.810600
  H     -7.648850  -17.002900   84.000900
  H     -8.858170  -16.362600   83.026600
  C     -8.888840  -15.952600   85.172900
  H     -9.550070  -15.052300   85.330000
  H     -8.051610  -15.868100   85.918300
  C     -9.813360  -17.112700   85.513800
  H     -9.196610  -18.067000   85.404700
  H    -10.746400  -17.160000   84.989200
  H    -10.108100  -17.178100   86.560500
  H     -3.185160  -17.111400   87.089900
  H     -7.361310  -11.714800   82.020300

 Total Charge           Charge          ....    0
 Multiplicity           Mult            ....    1
 Number of Electrons    NEL             ....  134
 Basis Dimension        Dim             ....  322

ORBITAL ENERGIES
----------------

  NO   OCC          E(Eh)            E(eV)
   0   2.0000     -88.967495     -2420.9286
   1   2.0000     -88.961681     -2420.7704
   2   2.0000     -10.338268      -281.3186
   3   2.0000     -10.327578      -281.0277
   4   2.0000     -10.322220      -280.8819
   5   2.0000     -10.311751      -280.5970
   6   2.0000     -10.308707      -280.5142
   7   2.0000     -10.300100      -280.2800
   8   2.0000     -10.299290      -280.2579
   9   2.0000     -10.292442      -280.0716
  10   2.0000     -10.291422      -280.0438
  11   2.0000     -10.289706      -279.9971
  12   2.0000     -10.285874      -279.8929
  13   2.0000     -10.285731      -279.8890
  14   2.0000     -10.278308      -279.6870
  15   2.0000     -10.276658      -279.6421
  16   2.0000      -8.080423      -219.8795
  17   2.0000      -8.075972      -219.7584
  18   2.0000      -6.039003      -164.3296
  19   2.0000      -6.035418      -164.2321
  20   2.0000      -6.034505      -164.2072
  21   2.0000      -6.030983      -164.1114
  22   2.0000      -6.030450      -164.0969
  23   2.0000      -6.026792      -163.9974
  24   2.0000      -0.998664       -27.1750
  25   2.0000      -0.977898       -26.6100
  26   2.0000      -0.921153       -25.0658
  27   2.0000      -0.903945       -24.5976
  28   2.0000      -0.872135       -23.7320
  29   2.0000      -0.848208       -23.0809
  30   2.0000      -0.842608       -22.9285
  31   2.0000      -0.813447       -22.1350
  32   2.0000      -0.786350       -21.3977
  33   2.0000      -0.770826       -20.9752
  34   2.0000      -0.711893       -19.3716
  35   2.0000      -0.690219       -18.7818
  36   2.0000      -0.682514       -18.5722
  37   2.0000      -0.652905       -17.7664
  38   2.0000      -0.638975       -17.3874
  39   2.0000      -0.618054       -16.8181
  40   2.0000      -0.598763       -16.2932
  41   2.0000      -0.587743       -15.9933
  42   2.0000      -0.569431       -15.4950
  43   2.0000      -0.558616       -15.2007
  44   2.0000      -0.536006       -14.5855
  45   2.0000      -0.519786       -14.1441
  46   2.0000      -0.511994       -13.9321
  47   2.0000      -0.509290       -13.8585
  48   2.0000      -0.508143       -13.8273
  49   2.0000      -0.497290       -13.5320
  50   2.0000      -0.487098       -13.2546
  51   2.0000      -0.479048       -13.0356
  52   2.0000      -0.464678       -12.6445
  53   2.0000      -0.461053       -12.5459
  54   2.0000      -0.455961       -12.4073
  55   2.0000      -0.449679       -12.2364
  56   2.0000      -0.441064       -12.0020
  57   2.0000      -0.435514       -11.8509
  58   2.0000      -0.430056       -11.7024
  59   2.0000      -0.421899       -11.4805
  60   2.0000      -0.421198       -11.4614
  61   2.0000      -0.416635       -11.3372
  62   2.0000      -0.403910       -10.9910
  63   2.0000      -0.338093        -9.2000
  64   2.0000      -0.330148        -8.9838
  65   2.0000      -0.317568        -8.6415
  66   2.0000      -0.308792        -8.4027
  67   0.0000       0.042404         1.1539
  68   0.0000       0.047486         1.2921
  69   0.0000       0.105914         2.8821
  70   0.0000       0.123418         3.3584
  71   0.0000       0.125099         3.4041

MULLIKEN ATOMIC CHARGES
-----------------------
   0 S :    0.100876
   1 C :   -0.133302
   2 C :   -0.079934
   3 C :    0.038249
   4 C :   -0.179941
   5 H :    0.017989
   6 C :    0.117392
   7 H :    0.040506
   8 H :    0.009684
   9 C :   -0.113456
  10 H :    0.040826
  11 H :    0.045695
  12 C :   -0.029375
  13 H :    0.030590
  14 H :    0.039121
  15 H :    0.020643
  16 S :    0.090099
  17 C :   -0.134519
  18 C :   -0.009959
  19 C :   -0.003485
  20 C :   -0.137832
  21 H :    0.011822
  22 C :    0.077907
  23 H :    0.023776
  24 H :    0.020575
  25 C :   -0.124683
  26 H :    0.026626
  27 H :    0.043357
  28 C :   -0.046478
  29 H :    0.024608
  30 H :    0.035256
  31 H :    0.025572
  32 H :    0.031342
  33 H :    0.080450
Sum of atomic charges:    0.0000000

LOEWDIN ATOMIC CHARGES
----------------------
   0 S :    0.357164
   1 C :   -0.169253
   2 C :   -0.065937
   3 C :   -0.044924
   4 C :   -0.182922
   5 H :    0.026327
   6 C :   -0.028342
   7 H :    0.040849
   8 H :    0.025396
   9 C :   -0.042881
  10 H :    0.029543
  11 H :    0.030902
  12 C :   -0.060850
  13 H :    0.025327
  14 H :    0.035458
  15 H :    0.014803
  16 S :    0.385873
  17 C :   -0.176044
  18 C :   -0.074404
  19 C :   -0.043953
  20 C :   -0.208787
  21 H :    0.032799
  22 C :   -0.035324
  23 H :    0.037217
  24 H :    0.025628
  25 C :   -0.051464
  26 H :    0.020892
  27 H :    0.028937
  28 C :   -0.073726
  29 H :    0.028384
  30 H :    0.021122
  31 H :    0.026167
  32 H :    0.021003
  33 H :    0.045023

  Mayer bond orders larger than 0.100000
B(  0-S ,  1-C ) :   1.1209 B(  0-S ,  4-C ) :   1.1169 B(  1-C ,  2-C ) :   1.6894
B(  1-C , 32-H ) :   0.9615 B(  2-C ,  3-C ) :   1.1943 B(  2-C ,  6-C ) :   1.0104
B(  3-C ,  4-C ) :   1.6134 B(  3-C ,  5-H ) :   0.9838 B(  4-C , 20-C ) :   1.0025
B(  6-C ,  7-H ) :   0.9197 B(  6-C ,  8-H ) :   0.9373 B(  6-C ,  9-C ) :   1.0911
B(  9-C , 10-H ) :   0.9383 B(  9-C , 11-H ) :   0.9609 B(  9-C , 12-C ) :   1.0934
B( 12-C , 13-H ) :   0.9703 B( 12-C , 14-H ) :   0.9733 B( 12-C , 15-H ) :   0.9756
B( 16-S , 17-C ) :   1.1501 B( 16-S , 20-C ) :   1.1418 B( 17-C , 18-C ) :   1.6289
B( 17-C , 33-H ) :   0.9564 B( 18-C , 19-C ) :   1.2243 B( 18-C , 21-H ) :   0.9994
B( 19-C , 20-C ) :   1.5977 B( 19-C , 22-C ) :   1.0394 B( 22-C , 23-H ) :   0.9365
B( 22-C , 24-H ) :   0.9457 B( 22-C , 25-C ) :   1.0410 B( 25-C , 26-H ) :   0.9560
B( 25-C , 27-H ) :   0.9482 B( 25-C , 28-C ) :   1.0884 B( 28-C , 29-H ) :   0.9684
B( 28-C , 30-H ) :   0.9753 B( 28-C , 31-H ) :   0.9708

Dispersion correction           -0.014934879
FINAL SINGLE POINT ENERGY     -1339.857634759441

DIPOLE MOMENT
-------------
                                X             Y             Z
Electronic contribution:     18.27509       7.11558     -22.82602
Nuclear contribution   :    -18.77731      -7.04007      23.44833
                        -----------------------------------------
Total Dipole Moment    :     -0.50222       0.07551       0.62232
                        -----------------------------------------
Magnitude (a.u.)       :      0.80325
Magnitude (Debye)      :      2.04169

Rotational constants in cm-1:     0.016260     0.009241     0.007782
Rotational constants in MHz :   487.461053   277.038880   233.311157

                             ****ORCA TERMINATED NORMALLY****
TOTAL RUN TIME: 0 days 0 hours 0 minutes 35 seconds 294 msec
