                         Program Version 4.2.1 -  RELEASE  -
|  1> ! wB97X-D3 SP def2-SVP
|  2> %pal
|  3> nprocs 16
|  4> end
|  5>
|  6> * xyz 0 1
|  7> S 	 -0.874817 	 -17.0489 	 82.112
|  8> C 	 -2.18251 	 -17.8376 	 81.3632
|  9> C 	 -1.89558 	 -19.1972 	 81.1777
| 10> C 	 -0.601412 	 -19.5613 	 81.6952
| 11> C 	 0.0513913 	 -18.5438 	 82.2931
| 12> H 	 -0.173217 	 -20.5174 	 81.6181
| 13> C 	 -2.82202 	 -20.1189 	 80.4553
| 14> H 	 -2.28073 	 -20.5691 	 79.59
| 15> H 	 -3.73165 	 -19.6309 	 80.0803
| 16> C 	 -3.38866 	 -21.2701 	 81.3156
| 17> H 	 -2.48682 	 -21.9149 	 81.5253
| 18> H 	 -3.64433 	 -20.9586 	 82.3752
| 19> C 	 -4.37134 	 -22.1464 	 80.5499
| 20> H 	 -5.30371 	 -21.5899 	 80.3172
| 21> H 	 -3.8654 	 -22.6076 	 79.5885
| 22> H 	 -4.73222 	 -23.0188 	 81.1154
| 23> S 	 2.31477 	 -17.0178 	 82.216
| 24> C 	 3.83743 	 -17.661 	 82.833
| 25> C 	 3.66819 	 -18.9041 	 83.2958
| 26> C 	 2.32818 	 -19.4304 	 83.1714
| 27> C 	 1.43927 	 -18.4876 	 82.6647
| 28> H 	 4.53727 	 -19.4238 	 83.7025
| 29> C 	 1.98535 	 -20.931 	 83.4844
| 30> H 	 0.887642 	 -21.0569 	 83.5389
| 31> H 	 2.53565 	 -21.1459 	 84.4258
| 32> C 	 2.46358 	 -21.8133 	 82.256
| 33> H 	 3.44229 	 -21.6571 	 82.0061
| 34> H 	 2.00241 	 -21.3861 	 81.3612
| 35> C 	 2.2132 	 -23.3352 	 82.3955
| 36> H 	 2.72908 	 -23.7578 	 83.2308
| 37> H 	 2.68926 	 -23.7649 	 81.5657
| 38> H 	 1.18273 	 -23.6027 	 82.2772
| 39> H 	 -3.00447 	 -17.315 	 80.8805
| 40> H 	 4.73981 	 -17.1064 	 82.9954
| 41> *
| 42>
| 43>                          ****END OF INPUT****

CARTESIAN COORDINATES (ANGSTROEM)
---------------------------------
  S     -0.874817  -17.048900   82.112000
  C     -2.182510  -17.837600   81.363200
  C     -1.895580  -19.197200   81.177700
  C     -0.601412  -19.561300   81.695200
  C      0.051391  -18.543800   82.293100
  H     -0.173217  -20.517400   81.618100
  C     -2.822020  -20.118900   80.455300
  H     -2.280730  -20.569100   79.590000
  H     -3.731650  -19.630900   80.080300
  C     -3.388660  -21.270100   81.315600
  H     -2.486820  -21.914900   81.525300
  H     -3.644330  -20.958600   82.375200
  C     -4.371340  -22.146400   80.549900
  H     -5.303710  -21.589900   80.317200
  H     -3.865400  -22.607600   79.588500
  H     -4.732220  -23.018800   81.115400
  S      2.314770  -17.017800   82.216000
  C      3.837430  -17.661000   82.833000
  C      3.668190  -18.904100   83.295800
  C      2.328180  -19.430400   83.171400
  C      1.439270  -18.487600   82.664700
  H      4.537270  -19.423800   83.702500
  C      1.985350  -20.931000   83.484400
  H      0.887642  -21.056900   83.538900
  H      2.535650  -21.145900   84.425800
  C      2.463580  -21.813300   82.256000
  H      3.442290  -21.657100   82.006100
  H      2.002410  -21.386100   81.361200
  C      2.213200  -23.335200   82.395500
  H      2.729080  -23.757800   83.230800
  H      2.689260  -23.764900   81.565700
  H      1.182730  -23.602700   82.277200
  H     -3.004470  -17.315000   80.880500
  H      4.739810  -17.106400   82.995400

 Total Charge           Charge          ....    0
 Multiplicity           Mult            ....    1
 Number of Electrons    NEL             ....  134
 Basis Dimension        Dim             ....  322

ORBITAL ENERGIES
----------------

  NO   OCC          E(Eh)            E(eV)
   0   2.0000     -88.964775     -2420.8546
   1   2.0000     -88.960865     -2420.7482
   2   2.0000     -10.327901      -281.0365
   3   2.0000     -10.327692      -281.0308
   4   2.0000     -10.313804      -280.6529
   5   2.0000     -10.311742      -280.5968
   6   2.0000     -10.306859      -280.4639
   7   2.0000     -10.303714      -280.3783
   8   2.0000     -10.303282      -280.3665
   9   2.0000     -10.294529      -280.1284
  10   2.0000     -10.294230      -280.1202
  11   2.0000     -10.292980      -280.0862
  12   2.0000     -10.292422      -280.0710
  13   2.0000     -10.291519      -280.0465
  14   2.0000     -10.284509      -279.8557
  15   2.0000     -10.273167      -279.5471
  16   2.0000      -8.080284      -219.8757
  17   2.0000      -8.075397      -219.7427
  18   2.0000      -6.038760      -164.3230
  19   2.0000      -6.034647      -164.2111
  20   2.0000      -6.034164      -164.1979
  21   2.0000      -6.031050      -164.1132
  22   2.0000      -6.029952      -164.0833
  23   2.0000      -6.025860      -163.9720
  24   2.0000      -1.011055       -27.5122
  25   2.0000      -0.984864       -26.7995
  26   2.0000      -0.911901       -24.8141
  27   2.0000      -0.901898       -24.5419
  28   2.0000      -0.876715       -23.8566
  29   2.0000      -0.853577       -23.2270
  30   2.0000      -0.843567       -22.9546
  31   2.0000      -0.821468       -22.3533
  32   2.0000      -0.780719       -21.2445
  33   2.0000      -0.768123       -20.9017
  34   2.0000      -0.711324       -19.3561
  35   2.0000      -0.701983       -19.1019
  36   2.0000      -0.690115       -18.7790
  37   2.0000      -0.662859       -18.0373
  38   2.0000      -0.643513       -17.5109
  39   2.0000      -0.628781       -17.1100
  40   2.0000      -0.591938       -16.1075
  41   2.0000      -0.569617       -15.5001
  42   2.0000      -0.565654       -15.3922
  43   2.0000      -0.556983       -15.1563
  44   2.0000      -0.525052       -14.2874
  45   2.0000      -0.521347       -14.1866
  46   2.0000      -0.517329       -14.0772
  47   2.0000      -0.514202       -13.9922
  48   2.0000      -0.509247       -13.8573
  49   2.0000      -0.505259       -13.7488
  50   2.0000      -0.495317       -13.4782
  51   2.0000      -0.481126       -13.0921
  52   2.0000      -0.476765       -12.9734
  53   2.0000      -0.465107       -12.6562
  54   2.0000      -0.460906       -12.5419
  55   2.0000      -0.451442       -12.2844
  56   2.0000      -0.447060       -12.1651
  57   2.0000      -0.434973       -11.8362
  58   2.0000      -0.431664       -11.7462
  59   2.0000      -0.430225       -11.7070
  60   2.0000      -0.424338       -11.5468
  61   2.0000      -0.410672       -11.1750
  62   2.0000      -0.404010       -10.9937
  63   2.0000      -0.363361        -9.8876
  64   2.0000      -0.331937        -9.0325
  65   2.0000      -0.324490        -8.8298
  66   2.0000      -0.288263        -7.8440
  67   0.0000       0.024894         0.6774
  68   0.0000       0.080370         2.1870
  69   0.0000       0.110189         2.9984
  70   0.0000       0.120287         3.2732
  71   0.0000       0.126084         3.4309

MULLIKEN ATOMIC CHARGES
-----------------------
   0 S :    0.099614
   1 C :   -0.109871
   2 C :   -0.087826
   3 C :    0.030970
   4 C :   -0.103447
   5 H :   -0.015990
   6 C :    0.058515
   7 H :    0.038608
   8 H :    0.015663
   9 C :   -0.122051
  10 H :    0.022622
  11 H :    0.047383
  12 C :   -0.072127
  13 H :    0.040752
  14 H :    0.047467
  15 H :    0.039674
  16 S :    0.080297
  17 C :   -0.076131
  18 C :   -0.035506
  19 C :   -0.072805
  20 C :   -0.125231
  21 H :    0.020988
  22 C :    0.059693
  23 H :    0.034824
  24 H :    0.038730
  25 C :   -0.073389
  26 H :   -0.002598
  27 H :    0.018489
  28 C :    0.019401
  29 H :    0.030745
  30 H :    0.012026
  31 H :    0.028796
  32 H :    0.059303
  33 H :    0.052410
Sum of atomic charges:    0.0000000

LOEWDIN ATOMIC CHARGES
----------------------
   0 S :    0.415733
   1 C :   -0.209596
   2 C :   -0.062115
   3 C :   -0.054302
   4 C :   -0.183059
   5 H :    0.022270
   6 C :   -0.037282
   7 H :    0.036210
   8 H :    0.027364
   9 C :   -0.058159
  10 H :    0.022385
  11 H :    0.032145
  12 C :   -0.078335
  13 H :    0.025988
  14 H :    0.040052
  15 H :    0.028310
  16 S :    0.378569
  17 C :   -0.177287
  18 C :   -0.075358
  19 C :   -0.058289
  20 C :   -0.186846
  21 H :    0.034130
  22 C :   -0.025242
  23 H :    0.029981
  24 H :    0.033421
  25 C :   -0.036135
  26 H :    0.010540
  27 H :    0.025082
  28 C :   -0.056382
  29 H :    0.025486
  30 H :    0.023670
  31 H :    0.023330
  32 H :    0.033118
  33 H :    0.030605

  Mayer bond orders larger than 0.100000
B(  0-S ,  1-C ) :   1.1511 B(  0-S ,  4-C ) :   1.1401 B(  1-C ,  2-C ) :   1.5901
B(  1-C , 32-H ) :   0.9672 B(  2-C ,  3-C ) :   1.2436 B(  2-C ,  6-C ) :   1.0424
B(  3-C ,  4-C ) :   1.5597 B(  3-C ,  5-H ) :   0.9996 B(  4-C , 20-C ) :   1.0670
B(  6-C ,  7-H ) :   0.9343 B(  6-C ,  8-H ) :   0.9477 B(  6-C ,  9-C ) :   1.0452
B(  9-C , 10-H ) :   0.9519 B(  9-C , 11-H ) :   0.9574 B(  9-C , 12-C ) :   1.0803
B( 12-C , 13-H ) :   0.9743 B( 12-C , 14-H ) :   0.9692 B( 12-C , 15-H ) :   0.9728
B( 16-S , 17-C ) :   1.1245 B( 16-S , 20-C ) :   1.1245 B( 17-C , 18-C ) :   1.6601
B( 17-C , 33-H ) :   0.9658 B( 18-C , 19-C ) :   1.2120 B( 18-C , 21-H ) :   0.9864
B( 19-C , 20-C ) :   1.6205 B( 19-C , 22-C ) :   1.0422 B( 22-C , 23-H ) :   0.9389
B( 22-C , 24-H ) :   0.9374 B( 22-C , 25-C ) :   1.0523 B( 25-C , 26-H ) :   0.9539
B( 25-C , 27-H ) :   0.9485 B( 25-C , 28-C ) :   1.0840 B( 28-C , 29-H ) :   0.9733
B( 28-C , 30-H ) :   0.9682 B( 28-C , 31-H ) :   0.9756

Dispersion correction           -0.014019614
FINAL SINGLE POINT ENERGY     -1339.877352917359

DIPOLE MOMENT
-------------
                                X             Y             Z
Electronic contribution:      9.31385      31.11423       4.58393
Nuclear contribution   :     -9.24027     -31.87055      -4.79647
                        -----------------------------------------
Total Dipole Moment    :      0.07358      -0.75632      -0.21254
                        -----------------------------------------
Magnitude (a.u.)       :      0.78906
Magnitude (Debye)      :      2.00563

Rotational constants in cm-1:     0.017427     0.009321     0.006307
Rotational constants in MHz :   522.449416   279.443799   189.077247

                             ****ORCA TERMINATED NORMALLY****
TOTAL RUN TIME: 0 days 0 hours 0 minutes 31 seconds 220 msec
