                         Program Version 4.2.1 -  RELEASE  -
|  1> ! wB97X-D3 SP def2-SVP
|  2> %pal
|  3> nprocs 16
|  4> end
|  5>
|  6> * xyz 0 1
|  7> S 	 -5.58961 	 74.4754 	 47.796
|  8> C 	 -5.5991 	 76.0873 	 48.5509
|  9> C 	 -6.89073 	 76.4643 	 48.9231
| 10> C 	 -7.93292 	 75.5256 	 48.4483
| 11> C 	 -7.33531 	 74.4946 	 47.7402
| 12> H 	 -9.03607 	 75.6513 	 48.5958
| 13> C 	 -7.18119 	 77.7246 	 49.7569
| 14> H 	 -6.60395 	 78.5063 	 49.2655
| 15> H 	 -6.65346 	 77.5644 	 50.663
| 16> C 	 -8.7132 	 78.1656 	 49.9509
| 17> H 	 -9.16856 	 78.206 	 48.9927
| 18> H 	 -9.30229 	 77.3982 	 50.5275
| 19> C 	 -8.88387 	 79.5125 	 50.6233
| 20> H 	 -9.9288 	 79.708 	 50.7221
| 21> H 	 -8.51293 	 79.6267 	 51.6748
| 22> H 	 -8.4616 	 80.4067 	 50.0935
| 23> S 	 -7.64392 	 71.8274 	 48.1077
| 24> C 	 -8.72667 	 70.959 	 47.1237
| 25> C 	 -9.26534 	 71.7292 	 46.109
| 26> C 	 -8.90309 	 73.1177 	 46.2588
| 27> C 	 -7.98276 	 73.3225 	 47.2751
| 28> H 	 -9.91827 	 71.2878 	 45.3799
| 29> C 	 -9.54044 	 74.201 	 45.3849
| 30> H 	 -8.83073 	 74.2739 	 44.5085
| 31> H 	 -9.36551 	 75.1033 	 45.9496
| 32> C 	 -10.9957 	 73.892 	 45.1857
| 33> H 	 -11.4352 	 73.5844 	 46.1756
| 34> H 	 -11.0011 	 72.9513 	 44.5408
| 35> C 	 -11.8307 	 75.0688 	 44.5024
| 36> H 	 -12.0476 	 75.8859 	 45.1694
| 37> H 	 -12.801 	 74.6429 	 44.2595
| 38> H 	 -11.3941 	 75.4826 	 43.5678
| 39> H 	 -4.70319 	 76.5852 	 48.7746
| 40> H 	 -8.86754 	 69.9044 	 47.2232
| 41> *
| 42>
| 43>                          ****END OF INPUT****

CARTESIAN COORDINATES (ANGSTROEM)
---------------------------------
  S     -5.589610   74.475400   47.796000
  C     -5.599100   76.087300   48.550900
  C     -6.890730   76.464300   48.923100
  C     -7.932920   75.525600   48.448300
  C     -7.335310   74.494600   47.740200
  H     -9.036070   75.651300   48.595800
  C     -7.181190   77.724600   49.756900
  H     -6.603950   78.506300   49.265500
  H     -6.653460   77.564400   50.663000
  C     -8.713200   78.165600   49.950900
  H     -9.168560   78.206000   48.992700
  H     -9.302290   77.398200   50.527500
  C     -8.883870   79.512500   50.623300
  H     -9.928800   79.708000   50.722100
  H     -8.512930   79.626700   51.674800
  H     -8.461600   80.406700   50.093500
  S     -7.643920   71.827400   48.107700
  C     -8.726670   70.959000   47.123700
  C     -9.265340   71.729200   46.109000
  C     -8.903090   73.117700   46.258800
  C     -7.982760   73.322500   47.275100
  H     -9.918270   71.287800   45.379900
  C     -9.540440   74.201000   45.384900
  H     -8.830730   74.273900   44.508500
  H     -9.365510   75.103300   45.949600
  C    -10.995700   73.892000   45.185700
  H    -11.435200   73.584400   46.175600
  H    -11.001100   72.951300   44.540800
  C    -11.830700   75.068800   44.502400
  H    -12.047600   75.885900   45.169400
  H    -12.801000   74.642900   44.259500
  H    -11.394100   75.482600   43.567800
  H     -4.703190   76.585200   48.774600
  H     -8.867540   69.904400   47.223200

 Total Charge           Charge          ....    0
 Multiplicity           Mult            ....    1
 Number of Electrons    NEL             ....  134
 Basis Dimension        Dim             ....  322

ORBITAL ENERGIES
----------------

  NO   OCC          E(Eh)            E(eV)
   0   2.0000     -88.964484     -2420.8467
   1   2.0000     -88.960127     -2420.7281
   2   2.0000     -10.325243      -280.9641
   3   2.0000     -10.314364      -280.6681
   4   2.0000     -10.310445      -280.5615
   5   2.0000     -10.309120      -280.5254
   6   2.0000     -10.308982      -280.5217
   7   2.0000     -10.302932      -280.3570
   8   2.0000     -10.299236      -280.2565
   9   2.0000     -10.298885      -280.2469
  10   2.0000     -10.298171      -280.2275
  11   2.0000     -10.294424      -280.1255
  12   2.0000     -10.289260      -279.9850
  13   2.0000     -10.288240      -279.9573
  14   2.0000     -10.283503      -279.8283
  15   2.0000     -10.283054      -279.8161
  16   2.0000      -8.078957      -219.8396
  17   2.0000      -8.076051      -219.7605
  18   2.0000      -6.037488      -164.2884
  19   2.0000      -6.034412      -164.2047
  20   2.0000      -6.033665      -164.1844
  21   2.0000      -6.030344      -164.0940
  22   2.0000      -6.029549      -164.0724
  23   2.0000      -6.026951      -164.0017
  24   2.0000      -1.007161       -27.4063
  25   2.0000      -0.977631       -26.6027
  26   2.0000      -0.907475       -24.6936
  27   2.0000      -0.903775       -24.5930
  28   2.0000      -0.871126       -23.7046
  29   2.0000      -0.845909       -23.0184
  30   2.0000      -0.839739       -22.8505
  31   2.0000      -0.813084       -22.1252
  32   2.0000      -0.782332       -21.2883
  33   2.0000      -0.768731       -20.9182
  34   2.0000      -0.713541       -19.4164
  35   2.0000      -0.702067       -19.1042
  36   2.0000      -0.691477       -18.8161
  37   2.0000      -0.650336       -17.6965
  38   2.0000      -0.640127       -17.4188
  39   2.0000      -0.613938       -16.7061
  40   2.0000      -0.592434       -16.1209
  41   2.0000      -0.562907       -15.3175
  42   2.0000      -0.560842       -15.2613
  43   2.0000      -0.557058       -15.1583
  44   2.0000      -0.527106       -14.3433
  45   2.0000      -0.524536       -14.2734
  46   2.0000      -0.512146       -13.9362
  47   2.0000      -0.507570       -13.8117
  48   2.0000      -0.505096       -13.7444
  49   2.0000      -0.495721       -13.4892
  50   2.0000      -0.489038       -13.3074
  51   2.0000      -0.480874       -13.0852
  52   2.0000      -0.473723       -12.8907
  53   2.0000      -0.468086       -12.7373
  54   2.0000      -0.458703       -12.4819
  55   2.0000      -0.449694       -12.2368
  56   2.0000      -0.445485       -12.1223
  57   2.0000      -0.441012       -12.0005
  58   2.0000      -0.429628       -11.6908
  59   2.0000      -0.427516       -11.6333
  60   2.0000      -0.419623       -11.4185
  61   2.0000      -0.416349       -11.3294
  62   2.0000      -0.409058       -11.1310
  63   2.0000      -0.339416        -9.2360
  64   2.0000      -0.326825        -8.8934
  65   2.0000      -0.323774        -8.8103
  66   2.0000      -0.291834        -7.9412
  67   0.0000       0.039490         1.0746
  68   0.0000       0.063508         1.7281
  69   0.0000       0.114075         3.1041
  70   0.0000       0.130365         3.5474
  71   0.0000       0.131194         3.5700

MULLIKEN ATOMIC CHARGES
-----------------------
   0 S :    0.104270
   1 C :   -0.113663
   2 C :   -0.102807
   3 C :    0.021835
   4 C :   -0.166663
   5 H :    0.044526
   6 C :    0.067279
   7 H :    0.031143
   8 H :    0.032114
   9 C :   -0.076866
  10 H :    0.030566
  11 H :    0.045228
  12 C :   -0.057876
  13 H :    0.024441
  14 H :    0.035272
  15 H :    0.037624
  16 S :    0.119137
  17 C :   -0.087721
  18 C :   -0.039513
  19 C :   -0.083244
  20 C :   -0.170084
  21 H :    0.014238
  22 C :    0.133421
  23 H :    0.051276
  24 H :    0.005242
  25 C :   -0.151892
  26 H :    0.051270
  27 H :    0.045804
  28 C :   -0.023217
  29 H :    0.032576
  30 H :    0.028717
  31 H :    0.040660
  32 H :    0.028252
  33 H :    0.048654
Sum of atomic charges:   -0.0000000

LOEWDIN ATOMIC CHARGES
----------------------
   0 S :    0.396216
   1 C :   -0.191318
   2 C :   -0.050170
   3 C :   -0.066694
   4 C :   -0.194102
   5 H :    0.043014
   6 C :   -0.033316
   7 H :    0.034667
   8 H :    0.029325
   9 C :   -0.039892
  10 H :    0.021720
  11 H :    0.032457
  12 C :   -0.073991
  13 H :    0.023766
  14 H :    0.029731
  15 H :    0.029862
  16 S :    0.425453
  17 C :   -0.194438
  18 C :   -0.075902
  19 C :   -0.051303
  20 C :   -0.219844
  21 H :    0.027798
  22 C :   -0.039021
  23 H :    0.043376
  24 H :    0.023673
  25 C :   -0.046433
  26 H :    0.034823
  27 H :    0.029874
  28 C :   -0.067234
  29 H :    0.022824
  30 H :    0.026043
  31 H :    0.030660
  32 H :    0.014912
  33 H :    0.023467

  Mayer bond orders larger than 0.100000
B(  0-S ,  1-C ) :   1.1142 B(  0-S ,  4-C ) :   1.1564 B(  1-C ,  2-C ) :   1.6337
B(  1-C , 32-H ) :   0.9835 B(  2-C ,  3-C ) :   1.2188 B(  2-C ,  6-C ) :   0.9983
B(  3-C ,  4-C ) :   1.5767 B(  3-C ,  5-H ) :   0.9806 B(  4-C , 20-C ) :   1.0362
B(  6-C ,  7-H ) :   0.9445 B(  6-C ,  8-H ) :   0.9389 B(  6-C ,  9-C ) :   1.0627
B(  9-C , 10-H ) :   0.9533 B(  9-C , 11-H ) :   0.9517 B(  9-C , 12-C ) :   1.0926
B( 12-C , 13-H ) :   0.9712 B( 12-C , 14-H ) :   0.9741 B( 12-C , 15-H ) :   0.9735
B( 16-S , 17-C ) :   1.1756 B( 16-S , 20-C ) :   1.1440 B( 17-C , 18-C ) :   1.5995
B( 17-C , 33-H ) :   0.9680 B( 18-C , 19-C ) :   1.2302 B( 18-C , 21-H ) :   0.9936
B( 19-C , 20-C ) :   1.6104 B( 19-C , 22-C ) :   1.0238 B( 22-C , 23-H ) :   0.9239
B( 22-C , 24-H ) :   0.9303 B( 22-C , 25-C ) :   1.0584 B( 25-C , 26-H ) :   0.9586
B( 25-C , 27-H ) :   0.9484 B( 25-C , 28-C ) :   1.0712 B( 28-C , 29-H ) :   0.9763
B( 28-C , 30-H ) :   0.9755 B( 28-C , 31-H ) :   0.9754

Dispersion correction           -0.013523286
FINAL SINGLE POINT ENERGY     -1339.875903669890

DIPOLE MOMENT
-------------
                                X             Y             Z
Electronic contribution:     20.17221     -22.00634       1.74652
Nuclear contribution   :    -20.67805      22.45586      -1.70244
                        -----------------------------------------
Total Dipole Moment    :     -0.50584       0.44952       0.04408
                        -----------------------------------------
Magnitude (a.u.)       :      0.67815
Magnitude (Debye)      :      1.72372

Rotational constants in cm-1:     0.016184     0.008593     0.006369
Rotational constants in MHz :   485.182958   257.601833   190.945037

                             ****ORCA TERMINATED NORMALLY****
TOTAL RUN TIME: 0 days 0 hours 0 minutes 31 seconds 24 msec
