                         Program Version 4.2.1 -  RELEASE  -
|  1> ! wB97X-D3 SP def2-SVP
|  2> %pal
|  3> nprocs 16
|  4> end
|  5>
|  6> * xyz 0 1
|  7> S 	 -50.0267 	 32.0992 	 96.0731
|  8> C 	 -50.0076 	 33.8725 	 95.7988
|  9> C 	 -49.076 	 34.4892 	 96.668
| 10> C 	 -48.2579 	 33.5012 	 97.3614
| 11> C 	 -48.6982 	 32.1847 	 97.24
| 12> H 	 -47.4013 	 33.7631 	 97.99
| 13> C 	 -48.9199 	 35.9997 	 96.8796
| 14> H 	 -48.6869 	 36.5448 	 95.9339
| 15> H 	 -48.0019 	 36.039 	 97.4554
| 16> C 	 -50.1576 	 36.641 	 97.5172
| 17> H 	 -50.0183 	 37.7219 	 97.691
| 18> H 	 -51.068 	 36.5496 	 96.9058
| 19> C 	 -50.5275 	 36.0129 	 98.9016
| 20> H 	 -50.8242 	 34.9952 	 98.6689
| 21> H 	 -49.7047 	 36.0513 	 99.6762
| 22> H 	 -51.2948 	 36.6377 	 99.3222
| 23> S 	 -46.5736 	 30.3167 	 97.6403
| 24> C 	 -46.9493 	 29.0253 	 98.7667
| 25> C 	 -48.0979 	 29.2279 	 99.455
| 26> C 	 -48.8562 	 30.3047 	 98.9148
| 27> C 	 -48.1752 	 31.0161 	 97.9362
| 28> H 	 -48.2235 	 28.6749 	 100.335
| 29> C 	 -50.2238 	 30.57 	 99.5056
| 30> H 	 -50.9541 	 30.0425 	 98.9288
| 31> H 	 -50.4466 	 31.5821 	 99.2123
| 32> C 	 -50.4389 	 30.3695 	 101
| 33> H 	 -50.6301 	 29.3218 	 101.221
| 34> H 	 -51.4012 	 30.8473 	 101.307
| 35> C 	 -49.4222 	 31.0572 	 101.961
| 36> H 	 -49.8851 	 31.144 	 102.872
| 37> H 	 -49.0806 	 32.0076 	 101.628
| 38> H 	 -48.5824 	 30.4543 	 102.091
| 39> H 	 -50.6166 	 34.3189 	 95.0426
| 40> H 	 -46.176 	 28.2347 	 99.0365
| 41> *
| 42>
| 43>                          ****END OF INPUT****

CARTESIAN COORDINATES (ANGSTROEM)
---------------------------------
  S    -50.026700   32.099200   96.073100
  C    -50.007600   33.872500   95.798800
  C    -49.076000   34.489200   96.668000
  C    -48.257900   33.501200   97.361400
  C    -48.698200   32.184700   97.240000
  H    -47.401300   33.763100   97.990000
  C    -48.919900   35.999700   96.879600
  H    -48.686900   36.544800   95.933900
  H    -48.001900   36.039000   97.455400
  C    -50.157600   36.641000   97.517200
  H    -50.018300   37.721900   97.691000
  H    -51.068000   36.549600   96.905800
  C    -50.527500   36.012900   98.901600
  H    -50.824200   34.995200   98.668900
  H    -49.704700   36.051300   99.676200
  H    -51.294800   36.637700   99.322200
  S    -46.573600   30.316700   97.640300
  C    -46.949300   29.025300   98.766700
  C    -48.097900   29.227900   99.455000
  C    -48.856200   30.304700   98.914800
  C    -48.175200   31.016100   97.936200
  H    -48.223500   28.674900  100.335000
  C    -50.223800   30.570000   99.505600
  H    -50.954100   30.042500   98.928800
  H    -50.446600   31.582100   99.212300
  C    -50.438900   30.369500  101.000000
  H    -50.630100   29.321800  101.221000
  H    -51.401200   30.847300  101.307000
  C    -49.422200   31.057200  101.961000
  H    -49.885100   31.144000  102.872000
  H    -49.080600   32.007600  101.628000
  H    -48.582400   30.454300  102.091000
  H    -50.616600   34.318900   95.042600
  H    -46.176000   28.234700   99.036500

 Total Charge           Charge          ....    0
 Multiplicity           Mult            ....    1
 Number of Electrons    NEL             ....  134
 Basis Dimension        Dim             ....  322

ORBITAL ENERGIES
----------------

  NO   OCC          E(Eh)            E(eV)
   0   2.0000     -88.966620     -2420.9048
   1   2.0000     -88.966117     -2420.8911
   2   2.0000     -10.332355      -281.1577
   3   2.0000     -10.325577      -280.9732
   4   2.0000     -10.320640      -280.8389
   5   2.0000     -10.318732      -280.7870
   6   2.0000     -10.310363      -280.5592
   7   2.0000     -10.301365      -280.3144
   8   2.0000     -10.300269      -280.2846
   9   2.0000     -10.297115      -280.1987
  10   2.0000     -10.291020      -280.0329
  11   2.0000     -10.289126      -279.9813
  12   2.0000     -10.284866      -279.8654
  13   2.0000     -10.282596      -279.8037
  14   2.0000     -10.276764      -279.6450
  15   2.0000     -10.263416      -279.2818
  16   2.0000      -8.080438      -219.8799
  17   2.0000      -8.080054      -219.8694
  18   2.0000      -6.039016      -164.3300
  19   2.0000      -6.038625      -164.3193
  20   2.0000      -6.035157      -164.2250
  21   2.0000      -6.034623      -164.2104
  22   2.0000      -6.031005      -164.1120
  23   2.0000      -6.030945      -164.1104
  24   2.0000      -1.000878       -27.2353
  25   2.0000      -0.976339       -26.5675
  26   2.0000      -0.907528       -24.6951
  27   2.0000      -0.906653       -24.6713
  28   2.0000      -0.865221       -23.5439
  29   2.0000      -0.848107       -23.0782
  30   2.0000      -0.839675       -22.8487
  31   2.0000      -0.813488       -22.1361
  32   2.0000      -0.788211       -21.4483
  33   2.0000      -0.772108       -21.0101
  34   2.0000      -0.708212       -19.2714
  35   2.0000      -0.698757       -19.0142
  36   2.0000      -0.691843       -18.8260
  37   2.0000      -0.655462       -17.8360
  38   2.0000      -0.639743       -17.4083
  39   2.0000      -0.609460       -16.5843
  40   2.0000      -0.592497       -16.1227
  41   2.0000      -0.570932       -15.5359
  42   2.0000      -0.557845       -15.1797
  43   2.0000      -0.549245       -14.9457
  44   2.0000      -0.542385       -14.7590
  45   2.0000      -0.539080       -14.6691
  46   2.0000      -0.518092       -14.0980
  47   2.0000      -0.512354       -13.9419
  48   2.0000      -0.500661       -13.6237
  49   2.0000      -0.494127       -13.4459
  50   2.0000      -0.489837       -13.3291
  51   2.0000      -0.472452       -12.8561
  52   2.0000      -0.469723       -12.7818
  53   2.0000      -0.462019       -12.5722
  54   2.0000      -0.455690       -12.4000
  55   2.0000      -0.449409       -12.2290
  56   2.0000      -0.442651       -12.0452
  57   2.0000      -0.437824       -11.9138
  58   2.0000      -0.434752       -11.8302
  59   2.0000      -0.430000       -11.7009
  60   2.0000      -0.416978       -11.3465
  61   2.0000      -0.412826       -11.2336
  62   2.0000      -0.406510       -11.0617
  63   2.0000      -0.337776        -9.1914
  64   2.0000      -0.332128        -9.0377
  65   2.0000      -0.324292        -8.8244
  66   2.0000      -0.297715        -8.1012
  67   0.0000       0.035718         0.9719
  68   0.0000       0.057152         1.5552
  69   0.0000       0.105372         2.8673
  70   0.0000       0.115805         3.1512
  71   0.0000       0.130322         3.5462

MULLIKEN ATOMIC CHARGES
-----------------------
   0 S :    0.105688
   1 C :   -0.133736
   2 C :   -0.122342
   3 C :    0.036672
   4 C :   -0.187846
   5 H :    0.022386
   6 C :    0.095865
   7 H :    0.043542
   8 H :    0.015512
   9 C :   -0.094391
  10 H :    0.032811
  11 H :    0.037467
  12 C :   -0.073395
  13 H :    0.056664
  14 H :    0.034393
  15 H :    0.030060
  16 S :    0.113652
  17 C :   -0.123165
  18 C :   -0.011402
  19 C :   -0.061918
  20 C :   -0.153366
  21 H :    0.008517
  22 C :    0.145891
  23 H :    0.029060
  24 H :    0.008918
  25 C :   -0.122953
  26 H :    0.027437
  27 H :    0.030846
  28 C :    0.031612
  29 H :    0.012412
  30 H :    0.026905
  31 H :    0.009186
  32 H :    0.052259
  33 H :    0.076758
Sum of atomic charges:    0.0000000

LOEWDIN ATOMIC CHARGES
----------------------
   0 S :    0.385483
   1 C :   -0.183660
   2 C :   -0.059070
   3 C :   -0.063456
   4 C :   -0.188739
   5 H :    0.033818
   6 C :   -0.034944
   7 H :    0.037462
   8 H :    0.028598
   9 C :   -0.042451
  10 H :    0.024123
  11 H :    0.026874
  12 C :   -0.066910
  13 H :    0.026422
  14 H :    0.027312
  15 H :    0.022457
  16 S :    0.391659
  17 C :   -0.183152
  18 C :   -0.071599
  19 C :   -0.045617
  20 C :   -0.207188
  21 H :    0.026954
  22 C :   -0.034726
  23 H :    0.034544
  24 H :    0.026493
  25 C :   -0.042244
  26 H :    0.021383
  27 H :    0.033113
  28 C :   -0.046684
  29 H :    0.017385
  30 H :    0.026420
  31 H :    0.015345
  32 H :    0.023603
  33 H :    0.040990

  Mayer bond orders larger than 0.100000
B(  0-S ,  1-C ) :   1.1393 B(  0-S ,  4-C ) :   1.1411 B(  1-C ,  2-C ) :   1.5827
B(  1-C ,  4-C ) :   0.1004 B(  1-C , 32-H ) :   0.9787 B(  2-C ,  3-C ) :   1.2441
B(  2-C ,  6-C ) :   1.0102 B(  3-C ,  4-C ) :   1.5893 B(  3-C ,  5-H ) :   0.9842
B(  4-C , 20-C ) :   1.0339 B(  6-C ,  7-H ) :   0.9408 B(  6-C ,  8-H ) :   0.9425
B(  6-C ,  9-C ) :   1.0643 B(  9-C , 10-H ) :   0.9591 B(  9-C , 11-H ) :   0.9582
B(  9-C , 12-C ) :   1.0695 B( 12-C , 13-H ) :   0.9745 B( 12-C , 14-H ) :   0.9778
B( 12-C , 15-H ) :   0.9749 B( 16-S , 17-C ) :   1.1530 B( 16-S , 20-C ) :   1.1192
B( 17-C , 18-C ) :   1.6388 B( 17-C , 33-H ) :   0.9522 B( 18-C , 19-C ) :   1.2162
B( 18-C , 21-H ) :   0.9966 B( 19-C , 20-C ) :   1.6129 B( 19-C , 22-C ) :   1.0324
B( 22-C , 23-H ) :   0.9220 B( 22-C , 24-H ) :   0.9153 B( 22-C , 25-C ) :   1.0809
B( 25-C , 26-H ) :   0.9494 B( 25-C , 27-H ) :   0.9575 B( 25-C , 28-C ) :   1.0746
B( 28-C , 29-H ) :   0.9738 B( 28-C , 30-H ) :   0.9739 B( 28-C , 31-H ) :   0.9717

Dispersion correction           -0.015346948
FINAL SINGLE POINT ENERGY     -1339.873350615135

DIPOLE MOMENT
-------------
                                X             Y             Z
Electronic contribution:     10.99309     -14.53651     -18.27127
Nuclear contribution   :    -11.16827      14.87421      18.78121
                        -----------------------------------------
Total Dipole Moment    :     -0.17518       0.33769       0.50994
                        -----------------------------------------
Magnitude (a.u.)       :      0.63621
Magnitude (Debye)      :      1.61713

Rotational constants in cm-1:     0.019233     0.008911     0.007369
Rotational constants in MHz :   576.590793   267.154385   220.916897

                             ****ORCA TERMINATED NORMALLY****
TOTAL RUN TIME: 0 days 0 hours 0 minutes 28 seconds 978 msec
