                         Program Version 4.2.1 -  RELEASE  -
|  1> ! wB97X-D3 SP def2-SVP
|  2> %pal
|  3> nprocs 16
|  4> end
|  5>
|  6> * xyz 0 1
|  7> S 	 7.78546 	 -12.1768 	 64.8854
|  8> C 	 7.19387 	 -11.2391 	 63.5313
|  9> C 	 7.22064 	 -9.85799 	 63.8198
| 10> C 	 7.84744 	 -9.5896 	 65.1053
| 11> C 	 8.19352 	 -10.7587 	 65.7927
| 12> H 	 7.98429 	 -8.59382 	 65.533
| 13> C 	 6.86146 	 -8.72689 	 62.8373
| 14> H 	 6.61866 	 -7.79038 	 63.4309
| 15> H 	 5.92991 	 -9.01547 	 62.3681
| 16> C 	 7.93302 	 -8.5173 	 61.7916
| 17> H 	 8.29595 	 -9.4604 	 61.3684
| 18> H 	 7.37197 	 -7.95128 	 61.0276
| 19> C 	 9.15206 	 -7.7242 	 62.4277
| 20> H 	 10.118 	 -8.00299 	 61.953
| 21> H 	 9.04271 	 -6.69387 	 62.5847
| 22> H 	 9.22906 	 -8.07828 	 63.4655
| 23> S 	 9.44835 	 -9.33569 	 67.7894
| 24> C 	 9.90375 	 -10.1247 	 69.3338
| 25> C 	 9.49431 	 -11.4383 	 69.2977
| 26> C 	 8.66823 	 -11.7623 	 68.1441
| 27> C 	 8.63134 	 -10.7476 	 67.1812
| 28> H 	 9.81149 	 -12.0532 	 70.1398
| 29> C 	 8.05739 	 -13.1754 	 68.2269
| 30> H 	 7.10634 	 -13.2258 	 67.7409
| 31> H 	 7.78577 	 -13.5485 	 69.2821
| 32> C 	 8.89633 	 -14.2072 	 67.6122
| 33> H 	 9.98228 	 -14.2245 	 68.0617
| 34> H 	 9.00255 	 -14.0177 	 66.5575
| 35> C 	 8.2551 	 -15.6288 	 67.7597
| 36> H 	 8.29549 	 -15.9032 	 68.8644
| 37> H 	 8.83692 	 -16.305 	 67.1577
| 38> H 	 7.29361 	 -15.7758 	 67.2888
| 39> H 	 6.99022 	 -11.7183 	 62.6288
| 40> H 	 10.5178 	 -9.81265 	 70.2113
| 41> *
| 42>
| 43>                          ****END OF INPUT****

CARTESIAN COORDINATES (ANGSTROEM)
---------------------------------
  S      7.785460  -12.176800   64.885400
  C      7.193870  -11.239100   63.531300
  C      7.220640   -9.857990   63.819800
  C      7.847440   -9.589600   65.105300
  C      8.193520  -10.758700   65.792700
  H      7.984290   -8.593820   65.533000
  C      6.861460   -8.726890   62.837300
  H      6.618660   -7.790380   63.430900
  H      5.929910   -9.015470   62.368100
  C      7.933020   -8.517300   61.791600
  H      8.295950   -9.460400   61.368400
  H      7.371970   -7.951280   61.027600
  C      9.152060   -7.724200   62.427700
  H     10.118000   -8.002990   61.953000
  H      9.042710   -6.693870   62.584700
  H      9.229060   -8.078280   63.465500
  S      9.448350   -9.335690   67.789400
  C      9.903750  -10.124700   69.333800
  C      9.494310  -11.438300   69.297700
  C      8.668230  -11.762300   68.144100
  C      8.631340  -10.747600   67.181200
  H      9.811490  -12.053200   70.139800
  C      8.057390  -13.175400   68.226900
  H      7.106340  -13.225800   67.740900
  H      7.785770  -13.548500   69.282100
  C      8.896330  -14.207200   67.612200
  H      9.982280  -14.224500   68.061700
  H      9.002550  -14.017700   66.557500
  C      8.255100  -15.628800   67.759700
  H      8.295490  -15.903200   68.864400
  H      8.836920  -16.305000   67.157700
  H      7.293610  -15.775800   67.288800
  H      6.990220  -11.718300   62.628800
  H     10.517800   -9.812650   70.211300

 Total Charge           Charge          ....    0
 Multiplicity           Mult            ....    1
 Number of Electrons    NEL             ....  134
 Basis Dimension        Dim             ....  322

ORBITAL ENERGIES
----------------

  NO   OCC          E(Eh)            E(eV)
   0   2.0000     -88.974012     -2421.1060
   1   2.0000     -88.967667     -2420.9333
   2   2.0000     -10.334903      -281.2270
   3   2.0000     -10.333970      -281.2016
   4   2.0000     -10.321116      -280.8519
   5   2.0000     -10.316377      -280.7229
   6   2.0000     -10.311188      -280.5817
   7   2.0000     -10.307881      -280.4917
   8   2.0000     -10.299841      -280.2729
   9   2.0000     -10.296838      -280.1912
  10   2.0000     -10.294121      -280.1173
  11   2.0000     -10.292403      -280.0705
  12   2.0000     -10.290199      -280.0106
  13   2.0000     -10.285863      -279.8926
  14   2.0000     -10.279378      -279.7161
  15   2.0000     -10.276139      -279.6280
  16   2.0000      -8.088101      -220.0884
  17   2.0000      -8.081482      -219.9083
  18   2.0000      -6.046664      -164.5381
  19   2.0000      -6.042593      -164.4273
  20   2.0000      -6.040342      -164.3661
  21   2.0000      -6.038986      -164.3292
  22   2.0000      -6.036139      -164.2517
  23   2.0000      -6.031905      -164.1365
  24   2.0000      -1.005882       -27.3715
  25   2.0000      -0.980605       -26.6836
  26   2.0000      -0.912315       -24.8253
  27   2.0000      -0.911492       -24.8030
  28   2.0000      -0.871383       -23.7115
  29   2.0000      -0.845758       -23.0142
  30   2.0000      -0.836834       -22.7714
  31   2.0000      -0.813280       -22.1305
  32   2.0000      -0.783024       -21.3072
  33   2.0000      -0.770345       -20.9622
  34   2.0000      -0.706906       -19.2359
  35   2.0000      -0.702701       -19.1215
  36   2.0000      -0.683498       -18.5989
  37   2.0000      -0.665483       -18.1087
  38   2.0000      -0.639700       -17.4071
  39   2.0000      -0.612699       -16.6724
  40   2.0000      -0.597006       -16.2454
  41   2.0000      -0.573734       -15.6121
  42   2.0000      -0.567192       -15.4341
  43   2.0000      -0.548471       -14.9247
  44   2.0000      -0.536886       -14.6094
  45   2.0000      -0.519433       -14.1345
  46   2.0000      -0.517488       -14.0816
  47   2.0000      -0.514716       -14.0061
  48   2.0000      -0.500291       -13.6136
  49   2.0000      -0.495332       -13.4787
  50   2.0000      -0.486627       -13.2418
  51   2.0000      -0.481132       -13.0923
  52   2.0000      -0.475346       -12.9348
  53   2.0000      -0.465799       -12.6750
  54   2.0000      -0.458706       -12.4820
  55   2.0000      -0.452051       -12.3009
  56   2.0000      -0.441401       -12.0111
  57   2.0000      -0.433111       -11.7855
  58   2.0000      -0.429539       -11.6884
  59   2.0000      -0.421676       -11.4744
  60   2.0000      -0.415569       -11.3082
  61   2.0000      -0.410775       -11.1778
  62   2.0000      -0.407100       -11.0778
  63   2.0000      -0.362885        -9.8746
  64   2.0000      -0.333504        -9.0751
  65   2.0000      -0.327593        -8.9143
  66   2.0000      -0.282576        -7.6893
  67   0.0000       0.016852         0.4586
  68   0.0000       0.079645         2.1672
  69   0.0000       0.105052         2.8586
  70   0.0000       0.119304         3.2464
  71   0.0000       0.125640         3.4188

MULLIKEN ATOMIC CHARGES
-----------------------
   0 S :    0.103177
   1 C :   -0.105346
   2 C :   -0.083183
   3 C :   -0.023780
   4 C :   -0.098949
   5 H :    0.033400
   6 C :    0.026024
   7 H :    0.039674
   8 H :    0.025452
   9 C :   -0.044125
  10 H :    0.034992
  11 H :    0.036724
  12 C :   -0.048017
  13 H :    0.042722
  14 H :    0.025495
  15 H :    0.016588
  16 S :    0.081025
  17 C :   -0.094571
  18 C :   -0.051666
  19 C :   -0.061789
  20 C :   -0.089406
  21 H :    0.029693
  22 C :    0.051715
  23 H :    0.012120
  24 H :    0.030792
  25 C :   -0.114671
  26 H :    0.039800
  27 H :    0.024144
  28 C :   -0.043261
  29 H :    0.045978
  30 H :    0.023895
  31 H :    0.030925
  32 H :    0.033525
  33 H :    0.070904
Sum of atomic charges:   -0.0000000

LOEWDIN ATOMIC CHARGES
----------------------
   0 S :    0.434291
   1 C :   -0.193894
   2 C :   -0.050187
   3 C :   -0.075777
   4 C :   -0.194428
   5 H :    0.027961
   6 C :   -0.037200
   7 H :    0.037690
   8 H :    0.027853
   9 C :   -0.035204
  10 H :    0.026883
  11 H :    0.026552
  12 C :   -0.068576
  13 H :    0.031918
  14 H :    0.017772
  15 H :    0.028633
  16 S :    0.393485
  17 C :   -0.189516
  18 C :   -0.068067
  19 C :   -0.059818
  20 C :   -0.191629
  21 H :    0.034787
  22 C :   -0.044783
  23 H :    0.021613
  24 H :    0.037511
  25 C :   -0.049867
  26 H :    0.031986
  27 H :    0.007836
  28 C :   -0.069201
  29 H :    0.032666
  30 H :    0.023869
  31 H :    0.024105
  32 H :    0.014372
  33 H :    0.046363

  Mayer bond orders larger than 0.100000
B(  0-S ,  1-C ) :   1.1414 B(  0-S ,  4-C ) :   1.1621 B(  1-C ,  2-C ) :   1.5739
B(  1-C , 32-H ) :   0.9816 B(  2-C ,  3-C ) :   1.2740 B(  2-C ,  6-C ) :   1.0222
B(  3-C ,  4-C ) :   1.5118 B(  3-C ,  5-H ) :   0.9781 B(  4-C , 20-C ) :   1.0905
B(  6-C ,  7-H ) :   0.9465 B(  6-C ,  8-H ) :   0.9386 B(  6-C ,  9-C ) :   1.0674
B(  9-C , 10-H ) :   0.9600 B(  9-C , 11-H ) :   0.9586 B(  9-C , 12-C ) :   1.0540
B( 12-C , 13-H ) :   0.9761 B( 12-C , 14-H ) :   0.9761 B( 12-C , 15-H ) :   0.9747
B( 16-S , 17-C ) :   1.1187 B( 16-S , 20-C ) :   1.1226 B( 17-C , 18-C ) :   1.6635
B( 17-C , 33-H ) :   0.9590 B( 18-C , 19-C ) :   1.2170 B( 18-C , 21-H ) :   0.9840
B( 19-C , 20-C ) :   1.5895 B( 19-C , 22-C ) :   1.0284 B( 22-C , 23-H ) :   0.9296
B( 22-C , 24-H ) :   0.9423 B( 22-C , 25-C ) :   1.0738 B( 25-C , 26-H ) :   0.9518
B( 25-C , 27-H ) :   0.9460 B( 25-C , 28-C ) :   1.0822 B( 28-C , 29-H ) :   0.9743
B( 28-C , 30-H ) :   0.9727 B( 28-C , 31-H ) :   0.9717

Dispersion correction           -0.014420861
FINAL SINGLE POINT ENERGY     -1339.862514715953

DIPOLE MOMENT
-------------
                                X             Y             Z
Electronic contribution:      0.69376       4.98665       7.67488
Nuclear contribution   :     -0.76381      -5.10034      -7.81006
                        -----------------------------------------
Total Dipole Moment    :     -0.07005      -0.11369      -0.13518
                        -----------------------------------------
Magnitude (a.u.)       :      0.19002
Magnitude (Debye)      :      0.48300

Rotational constants in cm-1:     0.021268     0.008600     0.006442
Rotational constants in MHz :   637.599547   257.808285   193.133570

                             ****ORCA TERMINATED NORMALLY****
TOTAL RUN TIME: 0 days 0 hours 0 minutes 28 seconds 167 msec
