                         Program Version 4.2.1 -  RELEASE  -
|  1> ! wB97X-D3 SP def2-SVP
|  2> %pal
|  3> nprocs 16
|  4> end
|  5>
|  6> * xyz 0 1
|  7> S 	 10.5507 	 24.3384 	 53.7268
|  8> C 	 11.4996 	 24.1642 	 55.1472
|  9> C 	 12.5365 	 23.3283 	 54.9421
| 10> C 	 12.5963 	 22.7643 	 53.6464
| 11> C 	 11.568 	 23.2294 	 52.8271
| 12> H 	 13.303 	 22.1044 	 53.2888
| 13> C 	 13.6675 	 23.0702 	 55.9393
| 14> H 	 13.3711 	 23.6119 	 56.8814
| 15> H 	 14.5811 	 23.5205 	 55.5992
| 16> C 	 13.9514 	 21.5904 	 56.337
| 17> H 	 13.0495 	 21.0065 	 56.6259
| 18> H 	 14.1763 	 20.9417 	 55.4369
| 19> C 	 15.1258 	 21.401 	 57.3171
| 20> H 	 15.2374 	 20.3148 	 57.4196
| 21> H 	 16.0924 	 21.8351 	 56.9769
| 22> H 	 14.9466 	 21.8225 	 58.2671
| 23> S 	 12.0205 	 21.3359 	 50.9556
| 24> C 	 11.6828 	 21.6684 	 49.3317
| 25> C 	 10.9245 	 22.808 	 49.1278
| 26> C 	 10.7887 	 23.519 	 50.3452
| 27> C 	 11.367 	 22.8508 	 51.4346
| 28> H 	 10.5655 	 23.1654 	 48.1715
| 29> C 	 10.0012 	 24.8332 	 50.4071
| 30> H 	 10.3539 	 25.3286 	 49.5661
| 31> H 	 10.3647 	 25.5201 	 51.2381
| 32> C 	 8.4177 	 24.816 	 50.3718
| 33> H 	 7.98188 	 25.7925 	 50.4515
| 34> H 	 8.02619 	 24.0696 	 51.0668
| 35> C 	 7.97394 	 24.2588 	 48.9895
| 36> H 	 6.9129 	 24.3447 	 48.8702
| 37> H 	 8.26507 	 23.2124 	 48.9715
| 38> H 	 8.46884 	 24.8786 	 48.1929
| 39> H 	 11.3305 	 24.6495 	 56.0552
| 40> H 	 11.9924 	 20.9524 	 48.5904
| 41> *
| 42>
| 43>                          ****END OF INPUT****

CARTESIAN COORDINATES (ANGSTROEM)
---------------------------------
  S     10.550700   24.338400   53.726800
  C     11.499600   24.164200   55.147200
  C     12.536500   23.328300   54.942100
  C     12.596300   22.764300   53.646400
  C     11.568000   23.229400   52.827100
  H     13.303000   22.104400   53.288800
  C     13.667500   23.070200   55.939300
  H     13.371100   23.611900   56.881400
  H     14.581100   23.520500   55.599200
  C     13.951400   21.590400   56.337000
  H     13.049500   21.006500   56.625900
  H     14.176300   20.941700   55.436900
  C     15.125800   21.401000   57.317100
  H     15.237400   20.314800   57.419600
  H     16.092400   21.835100   56.976900
  H     14.946600   21.822500   58.267100
  S     12.020500   21.335900   50.955600
  C     11.682800   21.668400   49.331700
  C     10.924500   22.808000   49.127800
  C     10.788700   23.519000   50.345200
  C     11.367000   22.850800   51.434600
  H     10.565500   23.165400   48.171500
  C     10.001200   24.833200   50.407100
  H     10.353900   25.328600   49.566100
  H     10.364700   25.520100   51.238100
  C      8.417700   24.816000   50.371800
  H      7.981880   25.792500   50.451500
  H      8.026190   24.069600   51.066800
  C      7.973940   24.258800   48.989500
  H      6.912900   24.344700   48.870200
  H      8.265070   23.212400   48.971500
  H      8.468840   24.878600   48.192900
  H     11.330500   24.649500   56.055200
  H     11.992400   20.952400   48.590400

 Total Charge           Charge          ....    0
 Multiplicity           Mult            ....    1
 Number of Electrons    NEL             ....  134
 Basis Dimension        Dim             ....  322

ORBITAL ENERGIES
----------------

  NO   OCC          E(Eh)            E(eV)
   0   2.0000     -88.967943     -2420.9408
   1   2.0000     -88.965740     -2420.8809
   2   2.0000     -10.330415      -281.1049
   3   2.0000     -10.324626      -280.9474
   4   2.0000     -10.314418      -280.6696
   5   2.0000     -10.303924      -280.3840
   6   2.0000     -10.302715      -280.3511
   7   2.0000     -10.295069      -280.1431
   8   2.0000     -10.294731      -280.1339
   9   2.0000     -10.293517      -280.1008
  10   2.0000     -10.293463      -280.0994
  11   2.0000     -10.290750      -280.0255
  12   2.0000     -10.287704      -279.9427
  13   2.0000     -10.284621      -279.8588
  14   2.0000     -10.279020      -279.7064
  15   2.0000     -10.275187      -279.6021
  16   2.0000      -8.084351      -219.9864
  17   2.0000      -8.080473      -219.8808
  18   2.0000      -6.042566      -164.4266
  19   2.0000      -6.038993      -164.3294
  20   2.0000      -6.038657      -164.3202
  21   2.0000      -6.035320      -164.2294
  22   2.0000      -6.034909      -164.2182
  23   2.0000      -6.031293      -164.1198
  24   2.0000      -1.014953       -27.6183
  25   2.0000      -0.993163       -27.0253
  26   2.0000      -0.905787       -24.6477
  27   2.0000      -0.903083       -24.5741
  28   2.0000      -0.873761       -23.7762
  29   2.0000      -0.854675       -23.2569
  30   2.0000      -0.846601       -23.0372
  31   2.0000      -0.814140       -22.1539
  32   2.0000      -0.781195       -21.2574
  33   2.0000      -0.771143       -20.9839
  34   2.0000      -0.708015       -19.2661
  35   2.0000      -0.696945       -18.9648
  36   2.0000      -0.690081       -18.7781
  37   2.0000      -0.674118       -18.3437
  38   2.0000      -0.643062       -17.4986
  39   2.0000      -0.615553       -16.7501
  40   2.0000      -0.600310       -16.3353
  41   2.0000      -0.570863       -15.5340
  42   2.0000      -0.557657       -15.1746
  43   2.0000      -0.550744       -14.9865
  44   2.0000      -0.539930       -14.6922
  45   2.0000      -0.526243       -14.3198
  46   2.0000      -0.518739       -14.1156
  47   2.0000      -0.511714       -13.9244
  48   2.0000      -0.508174       -13.8281
  49   2.0000      -0.497044       -13.5252
  50   2.0000      -0.484423       -13.1818
  51   2.0000      -0.478495       -13.0205
  52   2.0000      -0.475837       -12.9482
  53   2.0000      -0.470740       -12.8095
  54   2.0000      -0.466557       -12.6956
  55   2.0000      -0.451815       -12.2945
  56   2.0000      -0.443004       -12.0547
  57   2.0000      -0.439491       -11.9592
  58   2.0000      -0.431206       -11.7337
  59   2.0000      -0.426223       -11.5981
  60   2.0000      -0.421224       -11.4621
  61   2.0000      -0.408408       -11.1134
  62   2.0000      -0.405810       -11.0427
  63   2.0000      -0.360660        -9.8141
  64   2.0000      -0.335723        -9.1355
  65   2.0000      -0.330743        -9.0000
  66   2.0000      -0.282441        -7.6856
  67   0.0000       0.024246         0.6598
  68   0.0000       0.089248         2.4286
  69   0.0000       0.116745         3.1768
  70   0.0000       0.117961         3.2099
  71   0.0000       0.139256         3.7893

MULLIKEN ATOMIC CHARGES
-----------------------
   0 S :    0.109709
   1 C :   -0.100838
   2 C :   -0.046206
   3 C :    0.005042
   4 C :   -0.110716
   5 H :   -0.014225
   6 C :    0.076833
   7 H :    0.017954
   8 H :    0.035095
   9 C :   -0.129039
  10 H :    0.032453
  11 H :    0.025813
  12 C :   -0.027505
  13 H :    0.035440
  14 H :    0.033652
  15 H :    0.024006
  16 S :    0.115692
  17 C :   -0.091101
  18 C :   -0.017811
  19 C :   -0.084046
  20 C :   -0.126927
  21 H :    0.020217
  22 C :    0.043734
  23 H :    0.001417
  24 H :    0.036998
  25 C :   -0.029128
  26 H :    0.035630
  27 H :    0.039072
  28 C :   -0.093749
  29 H :    0.031820
  30 H :    0.048314
  31 H :    0.029854
  32 H :    0.018297
  33 H :    0.054247
Sum of atomic charges:    0.0000000

LOEWDIN ATOMIC CHARGES
----------------------
   0 S :    0.426415
   1 C :   -0.200259
   2 C :   -0.064265
   3 C :   -0.065448
   4 C :   -0.180368
   5 H :    0.011111
   6 C :   -0.029271
   7 H :    0.031265
   8 H :    0.029319
   9 C :   -0.054522
  10 H :    0.028683
  11 H :    0.024902
  12 C :   -0.062667
  13 H :    0.031462
  14 H :    0.028629
  15 H :    0.016066
  16 S :    0.454901
  17 C :   -0.197244
  18 C :   -0.069665
  19 C :   -0.058458
  20 C :   -0.205909
  21 H :    0.033659
  22 C :   -0.041656
  23 H :    0.018723
  24 H :    0.028965
  25 C :   -0.028193
  26 H :    0.023200
  27 H :    0.027507
  28 C :   -0.068291
  29 H :    0.019977
  30 H :    0.025339
  31 H :    0.023649
  32 H :    0.018672
  33 H :    0.023775

  Mayer bond orders larger than 0.100000
B(  0-S ,  1-C ) :   1.1287 B(  0-S ,  4-C ) :   1.1543 B(  1-C ,  2-C ) :   1.6230
B(  1-C , 32-H ) :   0.9724 B(  2-C ,  3-C ) :   1.2449 B(  2-C ,  6-C ) :   1.0222
B(  3-C ,  4-C ) :   1.5386 B(  3-C ,  5-H ) :   1.0029 B(  4-C , 20-C ) :   1.0708
B(  6-C ,  7-H ) :   0.9433 B(  6-C ,  8-H ) :   0.9426 B(  6-C ,  9-C ) :   1.0485
B(  9-C , 10-H ) :   0.9555 B(  9-C , 11-H ) :   0.9542 B(  9-C , 12-C ) :   1.0814
B( 12-C , 13-H ) :   0.9733 B( 12-C , 14-H ) :   0.9740 B( 12-C , 15-H ) :   0.9772
B( 16-S , 17-C ) :   1.1906 B( 16-S , 20-C ) :   1.1636 B( 17-C , 18-C ) :   1.5475
B( 17-C , 33-H ) :   0.9699 B( 18-C , 19-C ) :   1.2855 B( 18-C , 21-H ) :   0.9917
B( 19-C , 20-C ) :   1.5439 B( 19-C , 22-C ) :   1.0344 B( 22-C , 23-H ) :   0.9286
B( 22-C , 24-H ) :   0.9340 B( 22-C , 25-C ) :   1.0573 B( 25-C , 26-H ) :   0.9584
B( 25-C , 27-H ) :   0.9588 B( 25-C , 28-C ) :   1.0770 B( 28-C , 29-H ) :   0.9733
B( 28-C , 30-H ) :   0.9737 B( 28-C , 31-H ) :   0.9758

Dispersion correction           -0.013982869
FINAL SINGLE POINT ENERGY     -1339.884762678526

DIPOLE MOMENT
-------------
                                X             Y             Z
Electronic contribution:     -1.67684      -1.50380      -5.60700
Nuclear contribution   :      1.80527       1.52629       5.55979
                        -----------------------------------------
Total Dipole Moment    :      0.12844       0.02249      -0.04721
                        -----------------------------------------
Magnitude (a.u.)       :      0.13868
Magnitude (Debye)      :      0.35249

Rotational constants in cm-1:     0.026672     0.007265     0.005883
Rotational constants in MHz :   799.608066   217.798549   176.379657

                             ****ORCA TERMINATED NORMALLY****
TOTAL RUN TIME: 0 days 0 hours 0 minutes 33 seconds 442 msec
