                         Program Version 4.2.1 -  RELEASE  -
|  1> ! wB97X-D3 SP def2-SVP
|  2> %pal
|  3> nprocs 16
|  4> end
|  5>
|  6> * xyz 0 1
|  7> S 	 -6.32787 	 20.4265 	 53.6866
|  8> C 	 -5.53764 	 21.2389 	 52.3533
|  9> C 	 -4.12726 	 21.18 	 52.575
| 10> C 	 -3.74805 	 20.8029 	 53.95
| 11> C 	 -4.91094 	 20.3571 	 54.5987
| 12> H 	 -2.75968 	 20.7585 	 54.2982
| 13> C 	 -3.04417 	 21.5475 	 51.5799
| 14> H 	 -3.26118 	 21.0299 	 50.6384
| 15> H 	 -2.15334 	 21.0147 	 52.0031
| 16> C 	 -2.78063 	 23.0437 	 51.3437
| 17> H 	 -3.74189 	 23.446 	 50.9116
| 18> H 	 -2.67532 	 23.5252 	 52.3199
| 19> C 	 -1.58054 	 23.428 	 50.3617
| 20> H 	 -0.648702 	 23.0151 	 50.7101
| 21> H 	 -1.61606 	 23.0179 	 49.3576
| 22> H 	 -1.4401 	 24.5118 	 50.3701
| 23> S 	 -5.13122 	 18.0692 	 56.1472
| 24> C 	 -5.19034 	 18.319 	 57.9023
| 25> C 	 -5.26817 	 19.6411 	 58.327
| 26> C 	 -5.15693 	 20.5316 	 57.2052
| 27> C 	 -4.98636 	 19.8275 	 55.975
| 28> H 	 -5.57795 	 19.8868 	 59.2969
| 29> C 	 -5.21838 	 22.082 	 57.267
| 30> H 	 -6.04856 	 22.542 	 57.8533
| 31> H 	 -5.38025 	 22.5175 	 56.2309
| 32> C 	 -3.9379 	 22.8259 	 57.7596
| 33> H 	 -3.74344 	 22.5521 	 58.8048
| 34> H 	 -4.17209 	 23.8749 	 57.7352
| 35> C 	 -2.69564 	 22.652 	 56.8951
| 36> H 	 -2.43986 	 21.6311 	 56.7903
| 37> H 	 -1.75327 	 23.1986 	 57.2363
| 38> H 	 -2.92014 	 23.126 	 55.9539
| 39> H 	 -6.08206 	 21.4214 	 51.4216
| 40> H 	 -5.26729 	 17.4412 	 58.5606
| 41> *
| 42>
| 43>                          ****END OF INPUT****

CARTESIAN COORDINATES (ANGSTROEM)
---------------------------------
  S     -6.327870   20.426500   53.686600
  C     -5.537640   21.238900   52.353300
  C     -4.127260   21.180000   52.575000
  C     -3.748050   20.802900   53.950000
  C     -4.910940   20.357100   54.598700
  H     -2.759680   20.758500   54.298200
  C     -3.044170   21.547500   51.579900
  H     -3.261180   21.029900   50.638400
  H     -2.153340   21.014700   52.003100
  C     -2.780630   23.043700   51.343700
  H     -3.741890   23.446000   50.911600
  H     -2.675320   23.525200   52.319900
  C     -1.580540   23.428000   50.361700
  H     -0.648702   23.015100   50.710100
  H     -1.616060   23.017900   49.357600
  H     -1.440100   24.511800   50.370100
  S     -5.131220   18.069200   56.147200
  C     -5.190340   18.319000   57.902300
  C     -5.268170   19.641100   58.327000
  C     -5.156930   20.531600   57.205200
  C     -4.986360   19.827500   55.975000
  H     -5.577950   19.886800   59.296900
  C     -5.218380   22.082000   57.267000
  H     -6.048560   22.542000   57.853300
  H     -5.380250   22.517500   56.230900
  C     -3.937900   22.825900   57.759600
  H     -3.743440   22.552100   58.804800
  H     -4.172090   23.874900   57.735200
  C     -2.695640   22.652000   56.895100
  H     -2.439860   21.631100   56.790300
  H     -1.753270   23.198600   57.236300
  H     -2.920140   23.126000   55.953900
  H     -6.082060   21.421400   51.421600
  H     -5.267290   17.441200   58.560600

 Total Charge           Charge          ....    0
 Multiplicity           Mult            ....    1
 Number of Electrons    NEL             ....  134
 Basis Dimension        Dim             ....  322

ORBITAL ENERGIES
----------------

  NO   OCC          E(Eh)            E(eV)
   0   2.0000     -88.970207     -2421.0024
   1   2.0000     -88.967186     -2420.9202
   2   2.0000     -10.329415      -281.0777
   3   2.0000     -10.327249      -281.0187
   4   2.0000     -10.322465      -280.8885
   5   2.0000     -10.317381      -280.7502
   6   2.0000     -10.313323      -280.6398
   7   2.0000     -10.310032      -280.5502
   8   2.0000     -10.299947      -280.2758
   9   2.0000     -10.297225      -280.2017
  10   2.0000     -10.296625      -280.1854
  11   2.0000     -10.296218      -280.1743
  12   2.0000     -10.293109      -280.0897
  13   2.0000     -10.282400      -279.7983
  14   2.0000     -10.282340      -279.7967
  15   2.0000     -10.271566      -279.5035
  16   2.0000      -8.084155      -219.9810
  17   2.0000      -8.082862      -219.9458
  18   2.0000      -6.042488      -164.4244
  19   2.0000      -6.041205      -164.3895
  20   2.0000      -6.038991      -164.3293
  21   2.0000      -6.037095      -164.2777
  22   2.0000      -6.034938      -164.2190
  23   2.0000      -6.033875      -164.1901
  24   2.0000      -1.002986       -27.2926
  25   2.0000      -0.976558       -26.5735
  26   2.0000      -0.903776       -24.5930
  27   2.0000      -0.899994       -24.4901
  28   2.0000      -0.861013       -23.4293
  29   2.0000      -0.845823       -23.0160
  30   2.0000      -0.845073       -22.9956
  31   2.0000      -0.809387       -22.0246
  32   2.0000      -0.781272       -21.2595
  33   2.0000      -0.767151       -20.8752
  34   2.0000      -0.704017       -19.1573
  35   2.0000      -0.696457       -18.9516
  36   2.0000      -0.683948       -18.6112
  37   2.0000      -0.656984       -17.8774
  38   2.0000      -0.646548       -17.5935
  39   2.0000      -0.614899       -16.7322
  40   2.0000      -0.594178       -16.1684
  41   2.0000      -0.560499       -15.2519
  42   2.0000      -0.552357       -15.0304
  43   2.0000      -0.551261       -15.0006
  44   2.0000      -0.537222       -14.6186
  45   2.0000      -0.523922       -14.2566
  46   2.0000      -0.512682       -13.9508
  47   2.0000      -0.508272       -13.8308
  48   2.0000      -0.505488       -13.7550
  49   2.0000      -0.488307       -13.2875
  50   2.0000      -0.485765       -13.2183
  51   2.0000      -0.471094       -12.8191
  52   2.0000      -0.467264       -12.7149
  53   2.0000      -0.463442       -12.6109
  54   2.0000      -0.460727       -12.5370
  55   2.0000      -0.452363       -12.3094
  56   2.0000      -0.442668       -12.0456
  57   2.0000      -0.440722       -11.9927
  58   2.0000      -0.431447       -11.7403
  59   2.0000      -0.422467       -11.4959
  60   2.0000      -0.420991       -11.4558
  61   2.0000      -0.410839       -11.1795
  62   2.0000      -0.410359       -11.1664
  63   2.0000      -0.338809        -9.2195
  64   2.0000      -0.327599        -8.9144
  65   2.0000      -0.319788        -8.7019
  66   2.0000      -0.302939        -8.2434
  67   0.0000       0.042355         1.1525
  68   0.0000       0.049457         1.3458
  69   0.0000       0.101859         2.7717
  70   0.0000       0.107638         2.9290
  71   0.0000       0.129285         3.5180

MULLIKEN ATOMIC CHARGES
-----------------------
   0 S :    0.134336
   1 C :   -0.137072
   2 C :   -0.123976
   3 C :    0.071890
   4 C :   -0.172925
   5 H :    0.003893
   6 C :    0.047230
   7 H :    0.029711
   8 H :    0.021403
   9 C :   -0.075496
  10 H :    0.033062
  11 H :    0.032020
  12 C :   -0.038048
  13 H :    0.017333
  14 H :    0.033470
  15 H :    0.042487
  16 S :    0.115224
  17 C :   -0.109310
  18 C :    0.001642
  19 C :    0.007828
  20 C :   -0.186728
  21 H :    0.009280
  22 C :    0.014985
  23 H :    0.040972
  24 H :    0.036900
  25 C :   -0.071157
  26 H :    0.026593
  27 H :    0.025222
  28 C :   -0.057923
  29 H :    0.036112
  30 H :    0.037726
  31 H :    0.024492
  32 H :    0.063865
  33 H :    0.064956
Sum of atomic charges:    0.0000000

LOEWDIN ATOMIC CHARGES
----------------------
   0 S :    0.445516
   1 C :   -0.218387
   2 C :   -0.051125
   3 C :   -0.052845
   4 C :   -0.218707
   5 H :    0.025318
   6 C :   -0.044595
   7 H :    0.030112
   8 H :    0.031194
   9 C :   -0.039815
  10 H :    0.028042
  11 H :    0.025093
  12 C :   -0.068228
  13 H :    0.021303
  14 H :    0.025950
  15 H :    0.030503
  16 S :    0.393644
  17 C :   -0.173957
  18 C :   -0.063782
  19 C :   -0.046933
  20 C :   -0.202417
  21 H :    0.027301
  22 C :   -0.038631
  23 H :    0.036643
  24 H :    0.036913
  25 C :   -0.040780
  26 H :    0.018225
  27 H :    0.022404
  28 C :   -0.068006
  29 H :    0.016394
  30 H :    0.034029
  31 H :    0.021542
  32 H :    0.030150
  33 H :    0.027933

  Mayer bond orders larger than 0.100000
B(  0-S ,  1-C ) :   1.1422 B(  0-S ,  4-C ) :   1.2065 B(  1-C ,  2-C ) :   1.5696
B(  1-C , 32-H ) :   0.9721 B(  2-C ,  3-C ) :   1.2474 B(  2-C ,  6-C ) :   1.0321
B(  3-C ,  4-C ) :   1.5419 B(  3-C ,  5-H ) :   0.9990 B(  4-C , 20-C ) :   0.9962
B(  6-C ,  7-H ) :   0.9386 B(  6-C ,  8-H ) :   0.9403 B(  6-C ,  9-C ) :   1.0593
B(  9-C , 10-H ) :   0.9569 B(  9-C , 11-H ) :   0.9573 B(  9-C , 12-C ) :   1.0674
B( 12-C , 13-H ) :   0.9753 B( 12-C , 14-H ) :   0.9768 B( 12-C , 15-H ) :   0.9769
B( 16-S , 17-C ) :   1.1571 B( 16-S , 20-C ) :   1.1518 B( 17-C , 18-C ) :   1.6116
B( 17-C , 20-C ) :   0.1030 B( 17-C , 33-H ) :   0.9630 B( 18-C , 19-C ) :   1.2337
B( 18-C , 21-H ) :   0.9966 B( 19-C , 20-C ) :   1.5923 B( 19-C , 22-C ) :   1.0346
B( 22-C , 23-H ) :   0.9444 B( 22-C , 24-H ) :   0.9351 B( 22-C , 25-C ) :   1.0705
B( 25-C , 26-H ) :   0.9578 B( 25-C , 27-H ) :   0.9562 B( 25-C , 28-C ) :   1.0778
B( 28-C , 29-H ) :   0.9756 B( 28-C , 30-H ) :   0.9711 B( 28-C , 31-H ) :   0.9711

Dispersion correction           -0.015090782
FINAL SINGLE POINT ENERGY     -1339.872798034731

DIPOLE MOMENT
-------------
                                X             Y             Z
Electronic contribution:    -18.09315     -22.40746       6.35325
Nuclear contribution   :     18.29696      22.69818      -6.37357
                        -----------------------------------------
Total Dipole Moment    :      0.20380       0.29073      -0.02031
                        -----------------------------------------
Magnitude (a.u.)       :      0.35563
Magnitude (Debye)      :      0.90394

Rotational constants in cm-1:     0.020736     0.008215     0.006799
Rotational constants in MHz :   621.643916   246.281175   203.840456

                             ****ORCA TERMINATED NORMALLY****
TOTAL RUN TIME: 0 days 0 hours 0 minutes 33 seconds 429 msec
