                         Program Version 4.2.1 -  RELEASE  -
|  1> ! wB97X-D3 SP def2-SVP
|  2> %pal
|  3> nprocs 16
|  4> end
|  5>
|  6> * xyz 0 1
|  7> S 	 42.8301 	 18.2279 	 88.7479
|  8> C 	 44.2326 	 19.0073 	 89.4383
|  9> C 	 44.3973 	 18.5188 	 90.7374
| 10> C 	 43.5002 	 17.3977 	 91.0601
| 11> C 	 42.6972 	 17.0439 	 89.9679
| 12> H 	 43.4523 	 16.8396 	 92.022
| 13> C 	 45.3499 	 19.0598 	 91.7644
| 14> H 	 45.8429 	 18.2972 	 92.4248
| 15> H 	 44.875 	 19.7322 	 92.3656
| 16> C 	 46.584 	 19.7793 	 91.0865
| 17> H 	 47.0092 	 19.078 	 90.3123
| 18> H 	 46.4992 	 20.8045 	 90.6794
| 19> C 	 47.7514 	 19.9031 	 92.0777
| 20> H 	 47.4245 	 20.3836 	 93.0443
| 21> H 	 48.2058 	 18.8895 	 92.1954
| 22> H 	 48.5777 	 20.4192 	 91.652
| 23> S 	 39.9198 	 16.83 	 90.4459
| 24> C 	 39.205 	 15.229 	 90.3396
| 25> C 	 40.0506 	 14.2418 	 89.8813
| 26> C 	 41.3809 	 14.7986 	 89.5953
| 27> C 	 41.5274 	 16.1373 	 90.0309
| 28> H 	 39.7225 	 13.1918 	 89.7037
| 29> C 	 42.5917 	 14.0632 	 89.0632
| 30> H 	 43.4375 	 14.6859 	 88.7825
| 31> H 	 42.2917 	 13.5727 	 88.1293
| 32> C 	 43.2348 	 12.9266 	 89.9526
| 33> H 	 43.7935 	 12.2649 	 89.2762
| 34> H 	 42.4852 	 12.2928 	 90.349
| 35> C 	 44.118 	 13.4829 	 91.1346
| 36> H 	 44.6236 	 12.5503 	 91.5978
| 37> H 	 43.5193 	 13.9017 	 92.0281
| 38> H 	 44.8649 	 14.3113 	 90.8518
| 39> H 	 44.6927 	 19.944 	 89.1723
| 40> H 	 38.1516 	 15.0104 	 90.5645
| 41> *
| 42>
| 43>                          ****END OF INPUT****

CARTESIAN COORDINATES (ANGSTROEM)
---------------------------------
  S     42.830100   18.227900   88.747900
  C     44.232600   19.007300   89.438300
  C     44.397300   18.518800   90.737400
  C     43.500200   17.397700   91.060100
  C     42.697200   17.043900   89.967900
  H     43.452300   16.839600   92.022000
  C     45.349900   19.059800   91.764400
  H     45.842900   18.297200   92.424800
  H     44.875000   19.732200   92.365600
  C     46.584000   19.779300   91.086500
  H     47.009200   19.078000   90.312300
  H     46.499200   20.804500   90.679400
  C     47.751400   19.903100   92.077700
  H     47.424500   20.383600   93.044300
  H     48.205800   18.889500   92.195400
  H     48.577700   20.419200   91.652000
  S     39.919800   16.830000   90.445900
  C     39.205000   15.229000   90.339600
  C     40.050600   14.241800   89.881300
  C     41.380900   14.798600   89.595300
  C     41.527400   16.137300   90.030900
  H     39.722500   13.191800   89.703700
  C     42.591700   14.063200   89.063200
  H     43.437500   14.685900   88.782500
  H     42.291700   13.572700   88.129300
  C     43.234800   12.926600   89.952600
  H     43.793500   12.264900   89.276200
  H     42.485200   12.292800   90.349000
  C     44.118000   13.482900   91.134600
  H     44.623600   12.550300   91.597800
  H     43.519300   13.901700   92.028100
  H     44.864900   14.311300   90.851800
  H     44.692700   19.944000   89.172300
  H     38.151600   15.010400   90.564500

 Total Charge           Charge          ....    0
 Multiplicity           Mult            ....    1
 Number of Electrons    NEL             ....  134
 Basis Dimension        Dim             ....  322

ORBITAL ENERGIES
----------------

  NO   OCC          E(Eh)            E(eV)
   0   2.0000     -88.965751     -2420.8812
   1   2.0000     -88.964976     -2420.8601
   2   2.0000     -10.330800      -281.1154
   3   2.0000     -10.328740      -281.0593
   4   2.0000     -10.322151      -280.8800
   5   2.0000     -10.314443      -280.6703
   6   2.0000     -10.312097      -280.6064
   7   2.0000     -10.305568      -280.4288
   8   2.0000     -10.303884      -280.3829
   9   2.0000     -10.301030      -280.3053
  10   2.0000     -10.295307      -280.1495
  11   2.0000     -10.293507      -280.1006
  12   2.0000     -10.292829      -280.0821
  13   2.0000     -10.290349      -280.0146
  14   2.0000     -10.289476      -279.9909
  15   2.0000     -10.280654      -279.7508
  16   2.0000      -8.080289      -219.8759
  17   2.0000      -8.079672      -219.8591
  18   2.0000      -6.038821      -164.3247
  19   2.0000      -6.038257      -164.3093
  20   2.0000      -6.034570      -164.2090
  21   2.0000      -6.034446      -164.2056
  22   2.0000      -6.031107      -164.1148
  23   2.0000      -6.030246      -164.0913
  24   2.0000      -1.002192       -27.2710
  25   2.0000      -0.976903       -26.5829
  26   2.0000      -0.910958       -24.7884
  27   2.0000      -0.896231       -24.3877
  28   2.0000      -0.864609       -23.5272
  29   2.0000      -0.844844       -22.9894
  30   2.0000      -0.837623       -22.7929
  31   2.0000      -0.811965       -22.0947
  32   2.0000      -0.778237       -21.1769
  33   2.0000      -0.765013       -20.8171
  34   2.0000      -0.704821       -19.1792
  35   2.0000      -0.694671       -18.9029
  36   2.0000      -0.686062       -18.6687
  37   2.0000      -0.648637       -17.6503
  38   2.0000      -0.639520       -17.4022
  39   2.0000      -0.608399       -16.5554
  40   2.0000      -0.594685       -16.1822
  41   2.0000      -0.574926       -15.6445
  42   2.0000      -0.570410       -15.5217
  43   2.0000      -0.539909       -14.6917
  44   2.0000      -0.530424       -14.4336
  45   2.0000      -0.524953       -14.2847
  46   2.0000      -0.512261       -13.9393
  47   2.0000      -0.507738       -13.8162
  48   2.0000      -0.500686       -13.6244
  49   2.0000      -0.496199       -13.5023
  50   2.0000      -0.486641       -13.2422
  51   2.0000      -0.475234       -12.9318
  52   2.0000      -0.468354       -12.7446
  53   2.0000      -0.463512       -12.6128
  54   2.0000      -0.455543       -12.3960
  55   2.0000      -0.445151       -12.1132
  56   2.0000      -0.434249       -11.8165
  57   2.0000      -0.429174       -11.6784
  58   2.0000      -0.427474       -11.6322
  59   2.0000      -0.421858       -11.4793
  60   2.0000      -0.420240       -11.4353
  61   2.0000      -0.419085       -11.4039
  62   2.0000      -0.413087       -11.2407
  63   2.0000      -0.333748        -9.0818
  64   2.0000      -0.323003        -8.7894
  65   2.0000      -0.320107        -8.7106
  66   2.0000      -0.311915        -8.4876
  67   0.0000       0.042724         1.1626
  68   0.0000       0.048403         1.3171
  69   0.0000       0.113673         3.0932
  70   0.0000       0.114153         3.1063
  71   0.0000       0.130502         3.5512

MULLIKEN ATOMIC CHARGES
-----------------------
   0 S :    0.118899
   1 C :   -0.087214
   2 C :   -0.135514
   3 C :    0.022193
   4 C :   -0.155204
   5 H :    0.034044
   6 C :    0.104961
   7 H :    0.038642
   8 H :    0.023433
   9 C :   -0.157153
  10 H :    0.045546
  11 H :    0.045018
  12 C :   -0.064205
  13 H :    0.044256
  14 H :    0.031926
  15 H :    0.022820
  16 S :    0.110055
  17 C :   -0.095718
  18 C :   -0.031517
  19 C :   -0.021707
  20 C :   -0.176499
  21 H :    0.038953
  22 C :    0.042640
  23 H :    0.034771
  24 H :    0.025698
  25 C :   -0.046669
  26 H :    0.030492
  27 H :    0.016103
  28 C :   -0.132379
  29 H :    0.046323
  30 H :    0.050734
  31 H :    0.057774
  32 H :    0.052640
  33 H :    0.065859
Sum of atomic charges:   -0.0000000

LOEWDIN ATOMIC CHARGES
----------------------
   0 S :    0.433507
   1 C :   -0.207484
   2 C :   -0.061033
   3 C :   -0.061221
   4 C :   -0.219479
   5 H :    0.039083
   6 C :   -0.025349
   7 H :    0.039926
   8 H :    0.021450
   9 C :   -0.052118
  10 H :    0.032336
  11 H :    0.024018
  12 C :   -0.073061
  13 H :    0.028263
  14 H :    0.027228
  15 H :    0.019497
  16 S :    0.380461
  17 C :   -0.179411
  18 C :   -0.078089
  19 C :   -0.043759
  20 C :   -0.194904
  21 H :    0.041224
  22 C :   -0.036590
  23 H :    0.032207
  24 H :    0.032639
  25 C :   -0.037082
  26 H :    0.026013
  27 H :    0.016108
  28 C :   -0.089820
  29 H :    0.034373
  30 H :    0.032020
  31 H :    0.032996
  32 H :    0.032203
  33 H :    0.033848

  Mayer bond orders larger than 0.100000
B(  0-S ,  1-C ) :   1.1342 B(  0-S ,  4-C ) :   1.1774 B(  1-C ,  2-C ) :   1.6040
B(  1-C , 32-H ) :   0.9628 B(  2-C ,  3-C ) :   1.2513 B(  2-C ,  6-C ) :   1.0251
B(  3-C ,  4-C ) :   1.5490 B(  3-C ,  5-H ) :   0.9899 B(  4-C , 20-C ) :   1.0226
B(  6-C ,  7-H ) :   0.9528 B(  6-C ,  8-H ) :   0.9233 B(  6-C ,  9-C ) :   1.0545
B(  9-C , 10-H ) :   0.9626 B(  9-C , 11-H ) :   0.9533 B(  9-C , 12-C ) :   1.0890
B( 12-C , 13-H ) :   0.9732 B( 12-C , 14-H ) :   0.9751 B( 12-C , 15-H ) :   0.9720
B( 16-S , 17-C ) :   1.1507 B( 16-S , 20-C ) :   1.1183 B( 17-C , 18-C ) :   1.6425
B( 17-C , 33-H ) :   0.9601 B( 18-C , 19-C ) :   1.2060 B( 18-C , 21-H ) :   0.9835
B( 19-C , 20-C ) :   1.6143 B( 19-C , 22-C ) :   1.0597 B( 22-C , 23-H ) :   0.9375
B( 22-C , 24-H ) :   0.9282 B( 22-C , 25-C ) :   1.0694 B( 25-C , 26-H ) :   0.9578
B( 25-C , 27-H ) :   0.9568 B( 25-C , 28-C ) :   1.0587 B( 28-C , 29-H ) :   0.9723
B( 28-C , 30-H ) :   0.9750 B( 28-C , 31-H ) :   0.9734

Dispersion correction           -0.014464372
FINAL SINGLE POINT ENERGY     -1339.860354378328

DIPOLE MOMENT
-------------
                                X             Y             Z
Electronic contribution:    -25.24844       5.49900      -9.72833
Nuclear contribution   :     25.53582      -5.69198      10.00036
                        -----------------------------------------
Total Dipole Moment    :      0.28738      -0.19299       0.27202
                        -----------------------------------------
Magnitude (a.u.)       :      0.44026
Magnitude (Debye)      :      1.11905

Rotational constants in cm-1:     0.021614     0.007667     0.006466
Rotational constants in MHz :   647.985283   229.855632   193.858042

                             ****ORCA TERMINATED NORMALLY****
TOTAL RUN TIME: 0 days 0 hours 0 minutes 29 seconds 845 msec
