                         Program Version 4.2.1 -  RELEASE  -
|  1> ! wB97X-D3 SP def2-SVP
|  2> %pal
|  3> nprocs 16
|  4> end
|  5>
|  6> * xyz 0 1
|  7> S 	 -73.3037 	 41.7891 	 138.363
|  8> C 	 -74.4307 	 41.9049 	 136.973
|  9> C 	 -73.7344 	 41.7751 	 135.786
| 10> C 	 -72.3604 	 41.6001 	 135.946
| 11> C 	 -71.9432 	 41.6456 	 137.263
| 12> H 	 -71.5939 	 41.4276 	 135.227
| 13> C 	 -74.4826 	 41.5066 	 134.565
| 14> H 	 -73.783 	 41.5963 	 133.718
| 15> H 	 -75.1655 	 42.3542 	 134.268
| 16> C 	 -75.1488 	 40.1139 	 134.375
| 17> H 	 -74.4774 	 39.3701 	 134.711
| 18> H 	 -76.0444 	 39.9534 	 135.077
| 19> C 	 -75.7831 	 39.9443 	 133.002
| 20> H 	 -76.1469 	 38.9174 	 132.941
| 21> H 	 -76.6018 	 40.6874 	 132.733
| 22> H 	 -74.9521 	 39.8803 	 132.233
| 23> S 	 -70.3839 	 39.9116 	 138.528
| 24> C 	 -68.6364 	 40.2115 	 138.759
| 25> C 	 -68.2731 	 41.324 	 138.078
| 26> C 	 -69.4063 	 41.9216 	 137.408
| 27> C 	 -70.6033 	 41.3628 	 137.729
| 28> H 	 -67.2581 	 41.5923 	 138.012
| 29> C 	 -69.1862 	 43.1377 	 136.535
| 30> H 	 -70.1748 	 43.584 	 136.353
| 31> H 	 -68.8473 	 42.7693 	 135.583
| 32> C 	 -68.2998 	 44.282 	 137.073
| 33> H 	 -67.2029 	 44.0243 	 136.957
| 34> H 	 -68.4925 	 44.4564 	 138.057
| 35> C 	 -68.4923 	 45.5665 	 136.191
| 36> H 	 -68.5324 	 45.3627 	 135.124
| 37> H 	 -67.695 	 46.2305 	 136.313
| 38> H 	 -69.4413 	 46.1124 	 136.222
| 39> H 	 -75.5194 	 41.9175 	 137.004
| 40> H 	 -67.8928 	 39.525 	 139.16
| 41> *
| 42>
| 43>                          ****END OF INPUT****

CARTESIAN COORDINATES (ANGSTROEM)
---------------------------------
  S    -73.303700   41.789100  138.363000
  C    -74.430700   41.904900  136.973000
  C    -73.734400   41.775100  135.786000
  C    -72.360400   41.600100  135.946000
  C    -71.943200   41.645600  137.263000
  H    -71.593900   41.427600  135.227000
  C    -74.482600   41.506600  134.565000
  H    -73.783000   41.596300  133.718000
  H    -75.165500   42.354200  134.268000
  C    -75.148800   40.113900  134.375000
  H    -74.477400   39.370100  134.711000
  H    -76.044400   39.953400  135.077000
  C    -75.783100   39.944300  133.002000
  H    -76.146900   38.917400  132.941000
  H    -76.601800   40.687400  132.733000
  H    -74.952100   39.880300  132.233000
  S    -70.383900   39.911600  138.528000
  C    -68.636400   40.211500  138.759000
  C    -68.273100   41.324000  138.078000
  C    -69.406300   41.921600  137.408000
  C    -70.603300   41.362800  137.729000
  H    -67.258100   41.592300  138.012000
  C    -69.186200   43.137700  136.535000
  H    -70.174800   43.584000  136.353000
  H    -68.847300   42.769300  135.583000
  C    -68.299800   44.282000  137.073000
  H    -67.202900   44.024300  136.957000
  H    -68.492500   44.456400  138.057000
  C    -68.492300   45.566500  136.191000
  H    -68.532400   45.362700  135.124000
  H    -67.695000   46.230500  136.313000
  H    -69.441300   46.112400  136.222000
  H    -75.519400   41.917500  137.004000
  H    -67.892800   39.525000  139.160000

 Total Charge           Charge          ....    0
 Multiplicity           Mult            ....    1
 Number of Electrons    NEL             ....  134
 Basis Dimension        Dim             ....  322

ORBITAL ENERGIES
----------------

  NO   OCC          E(Eh)            E(eV)
   0   2.0000     -88.969112     -2420.9726
   1   2.0000     -88.960190     -2420.7298
   2   2.0000     -10.328070      -281.0411
   3   2.0000     -10.316311      -280.7211
   4   2.0000     -10.316244      -280.7193
   5   2.0000     -10.315374      -280.6956
   6   2.0000     -10.297299      -280.2038
   7   2.0000     -10.294952      -280.1399
   8   2.0000     -10.291477      -280.0453
   9   2.0000     -10.291100      -280.0351
  10   2.0000     -10.291062      -280.0340
  11   2.0000     -10.289520      -279.9921
  12   2.0000     -10.288581      -279.9665
  13   2.0000     -10.287929      -279.9488
  14   2.0000     -10.286339      -279.9055
  15   2.0000     -10.273268      -279.5498
  16   2.0000      -8.082819      -219.9447
  17   2.0000      -8.076244      -219.7658
  18   2.0000      -6.041340      -164.3932
  19   2.0000      -6.037406      -164.2862
  20   2.0000      -6.034828      -164.2160
  21   2.0000      -6.033696      -164.1852
  22   2.0000      -6.030599      -164.1010
  23   2.0000      -6.026759      -163.9964
  24   2.0000      -1.015041       -27.6207
  25   2.0000      -0.987577       -26.8733
  26   2.0000      -0.913351       -24.8535
  27   2.0000      -0.904531       -24.6135
  28   2.0000      -0.874990       -23.8097
  29   2.0000      -0.852355       -23.1938
  30   2.0000      -0.845785       -23.0150
  31   2.0000      -0.821243       -22.3471
  32   2.0000      -0.778203       -21.1760
  33   2.0000      -0.768186       -20.9034
  34   2.0000      -0.711860       -19.3707
  35   2.0000      -0.703297       -19.1377
  36   2.0000      -0.700478       -19.0610
  37   2.0000      -0.663543       -18.0559
  38   2.0000      -0.644264       -17.5313
  39   2.0000      -0.618647       -16.8342
  40   2.0000      -0.593919       -16.1614
  41   2.0000      -0.575398       -15.6574
  42   2.0000      -0.565000       -15.3744
  43   2.0000      -0.556128       -15.1330
  44   2.0000      -0.530029       -14.4228
  45   2.0000      -0.524233       -14.2651
  46   2.0000      -0.521341       -14.1864
  47   2.0000      -0.515031       -14.0147
  48   2.0000      -0.506926       -13.7942
  49   2.0000      -0.497830       -13.5466
  50   2.0000      -0.490235       -13.3400
  51   2.0000      -0.478044       -13.0082
  52   2.0000      -0.471449       -12.8288
  53   2.0000      -0.462930       -12.5970
  54   2.0000      -0.457108       -12.4385
  55   2.0000      -0.451264       -12.2795
  56   2.0000      -0.444352       -12.0914
  57   2.0000      -0.437677       -11.9098
  58   2.0000      -0.433152       -11.7867
  59   2.0000      -0.427492       -11.6327
  60   2.0000      -0.419342       -11.4109
  61   2.0000      -0.416501       -11.3336
  62   2.0000      -0.400711       -10.9039
  63   2.0000      -0.348827        -9.4921
  64   2.0000      -0.334354        -9.0982
  65   2.0000      -0.322315        -8.7706
  66   2.0000      -0.298003        -8.1091
  67   0.0000       0.033276         0.9055
  68   0.0000       0.068792         1.8719
  69   0.0000       0.114463         3.1147
  70   0.0000       0.119253         3.2450
  71   0.0000       0.132899         3.6164

MULLIKEN ATOMIC CHARGES
-----------------------
   0 S :    0.112967
   1 C :   -0.116892
   2 C :   -0.042734
   3 C :    0.052848
   4 C :   -0.184290
   5 H :    0.002766
   6 C :    0.024579
   7 H :    0.005482
   8 H :    0.033025
   9 C :   -0.059410
  10 H :    0.026252
  11 H :    0.026943
  12 C :   -0.074626
  13 H :    0.033910
  14 H :    0.060395
  15 H :    0.032062
  16 S :    0.102621
  17 C :   -0.087006
  18 C :   -0.015426
  19 C :   -0.057868
  20 C :   -0.136962
  21 H :    0.003981
  22 C :    0.053682
  23 H :    0.027025
  24 H :    0.027884
  25 C :   -0.040274
  26 H :    0.035465
  27 H :    0.020884
  28 C :   -0.044442
  29 H :    0.012729
  30 H :    0.021788
  31 H :    0.032422
  32 H :    0.052632
  33 H :    0.057588
Sum of atomic charges:   -0.0000000

LOEWDIN ATOMIC CHARGES
----------------------
   0 S :    0.395196
   1 C :   -0.176666
   2 C :   -0.074992
   3 C :   -0.054240
   4 C :   -0.191386
   5 H :    0.030646
   6 C :   -0.047389
   7 H :    0.027506
   8 H :    0.037134
   9 C :   -0.041143
  10 H :    0.021407
  11 H :    0.027336
  12 C :   -0.076007
  13 H :    0.028820
  14 H :    0.037782
  15 H :    0.027554
  16 S :    0.419719
  17 C :   -0.173943
  18 C :   -0.063102
  19 C :   -0.060931
  20 C :   -0.229074
  21 H :    0.026066
  22 C :   -0.034402
  23 H :    0.031097
  24 H :    0.028892
  25 C :   -0.025371
  26 H :    0.029991
  27 H :    0.012227
  28 C :   -0.068646
  29 H :    0.025497
  30 H :    0.017291
  31 H :    0.028126
  32 H :    0.031896
  33 H :    0.033110

  Mayer bond orders larger than 0.100000
B(  0-S ,  1-C ) :   1.1334 B(  0-S ,  4-C ) :   1.1570 B(  1-C ,  2-C ) :   1.5861
B(  1-C ,  4-C ) :   0.1030 B(  1-C , 32-H ) :   0.9714 B(  2-C ,  3-C ) :   1.2449
B(  2-C ,  6-C ) :   1.0508 B(  3-C ,  4-C ) :   1.5602 B(  3-C ,  5-H ) :   1.0032
B(  4-C , 20-C ) :   1.0084 B(  6-C ,  7-H ) :   0.9361 B(  6-C ,  8-H ) :   0.9298
B(  6-C ,  9-C ) :   1.0501 B(  9-C , 10-H ) :   0.9554 B(  9-C , 11-H ) :   0.9515
B(  9-C , 12-C ) :   1.0813 B( 12-C , 13-H ) :   0.9702 B( 12-C , 14-H ) :   0.9725
B( 12-C , 15-H ) :   0.9725 B( 16-S , 17-C ) :   1.1361 B( 16-S , 20-C ) :   1.1538
B( 17-C , 18-C ) :   1.6357 B( 17-C , 33-H ) :   0.9651 B( 18-C , 19-C ) :   1.2128
B( 18-C , 21-H ) :   1.0007 B( 19-C , 20-C ) :   1.6195 B( 19-C , 22-C ) :   1.0477
B( 22-C , 23-H ) :   0.9422 B( 22-C , 24-H ) :   0.9207 B( 22-C , 25-C ) :   1.0684
B( 25-C , 26-H ) :   0.9493 B( 25-C , 27-H ) :   0.9635 B( 25-C , 28-C ) :   1.0773
B( 28-C , 29-H ) :   0.9713 B( 28-C , 30-H ) :   0.9768 B( 28-C , 31-H ) :   0.9742

Dispersion correction           -0.013696332
FINAL SINGLE POINT ENERGY     -1339.860431065765

DIPOLE MOMENT
-------------
                                X             Y             Z
Electronic contribution:      1.31397      -9.67162      21.84915
Nuclear contribution   :     -1.13163       9.66937     -22.49765
                        -----------------------------------------
Total Dipole Moment    :      0.18234      -0.00225      -0.64850
                        -----------------------------------------
Magnitude (a.u.)       :      0.67366
Magnitude (Debye)      :      1.71230

Rotational constants in cm-1:     0.019080     0.007527     0.006447
Rotational constants in MHz :   571.997501   225.665577   193.281444

                             ****ORCA TERMINATED NORMALLY****
TOTAL RUN TIME: 0 days 0 hours 0 minutes 33 seconds 759 msec
