                         Program Version 4.2.1 -  RELEASE  -
|  1> ! wB97X-D3 SP def2-SVP
|  2> %pal
|  3> nprocs 16
|  4> end
|  5>
|  6> * xyz 0 1
|  7> S 	 47.8962 	 5.98337 	 89.1935
|  8> C 	 47.0058 	 5.01531 	 87.9792
|  9> C 	 47.5421 	 3.74838 	 87.8867
| 10> C 	 48.7235 	 3.61151 	 88.6739
| 11> C 	 49.1737 	 4.74373 	 89.2673
| 12> H 	 49.3366 	 2.76609 	 88.8697
| 13> C 	 46.8638 	 2.60052 	 87.1609
| 14> H 	 45.9116 	 3.00059 	 86.7625
| 15> H 	 46.4162 	 1.85648 	 87.9256
| 16> C 	 47.5977 	 1.77441 	 86.1005
| 17> H 	 47.7812 	 2.42016 	 85.2044
| 18> H 	 48.643 	 1.61884 	 86.4516
| 19> C 	 47.0724 	 0.437332 	 85.6424
| 20> H 	 47.644 	 -0.16108 	 84.938
| 21> H 	 47.053 	 -0.204528 	 86.5343
| 22> H 	 46.1233 	 0.414169 	 85.1943
| 23> S 	 50.2427 	 5.57137 	 91.7407
| 24> C 	 51.7684 	 5.09758 	 92.2558
| 25> C 	 52.3214 	 4.3148 	 91.3328
| 26> C 	 51.5943 	 4.3139 	 90.1099
| 27> C 	 50.3143 	 4.89994 	 90.1743
| 28> H 	 53.2169 	 3.76243 	 91.4278
| 29> C 	 52.1553 	 3.42729 	 89.0101
| 30> H 	 51.5701 	 2.49194 	 89.1099
| 31> H 	 53.2217 	 3.15922 	 89.2812
| 32> C 	 52.0223 	 4.01893 	 87.6279
| 33> H 	 50.9842 	 4.32403 	 87.4272
| 34> H 	 52.27 	 3.19973 	 86.9623
| 35> C 	 53.0141 	 5.11684 	 87.3782
| 36> H 	 53.177 	 5.78777 	 88.2343
| 37> H 	 52.7108 	 5.87153 	 86.6905
| 38> H 	 53.9764 	 4.76085 	 87.1582
| 39> H 	 46.1714 	 5.3444 	 87.2873
| 40> H 	 52.1186 	 5.10356 	 93.2826
| 41> *
| 42>
| 43>                          ****END OF INPUT****

CARTESIAN COORDINATES (ANGSTROEM)
---------------------------------
  S     47.896200    5.983370   89.193500
  C     47.005800    5.015310   87.979200
  C     47.542100    3.748380   87.886700
  C     48.723500    3.611510   88.673900
  C     49.173700    4.743730   89.267300
  H     49.336600    2.766090   88.869700
  C     46.863800    2.600520   87.160900
  H     45.911600    3.000590   86.762500
  H     46.416200    1.856480   87.925600
  C     47.597700    1.774410   86.100500
  H     47.781200    2.420160   85.204400
  H     48.643000    1.618840   86.451600
  C     47.072400    0.437332   85.642400
  H     47.644000   -0.161080   84.938000
  H     47.053000   -0.204528   86.534300
  H     46.123300    0.414169   85.194300
  S     50.242700    5.571370   91.740700
  C     51.768400    5.097580   92.255800
  C     52.321400    4.314800   91.332800
  C     51.594300    4.313900   90.109900
  C     50.314300    4.899940   90.174300
  H     53.216900    3.762430   91.427800
  C     52.155300    3.427290   89.010100
  H     51.570100    2.491940   89.109900
  H     53.221700    3.159220   89.281200
  C     52.022300    4.018930   87.627900
  H     50.984200    4.324030   87.427200
  H     52.270000    3.199730   86.962300
  C     53.014100    5.116840   87.378200
  H     53.177000    5.787770   88.234300
  H     52.710800    5.871530   86.690500
  H     53.976400    4.760850   87.158200
  H     46.171400    5.344400   87.287300
  H     52.118600    5.103560   93.282600

 Total Charge           Charge          ....    0
 Multiplicity           Mult            ....    1
 Number of Electrons    NEL             ....  134
 Basis Dimension        Dim             ....  322

ORBITAL ENERGIES
----------------

  NO   OCC          E(Eh)            E(eV)
   0   2.0000     -88.966747     -2420.9083
   1   2.0000     -88.963370     -2420.8164
   2   2.0000     -10.335544      -281.2445
   3   2.0000     -10.327552      -281.0270
   4   2.0000     -10.325334      -280.9666
   5   2.0000     -10.309337      -280.5313
   6   2.0000     -10.308165      -280.4994
   7   2.0000     -10.304752      -280.4066
   8   2.0000     -10.298423      -280.2343
   9   2.0000     -10.293679      -280.1052
  10   2.0000     -10.293544      -280.1016
  11   2.0000     -10.292844      -280.0825
  12   2.0000     -10.282925      -279.8126
  13   2.0000     -10.277581      -279.6672
  14   2.0000     -10.276937      -279.6497
  15   2.0000     -10.261553      -279.2311
  16   2.0000      -8.080531      -219.8824
  17   2.0000      -8.080263      -219.8751
  18   2.0000      -6.039225      -164.3357
  19   2.0000      -6.038707      -164.3216
  20   2.0000      -6.035325      -164.2296
  21   2.0000      -6.034244      -164.2001
  22   2.0000      -6.031147      -164.1159
  23   2.0000      -6.030988      -164.1115
  24   2.0000      -1.019575       -27.7441
  25   2.0000      -0.991841       -26.9894
  26   2.0000      -0.914336       -24.8804
  27   2.0000      -0.910430       -24.7741
  28   2.0000      -0.877488       -23.8776
  29   2.0000      -0.851667       -23.1750
  30   2.0000      -0.847645       -23.0656
  31   2.0000      -0.824915       -22.4471
  32   2.0000      -0.785581       -21.3767
  33   2.0000      -0.774947       -21.0874
  34   2.0000      -0.715421       -19.4676
  35   2.0000      -0.700300       -19.0561
  36   2.0000      -0.687330       -18.7032
  37   2.0000      -0.664884       -18.0924
  38   2.0000      -0.643914       -17.5218
  39   2.0000      -0.622128       -16.9290
  40   2.0000      -0.594781       -16.1848
  41   2.0000      -0.575885       -15.6706
  42   2.0000      -0.559543       -15.2259
  43   2.0000      -0.555027       -15.1031
  44   2.0000      -0.549128       -14.9425
  45   2.0000      -0.526194       -14.3185
  46   2.0000      -0.521014       -14.1775
  47   2.0000      -0.512698       -13.9512
  48   2.0000      -0.507446       -13.8083
  49   2.0000      -0.498773       -13.5723
  50   2.0000      -0.496058       -13.4984
  51   2.0000      -0.482631       -13.1331
  52   2.0000      -0.477632       -12.9970
  53   2.0000      -0.470201       -12.7948
  54   2.0000      -0.461037       -12.5455
  55   2.0000      -0.456050       -12.4098
  56   2.0000      -0.439130       -11.9493
  57   2.0000      -0.434206       -11.8153
  58   2.0000      -0.430487       -11.7142
  59   2.0000      -0.425603       -11.5813
  60   2.0000      -0.415085       -11.2950
  61   2.0000      -0.407942       -11.1007
  62   2.0000      -0.401516       -10.9258
  63   2.0000      -0.359571        -9.7844
  64   2.0000      -0.332155        -9.0384
  65   2.0000      -0.325990        -8.8706
  66   2.0000      -0.292484        -7.9589
  67   0.0000       0.023963         0.6521
  68   0.0000       0.072263         1.9664
  69   0.0000       0.101812         2.7705
  70   0.0000       0.122760         3.3405
  71   0.0000       0.131858         3.5880

MULLIKEN ATOMIC CHARGES
-----------------------
   0 S :    0.089683
   1 C :   -0.133587
   2 C :   -0.060866
   3 C :    0.040720
   4 C :   -0.160976
   5 H :   -0.004694
   6 C :    0.046741
   7 H :    0.010416
   8 H :    0.044659
   9 C :   -0.081756
  10 H :    0.030278
  11 H :    0.027349
  12 C :   -0.029266
  13 H :    0.030078
  14 H :    0.022732
  15 H :    0.022676
  16 S :    0.106305
  17 C :   -0.059680
  18 C :   -0.026586
  19 C :   -0.103475
  20 C :   -0.093619
  21 H :    0.004399
  22 C :    0.003108
  23 H :    0.041000
  24 H :    0.024174
  25 C :   -0.037775
  26 H :    0.051847
  27 H :    0.020253
  28 C :   -0.016401
  29 H :    0.018305
  30 H :    0.021688
  31 H :    0.013768
  32 H :    0.075316
  33 H :    0.063187
Sum of atomic charges:    0.0000000

LOEWDIN ATOMIC CHARGES
----------------------
   0 S :    0.369304
   1 C :   -0.186875
   2 C :   -0.066369
   3 C :   -0.056740
   4 C :   -0.170390
   5 H :    0.027685
   6 C :   -0.040538
   7 H :    0.028756
   8 H :    0.042980
   9 C :   -0.054269
  10 H :    0.027111
  11 H :    0.027264
  12 C :   -0.067436
  13 H :    0.031713
  14 H :    0.027564
  15 H :    0.018149
  16 S :    0.454744
  17 C :   -0.205319
  18 C :   -0.074258
  19 C :   -0.060485
  20 C :   -0.225671
  21 H :    0.025049
  22 C :   -0.036197
  23 H :    0.030518
  24 H :    0.032249
  25 C :   -0.045337
  26 H :    0.030498
  27 H :    0.025037
  28 C :   -0.065295
  29 H :    0.028376
  30 H :    0.025584
  31 H :    0.017336
  32 H :    0.047040
  33 H :    0.038218

  Mayer bond orders larger than 0.100000
B(  0-S ,  1-C ) :   1.1246 B(  0-S ,  4-C ) :   1.1224 B(  1-C ,  2-C ) :   1.6404
B(  1-C , 32-H ) :   0.9541 B(  2-C ,  3-C ) :   1.1928 B(  2-C ,  6-C ) :   1.0365
B(  3-C ,  4-C ) :   1.6076 B(  3-C ,  5-H ) :   0.9965 B(  4-C , 20-C ) :   1.0454
B(  6-C ,  7-H ) :   0.9339 B(  6-C ,  8-H ) :   0.9384 B(  6-C ,  9-C ) :   1.0453
B(  9-C , 10-H ) :   0.9514 B(  9-C , 11-H ) :   0.9574 B(  9-C , 12-C ) :   1.0847
B( 12-C , 13-H ) :   0.9719 B( 12-C , 14-H ) :   0.9702 B( 12-C , 15-H ) :   0.9763
B( 16-S , 17-C ) :   1.1881 B( 16-S , 20-C ) :   1.1533 B( 17-C , 18-C ) :   1.5558
B( 17-C , 33-H ) :   0.9628 B( 18-C , 19-C ) :   1.3062 B( 18-C , 21-H ) :   0.9979
B( 19-C , 20-C ) :   1.5311 B( 19-C , 22-C ) :   1.0384 B( 22-C , 23-H ) :   0.9316
B( 22-C , 24-H ) :   0.9395 B( 22-C , 25-C ) :   1.0742 B( 25-C , 26-H ) :   0.9512
B( 25-C , 27-H ) :   0.9504 B( 25-C , 28-C ) :   1.0766 B( 28-C , 29-H ) :   0.9728
B( 28-C , 30-H ) :   0.9707 B( 28-C , 31-H ) :   0.9736

Dispersion correction           -0.014568331
FINAL SINGLE POINT ENERGY     -1339.857675730305

DIPOLE MOMENT
-------------
                                X             Y             Z
Electronic contribution:     -4.74553      19.01178      22.04733
Nuclear contribution   :      4.89176     -19.78563     -22.29280
                        -----------------------------------------
Total Dipole Moment    :      0.14623      -0.77384      -0.24546
                        -----------------------------------------
Magnitude (a.u.)       :      0.82491
Magnitude (Debye)      :      2.09674

Rotational constants in cm-1:     0.019278     0.008656     0.007044
Rotational constants in MHz :   577.942668   259.486507   211.165540

                             ****ORCA TERMINATED NORMALLY****
TOTAL RUN TIME: 0 days 0 hours 0 minutes 31 seconds 12 msec
