                         Program Version 4.2.1 -  RELEASE  -
|  1> ! wB97X-D3 SP def2-SVP
|  2> %pal
|  3> nprocs 16
|  4> end
|  5>
|  6> * xyz 0 1
|  7> S 	 -3.10985 	 8.52742 	 79.5387
|  8> C 	 -4.48227 	 7.39301 	 79.4418
|  9> C 	 -5.21366 	 7.41465 	 80.6267
| 10> C 	 -4.782 	 8.45175 	 81.5115
| 11> C 	 -3.67263 	 9.16608 	 81.0762
| 12> H 	 -5.20292 	 8.57175 	 82.4948
| 13> C 	 -6.23325 	 6.38876 	 81.0695
| 14> H 	 -5.88193 	 6.02319 	 82.0304
| 15> H 	 -6.27197 	 5.54261 	 80.376
| 16> C 	 -7.66147 	 6.99794 	 81.4064
| 17> H 	 -8.30433 	 6.21697 	 81.8929
| 18> H 	 -7.46584 	 7.84199 	 82.0981
| 19> C 	 -8.34735 	 7.52846 	 80.1793
| 20> H 	 -7.71191 	 8.23564 	 79.6126
| 21> H 	 -8.6565 	 6.66213 	 79.5436
| 22> H 	 -9.23386 	 8.03742 	 80.5285
| 23> S 	 -1.48793 	 10.7454 	 81.3878
| 24> C 	 -1.53338 	 12.1772 	 82.3809
| 25> C 	 -2.85969 	 12.5593 	 82.6143
| 26> C 	 -3.79003 	 11.5637 	 82.2072
| 27> C 	 -3.19347 	 10.4839 	 81.5397
| 28> H 	 -3.1015 	 13.4816 	 83.1099
| 29> C 	 -5.25933 	 11.6216 	 82.5028
| 30> H 	 -5.46018 	 12.6024 	 82.952
| 31> H 	 -5.51195 	 10.8367 	 83.1731
| 32> C 	 -6.26176 	 11.4865 	 81.2833
| 33> H 	 -6.16193 	 10.5482 	 80.7161
| 34> H 	 -5.89115 	 12.1588 	 80.5343
| 35> C 	 -7.72893 	 11.7771 	 81.4382
| 36> H 	 -7.90188 	 12.7453 	 81.7704
| 37> H 	 -8.14785 	 11.0633 	 82.0613
| 38> H 	 -8.29016 	 11.6679 	 80.4892
| 39> H 	 -4.61162 	 6.75462 	 78.5895
| 40> H 	 -0.654386 	 12.763 	 82.5736
| 41> *
| 42>
| 43>                          ****END OF INPUT****

CARTESIAN COORDINATES (ANGSTROEM)
---------------------------------
  S     -3.109850    8.527420   79.538700
  C     -4.482270    7.393010   79.441800
  C     -5.213660    7.414650   80.626700
  C     -4.782000    8.451750   81.511500
  C     -3.672630    9.166080   81.076200
  H     -5.202920    8.571750   82.494800
  C     -6.233250    6.388760   81.069500
  H     -5.881930    6.023190   82.030400
  H     -6.271970    5.542610   80.376000
  C     -7.661470    6.997940   81.406400
  H     -8.304330    6.216970   81.892900
  H     -7.465840    7.841990   82.098100
  C     -8.347350    7.528460   80.179300
  H     -7.711910    8.235640   79.612600
  H     -8.656500    6.662130   79.543600
  H     -9.233860    8.037420   80.528500
  S     -1.487930   10.745400   81.387800
  C     -1.533380   12.177200   82.380900
  C     -2.859690   12.559300   82.614300
  C     -3.790030   11.563700   82.207200
  C     -3.193470   10.483900   81.539700
  H     -3.101500   13.481600   83.109900
  C     -5.259330   11.621600   82.502800
  H     -5.460180   12.602400   82.952000
  H     -5.511950   10.836700   83.173100
  C     -6.261760   11.486500   81.283300
  H     -6.161930   10.548200   80.716100
  H     -5.891150   12.158800   80.534300
  C     -7.728930   11.777100   81.438200
  H     -7.901880   12.745300   81.770400
  H     -8.147850   11.063300   82.061300
  H     -8.290160   11.667900   80.489200
  H     -4.611620    6.754620   78.589500
  H     -0.654386   12.763000   82.573600

 Total Charge           Charge          ....    0
 Multiplicity           Mult            ....    1
 Number of Electrons    NEL             ....  134
 Basis Dimension        Dim             ....  322

ORBITAL ENERGIES
----------------

  NO   OCC          E(Eh)            E(eV)
   0   2.0000     -88.965814     -2420.8829
   1   2.0000     -88.965165     -2420.8652
   2   2.0000     -10.335212      -281.2354
   3   2.0000     -10.328486      -281.0524
   4   2.0000     -10.320243      -280.8281
   5   2.0000     -10.319584      -280.8101
   6   2.0000     -10.305958      -280.4394
   7   2.0000     -10.305681      -280.4318
   8   2.0000     -10.298729      -280.2427
   9   2.0000     -10.296086      -280.1707
  10   2.0000     -10.295407      -280.1523
  11   2.0000     -10.294873      -280.1377
  12   2.0000     -10.292609      -280.0761
  13   2.0000     -10.277653      -279.6692
  14   2.0000     -10.276799      -279.6459
  15   2.0000     -10.265923      -279.3500
  16   2.0000      -8.080577      -219.8837
  17   2.0000      -8.080172      -219.8727
  18   2.0000      -6.038956      -164.3283
  19   2.0000      -6.038781      -164.3236
  20   2.0000      -6.034885      -164.2176
  21   2.0000      -6.034720      -164.2131
  22   2.0000      -6.031552      -164.1269
  23   2.0000      -6.030866      -164.1082
  24   2.0000      -1.007049       -27.4032
  25   2.0000      -0.983094       -26.7513
  26   2.0000      -0.910660       -24.7803
  27   2.0000      -0.905177       -24.6311
  28   2.0000      -0.868362       -23.6293
  29   2.0000      -0.856881       -23.3169
  30   2.0000      -0.845446       -23.0057
  31   2.0000      -0.815862       -22.2007
  32   2.0000      -0.783740       -21.3266
  33   2.0000      -0.773174       -21.0391
  34   2.0000      -0.707522       -19.2526
  35   2.0000      -0.694674       -18.9030
  36   2.0000      -0.689209       -18.7543
  37   2.0000      -0.666593       -18.1389
  38   2.0000      -0.640249       -17.4221
  39   2.0000      -0.626472       -17.0472
  40   2.0000      -0.596417       -16.2293
  41   2.0000      -0.567759       -15.4495
  42   2.0000      -0.566346       -15.4111
  43   2.0000      -0.547334       -14.8937
  44   2.0000      -0.543536       -14.7904
  45   2.0000      -0.524502       -14.2724
  46   2.0000      -0.520078       -14.1521
  47   2.0000      -0.517113       -14.0714
  48   2.0000      -0.505022       -13.7424
  49   2.0000      -0.502895       -13.6845
  50   2.0000      -0.491826       -13.3833
  51   2.0000      -0.488556       -13.2943
  52   2.0000      -0.475757       -12.9460
  53   2.0000      -0.462542       -12.5864
  54   2.0000      -0.458237       -12.4693
  55   2.0000      -0.453881       -12.3507
  56   2.0000      -0.446870       -12.1600
  57   2.0000      -0.431475       -11.7410
  58   2.0000      -0.428751       -11.6669
  59   2.0000      -0.425833       -11.5875
  60   2.0000      -0.419353       -11.4112
  61   2.0000      -0.413421       -11.2498
  62   2.0000      -0.412191       -11.2163
  63   2.0000      -0.353442        -9.6177
  64   2.0000      -0.332378        -9.0445
  65   2.0000      -0.327665        -8.9162
  66   2.0000      -0.284584        -7.7439
  67   0.0000       0.019442         0.5290
  68   0.0000       0.068521         1.8646
  69   0.0000       0.099315         2.7025
  70   0.0000       0.117508         3.1976
  71   0.0000       0.121783         3.3139

MULLIKEN ATOMIC CHARGES
-----------------------
   0 S :    0.088151
   1 C :   -0.134083
   2 C :   -0.067696
   3 C :   -0.036167
   4 C :   -0.073066
   5 H :    0.017730
   6 C :    0.070282
   7 H :    0.035172
   8 H :    0.022281
   9 C :   -0.116082
  10 H :    0.043389
  11 H :    0.029803
  12 C :   -0.050747
  13 H :    0.050171
  14 H :    0.033655
  15 H :    0.031986
  16 S :    0.098083
  17 C :   -0.091079
  18 C :   -0.024061
  19 C :   -0.063283
  20 C :   -0.130517
  21 H :    0.015870
  22 C :    0.092301
  23 H :    0.012205
  24 H :    0.026294
  25 C :   -0.103736
  26 H :    0.038966
  27 H :    0.012247
  28 C :    0.012035
  29 H :    0.013357
  30 H :    0.007648
  31 H :    0.031029
  32 H :    0.048246
  33 H :    0.059616
Sum of atomic charges:    0.0000000

LOEWDIN ATOMIC CHARGES
----------------------
   0 S :    0.385140
   1 C :   -0.182471
   2 C :   -0.062226
   3 C :   -0.067023
   4 C :   -0.184919
   5 H :    0.028118
   6 C :   -0.028967
   7 H :    0.034244
   8 H :    0.027253
   9 C :   -0.043471
  10 H :    0.029572
  11 H :    0.021944
  12 C :   -0.070176
  13 H :    0.028296
  14 H :    0.028821
  15 H :    0.024049
  16 S :    0.419525
  17 C :   -0.182178
  18 C :   -0.066661
  19 C :   -0.057668
  20 C :   -0.201637
  21 H :    0.031212
  22 C :   -0.026802
  23 H :    0.031108
  24 H :    0.024373
  25 C :   -0.047969
  26 H :    0.027192
  27 H :    0.020360
  28 C :   -0.053778
  29 H :    0.014199
  30 H :    0.012991
  31 H :    0.036471
  32 H :    0.024642
  33 H :    0.026440

  Mayer bond orders larger than 0.100000
B(  0-S ,  1-C ) :   1.1336 B(  0-S ,  4-C ) :   1.1465 B(  1-C ,  2-C ) :   1.5869
B(  1-C , 32-H ) :   0.9753 B(  2-C ,  3-C ) :   1.2367 B(  2-C ,  6-C ) :   1.0252
B(  3-C ,  4-C ) :   1.5723 B(  3-C ,  5-H ) :   0.9958 B(  4-C , 20-C ) :   1.0221
B(  6-C ,  7-H ) :   0.9405 B(  6-C ,  8-H ) :   0.9485 B(  6-C ,  9-C ) :   1.0570
B(  9-C , 10-H ) :   0.9560 B(  9-C , 11-H ) :   0.9561 B(  9-C , 12-C ) :   1.0807
B( 12-C , 13-H ) :   0.9721 B( 12-C , 14-H ) :   0.9729 B( 12-C , 15-H ) :   0.9717
B( 16-S , 17-C ) :   1.1815 B( 16-S , 20-C ) :   1.1482 B( 17-C , 18-C ) :   1.5575
B( 17-C , 20-C ) :   0.1051 B( 17-C , 33-H ) :   0.9709 B( 18-C , 19-C ) :   1.2800
B( 18-C , 21-H ) :   0.9937 B( 19-C , 20-C ) :   1.5523 B( 19-C , 22-C ) :   1.0535
B( 22-C , 23-H ) :   0.9291 B( 22-C , 24-H ) :   0.9308 B( 22-C , 25-C ) :   1.0506
B( 25-C , 26-H ) :   0.9494 B( 25-C , 27-H ) :   0.9497 B( 25-C , 28-C ) :   1.1046
B( 28-C , 29-H ) :   0.9723 B( 28-C , 30-H ) :   0.9719 B( 28-C , 31-H ) :   0.9674

Dispersion correction           -0.015928695
FINAL SINGLE POINT ENERGY     -1339.882770332651

DIPOLE MOMENT
-------------
                                X             Y             Z
Electronic contribution:     31.66252       1.57230      -3.50975
Nuclear contribution   :    -32.26566      -1.56225       3.78193
                        -----------------------------------------
Total Dipole Moment    :     -0.60314       0.01005       0.27217
                        -----------------------------------------
Magnitude (a.u.)       :      0.66178
Magnitude (Debye)      :      1.68211

Rotational constants in cm-1:     0.019807     0.010037     0.007332
Rotational constants in MHz :   593.801290   300.909439   219.796505

                             ****ORCA TERMINATED NORMALLY****
TOTAL RUN TIME: 0 days 0 hours 0 minutes 37 seconds 610 msec
