                         Program Version 4.2.1 -  RELEASE  -
|  1> ! wB97X-D3 SP def2-SVP
|  2> %pal
|  3> nprocs 16
|  4> end
|  5>
|  6> * xyz 0 1
|  7> S 	 11.6073 	 -13.8676 	 94.6186
|  8> C 	 13.0876 	 -13.001 	 94.1801
|  9> C 	 12.8056 	 -11.832 	 93.5222
| 10> C 	 11.4714 	 -11.8093 	 93.0466
| 11> C 	 10.6897 	 -12.7969 	 93.5888
| 12> H 	 10.854 	 -11.0917 	 92.5378
| 13> C 	 13.7107 	 -10.6451 	 93.3041
| 14> H 	 13.9946 	 -10.6059 	 92.2664
| 15> H 	 14.675 	 -10.8384 	 93.7578
| 16> C 	 13.231 	 -9.24192 	 93.7543
| 17> H 	 13.9818 	 -8.50527 	 93.4972
| 18> H 	 12.4045 	 -8.9364 	 93.1606
| 19> C 	 12.8837 	 -9.18655 	 95.2038
| 20> H 	 12.7857 	 -8.12734 	 95.6202
| 21> H 	 12.0063 	 -9.79602 	 95.3124
| 22> H 	 13.5122 	 -9.78297 	 95.7921
| 23> S 	 8.27218 	 -12.6723 	 94.8904
| 24> C 	 6.81364 	 -12.8753 	 93.9217
| 25> C 	 7.10695 	 -13.0383 	 92.5714
| 26> C 	 8.46444 	 -13.0451 	 92.3031
| 27> C 	 9.26385 	 -12.8861 	 93.4865
| 28> H 	 6.28394 	 -13.1884 	 91.8557
| 29> C 	 8.98651 	 -13.2762 	 90.907
| 30> H 	 8.35986 	 -14.1737 	 90.5694
| 31> H 	 9.95664 	 -13.6587 	 90.9936
| 32> C 	 8.92708 	 -12.07 	 90.024
| 33> H 	 9.4487 	 -11.1614 	 90.4069
| 34> H 	 7.87523 	 -11.8642 	 89.9095
| 35> C 	 9.73797 	 -12.4446 	 88.7043
| 36> H 	 10.6541 	 -12.9794 	 88.9515
| 37> H 	 10.0023 	 -11.6236 	 88.0824
| 38> H 	 9.16012 	 -13.1046 	 88.0776
| 39> H 	 14.0394 	 -13.2885 	 94.527
| 40> H 	 5.89859 	 -12.8516 	 94.3033
| 41> *
| 42>
| 43>                          ****END OF INPUT****

CARTESIAN COORDINATES (ANGSTROEM)
---------------------------------
  S     11.607300  -13.867600   94.618600
  C     13.087600  -13.001000   94.180100
  C     12.805600  -11.832000   93.522200
  C     11.471400  -11.809300   93.046600
  C     10.689700  -12.796900   93.588800
  H     10.854000  -11.091700   92.537800
  C     13.710700  -10.645100   93.304100
  H     13.994600  -10.605900   92.266400
  H     14.675000  -10.838400   93.757800
  C     13.231000   -9.241920   93.754300
  H     13.981800   -8.505270   93.497200
  H     12.404500   -8.936400   93.160600
  C     12.883700   -9.186550   95.203800
  H     12.785700   -8.127340   95.620200
  H     12.006300   -9.796020   95.312400
  H     13.512200   -9.782970   95.792100
  S      8.272180  -12.672300   94.890400
  C      6.813640  -12.875300   93.921700
  C      7.106950  -13.038300   92.571400
  C      8.464440  -13.045100   92.303100
  C      9.263850  -12.886100   93.486500
  H      6.283940  -13.188400   91.855700
  C      8.986510  -13.276200   90.907000
  H      8.359860  -14.173700   90.569400
  H      9.956640  -13.658700   90.993600
  C      8.927080  -12.070000   90.024000
  H      9.448700  -11.161400   90.406900
  H      7.875230  -11.864200   89.909500
  C      9.737970  -12.444600   88.704300
  H     10.654100  -12.979400   88.951500
  H     10.002300  -11.623600   88.082400
  H      9.160120  -13.104600   88.077600
  H     14.039400  -13.288500   94.527000
  H      5.898590  -12.851600   94.303300

 Total Charge           Charge          ....    0
 Multiplicity           Mult            ....    1
 Number of Electrons    NEL             ....  134
 Basis Dimension        Dim             ....  322

ORBITAL ENERGIES
----------------

  NO   OCC          E(Eh)            E(eV)
   0   2.0000     -88.969215     -2420.9754
   1   2.0000     -88.965033     -2420.8616
   2   2.0000     -10.323742      -280.9233
   3   2.0000     -10.323475      -280.9160
   4   2.0000     -10.312753      -280.6243
   5   2.0000     -10.309067      -280.5240
   6   2.0000     -10.303230      -280.3651
   7   2.0000     -10.298934      -280.2482
   8   2.0000     -10.292182      -280.0645
   9   2.0000     -10.291107      -280.0353
  10   2.0000     -10.289550      -279.9929
  11   2.0000     -10.289445      -279.9900
  12   2.0000     -10.286113      -279.8994
  13   2.0000     -10.281571      -279.7758
  14   2.0000     -10.275720      -279.6166
  15   2.0000     -10.268991      -279.4334
  16   2.0000      -8.083739      -219.9697
  17   2.0000      -8.079778      -219.8619
  18   2.0000      -6.042063      -164.4129
  19   2.0000      -6.038221      -164.3084
  20   2.0000      -6.038214      -164.3081
  21   2.0000      -6.034788      -164.2149
  22   2.0000      -6.034421      -164.2049
  23   2.0000      -6.030471      -164.0975
  24   2.0000      -1.009164       -27.4607
  25   2.0000      -0.985239       -26.8097
  26   2.0000      -0.915426       -24.9100
  27   2.0000      -0.912314       -24.8253
  28   2.0000      -0.874064       -23.7845
  29   2.0000      -0.850425       -23.1412
  30   2.0000      -0.848295       -23.0833
  31   2.0000      -0.815233       -22.1836
  32   2.0000      -0.784807       -21.3557
  33   2.0000      -0.771417       -20.9913
  34   2.0000      -0.712717       -19.3940
  35   2.0000      -0.705039       -19.1851
  36   2.0000      -0.701751       -19.0956
  37   2.0000      -0.659386       -17.9428
  38   2.0000      -0.650716       -17.7069
  39   2.0000      -0.618872       -16.8404
  40   2.0000      -0.601565       -16.3694
  41   2.0000      -0.566738       -15.4217
  42   2.0000      -0.561762       -15.2863
  43   2.0000      -0.555001       -15.1023
  44   2.0000      -0.540299       -14.7023
  45   2.0000      -0.526173       -14.3179
  46   2.0000      -0.519636       -14.1400
  47   2.0000      -0.514410       -13.9978
  48   2.0000      -0.507494       -13.8096
  49   2.0000      -0.499746       -13.5988
  50   2.0000      -0.488715       -13.2986
  51   2.0000      -0.479600       -13.0506
  52   2.0000      -0.469959       -12.7882
  53   2.0000      -0.467367       -12.7177
  54   2.0000      -0.454073       -12.3560
  55   2.0000      -0.449703       -12.2370
  56   2.0000      -0.446550       -12.1513
  57   2.0000      -0.440472       -11.9859
  58   2.0000      -0.435345       -11.8464
  59   2.0000      -0.432797       -11.7770
  60   2.0000      -0.427818       -11.6415
  61   2.0000      -0.411959       -11.2100
  62   2.0000      -0.406888       -11.0720
  63   2.0000      -0.345624        -9.4049
  64   2.0000      -0.331680        -9.0255
  65   2.0000      -0.330015        -8.9802
  66   2.0000      -0.289586        -7.8800
  67   0.0000       0.032010         0.8710
  68   0.0000       0.061944         1.6856
  69   0.0000       0.110226         2.9994
  70   0.0000       0.125662         3.4194
  71   0.0000       0.128642         3.5005

MULLIKEN ATOMIC CHARGES
-----------------------
   0 S :    0.107101
   1 C :   -0.100998
   2 C :   -0.084057
   3 C :    0.049185
   4 C :   -0.186502
   5 H :    0.006872
   6 C :    0.078385
   7 H :    0.028292
   8 H :    0.005221
   9 C :   -0.056814
  10 H :    0.022838
  11 H :    0.018534
  12 C :   -0.017060
  13 H :    0.053666
  14 H :    0.023781
  15 H :    0.003862
  16 S :    0.122045
  17 C :   -0.045265
  18 C :   -0.043586
  19 C :   -0.026882
  20 C :   -0.177155
  21 H :    0.027377
  22 C :    0.059851
  23 H :    0.042279
  24 H :    0.006822
  25 C :   -0.060578
  26 H :    0.041215
  27 H :    0.027219
  28 C :   -0.031091
  29 H :    0.031192
  30 H :    0.026810
  31 H :    0.021528
  32 H :    0.027230
  33 H :   -0.001317
Sum of atomic charges:   -0.0000000

LOEWDIN ATOMIC CHARGES
----------------------
   0 S :    0.394601
   1 C :   -0.180052
   2 C :   -0.061958
   3 C :   -0.060769
   4 C :   -0.193659
   5 H :    0.031259
   6 C :   -0.030276
   7 H :    0.032711
   8 H :    0.026013
   9 C :   -0.037081
  10 H :    0.024589
  11 H :    0.017634
  12 C :   -0.067681
  13 H :    0.037957
  14 H :    0.028930
  15 H :    0.016911
  16 S :    0.420682
  17 C :   -0.161983
  18 C :   -0.070458
  19 C :   -0.055837
  20 C :   -0.217696
  21 H :    0.037385
  22 C :   -0.033924
  23 H :    0.043643
  24 H :    0.018941
  25 C :   -0.032665
  26 H :    0.029093
  27 H :    0.022617
  28 C :   -0.061154
  29 H :    0.027337
  30 H :    0.018800
  31 H :    0.022028
  32 H :    0.016848
  33 H :   -0.002788

  Mayer bond orders larger than 0.100000
B(  0-S ,  1-C ) :   1.1287 B(  0-S ,  4-C ) :   1.1410 B(  1-C ,  2-C ) :   1.6269
B(  1-C , 32-H ) :   0.9748 B(  2-C ,  3-C ) :   1.1932 B(  2-C ,  6-C ) :   1.0265
B(  3-C ,  4-C ) :   1.6053 B(  3-C ,  5-H ) :   0.9890 B(  4-C , 20-C ) :   1.0490
B(  6-C ,  7-H ) :   0.9308 B(  6-C ,  8-H ) :   0.9356 B(  6-C ,  9-C ) :   1.0838
B(  9-C , 10-H ) :   0.9522 B(  9-C , 11-H ) :   0.9518 B(  9-C , 12-C ) :   1.0770
B( 12-C , 13-H ) :   0.9723 B( 12-C , 14-H ) :   0.9641 B( 12-C , 15-H ) :   0.9708
B( 16-S , 17-C ) :   1.1669 B( 16-S , 20-C ) :   1.1673 B( 17-C , 18-C ) :   1.5636
B( 17-C , 20-C ) :   0.1180 B( 17-C , 33-H ) :   0.9853 B( 18-C , 19-C ) :   1.2930
B( 18-C , 21-H ) :   0.9865 B( 19-C , 20-C ) :   1.5292 B( 19-C , 22-C ) :   1.0340
B( 22-C , 23-H ) :   0.9390 B( 22-C , 24-H ) :   0.9273 B( 22-C , 25-C ) :   1.0566
B( 25-C , 26-H ) :   0.9568 B( 25-C , 27-H ) :   0.9574 B( 25-C , 28-C ) :   1.0661
B( 28-C , 29-H ) :   0.9764 B( 28-C , 30-H ) :   0.9785 B( 28-C , 31-H ) :   0.9758

Dispersion correction           -0.014988372
FINAL SINGLE POINT ENERGY     -1339.862388603732

DIPOLE MOMENT
-------------
                                X             Y             Z
Electronic contribution:     -8.25105     -14.39589      16.93454
Nuclear contribution   :      8.30117      14.73730     -17.36690
                        -----------------------------------------
Total Dipole Moment    :      0.05012       0.34141      -0.43236
                        -----------------------------------------
Magnitude (a.u.)       :      0.55318
Magnitude (Debye)      :      1.40607

Rotational constants in cm-1:     0.016765     0.009600     0.007812
Rotational constants in MHz :   502.605310   287.793018   234.187533

                             ****ORCA TERMINATED NORMALLY****
TOTAL RUN TIME: 0 days 0 hours 0 minutes 35 seconds 168 msec
