                         Program Version 4.2.1 -  RELEASE  -
|  1> ! wB97X-D3 SP def2-SVP
|  2> %pal
|  3> nprocs 16
|  4> end
|  5>
|  6> * xyz 0 1
|  7> S 	 47.7759 	 21.5662 	 88.9246
|  8> C 	 48.9806 	 21.9133 	 90.1391
|  9> C 	 49.6535 	 20.8128 	 90.5461
| 10> C 	 49.1954 	 19.6535 	 89.8249
| 11> C 	 48.2371 	 19.876 	 88.841
| 12> H 	 49.4785 	 18.6116 	 89.843
| 13> C 	 50.8787 	 20.7746 	 91.4516
| 14> H 	 51.6084 	 20.0608 	 90.9808
| 15> H 	 50.6121 	 20.4175 	 92.4159
| 16> C 	 51.7063 	 22.1188 	 91.4936
| 17> H 	 51.9461 	 22.1958 	 90.3895
| 18> H 	 50.9453 	 22.8018 	 91.8516
| 19> C 	 52.8578 	 21.9945 	 92.5055
| 20> H 	 53.4371 	 21.1217 	 92.2834
| 21> H 	 53.5223 	 22.8867 	 92.4095
| 22> H 	 52.425 	 21.8761 	 93.4617
| 23> S 	 45.701 	 18.8433 	 88.4484
| 24> C 	 45.5233 	 17.5019 	 87.4112
| 25> C 	 46.7703 	 17.1067 	 86.8379
| 26> C 	 47.8305 	 17.8603 	 87.2688
| 27> C 	 47.4573 	 18.8854 	 88.1254
| 28> H 	 46.7319 	 16.3188 	 86.122
| 29> C 	 49.245 	 17.6573 	 86.8075
| 30> H 	 49.901 	 18.4588 	 87.0966
| 31> H 	 49.0488 	 17.9222 	 85.7601
| 32> C 	 49.8096 	 16.2207 	 87.1435
| 33> H 	 50.5225 	 15.8748 	 86.3461
| 34> H 	 49.034 	 15.4809 	 87.1174
| 35> C 	 50.5747 	 16.1294 	 88.4698
| 36> H 	 49.9057 	 16.3889 	 89.2662
| 37> H 	 51.2554 	 16.9206 	 88.5628
| 38> H 	 50.9893 	 15.1764 	 88.6611
| 39> H 	 49.2944 	 22.8539 	 90.5046
| 40> H 	 44.6122 	 16.9748 	 87.2157
| 41> *
| 42>
| 43>                          ****END OF INPUT****

CARTESIAN COORDINATES (ANGSTROEM)
---------------------------------
  S     47.775900   21.566200   88.924600
  C     48.980600   21.913300   90.139100
  C     49.653500   20.812800   90.546100
  C     49.195400   19.653500   89.824900
  C     48.237100   19.876000   88.841000
  H     49.478500   18.611600   89.843000
  C     50.878700   20.774600   91.451600
  H     51.608400   20.060800   90.980800
  H     50.612100   20.417500   92.415900
  C     51.706300   22.118800   91.493600
  H     51.946100   22.195800   90.389500
  H     50.945300   22.801800   91.851600
  C     52.857800   21.994500   92.505500
  H     53.437100   21.121700   92.283400
  H     53.522300   22.886700   92.409500
  H     52.425000   21.876100   93.461700
  S     45.701000   18.843300   88.448400
  C     45.523300   17.501900   87.411200
  C     46.770300   17.106700   86.837900
  C     47.830500   17.860300   87.268800
  C     47.457300   18.885400   88.125400
  H     46.731900   16.318800   86.122000
  C     49.245000   17.657300   86.807500
  H     49.901000   18.458800   87.096600
  H     49.048800   17.922200   85.760100
  C     49.809600   16.220700   87.143500
  H     50.522500   15.874800   86.346100
  H     49.034000   15.480900   87.117400
  C     50.574700   16.129400   88.469800
  H     49.905700   16.388900   89.266200
  H     51.255400   16.920600   88.562800
  H     50.989300   15.176400   88.661100
  H     49.294400   22.853900   90.504600
  H     44.612200   16.974800   87.215700

 Total Charge           Charge          ....    0
 Multiplicity           Mult            ....    1
 Number of Electrons    NEL             ....  134
 Basis Dimension        Dim             ....  322

ORBITAL ENERGIES
----------------

  NO   OCC          E(Eh)            E(eV)
   0   2.0000     -88.967753     -2420.9356
   1   2.0000     -88.962784     -2420.8004
   2   2.0000     -10.326001      -280.9848
   3   2.0000     -10.323280      -280.9107
   4   2.0000     -10.317005      -280.7400
   5   2.0000     -10.307982      -280.4944
   6   2.0000     -10.299462      -280.2626
   7   2.0000     -10.299220      -280.2560
   8   2.0000     -10.294706      -280.1332
   9   2.0000     -10.293766      -280.1076
  10   2.0000     -10.293537      -280.1014
  11   2.0000     -10.292939      -280.0851
  12   2.0000     -10.291611      -280.0490
  13   2.0000     -10.289733      -279.9979
  14   2.0000     -10.281818      -279.7825
  15   2.0000     -10.270461      -279.4735
  16   2.0000      -8.082481      -219.9355
  17   2.0000      -8.077561      -219.8016
  18   2.0000      -6.040721      -164.3764
  19   2.0000      -6.036901      -164.2724
  20   2.0000      -6.036140      -164.2517
  21   2.0000      -6.033610      -164.1829
  22   2.0000      -6.032049      -164.1404
  23   2.0000      -6.028250      -164.0370
  24   2.0000      -1.007512       -27.4158
  25   2.0000      -0.986369       -26.8405
  26   2.0000      -0.911939       -24.8151
  27   2.0000      -0.909230       -24.7414
  28   2.0000      -0.869596       -23.6629
  29   2.0000      -0.859331       -23.3836
  30   2.0000      -0.844969       -22.9928
  31   2.0000      -0.811525       -22.0827
  32   2.0000      -0.786226       -21.3943
  33   2.0000      -0.773633       -21.0516
  34   2.0000      -0.712649       -19.3922
  35   2.0000      -0.709567       -19.3083
  36   2.0000      -0.693744       -18.8777
  37   2.0000      -0.660626       -17.9766
  38   2.0000      -0.641466       -17.4552
  39   2.0000      -0.608078       -16.5467
  40   2.0000      -0.595165       -16.1953
  41   2.0000      -0.581508       -15.8236
  42   2.0000      -0.570613       -15.5272
  43   2.0000      -0.559082       -15.2134
  44   2.0000      -0.532715       -14.4959
  45   2.0000      -0.528945       -14.3933
  46   2.0000      -0.520867       -14.1735
  47   2.0000      -0.509898       -13.8750
  48   2.0000      -0.502906       -13.6848
  49   2.0000      -0.502056       -13.6616
  50   2.0000      -0.494623       -13.4594
  51   2.0000      -0.481355       -13.0983
  52   2.0000      -0.473261       -12.8781
  53   2.0000      -0.467344       -12.7171
  54   2.0000      -0.461196       -12.5498
  55   2.0000      -0.451894       -12.2967
  56   2.0000      -0.444681       -12.1004
  57   2.0000      -0.441599       -12.0165
  58   2.0000      -0.438392       -11.9292
  59   2.0000      -0.433780       -11.8037
  60   2.0000      -0.422302       -11.4914
  61   2.0000      -0.407324       -11.0838
  62   2.0000      -0.404144       -10.9973
  63   2.0000      -0.343595        -9.3497
  64   2.0000      -0.335727        -9.1356
  65   2.0000      -0.327625        -8.9151
  66   2.0000      -0.289510        -7.8780
  67   0.0000       0.034287         0.9330
  68   0.0000       0.064027         1.7423
  69   0.0000       0.119467         3.2508
  70   0.0000       0.125865         3.4250
  71   0.0000       0.130952         3.5634

MULLIKEN ATOMIC CHARGES
-----------------------
   0 S :    0.101425
   1 C :   -0.094259
   2 C :   -0.062467
   3 C :    0.047320
   4 C :   -0.185022
   5 H :   -0.025577
   6 C :    0.034164
   7 H :    0.035180
   8 H :    0.030747
   9 C :   -0.151575
  10 H :    0.056221
  11 H :    0.041850
  12 C :    0.006057
  13 H :    0.022518
  14 H :    0.048602
  15 H :    0.026346
  16 S :    0.130801
  17 C :   -0.095724
  18 C :   -0.055454
  19 C :   -0.010826
  20 C :   -0.171753
  21 H :    0.006357
  22 C :    0.070848
  23 H :    0.020725
  24 H :    0.041631
  25 C :   -0.077590
  26 H :    0.033779
  27 H :    0.024131
  28 C :    0.000845
  29 H :    0.027906
  30 H :    0.011784
  31 H :    0.034117
  32 H :    0.025134
  33 H :    0.051763
Sum of atomic charges:   -0.0000000

LOEWDIN ATOMIC CHARGES
----------------------
   0 S :    0.397729
   1 C :   -0.190137
   2 C :   -0.068549
   3 C :   -0.059917
   4 C :   -0.198613
   5 H :    0.025530
   6 C :   -0.030796
   7 H :    0.033429
   8 H :    0.021875
   9 C :   -0.045022
  10 H :    0.035462
  11 H :    0.019273
  12 C :   -0.056443
  13 H :    0.022477
  14 H :    0.034603
  15 H :    0.023509
  16 S :    0.423745
  17 C :   -0.193392
  18 C :   -0.074093
  19 C :   -0.057292
  20 C :   -0.201138
  21 H :    0.026501
  22 C :   -0.030239
  23 H :    0.027834
  24 H :    0.044154
  25 C :   -0.032900
  26 H :    0.028182
  27 H :    0.018910
  28 C :   -0.055671
  29 H :    0.022624
  30 H :    0.017658
  31 H :    0.024800
  32 H :    0.020463
  33 H :    0.025445

  Mayer bond orders larger than 0.100000
B(  0-S ,  1-C ) :   1.1300 B(  0-S ,  4-C ) :   1.1323 B(  1-C ,  2-C ) :   1.6443
B(  1-C , 32-H ) :   0.9613 B(  2-C ,  3-C ) :   1.2173 B(  2-C ,  6-C ) :   0.9975
B(  3-C ,  4-C ) :   1.5994 B(  3-C ,  5-H ) :   0.9919 B(  4-C , 20-C ) :   1.0397
B(  6-C ,  7-H ) :   0.9555 B(  6-C ,  8-H ) :   0.9350 B(  6-C ,  9-C ) :   1.0517
B(  9-C , 10-H ) :   0.9642 B(  9-C , 11-H ) :   0.9516 B(  9-C , 12-C ) :   1.0779
B( 12-C , 13-H ) :   0.9737 B( 12-C , 14-H ) :   0.9736 B( 12-C , 15-H ) :   0.9724
B( 16-S , 17-C ) :   1.1949 B( 16-S , 20-C ) :   1.1452 B( 17-C , 18-C ) :   1.5505
B( 17-C , 20-C ) :   0.1147 B( 17-C , 33-H ) :   0.9702 B( 18-C , 19-C ) :   1.2813
B( 18-C , 21-H ) :   1.0001 B( 19-C , 20-C ) :   1.5560 B( 19-C , 22-C ) :   1.0244
B( 22-C , 23-H ) :   0.9386 B( 22-C , 24-H ) :   0.9362 B( 22-C , 25-C ) :   1.0383
B( 25-C , 26-H ) :   0.9580 B( 25-C , 27-H ) :   0.9643 B( 25-C , 28-C ) :   1.0800
B( 28-C , 29-H ) :   0.9666 B( 28-C , 30-H ) :   0.9736 B( 28-C , 31-H ) :   0.9684

Dispersion correction           -0.014328828
FINAL SINGLE POINT ENERGY     -1339.864453747264

DIPOLE MOMENT
-------------
                                X             Y             Z
Electronic contribution:    -27.37759       6.58864      -7.79474
Nuclear contribution   :     27.93569      -6.98564       7.88428
                        -----------------------------------------
Total Dipole Moment    :      0.55810      -0.39700       0.08954
                        -----------------------------------------
Magnitude (a.u.)       :      0.69072
Magnitude (Debye)      :      1.75568

Rotational constants in cm-1:     0.020711     0.008080     0.006231
Rotational constants in MHz :   620.893756   242.244441   186.814015

                             ****ORCA TERMINATED NORMALLY****
TOTAL RUN TIME: 0 days 0 hours 0 minutes 31 seconds 41 msec
