                         Program Version 4.2.1 -  RELEASE  -
|  1> ! wB97X-D3 SP def2-SVP
|  2> %pal
|  3> nprocs 16
|  4> end
|  5>
|  6> * xyz 0 1
|  7> S 	 -9.2979 	 -13.4892 	 86.8181
|  8> C 	 -10.8735 	 -13.8572 	 86.2123
|  9> C 	 -11.8694 	 -13.2524 	 86.9293
| 10> C 	 -11.3637 	 -12.5348 	 88.0706
| 11> C 	 -9.96344 	 -12.509 	 88.099
| 12> H 	 -11.8874 	 -12.0642 	 88.8195
| 13> C 	 -13.3336 	 -13.6679 	 86.8332
| 14> H 	 -13.5162 	 -14.3875 	 87.6198
| 15> H 	 -13.4985 	 -14.2953 	 85.9681
| 16> C 	 -14.3531 	 -12.449 	 86.8519
| 17> H 	 -14.0673 	 -11.909 	 87.7381
| 18> H 	 -14.297 	 -11.8842 	 85.9045
| 19> C 	 -15.6778 	 -13.0492 	 87.1692
| 20> H 	 -15.665 	 -13.8607 	 87.9502
| 21> H 	 -16.4311 	 -12.3346 	 87.493
| 22> H 	 -16.0788 	 -13.5502 	 86.322
| 23> S 	 -8.51177 	 -10.4949 	 89.2121
| 24> C 	 -7.59323 	 -10.8559 	 90.5924
| 25> C 	 -7.93638 	 -12.0879 	 91.1882
| 26> C 	 -8.91822 	 -12.8267 	 90.4275
| 27> C 	 -9.18502 	 -12.0966 	 89.267
| 28> H 	 -7.50678 	 -12.3715 	 92.1485
| 29> C 	 -9.48807 	 -14.203 	 90.8708
| 30> H 	 -10.5996 	 -14.158 	 90.9156
| 31> H 	 -9.0864 	 -14.4465 	 91.8936
| 32> C 	 -9.21963 	 -15.5177 	 90.0522
| 33> H 	 -9.75461 	 -15.4839 	 89.0655
| 34> H 	 -9.62769 	 -16.3293 	 90.6842
| 35> C 	 -7.74375 	 -15.7064 	 89.8751
| 36> H 	 -7.61941 	 -16.8249 	 89.8069
| 37> H 	 -7.21237 	 -15.3237 	 90.7856
| 38> H 	 -7.32043 	 -15.3433 	 88.9377
| 39> H 	 -11.1172 	 -14.694 	 85.5674
| 40> H 	 -7.00081 	 -10.0963 	 91.0613
| 41> *
| 42>
| 43>                          ****END OF INPUT****

CARTESIAN COORDINATES (ANGSTROEM)
---------------------------------
  S     -9.297900  -13.489200   86.818100
  C    -10.873500  -13.857200   86.212300
  C    -11.869400  -13.252400   86.929300
  C    -11.363700  -12.534800   88.070600
  C     -9.963440  -12.509000   88.099000
  H    -11.887400  -12.064200   88.819500
  C    -13.333600  -13.667900   86.833200
  H    -13.516200  -14.387500   87.619800
  H    -13.498500  -14.295300   85.968100
  C    -14.353100  -12.449000   86.851900
  H    -14.067300  -11.909000   87.738100
  H    -14.297000  -11.884200   85.904500
  C    -15.677800  -13.049200   87.169200
  H    -15.665000  -13.860700   87.950200
  H    -16.431100  -12.334600   87.493000
  H    -16.078800  -13.550200   86.322000
  S     -8.511770  -10.494900   89.212100
  C     -7.593230  -10.855900   90.592400
  C     -7.936380  -12.087900   91.188200
  C     -8.918220  -12.826700   90.427500
  C     -9.185020  -12.096600   89.267000
  H     -7.506780  -12.371500   92.148500
  C     -9.488070  -14.203000   90.870800
  H    -10.599600  -14.158000   90.915600
  H     -9.086400  -14.446500   91.893600
  C     -9.219630  -15.517700   90.052200
  H     -9.754610  -15.483900   89.065500
  H     -9.627690  -16.329300   90.684200
  C     -7.743750  -15.706400   89.875100
  H     -7.619410  -16.824900   89.806900
  H     -7.212370  -15.323700   90.785600
  H     -7.320430  -15.343300   88.937700
  H    -11.117200  -14.694000   85.567400
  H     -7.000810  -10.096300   91.061300

 Total Charge           Charge          ....    0
 Multiplicity           Mult            ....    1
 Number of Electrons    NEL             ....  134
 Basis Dimension        Dim             ....  322

ORBITAL ENERGIES
----------------

  NO   OCC          E(Eh)            E(eV)
   0   2.0000     -88.967367     -2420.9251
   1   2.0000     -88.966891     -2420.9122
   2   2.0000     -10.324779      -280.9515
   3   2.0000     -10.322153      -280.8801
   4   2.0000     -10.312580      -280.6196
   5   2.0000     -10.310642      -280.5668
   6   2.0000     -10.309157      -280.5264
   7   2.0000     -10.301898      -280.3289
   8   2.0000     -10.297957      -280.2216
   9   2.0000     -10.297817      -280.2179
  10   2.0000     -10.291400      -280.0432
  11   2.0000     -10.290835      -280.0279
  12   2.0000     -10.289448      -279.9901
  13   2.0000     -10.287251      -279.9303
  14   2.0000     -10.275134      -279.6006
  15   2.0000     -10.274855      -279.5930
  16   2.0000      -8.083298      -219.9577
  17   2.0000      -8.081534      -219.9097
  18   2.0000      -6.041402      -164.3949
  19   2.0000      -6.039950      -164.3554
  20   2.0000      -6.037749      -164.2955
  21   2.0000      -6.035981      -164.2474
  22   2.0000      -6.034316      -164.2021
  23   2.0000      -6.032466      -164.1517
  24   2.0000      -1.007235       -27.4083
  25   2.0000      -0.985586       -26.8192
  26   2.0000      -0.912057       -24.8183
  27   2.0000      -0.903817       -24.5941
  28   2.0000      -0.868222       -23.6255
  29   2.0000      -0.851572       -23.1724
  30   2.0000      -0.849598       -23.1187
  31   2.0000      -0.808189       -21.9919
  32   2.0000      -0.779477       -21.2107
  33   2.0000      -0.766638       -20.8613
  34   2.0000      -0.708052       -19.2671
  35   2.0000      -0.694107       -18.8876
  36   2.0000      -0.679184       -18.4815
  37   2.0000      -0.660528       -17.9739
  38   2.0000      -0.647722       -17.6254
  39   2.0000      -0.616182       -16.7672
  40   2.0000      -0.588801       -16.0221
  41   2.0000      -0.571562       -15.5530
  42   2.0000      -0.564373       -15.3574
  43   2.0000      -0.556645       -15.1471
  44   2.0000      -0.538773       -14.6608
  45   2.0000      -0.520498       -14.1635
  46   2.0000      -0.514739       -14.0067
  47   2.0000      -0.507756       -13.8167
  48   2.0000      -0.504813       -13.7367
  49   2.0000      -0.491281       -13.3684
  50   2.0000      -0.482809       -13.1379
  51   2.0000      -0.481992       -13.1157
  52   2.0000      -0.472468       -12.8565
  53   2.0000      -0.464739       -12.6462
  54   2.0000      -0.456252       -12.4153
  55   2.0000      -0.451713       -12.2917
  56   2.0000      -0.446077       -12.1384
  57   2.0000      -0.442704       -12.0466
  58   2.0000      -0.431293       -11.7361
  59   2.0000      -0.424834       -11.5603
  60   2.0000      -0.416384       -11.3304
  61   2.0000      -0.411411       -11.1951
  62   2.0000      -0.408174       -11.1070
  63   2.0000      -0.334957        -9.1146
  64   2.0000      -0.329661        -8.9705
  65   2.0000      -0.316471        -8.6116
  66   2.0000      -0.309003        -8.4084
  67   0.0000       0.046492         1.2651
  68   0.0000       0.048750         1.3266
  69   0.0000       0.110410         3.0044
  70   0.0000       0.115158         3.1336
  71   0.0000       0.129214         3.5161

MULLIKEN ATOMIC CHARGES
-----------------------
   0 S :    0.118776
   1 C :   -0.123563
   2 C :   -0.046299
   3 C :    0.059694
   4 C :   -0.152665
   5 H :   -0.013249
   6 C :    0.007281
   7 H :    0.033108
   8 H :    0.008333
   9 C :   -0.050594
  10 H :    0.029451
  11 H :    0.055378
  12 C :   -0.045079
  13 H :    0.026374
  14 H :    0.032351
  15 H :    0.015707
  16 S :    0.138713
  17 C :   -0.090880
  18 C :   -0.052113
  19 C :    0.024024
  20 C :   -0.238914
  21 H :    0.020167
  22 C :    0.027291
  23 H :    0.040694
  24 H :    0.028495
  25 C :   -0.083929
  26 H :    0.044352
  27 H :    0.035995
  28 C :   -0.052553
  29 H :    0.028057
  30 H :    0.032551
  31 H :    0.040874
  32 H :    0.050852
  33 H :    0.051320
Sum of atomic charges:   -0.0000000

LOEWDIN ATOMIC CHARGES
----------------------
   0 S :    0.423838
   1 C :   -0.209448
   2 C :   -0.066637
   3 C :   -0.044483
   4 C :   -0.204721
   5 H :    0.016690
   6 C :   -0.029151
   7 H :    0.030416
   8 H :    0.022550
   9 C :   -0.034000
  10 H :    0.022949
  11 H :    0.035620
  12 C :   -0.069606
  13 H :    0.029518
  14 H :    0.023424
  15 H :    0.018813
  16 S :    0.444275
  17 C :   -0.204567
  18 C :   -0.070803
  19 C :   -0.049299
  20 C :   -0.213712
  21 H :    0.029945
  22 C :   -0.036634
  23 H :    0.034921
  24 H :    0.032539
  25 C :   -0.046499
  26 H :    0.025461
  27 H :    0.027677
  28 C :   -0.074865
  29 H :    0.030232
  30 H :    0.027778
  31 H :    0.025186
  32 H :    0.030783
  33 H :    0.021809

  Mayer bond orders larger than 0.100000
B(  0-S ,  1-C ) :   1.1434 B(  0-S ,  4-C ) :   1.1575 B(  1-C ,  2-C ) :   1.6237
B(  1-C , 32-H ) :   0.9618 B(  2-C ,  3-C ) :   1.2192 B(  2-C ,  6-C ) :   1.0246
B(  3-C ,  4-C ) :   1.5907 B(  3-C ,  5-H ) :   1.0065 B(  4-C , 20-C ) :   1.0066
B(  6-C ,  7-H ) :   0.9494 B(  6-C ,  8-H ) :   0.9431 B(  6-C ,  9-C ) :   1.0464
B(  9-C , 10-H ) :   0.9597 B(  9-C , 11-H ) :   0.9562 B(  9-C , 12-C ) :   1.0838
B( 12-C , 13-H ) :   0.9734 B( 12-C , 14-H ) :   0.9717 B( 12-C , 15-H ) :   0.9710
B( 16-S , 17-C ) :   1.1783 B( 16-S , 20-C ) :   1.1781 B( 17-C , 18-C ) :   1.5819
B( 17-C , 33-H ) :   0.9701 B( 18-C , 19-C ) :   1.2558 B( 18-C , 21-H ) :   0.9859
B( 19-C , 20-C ) :   1.5727 B( 19-C , 22-C ) :   1.0273 B( 22-C , 23-H ) :   0.9376
B( 22-C , 24-H ) :   0.9397 B( 22-C , 25-C ) :   1.0795 B( 25-C , 26-H ) :   0.9486
B( 25-C , 27-H ) :   0.9567 B( 25-C , 28-C ) :   1.0741 B( 28-C , 29-H ) :   0.9742
B( 28-C , 30-H ) :   0.9758 B( 28-C , 31-H ) :   0.9703

Dispersion correction           -0.015312364
FINAL SINGLE POINT ENERGY     -1339.869441510164

DIPOLE MOMENT
-------------
                                X             Y             Z
Electronic contribution:     17.60600      15.25520      -3.94320
Nuclear contribution   :    -18.11249     -15.65936       4.28726
                        -----------------------------------------
Total Dipole Moment    :     -0.50649      -0.40416       0.34405
                        -----------------------------------------
Magnitude (a.u.)       :      0.73366
Magnitude (Debye)      :      1.86480

Rotational constants in cm-1:     0.019843     0.008339     0.007468
Rotational constants in MHz :   594.869024   249.993119   223.872750

                             ****ORCA TERMINATED NORMALLY****
TOTAL RUN TIME: 0 days 0 hours 0 minutes 34 seconds 871 msec
