                         Program Version 4.2.1 -  RELEASE  -
|  1> ! wB97X-D3 SP def2-SVP
|  2> %pal
|  3> nprocs 16
|  4> end
|  5>
|  6> * xyz 0 1
|  7> S 	 -38.0437 	 52.6604 	 108.165
|  8> C 	 -37.4177 	 52.5154 	 109.817
|  9> C 	 -38.0578 	 51.5557 	 110.528
| 10> C 	 -39.1302 	 50.9149 	 109.763
| 11> C 	 -39.3281 	 51.4761 	 108.526
| 12> H 	 -39.8395 	 50.1958 	 110.093
| 13> C 	 -37.7725 	 50.911 	 111.907
| 14> H 	 -36.7454 	 50.6083 	 112.053
| 15> H 	 -38.2657 	 49.9862 	 112.069
| 16> C 	 -38.3223 	 51.6978 	 113.067
| 17> H 	 -39.2912 	 52.0663 	 112.865
| 18> H 	 -38.4314 	 51.0393 	 113.964
| 19> C 	 -37.3735 	 52.8677 	 113.508
| 20> H 	 -37.3941 	 53.6176 	 112.737
| 21> H 	 -37.7682 	 53.3596 	 114.395
| 22> H 	 -36.3535 	 52.5073 	 113.711
| 23> S 	 -39.2116 	 49.8046 	 106.288
| 24> C 	 -40.6514 	 49.7146 	 105.253
| 25> C 	 -41.7603 	 50.2669 	 105.848
| 26> C 	 -41.448 	 50.9289 	 107.074
| 27> C 	 -40.0855 	 50.9187 	 107.421
| 28> H 	 -42.6631 	 50.1466 	 105.412
| 29> C 	 -42.5561 	 51.6694 	 107.814
| 30> H 	 -43.197 	 51.9638 	 106.986
| 31> H 	 -42.2902 	 52.6822 	 108.244
| 32> C 	 -43.3142 	 50.7737 	 108.839
| 33> H 	 -42.5429 	 50.3596 	 109.558
| 34> H 	 -43.6228 	 49.9511 	 108.178
| 35> C 	 -44.5944 	 51.4363 	 109.455
| 36> H 	 -45.1736 	 50.6852 	 109.936
| 37> H 	 -45.2403 	 51.8242 	 108.632
| 38> H 	 -44.3499 	 52.1246 	 110.254
| 39> H 	 -36.6316 	 53.0878 	 110.213
| 40> H 	 -40.789 	 49.0962 	 104.418
| 41> *
| 42>
| 43>                          ****END OF INPUT****

CARTESIAN COORDINATES (ANGSTROEM)
---------------------------------
  S    -38.043700   52.660400  108.165000
  C    -37.417700   52.515400  109.817000
  C    -38.057800   51.555700  110.528000
  C    -39.130200   50.914900  109.763000
  C    -39.328100   51.476100  108.526000
  H    -39.839500   50.195800  110.093000
  C    -37.772500   50.911000  111.907000
  H    -36.745400   50.608300  112.053000
  H    -38.265700   49.986200  112.069000
  C    -38.322300   51.697800  113.067000
  H    -39.291200   52.066300  112.865000
  H    -38.431400   51.039300  113.964000
  C    -37.373500   52.867700  113.508000
  H    -37.394100   53.617600  112.737000
  H    -37.768200   53.359600  114.395000
  H    -36.353500   52.507300  113.711000
  S    -39.211600   49.804600  106.288000
  C    -40.651400   49.714600  105.253000
  C    -41.760300   50.266900  105.848000
  C    -41.448000   50.928900  107.074000
  C    -40.085500   50.918700  107.421000
  H    -42.663100   50.146600  105.412000
  C    -42.556100   51.669400  107.814000
  H    -43.197000   51.963800  106.986000
  H    -42.290200   52.682200  108.244000
  C    -43.314200   50.773700  108.839000
  H    -42.542900   50.359600  109.558000
  H    -43.622800   49.951100  108.178000
  C    -44.594400   51.436300  109.455000
  H    -45.173600   50.685200  109.936000
  H    -45.240300   51.824200  108.632000
  H    -44.349900   52.124600  110.254000
  H    -36.631600   53.087800  110.213000
  H    -40.789000   49.096200  104.418000

 Total Charge           Charge          ....    0
 Multiplicity           Mult            ....    1
 Number of Electrons    NEL             ....  134
 Basis Dimension        Dim             ....  322

ORBITAL ENERGIES
----------------

  NO   OCC          E(Eh)            E(eV)
   0   2.0000     -88.964197     -2420.8389
   1   2.0000     -88.964140     -2420.8373
   2   2.0000     -10.330686      -281.1123
   3   2.0000     -10.329506      -281.0802
   4   2.0000     -10.315389      -280.6960
   5   2.0000     -10.314976      -280.6848
   6   2.0000     -10.306918      -280.4655
   7   2.0000     -10.306025      -280.4412
   8   2.0000     -10.296220      -280.1744
   9   2.0000     -10.295486      -280.1544
  10   2.0000     -10.292153      -280.0637
  11   2.0000     -10.288806      -279.9726
  12   2.0000     -10.286583      -279.9122
  13   2.0000     -10.284652      -279.8596
  14   2.0000     -10.282459      -279.7999
  15   2.0000     -10.276151      -279.6283
  16   2.0000      -8.078350      -219.8231
  17   2.0000      -8.077627      -219.8034
  18   2.0000      -6.037025      -164.2758
  19   2.0000      -6.036289      -164.2558
  20   2.0000      -6.033024      -164.1669
  21   2.0000      -6.032395      -164.1498
  22   2.0000      -6.028840      -164.0531
  23   2.0000      -6.028206      -164.0358
  24   2.0000      -0.999272       -27.1916
  25   2.0000      -0.977182       -26.5905
  26   2.0000      -0.912004       -24.8169
  27   2.0000      -0.900078       -24.4924
  28   2.0000      -0.871150       -23.7052
  29   2.0000      -0.844693       -22.9853
  30   2.0000      -0.841747       -22.9051
  31   2.0000      -0.814804       -22.1719
  32   2.0000      -0.786566       -21.4035
  33   2.0000      -0.773152       -21.0385
  34   2.0000      -0.709094       -19.2954
  35   2.0000      -0.697428       -18.9780
  36   2.0000      -0.690823       -18.7983
  37   2.0000      -0.665306       -18.1039
  38   2.0000      -0.650902       -17.7120
  39   2.0000      -0.617835       -16.8121
  40   2.0000      -0.591773       -16.1030
  41   2.0000      -0.579323       -15.7642
  42   2.0000      -0.560218       -15.2443
  43   2.0000      -0.544170       -14.8076
  44   2.0000      -0.540124       -14.6975
  45   2.0000      -0.519187       -14.1278
  46   2.0000      -0.514515       -14.0007
  47   2.0000      -0.510249       -13.8846
  48   2.0000      -0.506699       -13.7880
  49   2.0000      -0.502666       -13.6782
  50   2.0000      -0.487329       -13.2609
  51   2.0000      -0.481852       -13.1119
  52   2.0000      -0.474811       -12.9203
  53   2.0000      -0.462134       -12.5753
  54   2.0000      -0.460652       -12.5350
  55   2.0000      -0.449710       -12.2372
  56   2.0000      -0.444553       -12.0969
  57   2.0000      -0.438345       -11.9280
  58   2.0000      -0.430035       -11.7019
  59   2.0000      -0.423034       -11.5113
  60   2.0000      -0.415358       -11.3025
  61   2.0000      -0.410476       -11.1696
  62   2.0000      -0.408315       -11.1108
  63   2.0000      -0.339228        -9.2309
  64   2.0000      -0.328852        -8.9485
  65   2.0000      -0.324931        -8.8418
  66   2.0000      -0.307048        -8.3552
  67   0.0000       0.035249         0.9592
  68   0.0000       0.050275         1.3681
  69   0.0000       0.107629         2.9287
  70   0.0000       0.112733         3.0676
  71   0.0000       0.130433         3.5492

MULLIKEN ATOMIC CHARGES
-----------------------
   0 S :    0.098074
   1 C :   -0.098253
   2 C :   -0.065024
   3 C :    0.042241
   4 C :   -0.160207
   5 H :    0.012320
   6 C :    0.094898
   7 H :    0.025794
   8 H :    0.008778
   9 C :   -0.084080
  10 H :    0.019838
  11 H :    0.028679
  12 C :   -0.049982
  13 H :    0.024018
  14 H :    0.030541
  15 H :    0.032873
  16 S :    0.099861
  17 C :   -0.055884
  18 C :   -0.004363
  19 C :   -0.017536
  20 C :   -0.168137
  21 H :   -0.022015
  22 C :    0.033129
  23 H :    0.013062
  24 H :    0.039024
  25 C :   -0.099654
  26 H :    0.041867
  27 H :    0.022588
  28 C :   -0.019371
  29 H :    0.024960
  30 H :    0.040591
  31 H :    0.041164
  32 H :    0.032282
  33 H :    0.037922
Sum of atomic charges:   -0.0000000

LOEWDIN ATOMIC CHARGES
----------------------
   0 S :    0.382135
   1 C :   -0.173163
   2 C :   -0.058353
   3 C :   -0.043758
   4 C :   -0.189274
   5 H :    0.027802
   6 C :   -0.029307
   7 H :    0.029255
   8 H :    0.029686
   9 C :   -0.035069
  10 H :    0.018162
  11 H :    0.024582
  12 C :   -0.065490
  13 H :    0.018461
  14 H :    0.024419
  15 H :    0.024493
  16 S :    0.371433
  17 C :   -0.160791
  18 C :   -0.060288
  19 C :   -0.048046
  20 C :   -0.186645
  21 H :    0.014263
  22 C :   -0.041505
  23 H :    0.025586
  24 H :    0.033159
  25 C :   -0.043220
  26 H :    0.028474
  27 H :    0.023508
  28 C :   -0.065424
  29 H :    0.022936
  30 H :    0.034223
  31 H :    0.027256
  32 H :    0.020288
  33 H :    0.020212

  Mayer bond orders larger than 0.100000
B(  0-S ,  1-C ) :   1.1234 B(  0-S ,  4-C ) :   1.1279 B(  1-C ,  2-C ) :   1.6628
B(  1-C , 32-H ) :   0.9714 B(  2-C ,  3-C ) :   1.1976 B(  2-C ,  6-C ) :   1.0091
B(  3-C ,  4-C ) :   1.6297 B(  3-C ,  5-H ) :   0.9938 B(  4-C , 20-C ) :   1.0307
B(  6-C ,  7-H ) :   0.9448 B(  6-C ,  8-H ) :   0.9401 B(  6-C ,  9-C ) :   1.0709
B(  9-C , 10-H ) :   0.9529 B(  9-C , 11-H ) :   0.9600 B(  9-C , 12-C ) :   1.0788
B( 12-C , 13-H ) :   0.9762 B( 12-C , 14-H ) :   0.9752 B( 12-C , 15-H ) :   0.9773
B( 16-S , 17-C ) :   1.1447 B( 16-S , 20-C ) :   1.1194 B( 17-C , 18-C ) :   1.6346
B( 17-C , 33-H ) :   0.9660 B( 18-C , 19-C ) :   1.2311 B( 18-C , 21-H ) :   1.0026
B( 19-C , 20-C ) :   1.6114 B( 19-C , 22-C ) :   1.0312 B( 22-C , 23-H ) :   0.9385
B( 22-C , 24-H ) :   0.9431 B( 22-C , 25-C ) :   1.0467 B( 25-C , 26-H ) :   0.9573
B( 25-C , 27-H ) :   0.9563 B( 25-C , 28-C ) :   1.0754 B( 28-C , 29-H ) :   0.9740
B( 28-C , 30-H ) :   0.9719 B( 28-C , 31-H ) :   0.9757

Dispersion correction           -0.013991852
FINAL SINGLE POINT ENERGY     -1339.859814286754

DIPOLE MOMENT
-------------
                                X             Y             Z
Electronic contribution:     13.27871      -2.65910     -23.89043
Nuclear contribution   :    -13.74788       2.39638      24.37279
                        -----------------------------------------
Total Dipole Moment    :     -0.46917      -0.26272       0.48236
                        -----------------------------------------
Magnitude (a.u.)       :      0.72237
Magnitude (Debye)      :      1.83612

Rotational constants in cm-1:     0.018160     0.008281     0.006384
Rotational constants in MHz :   544.432236   248.265616   191.392746

                             ****ORCA TERMINATED NORMALLY****
TOTAL RUN TIME: 0 days 0 hours 0 minutes 29 seconds 152 msec
