                         Program Version 4.2.1 -  RELEASE  -
|  1> ! wB97X-D3 SP def2-SVP
|  2> %pal
|  3> nprocs 16
|  4> end
|  5>
|  6> * xyz 0 1
|  7> S 	 -65.1201 	 45.6597 	 118.326
|  8> C 	 -66.1222 	 44.4846 	 119.154
|  9> C 	 -66.5355 	 44.979 	 120.395
| 10> C 	 -65.8987 	 46.1428 	 120.825
| 11> C 	 -65.0776 	 46.6236 	 119.834
| 12> H 	 -66.0087 	 46.7163 	 121.737
| 13> C 	 -67.4754 	 44.1859 	 121.371
| 14> H 	 -68.0745 	 43.4938 	 120.89
| 15> H 	 -68.1418 	 44.8809 	 121.708
| 16> C 	 -66.7413 	 43.4273 	 122.511
| 17> H 	 -66.1105 	 42.6916 	 122.02
| 18> H 	 -66.1071 	 44.0876 	 123.122
| 19> C 	 -67.646 	 42.7465 	 123.577
| 20> H 	 -66.9655 	 42.1335 	 124.325
| 21> H 	 -68.1101 	 43.4796 	 124.317
| 22> H 	 -68.55 	 42.2216 	 123.228
| 23> S 	 -64.0833 	 48.8399 	 118.542
| 24> C 	 -63.065 	 49.9381 	 119.428
| 25> C 	 -62.9884 	 49.5695 	 120.76
| 26> C 	 -63.5032 	 48.305 	 121.074
| 27> C 	 -64.1556 	 47.7568 	 119.945
| 28> H 	 -62.2987 	 50.0898 	 121.44
| 29> C 	 -63.4171 	 47.6878 	 122.526
| 30> H 	 -62.3361 	 47.7477 	 122.9
| 31> H 	 -63.7072 	 46.6055 	 122.483
| 32> C 	 -64.3197 	 48.4246 	 123.475
| 33> H 	 -65.3138 	 48.3598 	 123.1
| 34> H 	 -64.1936 	 49.5463 	 123.527
| 35> C 	 -64.2804 	 47.7992 	 124.846
| 36> H 	 -64.3856 	 46.7295 	 124.882
| 37> H 	 -65.0092 	 48.1426 	 125.504
| 38> H 	 -63.2923 	 48.0398 	 125.311
| 39> H 	 -66.4141 	 43.5239 	 118.752
| 40> H 	 -62.5597 	 50.7195 	 118.965
| 41> *
| 42>
| 43>                          ****END OF INPUT****

CARTESIAN COORDINATES (ANGSTROEM)
---------------------------------
  S    -65.120100   45.659700  118.326000
  C    -66.122200   44.484600  119.154000
  C    -66.535500   44.979000  120.395000
  C    -65.898700   46.142800  120.825000
  C    -65.077600   46.623600  119.834000
  H    -66.008700   46.716300  121.737000
  C    -67.475400   44.185900  121.371000
  H    -68.074500   43.493800  120.890000
  H    -68.141800   44.880900  121.708000
  C    -66.741300   43.427300  122.511000
  H    -66.110500   42.691600  122.020000
  H    -66.107100   44.087600  123.122000
  C    -67.646000   42.746500  123.577000
  H    -66.965500   42.133500  124.325000
  H    -68.110100   43.479600  124.317000
  H    -68.550000   42.221600  123.228000
  S    -64.083300   48.839900  118.542000
  C    -63.065000   49.938100  119.428000
  C    -62.988400   49.569500  120.760000
  C    -63.503200   48.305000  121.074000
  C    -64.155600   47.756800  119.945000
  H    -62.298700   50.089800  121.440000
  C    -63.417100   47.687800  122.526000
  H    -62.336100   47.747700  122.900000
  H    -63.707200   46.605500  122.483000
  C    -64.319700   48.424600  123.475000
  H    -65.313800   48.359800  123.100000
  H    -64.193600   49.546300  123.527000
  C    -64.280400   47.799200  124.846000
  H    -64.385600   46.729500  124.882000
  H    -65.009200   48.142600  125.504000
  H    -63.292300   48.039800  125.311000
  H    -66.414100   43.523900  118.752000
  H    -62.559700   50.719500  118.965000

 Total Charge           Charge          ....    0
 Multiplicity           Mult            ....    1
 Number of Electrons    NEL             ....  134
 Basis Dimension        Dim             ....  322

ORBITAL ENERGIES
----------------

  NO   OCC          E(Eh)            E(eV)
   0   2.0000     -88.968525     -2420.9566
   1   2.0000     -88.965839     -2420.8836
   2   2.0000     -10.331237      -281.1273
   3   2.0000     -10.329705      -281.0856
   4   2.0000     -10.316165      -280.7171
   5   2.0000     -10.313644      -280.6485
   6   2.0000     -10.307288      -280.4756
   7   2.0000     -10.307070      -280.4696
   8   2.0000     -10.303992      -280.3859
   9   2.0000     -10.295875      -280.1650
  10   2.0000     -10.293753      -280.1073
  11   2.0000     -10.293355      -280.0964
  12   2.0000     -10.292658      -280.0775
  13   2.0000     -10.288087      -279.9531
  14   2.0000     -10.282893      -279.8118
  15   2.0000     -10.274996      -279.5969
  16   2.0000      -8.082643      -219.9399
  17   2.0000      -8.080547      -219.8829
  18   2.0000      -6.041137      -164.3877
  19   2.0000      -6.038979      -164.3290
  20   2.0000      -6.037359      -164.2849
  21   2.0000      -6.035036      -164.2217
  22   2.0000      -6.033332      -164.1753
  23   2.0000      -6.031433      -164.1236
  24   2.0000      -1.004973       -27.3467
  25   2.0000      -0.982900       -26.7461
  26   2.0000      -0.915753       -24.9189
  27   2.0000      -0.904235       -24.6055
  28   2.0000      -0.865282       -23.5455
  29   2.0000      -0.856065       -23.2947
  30   2.0000      -0.847417       -23.0594
  31   2.0000      -0.810785       -22.0626
  32   2.0000      -0.784582       -21.3496
  33   2.0000      -0.770092       -20.9553
  34   2.0000      -0.704542       -19.1716
  35   2.0000      -0.699717       -19.0403
  36   2.0000      -0.698504       -19.0072
  37   2.0000      -0.662755       -18.0345
  38   2.0000      -0.643620       -17.5138
  39   2.0000      -0.623089       -16.9551
  40   2.0000      -0.601848       -16.3771
  41   2.0000      -0.568892       -15.4803
  42   2.0000      -0.561082       -15.2678
  43   2.0000      -0.553298       -15.0560
  44   2.0000      -0.530554       -14.4371
  45   2.0000      -0.524075       -14.2608
  46   2.0000      -0.517015       -14.0687
  47   2.0000      -0.513424       -13.9710
  48   2.0000      -0.505995       -13.7688
  49   2.0000      -0.491017       -13.3612
  50   2.0000      -0.490035       -13.3345
  51   2.0000      -0.487769       -13.2729
  52   2.0000      -0.469666       -12.7803
  53   2.0000      -0.469639       -12.7795
  54   2.0000      -0.455946       -12.4069
  55   2.0000      -0.448840       -12.2135
  56   2.0000      -0.447413       -12.1747
  57   2.0000      -0.444102       -12.0846
  58   2.0000      -0.435420       -11.8484
  59   2.0000      -0.424154       -11.5418
  60   2.0000      -0.419246       -11.4083
  61   2.0000      -0.416982       -11.3466
  62   2.0000      -0.414822       -11.2879
  63   2.0000      -0.351491        -9.5646
  64   2.0000      -0.338250        -9.2042
  65   2.0000      -0.333634        -9.0786
  66   2.0000      -0.281609        -7.6630
  67   0.0000       0.020471         0.5571
  68   0.0000       0.072433         1.9710
  69   0.0000       0.099832         2.7166
  70   0.0000       0.118643         3.2284
  71   0.0000       0.127631         3.4730

MULLIKEN ATOMIC CHARGES
-----------------------
   0 S :    0.109374
   1 C :   -0.118050
   2 C :   -0.089307
   3 C :    0.012176
   4 C :   -0.129396
   5 H :    0.004656
   6 C :    0.142311
   7 H :   -0.007022
   8 H :   -0.002133
   9 C :   -0.059376
  10 H :    0.034406
  11 H :    0.027794
  12 C :   -0.115184
  13 H :    0.052622
  14 H :    0.032020
  15 H :    0.041430
  16 S :    0.094470
  17 C :   -0.071528
  18 C :   -0.035168
  19 C :   -0.043070
  20 C :   -0.136611
  21 H :    0.025771
  22 C :    0.022240
  23 H :    0.043460
  24 H :    0.044536
  25 C :   -0.081091
  26 H :    0.015135
  27 H :    0.040492
  28 C :   -0.009751
  29 H :    0.021230
  30 H :    0.019065
  31 H :    0.028212
  32 H :    0.047116
  33 H :    0.039167
Sum of atomic charges:    0.0000000

LOEWDIN ATOMIC CHARGES
----------------------
   0 S :    0.387361
   1 C :   -0.196200
   2 C :   -0.055274
   3 C :   -0.063897
   4 C :   -0.171146
   5 H :    0.035970
   6 C :   -0.017915
   7 H :    0.018214
   8 H :    0.016822
   9 C :   -0.038786
  10 H :    0.025165
  11 H :    0.024436
  12 C :   -0.087980
  13 H :    0.041172
  14 H :    0.028026
  15 H :    0.023097
  16 S :    0.398868
  17 C :   -0.175641
  18 C :   -0.074461
  19 C :   -0.057956
  20 C :   -0.190271
  21 H :    0.033311
  22 C :   -0.029462
  23 H :    0.037104
  24 H :    0.035859
  25 C :   -0.049718
  26 H :    0.015618
  27 H :    0.034024
  28 C :   -0.061289
  29 H :    0.022816
  30 H :    0.017939
  31 H :    0.030258
  32 H :    0.027832
  33 H :    0.016106

  Mayer bond orders larger than 0.100000
B(  0-S ,  1-C ) :   1.1316 B(  0-S ,  4-C ) :   1.1444 B(  1-C ,  2-C ) :   1.6071
B(  1-C ,  4-C ) :   0.1033 B(  1-C , 32-H ) :   0.9715 B(  2-C ,  3-C ) :   1.2285
B(  2-C ,  6-C ) :   1.0271 B(  3-C ,  4-C ) :   1.5773 B(  3-C ,  5-H ) :   0.9942
B(  4-C , 20-C ) :   1.0369 B(  6-C ,  7-H ) :   0.9372 B(  6-C ,  8-H ) :   0.9336
B(  6-C ,  9-C ) :   1.0583 B(  9-C , 10-H ) :   0.9593 B(  9-C , 11-H ) :   0.9574
B(  9-C , 12-C ) :   1.0673 B( 12-C , 13-H ) :   0.9732 B( 12-C , 14-H ) :   0.9746
B( 12-C , 15-H ) :   0.9765 B( 16-S , 17-C ) :   1.1574 B( 16-S , 20-C ) :   1.1494
B( 17-C , 18-C ) :   1.5832 B( 17-C , 20-C ) :   0.1098 B( 17-C , 33-H ) :   0.9805
B( 18-C , 19-C ) :   1.2782 B( 18-C , 21-H ) :   0.9772 B( 19-C , 20-C ) :   1.5776
B( 19-C , 22-C ) :   1.0240 B( 22-C , 23-H ) :   0.9397 B( 22-C , 24-H ) :   0.9376
B( 22-C , 25-C ) :   1.0622 B( 25-C , 26-H ) :   0.9468 B( 25-C , 27-H ) :   0.9487
B( 25-C , 28-C ) :   1.0886 B( 28-C , 29-H ) :   0.9709 B( 28-C , 30-H ) :   0.9714
B( 28-C , 31-H ) :   0.9714

Dispersion correction           -0.014276282
FINAL SINGLE POINT ENERGY     -1339.866102526088

DIPOLE MOMENT
-------------
                                X             Y             Z
Electronic contribution:      7.24809      10.85954     -32.16396
Nuclear contribution   :     -7.34628     -10.91998      32.88461
                        -----------------------------------------
Total Dipole Moment    :     -0.09820      -0.06044       0.72065
                        -----------------------------------------
Magnitude (a.u.)       :      0.72982
Magnitude (Debye)      :      1.85505

Rotational constants in cm-1:     0.017064     0.009652     0.006405
Rotational constants in MHz :   511.569307   289.352311   192.027055

                             ****ORCA TERMINATED NORMALLY****
TOTAL RUN TIME: 0 days 0 hours 0 minutes 32 seconds 30 msec
