                         Program Version 4.2.1 -  RELEASE  -
|  1> ! wB97X-D3 SP def2-SVP
|  2> %pal
|  3> nprocs 16
|  4> end
|  5>
|  6> * xyz 0 1
|  7> S 	 -3.14276 	 74.3526 	 51.5445
|  8> C 	 -3.11982 	 75.3258 	 52.9414
|  9> C 	 -2.66144 	 76.6312 	 52.7247
| 10> C 	 -2.38803 	 76.7661 	 51.3144
| 11> C 	 -2.67532 	 75.701 	 50.4928
| 12> H 	 -1.97421 	 77.5406 	 50.7914
| 13> C 	 -2.55607 	 77.7413 	 53.7196
| 14> H 	 -1.77045 	 78.4399 	 53.4425
| 15> H 	 -2.28555 	 77.1869 	 54.575
| 16> C 	 -3.89674 	 78.5557 	 53.6714
| 17> H 	 -3.76907 	 79.3942 	 52.9617
| 18> H 	 -4.76241 	 77.9292 	 53.4153
| 19> C 	 -4.13962 	 79.159 	 55.0289
| 20> H 	 -3.30669 	 79.753 	 55.4728
| 21> H 	 -5.08271 	 79.7073 	 55.0006
| 22> H 	 -4.36585 	 78.318 	 55.6395
| 23> S 	 -1.09021 	 74.9771 	 48.3192
| 24> C 	 -1.73725 	 75.139 	 46.6819
| 25> C 	 -2.98837 	 75.6306 	 46.7449
| 26> C 	 -3.49296 	 75.9956 	 48.0557
| 27> C 	 -2.62693 	 75.538 	 49.0459
| 28> H 	 -3.40908 	 75.8149 	 45.782
| 29> C 	 -4.88435 	 76.5618 	 48.2374
| 30> H 	 -4.9318 	 77.5701 	 47.7627
| 31> H 	 -4.95161 	 76.9451 	 49.2385
| 32> C 	 -6.1004 	 75.6937 	 47.975
| 33> H 	 -5.90696 	 74.7676 	 48.4846
| 34> H 	 -6.22033 	 75.438 	 46.9269
| 35> C 	 -7.51932 	 76.189 	 48.5146
| 36> H 	 -7.86597 	 77.0855 	 48.0916
| 37> H 	 -7.53455 	 76.4364 	 49.5532
| 38> H 	 -8.28732 	 75.3897 	 48.4159
| 39> H 	 -3.43162 	 75.0117 	 53.9109
| 40> H 	 -1.15084 	 74.9262 	 45.7993
| 41> *
| 42>
| 43>                          ****END OF INPUT****

CARTESIAN COORDINATES (ANGSTROEM)
---------------------------------
  S     -3.142760   74.352600   51.544500
  C     -3.119820   75.325800   52.941400
  C     -2.661440   76.631200   52.724700
  C     -2.388030   76.766100   51.314400
  C     -2.675320   75.701000   50.492800
  H     -1.974210   77.540600   50.791400
  C     -2.556070   77.741300   53.719600
  H     -1.770450   78.439900   53.442500
  H     -2.285550   77.186900   54.575000
  C     -3.896740   78.555700   53.671400
  H     -3.769070   79.394200   52.961700
  H     -4.762410   77.929200   53.415300
  C     -4.139620   79.159000   55.028900
  H     -3.306690   79.753000   55.472800
  H     -5.082710   79.707300   55.000600
  H     -4.365850   78.318000   55.639500
  S     -1.090210   74.977100   48.319200
  C     -1.737250   75.139000   46.681900
  C     -2.988370   75.630600   46.744900
  C     -3.492960   75.995600   48.055700
  C     -2.626930   75.538000   49.045900
  H     -3.409080   75.814900   45.782000
  C     -4.884350   76.561800   48.237400
  H     -4.931800   77.570100   47.762700
  H     -4.951610   76.945100   49.238500
  C     -6.100400   75.693700   47.975000
  H     -5.906960   74.767600   48.484600
  H     -6.220330   75.438000   46.926900
  C     -7.519320   76.189000   48.514600
  H     -7.865970   77.085500   48.091600
  H     -7.534550   76.436400   49.553200
  H     -8.287320   75.389700   48.415900
  H     -3.431620   75.011700   53.910900
  H     -1.150840   74.926200   45.799300

 Total Charge           Charge          ....    0
 Multiplicity           Mult            ....    1
 Number of Electrons    NEL             ....  134
 Basis Dimension        Dim             ....  322

ORBITAL ENERGIES
----------------

  NO   OCC          E(Eh)            E(eV)
   0   2.0000     -88.960900     -2420.7492
   1   2.0000     -88.959663     -2420.7155
   2   2.0000     -10.331564      -281.1361
   3   2.0000     -10.324893      -280.9546
   4   2.0000     -10.316170      -280.7172
   5   2.0000     -10.310974      -280.5759
   6   2.0000     -10.309838      -280.5450
   7   2.0000     -10.300668      -280.2954
   8   2.0000     -10.290957      -280.0312
   9   2.0000     -10.290635      -280.0224
  10   2.0000     -10.290073      -280.0071
  11   2.0000     -10.289472      -279.9908
  12   2.0000     -10.287625      -279.9405
  13   2.0000     -10.286421      -279.9078
  14   2.0000     -10.277213      -279.6572
  15   2.0000     -10.275507      -279.6108
  16   2.0000      -8.076228      -219.7653
  17   2.0000      -8.074012      -219.7050
  18   2.0000      -6.034648      -164.2111
  19   2.0000      -6.032663      -164.1571
  20   2.0000      -6.030578      -164.1004
  21   2.0000      -6.028567      -164.0457
  22   2.0000      -6.027124      -164.0064
  23   2.0000      -6.024640      -163.9388
  24   2.0000      -1.002562       -27.2811
  25   2.0000      -0.982227       -26.7278
  26   2.0000      -0.916595       -24.9418
  27   2.0000      -0.902855       -24.5679
  28   2.0000      -0.872037       -23.7293
  29   2.0000      -0.851064       -23.1586
  30   2.0000      -0.842401       -22.9229
  31   2.0000      -0.819363       -22.2960
  32   2.0000      -0.784369       -21.3438
  33   2.0000      -0.771342       -20.9893
  34   2.0000      -0.710959       -19.3462
  35   2.0000      -0.701971       -19.1016
  36   2.0000      -0.694623       -18.9016
  37   2.0000      -0.654608       -17.8128
  38   2.0000      -0.652322       -17.7506
  39   2.0000      -0.615953       -16.7609
  40   2.0000      -0.597339       -16.2544
  41   2.0000      -0.583838       -15.8870
  42   2.0000      -0.558374       -15.1941
  43   2.0000      -0.554299       -15.0832
  44   2.0000      -0.531505       -14.4630
  45   2.0000      -0.526368       -14.3232
  46   2.0000      -0.518951       -14.1214
  47   2.0000      -0.514136       -13.9904
  48   2.0000      -0.508586       -13.8393
  49   2.0000      -0.500153       -13.6099
  50   2.0000      -0.492734       -13.4080
  51   2.0000      -0.474877       -12.9221
  52   2.0000      -0.469306       -12.7705
  53   2.0000      -0.463075       -12.6009
  54   2.0000      -0.456492       -12.4218
  55   2.0000      -0.448615       -12.2074
  56   2.0000      -0.444938       -12.1074
  57   2.0000      -0.434149       -11.8138
  58   2.0000      -0.430809       -11.7229
  59   2.0000      -0.424415       -11.5489
  60   2.0000      -0.421205       -11.4616
  61   2.0000      -0.416028       -11.3207
  62   2.0000      -0.410941       -11.1823
  63   2.0000      -0.335114        -9.1189
  64   2.0000      -0.326134        -8.8745
  65   2.0000      -0.323263        -8.7964
  66   2.0000      -0.307619        -8.3707
  67   0.0000       0.047435         1.2908
  68   0.0000       0.052071         1.4169
  69   0.0000       0.116395         3.1673
  70   0.0000       0.124146         3.3782
  71   0.0000       0.132260         3.5990

MULLIKEN ATOMIC CHARGES
-----------------------
   0 S :    0.114234
   1 C :   -0.105278
   2 C :   -0.122852
   3 C :    0.086122
   4 C :   -0.203913
   5 H :   -0.033250
   6 C :    0.105759
   7 H :    0.029396
   8 H :    0.021655
   9 C :   -0.080983
  10 H :    0.037122
  11 H :    0.045395
  12 C :   -0.046940
  13 H :    0.045714
  14 H :    0.029600
  15 H :    0.018412
  16 S :    0.087059
  17 C :   -0.095912
  18 C :   -0.011718
  19 C :   -0.022278
  20 C :   -0.161023
  21 H :    0.008964
  22 C :    0.091364
  23 H :    0.023477
  24 H :    0.003530
  25 C :   -0.045517
  26 H :    0.028958
  27 H :    0.030087
  28 C :   -0.049603
  29 H :    0.019463
  30 H :    0.019356
  31 H :    0.041231
  32 H :    0.030613
  33 H :    0.061754
Sum of atomic charges:    0.0000000

LOEWDIN ATOMIC CHARGES
----------------------
   0 S :    0.414362
   1 C :   -0.209144
   2 C :   -0.061284
   3 C :   -0.048700
   4 C :   -0.198341
   5 H :    0.015118
   6 C :   -0.026299
   7 H :    0.036068
   8 H :    0.026496
   9 C :   -0.032648
  10 H :    0.026733
  11 H :    0.028846
  12 C :   -0.068743
  13 H :    0.029949
  14 H :    0.025157
  15 H :    0.019324
  16 S :    0.373259
  17 C :   -0.169726
  18 C :   -0.073009
  19 C :   -0.044083
  20 C :   -0.190594
  21 H :    0.028360
  22 C :   -0.043592
  23 H :    0.036186
  24 H :    0.029495
  25 C :   -0.033118
  26 H :    0.026858
  27 H :    0.022480
  28 C :   -0.062894
  29 H :    0.015663
  30 H :    0.021383
  31 H :    0.034063
  32 H :    0.020154
  33 H :    0.032220

  Mayer bond orders larger than 0.100000
B(  0-S ,  1-C ) :   1.1696 B(  0-S ,  4-C ) :   1.1360 B(  1-C ,  2-C ) :   1.5898
B(  1-C , 32-H ) :   0.9693 B(  2-C ,  3-C ) :   1.2167 B(  2-C ,  6-C ) :   1.0280
B(  3-C ,  4-C ) :   1.6132 B(  3-C ,  5-H ) :   1.0103 B(  4-C , 20-C ) :   1.0097
B(  6-C ,  7-H ) :   0.9332 B(  6-C ,  8-H ) :   0.9480 B(  6-C ,  9-C ) :   1.0398
B(  9-C , 10-H ) :   0.9531 B(  9-C , 11-H ) :   0.9643 B(  9-C , 12-C ) :   1.0845
B( 12-C , 13-H ) :   0.9717 B( 12-C , 14-H ) :   0.9712 B( 12-C , 15-H ) :   0.9787
B( 16-S , 17-C ) :   1.1327 B( 16-S , 20-C ) :   1.1355 B( 17-C , 18-C ) :   1.6534
B( 17-C , 33-H ) :   0.9684 B( 18-C , 19-C ) :   1.1875 B( 18-C , 21-H ) :   0.9936
B( 19-C , 20-C ) :   1.6156 B( 19-C , 22-C ) :   1.0704 B( 22-C , 23-H ) :   0.9199
B( 22-C , 24-H ) :   0.9190 B( 22-C , 25-C ) :   1.0556 B( 25-C , 26-H ) :   0.9533
B( 25-C , 27-H ) :   0.9571 B( 25-C , 28-C ) :   1.0772 B( 28-C , 29-H ) :   0.9783
B( 28-C , 30-H ) :   0.9747 B( 28-C , 31-H ) :   0.9774

Dispersion correction           -0.013939636
FINAL SINGLE POINT ENERGY     -1339.864412786731

DIPOLE MOMENT
-------------
                                X             Y             Z
Electronic contribution:     19.90771     -16.98098      -9.36639
Nuclear contribution   :    -20.27367      17.58853       9.42834
                        -----------------------------------------
Total Dipole Moment    :     -0.36597       0.60754       0.06195
                        -----------------------------------------
Magnitude (a.u.)       :      0.71195
Magnitude (Debye)      :      1.80964

Rotational constants in cm-1:     0.017660     0.008206     0.006649
Rotational constants in MHz :   529.437100   246.004920   199.333474

                             ****ORCA TERMINATED NORMALLY****
TOTAL RUN TIME: 0 days 0 hours 0 minutes 33 seconds 574 msec
