                         Program Version 4.2.1 -  RELEASE  -
|  1> ! wB97X-D3 SP def2-SVP
|  2> %pal
|  3> nprocs 16
|  4> end
|  5>
|  6> * xyz 0 1
|  7> S 	 -54.3411 	 7.39666 	 91.9497
|  8> C 	 -54.0952 	 6.5657 	 93.5181
|  9> C 	 -54.0133 	 7.45362 	 94.5882
| 10> C 	 -54.1142 	 8.82516 	 94.1346
| 11> C 	 -54.3855 	 8.90956 	 92.7757
| 12> H 	 -53.9678 	 9.77312 	 94.6778
| 13> C 	 -53.6058 	 7.17274 	 96.016
| 14> H 	 -54.2638 	 6.40289 	 96.3944
| 15> H 	 -53.5989 	 8.07168 	 96.6206
| 16> C 	 -52.2719 	 6.60323 	 96.2408
| 17> H 	 -52.0285 	 6.39713 	 97.2723
| 18> H 	 -52.2227 	 5.57515 	 95.826
| 19> C 	 -51.0872 	 7.40698 	 95.7051
| 20> H 	 -50.1474 	 6.9119 	 96.1022
| 21> H 	 -50.9913 	 7.39509 	 94.5969
| 22> H 	 -51.0264 	 8.46575 	 95.9815
| 23> S 	 -52.9026 	 10.5166 	 90.9801
| 24> C 	 -53.5245 	 11.9912 	 90.3541
| 25> C 	 -54.5304 	 12.4325 	 91.2072
| 26> C 	 -54.9665 	 11.4093 	 92.1269
| 27> C 	 -54.2576 	 10.189 	 92.0567
| 28> H 	 -55.0177 	 13.3561 	 90.9598
| 29> C 	 -56.1911 	 11.7158 	 93.0002
| 30> H 	 -56.5134 	 10.7595 	 93.4792
| 31> H 	 -57.0289 	 11.9302 	 92.2723
| 32> C 	 -56.0615 	 12.8281 	 94.0685
| 33> H 	 -56.9599 	 12.7692 	 94.6514
| 34> H 	 -56.0507 	 13.8775 	 93.7048
| 35> C 	 -54.9819 	 12.4992 	 95.0796
| 36> H 	 -55.2642 	 11.5689 	 95.5793
| 37> H 	 -55.1788 	 13.2683 	 95.827
| 38> H 	 -53.916 	 12.4725 	 94.7013
| 39> H 	 -53.9127 	 5.48369 	 93.5062
| 40> H 	 -53.1117 	 12.5066 	 89.5116
| 41> *
| 42>
| 43>                          ****END OF INPUT****

CARTESIAN COORDINATES (ANGSTROEM)
---------------------------------
  S    -54.341100    7.396660   91.949700
  C    -54.095200    6.565700   93.518100
  C    -54.013300    7.453620   94.588200
  C    -54.114200    8.825160   94.134600
  C    -54.385500    8.909560   92.775700
  H    -53.967800    9.773120   94.677800
  C    -53.605800    7.172740   96.016000
  H    -54.263800    6.402890   96.394400
  H    -53.598900    8.071680   96.620600
  C    -52.271900    6.603230   96.240800
  H    -52.028500    6.397130   97.272300
  H    -52.222700    5.575150   95.826000
  C    -51.087200    7.406980   95.705100
  H    -50.147400    6.911900   96.102200
  H    -50.991300    7.395090   94.596900
  H    -51.026400    8.465750   95.981500
  S    -52.902600   10.516600   90.980100
  C    -53.524500   11.991200   90.354100
  C    -54.530400   12.432500   91.207200
  C    -54.966500   11.409300   92.126900
  C    -54.257600   10.189000   92.056700
  H    -55.017700   13.356100   90.959800
  C    -56.191100   11.715800   93.000200
  H    -56.513400   10.759500   93.479200
  H    -57.028900   11.930200   92.272300
  C    -56.061500   12.828100   94.068500
  H    -56.959900   12.769200   94.651400
  H    -56.050700   13.877500   93.704800
  C    -54.981900   12.499200   95.079600
  H    -55.264200   11.568900   95.579300
  H    -55.178800   13.268300   95.827000
  H    -53.916000   12.472500   94.701300
  H    -53.912700    5.483690   93.506200
  H    -53.111700   12.506600   89.511600

 Total Charge           Charge          ....    0
 Multiplicity           Mult            ....    1
 Number of Electrons    NEL             ....  134
 Basis Dimension        Dim             ....  322

ORBITAL ENERGIES
----------------

  NO   OCC          E(Eh)            E(eV)
   0   2.0000     -88.971005     -2421.0241
   1   2.0000     -88.957190     -2420.6482
   2   2.0000     -10.329010      -281.0667
   3   2.0000     -10.327658      -281.0299
   4   2.0000     -10.324247      -280.9370
   5   2.0000     -10.314383      -280.6686
   6   2.0000     -10.310089      -280.5518
   7   2.0000     -10.304529      -280.4005
   8   2.0000     -10.299848      -280.2731
   9   2.0000     -10.293091      -280.0893
  10   2.0000     -10.291034      -280.0333
  11   2.0000     -10.288417      -279.9620
  12   2.0000     -10.286917      -279.9212
  13   2.0000     -10.283207      -279.8203
  14   2.0000     -10.280139      -279.7368
  15   2.0000     -10.279147      -279.7098
  16   2.0000      -8.085492      -220.0174
  17   2.0000      -8.072585      -219.6662
  18   2.0000      -6.043963      -164.4646
  19   2.0000      -6.040119      -164.3600
  20   2.0000      -6.036211      -164.2536
  21   2.0000      -6.031053      -164.1133
  22   2.0000      -6.026918      -164.0008
  23   2.0000      -6.023413      -163.9054
  24   2.0000      -1.003590       -27.3091
  25   2.0000      -0.982031       -26.7224
  26   2.0000      -0.922060       -25.0905
  27   2.0000      -0.905988       -24.6532
  28   2.0000      -0.865647       -23.5555
  29   2.0000      -0.848992       -23.1023
  30   2.0000      -0.843047       -22.9405
  31   2.0000      -0.809952       -22.0399
  32   2.0000      -0.785051       -21.3623
  33   2.0000      -0.769208       -20.9312
  34   2.0000      -0.703232       -19.1359
  35   2.0000      -0.699162       -19.0252
  36   2.0000      -0.688275       -18.7289
  37   2.0000      -0.652254       -17.7487
  38   2.0000      -0.642902       -17.4942
  39   2.0000      -0.610017       -16.5994
  40   2.0000      -0.590277       -16.0622
  41   2.0000      -0.578823       -15.7506
  42   2.0000      -0.557659       -15.1747
  43   2.0000      -0.550669       -14.9845
  44   2.0000      -0.548235       -14.9182
  45   2.0000      -0.539930       -14.6922
  46   2.0000      -0.518673       -14.1138
  47   2.0000      -0.512819       -13.9545
  48   2.0000      -0.496945       -13.5226
  49   2.0000      -0.493644       -13.4327
  50   2.0000      -0.489665       -13.3245
  51   2.0000      -0.477533       -12.9943
  52   2.0000      -0.468023       -12.7356
  53   2.0000      -0.464715       -12.6455
  54   2.0000      -0.457124       -12.4390
  55   2.0000      -0.444208       -12.0875
  56   2.0000      -0.441373       -12.0104
  57   2.0000      -0.435330       -11.8459
  58   2.0000      -0.427345       -11.6286
  59   2.0000      -0.423176       -11.5152
  60   2.0000      -0.420067       -11.4306
  61   2.0000      -0.409729       -11.1493
  62   2.0000      -0.406118       -11.0510
  63   2.0000      -0.339314        -9.2332
  64   2.0000      -0.332066        -9.0360
  65   2.0000      -0.320115        -8.7108
  66   2.0000      -0.298192        -8.1142
  67   0.0000       0.026692         0.7263
  68   0.0000       0.067474         1.8361
  69   0.0000       0.109654         2.9838
  70   0.0000       0.114443         3.1142
  71   0.0000       0.122970         3.3462

MULLIKEN ATOMIC CHARGES
-----------------------
   0 S :    0.117031
   1 C :   -0.154013
   2 C :   -0.055709
   3 C :    0.011548
   4 C :   -0.155997
   5 H :    0.024533
   6 C :    0.122205
   7 H :    0.030315
   8 H :    0.022773
   9 C :   -0.083121
  10 H :    0.025826
  11 H :    0.017465
  12 C :   -0.086871
  13 H :    0.034010
  14 H :    0.045994
  15 H :    0.030558
  16 S :    0.091389
  17 C :   -0.099741
  18 C :   -0.017000
  19 C :   -0.057248
  20 C :   -0.147257
  21 H :    0.017529
  22 C :    0.020402
  23 H :    0.025696
  24 H :    0.040126
  25 C :   -0.058482
  26 H :    0.019722
  27 H :    0.036743
  28 C :   -0.069531
  29 H :    0.030328
  30 H :    0.029286
  31 H :    0.069479
  32 H :    0.062842
  33 H :    0.059169
Sum of atomic charges:   -0.0000000

LOEWDIN ATOMIC CHARGES
----------------------
   0 S :    0.411742
   1 C :   -0.183889
   2 C :   -0.055975
   3 C :   -0.052930
   4 C :   -0.208932
   5 H :    0.038818
   6 C :   -0.033054
   7 H :    0.038054
   8 H :    0.031629
   9 C :   -0.049048
  10 H :    0.025172
  11 H :    0.023895
  12 C :   -0.075687
  13 H :    0.032143
  14 H :    0.028725
  15 H :    0.022358
  16 S :    0.403372
  17 C :   -0.185793
  18 C :   -0.076231
  19 C :   -0.062420
  20 C :   -0.204934
  21 H :    0.028457
  22 C :   -0.042820
  23 H :    0.030656
  24 H :    0.035703
  25 C :   -0.043601
  26 H :    0.025990
  27 H :    0.025447
  28 C :   -0.071206
  29 H :    0.023748
  30 H :    0.029179
  31 H :    0.033743
  32 H :    0.029588
  33 H :    0.028099

  Mayer bond orders larger than 0.100000
B(  0-S ,  1-C ) :   1.1417 B(  0-S ,  4-C ) :   1.1592 B(  1-C ,  2-C ) :   1.5945
B(  1-C , 32-H ) :   0.9706 B(  2-C ,  3-C ) :   1.2246 B(  2-C ,  6-C ) :   1.0248
B(  3-C ,  4-C ) :   1.5785 B(  3-C ,  5-H ) :   0.9836 B(  4-C , 20-C ) :   1.0250
B(  6-C ,  7-H ) :   0.9228 B(  6-C ,  8-H ) :   0.9432 B(  6-C ,  9-C ) :   1.0959
B(  9-C , 10-H ) :   0.9546 B(  9-C , 11-H ) :   0.9450 B(  9-C , 12-C ) :   1.0733
B( 12-C , 13-H ) :   0.9745 B( 12-C , 14-H ) :   0.9739 B( 12-C , 15-H ) :   0.9761
B( 16-S , 17-C ) :   1.1758 B( 16-S , 20-C ) :   1.1391 B( 17-C , 18-C ) :   1.5755
B( 17-C , 20-C ) :   0.1004 B( 17-C , 33-H ) :   0.9739 B( 18-C , 19-C ) :   1.2464
B( 18-C , 21-H ) :   0.9960 B( 19-C , 20-C ) :   1.5751 B( 19-C , 22-C ) :   1.0434
B( 22-C , 23-H ) :   0.9382 B( 22-C , 24-H ) :   0.9401 B( 22-C , 25-C ) :   1.0727
B( 25-C , 26-H ) :   0.9523 B( 25-C , 27-H ) :   0.9569 B( 25-C , 28-C ) :   1.0731
B( 28-C , 29-H ) :   0.9668 B( 28-C , 30-H ) :   0.9693 B( 28-C , 31-H ) :   0.9701

Dispersion correction           -0.015268098
FINAL SINGLE POINT ENERGY     -1339.870527490159

DIPOLE MOMENT
-------------
                                X             Y             Z
Electronic contribution:     -0.79357      -5.00881     -23.08610
Nuclear contribution   :      0.72854       5.15938      23.62289
                        -----------------------------------------
Total Dipole Moment    :     -0.06503       0.15057       0.53679
                        -----------------------------------------
Magnitude (a.u.)       :      0.56129
Magnitude (Debye)      :      1.42667

Rotational constants in cm-1:     0.019261     0.008980     0.007562
Rotational constants in MHz :   577.426060   269.198883   226.693145

                             ****ORCA TERMINATED NORMALLY****
TOTAL RUN TIME: 0 days 0 hours 0 minutes 31 seconds 925 msec
