                         Program Version 4.2.1 -  RELEASE  -
|  1> ! wB97X-D3 SP def2-SVP
|  2> %pal
|  3> nprocs 16
|  4> end
|  5>
|  6> * xyz 0 1
|  7> S 	 -35.9956 	 60.8631 	 108.57
|  8> C 	 -36.6789 	 59.3815 	 109.05
|  9> C 	 -36.6524 	 58.4786 	 108.027
| 10> C 	 -36.1991 	 59.0583 	 106.794
| 11> C 	 -35.6816 	 60.3393 	 106.874
| 12> H 	 -36.0992 	 58.5282 	 105.836
| 13> C 	 -37.1425 	 57.0563 	 108.102
| 14> H 	 -37.5396 	 56.9889 	 107.122
| 15> H 	 -37.9652 	 56.8523 	 108.809
| 16> C 	 -35.9848 	 56.0136 	 108.306
| 17> H 	 -35.4285 	 56.317 	 109.24
| 18> H 	 -36.2829 	 55.0483 	 108.487
| 19> C 	 -35.0097 	 55.9513 	 107.133
| 20> H 	 -34.2699 	 55.1501 	 107.265
| 21> H 	 -35.5313 	 55.795 	 106.127
| 22> H 	 -34.4318 	 56.8695 	 107.041
| 23> S 	 -33.3842 	 61.753 	 106.436
| 24> C 	 -33.1112 	 62.5988 	 104.902
| 25> C 	 -34.1229 	 62.3221 	 104.02
| 26> C 	 -35.1364 	 61.4985 	 104.587
| 27> C 	 -34.9466 	 61.1565 	 105.939
| 28> H 	 -34.1488 	 62.6354 	 102.999
| 29> C 	 -36.3512 	 61.0921 	 103.718
| 30> H 	 -36.8591 	 60.4031 	 104.354
| 31> H 	 -36.1021 	 60.4936 	 102.856
| 32> C 	 -37.2415 	 62.2597 	 103.243
| 33> H 	 -36.59 	 62.9524 	 102.68
| 34> H 	 -37.7389 	 62.781 	 104.053
| 35> C 	 -38.3083 	 61.6708 	 102.277
| 36> H 	 -38.9614 	 61.0299 	 102.874
| 37> H 	 -37.9105 	 61.0951 	 101.431
| 38> H 	 -38.9792 	 62.4957 	 101.816
| 39> H 	 -37.2149 	 59.2263 	 109.935
| 40> H 	 -32.2645 	 63.3207 	 104.701
| 41> *
| 42>
| 43>                          ****END OF INPUT****

CARTESIAN COORDINATES (ANGSTROEM)
---------------------------------
  S    -35.995600   60.863100  108.570000
  C    -36.678900   59.381500  109.050000
  C    -36.652400   58.478600  108.027000
  C    -36.199100   59.058300  106.794000
  C    -35.681600   60.339300  106.874000
  H    -36.099200   58.528200  105.836000
  C    -37.142500   57.056300  108.102000
  H    -37.539600   56.988900  107.122000
  H    -37.965200   56.852300  108.809000
  C    -35.984800   56.013600  108.306000
  H    -35.428500   56.317000  109.240000
  H    -36.282900   55.048300  108.487000
  C    -35.009700   55.951300  107.133000
  H    -34.269900   55.150100  107.265000
  H    -35.531300   55.795000  106.127000
  H    -34.431800   56.869500  107.041000
  S    -33.384200   61.753000  106.436000
  C    -33.111200   62.598800  104.902000
  C    -34.122900   62.322100  104.020000
  C    -35.136400   61.498500  104.587000
  C    -34.946600   61.156500  105.939000
  H    -34.148800   62.635400  102.999000
  C    -36.351200   61.092100  103.718000
  H    -36.859100   60.403100  104.354000
  H    -36.102100   60.493600  102.856000
  C    -37.241500   62.259700  103.243000
  H    -36.590000   62.952400  102.680000
  H    -37.738900   62.781000  104.053000
  C    -38.308300   61.670800  102.277000
  H    -38.961400   61.029900  102.874000
  H    -37.910500   61.095100  101.431000
  H    -38.979200   62.495700  101.816000
  H    -37.214900   59.226300  109.935000
  H    -32.264500   63.320700  104.701000

 Total Charge           Charge          ....    0
 Multiplicity           Mult            ....    1
 Number of Electrons    NEL             ....  134
 Basis Dimension        Dim             ....  322

ORBITAL ENERGIES
----------------

  NO   OCC          E(Eh)            E(eV)
   0   2.0000     -88.965890     -2420.8850
   1   2.0000     -88.962591     -2420.7952
   2   2.0000     -10.335994      -281.2567
   3   2.0000     -10.331533      -281.1353
   4   2.0000     -10.324300      -280.9385
   5   2.0000     -10.308724      -280.5146
   6   2.0000     -10.305347      -280.4228
   7   2.0000     -10.300128      -280.2807
   8   2.0000     -10.299865      -280.2736
   9   2.0000     -10.292224      -280.0656
  10   2.0000     -10.292001      -280.0596
  11   2.0000     -10.289756      -279.9985
  12   2.0000     -10.287669      -279.9417
  13   2.0000     -10.286045      -279.8975
  14   2.0000     -10.285475      -279.8820
  15   2.0000     -10.280028      -279.7338
  16   2.0000      -8.080365      -219.8779
  17   2.0000      -8.077682      -219.8049
  18   2.0000      -6.038983      -164.3291
  19   2.0000      -6.036152      -164.2520
  20   2.0000      -6.034793      -164.2151
  21   2.0000      -6.032007      -164.1393
  22   2.0000      -6.031107      -164.1148
  23   2.0000      -6.028561      -164.0455
  24   2.0000      -1.007602       -27.4182
  25   2.0000      -0.986788       -26.8519
  26   2.0000      -0.910086       -24.7647
  27   2.0000      -0.904868       -24.6227
  28   2.0000      -0.875856       -23.8332
  29   2.0000      -0.847389       -23.0586
  30   2.0000      -0.842286       -22.9198
  31   2.0000      -0.818958       -22.2850
  32   2.0000      -0.778306       -21.1788
  33   2.0000      -0.765807       -20.8387
  34   2.0000      -0.706990       -19.2382
  35   2.0000      -0.704285       -19.1646
  36   2.0000      -0.697464       -18.9790
  37   2.0000      -0.663054       -18.0426
  38   2.0000      -0.646610       -17.5952
  39   2.0000      -0.616849       -16.7853
  40   2.0000      -0.593546       -16.1512
  41   2.0000      -0.571549       -15.5526
  42   2.0000      -0.566394       -15.4124
  43   2.0000      -0.552230       -15.0269
  44   2.0000      -0.542329       -14.7575
  45   2.0000      -0.519340       -14.1320
  46   2.0000      -0.516772       -14.0621
  47   2.0000      -0.510035       -13.8787
  48   2.0000      -0.507031       -13.7970
  49   2.0000      -0.505503       -13.7554
  50   2.0000      -0.490088       -13.3360
  51   2.0000      -0.477787       -13.0012
  52   2.0000      -0.467822       -12.7301
  53   2.0000      -0.463846       -12.6219
  54   2.0000      -0.455189       -12.3863
  55   2.0000      -0.448819       -12.2130
  56   2.0000      -0.438585       -11.9345
  57   2.0000      -0.437665       -11.9095
  58   2.0000      -0.436305       -11.8725
  59   2.0000      -0.426156       -11.5963
  60   2.0000      -0.422229       -11.4894
  61   2.0000      -0.412696       -11.2300
  62   2.0000      -0.409599       -11.1457
  63   2.0000      -0.354686        -9.6515
  64   2.0000      -0.330645        -8.9973
  65   2.0000      -0.327464        -8.9108
  66   2.0000      -0.292918        -7.9707
  67   0.0000       0.026928         0.7328
  68   0.0000       0.066445         1.8081
  69   0.0000       0.113328         3.0838
  70   0.0000       0.120524         3.2796
  71   0.0000       0.134637         3.6637

MULLIKEN ATOMIC CHARGES
-----------------------
   0 S :    0.101602
   1 C :   -0.082428
   2 C :   -0.115726
   3 C :    0.039630
   4 C :   -0.179418
   5 H :    0.024757
   6 C :    0.071072
   7 H :    0.013135
   8 H :    0.032098
   9 C :   -0.028057
  10 H :    0.031787
  11 H :    0.012049
  12 C :   -0.095392
  13 H :    0.036164
  14 H :    0.034886
  15 H :    0.046879
  16 S :    0.104302
  17 C :   -0.110813
  18 C :   -0.013207
  19 C :   -0.046080
  20 C :   -0.143645
  21 H :    0.015562
  22 C :    0.076193
  23 H :   -0.002626
  24 H :    0.022161
  25 C :   -0.061627
  26 H :    0.029752
  27 H :    0.042391
  28 C :   -0.086206
  29 H :    0.032918
  30 H :    0.036339
  31 H :    0.045588
  32 H :    0.033699
  33 H :    0.082259
Sum of atomic charges:   -0.0000000

LOEWDIN ATOMIC CHARGES
----------------------
   0 S :    0.403497
   1 C :   -0.194655
   2 C :   -0.069208
   3 C :   -0.062114
   4 C :   -0.184374
   5 H :    0.033613
   6 C :   -0.029132
   7 H :    0.024946
   8 H :    0.032888
   9 C :   -0.033692
  10 H :    0.031863
  11 H :    0.010195
  12 C :   -0.072985
  13 H :    0.027446
  14 H :    0.028225
  15 H :    0.025159
  16 S :    0.405368
  17 C :   -0.185099
  18 C :   -0.071402
  19 C :   -0.053413
  20 C :   -0.207233
  21 H :    0.029933
  22 C :   -0.031441
  23 H :    0.021297
  24 H :    0.028561
  25 C :   -0.033561
  26 H :    0.021930
  27 H :    0.028269
  28 C :   -0.073649
  29 H :    0.023704
  30 H :    0.023116
  31 H :    0.033804
  32 H :    0.023290
  33 H :    0.044853

  Mayer bond orders larger than 0.100000
B(  0-S ,  1-C ) :   1.1530 B(  0-S ,  4-C ) :   1.1405 B(  1-C ,  2-C ) :   1.6017
B(  1-C , 32-H ) :   0.9757 B(  2-C ,  3-C ) :   1.2567 B(  2-C ,  6-C ) :   1.0056
B(  3-C ,  4-C ) :   1.5719 B(  3-C ,  5-H ) :   0.9793 B(  4-C , 20-C ) :   1.0548
B(  6-C ,  7-H ) :   0.9431 B(  6-C ,  8-H ) :   0.9496 B(  6-C ,  9-C ) :   1.0590
B(  9-C , 10-H ) :   0.9529 B(  9-C , 11-H ) :   0.9613 B(  9-C , 12-C ) :   1.0804
B( 12-C , 13-H ) :   0.9722 B( 12-C , 14-H ) :   0.9737 B( 12-C , 15-H ) :   0.9718
B( 16-S , 17-C ) :   1.1518 B( 16-S , 20-C ) :   1.1443 B( 17-C , 18-C ) :   1.5889
B( 17-C , 20-C ) :   0.1021 B( 17-C , 33-H ) :   0.9595 B( 18-C , 19-C ) :   1.2618
B( 18-C , 21-H ) :   0.9924 B( 19-C , 20-C ) :   1.5749 B( 19-C , 22-C ) :   1.0361
B( 22-C , 23-H ) :   0.9294 B( 22-C , 24-H ) :   0.9401 B( 22-C , 25-C ) :   1.0597
B( 25-C , 26-H ) :   0.9585 B( 25-C , 27-H ) :   0.9558 B( 25-C , 28-C ) :   1.0751
B( 28-C , 29-H ) :   0.9766 B( 28-C , 30-H ) :   0.9750 B( 28-C , 31-H ) :   0.9744

Dispersion correction           -0.014023386
FINAL SINGLE POINT ENERGY     -1339.880536749148

DIPOLE MOMENT
-------------
                                X             Y             Z
Electronic contribution:     12.10778      14.88134      14.36506
Nuclear contribution   :    -12.37715     -15.26662     -14.76379
                        -----------------------------------------
Total Dipole Moment    :     -0.26938      -0.38529      -0.39872
                        -----------------------------------------
Magnitude (a.u.)       :      0.61643
Magnitude (Debye)      :      1.56685

Rotational constants in cm-1:     0.017497     0.008368     0.007128
Rotational constants in MHz :   524.541348   250.880675   213.699689

                             ****ORCA TERMINATED NORMALLY****
TOTAL RUN TIME: 0 days 0 hours 0 minutes 29 seconds 674 msec
