                         Program Version 4.2.1 -  RELEASE  -
|  1> ! wB97X-D3 SP def2-SVP
|  2> %pal
|  3> nprocs 16
|  4> end
|  5>
|  6> * xyz 0 1
|  7> S 	 -90.4407 	 43.0647 	 112.999
|  8> C 	 -89.4199 	 44.4997 	 113.125
|  9> C 	 -90.0559 	 45.4597 	 113.924
| 10> C 	 -91.3804 	 45.0594 	 114.25
| 11> C 	 -91.7612 	 43.8392 	 113.764
| 12> H 	 -92.1796 	 45.6467 	 114.799
| 13> C 	 -89.3192 	 46.6527 	 114.424
| 14> H 	 -89.9788 	 47.2393 	 114.995
| 15> H 	 -89.0659 	 47.3255 	 113.642
| 16> C 	 -88.137 	 46.3871 	 115.365
| 17> H 	 -87.3414 	 46.025 	 114.754
| 18> H 	 -87.7017 	 47.294 	 115.766
| 19> C 	 -88.4975 	 45.3962 	 116.531
| 20> H 	 -87.8646 	 45.5818 	 117.443
| 21> H 	 -89.4923 	 45.658 	 116.95
| 22> H 	 -88.544 	 44.3082 	 116.216
| 23> S 	 -93.8742 	 42.7218 	 112.484
| 24> C 	 -95.371 	 42.4235 	 113.441
| 25> C 	 -95.1806 	 42.5382 	 114.789
| 26> C 	 -93.9112 	 43.1604 	 115.11
| 27> C 	 -93.0494 	 43.2029 	 113.984
| 28> H 	 -95.9248 	 42.2043 	 115.401
| 29> C 	 -93.4986 	 43.4614 	 116.547
| 30> H 	 -94.1377 	 44.2429 	 116.862
| 31> H 	 -92.4864 	 44.0116 	 116.491
| 32> C 	 -93.5036 	 42.2757 	 117.595
| 33> H 	 -92.9693 	 41.4905 	 117.158
| 34> H 	 -94.5236 	 42.112 	 117.85
| 35> C 	 -92.8416 	 42.7007 	 118.908
| 36> H 	 -91.826 	 43.1025 	 118.71
| 37> H 	 -92.635 	 41.8585 	 119.595
| 38> H 	 -93.3908 	 43.4303 	 119.552
| 39> H 	 -88.4501 	 44.5965 	 112.579
| 40> H 	 -96.2848 	 42.2118 	 112.959
| 41> *
| 42>
| 43>                          ****END OF INPUT****

CARTESIAN COORDINATES (ANGSTROEM)
---------------------------------
  S    -90.440700   43.064700  112.999000
  C    -89.419900   44.499700  113.125000
  C    -90.055900   45.459700  113.924000
  C    -91.380400   45.059400  114.250000
  C    -91.761200   43.839200  113.764000
  H    -92.179600   45.646700  114.799000
  C    -89.319200   46.652700  114.424000
  H    -89.978800   47.239300  114.995000
  H    -89.065900   47.325500  113.642000
  C    -88.137000   46.387100  115.365000
  H    -87.341400   46.025000  114.754000
  H    -87.701700   47.294000  115.766000
  C    -88.497500   45.396200  116.531000
  H    -87.864600   45.581800  117.443000
  H    -89.492300   45.658000  116.950000
  H    -88.544000   44.308200  116.216000
  S    -93.874200   42.721800  112.484000
  C    -95.371000   42.423500  113.441000
  C    -95.180600   42.538200  114.789000
  C    -93.911200   43.160400  115.110000
  C    -93.049400   43.202900  113.984000
  H    -95.924800   42.204300  115.401000
  C    -93.498600   43.461400  116.547000
  H    -94.137700   44.242900  116.862000
  H    -92.486400   44.011600  116.491000
  C    -93.503600   42.275700  117.595000
  H    -92.969300   41.490500  117.158000
  H    -94.523600   42.112000  117.850000
  C    -92.841600   42.700700  118.908000
  H    -91.826000   43.102500  118.710000
  H    -92.635000   41.858500  119.595000
  H    -93.390800   43.430300  119.552000
  H    -88.450100   44.596500  112.579000
  H    -96.284800   42.211800  112.959000

 Total Charge           Charge          ....    0
 Multiplicity           Mult            ....    1
 Number of Electrons    NEL             ....  134
 Basis Dimension        Dim             ....  322

ORBITAL ENERGIES
----------------

  NO   OCC          E(Eh)            E(eV)
   0   2.0000     -88.964470     -2420.8463
   1   2.0000     -88.963725     -2420.8260
   2   2.0000     -10.330999      -281.1208
   3   2.0000     -10.322920      -280.9009
   4   2.0000     -10.318448      -280.7793
   5   2.0000     -10.317318      -280.7485
   6   2.0000     -10.312802      -280.6256
   7   2.0000     -10.302339      -280.3409
   8   2.0000     -10.295089      -280.1436
   9   2.0000     -10.293895      -280.1111
  10   2.0000     -10.292364      -280.0695
  11   2.0000     -10.287760      -279.9442
  12   2.0000     -10.286572      -279.9118
  13   2.0000     -10.285387      -279.8796
  14   2.0000     -10.284132      -279.8454
  15   2.0000     -10.281554      -279.7753
  16   2.0000      -8.079640      -219.8582
  17   2.0000      -8.077644      -219.8039
  18   2.0000      -6.038038      -164.3034
  19   2.0000      -6.036213      -164.2537
  20   2.0000      -6.034058      -164.1951
  21   2.0000      -6.032381      -164.1494
  22   2.0000      -6.030519      -164.0988
  23   2.0000      -6.028275      -164.0377
  24   2.0000      -1.006083       -27.3769
  25   2.0000      -0.978414       -26.6240
  26   2.0000      -0.913404       -24.8550
  27   2.0000      -0.903342       -24.5812
  28   2.0000      -0.867334       -23.6013
  29   2.0000      -0.849466       -23.1152
  30   2.0000      -0.840690       -22.8763
  31   2.0000      -0.813639       -22.1403
  32   2.0000      -0.781900       -21.2766
  33   2.0000      -0.766813       -20.8660
  34   2.0000      -0.708294       -19.2737
  35   2.0000      -0.705676       -19.2024
  36   2.0000      -0.695252       -18.9188
  37   2.0000      -0.664073       -18.0703
  38   2.0000      -0.639200       -17.3935
  39   2.0000      -0.610213       -16.6047
  40   2.0000      -0.592456       -16.1216
  41   2.0000      -0.577018       -15.7015
  42   2.0000      -0.573112       -15.5952
  43   2.0000      -0.550313       -14.9748
  44   2.0000      -0.545124       -14.8336
  45   2.0000      -0.520083       -14.1522
  46   2.0000      -0.516904       -14.0657
  47   2.0000      -0.508060       -13.8250
  48   2.0000      -0.499560       -13.5937
  49   2.0000      -0.490925       -13.3587
  50   2.0000      -0.488023       -13.2798
  51   2.0000      -0.474439       -12.9102
  52   2.0000      -0.465791       -12.6748
  53   2.0000      -0.460780       -12.5385
  54   2.0000      -0.454014       -12.3544
  55   2.0000      -0.452015       -12.2999
  56   2.0000      -0.440001       -11.9730
  57   2.0000      -0.435756       -11.8575
  58   2.0000      -0.432740       -11.7754
  59   2.0000      -0.428416       -11.6578
  60   2.0000      -0.425604       -11.5813
  61   2.0000      -0.418280       -11.3820
  62   2.0000      -0.409506       -11.1432
  63   2.0000      -0.346497        -9.4287
  64   2.0000      -0.330589        -8.9958
  65   2.0000      -0.326542        -8.8857
  66   2.0000      -0.289944        -7.8898
  67   0.0000       0.029088         0.7915
  68   0.0000       0.066001         1.7960
  69   0.0000       0.106760         2.9051
  70   0.0000       0.117066         3.1855
  71   0.0000       0.127205         3.4614

MULLIKEN ATOMIC CHARGES
-----------------------
   0 S :    0.110064
   1 C :   -0.157136
   2 C :   -0.093516
   3 C :    0.000626
   4 C :   -0.142786
   5 H :    0.036942
   6 C :    0.109499
   7 H :   -0.006444
   8 H :    0.025301
   9 C :   -0.046682
  10 H :    0.015996
  11 H :    0.022810
  12 C :   -0.091414
  13 H :    0.040926
  14 H :    0.022078
  15 H :    0.065550
  16 S :    0.086968
  17 C :   -0.084215
  18 C :    0.015968
  19 C :   -0.046337
  20 C :   -0.140795
  21 H :   -0.011372
  22 C :    0.022137
  23 H :    0.017319
  24 H :    0.029083
  25 C :    0.005277
  26 H :    0.035699
  27 H :    0.029245
  28 C :   -0.097110
  29 H :    0.032756
  30 H :    0.036005
  31 H :    0.038233
  32 H :    0.073220
  33 H :    0.046107
Sum of atomic charges:   -0.0000000

LOEWDIN ATOMIC CHARGES
----------------------
   0 S :    0.415147
   1 C :   -0.201235
   2 C :   -0.060908
   3 C :   -0.077851
   4 C :   -0.214396
   5 H :    0.042289
   6 C :   -0.032243
   7 H :    0.021263
   8 H :    0.031105
   9 C :   -0.034840
  10 H :    0.015834
  11 H :    0.024281
  12 C :   -0.078536
  13 H :    0.031462
  14 H :    0.023107
  15 H :    0.037830
  16 S :    0.371334
  17 C :   -0.149621
  18 C :   -0.056303
  19 C :   -0.047404
  20 C :   -0.189253
  21 H :    0.018985
  22 C :   -0.039559
  23 H :    0.023419
  24 H :    0.036639
  25 C :   -0.023050
  26 H :    0.023658
  27 H :    0.023563
  28 C :   -0.074827
  29 H :    0.026149
  30 H :    0.028565
  31 H :    0.027956
  32 H :    0.038505
  33 H :    0.018935

  Mayer bond orders larger than 0.100000
B(  0-S ,  1-C ) :   1.1436 B(  0-S ,  4-C ) :   1.1658 B(  1-C ,  2-C ) :   1.5656
B(  1-C ,  4-C ) :   0.1015 B(  1-C , 32-H ) :   0.9704 B(  2-C ,  3-C ) :   1.2633
B(  2-C ,  6-C ) :   1.0311 B(  3-C ,  4-C ) :   1.5690 B(  3-C ,  5-H ) :   0.9816
B(  4-C , 20-C ) :   1.0135 B(  6-C ,  7-H ) :   0.9321 B(  6-C ,  8-H ) :   0.9311
B(  6-C ,  9-C ) :   1.0768 B(  9-C , 10-H ) :   0.9560 B(  9-C , 11-H ) :   0.9576
B(  9-C , 12-C ) :   1.0610 B( 12-C , 13-H ) :   0.9758 B( 12-C , 14-H ) :   0.9773
B( 12-C , 15-H ) :   0.9716 B( 16-S , 17-C ) :   1.1407 B( 16-S , 20-C ) :   1.1279
B( 17-C , 18-C ) :   1.6383 B( 17-C , 33-H ) :   0.9722 B( 18-C , 19-C ) :   1.1899
B( 18-C , 21-H ) :   1.0060 B( 19-C , 20-C ) :   1.6088 B( 19-C , 22-C ) :   1.0501
B( 22-C , 23-H ) :   0.9242 B( 22-C , 24-H ) :   0.9383 B( 22-C , 25-C ) :   1.0548
B( 25-C , 26-H ) :   0.9592 B( 25-C , 27-H ) :   0.9493 B( 25-C , 28-C ) :   1.0889
B( 28-C , 29-H ) :   0.9746 B( 28-C , 30-H ) :   0.9739 B( 28-C , 31-H ) :   0.9763

Dispersion correction           -0.014685056
FINAL SINGLE POINT ENERGY     -1339.864292379404

DIPOLE MOMENT
-------------
                                X             Y             Z
Electronic contribution:     -8.87945      -9.16135     -26.74662
Nuclear contribution   :      8.76600       9.49824      27.35234
                        -----------------------------------------
Total Dipole Moment    :     -0.11344       0.33688       0.60573
                        -----------------------------------------
Magnitude (a.u.)       :      0.70233
Magnitude (Debye)      :      1.78517

Rotational constants in cm-1:     0.017286     0.009656     0.006881
Rotational constants in MHz :   518.234956   289.474505   206.282541

                             ****ORCA TERMINATED NORMALLY****
TOTAL RUN TIME: 0 days 0 hours 0 minutes 34 seconds 370 msec
