                         Program Version 4.2.1 -  RELEASE  -
|  1> ! wB97X-D3 SP def2-SVP
|  2> %pal
|  3> nprocs 16
|  4> end
|  5>
|  6> * xyz 0 1
|  7> S 	 -17.5295 	 39.3142 	 55.5101
|  8> C 	 -17.3906 	 39.1569 	 53.7605
|  9> C 	 -18.5812 	 39.5321 	 53.1491
| 10> C 	 -19.5718 	 39.8476 	 54.1393
| 11> C 	 -19.2514 	 39.6824 	 55.4071
| 12> H 	 -20.5514 	 40.162 	 53.9685
| 13> C 	 -18.8379 	 39.7356 	 51.7294
| 14> H 	 -19.9387 	 39.5415 	 51.6024
| 15> H 	 -18.2956 	 38.964 	 51.0812
| 16> C 	 -18.5269 	 41.192 	 51.2646
| 17> H 	 -18.9083 	 41.3242 	 50.2316
| 18> H 	 -19.0651 	 41.9487 	 51.9049
| 19> C 	 -17.0059 	 41.5591 	 51.2464
| 20> H 	 -16.6226 	 41.8462 	 52.2068
| 21> H 	 -16.4999 	 40.7995 	 50.6366
| 22> H 	 -16.8749 	 42.3969 	 50.6125
| 23> S 	 -19.1854 	 41.2619 	 57.6547
| 24> C 	 -20.5299 	 41.4588 	 58.6882
| 25> C 	 -21.5523 	 40.5988 	 58.3571
| 26> C 	 -21.2682 	 39.7434 	 57.2333
| 27> C 	 -20.0454 	 40.1061 	 56.5756
| 28> H 	 -22.4659 	 40.6801 	 58.9552
| 29> C 	 -22.262 	 38.8451 	 56.5638
| 30> H 	 -21.8467 	 37.8815 	 56.6558
| 31> H 	 -22.1858 	 39.0335 	 55.4316
| 32> C 	 -23.8146 	 38.8726 	 57.0648
| 33> H 	 -24.1534 	 39.8863 	 57.1946
| 34> H 	 -23.8701 	 38.3316 	 58.0231
| 35> C 	 -24.7967 	 38.144 	 56.0266
| 36> H 	 -24.5795 	 37.0385 	 55.9934
| 37> H 	 -24.7265 	 38.6773 	 55.0169
| 38> H 	 -25.8279 	 38.1675 	 56.3755
| 39> H 	 -16.4805 	 38.7679 	 53.2513
| 40> H 	 -20.6349 	 42.1715 	 59.4944
| 41> *
| 42>
| 43>                          ****END OF INPUT****

CARTESIAN COORDINATES (ANGSTROEM)
---------------------------------
  S    -17.529500   39.314200   55.510100
  C    -17.390600   39.156900   53.760500
  C    -18.581200   39.532100   53.149100
  C    -19.571800   39.847600   54.139300
  C    -19.251400   39.682400   55.407100
  H    -20.551400   40.162000   53.968500
  C    -18.837900   39.735600   51.729400
  H    -19.938700   39.541500   51.602400
  H    -18.295600   38.964000   51.081200
  C    -18.526900   41.192000   51.264600
  H    -18.908300   41.324200   50.231600
  H    -19.065100   41.948700   51.904900
  C    -17.005900   41.559100   51.246400
  H    -16.622600   41.846200   52.206800
  H    -16.499900   40.799500   50.636600
  H    -16.874900   42.396900   50.612500
  S    -19.185400   41.261900   57.654700
  C    -20.529900   41.458800   58.688200
  C    -21.552300   40.598800   58.357100
  C    -21.268200   39.743400   57.233300
  C    -20.045400   40.106100   56.575600
  H    -22.465900   40.680100   58.955200
  C    -22.262000   38.845100   56.563800
  H    -21.846700   37.881500   56.655800
  H    -22.185800   39.033500   55.431600
  C    -23.814600   38.872600   57.064800
  H    -24.153400   39.886300   57.194600
  H    -23.870100   38.331600   58.023100
  C    -24.796700   38.144000   56.026600
  H    -24.579500   37.038500   55.993400
  H    -24.726500   38.677300   55.016900
  H    -25.827900   38.167500   56.375500
  H    -16.480500   38.767900   53.251300
  H    -20.634900   42.171500   59.494400

 Total Charge           Charge          ....    0
 Multiplicity           Mult            ....    1
 Number of Electrons    NEL             ....  134
 Basis Dimension        Dim             ....  322

ORBITAL ENERGIES
----------------

  NO   OCC          E(Eh)            E(eV)
   0   2.0000     -88.962156     -2420.7833
   1   2.0000     -88.961129     -2420.7554
   2   2.0000     -10.333449      -281.1874
   3   2.0000     -10.325484      -280.9707
   4   2.0000     -10.319110      -280.7973
   5   2.0000     -10.313008      -280.6312
   6   2.0000     -10.312825      -280.6262
   7   2.0000     -10.301285      -280.3122
   8   2.0000     -10.299378      -280.2603
   9   2.0000     -10.299002      -280.2501
  10   2.0000     -10.297933      -280.2210
  11   2.0000     -10.296158      -280.1727
  12   2.0000     -10.294018      -280.1145
  13   2.0000     -10.293901      -280.1113
  14   2.0000     -10.282509      -279.8013
  15   2.0000     -10.274288      -279.5776
  16   2.0000      -8.076883      -219.7832
  17   2.0000      -8.075825      -219.7544
  18   2.0000      -6.035355      -164.2304
  19   2.0000      -6.034519      -164.2076
  20   2.0000      -6.031208      -164.1175
  21   2.0000      -6.030409      -164.0958
  22   2.0000      -6.027857      -164.0263
  23   2.0000      -6.026299      -163.9839
  24   2.0000      -1.006088       -27.3771
  25   2.0000      -0.982873       -26.7453
  26   2.0000      -0.910440       -24.7743
  27   2.0000      -0.895653       -24.3720
  28   2.0000      -0.866886       -23.5892
  29   2.0000      -0.847791       -23.0696
  30   2.0000      -0.841683       -22.9034
  31   2.0000      -0.818055       -22.2604
  32   2.0000      -0.779769       -21.2186
  33   2.0000      -0.766693       -20.8628
  34   2.0000      -0.707945       -19.2642
  35   2.0000      -0.699350       -19.0303
  36   2.0000      -0.694555       -18.8998
  37   2.0000      -0.648935       -17.6584
  38   2.0000      -0.640708       -17.4346
  39   2.0000      -0.621924       -16.9234
  40   2.0000      -0.591115       -16.0851
  41   2.0000      -0.569373       -15.4934
  42   2.0000      -0.561429       -15.2773
  43   2.0000      -0.543809       -14.7978
  44   2.0000      -0.543396       -14.7866
  45   2.0000      -0.521045       -14.1784
  46   2.0000      -0.514109       -13.9896
  47   2.0000      -0.508903       -13.8480
  48   2.0000      -0.502735       -13.6801
  49   2.0000      -0.499768       -13.5994
  50   2.0000      -0.489323       -13.3152
  51   2.0000      -0.477388       -12.9904
  52   2.0000      -0.465810       -12.6753
  53   2.0000      -0.459980       -12.5167
  54   2.0000      -0.458720       -12.4824
  55   2.0000      -0.448424       -12.2022
  56   2.0000      -0.440630       -11.9902
  57   2.0000      -0.438006       -11.9188
  58   2.0000      -0.433613       -11.7992
  59   2.0000      -0.425488       -11.5781
  60   2.0000      -0.422690       -11.5020
  61   2.0000      -0.415931       -11.3181
  62   2.0000      -0.409002       -11.1295
  63   2.0000      -0.349383        -9.5072
  64   2.0000      -0.327314        -8.9067
  65   2.0000      -0.323308        -8.7977
  66   2.0000      -0.291461        -7.9311
  67   0.0000       0.033375         0.9082
  68   0.0000       0.060325         1.6415
  69   0.0000       0.113938         3.1004
  70   0.0000       0.121149         3.2966
  71   0.0000       0.137827         3.7505

MULLIKEN ATOMIC CHARGES
-----------------------
   0 S :    0.089273
   1 C :   -0.140232
   2 C :   -0.052145
   3 C :    0.030934
   4 C :   -0.114179
   5 H :   -0.013036
   6 C :    0.031708
   7 H :    0.032239
   8 H :    0.040296
   9 C :   -0.101693
  10 H :    0.034749
  11 H :    0.039402
  12 C :   -0.022547
  13 H :    0.051013
  14 H :    0.022236
  15 H :    0.014971
  16 S :    0.094490
  17 C :   -0.068102
  18 C :   -0.076402
  19 C :    0.001403
  20 C :   -0.185658
  21 H :    0.027704
  22 C :    0.029590
  23 H :    0.029190
  24 H :    0.038348
  25 C :   -0.084120
  26 H :    0.040638
  27 H :    0.043655
  28 C :   -0.092166
  29 H :    0.046065
  30 H :    0.054443
  31 H :    0.037794
  32 H :    0.067874
  33 H :    0.052264
Sum of atomic charges:    0.0000000

LOEWDIN ATOMIC CHARGES
----------------------
   0 S :    0.382130
   1 C :   -0.190626
   2 C :   -0.068723
   3 C :   -0.057299
   4 C :   -0.191680
   5 H :    0.021363
   6 C :   -0.044619
   7 H :    0.036683
   8 H :    0.037679
   9 C :   -0.039192
  10 H :    0.025097
  11 H :    0.029273
  12 C :   -0.066147
  13 H :    0.026755
  14 H :    0.027152
  15 H :    0.022909
  16 S :    0.405014
  17 C :   -0.196399
  18 C :   -0.086052
  19 C :   -0.051174
  20 C :   -0.183827
  21 H :    0.034869
  22 C :   -0.040123
  23 H :    0.030147
  24 H :    0.040095
  25 C :   -0.035006
  26 H :    0.020046
  27 H :    0.027195
  28 C :   -0.075895
  29 H :    0.031364
  30 H :    0.034108
  31 H :    0.024505
  32 H :    0.038674
  33 H :    0.031704

  Mayer bond orders larger than 0.100000
B(  0-S ,  1-C ) :   1.1316 B(  0-S ,  4-C ) :   1.1209 B(  1-C ,  2-C ) :   1.6062
B(  1-C , 32-H ) :   0.9659 B(  2-C ,  3-C ) :   1.2115 B(  2-C ,  6-C ) :   1.0425
B(  3-C ,  4-C ) :   1.6306 B(  3-C ,  5-H ) :   0.9974 B(  4-C , 20-C ) :   1.0311
B(  6-C ,  7-H ) :   0.9345 B(  6-C ,  8-H ) :   0.9406 B(  6-C ,  9-C ) :   1.0654
B(  9-C , 10-H ) :   0.9585 B(  9-C , 11-H ) :   0.9558 B(  9-C , 12-C ) :   1.0777
B( 12-C , 13-H ) :   0.9753 B( 12-C , 14-H ) :   0.9720 B( 12-C , 15-H ) :   0.9699
B( 16-S , 17-C ) :   1.1721 B( 16-S , 20-C ) :   1.1404 B( 17-C , 18-C ) :   1.6032
B( 17-C , 20-C ) :   0.1064 B( 17-C , 33-H ) :   0.9626 B( 18-C , 19-C ) :   1.2447
B( 18-C , 21-H ) :   0.9868 B( 19-C , 20-C ) :   1.5629 B( 19-C , 22-C ) :   1.0314
B( 22-C , 23-H ) :   0.9181 B( 22-C , 24-H ) :   0.9508 B( 22-C , 25-C ) :   1.0536
B( 25-C , 26-H ) :   0.9608 B( 25-C , 27-H ) :   0.9556 B( 25-C , 28-C ) :   1.0774
B( 28-C , 29-H ) :   0.9771 B( 28-C , 30-H ) :   0.9758 B( 28-C , 31-H ) :   0.9758

Dispersion correction           -0.013757448
FINAL SINGLE POINT ENERGY     -1339.862216849880

DIPOLE MOMENT
-------------
                                X             Y             Z
Electronic contribution:     15.60608       2.15993      17.35561
Nuclear contribution   :    -16.17554      -2.09932     -17.77511
                        -----------------------------------------
Total Dipole Moment    :     -0.56946       0.06061      -0.41951
                        -----------------------------------------
Magnitude (a.u.)       :      0.70989
Magnitude (Debye)      :      1.80439

Rotational constants in cm-1:     0.018924     0.007801     0.006307
Rotational constants in MHz :   567.339363   233.877537   189.082713

                             ****ORCA TERMINATED NORMALLY****
TOTAL RUN TIME: 0 days 0 hours 0 minutes 33 seconds 487 msec
