                         Program Version 4.2.1 -  RELEASE  -
|  1> ! wB97X-D3 SP def2-SVP
|  2> %pal
|  3> nprocs 16
|  4> end
|  5>
|  6> * xyz 0 1
|  7> S 	 -2.17302 	 75.4403 	 52.5704
|  8> C 	 -2.48619 	 77.0491 	 53.168
|  9> C 	 -3.13684 	 77.8317 	 52.2602
| 10> C 	 -3.32092 	 77.1442 	 51.0374
| 11> C 	 -2.92452 	 75.8247 	 51.041
| 12> H 	 -3.83381 	 77.5311 	 50.1515
| 13> C 	 -3.62285 	 79.2098 	 52.4874
| 14> H 	 -3.06004 	 79.5619 	 53.295
| 15> H 	 -4.68507 	 79.0987 	 52.8519
| 16> C 	 -3.57855 	 80.1348 	 51.2998
| 17> H 	 -2.53529 	 80.1924 	 50.997
| 18> H 	 -4.10471 	 79.8501 	 50.3841
| 19> C 	 -3.96034 	 81.5616 	 51.6164
| 20> H 	 -4.90253 	 81.5729 	 52.0939
| 21> H 	 -3.17767 	 81.9667 	 52.2616
| 22> H 	 -4.08809 	 82.2128 	 50.7984
| 23> S 	 -1.21333 	 74.7973 	 49.1498
| 24> C 	 -1.91095 	 73.8628 	 47.8353
| 25> C 	 -3.30288 	 73.6958 	 48.0078
| 26> C 	 -3.86875 	 74.4041 	 49.0773
| 27> C 	 -2.8822 	 75.0091 	 49.8317
| 28> H 	 -3.69957 	 73.0045 	 47.3167
| 29> C 	 -5.33577 	 74.2592 	 49.4304
| 30> H 	 -5.42144 	 73.906 	 50.4442
| 31> H 	 -5.65892 	 73.3485 	 48.9628
| 32> C 	 -6.27119 	 75.4581 	 49.1494
| 33> H 	 -6.35781 	 75.6926 	 48.0933
| 34> H 	 -5.87474 	 76.3782 	 49.6094
| 35> C 	 -7.64649 	 75.2267 	 49.7196
| 36> H 	 -7.68978 	 74.8219 	 50.7355
| 37> H 	 -8.1949 	 74.4648 	 49.0995
| 38> H 	 -8.2582 	 76.1579 	 49.6356
| 39> H 	 -2.40399 	 77.2879 	 54.1992
| 40> H 	 -1.39404 	 73.2094 	 47.107
| 41> *
| 42>
| 43>                          ****END OF INPUT****

CARTESIAN COORDINATES (ANGSTROEM)
---------------------------------
  S     -2.173020   75.440300   52.570400
  C     -2.486190   77.049100   53.168000
  C     -3.136840   77.831700   52.260200
  C     -3.320920   77.144200   51.037400
  C     -2.924520   75.824700   51.041000
  H     -3.833810   77.531100   50.151500
  C     -3.622850   79.209800   52.487400
  H     -3.060040   79.561900   53.295000
  H     -4.685070   79.098700   52.851900
  C     -3.578550   80.134800   51.299800
  H     -2.535290   80.192400   50.997000
  H     -4.104710   79.850100   50.384100
  C     -3.960340   81.561600   51.616400
  H     -4.902530   81.572900   52.093900
  H     -3.177670   81.966700   52.261600
  H     -4.088090   82.212800   50.798400
  S     -1.213330   74.797300   49.149800
  C     -1.910950   73.862800   47.835300
  C     -3.302880   73.695800   48.007800
  C     -3.868750   74.404100   49.077300
  C     -2.882200   75.009100   49.831700
  H     -3.699570   73.004500   47.316700
  C     -5.335770   74.259200   49.430400
  H     -5.421440   73.906000   50.444200
  H     -5.658920   73.348500   48.962800
  C     -6.271190   75.458100   49.149400
  H     -6.357810   75.692600   48.093300
  H     -5.874740   76.378200   49.609400
  C     -7.646490   75.226700   49.719600
  H     -7.689780   74.821900   50.735500
  H     -8.194900   74.464800   49.099500
  H     -8.258200   76.157900   49.635600
  H     -2.403990   77.287900   54.199200
  H     -1.394040   73.209400   47.107000

 Total Charge           Charge          ....    0
 Multiplicity           Mult            ....    1
 Number of Electrons    NEL             ....  134
 Basis Dimension        Dim             ....  322

ORBITAL ENERGIES
----------------

  NO   OCC          E(Eh)            E(eV)
   0   2.0000     -88.965798     -2420.8824
   1   2.0000     -88.965763     -2420.8815
   2   2.0000     -10.328284      -281.0469
   3   2.0000     -10.324351      -280.9399
   4   2.0000     -10.316755      -280.7332
   5   2.0000     -10.308099      -280.4976
   6   2.0000     -10.302768      -280.3526
   7   2.0000     -10.294593      -280.1301
   8   2.0000     -10.289799      -279.9997
   9   2.0000     -10.289281      -279.9856
  10   2.0000     -10.288851      -279.9739
  11   2.0000     -10.288061      -279.9524
  12   2.0000     -10.287429      -279.9352
  13   2.0000     -10.283423      -279.8262
  14   2.0000     -10.281714      -279.7797
  15   2.0000     -10.269190      -279.4389
  16   2.0000      -8.080580      -219.8838
  17   2.0000      -8.079252      -219.8476
  18   2.0000      -6.039098      -164.3322
  19   2.0000      -6.037745      -164.2954
  20   2.0000      -6.035018      -164.2212
  21   2.0000      -6.033992      -164.1933
  22   2.0000      -6.031406      -164.1229
  23   2.0000      -6.030049      -164.0860
  24   2.0000      -1.005549       -27.3624
  25   2.0000      -0.980963       -26.6934
  26   2.0000      -0.921408       -25.0728
  27   2.0000      -0.907784       -24.7020
  28   2.0000      -0.870623       -23.6909
  29   2.0000      -0.854239       -23.2450
  30   2.0000      -0.850889       -23.1539
  31   2.0000      -0.811926       -22.0936
  32   2.0000      -0.784548       -21.3486
  33   2.0000      -0.772802       -21.0290
  34   2.0000      -0.712977       -19.4011
  35   2.0000      -0.702327       -19.1113
  36   2.0000      -0.690859       -18.7992
  37   2.0000      -0.656929       -17.8759
  38   2.0000      -0.643349       -17.5064
  39   2.0000      -0.621100       -16.9010
  40   2.0000      -0.592505       -16.1229
  41   2.0000      -0.575996       -15.6736
  42   2.0000      -0.568564       -15.4714
  43   2.0000      -0.558072       -15.1859
  44   2.0000      -0.531543       -14.4640
  45   2.0000      -0.525531       -14.3004
  46   2.0000      -0.519181       -14.1276
  47   2.0000      -0.508168       -13.8280
  48   2.0000      -0.506764       -13.7897
  49   2.0000      -0.505093       -13.7443
  50   2.0000      -0.492083       -13.3903
  51   2.0000      -0.474925       -12.9234
  52   2.0000      -0.469019       -12.7627
  53   2.0000      -0.465550       -12.6683
  54   2.0000      -0.454657       -12.3718
  55   2.0000      -0.451793       -12.2939
  56   2.0000      -0.443159       -12.0590
  57   2.0000      -0.435851       -11.8601
  58   2.0000      -0.434558       -11.8249
  59   2.0000      -0.427133       -11.6229
  60   2.0000      -0.423183       -11.5154
  61   2.0000      -0.419308       -11.4100
  62   2.0000      -0.411633       -11.2011
  63   2.0000      -0.338160        -9.2018
  64   2.0000      -0.332696        -9.0531
  65   2.0000      -0.324364        -8.8264
  66   2.0000      -0.297921        -8.1068
  67   0.0000       0.035453         0.9647
  68   0.0000       0.057676         1.5694
  69   0.0000       0.114823         3.1245
  70   0.0000       0.122030         3.3206
  71   0.0000       0.133345         3.6285

MULLIKEN ATOMIC CHARGES
-----------------------
   0 S :    0.112956
   1 C :   -0.124220
   2 C :   -0.087532
   3 C :    0.021869
   4 C :   -0.161901
   5 H :    0.023462
   6 C :    0.126726
   7 H :   -0.000423
   8 H :    0.044231
   9 C :   -0.110773
  10 H :    0.026580
  11 H :    0.034679
  12 C :   -0.001340
  13 H :    0.012907
  14 H :    0.028109
  15 H :    0.020887
  16 S :    0.110354
  17 C :   -0.108697
  18 C :   -0.057058
  19 C :    0.024123
  20 C :   -0.191475
  21 H :    0.002972
  22 C :    0.088160
  23 H :    0.020277
  24 H :    0.000421
  25 C :   -0.043607
  26 H :    0.029787
  27 H :    0.025669
  28 C :   -0.073285
  29 H :    0.036783
  30 H :    0.027722
  31 H :    0.040702
  32 H :    0.036488
  33 H :    0.064448
Sum of atomic charges:   -0.0000000

LOEWDIN ATOMIC CHARGES
----------------------
   0 S :    0.408923
   1 C :   -0.194473
   2 C :   -0.065306
   3 C :   -0.057434
   4 C :   -0.206901
   5 H :    0.031346
   6 C :   -0.027650
   7 H :    0.024641
   8 H :    0.041938
   9 C :   -0.044834
  10 H :    0.027224
  11 H :    0.024473
  12 C :   -0.056125
  13 H :    0.017972
  14 H :    0.027284
  15 H :    0.021375
  16 S :    0.383625
  17 C :   -0.196778
  18 C :   -0.069228
  19 C :   -0.055942
  20 C :   -0.171009
  21 H :    0.024561
  22 C :   -0.027889
  23 H :    0.033306
  24 H :    0.028564
  25 C :   -0.039104
  26 H :    0.026412
  27 H :    0.024167
  28 C :   -0.072359
  29 H :    0.024997
  30 H :    0.026569
  31 H :    0.031040
  32 H :    0.021154
  33 H :    0.035463

  Mayer bond orders larger than 0.100000
B(  0-S ,  1-C ) :   1.1391 B(  0-S ,  4-C ) :   1.1544 B(  1-C ,  2-C ) :   1.6133
B(  1-C , 32-H ) :   0.9678 B(  2-C ,  3-C ) :   1.2481 B(  2-C ,  6-C ) :   1.0230
B(  3-C ,  4-C ) :   1.5751 B(  3-C ,  5-H ) :   0.9834 B(  4-C , 20-C ) :   1.0223
B(  6-C ,  7-H ) :   0.9319 B(  6-C ,  8-H ) :   0.9167 B(  6-C ,  9-C ) :   1.0737
B(  9-C , 10-H ) :   0.9577 B(  9-C , 11-H ) :   0.9483 B(  9-C , 12-C ) :   1.0949
B( 12-C , 13-H ) :   0.9713 B( 12-C , 14-H ) :   0.9750 B( 12-C , 15-H ) :   0.9720
B( 16-S , 17-C ) :   1.1474 B( 16-S , 20-C ) :   1.1402 B( 17-C , 18-C ) :   1.6339
B( 17-C , 20-C ) :   0.1102 B( 17-C , 33-H ) :   0.9581 B( 18-C , 19-C ) :   1.2216
B( 18-C , 21-H ) :   0.9935 B( 19-C , 20-C ) :   1.6110 B( 19-C , 22-C ) :   1.0286
B( 22-C , 23-H ) :   0.9336 B( 22-C , 24-H ) :   0.9316 B( 22-C , 25-C ) :   1.0536
B( 25-C , 26-H ) :   0.9506 B( 25-C , 27-H ) :   0.9540 B( 25-C , 28-C ) :   1.0893
B( 28-C , 29-H ) :   0.9744 B( 28-C , 30-H ) :   0.9733 B( 28-C , 31-H ) :   0.9725

Dispersion correction           -0.013914857
FINAL SINGLE POINT ENERGY     -1339.876882773034

DIPOLE MOMENT
-------------
                                X             Y             Z
Electronic contribution:     22.51449     -17.57197       1.53311
Nuclear contribution   :    -23.10002      17.83727      -1.57305
                        -----------------------------------------
Total Dipole Moment    :     -0.58553       0.26530      -0.03994
                        -----------------------------------------
Magnitude (a.u.)       :      0.64407
Magnitude (Debye)      :      1.63711

Rotational constants in cm-1:     0.016052     0.008948     0.007230
Rotational constants in MHz :   481.226998   268.249358   216.757734

                             ****ORCA TERMINATED NORMALLY****
TOTAL RUN TIME: 0 days 0 hours 0 minutes 31 seconds 791 msec
