                         Program Version 4.2.1 -  RELEASE  -
|  1> ! wB97X-D3 SP def2-SVP
|  2> %pal
|  3> nprocs 16
|  4> end
|  5>
|  6> * xyz 0 1
|  7> S 	 0.230813 	 -20.5386 	 87.4806
|  8> C 	 -1.4198 	 -21.0927 	 87.5504
|  9> C 	 -2.22459 	 -20.1222 	 86.928
| 10> C 	 -1.60274 	 -18.8626 	 86.7492
| 11> C 	 -0.206826 	 -18.9537 	 86.9201
| 12> H 	 -2.19608 	 -17.9797 	 86.4241
| 13> C 	 -3.76493 	 -20.3088 	 86.8548
| 14> H 	 -3.96012 	 -21.2661 	 87.353
| 15> H 	 -4.08136 	 -20.4785 	 85.7949
| 16> C 	 -4.61757 	 -19.2963 	 87.5404
| 17> H 	 -4.33675 	 -19.2154 	 88.577
| 18> H 	 -4.48822 	 -18.3279 	 87.1386
| 19> C 	 -6.12214 	 -19.4808 	 87.4864
| 20> H 	 -6.41412 	 -19.621 	 86.409
| 21> H 	 -6.31961 	 -20.4862 	 87.9265
| 22> H 	 -6.64976 	 -18.7326 	 88.0674
| 23> S 	 1.85493 	 -18.1079 	 85.2844
| 24> C 	 2.41024 	 -16.4667 	 85.4627
| 25> C 	 1.686 	 -15.7673 	 86.4299
| 26> C 	 0.634994 	 -16.6064 	 87.0342
| 27> C 	 0.696999 	 -17.8849 	 86.5912
| 28> H 	 1.90887 	 -14.7719 	 86.5781
| 29> C 	 -0.419183 	 -16.0746 	 88.0414
| 30> H 	 -0.646333 	 -16.8137 	 88.8126
| 31> H 	 -1.25438 	 -15.9017 	 87.3495
| 32> C 	 -0.204493 	 -14.6875 	 88.6063
| 33> H 	 -0.462206 	 -13.9959 	 87.7943
| 34> H 	 0.847765 	 -14.577 	 88.8571
| 35> C 	 -0.961648 	 -14.4156 	 89.9661
| 36> H 	 -1.95137 	 -14.8378 	 89.9746
| 37> H 	 -1.13266 	 -13.3596 	 90.1465
| 38> H 	 -0.489107 	 -14.945 	 90.787
| 39> H 	 -1.70366 	 -22.1437 	 87.659
| 40> H 	 3.16975 	 -16.0704 	 84.912
| 41> *
| 42>
| 43>                          ****END OF INPUT****

CARTESIAN COORDINATES (ANGSTROEM)
---------------------------------
  S      0.230813  -20.538600   87.480600
  C     -1.419800  -21.092700   87.550400
  C     -2.224590  -20.122200   86.928000
  C     -1.602740  -18.862600   86.749200
  C     -0.206826  -18.953700   86.920100
  H     -2.196080  -17.979700   86.424100
  C     -3.764930  -20.308800   86.854800
  H     -3.960120  -21.266100   87.353000
  H     -4.081360  -20.478500   85.794900
  C     -4.617570  -19.296300   87.540400
  H     -4.336750  -19.215400   88.577000
  H     -4.488220  -18.327900   87.138600
  C     -6.122140  -19.480800   87.486400
  H     -6.414120  -19.621000   86.409000
  H     -6.319610  -20.486200   87.926500
  H     -6.649760  -18.732600   88.067400
  S      1.854930  -18.107900   85.284400
  C      2.410240  -16.466700   85.462700
  C      1.686000  -15.767300   86.429900
  C      0.634994  -16.606400   87.034200
  C      0.696999  -17.884900   86.591200
  H      1.908870  -14.771900   86.578100
  C     -0.419183  -16.074600   88.041400
  H     -0.646333  -16.813700   88.812600
  H     -1.254380  -15.901700   87.349500
  C     -0.204493  -14.687500   88.606300
  H     -0.462206  -13.995900   87.794300
  H      0.847765  -14.577000   88.857100
  C     -0.961648  -14.415600   89.966100
  H     -1.951370  -14.837800   89.974600
  H     -1.132660  -13.359600   90.146500
  H     -0.489107  -14.945000   90.787000
  H     -1.703660  -22.143700   87.659000
  H      3.169750  -16.070400   84.912000

 Total Charge           Charge          ....    0
 Multiplicity           Mult            ....    1
 Number of Electrons    NEL             ....  134
 Basis Dimension        Dim             ....  322

ORBITAL ENERGIES
----------------

  NO   OCC          E(Eh)            E(eV)
   0   2.0000     -88.969328     -2420.9785
   1   2.0000     -88.963534     -2420.8208
   2   2.0000     -10.330132      -281.0972
   3   2.0000     -10.319379      -280.8046
   4   2.0000     -10.315875      -280.7092
   5   2.0000     -10.312161      -280.6082
   6   2.0000     -10.306104      -280.4434
   7   2.0000     -10.303039      -280.3600
   8   2.0000     -10.297819      -280.2179
   9   2.0000     -10.293811      -280.1088
  10   2.0000     -10.293634      -280.1040
  11   2.0000     -10.293257      -280.0938
  12   2.0000     -10.288805      -279.9726
  13   2.0000     -10.283175      -279.8194
  14   2.0000     -10.280081      -279.7352
  15   2.0000     -10.276391      -279.6348
  16   2.0000      -8.083974      -219.9761
  17   2.0000      -8.078468      -219.8263
  18   2.0000      -6.042397      -164.4220
  19   2.0000      -6.038294      -164.3103
  20   2.0000      -6.037006      -164.2753
  21   2.0000      -6.035034      -164.2216
  22   2.0000      -6.033003      -164.1664
  23   2.0000      -6.029139      -164.0612
  24   2.0000      -1.006863       -27.3981
  25   2.0000      -0.982359       -26.7313
  26   2.0000      -0.915167       -24.9029
  27   2.0000      -0.908072       -24.7099
  28   2.0000      -0.873039       -23.7566
  29   2.0000      -0.850999       -23.1569
  30   2.0000      -0.842471       -22.9248
  31   2.0000      -0.812885       -22.1197
  32   2.0000      -0.784637       -21.3511
  33   2.0000      -0.772172       -21.0119
  34   2.0000      -0.709147       -19.2969
  35   2.0000      -0.703848       -19.1527
  36   2.0000      -0.690028       -18.7766
  37   2.0000      -0.657264       -17.8851
  38   2.0000      -0.636645       -17.3240
  39   2.0000      -0.621264       -16.9055
  40   2.0000      -0.595545       -16.2056
  41   2.0000      -0.577468       -15.7137
  42   2.0000      -0.572375       -15.5751
  43   2.0000      -0.565096       -15.3771
  44   2.0000      -0.533595       -14.5199
  45   2.0000      -0.527569       -14.3559
  46   2.0000      -0.514945       -14.0124
  47   2.0000      -0.509995       -13.8777
  48   2.0000      -0.501355       -13.6426
  49   2.0000      -0.496598       -13.5131
  50   2.0000      -0.490113       -13.3367
  51   2.0000      -0.486742       -13.2449
  52   2.0000      -0.470500       -12.8029
  53   2.0000      -0.461380       -12.5548
  54   2.0000      -0.456015       -12.4088
  55   2.0000      -0.453954       -12.3527
  56   2.0000      -0.450837       -12.2679
  57   2.0000      -0.436701       -11.8832
  58   2.0000      -0.436017       -11.8646
  59   2.0000      -0.427078       -11.6214
  60   2.0000      -0.414500       -11.2791
  61   2.0000      -0.412880       -11.2350
  62   2.0000      -0.408454       -11.1146
  63   2.0000      -0.342554        -9.3214
  64   2.0000      -0.332056        -9.0357
  65   2.0000      -0.327795        -8.9198
  66   2.0000      -0.294861        -8.0236
  67   0.0000       0.031710         0.8629
  68   0.0000       0.067099         1.8259
  69   0.0000       0.119631         3.2553
  70   0.0000       0.122462         3.3324
  71   0.0000       0.126793         3.4502

MULLIKEN ATOMIC CHARGES
-----------------------
   0 S :    0.124572
   1 C :   -0.127191
   2 C :   -0.095689
   3 C :    0.010265
   4 C :   -0.169304
   5 H :    0.034797
   6 C :    0.052465
   7 H :    0.006814
   8 H :    0.036016
   9 C :   -0.062729
  10 H :    0.024618
  11 H :    0.011435
  12 C :   -0.055051
  13 H :    0.033281
  14 H :    0.020616
  15 H :    0.047474
  16 S :    0.110308
  17 C :   -0.048916
  18 C :   -0.021250
  19 C :   -0.055029
  20 C :   -0.148624
  21 H :   -0.007741
  22 C :    0.067858
  23 H :    0.050382
  24 H :    0.037258
  25 C :   -0.095733
  26 H :    0.034216
  27 H :    0.035768
  28 C :   -0.032561
  29 H :    0.016681
  30 H :    0.037707
  31 H :    0.038065
  32 H :    0.068937
  33 H :    0.020283
Sum of atomic charges:   -0.0000000

LOEWDIN ATOMIC CHARGES
----------------------
   0 S :    0.427169
   1 C :   -0.215586
   2 C :   -0.060866
   3 C :   -0.062697
   4 C :   -0.200625
   5 H :    0.038887
   6 C :   -0.034504
   7 H :    0.027368
   8 H :    0.032761
   9 C :   -0.048761
  10 H :    0.024827
  11 H :    0.013876
  12 C :   -0.062846
  13 H :    0.029437
  14 H :    0.023453
  15 H :    0.028977
  16 S :    0.400726
  17 C :   -0.165381
  18 C :   -0.062380
  19 C :   -0.046017
  20 C :   -0.205898
  21 H :    0.017237
  22 C :   -0.033251
  23 H :    0.033634
  24 H :    0.038956
  25 C :   -0.043799
  26 H :    0.025491
  27 H :    0.021847
  28 C :   -0.062133
  29 H :    0.020567
  30 H :    0.028316
  31 H :    0.028571
  32 H :    0.034092
  33 H :    0.008553

  Mayer bond orders larger than 0.100000
B(  0-S ,  1-C ) :   1.1495 B(  0-S ,  4-C ) :   1.1796 B(  1-C ,  2-C ) :   1.5734
B(  1-C ,  4-C ) :   0.1097 B(  1-C , 32-H ) :   0.9601 B(  2-C ,  3-C ) :   1.2967
B(  2-C ,  6-C ) :   1.0259 B(  3-C ,  4-C ) :   1.5083 B(  3-C ,  5-H ) :   0.9837
B(  4-C , 20-C ) :   1.0548 B(  6-C ,  7-H ) :   0.9443 B(  6-C ,  8-H ) :   0.9310
B(  6-C ,  9-C ) :   1.0755 B(  9-C , 10-H ) :   0.9511 B(  9-C , 11-H ) :   0.9453
B(  9-C , 12-C ) :   1.0905 B( 12-C , 13-H ) :   0.9729 B( 12-C , 14-H ) :   0.9747
B( 12-C , 15-H ) :   0.9724 B( 16-S , 17-C ) :   1.1528 B( 16-S , 20-C ) :   1.1251
B( 17-C , 18-C ) :   1.6218 B( 17-C , 33-H ) :   0.9767 B( 18-C , 19-C ) :   1.1967
B( 18-C , 21-H ) :   1.0029 B( 19-C , 20-C ) :   1.6548 B( 19-C , 22-C ) :   1.0225
B( 22-C , 23-H ) :   0.9430 B( 22-C , 24-H ) :   0.9228 B( 22-C , 25-C ) :   1.0725
B( 25-C , 26-H ) :   0.9535 B( 25-C , 27-H ) :   0.9604 B( 25-C , 28-C ) :   1.0744
B( 28-C , 29-H ) :   0.9751 B( 28-C , 30-H ) :   0.9750 B( 28-C , 31-H ) :   0.9766

Dispersion correction           -0.013712950
FINAL SINGLE POINT ENERGY     -1339.868050461949

DIPOLE MOMENT
-------------
                                X             Y             Z
Electronic contribution:     25.95425     -12.87003     -11.90765
Nuclear contribution   :    -26.50183      13.29913      12.01240
                        -----------------------------------------
Total Dipole Moment    :     -0.54758       0.42910       0.10476
                        -----------------------------------------
Magnitude (a.u.)       :      0.70353
Magnitude (Debye)      :      1.78822

Rotational constants in cm-1:     0.015870     0.008927     0.006518
Rotational constants in MHz :   475.783538   267.612642   195.415022

                             ****ORCA TERMINATED NORMALLY****
TOTAL RUN TIME: 0 days 0 hours 0 minutes 31 seconds 885 msec
