                         Program Version 4.2.1 -  RELEASE  -
|  1> ! wB97X-D3 SP def2-SVP
|  2> %pal
|  3> nprocs 16
|  4> end
|  5>
|  6> * xyz 0 1
|  7> S 	 -24.2074 	 52.1187 	 68.0465
|  8> C 	 -22.8319 	 52.4312 	 67.0482
|  9> C 	 -22.0383 	 51.2747 	 66.7778
| 10> C 	 -22.4821 	 50.1705 	 67.6293
| 11> C 	 -23.6623 	 50.4615 	 68.3205
| 12> H 	 -22.0025 	 49.1588 	 67.7371
| 13> C 	 -20.756 	 51.156 	 65.986
| 14> H 	 -20.0374 	 50.4196 	 66.4996
| 15> H 	 -20.2708 	 52.1745 	 66.0259
| 16> C 	 -21.0123 	 50.6598 	 64.5494
| 17> H 	 -20.0146 	 50.49 	 64.094
| 18> H 	 -21.5228 	 49.6762 	 64.5251
| 19> C 	 -21.8588 	 51.7016 	 63.7228
| 20> H 	 -21.9345 	 51.5329 	 62.6109
| 21> H 	 -22.935 	 51.7571 	 64.1045
| 22> H 	 -21.3666 	 52.7251 	 63.7665
| 23> S 	 -24.869 	 49.9911 	 70.7377
| 24> C 	 -25.3154 	 48.408 	 71.2921
| 25> C 	 -25.0714 	 47.5337 	 70.246
| 26> C 	 -24.6306 	 48.139 	 69.0466
| 27> C 	 -24.3736 	 49.4865 	 69.1721
| 28> H 	 -25.2139 	 46.4976 	 70.5217
| 29> C 	 -24.3607 	 47.3231 	 67.8147
| 30> H 	 -24.4296 	 47.9285 	 66.9075
| 31> H 	 -25.2243 	 46.7046 	 67.6718
| 32> C 	 -23.0121 	 46.5503 	 67.8808
| 33> H 	 -23.0218 	 45.7384 	 68.6517
| 34> H 	 -22.1571 	 47.1942 	 68.1441
| 35> C 	 -22.7595 	 45.7932 	 66.5743
| 36> H 	 -23.5172 	 44.9434 	 66.5425
| 37> H 	 -21.7576 	 45.3657 	 66.5253
| 38> H 	 -22.8792 	 46.3665 	 65.7255
| 39> H 	 -22.6535 	 53.3664 	 66.5327
| 40> H 	 -25.3702 	 48.1347 	 72.2879
| 41> *
| 42>
| 43>                          ****END OF INPUT****

CARTESIAN COORDINATES (ANGSTROEM)
---------------------------------
  S    -24.207400   52.118700   68.046500
  C    -22.831900   52.431200   67.048200
  C    -22.038300   51.274700   66.777800
  C    -22.482100   50.170500   67.629300
  C    -23.662300   50.461500   68.320500
  H    -22.002500   49.158800   67.737100
  C    -20.756000   51.156000   65.986000
  H    -20.037400   50.419600   66.499600
  H    -20.270800   52.174500   66.025900
  C    -21.012300   50.659800   64.549400
  H    -20.014600   50.490000   64.094000
  H    -21.522800   49.676200   64.525100
  C    -21.858800   51.701600   63.722800
  H    -21.934500   51.532900   62.610900
  H    -22.935000   51.757100   64.104500
  H    -21.366600   52.725100   63.766500
  S    -24.869000   49.991100   70.737700
  C    -25.315400   48.408000   71.292100
  C    -25.071400   47.533700   70.246000
  C    -24.630600   48.139000   69.046600
  C    -24.373600   49.486500   69.172100
  H    -25.213900   46.497600   70.521700
  C    -24.360700   47.323100   67.814700
  H    -24.429600   47.928500   66.907500
  H    -25.224300   46.704600   67.671800
  C    -23.012100   46.550300   67.880800
  H    -23.021800   45.738400   68.651700
  H    -22.157100   47.194200   68.144100
  C    -22.759500   45.793200   66.574300
  H    -23.517200   44.943400   66.542500
  H    -21.757600   45.365700   66.525300
  H    -22.879200   46.366500   65.725500
  H    -22.653500   53.366400   66.532700
  H    -25.370200   48.134700   72.287900

 Total Charge           Charge          ....    0
 Multiplicity           Mult            ....    1
 Number of Electrons    NEL             ....  134
 Basis Dimension        Dim             ....  322

ORBITAL ENERGIES
----------------

  NO   OCC          E(Eh)            E(eV)
   0   2.0000     -88.972822     -2421.0736
   1   2.0000     -88.958559     -2420.6855
   2   2.0000     -10.334327      -281.2113
   3   2.0000     -10.325154      -280.9617
   4   2.0000     -10.319137      -280.7980
   5   2.0000     -10.309510      -280.5360
   6   2.0000     -10.309420      -280.5336
   7   2.0000     -10.305738      -280.4334
   8   2.0000     -10.302612      -280.3483
   9   2.0000     -10.299511      -280.2639
  10   2.0000     -10.297860      -280.2190
  11   2.0000     -10.295002      -280.1412
  12   2.0000     -10.292789      -280.0810
  13   2.0000     -10.291977      -280.0589
  14   2.0000     -10.289370      -279.9880
  15   2.0000     -10.277491      -279.6647
  16   2.0000      -8.087198      -220.0638
  17   2.0000      -8.074490      -219.7180
  18   2.0000      -6.045689      -164.5115
  19   2.0000      -6.041776      -164.4051
  20   2.0000      -6.037983      -164.3019
  21   2.0000      -6.032827      -164.1616
  22   2.0000      -6.028587      -164.0462
  23   2.0000      -6.025588      -163.9646
  24   2.0000      -1.009008       -27.4565
  25   2.0000      -0.983293       -26.7568
  26   2.0000      -0.909653       -24.7529
  27   2.0000      -0.907249       -24.6875
  28   2.0000      -0.867507       -23.6061
  29   2.0000      -0.852057       -23.1857
  30   2.0000      -0.841856       -22.9081
  31   2.0000      -0.810992       -22.0682
  32   2.0000      -0.777053       -21.1447
  33   2.0000      -0.770426       -20.9644
  34   2.0000      -0.704973       -19.1833
  35   2.0000      -0.700888       -19.0721
  36   2.0000      -0.694438       -18.8966
  37   2.0000      -0.663802       -18.0630
  38   2.0000      -0.636778       -17.3276
  39   2.0000      -0.617352       -16.7990
  40   2.0000      -0.596966       -16.2443
  41   2.0000      -0.569476       -15.4962
  42   2.0000      -0.564030       -15.3480
  43   2.0000      -0.541360       -14.7311
  44   2.0000      -0.537162       -14.6169
  45   2.0000      -0.534397       -14.5417
  46   2.0000      -0.515857       -14.0372
  47   2.0000      -0.510632       -13.8950
  48   2.0000      -0.506694       -13.7879
  49   2.0000      -0.493842       -13.4381
  50   2.0000      -0.486470       -13.2375
  51   2.0000      -0.479122       -13.0376
  52   2.0000      -0.470741       -12.8095
  53   2.0000      -0.461588       -12.5605
  54   2.0000      -0.459223       -12.4961
  55   2.0000      -0.448873       -12.2145
  56   2.0000      -0.442438       -12.0393
  57   2.0000      -0.435947       -11.8627
  58   2.0000      -0.434027       -11.8105
  59   2.0000      -0.425000       -11.5648
  60   2.0000      -0.421726       -11.4757
  61   2.0000      -0.418167       -11.3789
  62   2.0000      -0.410096       -11.1593
  63   2.0000      -0.350775        -9.5451
  64   2.0000      -0.330720        -8.9994
  65   2.0000      -0.327009        -8.8984
  66   2.0000      -0.290336        -7.9004
  67   0.0000       0.028660         0.7799
  68   0.0000       0.069192         1.8828
  69   0.0000       0.110831         3.0159
  70   0.0000       0.114810         3.1241
  71   0.0000       0.127378         3.4661

MULLIKEN ATOMIC CHARGES
-----------------------
   0 S :    0.132488
   1 C :   -0.110252
   2 C :   -0.093269
   3 C :    0.007486
   4 C :   -0.134476
   5 H :    0.019495
   6 C :   -0.000655
   7 H :    0.049194
   8 H :    0.043628
   9 C :   -0.055057
  10 H :    0.037565
  11 H :    0.038669
  12 C :   -0.122036
  13 H :    0.045183
  14 H :    0.063845
  15 H :    0.034312
  16 S :    0.087008
  17 C :   -0.070995
  18 C :   -0.057772
  19 C :   -0.037115
  20 C :   -0.136009
  21 H :    0.019817
  22 C :    0.074464
  23 H :    0.023490
  24 H :    0.017128
  25 C :   -0.096851
  26 H :    0.032948
  27 H :    0.037928
  28 C :   -0.026277
  29 H :    0.034931
  30 H :    0.033793
  31 H :    0.013564
  32 H :    0.050384
  33 H :    0.043440
Sum of atomic charges:    0.0000000

LOEWDIN ATOMIC CHARGES
----------------------
   0 S :    0.416436
   1 C :   -0.208006
   2 C :   -0.061228
   3 C :   -0.063236
   4 C :   -0.193693
   5 H :    0.038701
   6 C :   -0.041886
   7 H :    0.041007
   8 H :    0.037043
   9 C :   -0.044388
  10 H :    0.026357
  11 H :    0.027611
  12 C :   -0.087199
  13 H :    0.029572
  14 H :    0.035792
  15 H :    0.026965
  16 S :    0.420398
  17 C :   -0.185061
  18 C :   -0.067273
  19 C :   -0.066564
  20 C :   -0.204312
  21 H :    0.031854
  22 C :   -0.032747
  23 H :    0.031518
  24 H :    0.030450
  25 C :   -0.039248
  26 H :    0.028965
  27 H :    0.020170
  28 C :   -0.062327
  29 H :    0.033347
  30 H :    0.026669
  31 H :    0.009316
  32 H :    0.026413
  33 H :    0.018586

  Mayer bond orders larger than 0.100000
B(  0-S ,  1-C ) :   1.1488 B(  0-S ,  4-C ) :   1.1493 B(  1-C ,  2-C ) :   1.5915
B(  1-C , 32-H ) :   0.9647 B(  2-C ,  3-C ) :   1.2407 B(  2-C ,  6-C ) :   1.0181
B(  3-C ,  4-C ) :   1.5794 B(  3-C ,  5-H ) :   0.9756 B(  4-C , 20-C ) :   1.0267
B(  6-C ,  7-H ) :   0.9480 B(  6-C ,  8-H ) :   0.9487 B(  6-C ,  9-C ) :   1.0594
B(  9-C , 10-H ) :   0.9578 B(  9-C , 11-H ) :   0.9568 B(  9-C , 12-C ) :   1.0589
B( 12-C , 13-H ) :   0.9764 B( 12-C , 14-H ) :   0.9715 B( 12-C , 15-H ) :   0.9756
B( 16-S , 17-C ) :   1.1682 B( 16-S , 20-C ) :   1.1616 B( 17-C , 18-C ) :   1.5904
B( 17-C , 33-H ) :   0.9745 B( 18-C , 19-C ) :   1.2488 B( 18-C , 21-H ) :   0.9963
B( 19-C , 20-C ) :   1.5740 B( 19-C , 22-C ) :   1.0496 B( 22-C , 23-H ) :   0.9359
B( 22-C , 24-H ) :   0.9287 B( 22-C , 25-C ) :   1.0500 B( 25-C , 26-H ) :   0.9527
B( 25-C , 27-H ) :   0.9549 B( 25-C , 28-C ) :   1.0792 B( 28-C , 29-H ) :   0.9755
B( 28-C , 30-H ) :   0.9732 B( 28-C , 31-H ) :   0.9763

Dispersion correction           -0.014937826
FINAL SINGLE POINT ENERGY     -1339.879785228575

DIPOLE MOMENT
-------------
                                X             Y             Z
Electronic contribution:    -14.69087      14.15047      22.78083
Nuclear contribution   :     15.15986     -14.67103     -23.15540
                        -----------------------------------------
Total Dipole Moment    :      0.46899      -0.52055      -0.37457
                        -----------------------------------------
Magnitude (a.u.)       :      0.79450
Magnitude (Debye)      :      2.01945

Rotational constants in cm-1:     0.018479     0.009628     0.006778
Rotational constants in MHz :   553.974463   288.652624   203.196986

                             ****ORCA TERMINATED NORMALLY****
TOTAL RUN TIME: 0 days 0 hours 0 minutes 35 seconds 249 msec
