                         Program Version 4.2.1 -  RELEASE  -
|  1> ! wB97X-D3 SP def2-SVP
|  2> %pal
|  3> nprocs 16
|  4> end
|  5>
|  6> * xyz 0 1
|  7> S 	 -13.1366 	 67.0998 	 53.4491
|  8> C 	 -13.2778 	 65.7854 	 54.6415
|  9> C 	 -12.0374 	 65.1529 	 54.8086
| 10> C 	 -11.0918 	 65.6118 	 53.8449
| 11> C 	 -11.4679 	 66.6458 	 53.0399
| 12> H 	 -10.0515 	 65.3053 	 53.8264
| 13> C 	 -11.6417 	 64.2573 	 56.0091
| 14> H 	 -10.6312 	 63.8249 	 55.8049
| 15> H 	 -12.4108 	 63.502 	 56.058
| 16> C 	 -11.6069 	 65.014 	 57.3553
| 17> H 	 -11.0282 	 65.9963 	 57.3094
| 18> H 	 -12.6743 	 65.1847 	 57.5345
| 19> C 	 -11.1117 	 64.0889 	 58.5319
| 20> H 	 -10.8206 	 64.604 	 59.4077
| 21> H 	 -12.0252 	 63.5409 	 58.8699
| 22> H 	 -10.3923 	 63.2807 	 58.2696
| 23> S 	 -11.3629 	 68.0643 	 50.632
| 24> C 	 -9.88404 	 68.8722 	 50.2233
| 25> C 	 -8.89253 	 68.6766 	 51.1148
| 26> C 	 -9.34701 	 67.8139 	 52.1673
| 27> C 	 -10.6853 	 67.3908 	 52.1042
| 28> H 	 -7.98085 	 69.2171 	 50.9584
| 29> C 	 -8.36839 	 67.4936 	 53.2723
| 30> H 	 -7.35972 	 67.7583 	 52.9101
| 31> H 	 -8.38137 	 66.3753 	 53.3927
| 32> C 	 -8.771 	 68.2786 	 54.4849
| 33> H 	 -9.73072 	 68.0963 	 54.7122
| 34> H 	 -8.83679 	 69.368 	 54.3715
| 35> C 	 -7.89545 	 67.9497 	 55.7264
| 36> H 	 -8.36042 	 67.0332 	 56.0416
| 37> H 	 -8.07158 	 68.7375 	 56.5186
| 38> H 	 -6.79278 	 67.8516 	 55.5399
| 39> H 	 -14.0573 	 65.6655 	 55.3002
| 40> H 	 -9.75099 	 69.5904 	 49.3992
| 41> *
| 42>
| 43>                          ****END OF INPUT****

CARTESIAN COORDINATES (ANGSTROEM)
---------------------------------
  S    -13.136600   67.099800   53.449100
  C    -13.277800   65.785400   54.641500
  C    -12.037400   65.152900   54.808600
  C    -11.091800   65.611800   53.844900
  C    -11.467900   66.645800   53.039900
  H    -10.051500   65.305300   53.826400
  C    -11.641700   64.257300   56.009100
  H    -10.631200   63.824900   55.804900
  H    -12.410800   63.502000   56.058000
  C    -11.606900   65.014000   57.355300
  H    -11.028200   65.996300   57.309400
  H    -12.674300   65.184700   57.534500
  C    -11.111700   64.088900   58.531900
  H    -10.820600   64.604000   59.407700
  H    -12.025200   63.540900   58.869900
  H    -10.392300   63.280700   58.269600
  S    -11.362900   68.064300   50.632000
  C     -9.884040   68.872200   50.223300
  C     -8.892530   68.676600   51.114800
  C     -9.347010   67.813900   52.167300
  C    -10.685300   67.390800   52.104200
  H     -7.980850   69.217100   50.958400
  C     -8.368390   67.493600   53.272300
  H     -7.359720   67.758300   52.910100
  H     -8.381370   66.375300   53.392700
  C     -8.771000   68.278600   54.484900
  H     -9.730720   68.096300   54.712200
  H     -8.836790   69.368000   54.371500
  C     -7.895450   67.949700   55.726400
  H     -8.360420   67.033200   56.041600
  H     -8.071580   68.737500   56.518600
  H     -6.792780   67.851600   55.539900
  H    -14.057300   65.665500   55.300200
  H     -9.750990   69.590400   49.399200

 Total Charge           Charge          ....    0
 Multiplicity           Mult            ....    1
 Number of Electrons    NEL             ....  134
 Basis Dimension        Dim             ....  322

ORBITAL ENERGIES
----------------

  NO   OCC          E(Eh)            E(eV)
   0   2.0000     -88.967348     -2420.9246
   1   2.0000     -88.965631     -2420.8779
   2   2.0000     -10.332080      -281.1502
   3   2.0000     -10.327894      -281.0363
   4   2.0000     -10.315540      -280.7001
   5   2.0000     -10.314728      -280.6780
   6   2.0000     -10.306388      -280.4511
   7   2.0000     -10.305448      -280.4255
   8   2.0000     -10.300866      -280.3008
   9   2.0000     -10.299531      -280.2645
  10   2.0000     -10.293287      -280.0946
  11   2.0000     -10.292204      -280.0651
  12   2.0000     -10.290420      -280.0166
  13   2.0000     -10.284524      -279.8561
  14   2.0000     -10.281374      -279.7704
  15   2.0000     -10.273154      -279.5467
  16   2.0000      -8.081081      -219.8974
  17   2.0000      -8.080605      -219.8844
  18   2.0000      -6.039695      -164.3485
  19   2.0000      -6.039155      -164.3338
  20   2.0000      -6.035744      -164.2409
  21   2.0000      -6.035016      -164.2211
  22   2.0000      -6.031757      -164.1325
  23   2.0000      -6.031361      -164.1217
  24   2.0000      -1.008741       -27.4492
  25   2.0000      -0.984081       -26.7782
  26   2.0000      -0.914931       -24.8965
  27   2.0000      -0.908735       -24.7279
  28   2.0000      -0.874095       -23.7853
  29   2.0000      -0.849776       -23.1236
  30   2.0000      -0.842752       -22.9324
  31   2.0000      -0.819505       -22.2999
  32   2.0000      -0.781987       -21.2790
  33   2.0000      -0.767521       -20.8853
  34   2.0000      -0.713331       -19.4107
  35   2.0000      -0.701047       -19.0764
  36   2.0000      -0.695771       -18.9329
  37   2.0000      -0.663527       -18.0555
  38   2.0000      -0.642084       -17.4720
  39   2.0000      -0.622751       -16.9459
  40   2.0000      -0.592173       -16.1139
  41   2.0000      -0.572164       -15.5694
  42   2.0000      -0.568891       -15.4803
  43   2.0000      -0.561818       -15.2879
  44   2.0000      -0.530128       -14.4255
  45   2.0000      -0.527780       -14.3616
  46   2.0000      -0.516628       -14.0582
  47   2.0000      -0.511515       -13.9190
  48   2.0000      -0.506197       -13.7743
  49   2.0000      -0.499730       -13.5983
  50   2.0000      -0.490692       -13.3524
  51   2.0000      -0.487720       -13.2715
  52   2.0000      -0.473591       -12.8871
  53   2.0000      -0.463720       -12.6185
  54   2.0000      -0.458545       -12.4776
  55   2.0000      -0.450268       -12.2524
  56   2.0000      -0.447393       -12.1742
  57   2.0000      -0.439756       -11.9664
  58   2.0000      -0.437670       -11.9096
  59   2.0000      -0.422660       -11.5012
  60   2.0000      -0.418298       -11.3825
  61   2.0000      -0.414020       -11.2661
  62   2.0000      -0.402953       -10.9649
  63   2.0000      -0.356077        -9.6893
  64   2.0000      -0.332787        -9.0556
  65   2.0000      -0.330188        -8.9849
  66   2.0000      -0.287665        -7.8278
  67   0.0000       0.021131         0.5750
  68   0.0000       0.075077         2.0429
  69   0.0000       0.102956         2.8016
  70   0.0000       0.120318         3.2740
  71   0.0000       0.129164         3.5147

MULLIKEN ATOMIC CHARGES
-----------------------
   0 S :    0.098674
   1 C :   -0.086507
   2 C :   -0.092181
   3 C :    0.010526
   4 C :   -0.130585
   5 H :   -0.003146
   6 C :    0.054955
   7 H :    0.032267
   8 H :    0.032169
   9 C :   -0.106581
  10 H :    0.059253
  11 H :    0.030663
  12 C :   -0.048797
  13 H :    0.032933
  14 H :    0.025075
  15 H :    0.042105
  16 S :    0.108008
  17 C :   -0.088145
  18 C :   -0.026577
  19 C :   -0.071939
  20 C :   -0.129135
  21 H :    0.017891
  22 C :    0.062201
  23 H :    0.017369
  24 H :    0.037443
  25 C :   -0.032836
  26 H :    0.000923
  27 H :    0.020188
  28 C :   -0.054481
  29 H :    0.023762
  30 H :    0.039792
  31 H :    0.045074
  32 H :    0.019676
  33 H :    0.059962
Sum of atomic charges:   -0.0000000

LOEWDIN ATOMIC CHARGES
----------------------
   0 S :    0.383950
   1 C :   -0.176900
   2 C :   -0.055559
   3 C :   -0.070976
   4 C :   -0.180470
   5 H :    0.027439
   6 C :   -0.027902
   7 H :    0.030081
   8 H :    0.030327
   9 C :   -0.042949
  10 H :    0.032073
  11 H :    0.024487
  12 C :   -0.073340
  13 H :    0.021104
  14 H :    0.030945
  15 H :    0.028923
  16 S :    0.408734
  17 C :   -0.183415
  18 C :   -0.077454
  19 C :   -0.043077
  20 C :   -0.210614
  21 H :    0.035457
  22 C :   -0.030285
  23 H :    0.029101
  24 H :    0.032088
  25 C :   -0.036428
  26 H :    0.009584
  27 H :    0.027784
  28 C :   -0.068207
  29 H :    0.020636
  30 H :    0.031191
  31 H :    0.028452
  32 H :    0.009491
  33 H :    0.035725

  Mayer bond orders larger than 0.100000
B(  0-S ,  1-C ) :   1.1323 B(  0-S ,  4-C ) :   1.1293 B(  1-C ,  2-C ) :   1.5978
B(  1-C ,  4-C ) :   0.1011 B(  1-C , 32-H ) :   0.9791 B(  2-C ,  3-C ) :   1.2547
B(  2-C ,  6-C ) :   1.0172 B(  3-C ,  4-C ) :   1.5739 B(  3-C ,  5-H ) :   0.9933
B(  4-C , 20-C ) :   1.0972 B(  6-C ,  7-H ) :   0.9480 B(  6-C ,  8-H ) :   0.9395
B(  6-C ,  9-C ) :   1.0555 B(  9-C , 10-H ) :   0.9613 B(  9-C , 11-H ) :   0.9600
B(  9-C , 12-C ) :   1.0628 B( 12-C , 13-H ) :   0.9771 B( 12-C , 14-H ) :   0.9759
B( 12-C , 15-H ) :   0.9788 B( 16-S , 17-C ) :   1.1646 B( 16-S , 20-C ) :   1.1167
B( 17-C , 18-C ) :   1.6259 B( 17-C , 33-H ) :   0.9563 B( 18-C , 19-C ) :   1.2460
B( 18-C , 21-H ) :   0.9961 B( 19-C , 20-C ) :   1.5666 B( 19-C , 22-C ) :   1.0365
B( 22-C , 23-H ) :   0.9306 B( 22-C , 24-H ) :   0.9374 B( 22-C , 25-C ) :   1.0596
B( 25-C , 26-H ) :   0.9547 B( 25-C , 27-H ) :   0.9491 B( 25-C , 28-C ) :   1.0692
B( 28-C , 29-H ) :   0.9796 B( 28-C , 30-H ) :   0.9755 B( 28-C , 31-H ) :   0.9758

Dispersion correction           -0.015077765
FINAL SINGLE POINT ENERGY     -1339.864501499909

DIPOLE MOMENT
-------------
                                X             Y             Z
Electronic contribution:    -14.79093       8.19300     -28.01155
Nuclear contribution   :     15.29171      -8.16526      28.57409
                        -----------------------------------------
Total Dipole Moment    :      0.50077       0.02774       0.56254
                        -----------------------------------------
Magnitude (a.u.)       :      0.75365
Magnitude (Debye)      :      1.91563

Rotational constants in cm-1:     0.021153     0.008921     0.006750
Rotational constants in MHz :   634.158884   267.440188   202.361505

                             ****ORCA TERMINATED NORMALLY****
TOTAL RUN TIME: 0 days 0 hours 0 minutes 35 seconds 480 msec
