                         Program Version 4.2.1 -  RELEASE  -
|  1> ! wB97X-D3 SP def2-SVP
|  2> %pal
|  3> nprocs 16
|  4> end
|  5>
|  6> * xyz 0 1
|  7> S 	 59.5186 	 16.9318 	 52.1816
|  8> C 	 58.8296 	 18.4213 	 52.7962
|  9> C 	 58.3259 	 18.2451 	 54.1127
| 10> C 	 58.5305 	 16.9084 	 54.598
| 11> C 	 59.224 	 16.0813 	 53.6413
| 12> H 	 58.3044 	 16.5696 	 55.6155
| 13> C 	 57.7939 	 19.3789 	 55.0011
| 14> H 	 57.9437 	 20.2835 	 54.364
| 15> H 	 58.4637 	 19.3743 	 55.8411
| 16> C 	 56.3228 	 19.3003 	 55.4336
| 17> H 	 55.6367 	 19.0322 	 54.5978
| 18> H 	 56.2176 	 18.5184 	 56.1861
| 19> C 	 55.7579 	 20.5172 	 56.1124
| 20> H 	 55.9213 	 21.422 	 55.5528
| 21> H 	 54.6578 	 20.4925 	 56.191
| 22> H 	 56.1524 	 20.7336 	 57.1015
| 23> S 	 61.0366 	 14.0582 	 53.0563
| 24> C 	 60.8618 	 12.4829 	 53.817
| 25> C 	 59.7137 	 12.3876 	 54.4791
| 26> C 	 58.9812 	 13.64 	 54.6115
| 27> C 	 59.5651 	 14.6636 	 53.8537
| 28> H 	 59.4846 	 11.3959 	 54.8511
| 29> C 	 57.6328 	 13.7022 	 55.1862
| 30> H 	 57.7217 	 14.6313 	 55.7491
| 31> H 	 57.6837 	 12.6941 	 55.651
| 32> C 	 56.482 	 13.8489 	 54.1712
| 33> H 	 56.5451 	 13.0472 	 53.4499
| 34> H 	 56.6931 	 14.7157 	 53.6643
| 35> C 	 55.0082 	 14.0157 	 54.6889
| 36> H 	 54.8193 	 14.8526 	 55.4206
| 37> H 	 54.7447 	 13.0916 	 55.1051
| 38> H 	 54.3564 	 14.2869 	 53.9063
| 39> H 	 58.8184 	 19.4937 	 52.3741
| 40> H 	 61.4551 	 11.6006 	 53.6194
| 41> *
| 42>
| 43>                          ****END OF INPUT****

CARTESIAN COORDINATES (ANGSTROEM)
---------------------------------
  S     59.518600   16.931800   52.181600
  C     58.829600   18.421300   52.796200
  C     58.325900   18.245100   54.112700
  C     58.530500   16.908400   54.598000
  C     59.224000   16.081300   53.641300
  H     58.304400   16.569600   55.615500
  C     57.793900   19.378900   55.001100
  H     57.943700   20.283500   54.364000
  H     58.463700   19.374300   55.841100
  C     56.322800   19.300300   55.433600
  H     55.636700   19.032200   54.597800
  H     56.217600   18.518400   56.186100
  C     55.757900   20.517200   56.112400
  H     55.921300   21.422000   55.552800
  H     54.657800   20.492500   56.191000
  H     56.152400   20.733600   57.101500
  S     61.036600   14.058200   53.056300
  C     60.861800   12.482900   53.817000
  C     59.713700   12.387600   54.479100
  C     58.981200   13.640000   54.611500
  C     59.565100   14.663600   53.853700
  H     59.484600   11.395900   54.851100
  C     57.632800   13.702200   55.186200
  H     57.721700   14.631300   55.749100
  H     57.683700   12.694100   55.651000
  C     56.482000   13.848900   54.171200
  H     56.545100   13.047200   53.449900
  H     56.693100   14.715700   53.664300
  C     55.008200   14.015700   54.688900
  H     54.819300   14.852600   55.420600
  H     54.744700   13.091600   55.105100
  H     54.356400   14.286900   53.906300
  H     58.818400   19.493700   52.374100
  H     61.455100   11.600600   53.619400

 Total Charge           Charge          ....    0
 Multiplicity           Mult            ....    1
 Number of Electrons    NEL             ....  134
 Basis Dimension        Dim             ....  322

ORBITAL ENERGIES
----------------

  NO   OCC          E(Eh)            E(eV)
   0   2.0000     -88.977193     -2421.1925
   1   2.0000     -88.962416     -2420.7904
   2   2.0000     -10.339132      -281.3421
   3   2.0000     -10.332197      -281.1534
   4   2.0000     -10.324422      -280.9418
   5   2.0000     -10.312698      -280.6228
   6   2.0000     -10.308259      -280.5020
   7   2.0000     -10.303836      -280.3816
   8   2.0000     -10.302695      -280.3506
   9   2.0000     -10.298804      -280.2447
  10   2.0000     -10.291406      -280.0434
  11   2.0000     -10.290795      -280.0268
  12   2.0000     -10.288510      -279.9646
  13   2.0000     -10.277360      -279.6612
  14   2.0000     -10.277129      -279.6549
  15   2.0000     -10.273734      -279.5625
  16   2.0000      -8.091531      -220.1817
  17   2.0000      -8.076909      -219.7839
  18   2.0000      -6.050098      -164.6315
  19   2.0000      -6.045918      -164.5178
  20   2.0000      -6.042424      -164.4227
  21   2.0000      -6.035567      -164.2361
  22   2.0000      -6.031521      -164.1260
  23   2.0000      -6.027463      -164.0156
  24   2.0000      -1.005315       -27.3560
  25   2.0000      -0.983270       -26.7561
  26   2.0000      -0.913681       -24.8625
  27   2.0000      -0.911253       -24.7964
  28   2.0000      -0.871647       -23.7187
  29   2.0000      -0.853199       -23.2167
  30   2.0000      -0.847320       -23.0568
  31   2.0000      -0.815678       -22.1957
  32   2.0000      -0.784054       -21.3352
  33   2.0000      -0.770697       -20.9717
  34   2.0000      -0.715254       -19.4630
  35   2.0000      -0.701168       -19.0797
  36   2.0000      -0.690802       -18.7977
  37   2.0000      -0.663464       -18.0538
  38   2.0000      -0.630203       -17.1487
  39   2.0000      -0.620383       -16.8815
  40   2.0000      -0.585771       -15.9396
  41   2.0000      -0.575528       -15.6609
  42   2.0000      -0.571282       -15.5454
  43   2.0000      -0.560803       -15.2602
  44   2.0000      -0.527924       -14.3655
  45   2.0000      -0.522160       -14.2087
  46   2.0000      -0.514413       -13.9979
  47   2.0000      -0.513081       -13.9616
  48   2.0000      -0.508769       -13.8443
  49   2.0000      -0.498880       -13.5752
  50   2.0000      -0.495280       -13.4773
  51   2.0000      -0.482030       -13.1167
  52   2.0000      -0.473670       -12.8892
  53   2.0000      -0.466454       -12.6928
  54   2.0000      -0.459293       -12.4980
  55   2.0000      -0.448671       -12.2090
  56   2.0000      -0.442570       -12.0429
  57   2.0000      -0.437489       -11.9047
  58   2.0000      -0.431239       -11.7346
  59   2.0000      -0.428627       -11.6635
  60   2.0000      -0.425726       -11.5846
  61   2.0000      -0.418847       -11.3974
  62   2.0000      -0.404270       -11.0008
  63   2.0000      -0.357140        -9.7183
  64   2.0000      -0.335586        -9.1318
  65   2.0000      -0.326569        -8.8864
  66   2.0000      -0.283483        -7.7140
  67   0.0000       0.017530         0.4770
  68   0.0000       0.079351         2.1593
  69   0.0000       0.106949         2.9102
  70   0.0000       0.116664         3.1746
  71   0.0000       0.128212         3.4888

MULLIKEN ATOMIC CHARGES
-----------------------
   0 S :    0.136631
   1 C :   -0.142497
   2 C :   -0.119733
   3 C :   -0.010097
   4 C :   -0.125635
   5 H :    0.030977
   6 C :    0.077324
   7 H :    0.015050
   8 H :    0.039025
   9 C :   -0.076454
  10 H :    0.040109
  11 H :    0.025591
  12 C :   -0.043412
  13 H :    0.015154
  14 H :    0.034296
  15 H :    0.027340
  16 S :    0.079968
  17 C :   -0.074419
  18 C :   -0.048034
  19 C :   -0.062808
  20 C :   -0.144534
  21 H :    0.019954
  22 C :    0.076106
  23 H :    0.019543
  24 H :    0.026631
  25 C :   -0.035542
  26 H :    0.020408
  27 H :    0.011796
  28 C :   -0.022769
  29 H :    0.029900
  30 H :    0.023473
  31 H :    0.025619
  32 H :    0.077640
  33 H :    0.053401
Sum of atomic charges:    0.0000000

LOEWDIN ATOMIC CHARGES
----------------------
   0 S :    0.438170
   1 C :   -0.232352
   2 C :   -0.059090
   3 C :   -0.074871
   4 C :   -0.204891
   5 H :    0.031094
   6 C :   -0.027710
   7 H :    0.030973
   8 H :    0.033048
   9 C :   -0.047038
  10 H :    0.032592
  11 H :    0.023838
  12 C :   -0.068759
  13 H :    0.019155
  14 H :    0.031699
  15 H :    0.023344
  16 S :    0.375945
  17 C :   -0.177610
  18 C :   -0.078270
  19 C :   -0.056799
  20 C :   -0.185281
  21 H :    0.034568
  22 C :   -0.038962
  23 H :    0.034110
  24 H :    0.037354
  25 C :   -0.027667
  26 H :    0.024067
  27 H :    0.013691
  28 C :   -0.057899
  29 H :    0.030779
  30 H :    0.015756
  31 H :    0.022931
  32 H :    0.050673
  33 H :    0.033411

  Mayer bond orders larger than 0.100000
B(  0-S ,  1-C ) :   1.1366 B(  0-S ,  4-C ) :   1.1864 B(  1-C ,  2-C ) :   1.5877
B(  1-C ,  4-C ) :   0.1039 B(  1-C , 32-H ) :   0.9502 B(  2-C ,  3-C ) :   1.2890
B(  2-C ,  6-C ) :   1.0238 B(  3-C ,  4-C ) :   1.4987 B(  3-C ,  5-H ) :   0.9835
B(  4-C , 20-C ) :   1.0673 B(  6-C ,  7-H ) :   0.9397 B(  6-C ,  8-H ) :   0.9394
B(  6-C ,  9-C ) :   1.0632 B(  9-C , 10-H ) :   0.9566 B(  9-C , 11-H ) :   0.9509
B(  9-C , 12-C ) :   1.0945 B( 12-C , 13-H ) :   0.9726 B( 12-C , 14-H ) :   0.9730
B( 12-C , 15-H ) :   0.9731 B( 16-S , 17-C ) :   1.1321 B( 16-S , 20-C ) :   1.1216
B( 17-C , 18-C ) :   1.6823 B( 17-C , 33-H ) :   0.9586 B( 18-C , 19-C ) :   1.2069
B( 18-C , 21-H ) :   0.9817 B( 19-C , 20-C ) :   1.5805 B( 19-C , 22-C ) :   1.0362
B( 22-C , 23-H ) :   0.9165 B( 22-C , 24-H ) :   0.9317 B( 22-C , 25-C ) :   1.0795
B( 25-C , 26-H ) :   0.9542 B( 25-C , 27-H ) :   0.9500 B( 25-C , 28-C ) :   1.0821
B( 28-C , 29-H ) :   0.9746 B( 28-C , 30-H ) :   0.9795 B( 28-C , 31-H ) :   0.9732

Dispersion correction           -0.014173146
FINAL SINGLE POINT ENERGY     -1339.856563906195

DIPOLE MOMENT
-------------
                                X             Y             Z
Electronic contribution:     26.30304      -9.64881     -15.44642
Nuclear contribution   :    -26.77620       9.70221      15.78891
                        -----------------------------------------
Total Dipole Moment    :     -0.47316       0.05340       0.34250
                        -----------------------------------------
Magnitude (a.u.)       :      0.58655
Magnitude (Debye)      :      1.49088

Rotational constants in cm-1:     0.019361     0.008568     0.006594
Rotational constants in MHz :   580.440267   256.875860   197.668798

                             ****ORCA TERMINATED NORMALLY****
TOTAL RUN TIME: 0 days 0 hours 0 minutes 30 seconds 236 msec
