                         Program Version 4.2.1 -  RELEASE  -
|  1> ! wB97X-D3 SP def2-SVP
|  2> %pal
|  3> nprocs 16
|  4> end
|  5>
|  6> * xyz 0 1
|  7> S 	 -32.8277 	 63.29 	 112.076
|  8> C 	 -34.4662 	 62.7268 	 111.722
|  9> C 	 -35.284 	 63.8253 	 111.618
| 10> C 	 -34.5859 	 65.0694 	 111.593
| 11> C 	 -33.2341 	 64.9649 	 111.693
| 12> H 	 -35.0952 	 66.0145 	 111.354
| 13> C 	 -36.7595 	 63.7401 	 111.607
| 14> H 	 -36.9022 	 63.1154 	 110.699
| 15> H 	 -37.0827 	 64.666 	 111.384
| 16> C 	 -37.4797 	 63.1401 	 112.78
| 17> H 	 -38.5143 	 63.0715 	 112.585
| 18> H 	 -37.1229 	 62.1637 	 112.851
| 19> C 	 -37.3315 	 63.7939 	 114.152
| 20> H 	 -36.2535 	 63.6662 	 114.47
| 21> H 	 -37.4351 	 64.8482 	 114.274
| 22> H 	 -37.874 	 63.3285 	 114.943
| 23> S 	 -30.7374 	 65.624 	 112.62
| 24> C 	 -30.1888 	 67.3027 	 112.582
| 25> C 	 -31.1577 	 68.152 	 112.167
| 26> C 	 -32.3592 	 67.4841 	 111.833
| 27> C 	 -32.3091 	 66.1075 	 111.967
| 28> H 	 -30.9083 	 69.1326 	 112.06
| 29> C 	 -33.378 	 68.2463 	 111.03
| 30> H 	 -33.4436 	 69.2956 	 111.323
| 31> H 	 -34.3406 	 67.8397 	 111.394
| 32> C 	 -33.2772 	 68.0467 	 109.5
| 33> H 	 -33.1087 	 67.0139 	 109.149
| 34> H 	 -32.3792 	 68.5771 	 109.076
| 35> C 	 -34.4121 	 68.58 	 108.719
| 36> H 	 -34.3413 	 69.6035 	 108.399
| 37> H 	 -35.2588 	 68.522 	 109.35
| 38> H 	 -34.5403 	 68.1055 	 107.762
| 39> H 	 -34.6808 	 61.6917 	 111.748
| 40> H 	 -29.2139 	 67.7285 	 112.81
| 41> *
| 42>
| 43>                          ****END OF INPUT****

CARTESIAN COORDINATES (ANGSTROEM)
---------------------------------
  S    -32.827700   63.290000  112.076000
  C    -34.466200   62.726800  111.722000
  C    -35.284000   63.825300  111.618000
  C    -34.585900   65.069400  111.593000
  C    -33.234100   64.964900  111.693000
  H    -35.095200   66.014500  111.354000
  C    -36.759500   63.740100  111.607000
  H    -36.902200   63.115400  110.699000
  H    -37.082700   64.666000  111.384000
  C    -37.479700   63.140100  112.780000
  H    -38.514300   63.071500  112.585000
  H    -37.122900   62.163700  112.851000
  C    -37.331500   63.793900  114.152000
  H    -36.253500   63.666200  114.470000
  H    -37.435100   64.848200  114.274000
  H    -37.874000   63.328500  114.943000
  S    -30.737400   65.624000  112.620000
  C    -30.188800   67.302700  112.582000
  C    -31.157700   68.152000  112.167000
  C    -32.359200   67.484100  111.833000
  C    -32.309100   66.107500  111.967000
  H    -30.908300   69.132600  112.060000
  C    -33.378000   68.246300  111.030000
  H    -33.443600   69.295600  111.323000
  H    -34.340600   67.839700  111.394000
  C    -33.277200   68.046700  109.500000
  H    -33.108700   67.013900  109.149000
  H    -32.379200   68.577100  109.076000
  C    -34.412100   68.580000  108.719000
  H    -34.341300   69.603500  108.399000
  H    -35.258800   68.522000  109.350000
  H    -34.540300   68.105500  107.762000
  H    -34.680800   61.691700  111.748000
  H    -29.213900   67.728500  112.810000

 Total Charge           Charge          ....    0
 Multiplicity           Mult            ....    1
 Number of Electrons    NEL             ....  134
 Basis Dimension        Dim             ....  322

ORBITAL ENERGIES
----------------

  NO   OCC          E(Eh)            E(eV)
   0   2.0000     -88.965088     -2420.8631
   1   2.0000     -88.963775     -2420.8274
   2   2.0000     -10.334736      -281.2225
   3   2.0000     -10.333413      -281.1865
   4   2.0000     -10.313753      -280.6515
   5   2.0000     -10.313480      -280.6441
   6   2.0000     -10.300755      -280.2978
   7   2.0000     -10.298358      -280.2326
   8   2.0000     -10.295626      -280.1582
   9   2.0000     -10.293199      -280.0922
  10   2.0000     -10.285998      -279.8962
  11   2.0000     -10.281828      -279.7828
  12   2.0000     -10.279781      -279.7271
  13   2.0000     -10.278493      -279.6920
  14   2.0000     -10.272444      -279.5274
  15   2.0000     -10.265565      -279.3402
  16   2.0000      -8.079345      -219.8502
  17   2.0000      -8.078214      -219.8194
  18   2.0000      -6.038039      -164.3034
  19   2.0000      -6.036972      -164.2744
  20   2.0000      -6.033982      -164.1930
  21   2.0000      -6.032828      -164.1616
  22   2.0000      -6.029895      -164.0818
  23   2.0000      -6.028673      -164.0485
  24   2.0000      -1.007992       -27.4289
  25   2.0000      -0.987308       -26.8660
  26   2.0000      -0.920767       -25.0553
  27   2.0000      -0.912068       -24.8186
  28   2.0000      -0.871399       -23.7120
  29   2.0000      -0.858457       -23.3598
  30   2.0000      -0.847759       -23.0687
  31   2.0000      -0.823541       -22.4097
  32   2.0000      -0.785345       -21.3703
  33   2.0000      -0.773515       -21.0484
  34   2.0000      -0.716280       -19.4910
  35   2.0000      -0.706500       -19.2249
  36   2.0000      -0.693591       -18.8736
  37   2.0000      -0.668994       -18.2043
  38   2.0000      -0.642891       -17.4939
  39   2.0000      -0.620314       -16.8796
  40   2.0000      -0.595264       -16.1979
  41   2.0000      -0.581220       -15.8158
  42   2.0000      -0.563158       -15.3243
  43   2.0000      -0.555134       -15.1060
  44   2.0000      -0.545348       -14.8397
  45   2.0000      -0.536277       -14.5928
  46   2.0000      -0.520461       -14.1625
  47   2.0000      -0.518211       -14.1012
  48   2.0000      -0.507605       -13.8126
  49   2.0000      -0.504202       -13.7200
  50   2.0000      -0.493238       -13.4217
  51   2.0000      -0.481789       -13.1101
  52   2.0000      -0.476999       -12.9798
  53   2.0000      -0.466353       -12.6901
  54   2.0000      -0.455675       -12.3995
  55   2.0000      -0.448051       -12.1921
  56   2.0000      -0.446176       -12.1411
  57   2.0000      -0.439603       -11.9622
  58   2.0000      -0.431331       -11.7371
  59   2.0000      -0.429705       -11.6929
  60   2.0000      -0.415387       -11.3033
  61   2.0000      -0.409556       -11.1446
  62   2.0000      -0.401644       -10.9293
  63   2.0000      -0.362792        -9.8721
  64   2.0000      -0.336441        -9.1550
  65   2.0000      -0.323650        -8.8070
  66   2.0000      -0.284504        -7.7418
  67   0.0000       0.017422         0.4741
  68   0.0000       0.082812         2.2534
  69   0.0000       0.092218         2.5094
  70   0.0000       0.123021         3.3476
  71   0.0000       0.137289         3.7358

MULLIKEN ATOMIC CHARGES
-----------------------
   0 S :    0.070274
   1 C :   -0.120539
   2 C :   -0.111321
   3 C :   -0.027845
   4 C :   -0.040272
   5 H :    0.020089
   6 C :    0.128337
   7 H :    0.037739
   8 H :   -0.027806
   9 C :    0.004675
  10 H :    0.020059
  11 H :    0.004574
  12 C :   -0.061375
  13 H :    0.031344
  14 H :    0.023394
  15 H :    0.028258
  16 S :    0.083428
  17 C :   -0.071188
  18 C :   -0.006205
  19 C :   -0.039346
  20 C :   -0.142756
  21 H :   -0.020153
  22 C :    0.050996
  23 H :    0.023028
  24 H :    0.009489
  25 C :   -0.071115
  26 H :    0.039752
  27 H :    0.025022
  28 C :   -0.005271
  29 H :    0.018039
  30 H :    0.008460
  31 H :    0.026623
  32 H :    0.042595
  33 H :    0.049018
Sum of atomic charges:    0.0000000

LOEWDIN ATOMIC CHARGES
----------------------
   0 S :    0.381493
   1 C :   -0.181079
   2 C :   -0.059490
   3 C :   -0.072273
   4 C :   -0.179361
   5 H :    0.032255
   6 C :   -0.024914
   7 H :    0.046614
   8 H :    0.008759
   9 C :   -0.029043
  10 H :    0.021832
  11 H :    0.018205
  12 C :   -0.069252
  13 H :    0.034053
  14 H :    0.019811
  15 H :    0.023790
  16 S :    0.384413
  17 C :   -0.173642
  18 C :   -0.060512
  19 C :   -0.063440
  20 C :   -0.173106
  21 H :    0.018464
  22 C :   -0.032329
  23 H :    0.031683
  24 H :    0.025193
  25 C :   -0.046910
  26 H :    0.032096
  27 H :    0.029878
  28 C :   -0.065015
  29 H :    0.022073
  30 H :    0.016563
  31 H :    0.028742
  32 H :    0.021538
  33 H :    0.032912

  Mayer bond orders larger than 0.100000
B(  0-S ,  1-C ) :   1.1222 B(  0-S ,  4-C ) :   1.1453 B(  1-C ,  2-C ) :   1.5826
B(  1-C , 32-H ) :   0.9856 B(  2-C ,  3-C ) :   1.2646 B(  2-C ,  6-C ) :   1.0142
B(  3-C ,  4-C ) :   1.5640 B(  3-C ,  5-H ) :   0.9799 B(  4-C , 20-C ) :   1.0566
B(  6-C ,  7-H ) :   0.9287 B(  6-C ,  8-H ) :   0.9285 B(  6-C ,  9-C ) :   1.0838
B(  9-C , 10-H ) :   0.9521 B(  9-C , 11-H ) :   0.9480 B(  9-C , 12-C ) :   1.0763
B( 12-C , 13-H ) :   0.9712 B( 12-C , 14-H ) :   0.9782 B( 12-C , 15-H ) :   0.9739
B( 16-S , 17-C ) :   1.1370 B( 16-S , 20-C ) :   1.1240 B( 17-C , 18-C ) :   1.6515
B( 17-C , 33-H ) :   0.9610 B( 18-C , 19-C ) :   1.2230 B( 18-C , 21-H ) :   1.0072
B( 19-C , 20-C ) :   1.6096 B( 19-C , 22-C ) :   1.0587 B( 22-C , 23-H ) :   0.9304
B( 22-C , 24-H ) :   0.9281 B( 22-C , 25-C ) :   1.0570 B( 25-C , 26-H ) :   0.9598
B( 25-C , 27-H ) :   0.9523 B( 25-C , 28-C ) :   1.0831 B( 28-C , 29-H ) :   0.9717
B( 28-C , 30-H ) :   0.9742 B( 28-C , 31-H ) :   0.9700

Dispersion correction           -0.014408469
FINAL SINGLE POINT ENERGY     -1339.850195739029

DIPOLE MOMENT
-------------
                                X             Y             Z
Electronic contribution:     23.33488      -8.96830       6.26333
Nuclear contribution   :    -23.86190       9.34917      -6.47942
                        -----------------------------------------
Total Dipole Moment    :     -0.52702       0.38087      -0.21610
                        -----------------------------------------
Magnitude (a.u.)       :      0.68521
Magnitude (Debye)      :      1.74166

Rotational constants in cm-1:     0.018391     0.009017     0.007038
Rotational constants in MHz :   551.351746   270.313551   210.985999

                             ****ORCA TERMINATED NORMALLY****
TOTAL RUN TIME: 0 days 0 hours 0 minutes 27 seconds 863 msec
