                         Program Version 4.2.1 -  RELEASE  -
|  1> ! wB97X-D3 SP def2-SVP
|  2> %pal
|  3> nprocs 16
|  4> end
|  5>
|  6> * xyz 0 1
|  7> S 	 8.85991 	 -8.54258 	 70.546
|  8> C 	 7.20871 	 -8.14705 	 70.4191
|  9> C 	 6.52526 	 -8.83039 	 69.4893
| 10> C 	 7.32669 	 -9.84823 	 68.8737
| 11> C 	 8.573 	 -9.83776 	 69.4563
| 12> H 	 7.13046 	 -10.5155 	 68.0905
| 13> C 	 4.97871 	 -8.70946 	 69.3658
| 14> H 	 4.51951 	 -8.28538 	 70.2429
| 15> H 	 4.58867 	 -9.78374 	 69.4193
| 16> C 	 4.48189 	 -8.10154 	 68.0507
| 17> H 	 4.8817 	 -8.61253 	 67.1934
| 18> H 	 3.41391 	 -8.16255 	 68.1106
| 19> C 	 4.96542 	 -6.66137 	 67.9231
| 20> H 	 6.10103 	 -6.59921 	 67.8971
| 21> H 	 4.53354 	 -6.34521 	 66.9384
| 22> H 	 4.46665 	 -5.96311 	 68.668
| 23> S 	 11.0389 	 -10.0757 	 68.1823
| 24> C 	 11.8196 	 -11.7007 	 67.9897
| 25> C 	 10.9949 	 -12.6087 	 68.5745
| 26> C 	 9.76453 	 -12.1234 	 69.1146
| 27> C 	 9.65806 	 -10.7382 	 69.043
| 28> H 	 11.2744 	 -13.6717 	 68.4578
| 29> C 	 8.59243 	 -12.9855 	 69.5761
| 30> H 	 7.8133 	 -12.4763 	 70.1077
| 31> H 	 8.83234 	 -13.6535 	 70.4093
| 32> C 	 7.89258 	 -13.8518 	 68.4874
| 33> H 	 7.68327 	 -13.156 	 67.7194
| 34> H 	 6.9633 	 -14.2703 	 68.8444
| 35> C 	 8.85706 	 -14.8571 	 67.8775
| 36> H 	 9.47638 	 -14.442 	 67.111
| 37> H 	 8.21873 	 -15.6248 	 67.4136
| 38> H 	 9.44689 	 -15.4614 	 68.5826
| 39> H 	 6.77181 	 -7.48675 	 71.1287
| 40> H 	 12.5978 	 -11.9815 	 67.3814
| 41> *
| 42>
| 43>                          ****END OF INPUT****

CARTESIAN COORDINATES (ANGSTROEM)
---------------------------------
  S      8.859910   -8.542580   70.546000
  C      7.208710   -8.147050   70.419100
  C      6.525260   -8.830390   69.489300
  C      7.326690   -9.848230   68.873700
  C      8.573000   -9.837760   69.456300
  H      7.130460  -10.515500   68.090500
  C      4.978710   -8.709460   69.365800
  H      4.519510   -8.285380   70.242900
  H      4.588670   -9.783740   69.419300
  C      4.481890   -8.101540   68.050700
  H      4.881700   -8.612530   67.193400
  H      3.413910   -8.162550   68.110600
  C      4.965420   -6.661370   67.923100
  H      6.101030   -6.599210   67.897100
  H      4.533540   -6.345210   66.938400
  H      4.466650   -5.963110   68.668000
  S     11.038900  -10.075700   68.182300
  C     11.819600  -11.700700   67.989700
  C     10.994900  -12.608700   68.574500
  C      9.764530  -12.123400   69.114600
  C      9.658060  -10.738200   69.043000
  H     11.274400  -13.671700   68.457800
  C      8.592430  -12.985500   69.576100
  H      7.813300  -12.476300   70.107700
  H      8.832340  -13.653500   70.409300
  C      7.892580  -13.851800   68.487400
  H      7.683270  -13.156000   67.719400
  H      6.963300  -14.270300   68.844400
  C      8.857060  -14.857100   67.877500
  H      9.476380  -14.442000   67.111000
  H      8.218730  -15.624800   67.413600
  H      9.446890  -15.461400   68.582600
  H      6.771810   -7.486750   71.128700
  H     12.597800  -11.981500   67.381400

 Total Charge           Charge          ....    0
 Multiplicity           Mult            ....    1
 Number of Electrons    NEL             ....  134
 Basis Dimension        Dim             ....  322

ORBITAL ENERGIES
----------------

  NO   OCC          E(Eh)            E(eV)
   0   2.0000     -88.966668     -2420.9061
   1   2.0000     -88.961767     -2420.7727
   2   2.0000     -10.327048      -281.0133
   3   2.0000     -10.325977      -280.9841
   4   2.0000     -10.313799      -280.6527
   5   2.0000     -10.304043      -280.3873
   6   2.0000     -10.303176      -280.3637
   7   2.0000     -10.299293      -280.2580
   8   2.0000     -10.295729      -280.1610
   9   2.0000     -10.294141      -280.1178
  10   2.0000     -10.293666      -280.1049
  11   2.0000     -10.285134      -279.8727
  12   2.0000     -10.284583      -279.8577
  13   2.0000     -10.282976      -279.8140
  14   2.0000     -10.282250      -279.7942
  15   2.0000     -10.274602      -279.5861
  16   2.0000      -8.083343      -219.9589
  17   2.0000      -8.075562      -219.7472
  18   2.0000      -6.041557      -164.3991
  19   2.0000      -6.037781      -164.2964
  20   2.0000      -6.034242      -164.2001
  21   2.0000      -6.034078      -164.1956
  22   2.0000      -6.030158      -164.0889
  23   2.0000      -6.026217      -163.9817
  24   2.0000      -1.014774       -27.6134
  25   2.0000      -0.984637       -26.7933
  26   2.0000      -0.911267       -24.7968
  27   2.0000      -0.905971       -24.6527
  28   2.0000      -0.873260       -23.7626
  29   2.0000      -0.854344       -23.2479
  30   2.0000      -0.839553       -22.8454
  31   2.0000      -0.818875       -22.2827
  32   2.0000      -0.781258       -21.2591
  33   2.0000      -0.773047       -21.0357
  34   2.0000      -0.708837       -19.2884
  35   2.0000      -0.695726       -18.9317
  36   2.0000      -0.687735       -18.7142
  37   2.0000      -0.659436       -17.9442
  38   2.0000      -0.651112       -17.7177
  39   2.0000      -0.621344       -16.9076
  40   2.0000      -0.601853       -16.3773
  41   2.0000      -0.571992       -15.5647
  42   2.0000      -0.554819       -15.0974
  43   2.0000      -0.548939       -14.9374
  44   2.0000      -0.543981       -14.8025
  45   2.0000      -0.536416       -14.5966
  46   2.0000      -0.516437       -14.0530
  47   2.0000      -0.509191       -13.8558
  48   2.0000      -0.503833       -13.7100
  49   2.0000      -0.495838       -13.4924
  50   2.0000      -0.490684       -13.3522
  51   2.0000      -0.484499       -13.1839
  52   2.0000      -0.471475       -12.8295
  53   2.0000      -0.470107       -12.7923
  54   2.0000      -0.461454       -12.5568
  55   2.0000      -0.452925       -12.3247
  56   2.0000      -0.439104       -11.9486
  57   2.0000      -0.430617       -11.7177
  58   2.0000      -0.425666       -11.5830
  59   2.0000      -0.419337       -11.4107
  60   2.0000      -0.418637       -11.3917
  61   2.0000      -0.415651       -11.3104
  62   2.0000      -0.407030       -11.0759
  63   2.0000      -0.346538        -9.4298
  64   2.0000      -0.333006        -9.0616
  65   2.0000      -0.326438        -8.8828
  66   2.0000      -0.300176        -8.1682
  67   0.0000       0.041041         1.1168
  68   0.0000       0.062578         1.7028
  69   0.0000       0.116421         3.1680
  70   0.0000       0.121941         3.3182
  71   0.0000       0.130055         3.5390

MULLIKEN ATOMIC CHARGES
-----------------------
   0 S :    0.134080
   1 C :   -0.116398
   2 C :   -0.046512
   3 C :    0.052252
   4 C :   -0.171982
   5 H :   -0.001754
   6 C :    0.026940
   7 H :    0.018540
   8 H :    0.033428
   9 C :   -0.038293
  10 H :    0.028757
  11 H :    0.028449
  12 C :   -0.101260
  13 H :    0.066541
  14 H :    0.032432
  15 H :    0.037200
  16 S :    0.084477
  17 C :   -0.061719
  18 C :   -0.044626
  19 C :   -0.008060
  20 C :   -0.164502
  21 H :    0.032001
  22 C :    0.048966
  23 H :    0.011642
  24 H :    0.017278
  25 C :   -0.039276
  26 H :    0.014057
  27 H :    0.030920
  28 C :   -0.063613
  29 H :    0.043234
  30 H :    0.023808
  31 H :    0.029454
  32 H :    0.034757
  33 H :    0.028781
Sum of atomic charges:    0.0000000

LOEWDIN ATOMIC CHARGES
----------------------
   0 S :    0.437631
   1 C :   -0.201055
   2 C :   -0.064391
   3 C :   -0.045794
   4 C :   -0.198091
   5 H :    0.025901
   6 C :   -0.031363
   7 H :    0.024292
   8 H :    0.034785
   9 C :   -0.041339
  10 H :    0.023610
  11 H :    0.023466
  12 C :   -0.077326
  13 H :    0.036332
  14 H :    0.027258
  15 H :    0.027795
  16 S :    0.370101
  17 C :   -0.160236
  18 C :   -0.067883
  19 C :   -0.062091
  20 C :   -0.189308
  21 H :    0.037299
  22 C :   -0.038896
  23 H :    0.026640
  24 H :    0.027807
  25 C :   -0.031202
  26 H :    0.018743
  27 H :    0.024266
  28 C :   -0.069864
  29 H :    0.023450
  30 H :    0.029067
  31 H :    0.022647
  32 H :    0.020053
  33 H :    0.017693

  Mayer bond orders larger than 0.100000
B(  0-S ,  1-C ) :   1.1380 B(  0-S ,  4-C ) :   1.1706 B(  1-C ,  2-C ) :   1.6341
B(  1-C , 32-H ) :   0.9717 B(  2-C ,  3-C ) :   1.2051 B(  2-C ,  6-C ) :   1.0036
B(  3-C ,  4-C ) :   1.5848 B(  3-C ,  5-H ) :   1.0096 B(  4-C , 20-C ) :   1.0084
B(  6-C ,  7-H ) :   0.9523 B(  6-C ,  8-H ) :   0.9466 B(  6-C ,  9-C ) :   1.0695
B(  9-C , 10-H ) :   0.9575 B(  9-C , 11-H ) :   0.9535 B(  9-C , 12-C ) :   1.0777
B( 12-C , 13-H ) :   0.9702 B( 12-C , 14-H ) :   0.9742 B( 12-C , 15-H ) :   0.9748
B( 16-S , 17-C ) :   1.1199 B( 16-S , 20-C ) :   1.1474 B( 17-C , 18-C ) :   1.6415
B( 17-C , 33-H ) :   0.9762 B( 18-C , 19-C ) :   1.2320 B( 18-C , 21-H ) :   0.9742
B( 19-C , 20-C ) :   1.6139 B( 19-C , 22-C ) :   1.0468 B( 22-C , 23-H ) :   0.9301
B( 22-C , 24-H ) :   0.9357 B( 22-C , 25-C ) :   1.0685 B( 25-C , 26-H ) :   0.9491
B( 25-C , 27-H ) :   0.9587 B( 25-C , 28-C ) :   1.0865 B( 28-C , 29-H ) :   0.9699
B( 28-C , 30-H ) :   0.9680 B( 28-C , 31-H ) :   0.9748

Dispersion correction           -0.014933904
FINAL SINGLE POINT ENERGY     -1339.867172235264

DIPOLE MOMENT
-------------
                                X             Y             Z
Electronic contribution:     20.87355       9.67223       7.23360
Nuclear contribution   :    -21.52738     -10.10604      -7.38084
                        -----------------------------------------
Total Dipole Moment    :     -0.65383      -0.43382      -0.14723
                        -----------------------------------------
Magnitude (a.u.)       :      0.79835
Magnitude (Debye)      :      2.02925

Rotational constants in cm-1:     0.020801     0.008303     0.006868
Rotational constants in MHz :   623.605299   248.914546   205.907697

                             ****ORCA TERMINATED NORMALLY****
TOTAL RUN TIME: 0 days 0 hours 0 minutes 30 seconds 304 msec
