                         Program Version 4.2.1 -  RELEASE  -
|  1> ! wB97X-D3 SP def2-SVP
|  2> %pal
|  3> nprocs 16
|  4> end
|  5>
|  6> * xyz 0 1
|  7> S 	 59.8246 	 20.5867 	 79.9976
|  8> C 	 59.4188 	 21.7011 	 81.2482
|  9> C 	 58.5856 	 21.1513 	 82.2325
| 10> C 	 58.3828 	 19.7719 	 81.9637
| 11> C 	 58.871 	 19.3564 	 80.7093
| 12> H 	 57.7495 	 19.0119 	 82.5225
| 13> C 	 58.0894 	 21.9195 	 83.4539
| 14> H 	 58.7809 	 22.7166 	 83.6173
| 15> H 	 58.0192 	 21.3645 	 84.3935
| 16> C 	 56.8455 	 22.6989 	 83.2157
| 17> H 	 56.6087 	 23.4895 	 83.9414
| 18> H 	 56.9694 	 23.2916 	 82.3078
| 19> C 	 55.5625 	 21.8141 	 83.0401
| 20> H 	 54.6628 	 22.455 	 82.9926
| 21> H 	 55.6238 	 21.3291 	 82.1005
| 22> H 	 55.2593 	 21.1496 	 83.8812
| 23> S 	 60.1931 	 17.2329 	 79.6715
| 24> C 	 59.1603 	 16.0561 	 78.8191
| 25> C 	 57.9164 	 16.0026 	 79.3481
| 26> C 	 57.5966 	 17.2296 	 80.0692
| 27> C 	 58.7424 	 17.9961 	 80.1985
| 28> H 	 57.2162 	 15.1776 	 79.1708
| 29> C 	 56.1445 	 17.7325 	 80.2359
| 30> H 	 55.5871 	 17.7071 	 79.3416
| 31> H 	 56.0863 	 18.814 	 80.3783
| 32> C 	 55.2605 	 17.2264 	 81.4695
| 33> H 	 55.8512 	 17.1813 	 82.3734
| 34> H 	 54.8649 	 16.2187 	 81.2487
| 35> C 	 53.9735 	 18.0817 	 81.6537
| 36> H 	 53.3634 	 17.8065 	 82.4845
| 37> H 	 53.4509 	 18.1655 	 80.7395
| 38> H 	 54.2643 	 19.1212 	 81.8981
| 39> H 	 59.7474 	 22.6936 	 81.2356
| 40> H 	 59.6629 	 15.2672 	 78.1966
| 41> *
| 42>
| 43>                          ****END OF INPUT****

CARTESIAN COORDINATES (ANGSTROEM)
---------------------------------
  S     59.824600   20.586700   79.997600
  C     59.418800   21.701100   81.248200
  C     58.585600   21.151300   82.232500
  C     58.382800   19.771900   81.963700
  C     58.871000   19.356400   80.709300
  H     57.749500   19.011900   82.522500
  C     58.089400   21.919500   83.453900
  H     58.780900   22.716600   83.617300
  H     58.019200   21.364500   84.393500
  C     56.845500   22.698900   83.215700
  H     56.608700   23.489500   83.941400
  H     56.969400   23.291600   82.307800
  C     55.562500   21.814100   83.040100
  H     54.662800   22.455000   82.992600
  H     55.623800   21.329100   82.100500
  H     55.259300   21.149600   83.881200
  S     60.193100   17.232900   79.671500
  C     59.160300   16.056100   78.819100
  C     57.916400   16.002600   79.348100
  C     57.596600   17.229600   80.069200
  C     58.742400   17.996100   80.198500
  H     57.216200   15.177600   79.170800
  C     56.144500   17.732500   80.235900
  H     55.587100   17.707100   79.341600
  H     56.086300   18.814000   80.378300
  C     55.260500   17.226400   81.469500
  H     55.851200   17.181300   82.373400
  H     54.864900   16.218700   81.248700
  C     53.973500   18.081700   81.653700
  H     53.363400   17.806500   82.484500
  H     53.450900   18.165500   80.739500
  H     54.264300   19.121200   81.898100
  H     59.747400   22.693600   81.235600
  H     59.662900   15.267200   78.196600

 Total Charge           Charge          ....    0
 Multiplicity           Mult            ....    1
 Number of Electrons    NEL             ....  134
 Basis Dimension        Dim             ....  322

ORBITAL ENERGIES
----------------

  NO   OCC          E(Eh)            E(eV)
   0   2.0000     -88.970474     -2421.0097
   1   2.0000     -88.962540     -2420.7938
   2   2.0000     -10.323992      -280.9301
   3   2.0000     -10.323365      -280.9130
   4   2.0000     -10.319188      -280.7994
   5   2.0000     -10.311324      -280.5854
   6   2.0000     -10.307190      -280.4729
   7   2.0000     -10.305924      -280.4384
   8   2.0000     -10.298597      -280.2391
   9   2.0000     -10.298047      -280.2241
  10   2.0000     -10.292826      -280.0820
  11   2.0000     -10.291993      -280.0594
  12   2.0000     -10.289588      -279.9939
  13   2.0000     -10.286268      -279.9036
  14   2.0000     -10.276076      -279.6263
  15   2.0000     -10.275146      -279.6009
  16   2.0000      -8.085907      -220.0287
  17   2.0000      -8.078032      -219.8144
  18   2.0000      -6.044159      -164.4699
  19   2.0000      -6.040227      -164.3629
  20   2.0000      -6.036993      -164.2749
  21   2.0000      -6.036457      -164.2603
  22   2.0000      -6.032886      -164.1632
  23   2.0000      -6.028366      -164.0402
  24   2.0000      -1.010885       -27.5076
  25   2.0000      -0.986972       -26.8569
  26   2.0000      -0.916606       -24.9421
  27   2.0000      -0.897697       -24.4276
  28   2.0000      -0.868385       -23.6299
  29   2.0000      -0.850645       -23.1472
  30   2.0000      -0.843836       -22.9619
  31   2.0000      -0.812276       -22.1032
  32   2.0000      -0.785963       -21.3871
  33   2.0000      -0.771917       -21.0049
  34   2.0000      -0.703242       -19.1362
  35   2.0000      -0.699517       -19.0348
  36   2.0000      -0.692981       -18.8570
  37   2.0000      -0.660441       -17.9715
  38   2.0000      -0.641937       -17.4680
  39   2.0000      -0.611809       -16.6482
  40   2.0000      -0.599153       -16.3038
  41   2.0000      -0.574762       -15.6401
  42   2.0000      -0.559618       -15.2280
  43   2.0000      -0.549338       -14.9483
  44   2.0000      -0.543891       -14.8000
  45   2.0000      -0.526019       -14.3137
  46   2.0000      -0.511994       -13.9321
  47   2.0000      -0.505736       -13.7618
  48   2.0000      -0.502078       -13.6622
  49   2.0000      -0.495976       -13.4962
  50   2.0000      -0.489752       -13.3268
  51   2.0000      -0.479549       -13.0492
  52   2.0000      -0.471084       -12.8188
  53   2.0000      -0.465418       -12.6647
  54   2.0000      -0.455000       -12.3812
  55   2.0000      -0.451669       -12.2905
  56   2.0000      -0.442192       -12.0327
  57   2.0000      -0.439882       -11.9698
  58   2.0000      -0.432890       -11.7795
  59   2.0000      -0.428099       -11.6492
  60   2.0000      -0.423290       -11.5183
  61   2.0000      -0.415647       -11.3103
  62   2.0000      -0.407657       -11.0929
  63   2.0000      -0.342845        -9.3293
  64   2.0000      -0.334663        -9.1066
  65   2.0000      -0.328686        -8.9440
  66   2.0000      -0.291041        -7.9196
  67   0.0000       0.026938         0.7330
  68   0.0000       0.073955         2.0124
  69   0.0000       0.095633         2.6023
  70   0.0000       0.123487         3.3602
  71   0.0000       0.129698         3.5293

MULLIKEN ATOMIC CHARGES
-----------------------
   0 S :    0.140921
   1 C :   -0.108504
   2 C :   -0.083794
   3 C :    0.008911
   4 C :   -0.175072
   5 H :    0.034190
   6 C :    0.125796
   7 H :    0.008901
   8 H :    0.034607
   9 C :   -0.083720
  10 H :    0.029459
  11 H :    0.017628
  12 C :   -0.085035
  13 H :    0.022866
  14 H :    0.047015
  15 H :    0.036766
  16 S :    0.098806
  17 C :   -0.119515
  18 C :   -0.012133
  19 C :   -0.000128
  20 C :   -0.153640
  21 H :    0.034444
  22 C :    0.021191
  23 H :    0.018643
  24 H :    0.016774
  25 C :   -0.072489
  26 H :    0.032979
  27 H :    0.030204
  28 C :   -0.045158
  29 H :    0.035627
  30 H :    0.026844
  31 H :    0.017312
  32 H :    0.027924
  33 H :    0.071382
Sum of atomic charges:    0.0000000

LOEWDIN ATOMIC CHARGES
----------------------
   0 S :    0.446201
   1 C :   -0.197533
   2 C :   -0.058518
   3 C :   -0.065757
   4 C :   -0.220010
   5 H :    0.041375
   6 C :   -0.030312
   7 H :    0.031386
   8 H :    0.033526
   9 C :   -0.042048
  10 H :    0.024185
  11 H :    0.024537
  12 C :   -0.075968
  13 H :    0.027131
  14 H :    0.018338
  15 H :    0.027277
  16 S :    0.386460
  17 C :   -0.176383
  18 C :   -0.060072
  19 C :   -0.059031
  20 C :   -0.194615
  21 H :    0.037344
  22 C :   -0.035017
  23 H :    0.025029
  24 H :    0.031526
  25 C :   -0.033287
  26 H :    0.018925
  27 H :    0.021218
  28 C :   -0.064428
  29 H :    0.025198
  30 H :    0.020301
  31 H :    0.025488
  32 H :    0.014509
  33 H :    0.033025

  Mayer bond orders larger than 0.100000
B(  0-S ,  1-C ) :   1.1687 B(  0-S ,  4-C ) :   1.1770 B(  1-C ,  2-C ) :   1.5633
B(  1-C ,  4-C ) :   0.1031 B(  1-C , 32-H ) :   0.9721 B(  2-C ,  3-C ) :   1.2767
B(  2-C ,  6-C ) :   1.0202 B(  3-C ,  4-C ) :   1.5260 B(  3-C ,  5-H ) :   0.9840
B(  4-C , 20-C ) :   1.0428 B(  6-C ,  7-H ) :   0.9263 B(  6-C ,  8-H ) :   0.9491
B(  6-C ,  9-C ) :   1.0748 B(  9-C , 10-H ) :   0.9575 B(  9-C , 11-H ) :   0.9502
B(  9-C , 12-C ) :   1.0770 B( 12-C , 13-H ) :   0.9716 B( 12-C , 14-H ) :   0.9739
B( 12-C , 15-H ) :   0.9763 B( 16-S , 17-C ) :   1.1129 B( 16-S , 20-C ) :   1.1460
B( 17-C , 18-C ) :   1.6657 B( 17-C , 33-H ) :   0.9629 B( 18-C , 19-C ) :   1.1852
B( 18-C , 21-H ) :   0.9869 B( 19-C , 20-C ) :   1.6314 B( 19-C , 22-C ) :   1.0336
B( 22-C , 23-H ) :   0.9435 B( 22-C , 24-H ) :   0.9432 B( 22-C , 25-C ) :   1.0393
B( 25-C , 26-H ) :   0.9602 B( 25-C , 27-H ) :   0.9582 B( 25-C , 28-C ) :   1.0799
B( 28-C , 29-H ) :   0.9729 B( 28-C , 30-H ) :   0.9750 B( 28-C , 31-H ) :   0.9722

Dispersion correction           -0.015319125
FINAL SINGLE POINT ENERGY     -1339.862560379674

DIPOLE MOMENT
-------------
                                X             Y             Z
Electronic contribution:     28.54826      -7.57804     -14.81048
Nuclear contribution   :    -29.07380       7.72404      15.04059
                        -----------------------------------------
Total Dipole Moment    :     -0.52554       0.14600       0.23010
                        -----------------------------------------
Magnitude (a.u.)       :      0.59199
Magnitude (Debye)      :      1.50472

Rotational constants in cm-1:     0.017147     0.010620     0.006955
Rotational constants in MHz :   514.057202   318.383841   208.520261

                             ****ORCA TERMINATED NORMALLY****
TOTAL RUN TIME: 0 days 0 hours 0 minutes 32 seconds 299 msec
