                         Program Version 4.2.1 -  RELEASE  -
|  1> ! wB97X-D3 SP def2-SVP
|  2> %pal
|  3> nprocs 16
|  4> end
|  5>
|  6> * xyz 0 1
|  7> S 	 1.55831 	 -8.3414 	 92.1101
|  8> C 	 1.97094 	 -8.20132 	 93.7475
|  9> C 	 1.33593 	 -9.12243 	 94.5561
| 10> C 	 0.279221 	 -9.80001 	 93.8244
| 11> C 	 0.192092 	 -9.36623 	 92.5292
| 12> H 	 -0.47521 	 -10.5741 	 94.1467
| 13> C 	 1.59155 	 -9.33485 	 96.1005
| 14> H 	 1.25779 	 -8.47909 	 96.6285
| 15> H 	 2.67402 	 -9.19017 	 96.2445
| 16> C 	 1.04619 	 -10.5049 	 96.8362
| 17> H 	 -0.0332563 	 -10.5063 	 96.7472
| 18> H 	 1.40411 	 -11.5248 	 96.4565
| 19> C 	 1.36598 	 -10.5331 	 98.368
| 20> H 	 0.767598 	 -9.73605 	 98.8999
| 21> H 	 1.17814 	 -11.5826 	 98.736
| 22> H 	 2.44524 	 -10.2634 	 98.5502
| 23> S 	 -1.87796 	 -8.25243 	 91.1211
| 24> C 	 -3.01067 	 -9.29616 	 90.2818
| 25> C 	 -2.62911 	 -10.6292 	 90.3829
| 26> C 	 -1.46201 	 -10.8599 	 91.1606
| 27> C 	 -0.942034 	 -9.67722 	 91.6627
| 28> H 	 -3.25781 	 -11.3987 	 89.912
| 29> C 	 -1.04942 	 -12.2766 	 91.4317
| 30> H 	 -1.91801 	 -12.9162 	 91.2682
| 31> H 	 -0.945589 	 -12.3577 	 92.5085
| 32> C 	 0.295838 	 -12.6717 	 90.7251
| 33> H 	 1.07146 	 -11.9539 	 91.0676
| 34> H 	 0.16604 	 -12.5386 	 89.6392
| 35> C 	 0.65929 	 -14.1146 	 90.9349
| 36> H 	 0.553854 	 -14.4354 	 91.9794
| 37> H 	 1.60535 	 -14.4546 	 90.521
| 38> H 	 -0.0529275 	 -14.6782 	 90.454
| 39> H 	 2.83554 	 -7.63654 	 94.1053
| 40> H 	 -3.8626 	 -8.89941 	 89.789
| 41> *
| 42>
| 43>                          ****END OF INPUT****

CARTESIAN COORDINATES (ANGSTROEM)
---------------------------------
  S      1.558310   -8.341400   92.110100
  C      1.970940   -8.201320   93.747500
  C      1.335930   -9.122430   94.556100
  C      0.279221   -9.800010   93.824400
  C      0.192092   -9.366230   92.529200
  H     -0.475210  -10.574100   94.146700
  C      1.591550   -9.334850   96.100500
  H      1.257790   -8.479090   96.628500
  H      2.674020   -9.190170   96.244500
  C      1.046190  -10.504900   96.836200
  H     -0.033256  -10.506300   96.747200
  H      1.404110  -11.524800   96.456500
  C      1.365980  -10.533100   98.368000
  H      0.767598   -9.736050   98.899900
  H      1.178140  -11.582600   98.736000
  H      2.445240  -10.263400   98.550200
  S     -1.877960   -8.252430   91.121100
  C     -3.010670   -9.296160   90.281800
  C     -2.629110  -10.629200   90.382900
  C     -1.462010  -10.859900   91.160600
  C     -0.942034   -9.677220   91.662700
  H     -3.257810  -11.398700   89.912000
  C     -1.049420  -12.276600   91.431700
  H     -1.918010  -12.916200   91.268200
  H     -0.945589  -12.357700   92.508500
  C      0.295838  -12.671700   90.725100
  H      1.071460  -11.953900   91.067600
  H      0.166040  -12.538600   89.639200
  C      0.659290  -14.114600   90.934900
  H      0.553854  -14.435400   91.979400
  H      1.605350  -14.454600   90.521000
  H     -0.052928  -14.678200   90.454000
  H      2.835540   -7.636540   94.105300
  H     -3.862600   -8.899410   89.789000

 Total Charge           Charge          ....    0
 Multiplicity           Mult            ....    1
 Number of Electrons    NEL             ....  134
 Basis Dimension        Dim             ....  322

ORBITAL ENERGIES
----------------

  NO   OCC          E(Eh)            E(eV)
   0   2.0000     -88.966872     -2420.9117
   1   2.0000     -88.962865     -2420.8026
   2   2.0000     -10.326793      -281.0063
   3   2.0000     -10.324389      -280.9409
   4   2.0000     -10.315026      -280.6861
   5   2.0000     -10.309807      -280.5441
   6   2.0000     -10.307789      -280.4892
   7   2.0000     -10.301516      -280.3185
   8   2.0000     -10.297642      -280.2131
   9   2.0000     -10.294438      -280.1259
  10   2.0000     -10.293225      -280.0929
  11   2.0000     -10.293061      -280.0884
  12   2.0000     -10.292777      -280.0807
  13   2.0000     -10.292516      -280.0736
  14   2.0000     -10.288522      -279.9649
  15   2.0000     -10.267886      -279.4034
  16   2.0000      -8.082381      -219.9328
  17   2.0000      -8.077113      -219.7894
  18   2.0000      -6.040773      -164.3778
  19   2.0000      -6.036969      -164.2743
  20   2.0000      -6.035563      -164.2360
  21   2.0000      -6.033022      -164.1669
  22   2.0000      -6.031649      -164.1295
  23   2.0000      -6.028010      -164.0305
  24   2.0000      -1.006303       -27.3829
  25   2.0000      -0.982648       -26.7392
  26   2.0000      -0.909551       -24.7501
  27   2.0000      -0.907684       -24.6993
  28   2.0000      -0.869112       -23.6497
  29   2.0000      -0.854969       -23.2649
  30   2.0000      -0.845075       -22.9957
  31   2.0000      -0.810178       -22.0461
  32   2.0000      -0.781844       -21.2751
  33   2.0000      -0.770855       -20.9760
  34   2.0000      -0.708022       -19.2663
  35   2.0000      -0.697740       -18.9865
  36   2.0000      -0.685210       -18.6455
  37   2.0000      -0.661660       -18.0047
  38   2.0000      -0.642639       -17.4871
  39   2.0000      -0.613240       -16.6871
  40   2.0000      -0.595083       -16.1930
  41   2.0000      -0.568738       -15.4761
  42   2.0000      -0.561439       -15.2775
  43   2.0000      -0.557521       -15.1709
  44   2.0000      -0.526813       -14.3353
  45   2.0000      -0.524320       -14.2675
  46   2.0000      -0.518037       -14.0965
  47   2.0000      -0.509404       -13.8616
  48   2.0000      -0.500393       -13.6164
  49   2.0000      -0.495506       -13.4834
  50   2.0000      -0.488898       -13.3036
  51   2.0000      -0.482417       -13.1272
  52   2.0000      -0.467789       -12.7292
  53   2.0000      -0.463642       -12.6164
  54   2.0000      -0.460539       -12.5319
  55   2.0000      -0.447023       -12.1641
  56   2.0000      -0.446141       -12.1401
  57   2.0000      -0.437941       -11.9170
  58   2.0000      -0.433831       -11.8051
  59   2.0000      -0.424558       -11.5528
  60   2.0000      -0.418617       -11.3911
  61   2.0000      -0.417778       -11.3683
  62   2.0000      -0.415249       -11.2995
  63   2.0000      -0.343574        -9.3491
  64   2.0000      -0.330806        -9.0017
  65   2.0000      -0.323459        -8.8018
  66   2.0000      -0.294551        -8.0151
  67   0.0000       0.034540         0.9399
  68   0.0000       0.064160         1.7459
  69   0.0000       0.113253         3.0818
  70   0.0000       0.117884         3.2078
  71   0.0000       0.135582         3.6894

MULLIKEN ATOMIC CHARGES
-----------------------
   0 S :    0.137602
   1 C :   -0.132907
   2 C :   -0.062130
   3 C :    0.003730
   4 C :   -0.173395
   5 H :    0.042395
   6 C :    0.077323
   7 H :    0.020308
   8 H :    0.014851
   9 C :   -0.093390
  10 H :    0.035318
  11 H :    0.037696
  12 C :   -0.093907
  13 H :    0.045627
  14 H :    0.054065
  15 H :    0.038425
  16 S :    0.102571
  17 C :   -0.089581
  18 C :   -0.049281
  19 C :   -0.011890
  20 C :   -0.191066
  21 H :    0.025675
  22 C :    0.073150
  23 H :    0.013876
  24 H :    0.013738
  25 C :   -0.086829
  26 H :    0.048905
  27 H :    0.033232
  28 C :    0.012194
  29 H :    0.019386
  30 H :    0.035504
  31 H :   -0.000924
  32 H :    0.051224
  33 H :    0.048509
Sum of atomic charges:   -0.0000000

LOEWDIN ATOMIC CHARGES
----------------------
   0 S :    0.422468
   1 C :   -0.217833
   2 C :   -0.058343
   3 C :   -0.065438
   4 C :   -0.204248
   5 H :    0.042883
   6 C :   -0.039340
   7 H :    0.030092
   8 H :    0.030622
   9 C :   -0.051314
  10 H :    0.023462
  11 H :    0.028751
  12 C :   -0.071572
  13 H :    0.029141
  14 H :    0.035567
  15 H :    0.027469
  16 S :    0.392934
  17 C :   -0.177759
  18 C :   -0.075145
  19 C :   -0.056172
  20 C :   -0.186092
  21 H :    0.034234
  22 C :   -0.030494
  23 H :    0.029206
  24 H :    0.028377
  25 C :   -0.034974
  26 H :    0.030029
  27 H :    0.027369
  28 C :   -0.064524
  29 H :    0.025410
  30 H :    0.028422
  31 H :    0.014668
  32 H :    0.030505
  33 H :    0.021641

  Mayer bond orders larger than 0.100000
B(  0-S ,  1-C ) :   1.1464 B(  0-S ,  4-C ) :   1.1445 B(  1-C ,  2-C ) :   1.6271
B(  1-C , 32-H ) :   0.9650 B(  2-C ,  3-C ) :   1.2239 B(  2-C ,  6-C ) :   0.9988
B(  3-C ,  4-C ) :   1.6010 B(  3-C ,  5-H ) :   0.9800 B(  4-C , 20-C ) :   1.0355
B(  6-C ,  7-H ) :   0.9373 B(  6-C ,  8-H ) :   0.9353 B(  6-C ,  9-C ) :   1.0785
B(  9-C , 10-H ) :   0.9443 B(  9-C , 11-H ) :   0.9577 B(  9-C , 12-C ) :   1.0750
B( 12-C , 13-H ) :   0.9745 B( 12-C , 14-H ) :   0.9750 B( 12-C , 15-H ) :   0.9769
B( 16-S , 17-C ) :   1.1592 B( 16-S , 20-C ) :   1.1417 B( 17-C , 18-C ) :   1.5969
B( 17-C , 20-C ) :   0.1048 B( 17-C , 33-H ) :   0.9744 B( 18-C , 19-C ) :   1.2438
B( 18-C , 21-H ) :   0.9854 B( 19-C , 20-C ) :   1.5970 B( 19-C , 22-C ) :   1.0385
B( 22-C , 23-H ) :   0.9365 B( 22-C , 24-H ) :   0.9261 B( 22-C , 25-C ) :   1.0450
B( 25-C , 26-H ) :   0.9574 B( 25-C , 27-H ) :   0.9582 B( 25-C , 28-C ) :   1.0849
B( 28-C , 29-H ) :   0.9708 B( 28-C , 30-H ) :   0.9721 B( 28-C , 31-H ) :   0.9674

Dispersion correction           -0.013824723
FINAL SINGLE POINT ENERGY     -1339.876467672549

DIPOLE MOMENT
-------------
                                X             Y             Z
Electronic contribution:     -5.77383      21.90174     -17.11667
Nuclear contribution   :      5.69780     -22.41039      17.49323
                        -----------------------------------------
Total Dipole Moment    :     -0.07603      -0.50865       0.37657
                        -----------------------------------------
Magnitude (a.u.)       :      0.63742
Magnitude (Debye)      :      1.62020

Rotational constants in cm-1:     0.016524     0.008297     0.006902
Rotational constants in MHz :   495.366869   248.733670   206.905176

                             ****ORCA TERMINATED NORMALLY****
TOTAL RUN TIME: 0 days 0 hours 0 minutes 31 seconds 102 msec
