                         Program Version 4.2.1 -  RELEASE  -
|  1> ! wB97X-D3 SP def2-SVP
|  2> %pal
|  3> nprocs 16
|  4> end
|  5>
|  6> * xyz 0 1
|  7> S 	 10.8595 	 -14.2877 	 86.3099
|  8> C 	 12.5854 	 -14.6135 	 86.2879
|  9> C 	 13.1935 	 -13.8163 	 87.2844
| 10> C 	 12.2764 	 -12.9308 	 87.9629
| 11> C 	 11.0289 	 -12.9631 	 87.3784
| 12> H 	 12.5537 	 -12.2578 	 88.7744
| 13> C 	 14.6133 	 -13.9466 	 87.7234
| 14> H 	 15.2297 	 -13.0107 	 87.9824
| 15> H 	 15.1149 	 -14.4085 	 86.9034
| 16> C 	 14.8128 	 -14.8752 	 88.8873
| 17> H 	 15.9336 	 -14.9297 	 88.963
| 18> H 	 14.4399 	 -14.2696 	 89.7138
| 19> C 	 14.3366 	 -16.322 	 88.884
| 20> H 	 14.882 	 -17.0079 	 88.156
| 21> H 	 14.3319 	 -16.7255 	 89.8833
| 22> H 	 13.3145 	 -16.2504 	 88.4824
| 23> S 	 8.71422 	 -13.381 	 88.5922
| 24> C 	 7.60292 	 -12.0905 	 88.9239
| 25> C 	 8.30254 	 -10.9059 	 88.8722
| 26> C 	 9.62171 	 -11.0509 	 88.2972
| 27> C 	 9.88412 	 -12.3298 	 87.891
| 28> H 	 7.98306 	 -9.91286 	 89.1585
| 29> C 	 10.5434 	 -9.82427 	 88.2124
| 30> H 	 11.6069 	 -10.1114 	 88.2267
| 31> H 	 10.3586 	 -9.29376 	 89.1369
| 32> C 	 10.2677 	 -8.85609 	 87.0507
| 33> H 	 9.18558 	 -8.69617 	 87.1178
| 34> H 	 10.3638 	 -9.24587 	 86.1308
| 35> C 	 10.911 	 -7.50086 	 87.1655
| 36> H 	 10.9111 	 -7.10425 	 88.161
| 37> H 	 10.4391 	 -6.81549 	 86.4459
| 38> H 	 11.9468 	 -7.71116 	 86.8703
| 39> H 	 12.9825 	 -15.4825 	 85.7825
| 40> H 	 6.52297 	 -12.3189 	 89.0745
| 41> *
| 42>
| 43>                          ****END OF INPUT****

CARTESIAN COORDINATES (ANGSTROEM)
---------------------------------
  S     10.859500  -14.287700   86.309900
  C     12.585400  -14.613500   86.287900
  C     13.193500  -13.816300   87.284400
  C     12.276400  -12.930800   87.962900
  C     11.028900  -12.963100   87.378400
  H     12.553700  -12.257800   88.774400
  C     14.613300  -13.946600   87.723400
  H     15.229700  -13.010700   87.982400
  H     15.114900  -14.408500   86.903400
  C     14.812800  -14.875200   88.887300
  H     15.933600  -14.929700   88.963000
  H     14.439900  -14.269600   89.713800
  C     14.336600  -16.322000   88.884000
  H     14.882000  -17.007900   88.156000
  H     14.331900  -16.725500   89.883300
  H     13.314500  -16.250400   88.482400
  S      8.714220  -13.381000   88.592200
  C      7.602920  -12.090500   88.923900
  C      8.302540  -10.905900   88.872200
  C      9.621710  -11.050900   88.297200
  C      9.884120  -12.329800   87.891000
  H      7.983060   -9.912860   89.158500
  C     10.543400   -9.824270   88.212400
  H     11.606900  -10.111400   88.226700
  H     10.358600   -9.293760   89.136900
  C     10.267700   -8.856090   87.050700
  H      9.185580   -8.696170   87.117800
  H     10.363800   -9.245870   86.130800
  C     10.911000   -7.500860   87.165500
  H     10.911100   -7.104250   88.161000
  H     10.439100   -6.815490   86.445900
  H     11.946800   -7.711160   86.870300
  H     12.982500  -15.482500   85.782500
  H      6.522970  -12.318900   89.074500

 Total Charge           Charge          ....    0
 Multiplicity           Mult            ....    1
 Number of Electrons    NEL             ....  134
 Basis Dimension        Dim             ....  322

ORBITAL ENERGIES
----------------

  NO   OCC          E(Eh)            E(eV)
   0   2.0000     -88.967042     -2420.9163
   1   2.0000     -88.956591     -2420.6319
   2   2.0000     -10.322840      -280.8987
   3   2.0000     -10.320697      -280.8404
   4   2.0000     -10.319288      -280.8021
   5   2.0000     -10.315490      -280.6988
   6   2.0000     -10.307080      -280.4699
   7   2.0000     -10.299832      -280.2727
   8   2.0000     -10.297244      -280.2023
   9   2.0000     -10.295612      -280.1578
  10   2.0000     -10.292798      -280.0813
  11   2.0000     -10.290261      -280.0122
  12   2.0000     -10.284769      -279.8628
  13   2.0000     -10.280367      -279.7430
  14   2.0000     -10.275366      -279.6069
  15   2.0000     -10.271991      -279.5151
  16   2.0000      -8.082462      -219.9350
  17   2.0000      -8.072928      -219.6755
  18   2.0000      -6.040827      -164.3793
  19   2.0000      -6.036824      -164.2703
  20   2.0000      -6.033347      -164.1757
  21   2.0000      -6.031470      -164.1246
  22   2.0000      -6.027299      -164.0111
  23   2.0000      -6.023429      -163.9058
  24   2.0000      -1.017994       -27.7010
  25   2.0000      -0.988034       -26.8858
  26   2.0000      -0.920095       -25.0371
  27   2.0000      -0.911538       -24.8042
  28   2.0000      -0.874638       -23.8001
  29   2.0000      -0.854052       -23.2399
  30   2.0000      -0.844944       -22.9921
  31   2.0000      -0.812637       -22.1130
  32   2.0000      -0.784776       -21.3548
  33   2.0000      -0.774704       -21.0808
  34   2.0000      -0.708283       -19.2734
  35   2.0000      -0.697926       -18.9915
  36   2.0000      -0.691359       -18.8128
  37   2.0000      -0.665812       -18.1177
  38   2.0000      -0.641744       -17.4627
  39   2.0000      -0.622859       -16.9488
  40   2.0000      -0.600038       -16.3279
  41   2.0000      -0.567677       -15.4473
  42   2.0000      -0.564106       -15.3501
  43   2.0000      -0.551088       -14.9959
  44   2.0000      -0.544431       -14.8147
  45   2.0000      -0.530913       -14.4469
  46   2.0000      -0.523460       -14.2441
  47   2.0000      -0.515514       -14.0278
  48   2.0000      -0.505882       -13.7657
  49   2.0000      -0.502884       -13.6842
  50   2.0000      -0.496803       -13.5187
  51   2.0000      -0.485592       -13.2136
  52   2.0000      -0.469087       -12.7645
  53   2.0000      -0.463891       -12.6231
  54   2.0000      -0.462120       -12.5749
  55   2.0000      -0.452743       -12.3198
  56   2.0000      -0.443716       -12.0741
  57   2.0000      -0.443104       -12.0575
  58   2.0000      -0.436468       -11.8769
  59   2.0000      -0.419480       -11.4146
  60   2.0000      -0.414150       -11.2696
  61   2.0000      -0.405604       -11.0370
  62   2.0000      -0.402327       -10.9479
  63   2.0000      -0.345140        -9.3917
  64   2.0000      -0.328003        -8.9254
  65   2.0000      -0.322258        -8.7691
  66   2.0000      -0.296432        -8.0663
  67   0.0000       0.023625         0.6429
  68   0.0000       0.069211         1.8833
  69   0.0000       0.102580         2.7913
  70   0.0000       0.120542         3.2801
  71   0.0000       0.122848         3.3429

MULLIKEN ATOMIC CHARGES
-----------------------
   0 S :    0.110155
   1 C :   -0.113557
   2 C :   -0.106062
   3 C :    0.031753
   4 C :   -0.153146
   5 H :    0.028931
   6 C :    0.056511
   7 H :    0.048384
   8 H :    0.002425
   9 C :   -0.101878
  10 H :    0.031057
  11 H :    0.023741
  12 C :   -0.048449
  13 H :    0.037085
  14 H :    0.045319
  15 H :    0.037013
  16 S :    0.089811
  17 C :   -0.107036
  18 C :   -0.007622
  19 C :   -0.068593
  20 C :   -0.135354
  21 H :    0.013891
  22 C :    0.074143
  23 H :    0.016294
  24 H :    0.013316
  25 C :   -0.037735
  26 H :    0.004578
  27 H :    0.004051
  28 C :   -0.026816
  29 H :    0.025255
  30 H :    0.042665
  31 H :    0.028209
  32 H :    0.058939
  33 H :    0.082724
Sum of atomic charges:    0.0000000

LOEWDIN ATOMIC CHARGES
----------------------
   0 S :    0.430802
   1 C :   -0.200312
   2 C :   -0.058150
   3 C :   -0.054764
   4 C :   -0.211670
   5 H :    0.034504
   6 C :   -0.044857
   7 H :    0.044259
   8 H :    0.022382
   9 C :   -0.047868
  10 H :    0.027335
  11 H :    0.021190
  12 C :   -0.072137
  13 H :    0.031285
  14 H :    0.029562
  15 H :    0.026737
  16 S :    0.412359
  17 C :   -0.192875
  18 C :   -0.067644
  19 C :   -0.060004
  20 C :   -0.208960
  21 H :    0.027669
  22 C :   -0.026646
  23 H :    0.024451
  24 H :    0.029486
  25 C :   -0.035286
  26 H :    0.021366
  27 H :    0.009198
  28 C :   -0.059012
  29 H :    0.020282
  30 H :    0.031951
  31 H :    0.027068
  32 H :    0.028580
  33 H :    0.039717

  Mayer bond orders larger than 0.100000
B(  0-S ,  1-C ) :   1.1429 B(  0-S ,  4-C ) :   1.1719 B(  1-C ,  2-C ) :   1.5604
B(  1-C , 32-H ) :   0.9735 B(  2-C ,  3-C ) :   1.2573 B(  2-C ,  6-C ) :   1.0389
B(  3-C ,  4-C ) :   1.5328 B(  3-C ,  5-H ) :   0.9909 B(  4-C , 20-C ) :   1.0496
B(  6-C ,  7-H ) :   0.9457 B(  6-C ,  8-H ) :   0.9282 B(  6-C ,  9-C ) :   1.0697
B(  9-C , 10-H ) :   0.9543 B(  9-C , 11-H ) :   0.9572 B(  9-C , 12-C ) :   1.0755
B( 12-C , 13-H ) :   0.9724 B( 12-C , 14-H ) :   0.9709 B( 12-C , 15-H ) :   0.9713
B( 16-S , 17-C ) :   1.1516 B( 16-S , 20-C ) :   1.1534 B( 17-C , 18-C ) :   1.5689
B( 17-C , 20-C ) :   0.1009 B( 17-C , 33-H ) :   0.9699 B( 18-C , 19-C ) :   1.2495
B( 18-C , 21-H ) :   0.9905 B( 19-C , 20-C ) :   1.6070 B( 19-C , 22-C ) :   1.0440
B( 22-C , 23-H ) :   0.9349 B( 22-C , 24-H ) :   0.9291 B( 22-C , 25-C ) :   1.0670
B( 25-C , 26-H ) :   0.9511 B( 25-C , 27-H ) :   0.9549 B( 25-C , 28-C ) :   1.0830
B( 28-C , 29-H ) :   0.9743 B( 28-C , 30-H ) :   0.9728 B( 28-C , 31-H ) :   0.9756

Dispersion correction           -0.014079812
FINAL SINGLE POINT ENERGY     -1339.855126359107

DIPOLE MOMENT
-------------
                                X             Y             Z
Electronic contribution:    -17.61505     -11.37387      -3.94626
Nuclear contribution   :     17.96685      11.64991       4.18757
                        -----------------------------------------
Total Dipole Moment    :      0.35180       0.27604       0.24131
                        -----------------------------------------
Magnitude (a.u.)       :      0.50813
Magnitude (Debye)      :      1.29155

Rotational constants in cm-1:     0.019370     0.008394     0.006883
Rotational constants in MHz :   580.700443   251.642042   206.356899

                             ****ORCA TERMINATED NORMALLY****
TOTAL RUN TIME: 0 days 0 hours 0 minutes 33 seconds 851 msec
