                         Program Version 4.2.1 -  RELEASE  -
|  1> ! wB97X-D3 SP def2-SVP
|  2> %pal
|  3> nprocs 16
|  4> end
|  5>
|  6> * xyz 0 1
|  7> S 	 -62.9134 	 54.4327 	 126.99
|  8> C 	 -64.3982 	 54.2069 	 127.854
|  9> C 	 -64.4149 	 54.8048 	 129.093
| 10> C 	 -63.0851 	 55.2021 	 129.381
| 11> C 	 -62.1549 	 55.0221 	 128.373
| 12> H 	 -62.8625 	 55.6488 	 130.323
| 13> C 	 -65.4239 	 54.6806 	 130.197
| 14> H 	 -66.3706 	 55.1253 	 129.992
| 15> H 	 -65.1438 	 55.1818 	 131.085
| 16> C 	 -65.6341 	 53.1495 	 130.655
| 17> H 	 -65.9588 	 52.489 	 129.798
| 18> H 	 -64.701 	 52.7336 	 130.923
| 19> C 	 -66.7376 	 52.9266 	 131.771
| 20> H 	 -67.67 	 53.3843 	 131.599
| 21> H 	 -66.8687 	 51.8366 	 131.756
| 22> H 	 -66.477 	 53.3521 	 132.756
| 23> S 	 -60.2577 	 56.031 	 130.018
| 24> C 	 -58.7895 	 56.512 	 129.185
| 25> C 	 -58.6138 	 55.8517 	 128.058
| 26> C 	 -59.7723 	 55.331 	 127.489
| 27> C 	 -60.7723 	 55.3895 	 128.414
| 28> H 	 -57.6968 	 55.9918 	 127.563
| 29> C 	 -59.848 	 54.8559 	 126.026
| 30> H 	 -60.5729 	 54.0238 	 125.974
| 31> H 	 -58.9106 	 54.2839 	 125.821
| 32> C 	 -60.0668 	 55.957 	 125.007
| 33> H 	 -59.1921 	 56.6163 	 125.098
| 34> H 	 -60.9721 	 56.5733 	 125.19
| 35> C 	 -60.0771 	 55.5574 	 123.55
| 36> H 	 -60.9009 	 54.8158 	 123.338
| 37> H 	 -59.0809 	 55.1134 	 123.244
| 38> H 	 -60.3276 	 56.2702 	 122.763
| 39> H 	 -65.2775 	 53.6495 	 127.34
| 40> H 	 -58.0743 	 57.1351 	 129.683
| 41> *
| 42>
| 43>                          ****END OF INPUT****

CARTESIAN COORDINATES (ANGSTROEM)
---------------------------------
  S    -62.913400   54.432700  126.990000
  C    -64.398200   54.206900  127.854000
  C    -64.414900   54.804800  129.093000
  C    -63.085100   55.202100  129.381000
  C    -62.154900   55.022100  128.373000
  H    -62.862500   55.648800  130.323000
  C    -65.423900   54.680600  130.197000
  H    -66.370600   55.125300  129.992000
  H    -65.143800   55.181800  131.085000
  C    -65.634100   53.149500  130.655000
  H    -65.958800   52.489000  129.798000
  H    -64.701000   52.733600  130.923000
  C    -66.737600   52.926600  131.771000
  H    -67.670000   53.384300  131.599000
  H    -66.868700   51.836600  131.756000
  H    -66.477000   53.352100  132.756000
  S    -60.257700   56.031000  130.018000
  C    -58.789500   56.512000  129.185000
  C    -58.613800   55.851700  128.058000
  C    -59.772300   55.331000  127.489000
  C    -60.772300   55.389500  128.414000
  H    -57.696800   55.991800  127.563000
  C    -59.848000   54.855900  126.026000
  H    -60.572900   54.023800  125.974000
  H    -58.910600   54.283900  125.821000
  C    -60.066800   55.957000  125.007000
  H    -59.192100   56.616300  125.098000
  H    -60.972100   56.573300  125.190000
  C    -60.077100   55.557400  123.550000
  H    -60.900900   54.815800  123.338000
  H    -59.080900   55.113400  123.244000
  H    -60.327600   56.270200  122.763000
  H    -65.277500   53.649500  127.340000
  H    -58.074300   57.135100  129.683000

 Total Charge           Charge          ....    0
 Multiplicity           Mult            ....    1
 Number of Electrons    NEL             ....  134
 Basis Dimension        Dim             ....  322

ORBITAL ENERGIES
----------------

  NO   OCC          E(Eh)            E(eV)
   0   2.0000     -88.965986     -2420.8875
   1   2.0000     -88.959385     -2420.7079
   2   2.0000     -10.324634      -280.9476
   3   2.0000     -10.319146      -280.7982
   4   2.0000     -10.315534      -280.6999
   5   2.0000     -10.307839      -280.4906
   6   2.0000     -10.301445      -280.3166
   7   2.0000     -10.299702      -280.2692
   8   2.0000     -10.297882      -280.2196
   9   2.0000     -10.293984      -280.1136
  10   2.0000     -10.290918      -280.0301
  11   2.0000     -10.290446      -280.0173
  12   2.0000     -10.284194      -279.8472
  13   2.0000     -10.283776      -279.8358
  14   2.0000     -10.280335      -279.7421
  15   2.0000     -10.279855      -279.7291
  16   2.0000      -8.081814      -219.9173
  17   2.0000      -8.074035      -219.7056
  18   2.0000      -6.040227      -164.3629
  19   2.0000      -6.036146      -164.2519
  20   2.0000      -6.032642      -164.1565
  21   2.0000      -6.032480      -164.1521
  22   2.0000      -6.029175      -164.0622
  23   2.0000      -6.024252      -163.9282
  24   2.0000      -1.017251       -27.6808
  25   2.0000      -0.993225       -27.0270
  26   2.0000      -0.911121       -24.7929
  27   2.0000      -0.905703       -24.6454
  28   2.0000      -0.870423       -23.6854
  29   2.0000      -0.857318       -23.3288
  30   2.0000      -0.846338       -23.0300
  31   2.0000      -0.807863       -21.9831
  32   2.0000      -0.787801       -21.4371
  33   2.0000      -0.775830       -21.1114
  34   2.0000      -0.707347       -19.2479
  35   2.0000      -0.703500       -19.1432
  36   2.0000      -0.693353       -18.8671
  37   2.0000      -0.670755       -18.2522
  38   2.0000      -0.634637       -17.2694
  39   2.0000      -0.619459       -16.8563
  40   2.0000      -0.603497       -16.4220
  41   2.0000      -0.566498       -15.4152
  42   2.0000      -0.564571       -15.3627
  43   2.0000      -0.547405       -14.8956
  44   2.0000      -0.529518       -14.4089
  45   2.0000      -0.522931       -14.2297
  46   2.0000      -0.520086       -14.1523
  47   2.0000      -0.515452       -14.0262
  48   2.0000      -0.506992       -13.7960
  49   2.0000      -0.501843       -13.6558
  50   2.0000      -0.488340       -13.2884
  51   2.0000      -0.474509       -12.9121
  52   2.0000      -0.472196       -12.8491
  53   2.0000      -0.466118       -12.6837
  54   2.0000      -0.460325       -12.5261
  55   2.0000      -0.450512       -12.2591
  56   2.0000      -0.448763       -12.2115
  57   2.0000      -0.434960       -11.8359
  58   2.0000      -0.430123       -11.7043
  59   2.0000      -0.424353       -11.5472
  60   2.0000      -0.420051       -11.4302
  61   2.0000      -0.417596       -11.3634
  62   2.0000      -0.407384       -11.0855
  63   2.0000      -0.362089        -9.8530
  64   2.0000      -0.336476        -9.1560
  65   2.0000      -0.329960        -8.9787
  66   2.0000      -0.274875        -7.4797
  67   0.0000       0.020256         0.5512
  68   0.0000       0.082468         2.2441
  69   0.0000       0.102754         2.7961
  70   0.0000       0.121359         3.3023
  71   0.0000       0.136972         3.7272

MULLIKEN ATOMIC CHARGES
-----------------------
   0 S :    0.103183
   1 C :   -0.179520
   2 C :   -0.018512
   3 C :   -0.049759
   4 C :   -0.092655
   5 H :    0.004674
   6 C :    0.094975
   7 H :    0.017720
   8 H :    0.008355
   9 C :   -0.102786
  10 H :    0.031155
  11 H :    0.027055
  12 C :   -0.042076
  13 H :    0.019732
  14 H :    0.042322
  15 H :    0.033470
  16 S :    0.067601
  17 C :   -0.080084
  18 C :    0.018712
  19 C :   -0.093571
  20 C :   -0.082269
  21 H :   -0.004369
  22 C :    0.040168
  23 H :    0.030430
  24 H :    0.027327
  25 C :   -0.034056
  26 H :    0.026645
  27 H :    0.041631
  28 C :   -0.077524
  29 H :    0.029286
  30 H :    0.034472
  31 H :    0.037488
  32 H :    0.076933
  33 H :    0.043843
Sum of atomic charges:   -0.0000000

LOEWDIN ATOMIC CHARGES
----------------------
   0 S :    0.452844
   1 C :   -0.213097
   2 C :   -0.063803
   3 C :   -0.076166
   4 C :   -0.213225
   5 H :    0.015755
   6 C :   -0.025261
   7 H :    0.025937
   8 H :    0.024734
   9 C :   -0.029028
  10 H :    0.026243
  11 H :    0.017944
  12 C :   -0.067248
  13 H :    0.016778
  14 H :    0.032977
  15 H :    0.025565
  16 S :    0.368266
  17 C :   -0.158429
  18 C :   -0.066559
  19 C :   -0.061214
  20 C :   -0.156395
  21 H :    0.024974
  22 C :   -0.038133
  23 H :    0.017941
  24 H :    0.038538
  25 C :   -0.047500
  26 H :    0.027882
  27 H :    0.031055
  28 C :   -0.079514
  29 H :    0.027952
  30 H :    0.028231
  31 H :    0.028688
  32 H :    0.041016
  33 H :    0.022250

  Mayer bond orders larger than 0.100000
B(  0-S ,  1-C ) :   1.1578 B(  0-S ,  4-C ) :   1.1542 B(  1-C ,  2-C ) :   1.5733
B(  1-C , 32-H ) :   0.9545 B(  2-C ,  3-C ) :   1.2846 B(  2-C ,  6-C ) :   1.0476
B(  3-C ,  4-C ) :   1.5094 B(  3-C ,  5-H ) :   0.9840 B(  4-C , 20-C ) :   1.1295
B(  6-C ,  7-H ) :   0.9332 B(  6-C ,  8-H ) :   0.9443 B(  6-C ,  9-C ) :   1.0445
B(  9-C , 10-H ) :   0.9631 B(  9-C , 11-H ) :   0.9612 B(  9-C , 12-C ) :   1.0659
B( 12-C , 13-H ) :   0.9774 B( 12-C , 14-H ) :   0.9766 B( 12-C , 15-H ) :   0.9772
B( 16-S , 17-C ) :   1.1187 B( 16-S , 20-C ) :   1.1158 B( 17-C , 18-C ) :   1.6709
B( 17-C , 33-H ) :   0.9702 B( 18-C , 19-C ) :   1.1986 B( 18-C , 21-H ) :   0.9887
B( 19-C , 20-C ) :   1.6360 B( 19-C , 22-C ) :   1.0332 B( 22-C , 23-H ) :   0.9280
B( 22-C , 24-H ) :   0.9277 B( 22-C , 25-C ) :   1.0564 B( 25-C , 26-H ) :   0.9524
B( 25-C , 27-H ) :   0.9529 B( 25-C , 28-C ) :   1.0838 B( 28-C , 29-H ) :   0.9721
B( 28-C , 30-H ) :   0.9735 B( 28-C , 31-H ) :   0.9739

Dispersion correction           -0.013769780
FINAL SINGLE POINT ENERGY     -1339.856294006586

DIPOLE MOMENT
-------------
                                X             Y             Z
Electronic contribution:      9.95615       5.58025       4.35101
Nuclear contribution   :     -9.99161      -5.59331      -4.45124
                        -----------------------------------------
Total Dipole Moment    :     -0.03546      -0.01306      -0.10024
                        -----------------------------------------
Magnitude (a.u.)       :      0.10713
Magnitude (Debye)      :      0.27229

Rotational constants in cm-1:     0.022839     0.007684     0.005977
Rotational constants in MHz :   684.694944   230.352563   179.185962

                             ****ORCA TERMINATED NORMALLY****
TOTAL RUN TIME: 0 days 0 hours 0 minutes 33 seconds 66 msec
