                         Program Version 4.2.1 -  RELEASE  -
|  1> ! wB97X-D3 SP def2-SVP
|  2> %pal
|  3> nprocs 16
|  4> end
|  5>
|  6> * xyz 0 1
|  7> S 	 -4.48664 	 50.3909 	 41.4173
|  8> C 	 -6.06844 	 50.8274 	 40.9094
|  9> C 	 -6.73293 	 49.6574 	 40.53
| 10> C 	 -5.95367 	 48.4744 	 40.6054
| 11> C 	 -4.64252 	 48.7922 	 40.8942
| 12> H 	 -6.14284 	 47.4119 	 40.4387
| 13> C 	 -8.29495 	 49.6394 	 40.3785
| 14> H 	 -8.54848 	 49.4516 	 39.3854
| 15> H 	 -8.59815 	 50.6116 	 40.6329
| 16> C 	 -9.10367 	 48.7468 	 41.3739
| 17> H 	 -10.1848 	 48.932 	 41.3821
| 18> H 	 -9.04691 	 47.7011 	 41.0769
| 19> C 	 -8.5664 	 48.9017 	 42.7793
| 20> H 	 -8.92362 	 49.8263 	 43.2407
| 21> H 	 -8.90718 	 48.1405 	 43.4073
| 22> H 	 -7.49829 	 48.9919 	 42.9182
| 23> S 	 -2.24268 	 47.8821 	 39.7237
| 24> C 	 -1.30369 	 46.6082 	 40.6051
| 25> C 	 -1.95051 	 46.3919 	 41.8481
| 26> C 	 -3.16119 	 47.1541 	 42.1032
| 27> C 	 -3.51437 	 47.9079 	 41.0154
| 28> H 	 -1.46487 	 45.7187 	 42.5418
| 29> C 	 -3.89583 	 46.8965 	 43.4132
| 30> H 	 -3.37094 	 46.0912 	 43.9395
| 31> H 	 -4.94312 	 46.3654 	 43.1983
| 32> C 	 -3.99516 	 48.0381 	 44.4431
| 33> H 	 -4.48303 	 48.9083 	 43.9521
| 34> H 	 -2.96767 	 48.3736 	 44.7425
| 35> C 	 -4.73033 	 47.8232 	 45.714
| 36> H 	 -4.48537 	 48.4063 	 46.5162
| 37> H 	 -4.46135 	 46.826 	 45.9658
| 38> H 	 -5.83371 	 47.9296 	 45.6927
| 39> H 	 -6.34916 	 51.8771 	 40.9089
| 40> H 	 -0.346274 	 46.149 	 40.3339
| 41> *
| 42>
| 43>                          ****END OF INPUT****

CARTESIAN COORDINATES (ANGSTROEM)
---------------------------------
  S     -4.486640   50.390900   41.417300
  C     -6.068440   50.827400   40.909400
  C     -6.732930   49.657400   40.530000
  C     -5.953670   48.474400   40.605400
  C     -4.642520   48.792200   40.894200
  H     -6.142840   47.411900   40.438700
  C     -8.294950   49.639400   40.378500
  H     -8.548480   49.451600   39.385400
  H     -8.598150   50.611600   40.632900
  C     -9.103670   48.746800   41.373900
  H    -10.184800   48.932000   41.382100
  H     -9.046910   47.701100   41.076900
  C     -8.566400   48.901700   42.779300
  H     -8.923620   49.826300   43.240700
  H     -8.907180   48.140500   43.407300
  H     -7.498290   48.991900   42.918200
  S     -2.242680   47.882100   39.723700
  C     -1.303690   46.608200   40.605100
  C     -1.950510   46.391900   41.848100
  C     -3.161190   47.154100   42.103200
  C     -3.514370   47.907900   41.015400
  H     -1.464870   45.718700   42.541800
  C     -3.895830   46.896500   43.413200
  H     -3.370940   46.091200   43.939500
  H     -4.943120   46.365400   43.198300
  C     -3.995160   48.038100   44.443100
  H     -4.483030   48.908300   43.952100
  H     -2.967670   48.373600   44.742500
  C     -4.730330   47.823200   45.714000
  H     -4.485370   48.406300   46.516200
  H     -4.461350   46.826000   45.965800
  H     -5.833710   47.929600   45.692700
  H     -6.349160   51.877100   40.908900
  H     -0.346274   46.149000   40.333900

 Total Charge           Charge          ....    0
 Multiplicity           Mult            ....    1
 Number of Electrons    NEL             ....  134
 Basis Dimension        Dim             ....  322

ORBITAL ENERGIES
----------------

  NO   OCC          E(Eh)            E(eV)
   0   2.0000     -88.966995     -2420.9150
   1   2.0000     -88.963915     -2420.8312
   2   2.0000     -10.329220      -281.0724
   3   2.0000     -10.328911      -281.0639
   4   2.0000     -10.320029      -280.8223
   5   2.0000     -10.315561      -280.7007
   6   2.0000     -10.309138      -280.5259
   7   2.0000     -10.306718      -280.4601
   8   2.0000     -10.306343      -280.4498
   9   2.0000     -10.299936      -280.2755
  10   2.0000     -10.295353      -280.1508
  11   2.0000     -10.286831      -279.9189
  12   2.0000     -10.286256      -279.9033
  13   2.0000     -10.283616      -279.8314
  14   2.0000     -10.265983      -279.3516
  15   2.0000     -10.264489      -279.3109
  16   2.0000      -8.080150      -219.8721
  17   2.0000      -8.079702      -219.8599
  18   2.0000      -6.038483      -164.3155
  19   2.0000      -6.038341      -164.3116
  20   2.0000      -6.034462      -164.2061
  21   2.0000      -6.034278      -164.2011
  22   2.0000      -6.031291      -164.1198
  23   2.0000      -6.030301      -164.0928
  24   2.0000      -1.013519       -27.5793
  25   2.0000      -0.976450       -26.5706
  26   2.0000      -0.907835       -24.7035
  27   2.0000      -0.906579       -24.6693
  28   2.0000      -0.869321       -23.6554
  29   2.0000      -0.852184       -23.1891
  30   2.0000      -0.847459       -23.0605
  31   2.0000      -0.813082       -22.1251
  32   2.0000      -0.785339       -21.3702
  33   2.0000      -0.773714       -21.0538
  34   2.0000      -0.709826       -19.3153
  35   2.0000      -0.696342       -18.9484
  36   2.0000      -0.686547       -18.6819
  37   2.0000      -0.659878       -17.9562
  38   2.0000      -0.652234       -17.7482
  39   2.0000      -0.613552       -16.6956
  40   2.0000      -0.591330       -16.0909
  41   2.0000      -0.563509       -15.3338
  42   2.0000      -0.561050       -15.2670
  43   2.0000      -0.556433       -15.1413
  44   2.0000      -0.541194       -14.7266
  45   2.0000      -0.527788       -14.3618
  46   2.0000      -0.524577       -14.2745
  47   2.0000      -0.517816       -14.0905
  48   2.0000      -0.506600       -13.7853
  49   2.0000      -0.499967       -13.6048
  50   2.0000      -0.491409       -13.3719
  51   2.0000      -0.482871       -13.1396
  52   2.0000      -0.469840       -12.7850
  53   2.0000      -0.466907       -12.7052
  54   2.0000      -0.455670       -12.3994
  55   2.0000      -0.445871       -12.1328
  56   2.0000      -0.443446       -12.0668
  57   2.0000      -0.433233       -11.7889
  58   2.0000      -0.425575       -11.5805
  59   2.0000      -0.421677       -11.4744
  60   2.0000      -0.416184       -11.3250
  61   2.0000      -0.409455       -11.1418
  62   2.0000      -0.402486       -10.9522
  63   2.0000      -0.335849        -9.1389
  64   2.0000      -0.328271        -8.9327
  65   2.0000      -0.319353        -8.6900
  66   2.0000      -0.314394        -8.5551
  67   0.0000       0.037870         1.0305
  68   0.0000       0.049861         1.3568
  69   0.0000       0.108874         2.9626
  70   0.0000       0.112211         3.0534
  71   0.0000       0.122494         3.3332

MULLIKEN ATOMIC CHARGES
-----------------------
   0 S :    0.128381
   1 C :   -0.136429
   2 C :   -0.110679
   3 C :    0.057119
   4 C :   -0.197012
   5 H :    0.022625
   6 C :    0.141232
   7 H :    0.020158
   8 H :   -0.004487
   9 C :   -0.081137
  10 H :    0.035425
  11 H :    0.022833
  12 C :   -0.040918
  13 H :    0.015499
  14 H :    0.016567
  15 H :    0.039410
  16 S :    0.100400
  17 C :   -0.106270
  18 C :   -0.043467
  19 C :    0.022029
  20 C :   -0.191681
  21 H :    0.021615
  22 C :    0.043290
  23 H :    0.011417
  24 H :    0.054116
  25 C :   -0.095717
  26 H :    0.034441
  27 H :    0.032435
  28 C :    0.008991
  29 H :    0.011399
  30 H :    0.003243
  31 H :    0.031084
  32 H :    0.063355
  33 H :    0.070734
Sum of atomic charges:    0.0000000

LOEWDIN ATOMIC CHARGES
----------------------
   0 S :    0.460588
   1 C :   -0.210876
   2 C :   -0.061285
   3 C :   -0.060428
   4 C :   -0.216783
   5 H :    0.040698
   6 C :   -0.016048
   7 H :    0.019370
   8 H :    0.019795
   9 C :   -0.038178
  10 H :    0.030246
  11 H :    0.018271
  12 C :   -0.065847
  13 H :    0.024827
  14 H :    0.017462
  15 H :    0.026344
  16 S :    0.361065
  17 C :   -0.174531
  18 C :   -0.067981
  19 C :   -0.053923
  20 C :   -0.186318
  21 H :    0.027583
  22 C :   -0.039916
  23 H :    0.026354
  24 H :    0.046161
  25 C :   -0.050280
  26 H :    0.016731
  27 H :    0.031489
  28 C :   -0.060285
  29 H :    0.016812
  30 H :    0.019810
  31 H :    0.029282
  32 H :    0.031625
  33 H :    0.038168

  Mayer bond orders larger than 0.100000
B(  0-S ,  1-C ) :   1.1686 B(  0-S ,  4-C ) :   1.2054 B(  1-C ,  2-C ) :   1.5569
B(  1-C ,  4-C ) :   0.1032 B(  1-C , 32-H ) :   0.9771 B(  2-C ,  3-C ) :   1.2425
B(  2-C ,  6-C ) :   1.0168 B(  3-C ,  4-C ) :   1.5582 B(  3-C ,  5-H ) :   1.0002
B(  4-C , 20-C ) :   1.0229 B(  6-C ,  7-H ) :   0.9392 B(  6-C ,  8-H ) :   0.9456
B(  6-C ,  9-C ) :   1.0648 B(  9-C , 10-H ) :   0.9583 B(  9-C , 11-H ) :   0.9570
B(  9-C , 12-C ) :   1.0751 B( 12-C , 13-H ) :   0.9732 B( 12-C , 14-H ) :   0.9728
B( 12-C , 15-H ) :   0.9729 B( 16-S , 17-C ) :   1.1321 B( 16-S , 20-C ) :   1.1175
B( 17-C , 18-C ) :   1.6382 B( 17-C , 20-C ) :   0.1003 B( 17-C , 33-H ) :   0.9654
B( 18-C , 19-C ) :   1.2198 B( 18-C , 21-H ) :   0.9801 B( 19-C , 20-C ) :   1.6302
B( 19-C , 22-C ) :   1.0358 B( 22-C , 23-H ) :   0.9256 B( 22-C , 24-H ) :   0.9365
B( 22-C , 25-C ) :   1.0602 B( 25-C , 26-H ) :   0.9544 B( 25-C , 27-H ) :   0.9499
B( 25-C , 28-C ) :   1.0902 B( 28-C , 29-H ) :   0.9699 B( 28-C , 30-H ) :   0.9687
B( 28-C , 31-H ) :   0.9708

Dispersion correction           -0.015749712
FINAL SINGLE POINT ENERGY     -1339.852196753101

DIPOLE MOMENT
-------------
                                X             Y             Z
Electronic contribution:     19.71145       4.64868     -19.28811
Nuclear contribution   :    -20.00764      -4.84716      19.78695
                        -----------------------------------------
Total Dipole Moment    :     -0.29619      -0.19849       0.49885
                        -----------------------------------------
Magnitude (a.u.)       :      0.61317
Magnitude (Debye)      :      1.55855

Rotational constants in cm-1:     0.018492     0.009909     0.007770
Rotational constants in MHz :   554.377115   297.065791   232.947652

                             ****ORCA TERMINATED NORMALLY****
TOTAL RUN TIME: 0 days 0 hours 0 minutes 36 seconds 279 msec
