                         Program Version 4.2.1 -  RELEASE  -
|  1> ! wB97X-D3 SP def2-SVP
|  2> %pal
|  3> nprocs 16
|  4> end
|  5>
|  6> * xyz 0 1
|  7> S 	 -58.7141 	 52.4919 	 135.527
|  8> C 	 -57.2385 	 51.7298 	 136.214
|  9> C 	 -57.5748 	 50.7108 	 137.088
| 10> C 	 -59.0476 	 50.6196 	 137.208
| 11> C 	 -59.8142 	 51.4823 	 136.415
| 12> H 	 -59.6834 	 49.8936 	 137.85
| 13> C 	 -56.6138 	 49.7416 	 137.82
| 14> H 	 -55.6197 	 50.258 	 137.664
| 15> H 	 -56.581 	 48.7684 	 137.335
| 16> C 	 -56.7917 	 49.4943 	 139.283
| 17> H 	 -57.8209 	 49.1018 	 139.531
| 18> H 	 -56.2766 	 48.7005 	 139.787
| 19> C 	 -56.5416 	 50.7881 	 140.025
| 20> H 	 -57.312 	 51.5409 	 139.873
| 21> H 	 -56.521 	 50.5284 	 141.026
| 22> H 	 -55.586 	 51.1307 	 139.762
| 23> S 	 -62.3423 	 50.3163 	 136.087
| 24> C 	 -63.6881 	 51.3938 	 136.187
| 25> C 	 -63.3035 	 52.731 	 136.261
| 26> C 	 -61.911 	 52.9415 	 136.432
| 27> C 	 -61.2345 	 51.7047 	 136.392
| 28> H 	 -64.0857 	 53.3784 	 136.268
| 29> C 	 -61.3259 	 54.3641 	 136.482
| 30> H 	 -62.1312 	 55.0487 	 136.25
| 31> H 	 -60.5795 	 54.484 	 135.764
| 32> C 	 -60.7074 	 54.6114 	 137.851
| 33> H 	 -60.0227 	 53.8683 	 138.199
| 34> H 	 -61.4334 	 54.5098 	 138.672
| 35> C 	 -59.9091 	 55.9031 	 137.966
| 36> H 	 -60.5638 	 56.8503 	 138.013
| 37> H 	 -59.2606 	 56.1086 	 137.082
| 38> H 	 -59.267 	 55.8339 	 138.898
| 39> H 	 -56.1737 	 51.8378 	 135.968
| 40> H 	 -64.6785 	 50.972 	 136.123
| 41> *
| 42>
| 43>                          ****END OF INPUT****

CARTESIAN COORDINATES (ANGSTROEM)
---------------------------------
  S    -58.714100   52.491900  135.527000
  C    -57.238500   51.729800  136.214000
  C    -57.574800   50.710800  137.088000
  C    -59.047600   50.619600  137.208000
  C    -59.814200   51.482300  136.415000
  H    -59.683400   49.893600  137.850000
  C    -56.613800   49.741600  137.820000
  H    -55.619700   50.258000  137.664000
  H    -56.581000   48.768400  137.335000
  C    -56.791700   49.494300  139.283000
  H    -57.820900   49.101800  139.531000
  H    -56.276600   48.700500  139.787000
  C    -56.541600   50.788100  140.025000
  H    -57.312000   51.540900  139.873000
  H    -56.521000   50.528400  141.026000
  H    -55.586000   51.130700  139.762000
  S    -62.342300   50.316300  136.087000
  C    -63.688100   51.393800  136.187000
  C    -63.303500   52.731000  136.261000
  C    -61.911000   52.941500  136.432000
  C    -61.234500   51.704700  136.392000
  H    -64.085700   53.378400  136.268000
  C    -61.325900   54.364100  136.482000
  H    -62.131200   55.048700  136.250000
  H    -60.579500   54.484000  135.764000
  C    -60.707400   54.611400  137.851000
  H    -60.022700   53.868300  138.199000
  H    -61.433400   54.509800  138.672000
  C    -59.909100   55.903100  137.966000
  H    -60.563800   56.850300  138.013000
  H    -59.260600   56.108600  137.082000
  H    -59.267000   55.833900  138.898000
  H    -56.173700   51.837800  135.968000
  H    -64.678500   50.972000  136.123000

 Total Charge           Charge          ....    0
 Multiplicity           Mult            ....    1
 Number of Electrons    NEL             ....  134
 Basis Dimension        Dim             ....  322

ORBITAL ENERGIES
----------------

  NO   OCC          E(Eh)            E(eV)
   0   2.0000     -88.969881     -2420.9935
   1   2.0000     -88.966908     -2420.9126
   2   2.0000     -10.331777      -281.1419
   3   2.0000     -10.329930      -281.0917
   4   2.0000     -10.321589      -280.8647
   5   2.0000     -10.317583      -280.7557
   6   2.0000     -10.312330      -280.6128
   7   2.0000     -10.310160      -280.5537
   8   2.0000     -10.304135      -280.3898
   9   2.0000     -10.299284      -280.2578
  10   2.0000     -10.290204      -280.0107
  11   2.0000     -10.289149      -279.9820
  12   2.0000     -10.284565      -279.8572
  13   2.0000     -10.283681      -279.8332
  14   2.0000     -10.278641      -279.6961
  15   2.0000     -10.261058      -279.2176
  16   2.0000      -8.084136      -219.9805
  17   2.0000      -8.080554      -219.8830
  18   2.0000      -6.042528      -164.4256
  19   2.0000      -6.039429      -164.3412
  20   2.0000      -6.038751      -164.3228
  21   2.0000      -6.035040      -164.2218
  22   2.0000      -6.035029      -164.2215
  23   2.0000      -6.031141      -164.1157
  24   2.0000      -1.002080       -27.2680
  25   2.0000      -0.977967       -26.6118
  26   2.0000      -0.918320       -24.9888
  27   2.0000      -0.910131       -24.7659
  28   2.0000      -0.871967       -23.7274
  29   2.0000      -0.852169       -23.1887
  30   2.0000      -0.836828       -22.7712
  31   2.0000      -0.808401       -21.9977
  32   2.0000      -0.785559       -21.3762
  33   2.0000      -0.775801       -21.1106
  34   2.0000      -0.710338       -19.3293
  35   2.0000      -0.698535       -19.0081
  36   2.0000      -0.690401       -18.7868
  37   2.0000      -0.667604       -18.1664
  38   2.0000      -0.630957       -17.1692
  39   2.0000      -0.612216       -16.6593
  40   2.0000      -0.598105       -16.2753
  41   2.0000      -0.565845       -15.3974
  42   2.0000      -0.564964       -15.3734
  43   2.0000      -0.561947       -15.2913
  44   2.0000      -0.541433       -14.7331
  45   2.0000      -0.528134       -14.3712
  46   2.0000      -0.514309       -13.9951
  47   2.0000      -0.510698       -13.8968
  48   2.0000      -0.506595       -13.7852
  49   2.0000      -0.495276       -13.4772
  50   2.0000      -0.485341       -13.2068
  51   2.0000      -0.477058       -12.9814
  52   2.0000      -0.470677       -12.8078
  53   2.0000      -0.462105       -12.5745
  54   2.0000      -0.456866       -12.4320
  55   2.0000      -0.450308       -12.2535
  56   2.0000      -0.448322       -12.1995
  57   2.0000      -0.438735       -11.9386
  58   2.0000      -0.426778       -11.6132
  59   2.0000      -0.424509       -11.5515
  60   2.0000      -0.422656       -11.5011
  61   2.0000      -0.406104       -11.0506
  62   2.0000      -0.402981       -10.9657
  63   2.0000      -0.345571        -9.4035
  64   2.0000      -0.336387        -9.1535
  65   2.0000      -0.327009        -8.8984
  66   2.0000      -0.290756        -7.9119
  67   0.0000       0.023303         0.6341
  68   0.0000       0.071941         1.9576
  69   0.0000       0.101519         2.7625
  70   0.0000       0.119507         3.2520
  71   0.0000       0.121787         3.3140

MULLIKEN ATOMIC CHARGES
-----------------------
   0 S :    0.094275
   1 C :   -0.114238
   2 C :   -0.105249
   3 C :   -0.005345
   4 C :   -0.165127
   5 H :    0.038916
   6 C :    0.074914
   7 H :    0.019350
   8 H :    0.047341
   9 C :   -0.089537
  10 H :    0.021579
  11 H :    0.019933
  12 C :    0.002407
  13 H :    0.046145
  14 H :    0.007429
  15 H :    0.009017
  16 S :    0.115302
  17 C :   -0.106734
  18 C :   -0.000908
  19 C :   -0.034572
  20 C :   -0.156388
  21 H :   -0.021123
  22 C :    0.155734
  23 H :    0.020845
  24 H :    0.013468
  25 C :   -0.087082
  26 H :    0.031437
  27 H :    0.021589
  28 C :   -0.082457
  29 H :    0.034969
  30 H :    0.036063
  31 H :    0.045755
  32 H :    0.052964
  33 H :    0.059330
Sum of atomic charges:   -0.0000000

LOEWDIN ATOMIC CHARGES
----------------------
   0 S :    0.402217
   1 C :   -0.193214
   2 C :   -0.060203
   3 C :   -0.078940
   4 C :   -0.202868
   5 H :    0.039633
   6 C :   -0.031620
   7 H :    0.032396
   8 H :    0.034622
   9 C :   -0.050865
  10 H :    0.027432
  11 H :    0.024944
  12 C :   -0.050077
  13 H :    0.029442
  14 H :    0.016132
  15 H :    0.016077
  16 S :    0.403991
  17 C :   -0.183993
  18 C :   -0.061772
  19 C :   -0.039800
  20 C :   -0.191328
  21 H :    0.014693
  22 C :   -0.018147
  23 H :    0.032757
  24 H :    0.013129
  25 C :   -0.050031
  26 H :    0.025579
  27 H :    0.026856
  28 C :   -0.077034
  29 H :    0.026520
  30 H :    0.026208
  31 H :    0.033936
  32 H :    0.037400
  33 H :    0.025927

  Mayer bond orders larger than 0.100000
B(  0-S ,  1-C ) :   1.1204 B(  0-S ,  4-C ) :   1.1307 B(  1-C ,  2-C ) :   1.6540
B(  1-C , 32-H ) :   0.9570 B(  2-C ,  3-C ) :   1.2012 B(  2-C ,  6-C ) :   1.0063
B(  3-C ,  4-C ) :   1.6062 B(  3-C ,  5-H ) :   0.9736 B(  4-C , 20-C ) :   1.0612
B(  6-C ,  7-H ) :   0.9443 B(  6-C ,  8-H ) :   0.9389 B(  6-C ,  9-C ) :   1.0798
B(  9-C , 10-H ) :   0.9433 B(  9-C , 11-H ) :   0.9551 B(  9-C , 12-C ) :   1.0799
B( 12-C , 13-H ) :   0.9749 B( 12-C , 14-H ) :   0.9705 B( 12-C , 15-H ) :   0.9747
B( 16-S , 17-C ) :   1.1672 B( 16-S , 20-C ) :   1.1454 B( 17-C , 18-C ) :   1.5843
B( 17-C , 20-C ) :   0.1059 B( 17-C , 33-H ) :   0.9692 B( 18-C , 19-C ) :   1.2444
B( 18-C , 21-H ) :   1.0084 B( 19-C , 20-C ) :   1.5484 B( 19-C , 22-C ) :   1.0377
B( 22-C , 23-H ) :   0.9313 B( 22-C , 24-H ) :   0.9284 B( 22-C , 25-C ) :   1.0504
B( 25-C , 26-H ) :   0.9602 B( 25-C , 27-H ) :   0.9475 B( 25-C , 28-C ) :   1.0810
B( 28-C , 29-H ) :   0.9735 B( 28-C , 30-H ) :   0.9727 B( 28-C , 31-H ) :   0.9754

Dispersion correction           -0.014861560
FINAL SINGLE POINT ENERGY     -1339.858788617731

DIPOLE MOMENT
-------------
                                X             Y             Z
Electronic contribution:    -13.08480      -8.40880     -17.66925
Nuclear contribution   :     13.11510       8.35912      18.00902
                        -----------------------------------------
Total Dipole Moment    :      0.03030      -0.04968       0.33977
                        -----------------------------------------
Magnitude (a.u.)       :      0.34472
Magnitude (Debye)      :      0.87621

Rotational constants in cm-1:     0.018152     0.009169     0.007490
Rotational constants in MHz :   544.183639   274.869273   224.539588

                             ****ORCA TERMINATED NORMALLY****
TOTAL RUN TIME: 0 days 0 hours 0 minutes 33 seconds 55 msec
