                         Program Version 4.2.1 -  RELEASE  -
|  1> ! wB97X-D3 SP def2-SVP
|  2> %pal
|  3> nprocs 16
|  4> end
|  5>
|  6> * xyz 0 1
|  7> S 	 7.6388 	 25.2327 	 40.1327
|  8> C 	 5.96843 	 25.7983 	 40.2685
|  9> C 	 5.26123 	 25.2416 	 41.3135
| 10> C 	 6.02973 	 24.262 	 41.994
| 11> C 	 7.28135 	 24.0717 	 41.3869
| 12> H 	 5.88929 	 23.7351 	 42.9526
| 13> C 	 3.87801 	 25.612 	 41.8002
| 14> H 	 3.29863 	 25.6082 	 40.8536
| 15> H 	 3.9086 	 26.6814 	 42.0169
| 16> C 	 3.21463 	 24.9035 	 43.0465
| 17> H 	 2.10759 	 24.9915 	 42.9727
| 18> H 	 3.46089 	 23.8334 	 42.8745
| 19> C 	 3.57475 	 25.4941 	 44.4351
| 20> H 	 4.49864 	 25.3706 	 44.8701
| 21> H 	 3.37941 	 26.5845 	 44.3199
| 22> H 	 2.86686 	 25.2202 	 45.1592
| 23> S 	 9.54366 	 23.8462 	 43.0327
| 24> C 	 10.4548 	 22.3023 	 43.0403
| 25> C 	 9.75352 	 21.3313 	 42.3764
| 26> C 	 8.54908 	 21.8192 	 41.7944
| 27> C 	 8.29762 	 23.1842 	 41.9241
| 28> H 	 10.1144 	 20.3366 	 42.4449
| 29> C 	 7.56368 	 20.8529 	 41.0981
| 30> H 	 6.64272 	 21.4372 	 40.9831
| 31> H 	 7.36365 	 20.1117 	 41.8173
| 32> C 	 8.02691 	 20.2909 	 39.7429
| 33> H 	 8.81913 	 19.5794 	 40.0212
| 34> H 	 8.35712 	 21.1217 	 39.1609
| 35> C 	 7.06475 	 19.3403 	 39.1276
| 36> H 	 7.20697 	 18.3842 	 39.6682
| 37> H 	 7.34303 	 19.1248 	 38.0435
| 38> H 	 6.05913 	 19.6069 	 39.1761
| 39> H 	 5.48035 	 26.4025 	 39.5257
| 40> H 	 11.3478 	 22.176 	 43.6668
| 41> *
| 42>
| 43>                          ****END OF INPUT****

CARTESIAN COORDINATES (ANGSTROEM)
---------------------------------
  S      7.638800   25.232700   40.132700
  C      5.968430   25.798300   40.268500
  C      5.261230   25.241600   41.313500
  C      6.029730   24.262000   41.994000
  C      7.281350   24.071700   41.386900
  H      5.889290   23.735100   42.952600
  C      3.878010   25.612000   41.800200
  H      3.298630   25.608200   40.853600
  H      3.908600   26.681400   42.016900
  C      3.214630   24.903500   43.046500
  H      2.107590   24.991500   42.972700
  H      3.460890   23.833400   42.874500
  C      3.574750   25.494100   44.435100
  H      4.498640   25.370600   44.870100
  H      3.379410   26.584500   44.319900
  H      2.866860   25.220200   45.159200
  S      9.543660   23.846200   43.032700
  C     10.454800   22.302300   43.040300
  C      9.753520   21.331300   42.376400
  C      8.549080   21.819200   41.794400
  C      8.297620   23.184200   41.924100
  H     10.114400   20.336600   42.444900
  C      7.563680   20.852900   41.098100
  H      6.642720   21.437200   40.983100
  H      7.363650   20.111700   41.817300
  C      8.026910   20.290900   39.742900
  H      8.819130   19.579400   40.021200
  H      8.357120   21.121700   39.160900
  C      7.064750   19.340300   39.127600
  H      7.206970   18.384200   39.668200
  H      7.343030   19.124800   38.043500
  H      6.059130   19.606900   39.176100
  H      5.480350   26.402500   39.525700
  H     11.347800   22.176000   43.666800

 Total Charge           Charge          ....    0
 Multiplicity           Mult            ....    1
 Number of Electrons    NEL             ....  134
 Basis Dimension        Dim             ....  322

ORBITAL ENERGIES
----------------

  NO   OCC          E(Eh)            E(eV)
   0   2.0000     -88.971589     -2421.0400
   1   2.0000     -88.957445     -2420.6551
   2   2.0000     -10.328226      -281.0453
   3   2.0000     -10.325106      -280.9604
   4   2.0000     -10.320412      -280.8327
   5   2.0000     -10.312657      -280.6217
   6   2.0000     -10.303095      -280.3615
   7   2.0000     -10.302966      -280.3580
   8   2.0000     -10.302455      -280.3440
   9   2.0000     -10.297097      -280.1983
  10   2.0000     -10.296482      -280.1815
  11   2.0000     -10.290405      -280.0162
  12   2.0000     -10.281548      -279.7751
  13   2.0000     -10.277274      -279.6588
  14   2.0000     -10.276215      -279.6300
  15   2.0000     -10.273586      -279.5585
  16   2.0000      -8.085786      -220.0254
  17   2.0000      -8.071307      -219.6314
  18   2.0000      -6.044168      -164.4702
  19   2.0000      -6.040545      -164.3716
  20   2.0000      -6.036530      -164.2623
  21   2.0000      -6.029896      -164.0818
  22   2.0000      -6.025969      -163.9750
  23   2.0000      -6.022003      -163.8670
  24   2.0000      -1.001076       -27.2407
  25   2.0000      -0.977487       -26.5988
  26   2.0000      -0.907952       -24.7066
  27   2.0000      -0.906884       -24.6776
  28   2.0000      -0.869233       -23.6530
  29   2.0000      -0.850603       -23.1461
  30   2.0000      -0.844992       -22.9934
  31   2.0000      -0.814425       -22.1616
  32   2.0000      -0.785766       -21.3818
  33   2.0000      -0.767292       -20.8791
  34   2.0000      -0.713405       -19.4127
  35   2.0000      -0.696366       -18.9491
  36   2.0000      -0.690913       -18.8007
  37   2.0000      -0.656774       -17.8717
  38   2.0000      -0.639293       -17.3960
  39   2.0000      -0.617263       -16.7966
  40   2.0000      -0.587490       -15.9864
  41   2.0000      -0.577030       -15.7018
  42   2.0000      -0.568372       -15.4662
  43   2.0000      -0.548519       -14.9260
  44   2.0000      -0.544704       -14.8222
  45   2.0000      -0.522487       -14.2176
  46   2.0000      -0.519726       -14.1425
  47   2.0000      -0.509180       -13.8555
  48   2.0000      -0.500114       -13.6088
  49   2.0000      -0.491286       -13.3686
  50   2.0000      -0.490359       -13.3433
  51   2.0000      -0.477223       -12.9859
  52   2.0000      -0.471533       -12.8311
  53   2.0000      -0.463528       -12.6132
  54   2.0000      -0.459015       -12.4904
  55   2.0000      -0.451722       -12.2920
  56   2.0000      -0.443136       -12.0583
  57   2.0000      -0.439512       -11.9597
  58   2.0000      -0.428820       -11.6688
  59   2.0000      -0.426098       -11.5947
  60   2.0000      -0.418818       -11.3966
  61   2.0000      -0.411168       -11.1885
  62   2.0000      -0.408552       -11.1173
  63   2.0000      -0.336986        -9.1699
  64   2.0000      -0.326938        -8.8964
  65   2.0000      -0.319816        -8.7026
  66   2.0000      -0.302047        -8.2191
  67   0.0000       0.036732         0.9995
  68   0.0000       0.050561         1.3758
  69   0.0000       0.111870         3.0441
  70   0.0000       0.114981         3.1288
  71   0.0000       0.133701         3.6382

MULLIKEN ATOMIC CHARGES
-----------------------
   0 S :    0.137348
   1 C :   -0.129253
   2 C :   -0.061636
   3 C :    0.009096
   4 C :   -0.181765
   5 H :    0.037811
   6 C :    0.042105
   7 H :    0.034920
   8 H :    0.030012
   9 C :   -0.083130
  10 H :    0.040107
  11 H :    0.041582
  12 C :   -0.009983
  13 H :    0.029899
  14 H :    0.024493
  15 H :    0.022309
  16 S :    0.075673
  17 C :   -0.108391
  18 C :   -0.006063
  19 C :   -0.038879
  20 C :   -0.182360
  21 H :    0.010537
  22 C :    0.072266
  23 H :    0.018273
  24 H :    0.011187
  25 C :   -0.057151
  26 H :    0.022156
  27 H :    0.035413
  28 C :   -0.031783
  29 H :    0.025078
  30 H :    0.042817
  31 H :    0.019328
  32 H :    0.038813
  33 H :    0.069169
Sum of atomic charges:   -0.0000000

LOEWDIN ATOMIC CHARGES
----------------------
   0 S :    0.415590
   1 C :   -0.196657
   2 C :   -0.061445
   3 C :   -0.061457
   4 C :   -0.201513
   5 H :    0.041233
   6 C :   -0.043124
   7 H :    0.039398
   8 H :    0.032806
   9 C :   -0.040856
  10 H :    0.035967
  11 H :    0.025788
  12 C :   -0.058789
  13 H :    0.014451
  14 H :    0.034111
  15 H :    0.023610
  16 S :    0.357723
  17 C :   -0.164426
  18 C :   -0.074021
  19 C :   -0.050745
  20 C :   -0.196613
  21 H :    0.029344
  22 C :   -0.026778
  23 H :    0.026587
  24 H :    0.021069
  25 C :   -0.041203
  26 H :    0.028533
  27 H :    0.022364
  28 C :   -0.063643
  29 H :    0.029019
  30 H :    0.036383
  31 H :    0.010953
  32 H :    0.023063
  33 H :    0.033278

  Mayer bond orders larger than 0.100000
B(  0-S ,  1-C ) :   1.1344 B(  0-S ,  4-C ) :   1.1642 B(  1-C ,  2-C ) :   1.6207
B(  1-C ,  4-C ) :   0.1030 B(  1-C , 32-H ) :   0.9686 B(  2-C ,  3-C ) :   1.2404
B(  2-C ,  6-C ) :   0.9946 B(  3-C ,  4-C ) :   1.5685 B(  3-C ,  5-H ) :   0.9821
B(  4-C , 20-C ) :   1.0332 B(  6-C ,  7-H ) :   0.9341 B(  6-C ,  8-H ) :   0.9387
B(  6-C ,  9-C ) :   1.0653 B(  9-C , 10-H ) :   0.9537 B(  9-C , 11-H ) :   0.9544
B(  9-C , 12-C ) :   1.0700 B( 12-C , 13-H ) :   0.9817 B( 12-C , 14-H ) :   0.9684
B( 12-C , 15-H ) :   0.9737 B( 16-S , 17-C ) :   1.1503 B( 16-S , 20-C ) :   1.1186
B( 17-C , 18-C ) :   1.6127 B( 17-C , 20-C ) :   0.1006 B( 17-C , 33-H ) :   0.9640
B( 18-C , 19-C ) :   1.2228 B( 18-C , 21-H ) :   1.0000 B( 19-C , 20-C ) :   1.6192
B( 19-C , 22-C ) :   1.0344 B( 22-C , 23-H ) :   0.9296 B( 22-C , 24-H ) :   0.9352
B( 22-C , 25-C ) :   1.0704 B( 25-C , 26-H ) :   0.9588 B( 25-C , 27-H ) :   0.9591
B( 25-C , 28-C ) :   1.0772 B( 28-C , 29-H ) :   0.9783 B( 28-C , 30-H ) :   0.9715
B( 28-C , 31-H ) :   0.9755

Dispersion correction           -0.013945718
FINAL SINGLE POINT ENERGY     -1339.856568737229

DIPOLE MOMENT
-------------
                                X             Y             Z
Electronic contribution:     19.44796      11.67372      -0.61741
Nuclear contribution   :    -20.00391     -11.95981       0.81334
                        -----------------------------------------
Total Dipole Moment    :     -0.55596      -0.28609       0.19592
                        -----------------------------------------
Magnitude (a.u.)       :      0.65523
Magnitude (Debye)      :      1.66545

Rotational constants in cm-1:     0.016523     0.008321     0.007404
Rotational constants in MHz :   495.346940   249.442534   221.951522

                             ****ORCA TERMINATED NORMALLY****
TOTAL RUN TIME: 0 days 0 hours 0 minutes 34 seconds 17 msec
