                         Program Version 4.2.1 -  RELEASE  -
|  1> ! wB97X-D3 SP def2-SVP
|  2> %pal
|  3> nprocs 16
|  4> end
|  5>
|  6> * xyz 0 1
|  7> S 	 4.48691 	 -21.9088 	 59.9409
|  8> C 	 5.7424 	 -20.8452 	 59.269
|  9> C 	 5.24688 	 -19.5436 	 59.1084
| 10> C 	 3.85233 	 -19.42 	 59.5502
| 11> C 	 3.36747 	 -20.6269 	 60.0408
| 12> H 	 3.27063 	 -18.4929 	 59.5884
| 13> C 	 6.09544 	 -18.3729 	 58.6718
| 14> H 	 6.0351 	 -18.3502 	 57.551
| 15> H 	 7.12791 	 -18.5348 	 58.9366
| 16> C 	 5.66689 	 -16.9651 	 59.2045
| 17> H 	 6.35955 	 -16.2143 	 58.69
| 18> H 	 4.67793 	 -16.7256 	 58.7694
| 19> C 	 5.79139 	 -16.7257 	 60.6733
| 20> H 	 6.80368 	 -16.9306 	 61.0761
| 21> H 	 5.65384 	 -15.7085 	 61.0536
| 22> H 	 5.04844 	 -17.3525 	 61.1911
| 23> S 	 1.30372 	 -22.3208 	 60.4068
| 24> C 	 -0.0741615 	 -21.8959 	 61.4099
| 25> C 	 0.0283961 	 -20.5695 	 61.8781
| 26> C 	 1.19231 	 -20.0115 	 61.4135
| 27> C 	 2.05403 	 -20.83 	 60.5812
| 28> H 	 -0.82176 	 -20.1452 	 62.4263
| 29> C 	 1.59568 	 -18.7033 	 62.0527
| 30> H 	 0.823541 	 -17.9894 	 61.7388
| 31> H 	 2.41337 	 -18.2725 	 61.4828
| 32> C 	 2.0039 	 -18.6914 	 63.5568
| 33> H 	 1.18952 	 -19.2923 	 63.9358
| 34> H 	 1.94294 	 -17.6993 	 63.9252
| 35> C 	 3.36504 	 -19.195 	 63.8588
| 36> H 	 4.09139 	 -18.775 	 63.2197
| 37> H 	 3.37864 	 -20.213 	 63.8345
| 38> H 	 3.63237 	 -18.9239 	 64.9285
| 39> H 	 6.72985 	 -21.2491 	 59.1948
| 40> H 	 -1.01439 	 -22.354 	 61.506
| 41> *
| 42>
| 43>                          ****END OF INPUT****

CARTESIAN COORDINATES (ANGSTROEM)
---------------------------------
  S      4.486910  -21.908800   59.940900
  C      5.742400  -20.845200   59.269000
  C      5.246880  -19.543600   59.108400
  C      3.852330  -19.420000   59.550200
  C      3.367470  -20.626900   60.040800
  H      3.270630  -18.492900   59.588400
  C      6.095440  -18.372900   58.671800
  H      6.035100  -18.350200   57.551000
  H      7.127910  -18.534800   58.936600
  C      5.666890  -16.965100   59.204500
  H      6.359550  -16.214300   58.690000
  H      4.677930  -16.725600   58.769400
  C      5.791390  -16.725700   60.673300
  H      6.803680  -16.930600   61.076100
  H      5.653840  -15.708500   61.053600
  H      5.048440  -17.352500   61.191100
  S      1.303720  -22.320800   60.406800
  C     -0.074162  -21.895900   61.409900
  C      0.028396  -20.569500   61.878100
  C      1.192310  -20.011500   61.413500
  C      2.054030  -20.830000   60.581200
  H     -0.821760  -20.145200   62.426300
  C      1.595680  -18.703300   62.052700
  H      0.823541  -17.989400   61.738800
  H      2.413370  -18.272500   61.482800
  C      2.003900  -18.691400   63.556800
  H      1.189520  -19.292300   63.935800
  H      1.942940  -17.699300   63.925200
  C      3.365040  -19.195000   63.858800
  H      4.091390  -18.775000   63.219700
  H      3.378640  -20.213000   63.834500
  H      3.632370  -18.923900   64.928500
  H      6.729850  -21.249100   59.194800
  H     -1.014390  -22.354000   61.506000

 Total Charge           Charge          ....    0
 Multiplicity           Mult            ....    1
 Number of Electrons    NEL             ....  134
 Basis Dimension        Dim             ....  322

ORBITAL ENERGIES
----------------

  NO   OCC          E(Eh)            E(eV)
   0   2.0000     -88.972292     -2421.0591
   1   2.0000     -88.966482     -2420.9010
   2   2.0000     -10.330359      -281.1034
   3   2.0000     -10.327165      -281.0165
   4   2.0000     -10.316398      -280.7235
   5   2.0000     -10.313823      -280.6534
   6   2.0000     -10.310912      -280.5742
   7   2.0000     -10.300155      -280.2815
   8   2.0000     -10.298639      -280.2402
   9   2.0000     -10.298197      -280.2282
  10   2.0000     -10.297091      -280.1981
  11   2.0000     -10.293175      -280.0915
  12   2.0000     -10.281666      -279.7784
  13   2.0000     -10.281285      -279.7680
  14   2.0000     -10.276330      -279.6331
  15   2.0000     -10.262939      -279.2688
  16   2.0000      -8.087505      -220.0722
  17   2.0000      -8.081800      -219.9170
  18   2.0000      -6.045786      -164.5142
  19   2.0000      -6.041648      -164.4016
  20   2.0000      -6.040293      -164.3647
  21   2.0000      -6.038768      -164.3232
  22   2.0000      -6.036190      -164.2531
  23   2.0000      -6.032591      -164.1552
  24   2.0000      -1.014219       -27.5983
  25   2.0000      -0.985231       -26.8095
  26   2.0000      -0.914291       -24.8791
  27   2.0000      -0.908791       -24.7295
  28   2.0000      -0.875681       -23.8285
  29   2.0000      -0.854852       -23.2617
  30   2.0000      -0.845648       -23.0113
  31   2.0000      -0.816695       -22.2234
  32   2.0000      -0.784869       -21.3574
  33   2.0000      -0.769564       -20.9409
  34   2.0000      -0.711566       -19.3627
  35   2.0000      -0.696918       -18.9641
  36   2.0000      -0.695253       -18.9188
  37   2.0000      -0.658203       -17.9106
  38   2.0000      -0.640150       -17.4194
  39   2.0000      -0.627161       -17.0659
  40   2.0000      -0.595064       -16.1925
  41   2.0000      -0.570075       -15.5125
  42   2.0000      -0.556590       -15.1456
  43   2.0000      -0.554598       -15.0914
  44   2.0000      -0.541441       -14.7333
  45   2.0000      -0.537228       -14.6187
  46   2.0000      -0.523464       -14.2442
  47   2.0000      -0.512534       -13.9468
  48   2.0000      -0.505813       -13.7639
  49   2.0000      -0.501745       -13.6532
  50   2.0000      -0.494893       -13.4667
  51   2.0000      -0.479253       -13.0411
  52   2.0000      -0.476222       -12.9586
  53   2.0000      -0.462297       -12.5797
  54   2.0000      -0.459919       -12.5150
  55   2.0000      -0.450210       -12.2508
  56   2.0000      -0.448131       -12.1943
  57   2.0000      -0.439923       -11.9709
  58   2.0000      -0.431642       -11.7456
  59   2.0000      -0.419904       -11.4262
  60   2.0000      -0.413180       -11.2432
  61   2.0000      -0.411298       -11.1920
  62   2.0000      -0.401971       -10.9382
  63   2.0000      -0.356495        -9.7007
  64   2.0000      -0.335663        -9.1339
  65   2.0000      -0.329007        -8.9527
  66   2.0000      -0.279237        -7.5984
  67   0.0000       0.020825         0.5667
  68   0.0000       0.076290         2.0760
  69   0.0000       0.106482         2.8975
  70   0.0000       0.112167         3.0522
  71   0.0000       0.133501         3.6327

MULLIKEN ATOMIC CHARGES
-----------------------
   0 S :    0.102396
   1 C :   -0.138531
   2 C :   -0.071996
   3 C :   -0.008354
   4 C :   -0.115142
   5 H :    0.032859
   6 C :    0.063244
   7 H :    0.054155
   8 H :    0.023772
   9 C :   -0.114496
  10 H :    0.034955
  11 H :    0.035505
  12 C :   -0.043306
  13 H :    0.029558
  14 H :    0.034136
  15 H :    0.037953
  16 S :    0.122372
  17 C :   -0.082704
  18 C :   -0.067435
  19 C :   -0.059915
  20 C :   -0.123803
  21 H :    0.040093
  22 C :    0.046103
  23 H :    0.022980
  24 H :   -0.031984
  25 C :   -0.018160
  26 H :    0.015421
  27 H :    0.018443
  28 C :    0.001211
  29 H :    0.024349
  30 H :    0.017868
  31 H :    0.029847
  32 H :    0.049678
  33 H :    0.038928
Sum of atomic charges:    0.0000000

LOEWDIN ATOMIC CHARGES
----------------------
   0 S :    0.409784
   1 C :   -0.193249
   2 C :   -0.053109
   3 C :   -0.072870
   4 C :   -0.200364
   5 H :    0.033199
   6 C :   -0.033248
   7 H :    0.044569
   8 H :    0.027841
   9 C :   -0.051519
  10 H :    0.032829
  11 H :    0.023804
  12 C :   -0.075087
  13 H :    0.030331
  14 H :    0.029478
  15 H :    0.024207
  16 S :    0.455015
  17 C :   -0.191489
  18 C :   -0.069482
  19 C :   -0.067208
  20 C :   -0.225805
  21 H :    0.042478
  22 C :   -0.043442
  23 H :    0.033250
  24 H :    0.014759
  25 C :   -0.030826
  26 H :    0.021373
  27 H :    0.020520
  28 C :   -0.050809
  29 H :    0.021007
  30 H :    0.015236
  31 H :    0.035529
  32 H :    0.022863
  33 H :    0.020433

  Mayer bond orders larger than 0.100000
B(  0-S ,  1-C ) :   1.1205 B(  0-S ,  4-C ) :   1.1688 B(  1-C ,  2-C ) :   1.5977
B(  1-C , 32-H ) :   0.9810 B(  2-C ,  3-C ) :   1.2317 B(  2-C ,  6-C ) :   1.0151
B(  3-C ,  4-C ) :   1.5480 B(  3-C ,  5-H ) :   0.9830 B(  4-C , 20-C ) :   1.0746
B(  6-C ,  7-H ) :   0.9305 B(  6-C ,  8-H ) :   0.9464 B(  6-C ,  9-C ) :   1.0855
B(  9-C , 10-H ) :   0.9521 B(  9-C , 11-H ) :   0.9472 B(  9-C , 12-C ) :   1.0779
B( 12-C , 13-H ) :   0.9688 B( 12-C , 14-H ) :   0.9697 B( 12-C , 15-H ) :   0.9719
B( 16-S , 17-C ) :   1.1883 B( 16-S , 20-C ) :   1.1789 B( 17-C , 18-C ) :   1.5295
B( 17-C , 20-C ) :   0.1192 B( 17-C , 33-H ) :   0.9685 B( 18-C , 19-C ) :   1.3393
B( 18-C , 21-H ) :   0.9859 B( 19-C , 20-C ) :   1.4644 B( 19-C , 22-C ) :   1.0520
B( 22-C , 23-H ) :   0.9259 B( 22-C , 24-H ) :   0.9250 B( 22-C , 25-C ) :   1.0565
B( 25-C , 26-H ) :   0.9554 B( 25-C , 27-H ) :   0.9511 B( 25-C , 28-C ) :   1.0893
B( 28-C , 29-H ) :   0.9716 B( 28-C , 30-H ) :   0.9733 B( 28-C , 31-H ) :   0.9685

Dispersion correction           -0.015804361
FINAL SINGLE POINT ENERGY     -1339.862795843889

DIPOLE MOMENT
-------------
                                X             Y             Z
Electronic contribution:     -8.80468     -25.76699     -10.05001
Nuclear contribution   :      8.90031      26.40508      10.20678
                        -----------------------------------------
Total Dipole Moment    :      0.09563       0.63809       0.15677
                        -----------------------------------------
Magnitude (a.u.)       :      0.66398
Magnitude (Debye)      :      1.68771

Rotational constants in cm-1:     0.019084     0.010373     0.007775
Rotational constants in MHz :   572.119902   310.968492   233.080140

                             ****ORCA TERMINATED NORMALLY****
TOTAL RUN TIME: 0 days 0 hours 0 minutes 38 seconds 771 msec
