                         Program Version 4.2.1 -  RELEASE  -
|  1> ! wB97X-D3 SP def2-SVP
|  2> %pal
|  3> nprocs 16
|  4> end
|  5>
|  6> * xyz 0 1
|  7> S 	 3.60407 	 -5.15042 	 76.7672
|  8> C 	 1.94772 	 -5.46096 	 76.3051
|  9> C 	 1.01311 	 -4.90452 	 77.1939
| 10> C 	 1.71323 	 -4.55164 	 78.369
| 11> C 	 3.08095 	 -4.67179 	 78.3921
| 12> H 	 1.33723 	 -4.12122 	 79.2619
| 13> C 	 -0.470213 	 -4.8889 	 77.0152
| 14> H 	 -0.882908 	 -5.87739 	 77.0575
| 15> H 	 -0.633063 	 -4.50199 	 76.0262
| 16> C 	 -1.29733 	 -4.01316 	 78.0297
| 17> H 	 -2.36873 	 -4.23709 	 77.95
| 18> H 	 -0.980743 	 -4.3522 	 79.0325
| 19> C 	 -1.03959 	 -2.61005 	 77.831
| 20> H 	 -1.4757 	 -2.02878 	 78.6051
| 21> H 	 0.0145176 	 -2.38004 	 77.6761
| 22> H 	 -1.48674 	 -2.39534 	 76.8333
| 23> S 	 5.5089 	 -3.4651 	 78.9932
| 24> C 	 5.79558 	 -2.96618 	 80.6988
| 25> C 	 5.03154 	 -3.83839 	 81.4674
| 26> C 	 4.01599 	 -4.55145 	 80.8073
| 27> C 	 4.01396 	 -4.31145 	 79.4223
| 28> H 	 5.28547 	 -3.81804 	 82.5066
| 29> C 	 3.0722 	 -5.41977 	 81.548
| 30> H 	 3.65752 	 -6.05065 	 82.211
| 31> H 	 2.61687 	 -6.16973 	 80.8903
| 32> C 	 1.9838 	 -4.71938 	 82.4263
| 33> H 	 1.43262 	 -5.46691 	 83.0217
| 34> H 	 1.19306 	 -4.22875 	 81.6957
| 35> C 	 2.52133 	 -3.63005 	 83.3486
| 36> H 	 3.15309 	 -3.93403 	 84.1324
| 37> H 	 1.72293 	 -3.04166 	 83.6741
| 38> H 	 3.0843 	 -2.9309 	 82.7812
| 39> H 	 1.57703 	 -5.83779 	 75.4035
| 40> H 	 6.70043 	 -2.39576 	 81.0262
| 41> *
| 42>
| 43>                          ****END OF INPUT****

CARTESIAN COORDINATES (ANGSTROEM)
---------------------------------
  S      3.604070   -5.150420   76.767200
  C      1.947720   -5.460960   76.305100
  C      1.013110   -4.904520   77.193900
  C      1.713230   -4.551640   78.369000
  C      3.080950   -4.671790   78.392100
  H      1.337230   -4.121220   79.261900
  C     -0.470213   -4.888900   77.015200
  H     -0.882908   -5.877390   77.057500
  H     -0.633063   -4.501990   76.026200
  C     -1.297330   -4.013160   78.029700
  H     -2.368730   -4.237090   77.950000
  H     -0.980743   -4.352200   79.032500
  C     -1.039590   -2.610050   77.831000
  H     -1.475700   -2.028780   78.605100
  H      0.014518   -2.380040   77.676100
  H     -1.486740   -2.395340   76.833300
  S      5.508900   -3.465100   78.993200
  C      5.795580   -2.966180   80.698800
  C      5.031540   -3.838390   81.467400
  C      4.015990   -4.551450   80.807300
  C      4.013960   -4.311450   79.422300
  H      5.285470   -3.818040   82.506600
  C      3.072200   -5.419770   81.548000
  H      3.657520   -6.050650   82.211000
  H      2.616870   -6.169730   80.890300
  C      1.983800   -4.719380   82.426300
  H      1.432620   -5.466910   83.021700
  H      1.193060   -4.228750   81.695700
  C      2.521330   -3.630050   83.348600
  H      3.153090   -3.934030   84.132400
  H      1.722930   -3.041660   83.674100
  H      3.084300   -2.930900   82.781200
  H      1.577030   -5.837790   75.403500
  H      6.700430   -2.395760   81.026200

 Total Charge           Charge          ....    0
 Multiplicity           Mult            ....    1
 Number of Electrons    NEL             ....  134
 Basis Dimension        Dim             ....  322

ORBITAL ENERGIES
----------------

  NO   OCC          E(Eh)            E(eV)
   0   2.0000     -88.968002     -2420.9424
   1   2.0000     -88.961794     -2420.7735
   2   2.0000     -10.332530      -281.1624
   3   2.0000     -10.328684      -281.0578
   4   2.0000     -10.324502      -280.9440
   5   2.0000     -10.312260      -280.6108
   6   2.0000     -10.303787      -280.3803
   7   2.0000     -10.303343      -280.3682
   8   2.0000     -10.299260      -280.2571
   9   2.0000     -10.294601      -280.1303
  10   2.0000     -10.291421      -280.0438
  11   2.0000     -10.290216      -280.0110
  12   2.0000     -10.290113      -280.0082
  13   2.0000     -10.286280      -279.9039
  14   2.0000     -10.269947      -279.4595
  15   2.0000     -10.263707      -279.2897
  16   2.0000      -8.082223      -219.9285
  17   2.0000      -8.075833      -219.7546
  18   2.0000      -6.040788      -164.3782
  19   2.0000      -6.036925      -164.2731
  20   2.0000      -6.034467      -164.2062
  21   2.0000      -6.032841      -164.1619
  22   2.0000      -6.030661      -164.1026
  23   2.0000      -6.026273      -163.9832
  24   2.0000      -1.006663       -27.3927
  25   2.0000      -0.983719       -26.7684
  26   2.0000      -0.922202       -25.0944
  27   2.0000      -0.906930       -24.6788
  28   2.0000      -0.876204       -23.8427
  29   2.0000      -0.852587       -23.2001
  30   2.0000      -0.844977       -22.9930
  31   2.0000      -0.821292       -22.3485
  32   2.0000      -0.787820       -21.4377
  33   2.0000      -0.774791       -21.0831
  34   2.0000      -0.713849       -19.4248
  35   2.0000      -0.696785       -18.9605
  36   2.0000      -0.691029       -18.8038
  37   2.0000      -0.660404       -17.9705
  38   2.0000      -0.645680       -17.5698
  39   2.0000      -0.623921       -16.9777
  40   2.0000      -0.592359       -16.1189
  41   2.0000      -0.570924       -15.5356
  42   2.0000      -0.564164       -15.3517
  43   2.0000      -0.553597       -15.0641
  44   2.0000      -0.544623       -14.8200
  45   2.0000      -0.542546       -14.7634
  46   2.0000      -0.526827       -14.3357
  47   2.0000      -0.516529       -14.0555
  48   2.0000      -0.507472       -13.8090
  49   2.0000      -0.496601       -13.5132
  50   2.0000      -0.489246       -13.3131
  51   2.0000      -0.484479       -13.1833
  52   2.0000      -0.479421       -13.0457
  53   2.0000      -0.470009       -12.7896
  54   2.0000      -0.456842       -12.4313
  55   2.0000      -0.448938       -12.2162
  56   2.0000      -0.438391       -11.9292
  57   2.0000      -0.433510       -11.7964
  58   2.0000      -0.430761       -11.7216
  59   2.0000      -0.428034       -11.6474
  60   2.0000      -0.419810       -11.4236
  61   2.0000      -0.412992       -11.2381
  62   2.0000      -0.409040       -11.1305
  63   2.0000      -0.353296        -9.6137
  64   2.0000      -0.333204        -9.0669
  65   2.0000      -0.324460        -8.8290
  66   2.0000      -0.281630        -7.6635
  67   0.0000       0.017206         0.4682
  68   0.0000       0.059341         1.6147
  69   0.0000       0.099449         2.7062
  70   0.0000       0.116694         3.1754
  71   0.0000       0.125172         3.4061

MULLIKEN ATOMIC CHARGES
-----------------------
   0 S :    0.112341
   1 C :   -0.077311
   2 C :   -0.095582
   3 C :    0.022883
   4 C :   -0.142607
   5 H :   -0.021061
   6 C :    0.071621
   7 H :    0.042929
   8 H :    0.016801
   9 C :   -0.081694
  10 H :    0.032327
  11 H :    0.023034
  12 C :   -0.025101
  13 H :    0.035045
  14 H :    0.041488
  15 H :    0.019461
  16 S :    0.076044
  17 C :   -0.118698
  18 C :   -0.041291
  19 C :   -0.020469
  20 C :   -0.139169
  21 H :    0.018532
  22 C :    0.071441
  23 H :    0.021529
  24 H :    0.030734
  25 C :   -0.111016
  26 H :    0.037432
  27 H :    0.038379
  28 C :    0.000330
  29 H :    0.023951
  30 H :    0.016677
  31 H :    0.023525
  32 H :    0.016154
  33 H :    0.081342
Sum of atomic charges:   -0.0000000

LOEWDIN ATOMIC CHARGES
----------------------
   0 S :    0.398258
   1 C :   -0.181839
   2 C :   -0.060897
   3 C :   -0.060572
   4 C :   -0.185579
   5 H :    0.021266
   6 C :   -0.027739
   7 H :    0.034423
   8 H :    0.027975
   9 C :   -0.041366
  10 H :    0.027867
  11 H :    0.019133
  12 C :   -0.065262
  13 H :    0.023527
  14 H :    0.028923
  15 H :    0.030733
  16 S :    0.367110
  17 C :   -0.180769
  18 C :   -0.064528
  19 C :   -0.064859
  20 C :   -0.178376
  21 H :    0.029270
  22 C :   -0.039746
  23 H :    0.032792
  24 H :    0.034034
  25 C :   -0.037639
  26 H :    0.024669
  27 H :    0.029481
  28 C :   -0.062355
  29 H :    0.018137
  30 H :    0.023049
  31 H :    0.024191
  32 H :    0.015332
  33 H :    0.041355

  Mayer bond orders larger than 0.100000
B(  0-S ,  1-C ) :   1.1529 B(  0-S ,  4-C ) :   1.1181 B(  1-C ,  2-C ) :   1.6011
B(  1-C ,  4-C ) :   0.1057 B(  1-C , 32-H ) :   0.9730 B(  2-C ,  3-C ) :   1.2351
B(  2-C ,  6-C ) :   1.0075 B(  3-C ,  4-C ) :   1.5811 B(  3-C ,  5-H ) :   0.9959
B(  4-C , 20-C ) :   1.0944 B(  6-C ,  7-H ) :   0.9372 B(  6-C ,  8-H ) :   0.9323
B(  6-C ,  9-C ) :   1.0908 B(  9-C , 10-H ) :   0.9535 B(  9-C , 11-H ) :   0.9444
B(  9-C , 12-C ) :   1.0847 B( 12-C , 13-H ) :   0.9700 B( 12-C , 14-H ) :   0.9751
B( 12-C , 15-H ) :   0.9658 B( 16-S , 17-C ) :   1.1299 B( 16-S , 20-C ) :   1.1350
B( 17-C , 18-C ) :   1.5970 B( 17-C , 20-C ) :   0.1146 B( 17-C , 33-H ) :   0.9628
B( 18-C , 19-C ) :   1.2344 B( 18-C , 21-H ) :   0.9900 B( 19-C , 20-C ) :   1.5455
B( 19-C , 22-C ) :   1.0566 B( 22-C , 23-H ) :   0.9305 B( 22-C , 24-H ) :   0.9305
B( 22-C , 25-C ) :   1.0633 B( 25-C , 26-H ) :   0.9554 B( 25-C , 27-H ) :   0.9523
B( 25-C , 28-C ) :   1.0875 B( 28-C , 29-H ) :   0.9736 B( 28-C , 30-H ) :   0.9645
B( 28-C , 31-H ) :   0.9594

Dispersion correction           -0.014900898
FINAL SINGLE POINT ENERGY     -1339.854848542383

DIPOLE MOMENT
-------------
                                X             Y             Z
Electronic contribution:     23.81147      -3.50488     -14.37444
Nuclear contribution   :    -24.38568       3.46765      14.83808
                        -----------------------------------------
Total Dipole Moment    :     -0.57421      -0.03723       0.46364
                        -----------------------------------------
Magnitude (a.u.)       :      0.73897
Magnitude (Debye)      :      1.87830

Rotational constants in cm-1:     0.017595     0.009941     0.007290
Rotational constants in MHz :   527.474668   298.035000   218.557923

                             ****ORCA TERMINATED NORMALLY****
TOTAL RUN TIME: 0 days 0 hours 0 minutes 35 seconds 526 msec
