                         Program Version 4.2.1 -  RELEASE  -
|  1> ! wB97X-D3 SP def2-SVP
|  2> %pal
|  3> nprocs 16
|  4> end
|  5>
|  6> * xyz 0 1
|  7> S 	 27.9311 	 35.3136 	 55.8069
|  8> C 	 28.5894 	 34.2743 	 54.5258
|  9> C 	 29.3276 	 33.2124 	 55.0537
| 10> C 	 29.2776 	 33.1935 	 56.449
| 11> C 	 28.63 	 34.2857 	 57.0334
| 12> H 	 29.7807 	 32.5532 	 57.1239
| 13> C 	 30.3077 	 32.3036 	 54.2288
| 14> H 	 31.2405 	 32.3384 	 54.7532
| 15> H 	 30.3538 	 32.6365 	 53.1994
| 16> C 	 29.8178 	 30.8731 	 54.2033
| 17> H 	 29.6132 	 30.4672 	 55.1484
| 18> H 	 28.8096 	 30.7269 	 53.799
| 19> C 	 30.8461 	 29.9797 	 53.4199
| 20> H 	 31.859 	 29.8626 	 53.8428
| 21> H 	 30.5039 	 28.9317 	 53.4211
| 22> H 	 31.0173 	 30.2882 	 52.36
| 23> S 	 28.7342 	 36.2183 	 58.9858
| 24> C 	 28.4176 	 35.9054 	 60.7103
| 25> C 	 28.443 	 34.5248 	 60.8807
| 26> C 	 28.4265 	 33.737 	 59.6647
| 27> C 	 28.5411 	 34.5207 	 58.5228
| 28> H 	 28.4218 	 34.0978 	 61.8859
| 29> C 	 28.3579 	 32.1778 	 59.6005
| 30> H 	 28.587 	 31.8662 	 58.5527
| 31> H 	 27.3702 	 31.8412 	 59.8472
| 32> C 	 29.3637 	 31.4952 	 60.4636
| 33> H 	 29.0395 	 30.5498 	 60.7415
| 34> H 	 29.6534 	 32.1169 	 61.3788
| 35> C 	 30.8079 	 31.238 	 59.8603
| 36> H 	 31.6012 	 32.0235 	 59.6761
| 37> H 	 30.5926 	 30.8846 	 58.8521
| 38> H 	 31.3646 	 30.447 	 60.3263
| 39> H 	 28.5702 	 34.4733 	 53.4921
| 40> H 	 28.2163 	 36.5675 	 61.4972
| 41> *
| 42>
| 43>                          ****END OF INPUT****

CARTESIAN COORDINATES (ANGSTROEM)
---------------------------------
  S     27.931100   35.313600   55.806900
  C     28.589400   34.274300   54.525800
  C     29.327600   33.212400   55.053700
  C     29.277600   33.193500   56.449000
  C     28.630000   34.285700   57.033400
  H     29.780700   32.553200   57.123900
  C     30.307700   32.303600   54.228800
  H     31.240500   32.338400   54.753200
  H     30.353800   32.636500   53.199400
  C     29.817800   30.873100   54.203300
  H     29.613200   30.467200   55.148400
  H     28.809600   30.726900   53.799000
  C     30.846100   29.979700   53.419900
  H     31.859000   29.862600   53.842800
  H     30.503900   28.931700   53.421100
  H     31.017300   30.288200   52.360000
  S     28.734200   36.218300   58.985800
  C     28.417600   35.905400   60.710300
  C     28.443000   34.524800   60.880700
  C     28.426500   33.737000   59.664700
  C     28.541100   34.520700   58.522800
  H     28.421800   34.097800   61.885900
  C     28.357900   32.177800   59.600500
  H     28.587000   31.866200   58.552700
  H     27.370200   31.841200   59.847200
  C     29.363700   31.495200   60.463600
  H     29.039500   30.549800   60.741500
  H     29.653400   32.116900   61.378800
  C     30.807900   31.238000   59.860300
  H     31.601200   32.023500   59.676100
  H     30.592600   30.884600   58.852100
  H     31.364600   30.447000   60.326300
  H     28.570200   34.473300   53.492100
  H     28.216300   36.567500   61.497200

 Total Charge           Charge          ....    0
 Multiplicity           Mult            ....    1
 Number of Electrons    NEL             ....  134
 Basis Dimension        Dim             ....  322

ORBITAL ENERGIES
----------------

  NO   OCC          E(Eh)            E(eV)
   0   2.0000     -88.973292     -2421.0864
   1   2.0000     -88.962455     -2420.7915
   2   2.0000     -10.336699      -281.2759
   3   2.0000     -10.335479      -281.2427
   4   2.0000     -10.319668      -280.8124
   5   2.0000     -10.315256      -280.6924
   6   2.0000     -10.310013      -280.5497
   7   2.0000     -10.304101      -280.3888
   8   2.0000     -10.300130      -280.2808
   9   2.0000     -10.296663      -280.1865
  10   2.0000     -10.296590      -280.1844
  11   2.0000     -10.291099      -280.0350
  12   2.0000     -10.291006      -280.0325
  13   2.0000     -10.286106      -279.8992
  14   2.0000     -10.285627      -279.8861
  15   2.0000     -10.282372      -279.7976
  16   2.0000      -8.087013      -220.0588
  17   2.0000      -8.076519      -219.7733
  18   2.0000      -6.045612      -164.5095
  19   2.0000      -6.041568      -164.3994
  20   2.0000      -6.037832      -164.2978
  21   2.0000      -6.035262      -164.2278
  22   2.0000      -6.031048      -164.1132
  23   2.0000      -6.027124      -164.0064
  24   2.0000      -1.001909       -27.2633
  25   2.0000      -0.980111       -26.6702
  26   2.0000      -0.911856       -24.8129
  27   2.0000      -0.909360       -24.7449
  28   2.0000      -0.864341       -23.5199
  29   2.0000      -0.849731       -23.1224
  30   2.0000      -0.838334       -22.8122
  31   2.0000      -0.813823       -22.1452
  32   2.0000      -0.782880       -21.3032
  33   2.0000      -0.776344       -21.1254
  34   2.0000      -0.710272       -19.3275
  35   2.0000      -0.702113       -19.1055
  36   2.0000      -0.700076       -19.0500
  37   2.0000      -0.657033       -17.8788
  38   2.0000      -0.646842       -17.6015
  39   2.0000      -0.622586       -16.9414
  40   2.0000      -0.598806       -16.2943
  41   2.0000      -0.568869       -15.4797
  42   2.0000      -0.564387       -15.3578
  43   2.0000      -0.559725       -15.2309
  44   2.0000      -0.536469       -14.5981
  45   2.0000      -0.523444       -14.2436
  46   2.0000      -0.521301       -14.1853
  47   2.0000      -0.503433       -13.6991
  48   2.0000      -0.500508       -13.6195
  49   2.0000      -0.498812       -13.5734
  50   2.0000      -0.490758       -13.3542
  51   2.0000      -0.478360       -13.0168
  52   2.0000      -0.475919       -12.9504
  53   2.0000      -0.468080       -12.7371
  54   2.0000      -0.456953       -12.4343
  55   2.0000      -0.453554       -12.3418
  56   2.0000      -0.448672       -12.2090
  57   2.0000      -0.445058       -12.1106
  58   2.0000      -0.440947       -11.9988
  59   2.0000      -0.422057       -11.4847
  60   2.0000      -0.415379       -11.3030
  61   2.0000      -0.412009       -11.2113
  62   2.0000      -0.402727       -10.9588
  63   2.0000      -0.348474        -9.4825
  64   2.0000      -0.336173        -9.1477
  65   2.0000      -0.327995        -8.9252
  66   2.0000      -0.290693        -7.9102
  67   0.0000       0.021746         0.5917
  68   0.0000       0.074500         2.0272
  69   0.0000       0.101676         2.7668
  70   0.0000       0.126339         3.4379
  71   0.0000       0.128921         3.5081

MULLIKEN ATOMIC CHARGES
-----------------------
   0 S :    0.128079
   1 C :   -0.112433
   2 C :   -0.073839
   3 C :    0.034304
   4 C :   -0.134454
   5 H :   -0.016898
   6 C :    0.113501
   7 H :    0.036413
   8 H :    0.021112
   9 C :   -0.066861
  10 H :    0.008458
  11 H :    0.025685
  12 C :   -0.076315
  13 H :    0.031902
  14 H :    0.032280
  15 H :    0.037941
  16 S :    0.078092
  17 C :   -0.068030
  18 C :   -0.050016
  19 C :   -0.059872
  20 C :   -0.147890
  21 H :    0.027941
  22 C :    0.108110
  23 H :    0.014975
  24 H :    0.035349
  25 C :   -0.064979
  26 H :    0.018131
  27 H :    0.047225
  28 C :   -0.095514
  29 H :    0.050505
  30 H :    0.010310
  31 H :    0.031646
  32 H :    0.030347
  33 H :    0.044793
Sum of atomic charges:   -0.0000000

LOEWDIN ATOMIC CHARGES
----------------------
   0 S :    0.410314
   1 C :   -0.187467
   2 C :   -0.056793
   3 C :   -0.065318
   4 C :   -0.194507
   5 H :    0.020549
   6 C :   -0.013248
   7 H :    0.033026
   8 H :    0.029870
   9 C :   -0.042043
  10 H :    0.015273
  11 H :    0.029340
  12 C :   -0.076583
  13 H :    0.025488
  14 H :    0.027475
  15 H :    0.027482
  16 S :    0.378782
  17 C :   -0.170694
  18 C :   -0.069721
  19 C :   -0.062616
  20 C :   -0.180293
  21 H :    0.031204
  22 C :   -0.026311
  23 H :    0.032991
  24 H :    0.032196
  25 C :   -0.036338
  26 H :    0.017917
  27 H :    0.034282
  28 C :   -0.080078
  29 H :    0.033336
  30 H :    0.014703
  31 H :    0.024086
  32 H :    0.019032
  33 H :    0.024665

  Mayer bond orders larger than 0.100000
B(  0-S ,  1-C ) :   1.1382 B(  0-S ,  4-C ) :   1.1615 B(  1-C ,  2-C ) :   1.5971
B(  1-C ,  4-C ) :   0.1058 B(  1-C , 32-H ) :   0.9720 B(  2-C ,  3-C ) :   1.2627
B(  2-C ,  6-C ) :   1.0123 B(  3-C ,  4-C ) :   1.5593 B(  3-C ,  5-H ) :   0.9872
B(  4-C , 20-C ) :   1.0207 B(  6-C ,  7-H ) :   0.9455 B(  6-C ,  8-H ) :   0.9447
B(  6-C ,  9-C ) :   1.0581 B(  9-C , 10-H ) :   0.9564 B(  9-C , 11-H ) :   0.9518
B(  9-C , 12-C ) :   1.0742 B( 12-C , 13-H ) :   0.9763 B( 12-C , 14-H ) :   0.9749
B( 12-C , 15-H ) :   0.9764 B( 16-S , 17-C ) :   1.1341 B( 16-S , 20-C ) :   1.1365
B( 17-C , 18-C ) :   1.6206 B( 17-C , 33-H ) :   0.9768 B( 18-C , 19-C ) :   1.2337
B( 18-C , 21-H ) :   0.9802 B( 19-C , 20-C ) :   1.6159 B( 19-C , 22-C ) :   1.0201
B( 22-C , 23-H ) :   0.9424 B( 22-C , 24-H ) :   0.9312 B( 22-C , 25-C ) :   1.0701
B( 25-C , 26-H ) :   0.9510 B( 25-C , 27-H ) :   0.9596 B( 25-C , 28-C ) :   1.0575
B( 28-C , 29-H ) :   0.9798 B( 28-C , 30-H ) :   0.9692 B( 28-C , 31-H ) :   0.9758

Dispersion correction           -0.014062547
FINAL SINGLE POINT ENERGY     -1339.855481083890

DIPOLE MOMENT
-------------
                                X             Y             Z
Electronic contribution:    -12.81779      29.69636       3.76565
Nuclear contribution   :     13.07236     -30.41822      -3.67925
                        -----------------------------------------
Total Dipole Moment    :      0.25457      -0.72186       0.08640
                        -----------------------------------------
Magnitude (a.u.)       :      0.77030
Magnitude (Debye)      :      1.95794

Rotational constants in cm-1:     0.018175     0.008966     0.006362
Rotational constants in MHz :   544.882016   268.803723   190.728490

                             ****ORCA TERMINATED NORMALLY****
TOTAL RUN TIME: 0 days 0 hours 0 minutes 34 seconds 774 msec
