                         Program Version 4.2.1 -  RELEASE  -
|  1> ! wB97X-D3 SP def2-SVP
|  2> %pal
|  3> nprocs 16
|  4> end
|  5>
|  6> * xyz 0 1
|  7> S 	 -3.38841 	 -15.1294 	 85.7249
|  8> C 	 -1.65654 	 -14.7523 	 85.5794
|  9> C 	 -0.974833 	 -14.8462 	 86.7474
| 10> C 	 -1.88009 	 -15.0986 	 87.8028
| 11> C 	 -3.23313 	 -15.0242 	 87.4522
| 12> H 	 -1.61265 	 -15.0672 	 88.7716
| 13> C 	 0.499998 	 -14.4759 	 86.8718
| 14> H 	 0.860101 	 -14.1219 	 85.8759
| 15> H 	 0.976749 	 -15.4631 	 87.1284
| 16> C 	 0.85712 	 -13.3468 	 87.907
| 17> H 	 0.286431 	 -12.4877 	 87.6704
| 18> H 	 0.501372 	 -13.5658 	 88.9594
| 19> C 	 2.33471 	 -12.9617 	 87.9368
| 20> H 	 2.53059 	 -11.9141 	 88.2334
| 21> H 	 3.03177 	 -13.6436 	 88.4979
| 22> H 	 2.78507 	 -12.9255 	 86.9198
| 23> S 	 -5.61736 	 -16.2928 	 87.8498
| 24> C 	 -6.48055 	 -16.0921 	 89.2908
| 25> C 	 -5.78179 	 -15.306 	 90.2013
| 26> C 	 -4.51984 	 -14.8306 	 89.6722
| 27> C 	 -4.37371 	 -15.1708 	 88.3599
| 28> H 	 -6.10718 	 -15.1716 	 91.2209
| 29> C 	 -3.67168 	 -13.8429 	 90.4137
| 30> H 	 -2.61957 	 -14.2816 	 90.456
| 31> H 	 -4.02377 	 -13.6462 	 91.4062
| 32> C 	 -3.48307 	 -12.4944 	 89.7026
| 33> H 	 -3.05254 	 -12.5665 	 88.6704
| 34> H 	 -2.96474 	 -11.7905 	 90.3189
| 35> C 	 -4.78052 	 -11.8129 	 89.4779
| 36> H 	 -5.22526 	 -12.2316 	 88.6336
| 37> H 	 -4.62297 	 -10.7933 	 89.216
| 38> H 	 -5.51867 	 -11.8828 	 90.3452
| 39> H 	 -1.21944 	 -14.5919 	 84.5528
| 40> H 	 -7.34656 	 -16.626 	 89.5531
| 41> *
| 42>
| 43>                          ****END OF INPUT****

CARTESIAN COORDINATES (ANGSTROEM)
---------------------------------
  S     -3.388410  -15.129400   85.724900
  C     -1.656540  -14.752300   85.579400
  C     -0.974833  -14.846200   86.747400
  C     -1.880090  -15.098600   87.802800
  C     -3.233130  -15.024200   87.452200
  H     -1.612650  -15.067200   88.771600
  C      0.499998  -14.475900   86.871800
  H      0.860101  -14.121900   85.875900
  H      0.976749  -15.463100   87.128400
  C      0.857120  -13.346800   87.907000
  H      0.286431  -12.487700   87.670400
  H      0.501372  -13.565800   88.959400
  C      2.334710  -12.961700   87.936800
  H      2.530590  -11.914100   88.233400
  H      3.031770  -13.643600   88.497900
  H      2.785070  -12.925500   86.919800
  S     -5.617360  -16.292800   87.849800
  C     -6.480550  -16.092100   89.290800
  C     -5.781790  -15.306000   90.201300
  C     -4.519840  -14.830600   89.672200
  C     -4.373710  -15.170800   88.359900
  H     -6.107180  -15.171600   91.220900
  C     -3.671680  -13.842900   90.413700
  H     -2.619570  -14.281600   90.456000
  H     -4.023770  -13.646200   91.406200
  C     -3.483070  -12.494400   89.702600
  H     -3.052540  -12.566500   88.670400
  H     -2.964740  -11.790500   90.318900
  C     -4.780520  -11.812900   89.477900
  H     -5.225260  -12.231600   88.633600
  H     -4.622970  -10.793300   89.216000
  H     -5.518670  -11.882800   90.345200
  H     -1.219440  -14.591900   84.552800
  H     -7.346560  -16.626000   89.553100

 Total Charge           Charge          ....    0
 Multiplicity           Mult            ....    1
 Number of Electrons    NEL             ....  134
 Basis Dimension        Dim             ....  322

ORBITAL ENERGIES
----------------

  NO   OCC          E(Eh)            E(eV)
   0   2.0000     -88.965564     -2420.8761
   1   2.0000     -88.965289     -2420.8686
   2   2.0000     -10.331212      -281.1266
   3   2.0000     -10.323438      -280.9150
   4   2.0000     -10.315318      -280.6941
   5   2.0000     -10.312022      -280.6044
   6   2.0000     -10.306684      -280.4591
   7   2.0000     -10.301575      -280.3201
   8   2.0000     -10.299607      -280.2666
   9   2.0000     -10.295550      -280.1561
  10   2.0000     -10.294831      -280.1366
  11   2.0000     -10.294789      -280.1354
  12   2.0000     -10.287814      -279.9456
  13   2.0000     -10.285730      -279.8889
  14   2.0000     -10.278079      -279.6808
  15   2.0000     -10.260543      -279.2036
  16   2.0000      -8.081542      -219.9099
  17   2.0000      -8.080093      -219.8705
  18   2.0000      -6.039916      -164.3545
  19   2.0000      -6.038515      -164.3163
  20   2.0000      -6.035902      -164.2452
  21   2.0000      -6.034853      -164.2167
  22   2.0000      -6.032338      -164.1483
  23   2.0000      -6.030695      -164.1036
  24   2.0000      -1.012762       -27.5587
  25   2.0000      -0.989003       -26.9121
  26   2.0000      -0.917832       -24.9755
  27   2.0000      -0.908005       -24.7081
  28   2.0000      -0.870071       -23.6758
  29   2.0000      -0.856908       -23.3177
  30   2.0000      -0.845414       -23.0049
  31   2.0000      -0.813772       -22.1439
  32   2.0000      -0.785112       -21.3640
  33   2.0000      -0.773384       -21.0448
  34   2.0000      -0.710935       -19.3455
  35   2.0000      -0.698483       -19.0067
  36   2.0000      -0.683012       -18.5857
  37   2.0000      -0.669953       -18.2304
  38   2.0000      -0.640514       -17.4293
  39   2.0000      -0.623726       -16.9725
  40   2.0000      -0.594911       -16.1884
  41   2.0000      -0.565984       -15.4012
  42   2.0000      -0.562892       -15.3171
  43   2.0000      -0.557274       -15.1642
  44   2.0000      -0.551559       -15.0087
  45   2.0000      -0.523052       -14.2330
  46   2.0000      -0.516302       -14.0493
  47   2.0000      -0.512315       -13.9408
  48   2.0000      -0.501755       -13.6534
  49   2.0000      -0.494916       -13.4673
  50   2.0000      -0.492881       -13.4120
  51   2.0000      -0.480998       -13.0886
  52   2.0000      -0.473128       -12.8745
  53   2.0000      -0.467814       -12.7299
  54   2.0000      -0.460960       -12.5434
  55   2.0000      -0.452603       -12.3160
  56   2.0000      -0.438369       -11.9286
  57   2.0000      -0.434872       -11.8335
  58   2.0000      -0.430728       -11.7207
  59   2.0000      -0.428813       -11.6686
  60   2.0000      -0.419506       -11.4153
  61   2.0000      -0.416912       -11.3448
  62   2.0000      -0.412394       -11.2218
  63   2.0000      -0.353188        -9.6107
  64   2.0000      -0.333395        -9.0721
  65   2.0000      -0.329340        -8.9618
  66   2.0000      -0.286407        -7.7935
  67   0.0000       0.022491         0.6120
  68   0.0000       0.076337         2.0772
  69   0.0000       0.100782         2.7424
  70   0.0000       0.119571         3.2537
  71   0.0000       0.133513         3.6331

MULLIKEN ATOMIC CHARGES
-----------------------
   0 S :    0.093872
   1 C :   -0.156368
   2 C :   -0.059437
   3 C :    0.084887
   4 C :   -0.156416
   5 H :   -0.061042
   6 C :    0.058160
   7 H :    0.027462
   8 H :    0.050992
   9 C :   -0.066171
  10 H :    0.025846
  11 H :    0.037761
  12 C :   -0.076356
  13 H :    0.036644
  14 H :    0.045051
  15 H :    0.021492
  16 S :    0.109390
  17 C :   -0.059521
  18 C :   -0.040060
  19 C :   -0.060087
  20 C :   -0.123468
  21 H :    0.014467
  22 C :    0.064297
  23 H :    0.041801
  24 H :    0.014557
  25 C :   -0.079697
  26 H :    0.053870
  27 H :    0.021672
  28 C :   -0.034145
  29 H :    0.019681
  30 H :    0.019098
  31 H :    0.026702
  32 H :    0.063495
  33 H :    0.041571
Sum of atomic charges:   -0.0000000

LOEWDIN ATOMIC CHARGES
----------------------
   0 S :    0.387535
   1 C :   -0.190633
   2 C :   -0.067311
   3 C :   -0.049866
   4 C :   -0.187707
   5 H :    0.003504
   6 C :   -0.026888
   7 H :    0.033524
   8 H :    0.040283
   9 C :   -0.045228
  10 H :    0.022459
  11 H :    0.029550
  12 C :   -0.079372
  13 H :    0.031045
  14 H :    0.030451
  15 H :    0.026529
  16 S :    0.429764
  17 C :   -0.193324
  18 C :   -0.068718
  19 C :   -0.057479
  20 C :   -0.198773
  21 H :    0.028507
  22 C :   -0.030235
  23 H :    0.037613
  24 H :    0.026657
  25 C :   -0.043590
  26 H :    0.035537
  27 H :    0.020161
  28 C :   -0.063283
  29 H :    0.016366
  30 H :    0.020586
  31 H :    0.026326
  32 H :    0.034218
  33 H :    0.021791

  Mayer bond orders larger than 0.100000
B(  0-S ,  1-C ) :   1.1254 B(  0-S ,  4-C ) :   1.1537 B(  1-C ,  2-C ) :   1.6297
B(  1-C , 32-H ) :   0.9581 B(  2-C ,  3-C ) :   1.2433 B(  2-C ,  6-C ) :   1.0147
B(  3-C ,  4-C ) :   1.5525 B(  3-C ,  5-H ) :   1.0065 B(  4-C , 20-C ) :   1.0555
B(  6-C ,  7-H ) :   0.9466 B(  6-C ,  8-H ) :   0.9344 B(  6-C ,  9-C ) :   1.0535
B(  9-C , 10-H ) :   0.9562 B(  9-C , 11-H ) :   0.9535 B(  9-C , 12-C ) :   1.0822
B( 12-C , 13-H ) :   0.9746 B( 12-C , 14-H ) :   0.9763 B( 12-C , 15-H ) :   0.9712
B( 16-S , 17-C ) :   1.1744 B( 16-S , 20-C ) :   1.1410 B( 17-C , 18-C ) :   1.5878
B( 17-C , 33-H ) :   0.9739 B( 18-C , 19-C ) :   1.2440 B( 18-C , 21-H ) :   0.9926
B( 19-C , 20-C ) :   1.5987 B( 19-C , 22-C ) :   1.0531 B( 22-C , 23-H ) :   0.9248
B( 22-C , 24-H ) :   0.9365 B( 22-C , 25-C ) :   1.0862 B( 25-C , 26-H ) :   0.9464
B( 25-C , 27-H ) :   0.9582 B( 25-C , 28-C ) :   1.0793 B( 28-C , 29-H ) :   0.9714
B( 28-C , 30-H ) :   0.9706 B( 28-C , 31-H ) :   0.9734

Dispersion correction           -0.015397021
FINAL SINGLE POINT ENERGY     -1339.868809249277

DIPOLE MOMENT
-------------
                                X             Y             Z
Electronic contribution:    -20.16818     -18.48830     -11.34444
Nuclear contribution   :     20.62546      18.77931      11.74352
                        -----------------------------------------
Total Dipole Moment    :      0.45728       0.29101       0.39908
                        -----------------------------------------
Magnitude (a.u.)       :      0.67310
Magnitude (Debye)      :      1.71088

Rotational constants in cm-1:     0.020871     0.009043     0.007157
Rotational constants in MHz :   625.709542   271.095135   214.564176

                             ****ORCA TERMINATED NORMALLY****
TOTAL RUN TIME: 0 days 0 hours 0 minutes 36 seconds 177 msec
