                         Program Version 4.2.1 -  RELEASE  -
|  1> ! wB97X-D3 SP def2-SVP
|  2> %pal
|  3> nprocs 16
|  4> end
|  5>
|  6> * xyz 0 1
|  7> S 	 -43.7238 	 13.1791 	 77.4348
|  8> C 	 -42.3654 	 14.3078 	 77.2611
|  9> C 	 -41.4624 	 13.9665 	 76.2067
| 10> C 	 -41.9319 	 12.7154 	 75.6645
| 11> C 	 -43.0574 	 12.164 	 76.1634
| 12> H 	 -41.4086 	 12.2636 	 74.8875
| 13> C 	 -40.2845 	 14.7256 	 75.8043
| 14> H 	 -40.5555 	 15.8263 	 75.9921
| 15> H 	 -40.1794 	 14.5946 	 74.7011
| 16> C 	 -39.0171 	 14.3602 	 76.5349
| 17> H 	 -38.1676 	 14.9947 	 76.4241
| 18> H 	 -39.2549 	 14.4311 	 77.5959
| 19> C 	 -38.6024 	 12.937 	 76.2382
| 20> H 	 -38.3358 	 12.7195 	 75.2175
| 21> H 	 -37.6297 	 12.8727 	 76.7719
| 22> H 	 -39.3545 	 12.2442 	 76.6097
| 23> S 	 -44.9301 	 10.7146 	 74.6847
| 24> C 	 -44.9179 	 8.97306 	 74.8138
| 25> C 	 -43.9901 	 8.55827 	 75.7304
| 26> C 	 -43.1824 	 9.58069 	 76.3069
| 27> C 	 -43.6804 	 10.8307 	 75.9395
| 28> H 	 -44.0003 	 7.5129 	 76.0161
| 29> C 	 -42.0453 	 9.33118 	 77.3262
| 30> H 	 -42.6226 	 8.71876 	 78.0566
| 31> H 	 -41.7556 	 10.227 	 77.8921
| 32> C 	 -40.9054 	 8.37931 	 76.8664
| 33> H 	 -41.3185 	 7.4528 	 76.5754
| 34> H 	 -40.3227 	 8.18159 	 77.7873
| 35> C 	 -40.2119 	 9.01147 	 75.6859
| 36> H 	 -39.8622 	 9.95574 	 75.9698
| 37> H 	 -40.8181 	 9.09757 	 74.8178
| 38> H 	 -39.3752 	 8.36792 	 75.3639
| 39> H 	 -42.2781 	 15.2761 	 77.7841
| 40> H 	 -45.6644 	 8.31979 	 74.3683
| 41> *
| 42>
| 43>                          ****END OF INPUT****

CARTESIAN COORDINATES (ANGSTROEM)
---------------------------------
  S    -43.723800   13.179100   77.434800
  C    -42.365400   14.307800   77.261100
  C    -41.462400   13.966500   76.206700
  C    -41.931900   12.715400   75.664500
  C    -43.057400   12.164000   76.163400
  H    -41.408600   12.263600   74.887500
  C    -40.284500   14.725600   75.804300
  H    -40.555500   15.826300   75.992100
  H    -40.179400   14.594600   74.701100
  C    -39.017100   14.360200   76.534900
  H    -38.167600   14.994700   76.424100
  H    -39.254900   14.431100   77.595900
  C    -38.602400   12.937000   76.238200
  H    -38.335800   12.719500   75.217500
  H    -37.629700   12.872700   76.771900
  H    -39.354500   12.244200   76.609700
  S    -44.930100   10.714600   74.684700
  C    -44.917900    8.973060   74.813800
  C    -43.990100    8.558270   75.730400
  C    -43.182400    9.580690   76.306900
  C    -43.680400   10.830700   75.939500
  H    -44.000300    7.512900   76.016100
  C    -42.045300    9.331180   77.326200
  H    -42.622600    8.718760   78.056600
  H    -41.755600   10.227000   77.892100
  C    -40.905400    8.379310   76.866400
  H    -41.318500    7.452800   76.575400
  H    -40.322700    8.181590   77.787300
  C    -40.211900    9.011470   75.685900
  H    -39.862200    9.955740   75.969800
  H    -40.818100    9.097570   74.817800
  H    -39.375200    8.367920   75.363900
  H    -42.278100   15.276100   77.784100
  H    -45.664400    8.319790   74.368300

 Total Charge           Charge          ....    0
 Multiplicity           Mult            ....    1
 Number of Electrons    NEL             ....  134
 Basis Dimension        Dim             ....  322

ORBITAL ENERGIES
----------------

  NO   OCC          E(Eh)            E(eV)
   0   2.0000     -88.964885     -2420.8576
   1   2.0000     -88.963605     -2420.8228
   2   2.0000     -10.326630      -281.0019
   3   2.0000     -10.324808      -280.9523
   4   2.0000     -10.319978      -280.8209
   5   2.0000     -10.317473      -280.7527
   6   2.0000     -10.308565      -280.5103
   7   2.0000     -10.302756      -280.3522
   8   2.0000     -10.297088      -280.1980
   9   2.0000     -10.296543      -280.1832
  10   2.0000     -10.292814      -280.0817
  11   2.0000     -10.287128      -279.9270
  12   2.0000     -10.286223      -279.9024
  13   2.0000     -10.282503      -279.8011
  14   2.0000     -10.275553      -279.6120
  15   2.0000     -10.267102      -279.3821
  16   2.0000      -8.078987      -219.8404
  17   2.0000      -8.078133      -219.8172
  18   2.0000      -6.037480      -164.2882
  19   2.0000      -6.036621      -164.2648
  20   2.0000      -6.033534      -164.1808
  21   2.0000      -6.032698      -164.1581
  22   2.0000      -6.029862      -164.0809
  23   2.0000      -6.028907      -164.0549
  24   2.0000      -1.001300       -27.2467
  25   2.0000      -0.980822       -26.6895
  26   2.0000      -0.922475       -25.1018
  27   2.0000      -0.909841       -24.7580
  28   2.0000      -0.864029       -23.5114
  29   2.0000      -0.848583       -23.0911
  30   2.0000      -0.845900       -23.0181
  31   2.0000      -0.816002       -22.2045
  32   2.0000      -0.784265       -21.3409
  33   2.0000      -0.771172       -20.9847
  34   2.0000      -0.705537       -19.1986
  35   2.0000      -0.703730       -19.1495
  36   2.0000      -0.692010       -18.8306
  37   2.0000      -0.652575       -17.7575
  38   2.0000      -0.638683       -17.3794
  39   2.0000      -0.618723       -16.8363
  40   2.0000      -0.598056       -16.2739
  41   2.0000      -0.578745       -15.7485
  42   2.0000      -0.559647       -15.2288
  43   2.0000      -0.549511       -14.9530
  44   2.0000      -0.545419       -14.8416
  45   2.0000      -0.536237       -14.5918
  46   2.0000      -0.520469       -14.1627
  47   2.0000      -0.514849       -14.0098
  48   2.0000      -0.498708       -13.5705
  49   2.0000      -0.493763       -13.4360
  50   2.0000      -0.489849       -13.3295
  51   2.0000      -0.476735       -12.9726
  52   2.0000      -0.469265       -12.7693
  53   2.0000      -0.467313       -12.7162
  54   2.0000      -0.454993       -12.3810
  55   2.0000      -0.448584       -12.2066
  56   2.0000      -0.443310       -12.0631
  57   2.0000      -0.436848       -11.8872
  58   2.0000      -0.432975       -11.7819
  59   2.0000      -0.422292       -11.4912
  60   2.0000      -0.420429       -11.4405
  61   2.0000      -0.415713       -11.3121
  62   2.0000      -0.414540       -11.2802
  63   2.0000      -0.335814        -9.1380
  64   2.0000      -0.328586        -8.9413
  65   2.0000      -0.317584        -8.6419
  66   2.0000      -0.309520        -8.4225
  67   0.0000       0.045039         1.2256
  68   0.0000       0.054116         1.4726
  69   0.0000       0.109873         2.9898
  70   0.0000       0.120982         3.2921
  71   0.0000       0.124140         3.3780

MULLIKEN ATOMIC CHARGES
-----------------------
   0 S :    0.108976
   1 C :   -0.129448
   2 C :   -0.130711
   3 C :    0.069757
   4 C :   -0.161423
   5 H :   -0.023750
   6 C :    0.043989
   7 H :    0.039611
   8 H :    0.036264
   9 C :   -0.025873
  10 H :    0.024371
  11 H :    0.017943
  12 C :   -0.084525
  13 H :    0.027200
  14 H :    0.031259
  15 H :    0.066258
  16 S :    0.104688
  17 C :   -0.094709
  18 C :   -0.044559
  19 C :   -0.004612
  20 C :   -0.178829
  21 H :    0.020520
  22 C :    0.020039
  23 H :    0.032914
  24 H :    0.046140
  25 C :   -0.044192
  26 H :    0.012266
  27 H :    0.038759
  28 C :   -0.005152
  29 H :    0.007187
  30 H :    0.036478
  31 H :    0.027527
  32 H :    0.053490
  33 H :    0.062145
Sum of atomic charges:    0.0000000

LOEWDIN ATOMIC CHARGES
----------------------
   0 S :    0.394829
   1 C :   -0.193648
   2 C :   -0.063660
   3 C :   -0.054225
   4 C :   -0.198647
   5 H :    0.018758
   6 C :   -0.043868
   7 H :    0.041903
   8 H :    0.035354
   9 C :   -0.039233
  10 H :    0.020668
  11 H :    0.027127
  12 C :   -0.065473
  13 H :    0.020425
  14 H :    0.033088
  15 H :    0.025768
  16 S :    0.396024
  17 C :   -0.183024
  18 C :   -0.078259
  19 C :   -0.046295
  20 C :   -0.205440
  21 H :    0.030910
  22 C :   -0.032810
  23 H :    0.038581
  24 H :    0.033807
  25 C :   -0.033007
  26 H :    0.015619
  27 H :    0.031547
  28 C :   -0.056631
  29 H :    0.015395
  30 H :    0.025306
  31 H :    0.027989
  32 H :    0.028554
  33 H :    0.032567

  Mayer bond orders larger than 0.100000
B(  0-S ,  1-C ) :   1.1577 B(  0-S ,  4-C ) :   1.1346 B(  1-C ,  2-C ) :   1.5959
B(  1-C , 32-H ) :   0.9586 B(  2-C ,  3-C ) :   1.2310 B(  2-C ,  6-C ) :   1.0318
B(  3-C ,  4-C ) :   1.6172 B(  3-C ,  5-H ) :   1.0111 B(  4-C , 20-C ) :   0.9678
B(  6-C ,  7-H ) :   0.9324 B(  6-C ,  8-H ) :   0.9402 B(  6-C ,  9-C ) :   1.0648
B(  9-C , 10-H ) :   0.9572 B(  9-C , 11-H ) :   0.9466 B(  9-C , 12-C ) :   1.0876
B( 12-C , 13-H ) :   0.9752 B( 12-C , 14-H ) :   0.9689 B( 12-C , 15-H ) :   0.9668
B( 16-S , 17-C ) :   1.1545 B( 16-S , 20-C ) :   1.1444 B( 17-C , 18-C ) :   1.6292
B( 17-C , 33-H ) :   0.9641 B( 18-C , 19-C ) :   1.2215 B( 18-C , 21-H ) :   0.9853
B( 19-C , 20-C ) :   1.6083 B( 19-C , 22-C ) :   1.0188 B( 22-C , 23-H ) :   0.9357
B( 22-C , 24-H ) :   0.9458 B( 22-C , 25-C ) :   1.0703 B( 25-C , 26-H ) :   0.9509
B( 25-C , 27-H ) :   0.9550 B( 25-C , 28-C ) :   1.0818 B( 28-C , 29-H ) :   0.9747
B( 28-C , 30-H ) :   0.9678 B( 28-C , 31-H ) :   0.9684

Dispersion correction           -0.016297707
FINAL SINGLE POINT ENERGY     -1339.877188551846

DIPOLE MOMENT
-------------
                                X             Y             Z
Electronic contribution:    -27.73993       4.18836      -1.82863
Nuclear contribution   :     28.37247      -4.44826       1.89225
                        -----------------------------------------
Total Dipole Moment    :      0.63254      -0.25990       0.06363
                        -----------------------------------------
Magnitude (a.u.)       :      0.68681
Magnitude (Debye)      :      1.74572

Rotational constants in cm-1:     0.018821     0.010090     0.007672
Rotational constants in MHz :   564.230261   302.478512   230.009098

                             ****ORCA TERMINATED NORMALLY****
TOTAL RUN TIME: 0 days 0 hours 0 minutes 32 seconds 265 msec
