                         Program Version 4.2.1 -  RELEASE  -
|  1> ! wB97X-D3 SP def2-SVP
|  2> %pal
|  3> nprocs 16
|  4> end
|  5>
|  6> * xyz 0 1
|  7> S 	 -21.5734 	 0.737225 	 77.025
|  8> C 	 -22.0746 	 -0.958948 	 77.2263
|  9> C 	 -23.1408 	 -1.09375 	 78.1189
| 10> C 	 -23.4003 	 0.115576 	 78.8041
| 11> C 	 -22.58 	 1.15983 	 78.4149
| 12> H 	 -24.1576 	 0.352746 	 79.5633
| 13> C 	 -23.9562 	 -2.32604 	 78.4256
| 14> H 	 -23.7722 	 -2.64941 	 79.4183
| 15> H 	 -23.4751 	 -3.06968 	 77.8279
| 16> C 	 -25.4781 	 -2.57021 	 78.1605
| 17> H 	 -25.5893 	 -2.66637 	 77.1018
| 18> H 	 -25.8548 	 -3.5172 	 78.4359
| 19> C 	 -26.4151 	 -1.4756 	 78.7741
| 20> H 	 -26.4428 	 -0.507316 	 78.242
| 21> H 	 -27.5266 	 -1.73374 	 78.8347
| 22> H 	 -26.1883 	 -1.26661 	 79.8448
| 23> S 	 -21.306 	 3.39804 	 79.462
| 24> C 	 -22.2074 	 4.84837 	 79.8191
| 25> C 	 -23.4892 	 4.68965 	 79.3982
| 26> C 	 -23.9215 	 3.38481 	 78.9965
| 27> C 	 -22.7695 	 2.54813 	 78.8655
| 28> H 	 -24.0807 	 5.51538 	 79.6121
| 29> C 	 -25.3714 	 3.09176 	 78.6002
| 30> H 	 -25.2457 	 2.16356 	 77.9706
| 31> H 	 -25.8501 	 3.87951 	 77.9948
| 32> C 	 -26.3137 	 2.60651 	 79.6788
| 33> H 	 -26.2912 	 3.36592 	 80.4847
| 34> H 	 -25.7419 	 1.85545 	 80.1652
| 35> C 	 -27.7301 	 2.14751 	 79.2145
| 36> H 	 -28.2761 	 1.75037 	 80.0049
| 37> H 	 -27.6884 	 1.52699 	 78.2893
| 38> H 	 -28.2144 	 3.13062 	 78.947
| 39> H 	 -21.7513 	 -1.78214 	 76.6197
| 40> H 	 -21.788 	 5.72991 	 80.1826
| 41> *
| 42>
| 43>                          ****END OF INPUT****

CARTESIAN COORDINATES (ANGSTROEM)
---------------------------------
  S    -21.573400    0.737225   77.025000
  C    -22.074600   -0.958948   77.226300
  C    -23.140800   -1.093750   78.118900
  C    -23.400300    0.115576   78.804100
  C    -22.580000    1.159830   78.414900
  H    -24.157600    0.352746   79.563300
  C    -23.956200   -2.326040   78.425600
  H    -23.772200   -2.649410   79.418300
  H    -23.475100   -3.069680   77.827900
  C    -25.478100   -2.570210   78.160500
  H    -25.589300   -2.666370   77.101800
  H    -25.854800   -3.517200   78.435900
  C    -26.415100   -1.475600   78.774100
  H    -26.442800   -0.507316   78.242000
  H    -27.526600   -1.733740   78.834700
  H    -26.188300   -1.266610   79.844800
  S    -21.306000    3.398040   79.462000
  C    -22.207400    4.848370   79.819100
  C    -23.489200    4.689650   79.398200
  C    -23.921500    3.384810   78.996500
  C    -22.769500    2.548130   78.865500
  H    -24.080700    5.515380   79.612100
  C    -25.371400    3.091760   78.600200
  H    -25.245700    2.163560   77.970600
  H    -25.850100    3.879510   77.994800
  C    -26.313700    2.606510   79.678800
  H    -26.291200    3.365920   80.484700
  H    -25.741900    1.855450   80.165200
  C    -27.730100    2.147510   79.214500
  H    -28.276100    1.750370   80.004900
  H    -27.688400    1.526990   78.289300
  H    -28.214400    3.130620   78.947000
  H    -21.751300   -1.782140   76.619700
  H    -21.788000    5.729910   80.182600

 Total Charge           Charge          ....    0
 Multiplicity           Mult            ....    1
 Number of Electrons    NEL             ....  134
 Basis Dimension        Dim             ....  322

ORBITAL ENERGIES
----------------

  NO   OCC          E(Eh)            E(eV)
   0   2.0000     -88.971928     -2421.0492
   1   2.0000     -88.962670     -2420.7973
   2   2.0000     -10.335954      -281.2556
   3   2.0000     -10.329936      -281.0918
   4   2.0000     -10.319505      -280.8080
   5   2.0000     -10.313889      -280.6552
   6   2.0000     -10.310746      -280.5697
   7   2.0000     -10.306045      -280.4417
   8   2.0000     -10.296841      -280.1913
   9   2.0000     -10.293023      -280.0874
  10   2.0000     -10.292652      -280.0773
  11   2.0000     -10.290179      -280.0100
  12   2.0000     -10.289764      -279.9987
  13   2.0000     -10.287949      -279.9493
  14   2.0000     -10.285880      -279.8930
  15   2.0000     -10.285368      -279.8791
  16   2.0000      -8.085602      -220.0204
  17   2.0000      -8.077031      -219.7872
  18   2.0000      -6.044183      -164.4706
  19   2.0000      -6.040473      -164.3696
  20   2.0000      -6.036127      -164.2514
  21   2.0000      -6.035535      -164.2353
  22   2.0000      -6.031497      -164.1254
  23   2.0000      -6.027915      -164.0279
  24   2.0000      -1.000968       -27.2377
  25   2.0000      -0.980493       -26.6806
  26   2.0000      -0.910624       -24.7793
  27   2.0000      -0.907666       -24.6988
  28   2.0000      -0.867188       -23.5974
  29   2.0000      -0.850093       -23.1322
  30   2.0000      -0.844557       -22.9816
  31   2.0000      -0.815804       -22.1992
  32   2.0000      -0.785768       -21.3818
  33   2.0000      -0.775795       -21.1105
  34   2.0000      -0.713554       -19.4168
  35   2.0000      -0.707395       -19.2492
  36   2.0000      -0.695249       -18.9187
  37   2.0000      -0.659571       -17.9478
  38   2.0000      -0.640801       -17.4371
  39   2.0000      -0.616242       -16.7688
  40   2.0000      -0.598176       -16.2772
  41   2.0000      -0.571502       -15.5514
  42   2.0000      -0.567885       -15.4529
  43   2.0000      -0.545966       -14.8565
  44   2.0000      -0.539361       -14.6768
  45   2.0000      -0.531584       -14.4651
  46   2.0000      -0.514108       -13.9896
  47   2.0000      -0.510747       -13.8981
  48   2.0000      -0.504705       -13.7337
  49   2.0000      -0.493032       -13.4161
  50   2.0000      -0.491602       -13.3772
  51   2.0000      -0.484729       -13.1901
  52   2.0000      -0.472570       -12.8593
  53   2.0000      -0.466215       -12.6864
  54   2.0000      -0.461314       -12.5530
  55   2.0000      -0.448174       -12.1954
  56   2.0000      -0.442327       -12.0363
  57   2.0000      -0.435808       -11.8589
  58   2.0000      -0.431045       -11.7293
  59   2.0000      -0.426953       -11.6180
  60   2.0000      -0.421360       -11.4658
  61   2.0000      -0.418388       -11.3849
  62   2.0000      -0.407987       -11.1019
  63   2.0000      -0.342218        -9.3122
  64   2.0000      -0.333898        -9.0858
  65   2.0000      -0.328922        -8.9504
  66   2.0000      -0.294560        -8.0154
  67   0.0000       0.026713         0.7269
  68   0.0000       0.064372         1.7517
  69   0.0000       0.104629         2.8471
  70   0.0000       0.116470         3.1693
  71   0.0000       0.125686         3.4201

MULLIKEN ATOMIC CHARGES
-----------------------
   0 S :    0.122191
   1 C :   -0.103743
   2 C :   -0.084933
   3 C :    0.012343
   4 C :   -0.121134
   5 H :    0.011985
   6 C :    0.079980
   7 H :    0.030176
   8 H :   -0.002702
   9 C :    0.006225
  10 H :    0.015515
  11 H :    0.016044
  12 C :   -0.121304
  13 H :    0.041881
  14 H :    0.037589
  15 H :    0.038353
  16 S :    0.092717
  17 C :   -0.071011
  18 C :   -0.009836
  19 C :   -0.009853
  20 C :   -0.190942
  21 H :   -0.006435
  22 C :    0.027873
  23 H :    0.028182
  24 H :    0.036239
  25 C :   -0.062693
  26 H :    0.016703
  27 H :   -0.005639
  28 C :   -0.020890
  29 H :    0.036171
  30 H :    0.049066
  31 H :    0.035053
  32 H :    0.039109
  33 H :    0.037720
Sum of atomic charges:   -0.0000000

LOEWDIN ATOMIC CHARGES
----------------------
   0 S :    0.396536
   1 C :   -0.184460
   2 C :   -0.058270
   3 C :   -0.060464
   4 C :   -0.193956
   5 H :    0.034512
   6 C :   -0.031351
   7 H :    0.028903
   8 H :    0.028150
   9 C :   -0.028459
  10 H :    0.022526
  11 H :    0.024615
  12 C :   -0.084772
  13 H :    0.023789
  14 H :    0.032994
  15 H :    0.025739
  16 S :    0.389370
  17 C :   -0.173518
  18 C :   -0.068631
  19 C :   -0.049236
  20 C :   -0.183677
  21 H :    0.019803
  22 C :   -0.036828
  23 H :    0.036025
  24 H :    0.030742
  25 C :   -0.047024
  26 H :    0.022803
  27 H :    0.010259
  28 C :   -0.057396
  29 H :    0.020511
  30 H :    0.031740
  31 H :    0.035068
  32 H :    0.024391
  33 H :    0.019567

  Mayer bond orders larger than 0.100000
B(  0-S ,  1-C ) :   1.1308 B(  0-S ,  4-C ) :   1.1475 B(  1-C ,  2-C ) :   1.6176
B(  1-C , 32-H ) :   0.9637 B(  2-C ,  3-C ) :   1.2250 B(  2-C ,  6-C ) :   1.0222
B(  3-C ,  4-C ) :   1.5756 B(  3-C ,  5-H ) :   0.9975 B(  4-C , 20-C ) :   1.0317
B(  6-C ,  7-H ) :   0.9404 B(  6-C ,  8-H ) :   0.9280 B(  6-C ,  9-C ) :   1.0729
B(  9-C , 10-H ) :   0.9557 B(  9-C , 11-H ) :   0.9523 B(  9-C , 12-C ) :   1.0677
B( 12-C , 13-H ) :   0.9724 B( 12-C , 14-H ) :   0.9739 B( 12-C , 15-H ) :   0.9735
B( 16-S , 17-C ) :   1.1426 B( 16-S , 20-C ) :   1.1524 B( 17-C , 18-C ) :   1.6282
B( 17-C , 20-C ) :   0.1028 B( 17-C , 33-H ) :   0.9747 B( 18-C , 19-C ) :   1.2289
B( 18-C , 21-H ) :   0.9931 B( 19-C , 20-C ) :   1.5646 B( 19-C , 22-C ) :   1.0396
B( 22-C , 23-H ) :   0.9280 B( 22-C , 24-H ) :   0.9451 B( 22-C , 25-C ) :   1.0603
B( 25-C , 26-H ) :   0.9486 B( 25-C , 27-H ) :   0.9465 B( 25-C , 28-C ) :   1.0655
B( 28-C , 29-H ) :   0.9746 B( 28-C , 30-H ) :   0.9713 B( 28-C , 31-H ) :   0.9723

Dispersion correction           -0.015858564
FINAL SINGLE POINT ENERGY     -1339.854581385638

DIPOLE MOMENT
-------------
                                X             Y             Z
Electronic contribution:     30.70008      11.36702      -3.90797
Nuclear contribution   :    -31.45646     -11.56682       3.98952
                        -----------------------------------------
Total Dipole Moment    :     -0.75638      -0.19980       0.08154
                        -----------------------------------------
Magnitude (a.u.)       :      0.78656
Magnitude (Debye)      :      1.99928

Rotational constants in cm-1:     0.016400     0.010862     0.007028
Rotational constants in MHz :   491.664203   325.641802   210.697898

                             ****ORCA TERMINATED NORMALLY****
TOTAL RUN TIME: 0 days 0 hours 0 minutes 35 seconds 851 msec
