                         Program Version 4.2.1 -  RELEASE  -
|  1> ! wB97X-D3 SP def2-SVP
|  2> %pal
|  3> nprocs 16
|  4> end
|  5>
|  6> * xyz 0 1
|  7> S 	 -40.4914 	 52.2262 	 100.146
|  8> C 	 -40.2761 	 53.6206 	 101.29
|  9> C 	 -39.9144 	 53.1836 	 102.544
| 10> C 	 -39.8999 	 51.7893 	 102.668
| 11> C 	 -40.2831 	 51.1677 	 101.542
| 12> H 	 -39.5177 	 51.2919 	 103.574
| 13> C 	 -39.7358 	 54.0651 	 103.744
| 14> H 	 -39.82 	 55.0877 	 103.501
| 15> H 	 -38.725 	 53.8851 	 104.072
| 16> C 	 -40.5877 	 53.838 	 105.005
| 17> H 	 -40.3385 	 52.8036 	 105.427
| 18> H 	 -40.4643 	 54.6003 	 105.803
| 19> C 	 -42.0657 	 53.78 	 104.619
| 20> H 	 -42.1563 	 52.7146 	 104.409
| 21> H 	 -42.6777 	 53.8626 	 105.467
| 22> H 	 -42.5703 	 54.5477 	 103.951
| 23> S 	 -40.1523 	 48.9851 	 99.9475
| 24> C 	 -40.7626 	 47.4747 	 100.514
| 25> C 	 -40.9556 	 47.4659 	 101.832
| 26> C 	 -40.9104 	 48.7626 	 102.45
| 27> C 	 -40.5327 	 49.7117 	 101.573
| 28> H 	 -41.2101 	 46.6329 	 102.447
| 29> C 	 -41.1005 	 48.9535 	 103.959
| 30> H 	 -41.9436 	 48.2665 	 104.29
| 31> H 	 -41.4848 	 49.9459 	 104.08
| 32> C 	 -39.9156 	 48.6553 	 104.786
| 33> H 	 -39.0408 	 49.0254 	 104.254
| 34> H 	 -39.9069 	 47.5956 	 104.871
| 35> C 	 -40.1057 	 49.242 	 106.186
| 36> H 	 -39.3461 	 48.9033 	 106.919
| 37> H 	 -41.1418 	 49.0925 	 106.59
| 38> H 	 -39.9122 	 50.3185 	 106.117
| 39> H 	 -40.4352 	 54.6856 	 101.051
| 40> H 	 -40.7744 	 46.5559 	 99.9621
| 41> *
| 42>
| 43>                          ****END OF INPUT****

CARTESIAN COORDINATES (ANGSTROEM)
---------------------------------
  S    -40.491400   52.226200  100.146000
  C    -40.276100   53.620600  101.290000
  C    -39.914400   53.183600  102.544000
  C    -39.899900   51.789300  102.668000
  C    -40.283100   51.167700  101.542000
  H    -39.517700   51.291900  103.574000
  C    -39.735800   54.065100  103.744000
  H    -39.820000   55.087700  103.501000
  H    -38.725000   53.885100  104.072000
  C    -40.587700   53.838000  105.005000
  H    -40.338500   52.803600  105.427000
  H    -40.464300   54.600300  105.803000
  C    -42.065700   53.780000  104.619000
  H    -42.156300   52.714600  104.409000
  H    -42.677700   53.862600  105.467000
  H    -42.570300   54.547700  103.951000
  S    -40.152300   48.985100   99.947500
  C    -40.762600   47.474700  100.514000
  C    -40.955600   47.465900  101.832000
  C    -40.910400   48.762600  102.450000
  C    -40.532700   49.711700  101.573000
  H    -41.210100   46.632900  102.447000
  C    -41.100500   48.953500  103.959000
  H    -41.943600   48.266500  104.290000
  H    -41.484800   49.945900  104.080000
  C    -39.915600   48.655300  104.786000
  H    -39.040800   49.025400  104.254000
  H    -39.906900   47.595600  104.871000
  C    -40.105700   49.242000  106.186000
  H    -39.346100   48.903300  106.919000
  H    -41.141800   49.092500  106.590000
  H    -39.912200   50.318500  106.117000
  H    -40.435200   54.685600  101.051000
  H    -40.774400   46.555900   99.962100

 Total Charge           Charge          ....    0
 Multiplicity           Mult            ....    1
 Number of Electrons    NEL             ....  134
 Basis Dimension        Dim             ....  322

ORBITAL ENERGIES
----------------

  NO   OCC          E(Eh)            E(eV)
   0   2.0000     -88.971706     -2421.0432
   1   2.0000     -88.957148     -2420.6471
   2   2.0000     -10.330216      -281.0995
   3   2.0000     -10.327788      -281.0334
   4   2.0000     -10.318667      -280.7852
   5   2.0000     -10.309122      -280.5255
   6   2.0000     -10.299708      -280.2693
   7   2.0000     -10.297750      -280.2160
   8   2.0000     -10.297506      -280.2094
   9   2.0000     -10.292971      -280.0860
  10   2.0000     -10.289278      -279.9855
  11   2.0000     -10.288710      -279.9700
  12   2.0000     -10.286260      -279.9034
  13   2.0000     -10.285314      -279.8776
  14   2.0000     -10.284959      -279.8680
  15   2.0000     -10.272380      -279.5257
  16   2.0000      -8.084935      -220.0023
  17   2.0000      -8.072244      -219.6569
  18   2.0000      -6.043718      -164.4579
  19   2.0000      -6.039951      -164.3554
  20   2.0000      -6.035174      -164.2254
  21   2.0000      -6.030877      -164.1085
  22   2.0000      -6.026932      -164.0012
  23   2.0000      -6.022641      -163.8844
  24   2.0000      -1.008623       -27.4460
  25   2.0000      -0.986580       -26.8462
  26   2.0000      -0.923337       -25.1253
  27   2.0000      -0.915309       -24.9068
  28   2.0000      -0.869250       -23.6535
  29   2.0000      -0.855823       -23.2881
  30   2.0000      -0.845188       -22.9987
  31   2.0000      -0.816808       -22.2265
  32   2.0000      -0.785152       -21.3651
  33   2.0000      -0.777021       -21.1438
  34   2.0000      -0.708750       -19.2861
  35   2.0000      -0.698824       -19.0160
  36   2.0000      -0.693624       -18.8745
  37   2.0000      -0.667079       -18.1522
  38   2.0000      -0.633830       -17.2474
  39   2.0000      -0.628032       -17.0896
  40   2.0000      -0.600976       -16.3534
  41   2.0000      -0.579491       -15.7687
  42   2.0000      -0.564504       -15.3609
  43   2.0000      -0.553245       -15.0546
  44   2.0000      -0.546403       -14.8684
  45   2.0000      -0.527673       -14.3587
  46   2.0000      -0.519953       -14.1486
  47   2.0000      -0.517063       -14.0700
  48   2.0000      -0.502242       -13.6667
  49   2.0000      -0.496556       -13.5120
  50   2.0000      -0.489462       -13.3189
  51   2.0000      -0.486145       -13.2287
  52   2.0000      -0.470621       -12.8062
  53   2.0000      -0.466097       -12.6831
  54   2.0000      -0.457176       -12.4404
  55   2.0000      -0.451984       -12.2991
  56   2.0000      -0.443884       -12.0787
  57   2.0000      -0.442527       -12.0418
  58   2.0000      -0.431083       -11.7304
  59   2.0000      -0.424970       -11.5640
  60   2.0000      -0.420567       -11.4442
  61   2.0000      -0.412297       -11.2192
  62   2.0000      -0.411637       -11.2012
  63   2.0000      -0.354839        -9.6556
  64   2.0000      -0.334543        -9.1034
  65   2.0000      -0.329922        -8.9776
  66   2.0000      -0.289804        -7.8860
  67   0.0000       0.025239         0.6868
  68   0.0000       0.077618         2.1121
  69   0.0000       0.090307         2.4574
  70   0.0000       0.110881         3.0172
  71   0.0000       0.125702         3.4205

MULLIKEN ATOMIC CHARGES
-----------------------
   0 S :    0.115319
   1 C :   -0.148018
   2 C :   -0.047095
   3 C :   -0.056787
   4 C :   -0.045552
   5 H :    0.013100
   6 C :    0.115422
   7 H :    0.006241
   8 H :    0.026133
   9 C :   -0.124774
  10 H :    0.032360
  11 H :    0.043646
  12 C :   -0.039577
  13 H :    0.031626
  14 H :    0.005458
  15 H :    0.050625
  16 S :    0.059060
  17 C :   -0.041776
  18 C :   -0.017547
  19 C :   -0.089379
  20 C :   -0.144652
  21 H :    0.000231
  22 C :    0.023121
  23 H :    0.026754
  24 H :    0.018246
  25 C :   -0.021529
  26 H :    0.041252
  27 H :    0.019820
  28 C :   -0.064871
  29 H :    0.041521
  30 H :    0.045615
  31 H :    0.024964
  32 H :    0.053206
  33 H :    0.047836
Sum of atomic charges:    0.0000000

LOEWDIN ATOMIC CHARGES
----------------------
   0 S :    0.371493
   1 C :   -0.180295
   2 C :   -0.057984
   3 C :   -0.071348
   4 C :   -0.179262
   5 H :    0.037245
   6 C :   -0.028788
   7 H :    0.022473
   8 H :    0.032551
   9 C :   -0.041241
  10 H :    0.025488
  11 H :    0.027456
  12 C :   -0.081154
  13 H :    0.030833
  14 H :    0.015756
  15 H :    0.036594
  16 S :    0.361042
  17 C :   -0.178234
  18 C :   -0.069282
  19 C :   -0.059501
  20 C :   -0.150720
  21 H :    0.025667
  22 C :   -0.032658
  23 H :    0.034682
  24 H :    0.021512
  25 C :   -0.040635
  26 H :    0.026103
  27 H :    0.022653
  28 C :   -0.067392
  29 H :    0.029798
  30 H :    0.032911
  31 H :    0.021583
  32 H :    0.034023
  33 H :    0.028632

  Mayer bond orders larger than 0.100000
B(  0-S ,  1-C ) :   1.0946 B(  0-S ,  4-C ) :   1.1288 B(  1-C ,  2-C ) :   1.6452
B(  1-C , 32-H ) :   0.9615 B(  2-C ,  3-C ) :   1.2075 B(  2-C ,  6-C ) :   1.0301
B(  3-C ,  4-C ) :   1.5918 B(  3-C ,  5-H ) :   0.9965 B(  4-C , 20-C ) :   1.0333
B(  6-C ,  7-H ) :   0.9417 B(  6-C ,  8-H ) :   0.9288 B(  6-C ,  9-C ) :   1.0705
B(  9-C , 10-H ) :   0.9522 B(  9-C , 11-H ) :   0.9592 B(  9-C , 12-C ) :   1.0693
B( 12-C , 13-H ) :   0.9714 B( 12-C , 14-H ) :   0.9679 B( 12-C , 15-H ) :   0.9751
B( 16-S , 17-C ) :   1.1297 B( 16-S , 20-C ) :   1.1013 B( 17-C , 18-C ) :   1.6519
B( 17-C , 33-H ) :   0.9640 B( 18-C , 19-C ) :   1.2037 B( 18-C , 21-H ) :   0.9897
B( 19-C , 20-C ) :   1.6866 B( 19-C , 22-C ) :   1.0418 B( 22-C , 23-H ) :   0.9215
B( 22-C , 24-H ) :   0.9406 B( 22-C , 25-C ) :   1.0611 B( 25-C , 26-H ) :   0.9546
B( 25-C , 27-H ) :   0.9444 B( 25-C , 28-C ) :   1.0807 B( 28-C , 29-H ) :   0.9698
B( 28-C , 30-H ) :   0.9694 B( 28-C , 31-H ) :   0.9750

Dispersion correction           -0.015859002
FINAL SINGLE POINT ENERGY     -1339.856630145851

DIPOLE MOMENT
-------------
                                X             Y             Z
Electronic contribution:      2.86972      -5.15196     -31.24898
Nuclear contribution   :     -2.88725       5.15099      32.15524
                        -----------------------------------------
Total Dipole Moment    :     -0.01753      -0.00097       0.90627
                        -----------------------------------------
Magnitude (a.u.)       :      0.90644
Magnitude (Debye)      :      2.30398

Rotational constants in cm-1:     0.017113     0.011378     0.007365
Rotational constants in MHz :   513.029281   341.118760   220.792380

                             ****ORCA TERMINATED NORMALLY****
TOTAL RUN TIME: 0 days 0 hours 0 minutes 31 seconds 518 msec
