                         Program Version 4.2.1 -  RELEASE  -
|  1> ! wB97X-D3 SP def2-SVP
|  2> %pal
|  3> nprocs 16
|  4> end
|  5>
|  6> * xyz 0 1
|  7> S 	 -15.748 	 32.8647 	 38.0218
|  8> C 	 -17.223 	 31.8729 	 37.6946
|  9> C 	 -18.0736 	 32.5319 	 36.8241
| 10> C 	 -17.536 	 33.7823 	 36.3537
| 11> C 	 -16.2986 	 34.093 	 36.8911
| 12> H 	 -18.0539 	 34.4659 	 35.6494
| 13> C 	 -19.4448 	 32.0187 	 36.4894
| 14> H 	 -19.5157 	 30.9797 	 36.7974
| 15> H 	 -19.7089 	 32.0487 	 35.4249
| 16> C 	 -20.5802 	 32.8364 	 37.1635
| 17> H 	 -20.6146 	 33.866 	 36.7407
| 18> H 	 -21.536 	 32.368 	 36.7737
| 19> C 	 -20.6313 	 32.9384 	 38.6845
| 20> H 	 -19.8201 	 33.4609 	 39.164
| 21> H 	 -21.52 	 33.504 	 38.9723
| 22> H 	 -20.7371 	 31.9842 	 39.0963
| 23> S 	 -14.2405 	 35.2592 	 35.6829
| 24> C 	 -13.9211 	 36.9711 	 35.8753
| 25> C 	 -14.8729 	 37.5373 	 36.6561
| 26> C 	 -15.9239 	 36.6814 	 37.0927
| 27> C 	 -15.5963 	 35.3478 	 36.7723
| 28> H 	 -14.6945 	 38.6327 	 37.0028
| 29> C 	 -17.1204 	 37.1542 	 37.9344
| 30> H 	 -16.7274 	 37.9561 	 38.5455
| 31> H 	 -17.2965 	 36.3541 	 38.701
| 32> C 	 -18.4441 	 37.4646 	 37.2527
| 33> H 	 -19.1474 	 37.8082 	 38.0035
| 34> H 	 -18.8199 	 36.5855 	 36.8477
| 35> C 	 -18.5631 	 38.5172 	 36.1173
| 36> H 	 -18.4373 	 38.0256 	 35.1548
| 37> H 	 -17.8546 	 39.4085 	 36.21
| 38> H 	 -19.5054 	 38.9759 	 36.1291
| 39> H 	 -17.4476 	 30.8374 	 37.9395
| 40> H 	 -12.9496 	 37.4078 	 35.647
| 41> *
| 42>
| 43>                          ****END OF INPUT****

CARTESIAN COORDINATES (ANGSTROEM)
---------------------------------
  S    -15.748000   32.864700   38.021800
  C    -17.223000   31.872900   37.694600
  C    -18.073600   32.531900   36.824100
  C    -17.536000   33.782300   36.353700
  C    -16.298600   34.093000   36.891100
  H    -18.053900   34.465900   35.649400
  C    -19.444800   32.018700   36.489400
  H    -19.515700   30.979700   36.797400
  H    -19.708900   32.048700   35.424900
  C    -20.580200   32.836400   37.163500
  H    -20.614600   33.866000   36.740700
  H    -21.536000   32.368000   36.773700
  C    -20.631300   32.938400   38.684500
  H    -19.820100   33.460900   39.164000
  H    -21.520000   33.504000   38.972300
  H    -20.737100   31.984200   39.096300
  S    -14.240500   35.259200   35.682900
  C    -13.921100   36.971100   35.875300
  C    -14.872900   37.537300   36.656100
  C    -15.923900   36.681400   37.092700
  C    -15.596300   35.347800   36.772300
  H    -14.694500   38.632700   37.002800
  C    -17.120400   37.154200   37.934400
  H    -16.727400   37.956100   38.545500
  H    -17.296500   36.354100   38.701000
  C    -18.444100   37.464600   37.252700
  H    -19.147400   37.808200   38.003500
  H    -18.819900   36.585500   36.847700
  C    -18.563100   38.517200   36.117300
  H    -18.437300   38.025600   35.154800
  H    -17.854600   39.408500   36.210000
  H    -19.505400   38.975900   36.129100
  H    -17.447600   30.837400   37.939500
  H    -12.949600   37.407800   35.647000

 Total Charge           Charge          ....    0
 Multiplicity           Mult            ....    1
 Number of Electrons    NEL             ....  134
 Basis Dimension        Dim             ....  322

ORBITAL ENERGIES
----------------

  NO   OCC          E(Eh)            E(eV)
   0   2.0000     -88.968528     -2420.9567
   1   2.0000     -88.961237     -2420.7583
   2   2.0000     -10.329339      -281.0756
   3   2.0000     -10.325541      -280.9723
   4   2.0000     -10.317997      -280.7670
   5   2.0000     -10.313087      -280.6334
   6   2.0000     -10.308692      -280.5138
   7   2.0000     -10.301968      -280.3308
   8   2.0000     -10.299373      -280.2602
   9   2.0000     -10.298161      -280.2272
  10   2.0000     -10.296064      -280.1702
  11   2.0000     -10.294779      -280.1352
  12   2.0000     -10.294396      -280.1247
  13   2.0000     -10.282490      -279.8008
  14   2.0000     -10.277213      -279.6572
  15   2.0000     -10.270030      -279.4617
  16   2.0000      -8.082017      -219.9229
  17   2.0000      -8.076525      -219.7734
  18   2.0000      -6.040678      -164.3752
  19   2.0000      -6.036739      -164.2680
  20   2.0000      -6.034969      -164.2199
  21   2.0000      -6.032636      -164.1564
  22   2.0000      -6.030869      -164.1083
  23   2.0000      -6.027391      -164.0136
  24   2.0000      -1.005612       -27.3641
  25   2.0000      -0.980079       -26.6693
  26   2.0000      -0.911073       -24.7916
  27   2.0000      -0.905618       -24.6431
  28   2.0000      -0.868949       -23.6453
  29   2.0000      -0.848008       -23.0755
  30   2.0000      -0.842992       -22.9390
  31   2.0000      -0.813993       -22.1499
  32   2.0000      -0.788438       -21.4545
  33   2.0000      -0.777530       -21.1577
  34   2.0000      -0.712308       -19.3829
  35   2.0000      -0.696213       -18.9449
  36   2.0000      -0.688815       -18.7436
  37   2.0000      -0.653522       -17.7832
  38   2.0000      -0.637239       -17.3402
  39   2.0000      -0.615852       -16.7582
  40   2.0000      -0.590497       -16.0682
  41   2.0000      -0.564741       -15.3674
  42   2.0000      -0.558280       -15.1916
  43   2.0000      -0.549401       -14.9500
  44   2.0000      -0.541230       -14.7276
  45   2.0000      -0.538655       -14.6576
  46   2.0000      -0.517173       -14.0730
  47   2.0000      -0.510625       -13.8948
  48   2.0000      -0.503282       -13.6950
  49   2.0000      -0.495497       -13.4832
  50   2.0000      -0.487245       -13.2586
  51   2.0000      -0.483603       -13.1595
  52   2.0000      -0.469328       -12.7711
  53   2.0000      -0.462591       -12.5878
  54   2.0000      -0.460467       -12.5300
  55   2.0000      -0.445361       -12.1189
  56   2.0000      -0.441930       -12.0255
  57   2.0000      -0.435854       -11.8602
  58   2.0000      -0.433700       -11.8016
  59   2.0000      -0.423698       -11.5294
  60   2.0000      -0.418255       -11.3813
  61   2.0000      -0.416097       -11.3226
  62   2.0000      -0.413428       -11.2499
  63   2.0000      -0.338459        -9.2099
  64   2.0000      -0.330250        -8.9866
  65   2.0000      -0.320074        -8.7097
  66   2.0000      -0.309141        -8.4121
  67   0.0000       0.032339         0.8800
  68   0.0000       0.060899         1.6571
  69   0.0000       0.113361         3.0847
  70   0.0000       0.114309         3.1105
  71   0.0000       0.124383         3.3846

MULLIKEN ATOMIC CHARGES
-----------------------
   0 S :    0.111111
   1 C :   -0.114318
   2 C :   -0.102600
   3 C :    0.042307
   4 C :   -0.157385
   5 H :    0.029660
   6 C :    0.085240
   7 H :    0.013153
   8 H :    0.034171
   9 C :   -0.128320
  10 H :    0.029335
  11 H :    0.032340
  12 C :   -0.008272
  13 H :    0.040756
  14 H :    0.026716
  15 H :    0.014074
  16 S :    0.101390
  17 C :   -0.094669
  18 C :   -0.072357
  19 C :   -0.015784
  20 C :   -0.193317
  21 H :    0.051111
  22 C :    0.071044
  23 H :    0.015967
  24 H :    0.037630
  25 C :   -0.027844
  26 H :    0.027995
  27 H :    0.003261
  28 C :   -0.056615
  29 H :    0.037711
  30 H :    0.034070
  31 H :    0.019928
  32 H :    0.048220
  33 H :    0.064289
Sum of atomic charges:   -0.0000000

LOEWDIN ATOMIC CHARGES
----------------------
   0 S :    0.385328
   1 C :   -0.187870
   2 C :   -0.062317
   3 C :   -0.059831
   4 C :   -0.201808
   5 H :    0.036787
   6 C :   -0.033098
   7 H :    0.026759
   8 H :    0.035185
   9 C :   -0.044106
  10 H :    0.022082
  11 H :    0.029021
  12 C :   -0.062697
  13 H :    0.026810
  14 H :    0.030708
  15 H :    0.016219
  16 S :    0.412036
  17 C :   -0.192636
  18 C :   -0.083992
  19 C :   -0.054693
  20 C :   -0.204782
  21 H :    0.047085
  22 C :   -0.031368
  23 H :    0.028207
  24 H :    0.043043
  25 C :   -0.036080
  26 H :    0.028613
  27 H :    0.014157
  28 C :   -0.067129
  29 H :    0.025997
  30 H :    0.031168
  31 H :    0.019011
  32 H :    0.031860
  33 H :    0.032331

  Mayer bond orders larger than 0.100000
B(  0-S ,  1-C ) :   1.1150 B(  0-S ,  4-C ) :   1.1451 B(  1-C ,  2-C ) :   1.6369
B(  1-C , 32-H ) :   0.9613 B(  2-C ,  3-C ) :   1.2146 B(  2-C ,  6-C ) :   1.0422
B(  3-C ,  4-C ) :   1.5964 B(  3-C ,  5-H ) :   0.9894 B(  4-C , 20-C ) :   0.9948
B(  6-C ,  7-H ) :   0.9381 B(  6-C ,  8-H ) :   0.9381 B(  6-C ,  9-C ) :   1.0655
B(  9-C , 10-H ) :   0.9571 B(  9-C , 11-H ) :   0.9554 B(  9-C , 12-C ) :   1.0782
B( 12-C , 13-H ) :   0.9734 B( 12-C , 14-H ) :   0.9697 B( 12-C , 15-H ) :   0.9742
B( 16-S , 17-C ) :   1.1459 B( 16-S , 20-C ) :   1.1738 B( 17-C , 18-C ) :   1.6331
B( 17-C , 20-C ) :   0.1070 B( 17-C , 33-H ) :   0.9633 B( 18-C , 19-C ) :   1.2364
B( 18-C , 21-H ) :   0.9669 B( 19-C , 20-C ) :   1.5842 B( 19-C , 22-C ) :   1.0281
B( 22-C , 23-H ) :   0.9361 B( 22-C , 24-H ) :   0.9348 B( 22-C , 25-C ) :   1.0789
B( 25-C , 26-H ) :   0.9551 B( 25-C , 27-H ) :   0.9528 B( 25-C , 28-C ) :   1.0710
B( 28-C , 29-H ) :   0.9785 B( 28-C , 30-H ) :   0.9774 B( 28-C , 31-H ) :   0.9751

Dispersion correction           -0.015390007
FINAL SINGLE POINT ENERGY     -1339.877958243405

DIPOLE MOMENT
-------------
                                X             Y             Z
Electronic contribution:     27.77647      -8.10886      -3.15844
Nuclear contribution   :    -28.43955       8.36482       3.24173
                        -----------------------------------------
Total Dipole Moment    :     -0.66308       0.25595       0.08329
                        -----------------------------------------
Magnitude (a.u.)       :      0.71563
Magnitude (Debye)      :      1.81898

Rotational constants in cm-1:     0.018379     0.009985     0.007336
Rotational constants in MHz :   550.999420   299.356843   219.916694

                             ****ORCA TERMINATED NORMALLY****
TOTAL RUN TIME: 0 days 0 hours 0 minutes 35 seconds 312 msec
