                         Program Version 4.2.1 -  RELEASE  -
|  1> ! wB97X-D3 SP def2-SVP
|  2> %pal
|  3> nprocs 16
|  4> end
|  5>
|  6> * xyz 0 1
|  7> S 	 48.808 	 8.08825 	 84.3976
|  8> C 	 47.1013 	 8.29951 	 84.6258
|  9> C 	 46.3587 	 8.07351 	 83.5035
| 10> C 	 47.1929 	 7.6375 	 82.4123
| 11> C 	 48.5391 	 7.65042 	 82.7727
| 12> H 	 46.9379 	 7.43483 	 81.4153
| 13> C 	 44.8632 	 8.31423 	 83.3988
| 14> H 	 44.6121 	 9.27722 	 82.9793
| 15> H 	 44.4167 	 8.46187 	 84.4462
| 16> C 	 43.9772 	 7.25551 	 82.7791
| 17> H 	 42.9977 	 7.70305 	 82.6683
| 18> H 	 44.2388 	 7.10139 	 81.722
| 19> C 	 44.0017 	 5.83617 	 83.3311
| 20> H 	 43.4838 	 5.10342 	 82.6639
| 21> H 	 45.0043 	 5.5422 	 83.5861
| 22> H 	 43.3904 	 5.82272 	 84.1979
| 23> S 	 50.3491 	 8.48677 	 80.8728
| 24> C 	 51.1354 	 7.24916 	 79.9145
| 25> C 	 50.8887 	 6.0123 	 80.3635
| 26> C 	 50.0347 	 5.99212 	 81.5637
| 27> C 	 49.6374 	 7.27428 	 81.9297
| 28> H 	 51.2922 	 5.17559 	 79.8014
| 29> C 	 49.3936 	 4.67391 	 82.028
| 30> H 	 48.3854 	 4.62541 	 81.5586
| 31> H 	 49.1421 	 4.77819 	 83.0545
| 32> C 	 50.0968 	 3.34452 	 81.7051
| 33> H 	 51.1081 	 3.38955 	 82.1382
| 34> H 	 50.2975 	 3.23864 	 80.6749
| 35> C 	 49.3324 	 2.09372 	 82.224
| 36> H 	 48.2371 	 2.14687 	 82.0505
| 37> H 	 49.5525 	 2.00358 	 83.255
| 38> H 	 49.7702 	 1.15735 	 81.847
| 39> H 	 46.6677 	 8.5913 	 85.5561
| 40> H 	 51.8069 	 7.38474 	 79.1227
| 41> *
| 42>
| 43>                          ****END OF INPUT****

CARTESIAN COORDINATES (ANGSTROEM)
---------------------------------
  S     48.808000    8.088250   84.397600
  C     47.101300    8.299510   84.625800
  C     46.358700    8.073510   83.503500
  C     47.192900    7.637500   82.412300
  C     48.539100    7.650420   82.772700
  H     46.937900    7.434830   81.415300
  C     44.863200    8.314230   83.398800
  H     44.612100    9.277220   82.979300
  H     44.416700    8.461870   84.446200
  C     43.977200    7.255510   82.779100
  H     42.997700    7.703050   82.668300
  H     44.238800    7.101390   81.722000
  C     44.001700    5.836170   83.331100
  H     43.483800    5.103420   82.663900
  H     45.004300    5.542200   83.586100
  H     43.390400    5.822720   84.197900
  S     50.349100    8.486770   80.872800
  C     51.135400    7.249160   79.914500
  C     50.888700    6.012300   80.363500
  C     50.034700    5.992120   81.563700
  C     49.637400    7.274280   81.929700
  H     51.292200    5.175590   79.801400
  C     49.393600    4.673910   82.028000
  H     48.385400    4.625410   81.558600
  H     49.142100    4.778190   83.054500
  C     50.096800    3.344520   81.705100
  H     51.108100    3.389550   82.138200
  H     50.297500    3.238640   80.674900
  C     49.332400    2.093720   82.224000
  H     48.237100    2.146870   82.050500
  H     49.552500    2.003580   83.255000
  H     49.770200    1.157350   81.847000
  H     46.667700    8.591300   85.556100
  H     51.806900    7.384740   79.122700

 Total Charge           Charge          ....    0
 Multiplicity           Mult            ....    1
 Number of Electrons    NEL             ....  134
 Basis Dimension        Dim             ....  322

ORBITAL ENERGIES
----------------

  NO   OCC          E(Eh)            E(eV)
   0   2.0000     -88.966810     -2420.9100
   1   2.0000     -88.961855     -2420.7751
   2   2.0000     -10.322459      -280.8884
   3   2.0000     -10.321043      -280.8499
   4   2.0000     -10.308615      -280.5117
   5   2.0000     -10.308410      -280.5061
   6   2.0000     -10.308287      -280.5027
   7   2.0000     -10.301985      -280.3313
   8   2.0000     -10.296723      -280.1881
   9   2.0000     -10.292666      -280.0777
  10   2.0000     -10.290414      -280.0164
  11   2.0000     -10.290051      -280.0065
  12   2.0000     -10.285872      -279.8928
  13   2.0000     -10.283200      -279.8201
  14   2.0000     -10.280101      -279.7358
  15   2.0000     -10.273992      -279.5695
  16   2.0000      -8.082707      -219.9416
  17   2.0000      -8.076632      -219.7763
  18   2.0000      -6.040962      -164.3829
  19   2.0000      -6.037060      -164.2768
  20   2.0000      -6.035229      -164.2269
  21   2.0000      -6.033663      -164.1843
  22   2.0000      -6.031183      -164.1168
  23   2.0000      -6.027246      -164.0097
  24   2.0000      -1.010170       -27.4881
  25   2.0000      -0.984253       -26.7829
  26   2.0000      -0.913442       -24.8560
  27   2.0000      -0.903935       -24.5973
  28   2.0000      -0.874835       -23.8055
  29   2.0000      -0.850162       -23.1341
  30   2.0000      -0.843899       -22.9637
  31   2.0000      -0.817561       -22.2470
  32   2.0000      -0.788803       -21.4644
  33   2.0000      -0.772472       -21.0200
  34   2.0000      -0.711241       -19.3538
  35   2.0000      -0.704674       -19.1751
  36   2.0000      -0.691098       -18.8057
  37   2.0000      -0.649291       -17.6681
  38   2.0000      -0.647155       -17.6100
  39   2.0000      -0.620907       -16.8957
  40   2.0000      -0.596968       -16.2443
  41   2.0000      -0.570788       -15.5319
  42   2.0000      -0.563353       -15.3296
  43   2.0000      -0.554465       -15.0878
  44   2.0000      -0.540662       -14.7122
  45   2.0000      -0.525653       -14.3037
  46   2.0000      -0.517117       -14.0715
  47   2.0000      -0.510658       -13.8957
  48   2.0000      -0.502909       -13.6849
  49   2.0000      -0.498063       -13.5530
  50   2.0000      -0.489424       -13.3179
  51   2.0000      -0.478959       -13.0331
  52   2.0000      -0.467052       -12.7091
  53   2.0000      -0.463303       -12.6071
  54   2.0000      -0.459565       -12.5054
  55   2.0000      -0.454091       -12.3565
  56   2.0000      -0.450660       -12.2631
  57   2.0000      -0.445530       -12.1235
  58   2.0000      -0.433284       -11.7903
  59   2.0000      -0.426631       -11.6092
  60   2.0000      -0.422555       -11.4983
  61   2.0000      -0.417448       -11.3594
  62   2.0000      -0.399102       -10.8601
  63   2.0000      -0.336059        -9.1446
  64   2.0000      -0.330951        -9.0056
  65   2.0000      -0.317234        -8.6324
  66   2.0000      -0.314109        -8.5474
  67   0.0000       0.051542         1.4025
  68   0.0000       0.055295         1.5047
  69   0.0000       0.119374         3.2483
  70   0.0000       0.125060         3.4031
  71   0.0000       0.129662         3.5283

MULLIKEN ATOMIC CHARGES
-----------------------
   0 S :    0.134186
   1 C :   -0.114663
   2 C :   -0.055261
   3 C :    0.068589
   4 C :   -0.203238
   5 H :   -0.003723
   6 C :    0.057907
   7 H :    0.038511
   8 H :    0.015724
   9 C :   -0.093974
  10 H :    0.020958
  11 H :    0.018723
  12 C :   -0.025269
  13 H :    0.036763
  14 H :    0.042046
  15 H :    0.014358
  16 S :    0.107368
  17 C :   -0.056982
  18 C :   -0.057252
  19 C :   -0.014378
  20 C :   -0.175036
  21 H :    0.023975
  22 C :    0.070984
  23 H :    0.033685
  24 H :    0.018310
  25 C :   -0.082683
  26 H :    0.029017
  27 H :    0.021835
  28 C :   -0.030792
  29 H :    0.044297
  30 H :    0.023818
  31 H :    0.029726
  32 H :    0.031156
  33 H :    0.031315
Sum of atomic charges:    0.0000000

LOEWDIN ATOMIC CHARGES
----------------------
   0 S :    0.437952
   1 C :   -0.195494
   2 C :   -0.064107
   3 C :   -0.047877
   4 C :   -0.212932
   5 H :    0.024593
   6 C :   -0.035541
   7 H :    0.034755
   8 H :    0.034756
   9 C :   -0.051978
  10 H :    0.025298
  11 H :    0.020275
  12 C :   -0.061570
  13 H :    0.033513
  14 H :    0.026425
  15 H :    0.017863
  16 S :    0.395344
  17 C :   -0.173057
  18 C :   -0.076223
  19 C :   -0.042325
  20 C :   -0.213363
  21 H :    0.032717
  22 C :   -0.033565
  23 H :    0.038101
  24 H :    0.025373
  25 C :   -0.040920
  26 H :    0.027289
  27 H :    0.013609
  28 C :   -0.062723
  29 H :    0.030142
  30 H :    0.021861
  31 H :    0.029866
  32 H :    0.020643
  33 H :    0.021298

  Mayer bond orders larger than 0.100000
B(  0-S ,  1-C ) :   1.1444 B(  0-S ,  4-C ) :   1.1767 B(  1-C ,  2-C ) :   1.6253
B(  1-C , 32-H ) :   0.9685 B(  2-C ,  3-C ) :   1.2138 B(  2-C ,  6-C ) :   1.0164
B(  3-C ,  4-C ) :   1.5829 B(  3-C ,  5-H ) :   1.0066 B(  4-C , 20-C ) :   1.0071
B(  6-C ,  7-H ) :   0.9351 B(  6-C ,  8-H ) :   0.9401 B(  6-C ,  9-C ) :   1.0846
B(  9-C , 10-H ) :   0.9516 B(  9-C , 11-H ) :   0.9522 B(  9-C , 12-C ) :   1.0703
B( 12-C , 13-H ) :   0.9737 B( 12-C , 14-H ) :   0.9737 B( 12-C , 15-H ) :   0.9745
B( 16-S , 17-C ) :   1.1356 B( 16-S , 20-C ) :   1.1318 B( 17-C , 18-C ) :   1.6769
B( 17-C , 33-H ) :   0.9647 B( 18-C , 19-C ) :   1.1945 B( 18-C , 21-H ) :   0.9848
B( 19-C , 20-C ) :   1.6295 B( 19-C , 22-C ) :   1.0488 B( 22-C , 23-H ) :   0.9262
B( 22-C , 24-H ) :   0.9288 B( 22-C , 25-C ) :   1.0657 B( 25-C , 26-H ) :   0.9585
B( 25-C , 27-H ) :   0.9496 B( 25-C , 28-C ) :   1.0803 B( 28-C , 29-H ) :   0.9758
B( 28-C , 30-H ) :   0.9754 B( 28-C , 31-H ) :   0.9724

Dispersion correction           -0.014257267
FINAL SINGLE POINT ENERGY     -1339.880609990645

DIPOLE MOMENT
-------------
                                X             Y             Z
Electronic contribution:     17.92962      22.02852       0.38476
Nuclear contribution   :    -18.35857     -22.48421      -0.58326
                        -----------------------------------------
Total Dipole Moment    :     -0.42895      -0.45568      -0.19850
                        -----------------------------------------
Magnitude (a.u.)       :      0.65654
Magnitude (Debye)      :      1.66880

Rotational constants in cm-1:     0.015985     0.009146     0.007088
Rotational constants in MHz :   479.219295   274.184528   212.481974

                             ****ORCA TERMINATED NORMALLY****
TOTAL RUN TIME: 0 days 0 hours 0 minutes 29 seconds 695 msec
