                         Program Version 4.2.1 -  RELEASE  -
|  1> ! wB97X-D3 SP def2-SVP
|  2> %pal
|  3> nprocs 16
|  4> end
|  5>
|  6> * xyz 0 1
|  7> S 	 -2.70902 	 -12.1453 	 71.0937
|  8> C 	 -4.51986 	 -12.3181 	 71.2821
|  9> C 	 -5.26088 	 -11.5714 	 70.356
| 10> C 	 -4.39949 	 -10.718 	 69.5877
| 11> C 	 -3.05661 	 -10.9034 	 69.8715
| 12> H 	 -4.6382 	 -9.9969 	 68.8
| 13> C 	 -6.79788 	 -11.5435 	 70.1113
| 14> H 	 -6.9328 	 -12.4712 	 69.5638
| 15> H 	 -7.24512 	 -10.8215 	 69.3758
| 16> C 	 -7.55464 	 -11.6344 	 71.4455
| 17> H 	 -7.8488 	 -12.6335 	 71.7899
| 18> H 	 -6.8927 	 -11.2564 	 72.1535
| 19> C 	 -8.88557 	 -10.9852 	 71.2924
| 20> H 	 -8.77368 	 -10.0167 	 70.8013
| 21> H 	 -9.39402 	 -11.5864 	 70.5176
| 22> H 	 -9.47172 	 -10.9601 	 72.2177
| 23> S 	 -1.56897 	 -8.47648 	 69.6982
| 24> C 	 -0.230061 	 -8.35514 	 68.6045
| 25> C 	 -0.18122 	 -9.43805 	 67.7655
| 26> C 	 -1.13325 	 -10.4632 	 68.065
| 27> C 	 -1.97347 	 -10.1234 	 69.155
| 28> H 	 0.562932 	 -9.50046 	 66.9824
| 29> C 	 -1.19122 	 -11.7287 	 67.3137
| 30> H 	 -0.795988 	 -11.6547 	 66.3513
| 31> H 	 -2.24017 	 -11.9696 	 66.9866
| 32> C 	 -0.418848 	 -12.8399 	 67.9868
| 33> H 	 -0.924081 	 -12.9867 	 68.9415
| 34> H 	 0.609244 	 -12.5137 	 68.1599
| 35> C 	 -0.310041 	 -14.1145 	 67.1143
| 36> H 	 -1.34569 	 -14.5017 	 66.9293
| 37> H 	 0.291025 	 -14.8585 	 67.5172
| 38> H 	 0.0853419 	 -13.9757 	 66.1741
| 39> H 	 -5.09411 	 -13.0648 	 71.8577
| 40> H 	 0.328411 	 -7.4428 	 68.5294
| 41> *
| 42>
| 43>                          ****END OF INPUT****

CARTESIAN COORDINATES (ANGSTROEM)
---------------------------------
  S     -2.709020  -12.145300   71.093700
  C     -4.519860  -12.318100   71.282100
  C     -5.260880  -11.571400   70.356000
  C     -4.399490  -10.718000   69.587700
  C     -3.056610  -10.903400   69.871500
  H     -4.638200   -9.996900   68.800000
  C     -6.797880  -11.543500   70.111300
  H     -6.932800  -12.471200   69.563800
  H     -7.245120  -10.821500   69.375800
  C     -7.554640  -11.634400   71.445500
  H     -7.848800  -12.633500   71.789900
  H     -6.892700  -11.256400   72.153500
  C     -8.885570  -10.985200   71.292400
  H     -8.773680  -10.016700   70.801300
  H     -9.394020  -11.586400   70.517600
  H     -9.471720  -10.960100   72.217700
  S     -1.568970   -8.476480   69.698200
  C     -0.230061   -8.355140   68.604500
  C     -0.181220   -9.438050   67.765500
  C     -1.133250  -10.463200   68.065000
  C     -1.973470  -10.123400   69.155000
  H      0.562932   -9.500460   66.982400
  C     -1.191220  -11.728700   67.313700
  H     -0.795988  -11.654700   66.351300
  H     -2.240170  -11.969600   66.986600
  C     -0.418848  -12.839900   67.986800
  H     -0.924081  -12.986700   68.941500
  H      0.609244  -12.513700   68.159900
  C     -0.310041  -14.114500   67.114300
  H     -1.345690  -14.501700   66.929300
  H      0.291025  -14.858500   67.517200
  H      0.085342  -13.975700   66.174100
  H     -5.094110  -13.064800   71.857700
  H      0.328411   -7.442800   68.529400

 Total Charge           Charge          ....    0
 Multiplicity           Mult            ....    1
 Number of Electrons    NEL             ....  134
 Basis Dimension        Dim             ....  322

ORBITAL ENERGIES
----------------

  NO   OCC          E(Eh)            E(eV)
   0   2.0000     -88.976545     -2421.1749
   1   2.0000     -88.962105     -2420.7820
   2   2.0000     -10.334937      -281.2279
   3   2.0000     -10.330340      -281.1028
   4   2.0000     -10.323509      -280.9170
   5   2.0000     -10.314460      -280.6707
   6   2.0000     -10.311111      -280.5796
   7   2.0000     -10.302842      -280.3546
   8   2.0000     -10.301284      -280.3122
   9   2.0000     -10.296379      -280.1787
  10   2.0000     -10.291913      -280.0572
  11   2.0000     -10.281207      -279.7659
  12   2.0000     -10.279917      -279.7308
  13   2.0000     -10.278828      -279.7011
  14   2.0000     -10.278430      -279.6903
  15   2.0000     -10.266706      -279.3713
  16   2.0000      -8.088564      -220.1010
  17   2.0000      -8.076731      -219.7790
  18   2.0000      -6.047250      -164.5540
  19   2.0000      -6.043708      -164.4576
  20   2.0000      -6.039011      -164.3298
  21   2.0000      -6.035147      -164.2247
  22   2.0000      -6.031121      -164.1152
  23   2.0000      -6.027740      -164.0231
  24   2.0000      -0.996082       -27.1048
  25   2.0000      -0.976560       -26.5736
  26   2.0000      -0.918028       -24.9808
  27   2.0000      -0.912579       -24.8325
  28   2.0000      -0.862374       -23.4664
  29   2.0000      -0.847989       -23.0749
  30   2.0000      -0.847477       -23.0610
  31   2.0000      -0.810163       -22.0457
  32   2.0000      -0.782892       -21.3036
  33   2.0000      -0.770452       -20.9651
  34   2.0000      -0.710505       -19.3338
  35   2.0000      -0.703481       -19.1427
  36   2.0000      -0.686445       -18.6791
  37   2.0000      -0.658740       -17.9252
  38   2.0000      -0.634856       -17.2753
  39   2.0000      -0.613192       -16.6858
  40   2.0000      -0.600656       -16.3447
  41   2.0000      -0.573640       -15.6095
  42   2.0000      -0.569499       -15.4969
  43   2.0000      -0.560307       -15.2467
  44   2.0000      -0.529636       -14.4121
  45   2.0000      -0.523909       -14.2563
  46   2.0000      -0.522004       -14.2044
  47   2.0000      -0.513622       -13.9764
  48   2.0000      -0.503248       -13.6941
  49   2.0000      -0.487802       -13.2738
  50   2.0000      -0.482439       -13.1278
  51   2.0000      -0.475532       -12.9399
  52   2.0000      -0.471501       -12.8302
  53   2.0000      -0.458859       -12.4862
  54   2.0000      -0.454651       -12.3717
  55   2.0000      -0.452215       -12.3054
  56   2.0000      -0.445811       -12.1311
  57   2.0000      -0.443295       -12.0627
  58   2.0000      -0.436681       -11.8827
  59   2.0000      -0.428838       -11.6693
  60   2.0000      -0.420260       -11.4359
  61   2.0000      -0.410433       -11.1685
  62   2.0000      -0.405732       -11.0405
  63   2.0000      -0.336431        -9.1548
  64   2.0000      -0.329186        -8.9576
  65   2.0000      -0.319070        -8.6823
  66   2.0000      -0.307740        -8.3740
  67   0.0000       0.040004         1.0886
  68   0.0000       0.050736         1.3806
  69   0.0000       0.093191         2.5359
  70   0.0000       0.118612         3.2276
  71   0.0000       0.132519         3.6060

MULLIKEN ATOMIC CHARGES
-----------------------
   0 S :    0.126908
   1 C :   -0.126434
   2 C :   -0.091970
   3 C :    0.028280
   4 C :   -0.153101
   5 H :    0.025244
   6 C :    0.042337
   7 H :    0.039210
   8 H :    0.041728
   9 C :   -0.052421
  10 H :    0.026654
  11 H :    0.027761
  12 C :   -0.058723
  13 H :    0.029356
  14 H :    0.023781
  15 H :    0.044949
  16 S :    0.102112
  17 C :   -0.092854
  18 C :   -0.017956
  19 C :   -0.027350
  20 C :   -0.199589
  21 H :    0.015200
  22 C :    0.091020
  23 H :   -0.020676
  24 H :    0.028357
  25 C :   -0.067426
  26 H :    0.021387
  27 H :    0.025887
  28 C :    0.007232
  29 H :    0.025330
  30 H :    0.020553
  31 H :    0.003873
  32 H :    0.053781
  33 H :    0.057558
Sum of atomic charges:    0.0000000

LOEWDIN ATOMIC CHARGES
----------------------
   0 S :    0.382667
   1 C :   -0.194081
   2 C :   -0.050508
   3 C :   -0.059745
   4 C :   -0.185999
   5 H :    0.038096
   6 C :   -0.034237
   7 H :    0.040046
   8 H :    0.039040
   9 C :   -0.044040
  10 H :    0.027471
  11 H :    0.012980
  12 C :   -0.062811
  13 H :    0.020776
  14 H :    0.027654
  15 H :    0.028046
  16 S :    0.402379
  17 C :   -0.184915
  18 C :   -0.072907
  19 C :   -0.050025
  20 C :   -0.199320
  21 H :    0.030546
  22 C :   -0.041639
  23 H :    0.018472
  24 H :    0.037811
  25 C :   -0.030697
  26 H :    0.014468
  27 H :    0.025168
  28 C :   -0.057192
  29 H :    0.030865
  30 H :    0.018447
  31 H :    0.012886
  32 H :    0.033197
  33 H :    0.027102

  Mayer bond orders larger than 0.100000
B(  0-S ,  1-C ) :   1.1081 B(  0-S ,  4-C ) :   1.1293 B(  1-C ,  2-C ) :   1.6587
B(  1-C , 32-H ) :   0.9546 B(  2-C ,  3-C ) :   1.2032 B(  2-C ,  6-C ) :   1.0000
B(  3-C ,  4-C ) :   1.6292 B(  3-C ,  5-H ) :   0.9871 B(  4-C , 20-C ) :   1.0081
B(  6-C ,  7-H ) :   0.9187 B(  6-C ,  8-H ) :   0.9621 B(  6-C ,  9-C ) :   1.0425
B(  9-C , 10-H ) :   0.9452 B(  9-C , 11-H ) :   0.9702 B(  9-C , 12-C ) :   1.0859
B( 12-C , 13-H ) :   0.9796 B( 12-C , 14-H ) :   0.9707 B( 12-C , 15-H ) :   0.9717
B( 16-S , 17-C ) :   1.1729 B( 16-S , 20-C ) :   1.1480 B( 17-C , 18-C ) :   1.5795
B( 17-C , 33-H ) :   0.9695 B( 18-C , 19-C ) :   1.2660 B( 18-C , 21-H ) :   0.9910
B( 19-C , 20-C ) :   1.5684 B( 19-C , 22-C ) :   1.0622 B( 22-C , 23-H ) :   0.9188
B( 22-C , 24-H ) :   0.9231 B( 22-C , 25-C ) :   1.0571 B( 25-C , 26-H ) :   0.9530
B( 25-C , 27-H ) :   0.9538 B( 25-C , 28-C ) :   1.0846 B( 28-C , 29-H ) :   0.9723
B( 28-C , 30-H ) :   0.9736 B( 28-C , 31-H ) :   0.9706

Dispersion correction           -0.014057737
FINAL SINGLE POINT ENERGY     -1339.854514105740

DIPOLE MOMENT
-------------
                                X             Y             Z
Electronic contribution:     13.95012      12.95053       7.34024
Nuclear contribution   :    -14.28481     -13.17023      -7.85033
                        -----------------------------------------
Total Dipole Moment    :     -0.33468      -0.21971      -0.51010
                        -----------------------------------------
Magnitude (a.u.)       :      0.64845
Magnitude (Debye)      :      1.64822

Rotational constants in cm-1:     0.020434     0.007444     0.006238
Rotational constants in MHz :   612.596919   223.152405   187.021275

                             ****ORCA TERMINATED NORMALLY****
TOTAL RUN TIME: 0 days 0 hours 0 minutes 34 seconds 309 msec
