                         Program Version 4.2.1 -  RELEASE  -
|  1> ! wB97X-D3 SP def2-SVP
|  2> %pal
|  3> nprocs 16
|  4> end
|  5>
|  6> * xyz 0 1
|  7> S 	 52.7777 	 -1.40512 	 81.4565
|  8> C 	 51.4149 	 -0.764175 	 82.2914
|  9> C 	 51.7803 	 -0.361754 	 83.5455
| 10> C 	 53.1326 	 -0.34033 	 83.797
| 11> C 	 53.8584 	 -0.982466 	 82.7806
| 12> H 	 53.707 	 -0.0426128 	 84.7085
| 13> C 	 50.7926 	 0.235586 	 84.4609
| 14> H 	 51.2937 	 0.141447 	 85.3817
| 15> H 	 49.9879 	 -0.368651 	 84.4987
| 16> C 	 50.2753 	 1.61053 	 84.1434
| 17> H 	 50.9796 	 2.4397 	 84.1152
| 18> H 	 49.61 	 1.71856 	 83.2624
| 19> C 	 49.4375 	 2.05082 	 85.3824
| 20> H 	 48.7924 	 1.2409 	 85.7502
| 21> H 	 50.2179 	 2.29121 	 86.1662
| 22> H 	 48.8799 	 2.90482 	 85.1151
| 23> S 	 56.2546 	 -2.28559 	 83.515
| 24> C 	 57.7618 	 -1.61511 	 82.8377
| 25> C 	 57.557 	 -0.349383 	 82.3833
| 26> C 	 56.1814 	 0.0371671 	 82.3175
| 27> C 	 55.3069 	 -1.02055 	 82.6715
| 28> H 	 58.4805 	 0.147512 	 82.0137
| 29> C 	 55.8189 	 1.45906 	 82.0008
| 30> H 	 55.943 	 2.17022 	 82.8525
| 31> H 	 54.7669 	 1.40913 	 81.6959
| 32> C 	 56.596 	 2.13913 	 80.8104
| 33> H 	 56.6362 	 1.42601 	 79.9322
| 34> H 	 57.6395 	 2.21375 	 81.1926
| 35> C 	 56.2207 	 3.52193 	 80.2631
| 36> H 	 56.8821 	 3.93752 	 79.4775
| 37> H 	 56.3744 	 4.20448 	 81.1125
| 38> H 	 55.1448 	 3.42403 	 79.9092
| 39> H 	 50.4622 	 -0.863211 	 81.911
| 40> H 	 58.6776 	 -2.08977 	 82.9515
| 41> *
| 42>
| 43>                          ****END OF INPUT****

CARTESIAN COORDINATES (ANGSTROEM)
---------------------------------
  S     52.777700   -1.405120   81.456500
  C     51.414900   -0.764175   82.291400
  C     51.780300   -0.361754   83.545500
  C     53.132600   -0.340330   83.797000
  C     53.858400   -0.982466   82.780600
  H     53.707000   -0.042613   84.708500
  C     50.792600    0.235586   84.460900
  H     51.293700    0.141447   85.381700
  H     49.987900   -0.368651   84.498700
  C     50.275300    1.610530   84.143400
  H     50.979600    2.439700   84.115200
  H     49.610000    1.718560   83.262400
  C     49.437500    2.050820   85.382400
  H     48.792400    1.240900   85.750200
  H     50.217900    2.291210   86.166200
  H     48.879900    2.904820   85.115100
  S     56.254600   -2.285590   83.515000
  C     57.761800   -1.615110   82.837700
  C     57.557000   -0.349383   82.383300
  C     56.181400    0.037167   82.317500
  C     55.306900   -1.020550   82.671500
  H     58.480500    0.147512   82.013700
  C     55.818900    1.459060   82.000800
  H     55.943000    2.170220   82.852500
  H     54.766900    1.409130   81.695900
  C     56.596000    2.139130   80.810400
  H     56.636200    1.426010   79.932200
  H     57.639500    2.213750   81.192600
  C     56.220700    3.521930   80.263100
  H     56.882100    3.937520   79.477500
  H     56.374400    4.204480   81.112500
  H     55.144800    3.424030   79.909200
  H     50.462200   -0.863211   81.911000
  H     58.677600   -2.089770   82.951500

 Total Charge           Charge          ....    0
 Multiplicity           Mult            ....    1
 Number of Electrons    NEL             ....  134
 Basis Dimension        Dim             ....  322

ORBITAL ENERGIES
----------------

  NO   OCC          E(Eh)            E(eV)
   0   2.0000     -88.966021     -2420.8885
   1   2.0000     -88.961500     -2420.7655
   2   2.0000     -10.330338      -281.1028
   3   2.0000     -10.326605      -281.0012
   4   2.0000     -10.313575      -280.6467
   5   2.0000     -10.309486      -280.5354
   6   2.0000     -10.304242      -280.3927
   7   2.0000     -10.295691      -280.1600
   8   2.0000     -10.294793      -280.1356
   9   2.0000     -10.293476      -280.0997
  10   2.0000     -10.290840      -280.0280
  11   2.0000     -10.288127      -279.9542
  12   2.0000     -10.287316      -279.9321
  13   2.0000     -10.286429      -279.9080
  14   2.0000     -10.277723      -279.6711
  15   2.0000     -10.273258      -279.5496
  16   2.0000      -8.080910      -219.8927
  17   2.0000      -8.075410      -219.7431
  18   2.0000      -6.039129      -164.3330
  19   2.0000      -6.035257      -164.2277
  20   2.0000      -6.033987      -164.1931
  21   2.0000      -6.032103      -164.1419
  22   2.0000      -6.030276      -164.0922
  23   2.0000      -6.025896      -163.9730
  24   2.0000      -1.007122       -27.4052
  25   2.0000      -0.983431       -26.7605
  26   2.0000      -0.921330       -25.0707
  27   2.0000      -0.899748       -24.4834
  28   2.0000      -0.871157       -23.7054
  29   2.0000      -0.855342       -23.2750
  30   2.0000      -0.844703       -22.9855
  31   2.0000      -0.816601       -22.2208
  32   2.0000      -0.781802       -21.2739
  33   2.0000      -0.766903       -20.8685
  34   2.0000      -0.707334       -19.2475
  35   2.0000      -0.700328       -19.0569
  36   2.0000      -0.689134       -18.7523
  37   2.0000      -0.652993       -17.7689
  38   2.0000      -0.645161       -17.5557
  39   2.0000      -0.621082       -16.9005
  40   2.0000      -0.596815       -16.2402
  41   2.0000      -0.573038       -15.5932
  42   2.0000      -0.567477       -15.4418
  43   2.0000      -0.565263       -15.3816
  44   2.0000      -0.534413       -14.5421
  45   2.0000      -0.525993       -14.3130
  46   2.0000      -0.522407       -14.2154
  47   2.0000      -0.512689       -13.9510
  48   2.0000      -0.506367       -13.7790
  49   2.0000      -0.497589       -13.5401
  50   2.0000      -0.490430       -13.3453
  51   2.0000      -0.478301       -13.0152
  52   2.0000      -0.471131       -12.8201
  53   2.0000      -0.461885       -12.5685
  54   2.0000      -0.458056       -12.4643
  55   2.0000      -0.451848       -12.2954
  56   2.0000      -0.445964       -12.1353
  57   2.0000      -0.435848       -11.8600
  58   2.0000      -0.427516       -11.6333
  59   2.0000      -0.424021       -11.5382
  60   2.0000      -0.415589       -11.3087
  61   2.0000      -0.408181       -11.1072
  62   2.0000      -0.401272       -10.9192
  63   2.0000      -0.338567        -9.2129
  64   2.0000      -0.329773        -8.9736
  65   2.0000      -0.313666        -8.5353
  66   2.0000      -0.308412        -8.3923
  67   0.0000       0.038906         1.0587
  68   0.0000       0.044099         1.2000
  69   0.0000       0.101433         2.7601
  70   0.0000       0.125374         3.4116
  71   0.0000       0.135534         3.6881

MULLIKEN ATOMIC CHARGES
-----------------------
   0 S :    0.119919
   1 C :   -0.104427
   2 C :   -0.066393
   3 C :    0.016697
   4 C :   -0.195809
   5 H :    0.036024
   6 C :    0.151898
   7 H :   -0.001836
   8 H :   -0.011352
   9 C :   -0.071427
  10 H :    0.026353
  11 H :    0.033170
  12 C :   -0.064907
  13 H :    0.030861
  14 H :    0.037595
  15 H :    0.028104
  16 S :    0.082420
  17 C :   -0.070679
  18 C :   -0.041340
  19 C :   -0.012584
  20 C :   -0.166452
  21 H :    0.040740
  22 C :    0.087648
  23 H :    0.049119
  24 H :    0.029703
  25 C :   -0.164817
  26 H :    0.039068
  27 H :    0.028123
  28 C :   -0.047469
  29 H :    0.048132
  30 H :    0.028737
  31 H :    0.050457
  32 H :    0.021359
  33 H :    0.033361
Sum of atomic charges:   -0.0000000

LOEWDIN ATOMIC CHARGES
----------------------
   0 S :    0.427159
   1 C :   -0.187606
   2 C :   -0.070488
   3 C :   -0.059668
   4 C :   -0.204122
   5 H :    0.044592
   6 C :   -0.024399
   7 H :    0.027625
   8 H :    0.019200
   9 C :   -0.034262
  10 H :    0.023998
  11 H :    0.025055
  12 C :   -0.060671
  13 H :    0.020996
  14 H :    0.030185
  15 H :    0.016270
  16 S :    0.367438
  17 C :   -0.153730
  18 C :   -0.077221
  19 C :   -0.046121
  20 C :   -0.194550
  21 H :    0.041612
  22 C :   -0.035343
  23 H :    0.039095
  24 H :    0.030993
  25 C :   -0.056604
  26 H :    0.025386
  27 H :    0.018053
  28 C :   -0.073139
  29 H :    0.033541
  30 H :    0.024855
  31 H :    0.034536
  32 H :    0.012379
  33 H :    0.014956

  Mayer bond orders larger than 0.100000
B(  0-S ,  1-C ) :   1.1657 B(  0-S ,  4-C ) :   1.1750 B(  1-C ,  2-C ) :   1.5447
B(  1-C ,  4-C ) :   0.1124 B(  1-C , 32-H ) :   0.9871 B(  2-C ,  3-C ) :   1.2830
B(  2-C ,  6-C ) :   1.0263 B(  3-C ,  4-C ) :   1.5392 B(  3-C ,  5-H ) :   0.9885
B(  4-C , 20-C ) :   1.0293 B(  6-C ,  7-H ) :   0.9355 B(  6-C ,  8-H ) :   0.9136
B(  6-C ,  9-C ) :   1.0778 B(  9-C , 10-H ) :   0.9605 B(  9-C , 11-H ) :   0.9554
B(  9-C , 12-C ) :   1.0663 B( 12-C , 13-H ) :   0.9748 B( 12-C , 14-H ) :   0.9825
B( 12-C , 15-H ) :   0.9754 B( 16-S , 17-C ) :   1.1405 B( 16-S , 20-C ) :   1.1264
B( 17-C , 18-C ) :   1.6391 B( 17-C , 20-C ) :   0.1020 B( 17-C , 33-H ) :   0.9758
B( 18-C , 19-C ) :   1.2055 B( 18-C , 21-H ) :   0.9828 B( 19-C , 20-C ) :   1.5930
B( 19-C , 22-C ) :   1.0584 B( 22-C , 23-H ) :   0.9346 B( 22-C , 24-H ) :   0.9241
B( 22-C , 25-C ) :   1.0461 B( 25-C , 26-H ) :   0.9623 B( 25-C , 27-H ) :   0.9509
B( 25-C , 28-C ) :   1.0839 B( 28-C , 29-H ) :   0.9723 B( 28-C , 30-H ) :   0.9725
B( 28-C , 31-H ) :   0.9738

Dispersion correction           -0.013744553
FINAL SINGLE POINT ENERGY     -1339.845140161279

DIPOLE MOMENT
-------------
                                X             Y             Z
Electronic contribution:      8.85295     -25.79885      -2.24299
Nuclear contribution   :     -8.91196      26.41878       2.41371
                        -----------------------------------------
Total Dipole Moment    :     -0.05901       0.61993       0.17073
                        -----------------------------------------
Magnitude (a.u.)       :      0.64572
Magnitude (Debye)      :      1.64128

Rotational constants in cm-1:     0.017197     0.007992     0.006546
Rotational constants in MHz :   515.556621   239.581407   196.244414

                             ****ORCA TERMINATED NORMALLY****
TOTAL RUN TIME: 0 days 0 hours 0 minutes 29 seconds 480 msec
