                         Program Version 4.2.1 -  RELEASE  -
|  1> ! wB97X-D3 SP def2-SVP
|  2> %pal
|  3> nprocs 16
|  4> end
|  5>
|  6> * xyz 0 1
|  7> S 	 -35.112 	 73.6446 	 155.807
|  8> C 	 -34.7518 	 74.9723 	 154.711
|  9> C 	 -34.6509 	 74.5754 	 153.413
| 10> C 	 -34.68 	 73.1235 	 153.257
| 11> C 	 -34.9834 	 72.4955 	 154.44
| 12> H 	 -34.6368 	 72.5269 	 152.323
| 13> C 	 -34.5789 	 75.5648 	 152.276
| 14> H 	 -34.3177 	 76.5099 	 152.724
| 15> H 	 -35.54 	 75.8043 	 151.772
| 16> C 	 -33.5591 	 75.2007 	 151.137
| 17> H 	 -32.5324 	 74.864 	 151.411
| 18> H 	 -33.941 	 74.2498 	 150.638
| 19> C 	 -33.2881 	 76.3385 	 150.12
| 20> H 	 -32.474 	 76.0362 	 149.493
| 21> H 	 -34.0626 	 76.5465 	 149.378
| 22> H 	 -33.1781 	 77.2927 	 150.645
| 23> S 	 -35.9756 	 70.2164 	 153.379
| 24> C 	 -35.5857 	 68.7224 	 154.141
| 25> C 	 -34.7237 	 68.8611 	 155.19
| 26> C 	 -34.4187 	 70.2094 	 155.493
| 27> C 	 -34.9809 	 71.1051 	 154.651
| 28> H 	 -34.3276 	 67.9764 	 155.652
| 29> C 	 -33.4616 	 70.5052 	 156.607
| 30> H 	 -33.1437 	 69.538 	 156.961
| 31> H 	 -34.0047 	 71.0418 	 157.372
| 32> C 	 -32.2211 	 71.3017 	 156.288
| 33> H 	 -32.5771 	 72.281 	 155.943
| 34> H 	 -31.5378 	 70.8892 	 155.509
| 35> C 	 -31.3338 	 71.4547 	 157.551
| 36> H 	 -31.4928 	 70.687 	 158.343
| 37> H 	 -31.4547 	 72.4622 	 158.046
| 38> H 	 -30.268 	 71.283 	 157.364
| 39> H 	 -35.0351 	 76.0055 	 154.949
| 40> H 	 -35.9625 	 67.7473 	 153.903
| 41> *
| 42>
| 43>                          ****END OF INPUT****

CARTESIAN COORDINATES (ANGSTROEM)
---------------------------------
  S    -35.112000   73.644600  155.807000
  C    -34.751800   74.972300  154.711000
  C    -34.650900   74.575400  153.413000
  C    -34.680000   73.123500  153.257000
  C    -34.983400   72.495500  154.440000
  H    -34.636800   72.526900  152.323000
  C    -34.578900   75.564800  152.276000
  H    -34.317700   76.509900  152.724000
  H    -35.540000   75.804300  151.772000
  C    -33.559100   75.200700  151.137000
  H    -32.532400   74.864000  151.411000
  H    -33.941000   74.249800  150.638000
  C    -33.288100   76.338500  150.120000
  H    -32.474000   76.036200  149.493000
  H    -34.062600   76.546500  149.378000
  H    -33.178100   77.292700  150.645000
  S    -35.975600   70.216400  153.379000
  C    -35.585700   68.722400  154.141000
  C    -34.723700   68.861100  155.190000
  C    -34.418700   70.209400  155.493000
  C    -34.980900   71.105100  154.651000
  H    -34.327600   67.976400  155.652000
  C    -33.461600   70.505200  156.607000
  H    -33.143700   69.538000  156.961000
  H    -34.004700   71.041800  157.372000
  C    -32.221100   71.301700  156.288000
  H    -32.577100   72.281000  155.943000
  H    -31.537800   70.889200  155.509000
  C    -31.333800   71.454700  157.551000
  H    -31.492800   70.687000  158.343000
  H    -31.454700   72.462200  158.046000
  H    -30.268000   71.283000  157.364000
  H    -35.035100   76.005500  154.949000
  H    -35.962500   67.747300  153.903000

 Total Charge           Charge          ....    0
 Multiplicity           Mult            ....    1
 Number of Electrons    NEL             ....  134
 Basis Dimension        Dim             ....  322

ORBITAL ENERGIES
----------------

  NO   OCC          E(Eh)            E(eV)
   0   2.0000     -88.967992     -2420.9422
   1   2.0000     -88.963140     -2420.8101
   2   2.0000     -10.331694      -281.1397
   3   2.0000     -10.324002      -280.9304
   4   2.0000     -10.313473      -280.6439
   5   2.0000     -10.312635      -280.6211
   6   2.0000     -10.305635      -280.4306
   7   2.0000     -10.300508      -280.2911
   8   2.0000     -10.298227      -280.2290
   9   2.0000     -10.298023      -280.2235
  10   2.0000     -10.297896      -280.2200
  11   2.0000     -10.287545      -279.9383
  12   2.0000     -10.284712      -279.8613
  13   2.0000     -10.283003      -279.8147
  14   2.0000     -10.279216      -279.7117
  15   2.0000     -10.279086      -279.7081
  16   2.0000      -8.081738      -219.9153
  17   2.0000      -8.077347      -219.7958
  18   2.0000      -6.040444      -164.3688
  19   2.0000      -6.036489      -164.2612
  20   2.0000      -6.035913      -164.2455
  21   2.0000      -6.032242      -164.1456
  22   2.0000      -6.032050      -164.1404
  23   2.0000      -6.027962      -164.0292
  24   2.0000      -1.007876       -27.4257
  25   2.0000      -0.983187       -26.7539
  26   2.0000      -0.910801       -24.7841
  27   2.0000      -0.906395       -24.6643
  28   2.0000      -0.876148       -23.8412
  29   2.0000      -0.850954       -23.1556
  30   2.0000      -0.845181       -22.9985
  31   2.0000      -0.814552       -22.1651
  32   2.0000      -0.782738       -21.2994
  33   2.0000      -0.770296       -20.9608
  34   2.0000      -0.716733       -19.5033
  35   2.0000      -0.696179       -18.9440
  36   2.0000      -0.687967       -18.7205
  37   2.0000      -0.670205       -18.2372
  38   2.0000      -0.636733       -17.3264
  39   2.0000      -0.616491       -16.7756
  40   2.0000      -0.595222       -16.1968
  41   2.0000      -0.568795       -15.4777
  42   2.0000      -0.566902       -15.4262
  43   2.0000      -0.552459       -15.0332
  44   2.0000      -0.530981       -14.4487
  45   2.0000      -0.522199       -14.2098
  46   2.0000      -0.513272       -13.9668
  47   2.0000      -0.510875       -13.9016
  48   2.0000      -0.504401       -13.7255
  49   2.0000      -0.500932       -13.6311
  50   2.0000      -0.492609       -13.4046
  51   2.0000      -0.476126       -12.9561
  52   2.0000      -0.474115       -12.9013
  53   2.0000      -0.463351       -12.6084
  54   2.0000      -0.454544       -12.3688
  55   2.0000      -0.451392       -12.2830
  56   2.0000      -0.444959       -12.1080
  57   2.0000      -0.439261       -11.9529
  58   2.0000      -0.428597       -11.6627
  59   2.0000      -0.426980       -11.6187
  60   2.0000      -0.412047       -11.2124
  61   2.0000      -0.409789       -11.1509
  62   2.0000      -0.407179       -11.0799
  63   2.0000      -0.357726        -9.7342
  64   2.0000      -0.333440        -9.0734
  65   2.0000      -0.330104        -8.9826
  66   2.0000      -0.289215        -7.8699
  67   0.0000       0.025834         0.7030
  68   0.0000       0.067470         1.8359
  69   0.0000       0.098977         2.6933
  70   0.0000       0.109773         2.9871
  71   0.0000       0.129424         3.5218

MULLIKEN ATOMIC CHARGES
-----------------------
   0 S :    0.091265
   1 C :   -0.118748
   2 C :   -0.073917
   3 C :    0.002190
   4 C :   -0.147110
   5 H :    0.039240
   6 C :    0.087070
   7 H :    0.005551
   8 H :    0.048955
   9 C :   -0.140131
  10 H :    0.038878
  11 H :    0.037276
  12 C :   -0.035961
  13 H :    0.032555
  14 H :    0.023527
  15 H :    0.035295
  16 S :    0.080617
  17 C :   -0.057513
  18 C :   -0.055811
  19 C :   -0.013837
  20 C :   -0.153179
  21 H :    0.012125
  22 C :    0.091955
  23 H :    0.002623
  24 H :    0.035214
  25 C :   -0.071547
  26 H :    0.040779
  27 H :    0.037138
  28 C :   -0.083493
  29 H :    0.025308
  30 H :    0.047779
  31 H :    0.031028
  32 H :    0.061104
  33 H :    0.043780
Sum of atomic charges:   -0.0000000

LOEWDIN ATOMIC CHARGES
----------------------
   0 S :    0.381348
   1 C :   -0.200182
   2 C :   -0.056123
   3 C :   -0.065404
   4 C :   -0.177601
   5 H :    0.036390
   6 C :   -0.032857
   7 H :    0.024503
   8 H :    0.039787
   9 C :   -0.050090
  10 H :    0.028637
  11 H :    0.027068
  12 C :   -0.069469
  13 H :    0.026955
  14 H :    0.022841
  15 H :    0.027591
  16 S :    0.378126
  17 C :   -0.181007
  18 C :   -0.073917
  19 C :   -0.054801
  20 C :   -0.164278
  21 H :    0.030633
  22 C :   -0.028462
  23 H :    0.025048
  24 H :    0.033424
  25 C :   -0.043441
  26 H :    0.020720
  27 H :    0.029211
  28 C :   -0.079078
  29 H :    0.025110
  30 H :    0.033045
  31 H :    0.025676
  32 H :    0.032885
  33 H :    0.027713

  Mayer bond orders larger than 0.100000
B(  0-S ,  1-C ) :   1.1063 B(  0-S ,  4-C ) :   1.1195 B(  1-C ,  2-C ) :   1.6795
B(  1-C , 32-H ) :   0.9530 B(  2-C ,  3-C ) :   1.1884 B(  2-C ,  6-C ) :   1.0314
B(  3-C ,  4-C ) :   1.6075 B(  3-C ,  5-H ) :   0.9796 B(  4-C , 20-C ) :   1.0620
B(  6-C ,  7-H ) :   0.9393 B(  6-C ,  8-H ) :   0.9357 B(  6-C ,  9-C ) :   1.0437
B(  9-C , 10-H ) :   0.9666 B(  9-C , 11-H ) :   0.9509 B(  9-C , 12-C ) :   1.0788
B( 12-C , 13-H ) :   0.9750 B( 12-C , 14-H ) :   0.9740 B( 12-C , 15-H ) :   0.9753
B( 16-S , 17-C ) :   1.1507 B( 16-S , 20-C ) :   1.0945 B( 17-C , 18-C ) :   1.6433
B( 17-C , 33-H ) :   0.9614 B( 18-C , 19-C ) :   1.2162 B( 18-C , 21-H ) :   0.9909
B( 19-C , 20-C ) :   1.6213 B( 19-C , 22-C ) :   1.0405 B( 22-C , 23-H ) :   0.9258
B( 22-C , 24-H ) :   0.9261 B( 22-C , 25-C ) :   1.0761 B( 25-C , 26-H ) :   0.9528
B( 25-C , 27-H ) :   0.9620 B( 25-C , 28-C ) :   1.0637 B( 28-C , 29-H ) :   0.9747
B( 28-C , 30-H ) :   0.9765 B( 28-C , 31-H ) :   0.9798

Dispersion correction           -0.014126498
FINAL SINGLE POINT ENERGY     -1339.874365255617

DIPOLE MOMENT
-------------
                                X             Y             Z
Electronic contribution:    -17.50438     -10.52754       4.66237
Nuclear contribution   :     17.74646      10.55598      -4.86243
                        -----------------------------------------
Total Dipole Moment    :      0.24208       0.02844      -0.20007
                        -----------------------------------------
Magnitude (a.u.)       :      0.31534
Magnitude (Debye)      :      0.80152

Rotational constants in cm-1:     0.018154     0.008376     0.006913
Rotational constants in MHz :   544.236536   251.110155   207.247345

                             ****ORCA TERMINATED NORMALLY****
TOTAL RUN TIME: 0 days 0 hours 0 minutes 33 seconds 808 msec
