                         Program Version 4.2.1 -  RELEASE  -
|  1> ! wB97X-D3 SP def2-SVP
|  2> %pal
|  3> nprocs 16
|  4> end
|  5>
|  6> * xyz 0 1
|  7> S 	 26.4106 	 -8.37507 	 77.3742
|  8> C 	 27.8783 	 -8.09951 	 76.5083
|  9> C 	 28.5319 	 -9.26749 	 76.1315
| 10> C 	 27.7853 	 -10.3861 	 76.6142
| 11> C 	 26.6762 	 -10.028 	 77.4614
| 12> H 	 28.0058 	 -11.4314 	 76.4947
| 13> C 	 29.7673 	 -9.31994 	 75.208
| 14> H 	 29.5926 	 -8.84954 	 74.2188
| 15> H 	 29.7971 	 -10.4614 	 75.0269
| 16> C 	 30.9709 	 -8.768 	 75.8681
| 17> H 	 30.7579 	 -7.80901 	 76.3057
| 18> H 	 31.2543 	 -9.43155 	 76.685
| 19> C 	 32.229 	 -8.61197 	 75.0958
| 20> H 	 33.0859 	 -8.40351 	 75.7407
| 21> H 	 32.4339 	 -9.52511 	 74.5536
| 22> H 	 32.1507 	 -7.86351 	 74.3161
| 23> S 	 24.8483 	 -12.0475 	 77.3252
| 24> C 	 24.2981 	 -12.9262 	 78.7759
| 25> C 	 24.6391 	 -12.1938 	 79.8921
| 26> C 	 25.612 	 -11.135 	 79.6318
| 27> C 	 25.8121 	 -10.918 	 78.2434
| 28> H 	 24.3161 	 -12.601 	 80.8687
| 29> C 	 26.0609 	 -10.2727 	 80.8168
| 30> H 	 25.6244 	 -10.5768 	 81.7438
| 31> H 	 25.6341 	 -9.30789 	 80.6548
| 32> C 	 27.5978 	 -10.1155 	 81.0543
| 33> H 	 27.7364 	 -9.23324 	 81.6359
| 34> H 	 27.9976 	 -9.93852 	 80.0596
| 35> C 	 28.1917 	 -11.2938 	 81.7927
| 36> H 	 27.6104 	 -11.609 	 82.6538
| 37> H 	 29.17 	 -10.9025 	 82.1881
| 38> H 	 28.2909 	 -12.113 	 81.2035
| 39> H 	 28.1475 	 -7.08137 	 76.1835
| 40> H 	 23.5495 	 -13.7354 	 78.7284
| 41> *
| 42>
| 43>                          ****END OF INPUT****

CARTESIAN COORDINATES (ANGSTROEM)
---------------------------------
  S     26.410600   -8.375070   77.374200
  C     27.878300   -8.099510   76.508300
  C     28.531900   -9.267490   76.131500
  C     27.785300  -10.386100   76.614200
  C     26.676200  -10.028000   77.461400
  H     28.005800  -11.431400   76.494700
  C     29.767300   -9.319940   75.208000
  H     29.592600   -8.849540   74.218800
  H     29.797100  -10.461400   75.026900
  C     30.970900   -8.768000   75.868100
  H     30.757900   -7.809010   76.305700
  H     31.254300   -9.431550   76.685000
  C     32.229000   -8.611970   75.095800
  H     33.085900   -8.403510   75.740700
  H     32.433900   -9.525110   74.553600
  H     32.150700   -7.863510   74.316100
  S     24.848300  -12.047500   77.325200
  C     24.298100  -12.926200   78.775900
  C     24.639100  -12.193800   79.892100
  C     25.612000  -11.135000   79.631800
  C     25.812100  -10.918000   78.243400
  H     24.316100  -12.601000   80.868700
  C     26.060900  -10.272700   80.816800
  H     25.624400  -10.576800   81.743800
  H     25.634100   -9.307890   80.654800
  C     27.597800  -10.115500   81.054300
  H     27.736400   -9.233240   81.635900
  H     27.997600   -9.938520   80.059600
  C     28.191700  -11.293800   81.792700
  H     27.610400  -11.609000   82.653800
  H     29.170000  -10.902500   82.188100
  H     28.290900  -12.113000   81.203500
  H     28.147500   -7.081370   76.183500
  H     23.549500  -13.735400   78.728400

 Total Charge           Charge          ....    0
 Multiplicity           Mult            ....    1
 Number of Electrons    NEL             ....  134
 Basis Dimension        Dim             ....  322

ORBITAL ENERGIES
----------------

  NO   OCC          E(Eh)            E(eV)
   0   2.0000     -88.970422     -2421.0083
   1   2.0000     -88.961985     -2420.7787
   2   2.0000     -10.331603      -281.1372
   3   2.0000     -10.329292      -281.0743
   4   2.0000     -10.320475      -280.8344
   5   2.0000     -10.314334      -280.6673
   6   2.0000     -10.311583      -280.5924
   7   2.0000     -10.306149      -280.4446
   8   2.0000     -10.302516      -280.3457
   9   2.0000     -10.299684      -280.2686
  10   2.0000     -10.298739      -280.2429
  11   2.0000     -10.283412      -279.8259
  12   2.0000     -10.278005      -279.6787
  13   2.0000     -10.276525      -279.6384
  14   2.0000     -10.273046      -279.5438
  15   2.0000     -10.266544      -279.3669
  16   2.0000      -8.086461      -220.0438
  17   2.0000      -8.076372      -219.7693
  18   2.0000      -6.044564      -164.4810
  19   2.0000      -6.040618      -164.3736
  20   2.0000      -6.037744      -164.2954
  21   2.0000      -6.034971      -164.2199
  22   2.0000      -6.030773      -164.1057
  23   2.0000      -6.027205      -164.0086
  24   2.0000      -1.008668       -27.4472
  25   2.0000      -0.981102       -26.6971
  26   2.0000      -0.921609       -25.0783
  27   2.0000      -0.903584       -24.5878
  28   2.0000      -0.871132       -23.7047
  29   2.0000      -0.853294       -23.2193
  30   2.0000      -0.842220       -22.9180
  31   2.0000      -0.809891       -22.0383
  32   2.0000      -0.786804       -21.4100
  33   2.0000      -0.771266       -20.9872
  34   2.0000      -0.705831       -19.2066
  35   2.0000      -0.697965       -18.9926
  36   2.0000      -0.684988       -18.6395
  37   2.0000      -0.657679       -17.8964
  38   2.0000      -0.644649       -17.5418
  39   2.0000      -0.613996       -16.7077
  40   2.0000      -0.589188       -16.0326
  41   2.0000      -0.573222       -15.5982
  42   2.0000      -0.564785       -15.3686
  43   2.0000      -0.553461       -15.0605
  44   2.0000      -0.543021       -14.7764
  45   2.0000      -0.531323       -14.4580
  46   2.0000      -0.518273       -14.1029
  47   2.0000      -0.509945       -13.8763
  48   2.0000      -0.505885       -13.7658
  49   2.0000      -0.501519       -13.6470
  50   2.0000      -0.486984       -13.2515
  51   2.0000      -0.482453       -13.1282
  52   2.0000      -0.473017       -12.8715
  53   2.0000      -0.464283       -12.6338
  54   2.0000      -0.460808       -12.5392
  55   2.0000      -0.447565       -12.1789
  56   2.0000      -0.440078       -11.9751
  57   2.0000      -0.437548       -11.9063
  58   2.0000      -0.426640       -11.6095
  59   2.0000      -0.425516       -11.5789
  60   2.0000      -0.415861       -11.3161
  61   2.0000      -0.413185       -11.2433
  62   2.0000      -0.410105       -11.1595
  63   2.0000      -0.337769        -9.1912
  64   2.0000      -0.333553        -9.0764
  65   2.0000      -0.324003        -8.8166
  66   2.0000      -0.297970        -8.1082
  67   0.0000       0.031288         0.8514
  68   0.0000       0.063182         1.7193
  69   0.0000       0.109671         2.9843
  70   0.0000       0.115310         3.1378
  71   0.0000       0.131611         3.5813

MULLIKEN ATOMIC CHARGES
-----------------------
   0 S :    0.148447
   1 C :   -0.143170
   2 C :   -0.085211
   3 C :    0.045873
   4 C :   -0.202627
   5 H :    0.007969
   6 C :    0.058950
   7 H :    0.042418
   8 H :    0.032529
   9 C :   -0.075829
  10 H :    0.021929
  11 H :    0.026043
  12 C :   -0.014585
  13 H :    0.039049
  14 H :    0.014705
  15 H :    0.019165
  16 S :    0.096427
  17 C :   -0.114383
  18 C :   -0.041565
  19 C :   -0.025650
  20 C :   -0.160748
  21 H :    0.036585
  22 C :    0.060027
  23 H :   -0.000990
  24 H :    0.027141
  25 C :   -0.059737
  26 H :    0.016844
  27 H :    0.040037
  28 C :   -0.009814
  29 H :    0.017100
  30 H :    0.035585
  31 H :    0.018819
  32 H :    0.056473
  33 H :    0.072192
Sum of atomic charges:   -0.0000000

LOEWDIN ATOMIC CHARGES
----------------------
   0 S :    0.465994
   1 C :   -0.210036
   2 C :   -0.064161
   3 C :   -0.058915
   4 C :   -0.237954
   5 H :    0.026678
   6 C :   -0.031139
   7 H :    0.033371
   8 H :    0.039793
   9 C :   -0.051324
  10 H :    0.021872
  11 H :    0.030528
  12 C :   -0.061595
  13 H :    0.031076
  14 H :    0.022134
  15 H :    0.019403
  16 S :    0.396671
  17 C :   -0.183292
  18 C :   -0.075329
  19 C :   -0.052007
  20 C :   -0.209282
  21 H :    0.036871
  22 C :   -0.029908
  23 H :    0.021018
  24 H :    0.028758
  25 C :   -0.032887
  26 H :    0.019719
  27 H :    0.026979
  28 C :   -0.055515
  29 H :    0.022984
  30 H :    0.034509
  31 H :    0.011623
  32 H :    0.028314
  33 H :    0.035047

  Mayer bond orders larger than 0.100000
B(  0-S ,  1-C ) :   1.1820 B(  0-S ,  4-C ) :   1.2088 B(  1-C ,  2-C ) :   1.5498
B(  1-C ,  4-C ) :   0.1064 B(  1-C , 32-H ) :   0.9657 B(  2-C ,  3-C ) :   1.3111
B(  2-C ,  6-C ) :   0.9993 B(  3-C ,  4-C ) :   1.5032 B(  3-C ,  5-H ) :   0.9949
B(  4-C , 20-C ) :   1.0113 B(  6-C ,  7-H ) :   0.9447 B(  6-C ,  8-H ) :   0.9381
B(  6-C ,  9-C ) :   1.0689 B(  9-C , 10-H ) :   0.9569 B(  9-C , 11-H ) :   0.9464
B(  9-C , 12-C ) :   1.1002 B( 12-C , 13-H ) :   0.9726 B( 12-C , 14-H ) :   0.9678
B( 12-C , 15-H ) :   0.9711 B( 16-S , 17-C ) :   1.1477 B( 16-S , 20-C ) :   1.1533
B( 17-C , 18-C ) :   1.6209 B( 17-C , 20-C ) :   0.1007 B( 17-C , 33-H ) :   0.9632
B( 18-C , 19-C ) :   1.2336 B( 18-C , 21-H ) :   0.9789 B( 19-C , 20-C ) :   1.5801
B( 19-C , 22-C ) :   1.0346 B( 22-C , 23-H ) :   0.9398 B( 22-C , 24-H ) :   0.9375
B( 22-C , 25-C ) :   1.0710 B( 25-C , 26-H ) :   0.9555 B( 25-C , 27-H ) :   0.9582
B( 25-C , 28-C ) :   1.0749 B( 28-C , 29-H ) :   0.9727 B( 28-C , 30-H ) :   0.9748
B( 28-C , 31-H ) :   0.9785

Dispersion correction           -0.014160695
FINAL SINGLE POINT ENERGY     -1339.869760448370

DIPOLE MOMENT
-------------
                                X             Y             Z
Electronic contribution:    -24.54864      -2.76950      -6.36561
Nuclear contribution   :     24.86446       2.85497       6.53646
                        -----------------------------------------
Total Dipole Moment    :      0.31582       0.08547       0.17086
                        -----------------------------------------
Magnitude (a.u.)       :      0.36911
Magnitude (Debye)      :      0.93819

Rotational constants in cm-1:     0.020386     0.007669     0.006682
Rotational constants in MHz :   611.158113   229.920997   200.332878

                             ****ORCA TERMINATED NORMALLY****
TOTAL RUN TIME: 0 days 0 hours 0 minutes 29 seconds 268 msec
