                         Program Version 4.2.1 -  RELEASE  -
|  1> ! wB97X-D3 SP def2-SVP
|  2> %pal
|  3> nprocs 16
|  4> end
|  5>
|  6> * xyz 0 1
|  7> S 	 -36.0419 	 76.0267 	 153.318
|  8> C 	 -34.4451 	 76.5899 	 153.262
|  9> C 	 -33.5667 	 75.6575 	 152.733
| 10> C 	 -34.2095 	 74.4169 	 152.374
| 11> C 	 -35.5937 	 74.5333 	 152.503
| 12> H 	 -33.7345 	 73.5116 	 151.956
| 13> C 	 -32.1014 	 75.8838 	 152.404
| 14> H 	 -31.8105 	 76.8576 	 152.733
| 15> H 	 -32.0456 	 75.9619 	 151.323
| 16> C 	 -31.1054 	 74.8514 	 152.969
| 17> H 	 -31.2128 	 74.789 	 154.053
| 18> H 	 -31.4136 	 73.8884 	 152.476
| 19> C 	 -29.639 	 75.2646 	 152.623
| 20> H 	 -29.2636 	 76.0016 	 153.31
| 21> H 	 -28.957 	 74.4845 	 152.794
| 22> H 	 -29.5368 	 75.5712 	 151.626
| 23> S 	 -37.6178 	 74.4834 	 150.724
| 24> C 	 -38.4934 	 73.0239 	 150.507
| 25> C 	 -37.8048 	 71.9155 	 150.946
| 26> C 	 -36.7148 	 72.3051 	 151.81
| 27> C 	 -36.5658 	 73.6895 	 151.861
| 28> H 	 -38.2923 	 70.8956 	 150.789
| 29> C 	 -35.954 	 71.2299 	 152.617
| 30> H 	 -34.9668 	 71.6955 	 152.848
| 31> H 	 -35.6669 	 70.3975 	 151.933
| 32> C 	 -36.6562 	 70.6947 	 153.86
| 33> H 	 -36.0516 	 69.8692 	 154.253
| 34> H 	 -37.6323 	 70.2996 	 153.642
| 35> C 	 -36.8039 	 71.642 	 155.053
| 36> H 	 -36.9426 	 71.1436 	 156.083
| 37> H 	 -37.7283 	 72.2491 	 154.994
| 38> H 	 -35.9307 	 72.2043 	 155.052
| 39> H 	 -34.2328 	 77.5904 	 153.635
| 40> H 	 -39.4478 	 72.879 	 150.024
| 41> *
| 42>
| 43>                          ****END OF INPUT****

CARTESIAN COORDINATES (ANGSTROEM)
---------------------------------
  S    -36.041900   76.026700  153.318000
  C    -34.445100   76.589900  153.262000
  C    -33.566700   75.657500  152.733000
  C    -34.209500   74.416900  152.374000
  C    -35.593700   74.533300  152.503000
  H    -33.734500   73.511600  151.956000
  C    -32.101400   75.883800  152.404000
  H    -31.810500   76.857600  152.733000
  H    -32.045600   75.961900  151.323000
  C    -31.105400   74.851400  152.969000
  H    -31.212800   74.789000  154.053000
  H    -31.413600   73.888400  152.476000
  C    -29.639000   75.264600  152.623000
  H    -29.263600   76.001600  153.310000
  H    -28.957000   74.484500  152.794000
  H    -29.536800   75.571200  151.626000
  S    -37.617800   74.483400  150.724000
  C    -38.493400   73.023900  150.507000
  C    -37.804800   71.915500  150.946000
  C    -36.714800   72.305100  151.810000
  C    -36.565800   73.689500  151.861000
  H    -38.292300   70.895600  150.789000
  C    -35.954000   71.229900  152.617000
  H    -34.966800   71.695500  152.848000
  H    -35.666900   70.397500  151.933000
  C    -36.656200   70.694700  153.860000
  H    -36.051600   69.869200  154.253000
  H    -37.632300   70.299600  153.642000
  C    -36.803900   71.642000  155.053000
  H    -36.942600   71.143600  156.083000
  H    -37.728300   72.249100  154.994000
  H    -35.930700   72.204300  155.052000
  H    -34.232800   77.590400  153.635000
  H    -39.447800   72.879000  150.024000

 Total Charge           Charge          ....    0
 Multiplicity           Mult            ....    1
 Number of Electrons    NEL             ....  134
 Basis Dimension        Dim             ....  322

ORBITAL ENERGIES
----------------

  NO   OCC          E(Eh)            E(eV)
   0   2.0000     -88.965339     -2420.8699
   1   2.0000     -88.963327     -2420.8152
   2   2.0000     -10.326982      -281.0115
   3   2.0000     -10.321813      -280.8708
   4   2.0000     -10.311256      -280.5835
   5   2.0000     -10.309331      -280.5312
   6   2.0000     -10.304180      -280.3910
   7   2.0000     -10.302101      -280.3344
   8   2.0000     -10.299307      -280.2584
   9   2.0000     -10.297915      -280.2205
  10   2.0000     -10.295376      -280.1514
  11   2.0000     -10.293795      -280.1084
  12   2.0000     -10.286906      -279.9209
  13   2.0000     -10.281899      -279.7847
  14   2.0000     -10.271988      -279.5150
  15   2.0000     -10.271529      -279.5025
  16   2.0000      -8.081074      -219.8972
  17   2.0000      -8.078937      -219.8391
  18   2.0000      -6.039419      -164.3409
  19   2.0000      -6.037412      -164.2863
  20   2.0000      -6.035408      -164.2318
  21   2.0000      -6.033420      -164.1777
  22   2.0000      -6.031981      -164.1385
  23   2.0000      -6.029568      -164.0729
  24   2.0000      -1.009916       -27.4812
  25   2.0000      -0.986504       -26.8441
  26   2.0000      -0.909065       -24.7369
  27   2.0000      -0.904783       -24.6204
  28   2.0000      -0.870963       -23.7001
  29   2.0000      -0.851732       -23.1768
  30   2.0000      -0.844049       -22.9677
  31   2.0000      -0.811588       -22.0844
  32   2.0000      -0.781913       -21.2769
  33   2.0000      -0.770330       -20.9617
  34   2.0000      -0.709840       -19.3157
  35   2.0000      -0.695063       -18.9136
  36   2.0000      -0.688435       -18.7333
  37   2.0000      -0.655258       -17.8305
  38   2.0000      -0.640688       -17.4340
  39   2.0000      -0.620221       -16.8771
  40   2.0000      -0.592080       -16.1113
  41   2.0000      -0.571307       -15.5461
  42   2.0000      -0.556671       -15.1478
  43   2.0000      -0.547693       -14.9035
  44   2.0000      -0.537694       -14.6314
  45   2.0000      -0.524927       -14.2840
  46   2.0000      -0.518580       -14.1113
  47   2.0000      -0.509490       -13.8639
  48   2.0000      -0.500169       -13.6103
  49   2.0000      -0.496893       -13.5211
  50   2.0000      -0.492221       -13.3940
  51   2.0000      -0.476250       -12.9594
  52   2.0000      -0.470378       -12.7996
  53   2.0000      -0.467039       -12.7088
  54   2.0000      -0.455794       -12.4028
  55   2.0000      -0.450172       -12.2498
  56   2.0000      -0.446961       -12.1624
  57   2.0000      -0.441432       -12.0120
  58   2.0000      -0.435151       -11.8411
  59   2.0000      -0.425637       -11.5822
  60   2.0000      -0.416039       -11.3210
  61   2.0000      -0.415201       -11.2982
  62   2.0000      -0.404768       -11.0143
  63   2.0000      -0.346723        -9.4348
  64   2.0000      -0.330314        -8.9883
  65   2.0000      -0.324118        -8.8197
  66   2.0000      -0.288879        -7.8608
  67   0.0000       0.028773         0.7829
  68   0.0000       0.076196         2.0734
  69   0.0000       0.108201         2.9443
  70   0.0000       0.118319         3.2196
  71   0.0000       0.131890         3.5889

MULLIKEN ATOMIC CHARGES
-----------------------
   0 S :    0.125495
   1 C :   -0.131677
   2 C :   -0.082531
   3 C :    0.029468
   4 C :   -0.187892
   5 H :    0.039161
   6 C :    0.075970
   7 H :   -0.003978
   8 H :    0.036199
   9 C :   -0.109227
  10 H :    0.039607
  11 H :    0.036800
  12 C :    0.002771
  13 H :    0.026483
  14 H :    0.016379
  15 H :    0.021060
  16 S :    0.124361
  17 C :   -0.093783
  18 C :   -0.065270
  19 C :   -0.046237
  20 C :   -0.151695
  21 H :    0.047069
  22 C :    0.057743
  23 H :    0.011754
  24 H :    0.035937
  25 C :   -0.045380
  26 H :    0.029538
  27 H :    0.020234
  28 C :   -0.061148
  29 H :    0.038268
  30 H :    0.040837
  31 H :    0.021312
  32 H :    0.052857
  33 H :    0.049514
Sum of atomic charges:   -0.0000000

LOEWDIN ATOMIC CHARGES
----------------------
   0 S :    0.427094
   1 C :   -0.216297
   2 C :   -0.064222
   3 C :   -0.056513
   4 C :   -0.199166
   5 H :    0.036748
   6 C :   -0.032959
   7 H :    0.020156
   8 H :    0.032548
   9 C :   -0.035130
  10 H :    0.026999
  11 H :    0.024830
  12 C :   -0.057020
  13 H :    0.027089
  14 H :    0.021450
  15 H :    0.018849
  16 S :    0.421859
  17 C :   -0.197324
  18 C :   -0.081546
  19 C :   -0.059406
  20 C :   -0.206635
  21 H :    0.044494
  22 C :   -0.035606
  23 H :    0.028092
  24 H :    0.038398
  25 C :   -0.041633
  26 H :    0.027945
  27 H :    0.019499
  28 C :   -0.066756
  29 H :    0.034961
  30 H :    0.028331
  31 H :    0.014113
  32 H :    0.028705
  33 H :    0.028054

  Mayer bond orders larger than 0.100000
B(  0-S ,  1-C ) :   1.1476 B(  0-S ,  4-C ) :   1.1652 B(  1-C ,  2-C ) :   1.5967
B(  1-C , 32-H ) :   0.9695 B(  2-C ,  3-C ) :   1.2437 B(  2-C ,  6-C ) :   1.0249
B(  3-C ,  4-C ) :   1.5580 B(  3-C ,  5-H ) :   0.9802 B(  4-C , 20-C ) :   1.0525
B(  6-C ,  7-H ) :   0.9408 B(  6-C ,  8-H ) :   0.9368 B(  6-C ,  9-C ) :   1.0542
B(  9-C , 10-H ) :   0.9604 B(  9-C , 11-H ) :   0.9559 B(  9-C , 12-C ) :   1.0838
B( 12-C , 13-H ) :   0.9732 B( 12-C , 14-H ) :   0.9717 B( 12-C , 15-H ) :   0.9752
B( 16-S , 17-C ) :   1.1525 B( 16-S , 20-C ) :   1.1448 B( 17-C , 18-C ) :   1.6367
B( 17-C , 33-H ) :   0.9657 B( 18-C , 19-C ) :   1.2225 B( 18-C , 21-H ) :   0.9771
B( 19-C , 20-C ) :   1.6023 B( 19-C , 22-C ) :   1.0362 B( 22-C , 23-H ) :   0.9303
B( 22-C , 24-H ) :   0.9357 B( 22-C , 25-C ) :   1.0814 B( 25-C , 26-H ) :   0.9524
B( 25-C , 27-H ) :   0.9573 B( 25-C , 28-C ) :   1.0695 B( 28-C , 29-H ) :   0.9754
B( 28-C , 30-H ) :   0.9767 B( 28-C , 31-H ) :   0.9770

Dispersion correction           -0.014324445
FINAL SINGLE POINT ENERGY     -1339.874120220341

DIPOLE MOMENT
-------------
                                X             Y             Z
Electronic contribution:    -20.43626      11.91436      -9.08579
Nuclear contribution   :     20.88426     -12.20146       9.09005
                        -----------------------------------------
Total Dipole Moment    :      0.44800      -0.28710       0.00426
                        -----------------------------------------
Magnitude (a.u.)       :      0.53211
Magnitude (Debye)      :      1.35252

Rotational constants in cm-1:     0.019213     0.008133     0.007080
Rotational constants in MHz :   575.995920   243.813979   212.240910

                             ****ORCA TERMINATED NORMALLY****
TOTAL RUN TIME: 0 days 0 hours 0 minutes 34 seconds 823 msec
