                         Program Version 4.2.1 -  RELEASE  -
|  1> ! wB97X-D3 SP def2-SVP
|  2> %pal
|  3> nprocs 16
|  4> end
|  5>
|  6> * xyz 0 1
|  7> S 	 18.5054 	 12.9419 	 90.1865
|  8> C 	 19.5881 	 11.9159 	 89.2486
|  9> C 	 19.1141 	 11.5908 	 88.0328
| 10> C 	 17.8291 	 12.1826 	 87.8295
| 11> C 	 17.3105 	 12.8535 	 88.9361
| 12> H 	 17.189 	 11.9593 	 86.9769
| 13> C 	 19.9472 	 10.9318 	 86.9574
| 14> H 	 19.1204 	 10.4812 	 86.3414
| 15> H 	 20.5122 	 10.1273 	 87.3454
| 16> C 	 20.7257 	 11.9867 	 86.1249
| 17> H 	 21.2858 	 12.6757 	 86.7767
| 18> H 	 21.4523 	 11.4985 	 85.5098
| 19> C 	 19.8812 	 12.8598 	 85.1896
| 20> H 	 19.105 	 13.5079 	 85.6957
| 21> H 	 20.5544 	 13.4827 	 84.6319
| 22> H 	 19.4571 	 12.2059 	 84.4546
| 23> S 	 15.3607 	 14.8316 	 88.6194
| 24> C 	 13.6548 	 14.3887 	 88.9231
| 25> C 	 13.6056 	 13.0837 	 89.4364
| 26> C 	 14.8053 	 12.3953 	 89.422
| 27> C 	 15.875 	 13.1825 	 89.0239
| 28> H 	 12.687 	 12.7303 	 89.8033
| 29> C 	 14.8414 	 10.9711 	 89.8031
| 30> H 	 15.7682 	 10.6711 	 89.3483
| 31> H 	 13.9213 	 10.5516 	 89.4626
| 32> C 	 14.9689 	 10.7321 	 91.3101
| 33> H 	 15.9174 	 11.2052 	 91.6255
| 34> H 	 15.2085 	 9.64541 	 91.3908
| 35> C 	 13.736 	 11.1276 	 92.1432
| 36> H 	 13.4215 	 12.1203 	 92.0316
| 37> H 	 13.7782 	 11.1015 	 93.1994
| 38> H 	 12.8669 	 10.5331 	 91.9973
| 39> H 	 20.5671 	 11.5976 	 89.6702
| 40> H 	 12.8848 	 15.159 	 88.7659
| 41> *
| 42>
| 43>                          ****END OF INPUT****

CARTESIAN COORDINATES (ANGSTROEM)
---------------------------------
  S     18.505400   12.941900   90.186500
  C     19.588100   11.915900   89.248600
  C     19.114100   11.590800   88.032800
  C     17.829100   12.182600   87.829500
  C     17.310500   12.853500   88.936100
  H     17.189000   11.959300   86.976900
  C     19.947200   10.931800   86.957400
  H     19.120400   10.481200   86.341400
  H     20.512200   10.127300   87.345400
  C     20.725700   11.986700   86.124900
  H     21.285800   12.675700   86.776700
  H     21.452300   11.498500   85.509800
  C     19.881200   12.859800   85.189600
  H     19.105000   13.507900   85.695700
  H     20.554400   13.482700   84.631900
  H     19.457100   12.205900   84.454600
  S     15.360700   14.831600   88.619400
  C     13.654800   14.388700   88.923100
  C     13.605600   13.083700   89.436400
  C     14.805300   12.395300   89.422000
  C     15.875000   13.182500   89.023900
  H     12.687000   12.730300   89.803300
  C     14.841400   10.971100   89.803100
  H     15.768200   10.671100   89.348300
  H     13.921300   10.551600   89.462600
  C     14.968900   10.732100   91.310100
  H     15.917400   11.205200   91.625500
  H     15.208500    9.645410   91.390800
  C     13.736000   11.127600   92.143200
  H     13.421500   12.120300   92.031600
  H     13.778200   11.101500   93.199400
  H     12.866900   10.533100   91.997300
  H     20.567100   11.597600   89.670200
  H     12.884800   15.159000   88.765900

 Total Charge           Charge          ....    0
 Multiplicity           Mult            ....    1
 Number of Electrons    NEL             ....  134
 Basis Dimension        Dim             ....  322

ORBITAL ENERGIES
----------------

  NO   OCC          E(Eh)            E(eV)
   0   2.0000     -88.967222     -2420.9212
   1   2.0000     -88.961243     -2420.7585
   2   2.0000     -10.327404      -281.0230
   3   2.0000     -10.324443      -280.9424
   4   2.0000     -10.322780      -280.8971
   5   2.0000     -10.313651      -280.6487
   6   2.0000     -10.296000      -280.1684
   7   2.0000     -10.295280      -280.1488
   8   2.0000     -10.294447      -280.1262
   9   2.0000     -10.292609      -280.0761
  10   2.0000     -10.288955      -279.9767
  11   2.0000     -10.287871      -279.9472
  12   2.0000     -10.287603      -279.9399
  13   2.0000     -10.280600      -279.7493
  14   2.0000     -10.276085      -279.6265
  15   2.0000     -10.266510      -279.3659
  16   2.0000      -8.081905      -219.9198
  17   2.0000      -8.075217      -219.7378
  18   2.0000      -6.040374      -164.3669
  19   2.0000      -6.036337      -164.2571
  20   2.0000      -6.033622      -164.1832
  21   2.0000      -6.032795      -164.1607
  22   2.0000      -6.029815      -164.0796
  23   2.0000      -6.026170      -163.9804
  24   2.0000      -1.005285       -27.3552
  25   2.0000      -0.984091       -26.7785
  26   2.0000      -0.912519       -24.8309
  27   2.0000      -0.910426       -24.7740
  28   2.0000      -0.865732       -23.5578
  29   2.0000      -0.847445       -23.0601
  30   2.0000      -0.846839       -23.0437
  31   2.0000      -0.811895       -22.0928
  32   2.0000      -0.789226       -21.4759
  33   2.0000      -0.775395       -21.0996
  34   2.0000      -0.709428       -19.3045
  35   2.0000      -0.701151       -19.0793
  36   2.0000      -0.690528       -18.7902
  37   2.0000      -0.666537       -18.1374
  38   2.0000      -0.640999       -17.4425
  39   2.0000      -0.612508       -16.6672
  40   2.0000      -0.589157       -16.0318
  41   2.0000      -0.574936       -15.6448
  42   2.0000      -0.563124       -15.3234
  43   2.0000      -0.550724       -14.9860
  44   2.0000      -0.540745       -14.7144
  45   2.0000      -0.534763       -14.5516
  46   2.0000      -0.514934       -14.0121
  47   2.0000      -0.510765       -13.8986
  48   2.0000      -0.500429       -13.6174
  49   2.0000      -0.491818       -13.3830
  50   2.0000      -0.487229       -13.2582
  51   2.0000      -0.485309       -13.2059
  52   2.0000      -0.470707       -12.8086
  53   2.0000      -0.462823       -12.5941
  54   2.0000      -0.457702       -12.4547
  55   2.0000      -0.444575       -12.0975
  56   2.0000      -0.441883       -12.0243
  57   2.0000      -0.437203       -11.8969
  58   2.0000      -0.431462       -11.7407
  59   2.0000      -0.430652       -11.7186
  60   2.0000      -0.425644       -11.5824
  61   2.0000      -0.414601       -11.2819
  62   2.0000      -0.410183       -11.1616
  63   2.0000      -0.335054        -9.1173
  64   2.0000      -0.329868        -8.9762
  65   2.0000      -0.318579        -8.6690
  66   2.0000      -0.307726        -8.3737
  67   0.0000       0.046445         1.2638
  68   0.0000       0.048267         1.3134
  69   0.0000       0.118800         3.2327
  70   0.0000       0.122606         3.3363
  71   0.0000       0.127017         3.4563

MULLIKEN ATOMIC CHARGES
-----------------------
   0 S :    0.121266
   1 C :   -0.148719
   2 C :   -0.087266
   3 C :    0.033141
   4 C :   -0.178754
   5 H :    0.021752
   6 C :    0.082409
   7 H :    0.025063
   8 H :    0.021827
   9 C :   -0.050684
  10 H :    0.029084
  11 H :    0.023035
  12 C :   -0.057986
  13 H :    0.062427
  14 H :    0.025667
  15 H :    0.020199
  16 S :    0.089700
  17 C :   -0.119387
  18 C :   -0.019981
  19 C :   -0.017811
  20 C :   -0.202980
  21 H :    0.000903
  22 C :    0.125670
  23 H :    0.020892
  24 H :    0.016012
  25 C :   -0.048267
  26 H :    0.022451
  27 H :    0.033722
  28 C :   -0.016020
  29 H :    0.016124
  30 H :    0.014396
  31 H :    0.012983
  32 H :    0.057456
  33 H :    0.071675
Sum of atomic charges:    0.0000000

LOEWDIN ATOMIC CHARGES
----------------------
   0 S :    0.406960
   1 C :   -0.189248
   2 C :   -0.073669
   3 C :   -0.057483
   4 C :   -0.214312
   5 H :    0.032059
   6 C :   -0.026833
   7 H :    0.035692
   8 H :    0.025030
   9 C :   -0.034256
  10 H :    0.025372
  11 H :    0.020837
  12 C :   -0.064490
  13 H :    0.035271
  14 H :    0.024939
  15 H :    0.019739
  16 S :    0.380151
  17 C :   -0.172445
  18 C :   -0.067040
  19 C :   -0.055811
  20 C :   -0.197341
  21 H :    0.022420
  22 C :   -0.023485
  23 H :    0.035222
  24 H :    0.027676
  25 C :   -0.032152
  26 H :    0.024702
  27 H :    0.028651
  28 C :   -0.071519
  29 H :    0.020880
  30 H :    0.026783
  31 H :    0.023035
  32 H :    0.032936
  33 H :    0.031727

  Mayer bond orders larger than 0.100000
B(  0-S ,  1-C ) :   1.1412 B(  0-S ,  4-C ) :   1.1510 B(  1-C ,  2-C ) :   1.6263
B(  1-C , 32-H ) :   0.9616 B(  2-C ,  3-C ) :   1.2436 B(  2-C ,  6-C ) :   1.0170
B(  3-C ,  4-C ) :   1.5780 B(  3-C ,  5-H ) :   0.9842 B(  4-C , 20-C ) :   1.0100
B(  6-C ,  7-H ) :   0.9408 B(  6-C ,  8-H ) :   0.9415 B(  6-C ,  9-C ) :   1.0558
B(  9-C , 10-H ) :   0.9573 B(  9-C , 11-H ) :   0.9565 B(  9-C , 12-C ) :   1.0861
B( 12-C , 13-H ) :   0.9702 B( 12-C , 14-H ) :   0.9706 B( 12-C , 15-H ) :   0.9745
B( 16-S , 17-C ) :   1.1656 B( 16-S , 20-C ) :   1.1477 B( 17-C , 18-C ) :   1.5613
B( 17-C , 20-C ) :   0.1138 B( 17-C , 33-H ) :   0.9695 B( 18-C , 19-C ) :   1.2613
B( 18-C , 21-H ) :   0.9960 B( 19-C , 20-C ) :   1.5856 B( 19-C , 22-C ) :   1.0362
B( 22-C , 23-H ) :   0.9128 B( 22-C , 24-H ) :   0.9303 B( 22-C , 25-C ) :   1.0922
B( 25-C , 26-H ) :   0.9497 B( 25-C , 27-H ) :   0.9579 B( 25-C , 28-C ) :   1.0647
B( 28-C , 29-H ) :   0.9694 B( 28-C , 30-H ) :   0.9675 B( 28-C , 31-H ) :   0.9720

Dispersion correction           -0.015469187
FINAL SINGLE POINT ENERGY     -1339.873084923223

DIPOLE MOMENT
-------------
                                X             Y             Z
Electronic contribution:     -1.70873      13.65287       4.74780
Nuclear contribution   :      1.73764     -14.14851      -4.90750
                        -----------------------------------------
Total Dipole Moment    :      0.02890      -0.49564      -0.15970
                        -----------------------------------------
Magnitude (a.u.)       :      0.52153
Magnitude (Debye)      :      1.32563

Rotational constants in cm-1:     0.022056     0.008326     0.007139
Rotational constants in MHz :   661.208537   249.616525   214.012476

                             ****ORCA TERMINATED NORMALLY****
TOTAL RUN TIME: 0 days 0 hours 0 minutes 35 seconds 758 msec
