                         Program Version 4.2.1 -  RELEASE  -
|  1> ! wB97X-D3 SP def2-SVP
|  2> %pal
|  3> nprocs 16
|  4> end
|  5>
|  6> * xyz 0 1
|  7> S 	 -9.76841 	 -12.061 	 88.1531
|  8> C 	 -10.6772 	 -13.454 	 88.5039
|  9> C 	 -12.0525 	 -13.2654 	 88.3674
| 10> C 	 -12.3362 	 -11.9619 	 87.8666
| 11> C 	 -11.2082 	 -11.1907 	 87.6851
| 12> H 	 -13.4036 	 -11.612 	 87.7488
| 13> C 	 -13.1559 	 -14.175 	 88.7172
| 14> H 	 -13.6778 	 -13.6974 	 89.4733
| 15> H 	 -12.7977 	 -15.0815 	 89.3298
| 16> C 	 -14.0177 	 -14.6337 	 87.5389
| 17> H 	 -14.2075 	 -13.6772 	 86.9786
| 18> H 	 -13.3391 	 -15.1663 	 86.8523
| 19> C 	 -15.1892 	 -15.5419 	 87.7034
| 20> H 	 -14.8909 	 -16.4942 	 88.0677
| 21> H 	 -15.7957 	 -14.9443 	 88.3863
| 22> H 	 -15.8256 	 -15.5881 	 86.7904
| 23> S 	 -9.78298 	 -9.33632 	 86.3331
| 24> C 	 -10.1026 	 -7.68055 	 86.4401
| 25> C 	 -11.2414 	 -7.40907 	 87.1679
| 26> C 	 -11.8062 	 -8.58671 	 87.7408
| 27> C 	 -11.1558 	 -9.78401 	 87.3443
| 28> H 	 -11.5659 	 -6.33703 	 87.1564
| 29> C 	 -12.9783 	 -8.5243 	 88.7092
| 30> H 	 -13.8317 	 -9.17824 	 88.3896
| 31> H 	 -13.4552 	 -7.51712 	 88.713
| 32> C 	 -12.6586 	 -9.02023 	 90.1664
| 33> H 	 -11.9213 	 -8.24956 	 90.519
| 34> H 	 -12.2384 	 -10.0081 	 90.2308
| 35> C 	 -13.8293 	 -9.00358 	 91.2081
| 36> H 	 -13.5353 	 -9.36379 	 92.2547
| 37> H 	 -14.6383 	 -9.59135 	 90.8234
| 38> H 	 -14.0674 	 -7.90587 	 91.3292
| 39> H 	 -10.2232 	 -14.3745 	 88.9355
| 40> H 	 -9.38748 	 -6.8231 	 86.1837
| 41> *
| 42>
| 43>                          ****END OF INPUT****

CARTESIAN COORDINATES (ANGSTROEM)
---------------------------------
  S     -9.768410  -12.061000   88.153100
  C    -10.677200  -13.454000   88.503900
  C    -12.052500  -13.265400   88.367400
  C    -12.336200  -11.961900   87.866600
  C    -11.208200  -11.190700   87.685100
  H    -13.403600  -11.612000   87.748800
  C    -13.155900  -14.175000   88.717200
  H    -13.677800  -13.697400   89.473300
  H    -12.797700  -15.081500   89.329800
  C    -14.017700  -14.633700   87.538900
  H    -14.207500  -13.677200   86.978600
  H    -13.339100  -15.166300   86.852300
  C    -15.189200  -15.541900   87.703400
  H    -14.890900  -16.494200   88.067700
  H    -15.795700  -14.944300   88.386300
  H    -15.825600  -15.588100   86.790400
  S     -9.782980   -9.336320   86.333100
  C    -10.102600   -7.680550   86.440100
  C    -11.241400   -7.409070   87.167900
  C    -11.806200   -8.586710   87.740800
  C    -11.155800   -9.784010   87.344300
  H    -11.565900   -6.337030   87.156400
  C    -12.978300   -8.524300   88.709200
  H    -13.831700   -9.178240   88.389600
  H    -13.455200   -7.517120   88.713000
  C    -12.658600   -9.020230   90.166400
  H    -11.921300   -8.249560   90.519000
  H    -12.238400  -10.008100   90.230800
  C    -13.829300   -9.003580   91.208100
  H    -13.535300   -9.363790   92.254700
  H    -14.638300   -9.591350   90.823400
  H    -14.067400   -7.905870   91.329200
  H    -10.223200  -14.374500   88.935500
  H     -9.387480   -6.823100   86.183700

 Total Charge           Charge          ....    0
 Multiplicity           Mult            ....    1
 Number of Electrons    NEL             ....  134
 Basis Dimension        Dim             ....  322

ORBITAL ENERGIES
----------------

  NO   OCC          E(Eh)            E(eV)
   0   2.0000     -88.970530     -2421.0112
   1   2.0000     -88.964228     -2420.8397
   2   2.0000     -10.330168      -281.0982
   3   2.0000     -10.329095      -281.0690
   4   2.0000     -10.316395      -280.7234
   5   2.0000     -10.315639      -280.7028
   6   2.0000     -10.311724      -280.5963
   7   2.0000     -10.299947      -280.2758
   8   2.0000     -10.299784      -280.2714
   9   2.0000     -10.298090      -280.2253
  10   2.0000     -10.296531      -280.1829
  11   2.0000     -10.290682      -280.0237
  12   2.0000     -10.287043      -279.9247
  13   2.0000     -10.286839      -279.9191
  14   2.0000     -10.286384      -279.9067
  15   2.0000     -10.280010      -279.7333
  16   2.0000      -8.086009      -220.0315
  17   2.0000      -8.079965      -219.8670
  18   2.0000      -6.044443      -164.4777
  19   2.0000      -6.040395      -164.3675
  20   2.0000      -6.038297      -164.3104
  21   2.0000      -6.036806      -164.2698
  22   2.0000      -6.034134      -164.1971
  23   2.0000      -6.031040      -164.1130
  24   2.0000      -1.012836       -27.5607
  25   2.0000      -0.990429       -26.9509
  26   2.0000      -0.919699       -25.0263
  27   2.0000      -0.899186       -24.4681
  28   2.0000      -0.872854       -23.7516
  29   2.0000      -0.858223       -23.3534
  30   2.0000      -0.846426       -23.0324
  31   2.0000      -0.815574       -22.1929
  32   2.0000      -0.783609       -21.3231
  33   2.0000      -0.767744       -20.8914
  34   2.0000      -0.706182       -19.2162
  35   2.0000      -0.695324       -18.9207
  36   2.0000      -0.683124       -18.5887
  37   2.0000      -0.658279       -17.9127
  38   2.0000      -0.635163       -17.2837
  39   2.0000      -0.628645       -17.1063
  40   2.0000      -0.591661       -16.0999
  41   2.0000      -0.570160       -15.5148
  42   2.0000      -0.565826       -15.3969
  43   2.0000      -0.559562       -15.2264
  44   2.0000      -0.527217       -14.3463
  45   2.0000      -0.522941       -14.2300
  46   2.0000      -0.512002       -13.9323
  47   2.0000      -0.509977       -13.8772
  48   2.0000      -0.505297       -13.7498
  49   2.0000      -0.501962       -13.6591
  50   2.0000      -0.496068       -13.4987
  51   2.0000      -0.485025       -13.1982
  52   2.0000      -0.477337       -12.9890
  53   2.0000      -0.466695       -12.6994
  54   2.0000      -0.460692       -12.5361
  55   2.0000      -0.456595       -12.4246
  56   2.0000      -0.442642       -12.0449
  57   2.0000      -0.435159       -11.8413
  58   2.0000      -0.427660       -11.6372
  59   2.0000      -0.418547       -11.3892
  60   2.0000      -0.414596       -11.2817
  61   2.0000      -0.410659       -11.1746
  62   2.0000      -0.403661       -10.9842
  63   2.0000      -0.349903        -9.5213
  64   2.0000      -0.333104        -9.0642
  65   2.0000      -0.331191        -9.0122
  66   2.0000      -0.287604        -7.8261
  67   0.0000       0.024646         0.6706
  68   0.0000       0.074007         2.0138
  69   0.0000       0.110069         2.9951
  70   0.0000       0.115146         3.1333
  71   0.0000       0.135929         3.6988

MULLIKEN ATOMIC CHARGES
-----------------------
   0 S :    0.135700
   1 C :   -0.132843
   2 C :   -0.095116
   3 C :   -0.014249
   4 C :   -0.124142
   5 H :    0.039757
   6 C :    0.089927
   7 H :    0.008852
   8 H :    0.012509
   9 C :   -0.127021
  10 H :    0.025145
  11 H :    0.023371
  12 C :    0.008617
  13 H :    0.037863
  14 H :    0.018141
  15 H :    0.044192
  16 S :    0.102858
  17 C :   -0.119111
  18 C :   -0.074611
  19 C :    0.004029
  20 C :   -0.158362
  21 H :    0.041107
  22 C :    0.034635
  23 H :    0.025221
  24 H :    0.023162
  25 C :   -0.104961
  26 H :    0.035009
  27 H :    0.048549
  28 C :   -0.074651
  29 H :    0.050745
  30 H :    0.032514
  31 H :    0.035949
  32 H :    0.060632
  33 H :    0.086583
Sum of atomic charges:    0.0000000

LOEWDIN ATOMIC CHARGES
----------------------
   0 S :    0.436199
   1 C :   -0.217350
   2 C :   -0.065073
   3 C :   -0.064227
   4 C :   -0.204876
   5 H :    0.041449
   6 C :   -0.038310
   7 H :    0.020438
   8 H :    0.033725
   9 C :   -0.052443
  10 H :    0.026138
  11 H :    0.024162
  12 C :   -0.060816
  13 H :    0.023323
  14 H :    0.025782
  15 H :    0.038025
  16 S :    0.428759
  17 C :   -0.222358
  18 C :   -0.088029
  19 C :   -0.053847
  20 C :   -0.195303
  21 H :    0.043981
  22 C :   -0.039996
  23 H :    0.027742
  24 H :    0.032356
  25 C :   -0.044319
  26 H :    0.027274
  27 H :    0.021824
  28 C :   -0.072500
  29 H :    0.036045
  30 H :    0.016825
  31 H :    0.028929
  32 H :    0.036125
  33 H :    0.050345

  Mayer bond orders larger than 0.100000
B(  0-S ,  1-C ) :   1.1534 B(  0-S ,  4-C ) :   1.1593 B(  1-C ,  2-C ) :   1.5885
B(  1-C , 32-H ) :   0.9607 B(  2-C ,  3-C ) :   1.2611 B(  2-C ,  6-C ) :   1.0356
B(  3-C ,  4-C ) :   1.5504 B(  3-C ,  5-H ) :   0.9843 B(  4-C , 20-C ) :   1.0651
B(  6-C ,  7-H ) :   0.9267 B(  6-C ,  8-H ) :   0.9319 B(  6-C ,  9-C ) :   1.0487
B(  9-C , 10-H ) :   0.9556 B(  9-C , 11-H ) :   0.9518 B(  9-C , 12-C ) :   1.0817
B( 12-C , 13-H ) :   0.9727 B( 12-C , 14-H ) :   0.9730 B( 12-C , 15-H ) :   0.9688
B( 16-S , 17-C ) :   1.1858 B( 16-S , 20-C ) :   1.1480 B( 17-C , 18-C ) :   1.5935
B( 17-C , 20-C ) :   0.1007 B( 17-C , 33-H ) :   0.9502 B( 18-C , 19-C ) :   1.2650
B( 18-C , 21-H ) :   0.9854 B( 19-C , 20-C ) :   1.5398 B( 19-C , 22-C ) :   1.0457
B( 22-C , 23-H ) :   0.9380 B( 22-C , 24-H ) :   0.9390 B( 22-C , 25-C ) :   1.0433
B( 25-C , 26-H ) :   0.9597 B( 25-C , 27-H ) :   0.9601 B( 25-C , 28-C ) :   1.0746
B( 28-C , 29-H ) :   0.9752 B( 28-C , 30-H ) :   0.9758 B( 28-C , 31-H ) :   0.9778

Dispersion correction           -0.014231412
FINAL SINGLE POINT ENERGY     -1339.867755532878

DIPOLE MOMENT
-------------
                                X             Y             Z
Electronic contribution:     25.53906       7.74335     -12.70755
Nuclear contribution   :    -26.00239      -7.75318      13.08278
                        -----------------------------------------
Total Dipole Moment    :     -0.46332      -0.00982       0.37523
                        -----------------------------------------
Magnitude (a.u.)       :      0.59629
Magnitude (Debye)      :      1.51564

Rotational constants in cm-1:     0.018122     0.008617     0.006946
Rotational constants in MHz :   543.283387   258.329205   208.238357

                             ****ORCA TERMINATED NORMALLY****
TOTAL RUN TIME: 0 days 0 hours 0 minutes 33 seconds 651 msec
