                         Program Version 4.2.1 -  RELEASE  -
|  1> ! wB97X-D3 SP def2-SVP
|  2> %pal
|  3> nprocs 16
|  4> end
|  5>
|  6> * xyz 0 1
|  7> S 	 -25.1481 	 -1.23803 	 78.6978
|  8> C 	 -23.5996 	 -2.0409 	 78.6317
|  9> C 	 -22.6677 	 -1.32002 	 77.9622
| 10> C 	 -23.2341 	 -0.104546 	 77.4789
| 11> C 	 -24.5359 	 -0.00219394 	 77.5899
| 12> H 	 -22.7225 	 0.814461 	 77.0781
| 13> C 	 -21.1578 	 -1.56239 	 77.9581
| 14> H 	 -20.9 	 -1.56361 	 76.905
| 15> H 	 -20.9557 	 -2.58031 	 78.2032
| 16> C 	 -20.2716 	 -0.644238 	 78.8292
| 17> H 	 -20.8053 	 -0.322502 	 79.7317
| 18> H 	 -19.3216 	 -1.19976 	 79.2108
| 19> C 	 -19.7392 	 0.64328 	 78.0698
| 20> H 	 -19.3039 	 0.211125 	 77.1628
| 21> H 	 -20.5092 	 1.2832 	 77.8654
| 22> H 	 -18.9128 	 1.08897 	 78.5753
| 23> S 	 -26.1456 	 1.45709 	 76.0271
| 24> C 	 -26.9846 	 2.83344 	 76.7023
| 25> C 	 -26.5533 	 3.09779 	 78.0126
| 26> C 	 -25.62 	 2.1315 	 78.4757
| 27> C 	 -25.2378 	 1.25513 	 77.4631
| 28> H 	 -27.1053 	 3.96336 	 78.5391
| 29> C 	 -25.1225 	 2.16283 	 79.8859
| 30> H 	 -24.8159 	 1.11515 	 80.201
| 31> H 	 -25.9924 	 2.37235 	 80.4862
| 32> C 	 -23.978 	 3.13174 	 80.0912
| 33> H 	 -24.1476 	 4.14466 	 79.6452
| 34> H 	 -23.1028 	 2.81587 	 79.5859
| 35> C 	 -23.6807 	 3.27378 	 81.5925
| 36> H 	 -22.6296 	 3.402 	 81.7509
| 37> H 	 -23.8717 	 2.35383 	 82.1745
| 38> H 	 -24.2506 	 4.04153 	 82.0179
| 39> H 	 -23.444 	 -2.94387 	 79.1653
| 40> H 	 -27.6871 	 3.39135 	 76.19
| 41> *
| 42>
| 43>                          ****END OF INPUT****

CARTESIAN COORDINATES (ANGSTROEM)
---------------------------------
  S    -25.148100   -1.238030   78.697800
  C    -23.599600   -2.040900   78.631700
  C    -22.667700   -1.320020   77.962200
  C    -23.234100   -0.104546   77.478900
  C    -24.535900   -0.002194   77.589900
  H    -22.722500    0.814461   77.078100
  C    -21.157800   -1.562390   77.958100
  H    -20.900000   -1.563610   76.905000
  H    -20.955700   -2.580310   78.203200
  C    -20.271600   -0.644238   78.829200
  H    -20.805300   -0.322502   79.731700
  H    -19.321600   -1.199760   79.210800
  C    -19.739200    0.643280   78.069800
  H    -19.303900    0.211125   77.162800
  H    -20.509200    1.283200   77.865400
  H    -18.912800    1.088970   78.575300
  S    -26.145600    1.457090   76.027100
  C    -26.984600    2.833440   76.702300
  C    -26.553300    3.097790   78.012600
  C    -25.620000    2.131500   78.475700
  C    -25.237800    1.255130   77.463100
  H    -27.105300    3.963360   78.539100
  C    -25.122500    2.162830   79.885900
  H    -24.815900    1.115150   80.201000
  H    -25.992400    2.372350   80.486200
  C    -23.978000    3.131740   80.091200
  H    -24.147600    4.144660   79.645200
  H    -23.102800    2.815870   79.585900
  C    -23.680700    3.273780   81.592500
  H    -22.629600    3.402000   81.750900
  H    -23.871700    2.353830   82.174500
  H    -24.250600    4.041530   82.017900
  H    -23.444000   -2.943870   79.165300
  H    -27.687100    3.391350   76.190000

 Total Charge           Charge          ....    0
 Multiplicity           Mult            ....    1
 Number of Electrons    NEL             ....  134
 Basis Dimension        Dim             ....  322

ORBITAL ENERGIES
----------------

  NO   OCC          E(Eh)            E(eV)
   0   2.0000     -88.963204     -2420.8119
   1   2.0000     -88.961330     -2420.7608
   2   2.0000     -10.315518      -280.6995
   3   2.0000     -10.314464      -280.6708
   4   2.0000     -10.311821      -280.5989
   5   2.0000     -10.311121      -280.5799
   6   2.0000     -10.299845      -280.2730
   7   2.0000     -10.299810      -280.2721
   8   2.0000     -10.299507      -280.2638
   9   2.0000     -10.299221      -280.2561
  10   2.0000     -10.291599      -280.0486
  11   2.0000     -10.289569      -279.9934
  12   2.0000     -10.287809      -279.9455
  13   2.0000     -10.282531      -279.8019
  14   2.0000     -10.273518      -279.5566
  15   2.0000     -10.269078      -279.4358
  16   2.0000      -8.078660      -219.8315
  17   2.0000      -8.076115      -219.7623
  18   2.0000      -6.036986      -164.2747
  19   2.0000      -6.034601      -164.2098
  20   2.0000      -6.032915      -164.1640
  21   2.0000      -6.030914      -164.1095
  22   2.0000      -6.029732      -164.0773
  23   2.0000      -6.026571      -163.9913
  24   2.0000      -1.014229       -27.5986
  25   2.0000      -0.987801       -26.8794
  26   2.0000      -0.911358       -24.7993
  27   2.0000      -0.906472       -24.6664
  28   2.0000      -0.872707       -23.7476
  29   2.0000      -0.851329       -23.1658
  30   2.0000      -0.845325       -23.0025
  31   2.0000      -0.817955       -22.2577
  32   2.0000      -0.784461       -21.3463
  33   2.0000      -0.770716       -20.9722
  34   2.0000      -0.706180       -19.2161
  35   2.0000      -0.701431       -19.0869
  36   2.0000      -0.695084       -18.9142
  37   2.0000      -0.662459       -18.0264
  38   2.0000      -0.647021       -17.6063
  39   2.0000      -0.619217       -16.8498
  40   2.0000      -0.594264       -16.1707
  41   2.0000      -0.567983       -15.4556
  42   2.0000      -0.563101       -15.3228
  43   2.0000      -0.546681       -14.8759
  44   2.0000      -0.538865       -14.6633
  45   2.0000      -0.524138       -14.2625
  46   2.0000      -0.521181       -14.1821
  47   2.0000      -0.514156       -13.9909
  48   2.0000      -0.506003       -13.7690
  49   2.0000      -0.496695       -13.5158
  50   2.0000      -0.493177       -13.4200
  51   2.0000      -0.485038       -13.1985
  52   2.0000      -0.470520       -12.8035
  53   2.0000      -0.461212       -12.5502
  54   2.0000      -0.457518       -12.4497
  55   2.0000      -0.446478       -12.1493
  56   2.0000      -0.443227       -12.0608
  57   2.0000      -0.437095       -11.8940
  58   2.0000      -0.434589       -11.8258
  59   2.0000      -0.420868       -11.4524
  60   2.0000      -0.419650       -11.4193
  61   2.0000      -0.416580       -11.3357
  62   2.0000      -0.413963       -11.2645
  63   2.0000      -0.339052        -9.2261
  64   2.0000      -0.333184        -9.0664
  65   2.0000      -0.319812        -8.7025
  66   2.0000      -0.308272        -8.3885
  67   0.0000       0.046990         1.2787
  68   0.0000       0.056224         1.5299
  69   0.0000       0.102724         2.7953
  70   0.0000       0.127519         3.4700
  71   0.0000       0.130566         3.5529

MULLIKEN ATOMIC CHARGES
-----------------------
   0 S :    0.088369
   1 C :   -0.112942
   2 C :   -0.062144
   3 C :   -0.022026
   4 C :   -0.102853
   5 H :    0.040789
   6 C :    0.106037
   7 H :    0.024771
   8 H :    0.004608
   9 C :   -0.115810
  10 H :    0.039089
  11 H :    0.043437
  12 C :   -0.020115
  13 H :    0.024352
  14 H :    0.025792
  15 H :    0.031493
  16 S :    0.114223
  17 C :   -0.082646
  18 C :   -0.063615
  19 C :   -0.048850
  20 C :   -0.199033
  21 H :    0.051661
  22 C :    0.077840
  23 H :    0.030237
  24 H :    0.021022
  25 C :   -0.057241
  26 H :    0.031031
  27 H :    0.011518
  28 C :   -0.015816
  29 H :    0.020623
  30 H :    0.023717
  31 H :    0.028572
  32 H :    0.036662
  33 H :    0.027248
Sum of atomic charges:   -0.0000000

LOEWDIN ATOMIC CHARGES
----------------------
   0 S :    0.393295
   1 C :   -0.174303
   2 C :   -0.068505
   3 C :   -0.059697
   4 C :   -0.198120
   5 H :    0.044118
   6 C :   -0.033123
   7 H :    0.031572
   8 H :    0.026840
   9 C :   -0.040726
  10 H :    0.023151
  11 H :    0.035057
  12 C :   -0.054481
  13 H :    0.027465
  14 H :    0.008083
  15 H :    0.024227
  16 S :    0.431988
  17 C :   -0.179430
  18 C :   -0.079055
  19 C :   -0.057139
  20 C :   -0.223590
  21 H :    0.048538
  22 C :   -0.036033
  23 H :    0.029486
  24 H :    0.029041
  25 C :   -0.036137
  26 H :    0.028930
  27 H :    0.017851
  28 C :   -0.060325
  29 H :    0.023469
  30 H :    0.027931
  31 H :    0.018359
  32 H :    0.020630
  33 H :    0.010634

  Mayer bond orders larger than 0.100000
B(  0-S ,  1-C ) :   1.1404 B(  0-S ,  4-C ) :   1.1189 B(  1-C ,  2-C ) :   1.6400
B(  1-C , 32-H ) :   0.9731 B(  2-C ,  3-C ) :   1.1890 B(  2-C ,  6-C ) :   1.0308
B(  3-C ,  4-C ) :   1.6603 B(  3-C ,  5-H ) :   0.9793 B(  4-C , 20-C ) :   0.9992
B(  6-C ,  7-H ) :   0.9390 B(  6-C ,  8-H ) :   0.9357 B(  6-C ,  9-C ) :   1.0417
B(  9-C , 10-H ) :   0.9618 B(  9-C , 11-H ) :   0.9616 B(  9-C , 12-C ) :   1.0667
B( 12-C , 13-H ) :   0.9778 B( 12-C , 14-H ) :   0.9805 B( 12-C , 15-H ) :   0.9741
B( 16-S , 17-C ) :   1.1775 B( 16-S , 20-C ) :   1.1579 B( 17-C , 18-C ) :   1.5911
B( 17-C , 20-C ) :   0.1016 B( 17-C , 33-H ) :   0.9784 B( 18-C , 19-C ) :   1.2492
B( 18-C , 21-H ) :   0.9784 B( 19-C , 20-C ) :   1.5816 B( 19-C , 22-C ) :   1.0399
B( 22-C , 23-H ) :   0.9170 B( 22-C , 24-H ) :   0.9350 B( 22-C , 25-C ) :   1.0673
B( 25-C , 26-H ) :   0.9589 B( 25-C , 27-H ) :   0.9538 B( 25-C , 28-C ) :   1.0733
B( 28-C , 29-H ) :   0.9746 B( 28-C , 30-H ) :   0.9719 B( 28-C , 31-H ) :   0.9789

Dispersion correction           -0.015198909
FINAL SINGLE POINT ENERGY     -1339.860038051262

DIPOLE MOMENT
-------------
                                X             Y             Z
Electronic contribution:    -22.53513      -8.42591     -14.73980
Nuclear contribution   :     23.00559       8.63211      15.17493
                        -----------------------------------------
Total Dipole Moment    :      0.47046       0.20621       0.43513
                        -----------------------------------------
Magnitude (a.u.)       :      0.67320
Magnitude (Debye)      :      1.71113

Rotational constants in cm-1:     0.017016     0.009913     0.008071
Rotational constants in MHz :   510.120337   297.180157   241.959341

                             ****ORCA TERMINATED NORMALLY****
TOTAL RUN TIME: 0 days 0 hours 0 minutes 33 seconds 704 msec
