                         Program Version 4.2.1 -  RELEASE  -
|  1> ! wB97X-D3 SP def2-SVP
|  2> %pal
|  3> nprocs 16
|  4> end
|  5>
|  6> * xyz 0 1
|  7> S 	 54.793 	 15.3248 	 77.9666
|  8> C 	 56.5228 	 15.4469 	 77.6212
|  9> C 	 57.2283 	 14.4438 	 78.1981
| 10> C 	 56.3956 	 13.4468 	 78.7938
| 11> C 	 55.061 	 13.7593 	 78.7901
| 12> H 	 56.5691 	 12.5357 	 79.3082
| 13> C 	 58.7408 	 14.1365 	 78.0274
| 14> H 	 59.035 	 14.1513 	 76.976
| 15> H 	 58.76 	 13.0333 	 78.3481
| 16> C 	 59.6158 	 15.0699 	 78.8082
| 17> H 	 59.4421 	 14.9065 	 79.8879
| 18> H 	 60.5912 	 14.6021 	 78.7409
| 19> C 	 59.7254 	 16.4356 	 78.3634
| 20> H 	 59.5695 	 16.564 	 77.3226
| 21> H 	 58.9788 	 17.0431 	 78.8582
| 22> H 	 60.7307 	 16.7718 	 78.6852
| 23> S 	 52.7518 	 13.5352 	 80.2993
| 24> C 	 51.8419 	 11.9847 	 80.1684
| 25> C 	 52.5427 	 11.027 	 79.4301
| 26> C 	 53.7035 	 11.5884 	 78.8416
| 27> C 	 53.9909 	 12.8993 	 79.1866
| 28> H 	 52.2626 	 9.97379 	 79.3571
| 29> C 	 54.523 	 10.7776 	 77.8734
| 30> H 	 54.3381 	 9.77155 	 78.2469
| 31> H 	 55.5547 	 11.0313 	 78.0549
| 32> C 	 54.0507 	 10.8808 	 76.4142
| 33> H 	 54.2811 	 11.8736 	 76.0137
| 34> H 	 52.9985 	 10.6298 	 76.3503
| 35> C 	 54.8765 	 9.89545 	 75.5006
| 36> H 	 54.6277 	 8.90163 	 75.7758
| 37> H 	 55.9435 	 9.92746 	 75.6501
| 38> H 	 54.5857 	 10.0582 	 74.4539
| 39> H 	 56.9356 	 16.3227 	 77.0787
| 40> H 	 51.0109 	 11.5249 	 80.784
| 41> *
| 42>
| 43>                          ****END OF INPUT****

CARTESIAN COORDINATES (ANGSTROEM)
---------------------------------
  S     54.793000   15.324800   77.966600
  C     56.522800   15.446900   77.621200
  C     57.228300   14.443800   78.198100
  C     56.395600   13.446800   78.793800
  C     55.061000   13.759300   78.790100
  H     56.569100   12.535700   79.308200
  C     58.740800   14.136500   78.027400
  H     59.035000   14.151300   76.976000
  H     58.760000   13.033300   78.348100
  C     59.615800   15.069900   78.808200
  H     59.442100   14.906500   79.887900
  H     60.591200   14.602100   78.740900
  C     59.725400   16.435600   78.363400
  H     59.569500   16.564000   77.322600
  H     58.978800   17.043100   78.858200
  H     60.730700   16.771800   78.685200
  S     52.751800   13.535200   80.299300
  C     51.841900   11.984700   80.168400
  C     52.542700   11.027000   79.430100
  C     53.703500   11.588400   78.841600
  C     53.990900   12.899300   79.186600
  H     52.262600    9.973790   79.357100
  C     54.523000   10.777600   77.873400
  H     54.338100    9.771550   78.246900
  H     55.554700   11.031300   78.054900
  C     54.050700   10.880800   76.414200
  H     54.281100   11.873600   76.013700
  H     52.998500   10.629800   76.350300
  C     54.876500    9.895450   75.500600
  H     54.627700    8.901630   75.775800
  H     55.943500    9.927460   75.650100
  H     54.585700   10.058200   74.453900
  H     56.935600   16.322700   77.078700
  H     51.010900   11.524900   80.784000

 Total Charge           Charge          ....    0
 Multiplicity           Mult            ....    1
 Number of Electrons    NEL             ....  134
 Basis Dimension        Dim             ....  322

ORBITAL ENERGIES
----------------

  NO   OCC          E(Eh)            E(eV)
   0   2.0000     -88.969700     -2420.9886
   1   2.0000     -88.963403     -2420.8173
   2   2.0000     -10.326901      -281.0093
   3   2.0000     -10.326786      -281.0061
   4   2.0000     -10.324889      -280.9545
   5   2.0000     -10.317143      -280.7437
   6   2.0000     -10.300678      -280.2957
   7   2.0000     -10.298692      -280.2417
   8   2.0000     -10.296695      -280.1873
   9   2.0000     -10.296305      -280.1767
  10   2.0000     -10.291226      -280.0385
  11   2.0000     -10.287243      -279.9301
  12   2.0000     -10.286120      -279.8995
  13   2.0000     -10.277147      -279.6554
  14   2.0000     -10.273507      -279.5563
  15   2.0000     -10.273187      -279.5476
  16   2.0000      -8.082743      -219.9426
  17   2.0000      -8.077593      -219.8025
  18   2.0000      -6.041487      -164.3972
  19   2.0000      -6.037529      -164.2895
  20   2.0000      -6.036144      -164.2518
  21   2.0000      -6.033302      -164.1745
  22   2.0000      -6.032270      -164.1464
  23   2.0000      -6.028241      -164.0368
  24   2.0000      -1.003501       -27.3067
  25   2.0000      -0.979161       -26.6443
  26   2.0000      -0.921711       -25.0810
  27   2.0000      -0.905125       -24.6297
  28   2.0000      -0.874375       -23.7930
  29   2.0000      -0.852236       -23.1905
  30   2.0000      -0.845895       -23.0180
  31   2.0000      -0.813957       -22.1489
  32   2.0000      -0.785499       -21.3745
  33   2.0000      -0.769101       -20.9283
  34   2.0000      -0.708444       -19.2777
  35   2.0000      -0.696512       -18.9531
  36   2.0000      -0.693156       -18.8617
  37   2.0000      -0.665312       -18.1041
  38   2.0000      -0.647451       -17.6180
  39   2.0000      -0.615204       -16.7406
  40   2.0000      -0.583003       -15.8643
  41   2.0000      -0.572346       -15.5743
  42   2.0000      -0.565249       -15.3812
  43   2.0000      -0.552018       -15.0212
  44   2.0000      -0.542011       -14.7489
  45   2.0000      -0.526182       -14.3181
  46   2.0000      -0.522884       -14.2284
  47   2.0000      -0.507420       -13.8076
  48   2.0000      -0.503686       -13.7060
  49   2.0000      -0.499246       -13.5852
  50   2.0000      -0.493749       -13.4356
  51   2.0000      -0.484578       -13.1860
  52   2.0000      -0.470347       -12.7988
  53   2.0000      -0.463544       -12.6137
  54   2.0000      -0.456660       -12.4264
  55   2.0000      -0.449363       -12.2278
  56   2.0000      -0.443055       -12.0561
  57   2.0000      -0.440313       -11.9815
  58   2.0000      -0.433832       -11.8052
  59   2.0000      -0.427007       -11.6194
  60   2.0000      -0.422527       -11.4975
  61   2.0000      -0.408638       -11.1196
  62   2.0000      -0.396210       -10.7814
  63   2.0000      -0.346231        -9.4214
  64   2.0000      -0.333305        -9.0697
  65   2.0000      -0.332256        -9.0411
  66   2.0000      -0.291633        -7.9357
  67   0.0000       0.027649         0.7524
  68   0.0000       0.061174         1.6646
  69   0.0000       0.100763         2.7419
  70   0.0000       0.113615         3.0916
  71   0.0000       0.134736         3.6663

MULLIKEN ATOMIC CHARGES
-----------------------
   0 S :    0.099620
   1 C :   -0.152457
   2 C :   -0.039798
   3 C :    0.012766
   4 C :   -0.145188
   5 H :    0.012013
   6 C :    0.021120
   7 H :    0.036333
   8 H :    0.031126
   9 C :   -0.065205
  10 H :    0.025476
  11 H :    0.014411
  12 C :   -0.001177
  13 H :    0.019867
  14 H :    0.035347
  15 H :    0.038642
  16 S :    0.105236
  17 C :   -0.090625
  18 C :   -0.066143
  19 C :   -0.057956
  20 C :   -0.169686
  21 H :    0.030969
  22 C :    0.090265
  23 H :    0.006926
  24 H :    0.004022
  25 C :   -0.054496
  26 H :    0.041177
  27 H :    0.031450
  28 C :   -0.030834
  29 H :    0.008753
  30 H :    0.026813
  31 H :    0.041312
  32 H :    0.064189
  33 H :    0.075733
Sum of atomic charges:    0.0000000

LOEWDIN ATOMIC CHARGES
----------------------
   0 S :    0.375032
   1 C :   -0.189767
   2 C :   -0.069288
   3 C :   -0.061772
   4 C :   -0.180348
   5 H :    0.029342
   6 C :   -0.029141
   7 H :    0.028372
   8 H :    0.038582
   9 C :   -0.056058
  10 H :    0.029835
  11 H :    0.022766
  12 C :   -0.060117
  13 H :    0.019880
  14 H :    0.028243
  15 H :    0.037776
  16 S :    0.378655
  17 C :   -0.184538
  18 C :   -0.074813
  19 C :   -0.054707
  20 C :   -0.195971
  21 H :    0.035761
  22 C :   -0.030560
  23 H :    0.026918
  24 H :    0.023232
  25 C :   -0.026672
  26 H :    0.028222
  27 H :    0.025376
  28 C :   -0.062858
  29 H :    0.015097
  30 H :    0.022611
  31 H :    0.028580
  32 H :    0.035100
  33 H :    0.047227

  Mayer bond orders larger than 0.100000
B(  0-S ,  1-C ) :   1.1263 B(  0-S ,  4-C ) :   1.1206 B(  1-C ,  2-C ) :   1.6439
B(  1-C , 32-H ) :   0.9629 B(  2-C ,  3-C ) :   1.2004 B(  2-C ,  6-C ) :   0.9888
B(  3-C ,  4-C ) :   1.6271 B(  3-C ,  5-H ) :   0.9909 B(  4-C , 20-C ) :   1.0593
B(  6-C ,  7-H ) :   0.9474 B(  6-C ,  8-H ) :   0.9458 B(  6-C ,  9-C ) :   1.0865
B(  9-C , 10-H ) :   0.9442 B(  9-C , 11-H ) :   0.9521 B(  9-C , 12-C ) :   1.0813
B( 12-C , 13-H ) :   0.9702 B( 12-C , 14-H ) :   0.9679 B( 12-C , 15-H ) :   0.9677
B( 16-S , 17-C ) :   1.1415 B( 16-S , 20-C ) :   1.1100 B( 17-C , 18-C ) :   1.6245
B( 17-C , 20-C ) :   0.1001 B( 17-C , 33-H ) :   0.9518 B( 18-C , 19-C ) :   1.2513
B( 18-C , 21-H ) :   0.9794 B( 19-C , 20-C ) :   1.6047 B( 19-C , 22-C ) :   1.0374
B( 22-C , 23-H ) :   0.9293 B( 22-C , 24-H ) :   0.9253 B( 22-C , 25-C ) :   1.0712
B( 25-C , 26-H ) :   0.9580 B( 25-C , 27-H ) :   0.9553 B( 25-C , 28-C ) :   1.0763
B( 28-C , 29-H ) :   0.9755 B( 28-C , 30-H ) :   0.9756 B( 28-C , 31-H ) :   0.9769

Dispersion correction           -0.014441934
FINAL SINGLE POINT ENERGY     -1339.863916187661

DIPOLE MOMENT
-------------
                                X             Y             Z
Electronic contribution:    -20.51110       9.35729      11.59806
Nuclear contribution   :     21.06068      -9.88717     -11.76556
                        -----------------------------------------
Total Dipole Moment    :      0.54958      -0.52988      -0.16751
                        -----------------------------------------
Magnitude (a.u.)       :      0.78158
Magnitude (Debye)      :      1.98663

Rotational constants in cm-1:     0.019772     0.008303     0.006716
Rotational constants in MHz :   592.754879   248.914783   201.338394

                             ****ORCA TERMINATED NORMALLY****
TOTAL RUN TIME: 0 days 0 hours 0 minutes 31 seconds 20 msec
