                         Program Version 4.2.1 -  RELEASE  -
|  1> ! wB97X-D3 SP def2-SVP
|  2> %pal
|  3> nprocs 16
|  4> end
|  5>
|  6> * xyz 0 1
|  7> S 	 7.96613 	 -11.3001 	 96.8045
|  8> C 	 9.01111 	 -9.90575 	 97.0009
|  9> C 	 9.103 	 -9.13092 	 95.8819
| 10> C 	 8.46386 	 -9.8133 	 94.7871
| 11> C 	 7.69216 	 -10.8441 	 95.1811
| 12> H 	 8.46327 	 -9.36385 	 93.8354
| 13> C 	 9.78962 	 -7.81603 	 95.628
| 14> H 	 10.4934 	 -7.95734 	 94.8372
| 15> H 	 10.3563 	 -7.61588 	 96.5276
| 16> C 	 9.02523 	 -6.50331 	 95.4414
| 17> H 	 9.67939 	 -5.63674 	 95.5226
| 18> H 	 8.41482 	 -6.49964 	 94.4289
| 19> C 	 7.92836 	 -6.00538 	 96.4864
| 20> H 	 7.09534 	 -6.70571 	 96.528
| 21> H 	 8.36467 	 -5.86019 	 97.4373
| 22> H 	 7.51596 	 -5.08972 	 96.1394
| 23> S 	 7.28974 	 -13.4338 	 94.1214
| 24> C 	 6.23362 	 -13.5266 	 92.7441
| 25> C 	 5.54766 	 -12.3002 	 92.5526
| 26> C 	 5.93551 	 -11.3223 	 93.4203
| 27> C 	 6.91645 	 -11.6843 	 94.2743
| 28> H 	 4.80985 	 -12.1906 	 91.7386
| 29> C 	 5.3523 	 -9.89336 	 93.3264
| 30> H 	 5.67166 	 -9.51495 	 92.3702
| 31> H 	 5.76252 	 -9.37494 	 94.2278
| 32> C 	 3.85403 	 -9.77737 	 93.3732
| 33> H 	 3.51098 	 -10.2791 	 92.5225
| 34> H 	 3.52927 	 -8.75641 	 93.1634
| 35> C 	 3.16879 	 -10.2905 	 94.5927
| 36> H 	 3.45329 	 -11.3369 	 94.8783
| 37> H 	 2.13614 	 -10.2681 	 94.3285
| 38> H 	 3.26988 	 -9.6176 	 95.4251
| 39> H 	 9.42443 	 -9.69515 	 97.9678
| 40> H 	 5.98238 	 -14.4923 	 92.2061
| 41> *
| 42>
| 43>                          ****END OF INPUT****

CARTESIAN COORDINATES (ANGSTROEM)
---------------------------------
  S      7.966130  -11.300100   96.804500
  C      9.011110   -9.905750   97.000900
  C      9.103000   -9.130920   95.881900
  C      8.463860   -9.813300   94.787100
  C      7.692160  -10.844100   95.181100
  H      8.463270   -9.363850   93.835400
  C      9.789620   -7.816030   95.628000
  H     10.493400   -7.957340   94.837200
  H     10.356300   -7.615880   96.527600
  C      9.025230   -6.503310   95.441400
  H      9.679390   -5.636740   95.522600
  H      8.414820   -6.499640   94.428900
  C      7.928360   -6.005380   96.486400
  H      7.095340   -6.705710   96.528000
  H      8.364670   -5.860190   97.437300
  H      7.515960   -5.089720   96.139400
  S      7.289740  -13.433800   94.121400
  C      6.233620  -13.526600   92.744100
  C      5.547660  -12.300200   92.552600
  C      5.935510  -11.322300   93.420300
  C      6.916450  -11.684300   94.274300
  H      4.809850  -12.190600   91.738600
  C      5.352300   -9.893360   93.326400
  H      5.671660   -9.514950   92.370200
  H      5.762520   -9.374940   94.227800
  C      3.854030   -9.777370   93.373200
  H      3.510980  -10.279100   92.522500
  H      3.529270   -8.756410   93.163400
  C      3.168790  -10.290500   94.592700
  H      3.453290  -11.336900   94.878300
  H      2.136140  -10.268100   94.328500
  H      3.269880   -9.617600   95.425100
  H      9.424430   -9.695150   97.967800
  H      5.982380  -14.492300   92.206100

 Total Charge           Charge          ....    0
 Multiplicity           Mult            ....    1
 Number of Electrons    NEL             ....  134
 Basis Dimension        Dim             ....  322

ORBITAL ENERGIES
----------------

  NO   OCC          E(Eh)            E(eV)
   0   2.0000     -88.966053     -2420.8894
   1   2.0000     -88.964093     -2420.8360
   2   2.0000     -10.323857      -280.9264
   3   2.0000     -10.320476      -280.8344
   4   2.0000     -10.320158      -280.8258
   5   2.0000     -10.311672      -280.5949
   6   2.0000     -10.300790      -280.2988
   7   2.0000     -10.298708      -280.2421
   8   2.0000     -10.293017      -280.0872
   9   2.0000     -10.291671      -280.0506
  10   2.0000     -10.291019      -280.0329
  11   2.0000     -10.287170      -279.9281
  12   2.0000     -10.283410      -279.8258
  13   2.0000     -10.274431      -279.5815
  14   2.0000     -10.274076      -279.5718
  15   2.0000     -10.268922      -279.4316
  16   2.0000      -8.080280      -219.8756
  17   2.0000      -8.080005      -219.8681
  18   2.0000      -6.038645      -164.3199
  19   2.0000      -6.038384      -164.3128
  20   2.0000      -6.034912      -164.2183
  21   2.0000      -6.034527      -164.2078
  22   2.0000      -6.031170      -164.1165
  23   2.0000      -6.030661      -164.1026
  24   2.0000      -1.012526       -27.5522
  25   2.0000      -0.988485       -26.8980
  26   2.0000      -0.914406       -24.8823
  27   2.0000      -0.909438       -24.7471
  28   2.0000      -0.866578       -23.5808
  29   2.0000      -0.855902       -23.2903
  30   2.0000      -0.847616       -23.0648
  31   2.0000      -0.810221       -22.0472
  32   2.0000      -0.790112       -21.5000
  33   2.0000      -0.779599       -21.2140
  34   2.0000      -0.702003       -19.1025
  35   2.0000      -0.695349       -18.9214
  36   2.0000      -0.692621       -18.8472
  37   2.0000      -0.658090       -17.9075
  38   2.0000      -0.642519       -17.4838
  39   2.0000      -0.621988       -16.9252
  40   2.0000      -0.591447       -16.0941
  41   2.0000      -0.561623       -15.2825
  42   2.0000      -0.560460       -15.2509
  43   2.0000      -0.555532       -15.1168
  44   2.0000      -0.548503       -14.9255
  45   2.0000      -0.542622       -14.7655
  46   2.0000      -0.519300       -14.1309
  47   2.0000      -0.512775       -13.9533
  48   2.0000      -0.500170       -13.6103
  49   2.0000      -0.497713       -13.5435
  50   2.0000      -0.493966       -13.4415
  51   2.0000      -0.474894       -12.9225
  52   2.0000      -0.468862       -12.7584
  53   2.0000      -0.464857       -12.6494
  54   2.0000      -0.457405       -12.4466
  55   2.0000      -0.450656       -12.2630
  56   2.0000      -0.447958       -12.1896
  57   2.0000      -0.442454       -12.0398
  58   2.0000      -0.437851       -11.9145
  59   2.0000      -0.422521       -11.4974
  60   2.0000      -0.416226       -11.3261
  61   2.0000      -0.406761       -11.0685
  62   2.0000      -0.405626       -11.0376
  63   2.0000      -0.340945        -9.2776
  64   2.0000      -0.337048        -9.1716
  65   2.0000      -0.330387        -8.9903
  66   2.0000      -0.294047        -8.0014
  67   0.0000       0.035667         0.9706
  68   0.0000       0.068640         1.8678
  69   0.0000       0.110085         2.9956
  70   0.0000       0.121297         3.3007
  71   0.0000       0.130925         3.5626

MULLIKEN ATOMIC CHARGES
-----------------------
   0 S :    0.108198
   1 C :   -0.128538
   2 C :   -0.088818
   3 C :    0.046049
   4 C :   -0.163975
   5 H :   -0.001713
   6 C :    0.122820
   7 H :    0.036106
   8 H :    0.004971
   9 C :   -0.133418
  10 H :    0.039752
  11 H :    0.038280
  12 C :   -0.035145
  13 H :    0.036216
  14 H :    0.022351
  15 H :    0.025884
  16 S :    0.113774
  17 C :   -0.125774
  18 C :   -0.065885
  19 C :   -0.021242
  20 C :   -0.161053
  21 H :    0.026276
  22 C :    0.096320
  23 H :    0.027610
  24 H :    0.036805
  25 C :   -0.056814
  26 H :   -0.005262
  27 H :    0.018803
  28 C :   -0.031842
  29 H :    0.051542
  30 H :    0.021963
  31 H :    0.027424
  32 H :    0.036816
  33 H :    0.081519
Sum of atomic charges:   -0.0000000

LOEWDIN ATOMIC CHARGES
----------------------
   0 S :    0.413116
   1 C :   -0.186621
   2 C :   -0.060795
   3 C :   -0.050241
   4 C :   -0.203885
   5 H :    0.024136
   6 C :   -0.035179
   7 H :    0.035751
   8 H :    0.031109
   9 C :   -0.044348
  10 H :    0.027673
  11 H :    0.028714
  12 C :   -0.057538
  13 H :    0.023635
  14 H :    0.015359
  15 H :    0.023094
  16 S :    0.394095
  17 C :   -0.196978
  18 C :   -0.079099
  19 C :   -0.066076
  20 C :   -0.187893
  21 H :    0.034245
  22 C :   -0.022585
  23 H :    0.029799
  24 H :    0.033171
  25 C :   -0.045126
  26 H :    0.011043
  27 H :    0.027856
  28 C :   -0.061299
  29 H :    0.034323
  30 H :    0.025640
  31 H :    0.022929
  32 H :    0.019853
  33 H :    0.042122

  Mayer bond orders larger than 0.100000
B(  0-S ,  1-C ) :   1.1331 B(  0-S ,  4-C ) :   1.1478 B(  1-C ,  2-C ) :   1.6352
B(  1-C , 32-H ) :   0.9675 B(  2-C ,  3-C ) :   1.2164 B(  2-C ,  6-C ) :   1.0274
B(  3-C ,  4-C ) :   1.5965 B(  3-C ,  5-H ) :   0.9984 B(  4-C , 20-C ) :   1.0145
B(  6-C ,  7-H ) :   0.9354 B(  6-C ,  8-H ) :   0.9283 B(  6-C ,  9-C ) :   1.0667
B(  9-C , 10-H ) :   0.9603 B(  9-C , 11-H ) :   0.9573 B(  9-C , 12-C ) :   1.0709
B( 12-C , 13-H ) :   0.9766 B( 12-C , 14-H ) :   0.9777 B( 12-C , 15-H ) :   0.9752
B( 16-S , 17-C ) :   1.1756 B( 16-S , 20-C ) :   1.1302 B( 17-C , 18-C ) :   1.5689
B( 17-C , 20-C ) :   0.1127 B( 17-C , 33-H ) :   0.9590 B( 18-C , 19-C ) :   1.2678
B( 18-C , 21-H ) :   0.9890 B( 19-C , 20-C ) :   1.6139 B( 19-C , 22-C ) :   1.0177
B( 22-C , 23-H ) :   0.9330 B( 22-C , 24-H ) :   0.9318 B( 22-C , 25-C ) :   1.0902
B( 25-C , 26-H ) :   0.9464 B( 25-C , 27-H ) :   0.9456 B( 25-C , 28-C ) :   1.0893
B( 28-C , 29-H ) :   0.9716 B( 28-C , 30-H ) :   0.9694 B( 28-C , 31-H ) :   0.9733

Dispersion correction           -0.014653250
FINAL SINGLE POINT ENERGY     -1339.867416078588

DIPOLE MOMENT
-------------
                                X             Y             Z
Electronic contribution:      9.62613     -25.93105       2.61961
Nuclear contribution   :     -9.78106      26.56544      -2.88472
                        -----------------------------------------
Total Dipole Moment    :     -0.15493       0.63439      -0.26511
                        -----------------------------------------
Magnitude (a.u.)       :      0.70480
Magnitude (Debye)      :      1.79145

Rotational constants in cm-1:     0.018745     0.009281     0.007307
Rotational constants in MHz :   561.955119   278.238086   219.068895

                             ****ORCA TERMINATED NORMALLY****
TOTAL RUN TIME: 0 days 0 hours 0 minutes 35 seconds 300 msec
