                         Program Version 4.2.1 -  RELEASE  -
|  1> ! wB97X-D3 SP def2-SVP
|  2> %pal
|  3> nprocs 16
|  4> end
|  5>
|  6> * xyz 0 1
|  7> S 	 -24.5582 	 54.6092 	 108.852
|  8> C 	 -23.1841 	 55.334 	 109.605
|  9> C 	 -23.4819 	 56.439 	 110.398
| 10> C 	 -24.8305 	 56.8004 	 110.212
| 11> C 	 -25.6159 	 55.9416 	 109.42
| 12> H 	 -25.3049 	 57.7093 	 110.624
| 13> C 	 -22.4725 	 57.2235 	 111.281
| 14> H 	 -21.5548 	 57.3973 	 110.778
| 15> H 	 -22.293 	 56.6159 	 112.157
| 16> C 	 -22.8373 	 58.6093 	 111.925
| 17> H 	 -23.6774 	 58.4174 	 112.649
| 18> H 	 -21.9672 	 58.9259 	 112.489
| 19> C 	 -23.3095 	 59.728 	 110.995
| 20> H 	 -23.6458 	 60.6847 	 111.511
| 21> H 	 -22.5906 	 60.0624 	 110.242
| 22> H 	 -24.0761 	 59.2951 	 110.386
| 23> S 	 -27.402 	 55.9839 	 107.309
| 24> C 	 -29.0361 	 56.3575 	 107.658
| 25> C 	 -29.2301 	 56.6694 	 108.997
| 26> C 	 -28.0394 	 56.6706 	 109.769
| 27> C 	 -27.0031 	 56.1005 	 109.005
| 28> H 	 -30.1834 	 56.92 	 109.382
| 29> C 	 -28.0732 	 56.9433 	 111.314
| 30> H 	 -27.0648 	 57.1717 	 111.476
| 31> H 	 -28.3445 	 56.0508 	 111.909
| 32> C 	 -29.0396 	 58.0645 	 111.84
| 33> H 	 -28.9645 	 58.2059 	 113.003
| 34> H 	 -30.0342 	 57.6522 	 111.706
| 35> C 	 -28.9856 	 59.483 	 111.17
| 36> H 	 -30.0074 	 59.8563 	 110.896
| 37> H 	 -28.5419 	 59.4673 	 110.176
| 38> H 	 -28.4614 	 60.2841 	 111.742
| 39> H 	 -22.1931 	 54.8952 	 109.704
| 40> H 	 -29.7928 	 56.3249 	 106.927
| 41> *
| 42>
| 43>                          ****END OF INPUT****

CARTESIAN COORDINATES (ANGSTROEM)
---------------------------------
  S    -24.558200   54.609200  108.852000
  C    -23.184100   55.334000  109.605000
  C    -23.481900   56.439000  110.398000
  C    -24.830500   56.800400  110.212000
  C    -25.615900   55.941600  109.420000
  H    -25.304900   57.709300  110.624000
  C    -22.472500   57.223500  111.281000
  H    -21.554800   57.397300  110.778000
  H    -22.293000   56.615900  112.157000
  C    -22.837300   58.609300  111.925000
  H    -23.677400   58.417400  112.649000
  H    -21.967200   58.925900  112.489000
  C    -23.309500   59.728000  110.995000
  H    -23.645800   60.684700  111.511000
  H    -22.590600   60.062400  110.242000
  H    -24.076100   59.295100  110.386000
  S    -27.402000   55.983900  107.309000
  C    -29.036100   56.357500  107.658000
  C    -29.230100   56.669400  108.997000
  C    -28.039400   56.670600  109.769000
  C    -27.003100   56.100500  109.005000
  H    -30.183400   56.920000  109.382000
  C    -28.073200   56.943300  111.314000
  H    -27.064800   57.171700  111.476000
  H    -28.344500   56.050800  111.909000
  C    -29.039600   58.064500  111.840000
  H    -28.964500   58.205900  113.003000
  H    -30.034200   57.652200  111.706000
  C    -28.985600   59.483000  111.170000
  H    -30.007400   59.856300  110.896000
  H    -28.541900   59.467300  110.176000
  H    -28.461400   60.284100  111.742000
  H    -22.193100   54.895200  109.704000
  H    -29.792800   56.324900  106.927000

 Total Charge           Charge          ....    0
 Multiplicity           Mult            ....    1
 Number of Electrons    NEL             ....  134
 Basis Dimension        Dim             ....  322

ORBITAL ENERGIES
----------------

  NO   OCC          E(Eh)            E(eV)
   0   2.0000     -88.969881     -2420.9935
   1   2.0000     -88.969841     -2420.9924
   2   2.0000     -10.332529      -281.1624
   3   2.0000     -10.329522      -281.0806
   4   2.0000     -10.313171      -280.6357
   5   2.0000     -10.312826      -280.6263
   6   2.0000     -10.307666      -280.4859
   7   2.0000     -10.304044      -280.3873
   8   2.0000     -10.303193      -280.3641
   9   2.0000     -10.296843      -280.1914
  10   2.0000     -10.296408      -280.1795
  11   2.0000     -10.296305      -280.1767
  12   2.0000     -10.294710      -280.1333
  13   2.0000     -10.290783      -280.0265
  14   2.0000     -10.284136      -279.8456
  15   2.0000     -10.278620      -279.6955
  16   2.0000      -8.085264      -220.0112
  17   2.0000      -8.083938      -219.9751
  18   2.0000      -6.043641      -164.4558
  19   2.0000      -6.042399      -164.4220
  20   2.0000      -6.039698      -164.3485
  21   2.0000      -6.038536      -164.3169
  22   2.0000      -6.036108      -164.2509
  23   2.0000      -6.034801      -164.2153
  24   2.0000      -1.006842       -27.3976
  25   2.0000      -0.984532       -26.7905
  26   2.0000      -0.905791       -24.6478
  27   2.0000      -0.900091       -24.4927
  28   2.0000      -0.868722       -23.6391
  29   2.0000      -0.848529       -23.0896
  30   2.0000      -0.842370       -22.9220
  31   2.0000      -0.811839       -22.0912
  32   2.0000      -0.788899       -21.4670
  33   2.0000      -0.775667       -21.1070
  34   2.0000      -0.707759       -19.2591
  35   2.0000      -0.698591       -19.0096
  36   2.0000      -0.691706       -18.8223
  37   2.0000      -0.657770       -17.8988
  38   2.0000      -0.635761       -17.2999
  39   2.0000      -0.622805       -16.9474
  40   2.0000      -0.596973       -16.2445
  41   2.0000      -0.566424       -15.4132
  42   2.0000      -0.551320       -15.0022
  43   2.0000      -0.549091       -14.9415
  44   2.0000      -0.536449       -14.5975
  45   2.0000      -0.533973       -14.5301
  46   2.0000      -0.517942       -14.0939
  47   2.0000      -0.509800       -13.8724
  48   2.0000      -0.498638       -13.5686
  49   2.0000      -0.493880       -13.4392
  50   2.0000      -0.489638       -13.3237
  51   2.0000      -0.484581       -13.1861
  52   2.0000      -0.467700       -12.7268
  53   2.0000      -0.465014       -12.6537
  54   2.0000      -0.462614       -12.5884
  55   2.0000      -0.449247       -12.2246
  56   2.0000      -0.442528       -12.0418
  57   2.0000      -0.437631       -11.9085
  58   2.0000      -0.433656       -11.8004
  59   2.0000      -0.424446       -11.5498
  60   2.0000      -0.423280       -11.5180
  61   2.0000      -0.413949       -11.2641
  62   2.0000      -0.409865       -11.1530
  63   2.0000      -0.350855        -9.5473
  64   2.0000      -0.335826        -9.1383
  65   2.0000      -0.333449        -9.0736
  66   2.0000      -0.283434        -7.7126
  67   0.0000       0.021488         0.5847
  68   0.0000       0.072524         1.9735
  69   0.0000       0.110802         3.0151
  70   0.0000       0.118087         3.2133
  71   0.0000       0.128940         3.5086

MULLIKEN ATOMIC CHARGES
-----------------------
   0 S :    0.119253
   1 C :   -0.122408
   2 C :   -0.092787
   3 C :   -0.005939
   4 C :   -0.172870
   5 H :    0.042837
   6 C :    0.072319
   7 H :    0.031187
   8 H :    0.042972
   9 C :   -0.100783
  10 H :    0.035032
  11 H :    0.034360
  12 C :   -0.052520
  13 H :    0.049748
  14 H :    0.025004
  15 H :    0.014262
  16 S :    0.126790
  17 C :   -0.071679
  18 C :   -0.013858
  19 C :   -0.071574
  20 C :   -0.142912
  21 H :   -0.001635
  22 C :    0.129043
  23 H :   -0.009833
  24 H :    0.054758
  25 C :   -0.129217
  26 H :    0.053191
  27 H :    0.032593
  28 C :   -0.078887
  29 H :    0.032385
  30 H :    0.036462
  31 H :    0.047902
  32 H :    0.047979
  33 H :    0.038824
Sum of atomic charges:    0.0000000

LOEWDIN ATOMIC CHARGES
----------------------
   0 S :    0.404336
   1 C :   -0.206548
   2 C :   -0.066494
   3 C :   -0.070164
   4 C :   -0.187167
   5 H :    0.031929
   6 C :   -0.026548
   7 H :    0.026616
   8 H :    0.038081
   9 C :   -0.043118
  10 H :    0.027389
  11 H :    0.025954
  12 C :   -0.077933
  13 H :    0.035976
  14 H :    0.024621
  15 H :    0.020092
  16 S :    0.433086
  17 C :   -0.189354
  18 C :   -0.063776
  19 C :   -0.051953
  20 C :   -0.205313
  21 H :    0.022684
  22 C :   -0.023856
  23 H :    0.014757
  24 H :    0.043538
  25 C :   -0.050613
  26 H :    0.041010
  27 H :    0.019812
  28 C :   -0.084376
  29 H :    0.032164
  30 H :    0.026489
  31 H :    0.030294
  32 H :    0.030099
  33 H :    0.018286

  Mayer bond orders larger than 0.100000
B(  0-S ,  1-C ) :   1.1579 B(  0-S ,  4-C ) :   1.1460 B(  1-C ,  2-C ) :   1.6024
B(  1-C ,  4-C ) :   0.1055 B(  1-C , 32-H ) :   0.9626 B(  2-C ,  3-C ) :   1.2954
B(  2-C ,  6-C ) :   0.9915 B(  3-C ,  4-C ) :   1.5560 B(  3-C ,  5-H ) :   0.9527
B(  4-C , 20-C ) :   1.0604 B(  6-C ,  7-H ) :   0.9482 B(  6-C ,  8-H ) :   0.9361
B(  6-C ,  9-C ) :   1.0866 B(  9-C , 10-H ) :   0.9520 B(  9-C , 11-H ) :   0.9544
B(  9-C , 12-C ) :   1.0739 B( 12-C , 13-H ) :   0.9734 B( 12-C , 14-H ) :   0.9694
B( 12-C , 15-H ) :   0.9730 B( 16-S , 17-C ) :   1.1643 B( 16-S , 20-C ) :   1.1648
B( 17-C , 18-C ) :   1.5783 B( 17-C , 20-C ) :   0.1013 B( 17-C , 33-H ) :   0.9743
B( 18-C , 19-C ) :   1.2600 B( 18-C , 21-H ) :   0.9985 B( 19-C , 20-C ) :   1.5617
B( 19-C , 22-C ) :   1.0119 B( 22-C , 23-H ) :   0.9324 B( 22-C , 24-H ) :   0.9383
B( 22-C , 25-C ) :   1.0655 B( 25-C , 26-H ) :   0.9600 B( 25-C , 27-H ) :   0.9604
B( 25-C , 28-C ) :   1.0533 B( 28-C , 29-H ) :   0.9773 B( 28-C , 30-H ) :   0.9771
B( 28-C , 31-H ) :   0.9800

Dispersion correction           -0.014549654
FINAL SINGLE POINT ENERGY     -1339.867959030674

DIPOLE MOMENT
-------------
                                X             Y             Z
Electronic contribution:     -0.27964     -22.49099     -20.46392
Nuclear contribution   :      0.22494      22.88370      20.94185
                        -----------------------------------------
Total Dipole Moment    :     -0.05470       0.39272       0.47793
                        -----------------------------------------
Magnitude (a.u.)       :      0.62100
Magnitude (Debye)      :      1.57845

Rotational constants in cm-1:     0.016078     0.010257     0.007063
Rotational constants in MHz :   482.009355   307.506086   211.735148

                             ****ORCA TERMINATED NORMALLY****
TOTAL RUN TIME: 0 days 0 hours 0 minutes 30 seconds 814 msec
