                         Program Version 4.2.1 -  RELEASE  -
|  1> ! wB97X-D3 SP def2-SVP
|  2> %pal
|  3> nprocs 16
|  4> end
|  5>
|  6> * xyz 0 1
|  7> S 	 8.75768 	 -6.4791 	 89.6978
|  8> C 	 9.94476 	 -5.21322 	 89.3987
|  9> C 	 10.0643 	 -5.04023 	 88.0285
| 10> C 	 9.34035 	 -6.06348 	 87.3034
| 11> C 	 8.65768 	 -6.996 	 88.0806
| 12> H 	 9.34842 	 -6.11674 	 86.265
| 13> C 	 10.9096 	 -4.0256 	 87.3462
| 14> H 	 11.8475 	 -4.56141 	 87.1698
| 15> H 	 10.908 	 -3.29212 	 88.1709
| 16> C 	 10.4468 	 -3.44372 	 85.9719
| 17> H 	 11.2613 	 -2.77767 	 85.6184
| 18> H 	 10.3403 	 -4.19318 	 85.267
| 19> C 	 9.2139 	 -2.52082 	 86.1099
| 20> H 	 9.09706 	 -2.20906 	 85.0709
| 21> H 	 8.33323 	 -3.01873 	 86.4263
| 22> H 	 9.38749 	 -1.72021 	 86.7103
| 23> S 	 7.95814 	 -9.63686 	 88.369
| 24> C 	 6.70175 	 -10.3285 	 87.3265
| 25> C 	 6.02919 	 -9.35624 	 86.6031
| 26> C 	 6.65038 	 -8.05749 	 86.8467
| 27> C 	 7.74329 	 -8.08375 	 87.6936
| 28> H 	 5.18958 	 -9.73051 	 86.0625
| 29> C 	 5.92216 	 -6.7021 	 86.4519
| 30> H 	 5.40585 	 -6.74484 	 85.5327
| 31> H 	 6.58884 	 -5.89529 	 86.1866
| 32> C 	 4.91796 	 -6.25376 	 87.5547
| 33> H 	 5.4184 	 -6.14279 	 88.5361
| 34> H 	 4.14827 	 -7.04457 	 87.739
| 35> C 	 4.35404 	 -4.88197 	 87.3004
| 36> H 	 3.42813 	 -4.67943 	 87.8226
| 37> H 	 4.00679 	 -4.77237 	 86.277
| 38> H 	 5.1358 	 -4.26665 	 87.6638
| 39> H 	 10.3095 	 -4.56752 	 90.1816
| 40> H 	 6.39045 	 -11.3284 	 87.3444
| 41> *
| 42>
| 43>                          ****END OF INPUT****

CARTESIAN COORDINATES (ANGSTROEM)
---------------------------------
  S      8.757680   -6.479100   89.697800
  C      9.944760   -5.213220   89.398700
  C     10.064300   -5.040230   88.028500
  C      9.340350   -6.063480   87.303400
  C      8.657680   -6.996000   88.080600
  H      9.348420   -6.116740   86.265000
  C     10.909600   -4.025600   87.346200
  H     11.847500   -4.561410   87.169800
  H     10.908000   -3.292120   88.170900
  C     10.446800   -3.443720   85.971900
  H     11.261300   -2.777670   85.618400
  H     10.340300   -4.193180   85.267000
  C      9.213900   -2.520820   86.109900
  H      9.097060   -2.209060   85.070900
  H      8.333230   -3.018730   86.426300
  H      9.387490   -1.720210   86.710300
  S      7.958140   -9.636860   88.369000
  C      6.701750  -10.328500   87.326500
  C      6.029190   -9.356240   86.603100
  C      6.650380   -8.057490   86.846700
  C      7.743290   -8.083750   87.693600
  H      5.189580   -9.730510   86.062500
  C      5.922160   -6.702100   86.451900
  H      5.405850   -6.744840   85.532700
  H      6.588840   -5.895290   86.186600
  C      4.917960   -6.253760   87.554700
  H      5.418400   -6.142790   88.536100
  H      4.148270   -7.044570   87.739000
  C      4.354040   -4.881970   87.300400
  H      3.428130   -4.679430   87.822600
  H      4.006790   -4.772370   86.277000
  H      5.135800   -4.266650   87.663800
  H     10.309500   -4.567520   90.181600
  H      6.390450  -11.328400   87.344400

 Total Charge           Charge          ....    0
 Multiplicity           Mult            ....    1
 Number of Electrons    NEL             ....  134
 Basis Dimension        Dim             ....  322

ORBITAL ENERGIES
----------------

  NO   OCC          E(Eh)            E(eV)
   0   2.0000     -88.965843     -2420.8837
   1   2.0000     -88.961736     -2420.7719
   2   2.0000     -10.328985      -281.0660
   3   2.0000     -10.326287      -280.9926
   4   2.0000     -10.316216      -280.7185
   5   2.0000     -10.313193      -280.6363
   6   2.0000     -10.312263      -280.6109
   7   2.0000     -10.300841      -280.3001
   8   2.0000     -10.299299      -280.2582
   9   2.0000     -10.292324      -280.0684
  10   2.0000     -10.289598      -279.9942
  11   2.0000     -10.289340      -279.9872
  12   2.0000     -10.288255      -279.9577
  13   2.0000     -10.282766      -279.8083
  14   2.0000     -10.268703      -279.4256
  15   2.0000     -10.268458      -279.4189
  16   2.0000      -8.081041      -219.8963
  17   2.0000      -8.077182      -219.7913
  18   2.0000      -6.039519      -164.3437
  19   2.0000      -6.035621      -164.2376
  20   2.0000      -6.035469      -164.2335
  21   2.0000      -6.031814      -164.1340
  22   2.0000      -6.031470      -164.1246
  23   2.0000      -6.028075      -164.0322
  24   2.0000      -1.008980       -27.4557
  25   2.0000      -0.985505       -26.8170
  26   2.0000      -0.914752       -24.8917
  27   2.0000      -0.902486       -24.5579
  28   2.0000      -0.872693       -23.7472
  29   2.0000      -0.846897       -23.0452
  30   2.0000      -0.846260       -23.0279
  31   2.0000      -0.819357       -22.2958
  32   2.0000      -0.784265       -21.3409
  33   2.0000      -0.772293       -21.0151
  34   2.0000      -0.717692       -19.5294
  35   2.0000      -0.695253       -18.9188
  36   2.0000      -0.689671       -18.7669
  37   2.0000      -0.662818       -18.0362
  38   2.0000      -0.639893       -17.4124
  39   2.0000      -0.624963       -17.0061
  40   2.0000      -0.592395       -16.1199
  41   2.0000      -0.572562       -15.5802
  42   2.0000      -0.567734       -15.4488
  43   2.0000      -0.557743       -15.1770
  44   2.0000      -0.544399       -14.8138
  45   2.0000      -0.531420       -14.4607
  46   2.0000      -0.521160       -14.1815
  47   2.0000      -0.514202       -13.9921
  48   2.0000      -0.506958       -13.7950
  49   2.0000      -0.501067       -13.6347
  50   2.0000      -0.491777       -13.3819
  51   2.0000      -0.482854       -13.1391
  52   2.0000      -0.472954       -12.8697
  53   2.0000      -0.466884       -12.7045
  54   2.0000      -0.458534       -12.4774
  55   2.0000      -0.445361       -12.1189
  56   2.0000      -0.442205       -12.0330
  57   2.0000      -0.441176       -12.0050
  58   2.0000      -0.424697       -11.5566
  59   2.0000      -0.419085       -11.4039
  60   2.0000      -0.416892       -11.3442
  61   2.0000      -0.413705       -11.2575
  62   2.0000      -0.408891       -11.1265
  63   2.0000      -0.345097        -9.3906
  64   2.0000      -0.328926        -8.9505
  65   2.0000      -0.323018        -8.7898
  66   2.0000      -0.298947        -8.1348
  67   0.0000       0.033348         0.9075
  68   0.0000       0.069151         1.8817
  69   0.0000       0.109684         2.9847
  70   0.0000       0.120630         3.2825
  71   0.0000       0.130433         3.5493

MULLIKEN ATOMIC CHARGES
-----------------------
   0 S :    0.098374
   1 C :   -0.133419
   2 C :   -0.110353
   3 C :    0.045796
   4 C :   -0.115526
   5 H :   -0.021803
   6 C :    0.054258
   7 H :    0.054656
   8 H :    0.023053
   9 C :   -0.075159
  10 H :    0.034782
  11 H :    0.019991
  12 C :   -0.004134
  13 H :    0.029065
  14 H :    0.031604
  15 H :    0.014064
  16 S :    0.114627
  17 C :   -0.088701
  18 C :   -0.025357
  19 C :   -0.019155
  20 C :   -0.157755
  21 H :    0.019893
  22 C :    0.088936
  23 H :    0.000854
  24 H :    0.007199
  25 C :   -0.097523
  26 H :    0.028049
  27 H :    0.027648
  28 C :   -0.020398
  29 H :    0.024921
  30 H :    0.022069
  31 H :    0.039945
  32 H :    0.049888
  33 H :    0.039613
Sum of atomic charges:    0.0000000

LOEWDIN ATOMIC CHARGES
----------------------
   0 S :    0.421686
   1 C :   -0.203656
   2 C :   -0.063183
   3 C :   -0.063867
   4 C :   -0.203659
   5 H :    0.014884
   6 C :   -0.037778
   7 H :    0.041249
   8 H :    0.034144
   9 C :   -0.029546
  10 H :    0.032987
  11 H :    0.011728
  12 C :   -0.047809
  13 H :    0.031210
  14 H :    0.020332
  15 H :    0.011927
  16 S :    0.417645
  17 C :   -0.168334
  18 C :   -0.064072
  19 C :   -0.048092
  20 C :   -0.219442
  21 H :    0.034389
  22 C :   -0.028052
  23 H :    0.019753
  24 H :    0.025369
  25 C :   -0.043749
  26 H :    0.024632
  27 H :    0.021939
  28 C :   -0.064658
  29 H :    0.027243
  30 H :    0.022120
  31 H :    0.027445
  32 H :    0.027167
  33 H :    0.018049

  Mayer bond orders larger than 0.100000
B(  0-S ,  1-C ) :   1.1383 B(  0-S ,  4-C ) :   1.1870 B(  1-C ,  2-C ) :   1.5810
B(  1-C ,  4-C ) :   0.1011 B(  1-C , 32-H ) :   0.9747 B(  2-C ,  3-C ) :   1.2489
B(  2-C ,  6-C ) :   1.0038 B(  3-C ,  4-C ) :   1.5552 B(  3-C ,  5-H ) :   1.0123
B(  4-C , 20-C ) :   0.9997 B(  6-C ,  7-H ) :   0.9340 B(  6-C ,  8-H ) :   0.9450
B(  6-C ,  9-C ) :   1.0841 B(  9-C , 10-H ) :   0.9551 B(  9-C , 11-H ) :   0.9539
B(  9-C , 12-C ) :   1.0741 B( 12-C , 13-H ) :   0.9750 B( 12-C , 14-H ) :   0.9783
B( 12-C , 15-H ) :   0.9759 B( 16-S , 17-C ) :   1.1540 B( 16-S , 20-C ) :   1.1496
B( 17-C , 18-C ) :   1.6261 B( 17-C , 33-H ) :   0.9729 B( 18-C , 19-C ) :   1.2092
B( 18-C , 21-H ) :   1.0004 B( 19-C , 20-C ) :   1.6045 B( 19-C , 22-C ) :   1.0407
B( 22-C , 23-H ) :   0.9344 B( 22-C , 24-H ) :   0.9364 B( 22-C , 25-C ) :   1.0521
B( 25-C , 26-H ) :   0.9631 B( 25-C , 27-H ) :   0.9571 B( 25-C , 28-C ) :   1.0717
B( 28-C , 29-H ) :   0.9700 B( 28-C , 30-H ) :   0.9737 B( 28-C , 31-H ) :   0.9812

Dispersion correction           -0.014930508
FINAL SINGLE POINT ENERGY     -1339.854303406738

DIPOLE MOMENT
-------------
                                X             Y             Z
Electronic contribution:      6.93963     -23.94196      13.36287
Nuclear contribution   :     -7.16117      24.38518     -13.82356
                        -----------------------------------------
Total Dipole Moment    :     -0.22154       0.44322      -0.46069
                        -----------------------------------------
Magnitude (a.u.)       :      0.67658
Magnitude (Debye)      :      1.71972

Rotational constants in cm-1:     0.018271     0.009420     0.007607
Rotational constants in MHz :   547.736488   282.408931   228.039330

                             ****ORCA TERMINATED NORMALLY****
TOTAL RUN TIME: 0 days 0 hours 0 minutes 34 seconds 657 msec
