                         Program Version 4.2.1 -  RELEASE  -
|  1> ! wB97X-D3 SP def2-SVP
|  2> %pal
|  3> nprocs 16
|  4> end
|  5>
|  6> * xyz 0 1
|  7> S 	 37.8609 	 12.5479 	 81.2756
|  8> C 	 38.201 	 11.8486 	 79.6383
|  9> C 	 39.4626 	 12.1335 	 79.1997
| 10> C 	 40.0672 	 13.1314 	 80.0498
| 11> C 	 39.298 	 13.5447 	 81.1642
| 12> H 	 40.9914 	 13.5406 	 79.8014
| 13> C 	 40.0475 	 11.5394 	 77.9565
| 14> H 	 40.0648 	 10.4743 	 78.0731
| 15> H 	 41.0821 	 11.9242 	 77.7548
| 16> C 	 39.1861 	 11.784 	 76.6663
| 17> H 	 38.2322 	 11.3563 	 76.9812
| 18> H 	 39.0381 	 12.8511 	 76.4741
| 19> C 	 39.8827 	 11.1361 	 75.3786
| 20> H 	 40.921 	 11.4899 	 75.2362
| 21> H 	 39.9794 	 10.0565 	 75.3199
| 22> H 	 39.4151 	 11.5854 	 74.4977
| 23> S 	 38.896 	 14.4281 	 83.8577
| 24> C 	 40.0775 	 15.4615 	 84.5595
| 25> C 	 40.8075 	 16.0769 	 83.5278
| 26> C 	 40.4902 	 15.6174 	 82.2237
| 27> C 	 39.6555 	 14.4984 	 82.2237
| 28> H 	 41.3976 	 16.9338 	 83.7502
| 29> C 	 41.1291 	 16.1773 	 80.8981
| 30> H 	 40.557 	 15.8366 	 79.9933
| 31> H 	 42.1314 	 15.6566 	 80.7382
| 32> C 	 41.2401 	 17.7563 	 80.8686
| 33> H 	 41.8172 	 18.0386 	 81.6671
| 34> H 	 40.1877 	 18.1079 	 80.9197
| 35> C 	 41.9193 	 18.3962 	 79.7103
| 36> H 	 41.4566 	 18.2308 	 78.7561
| 37> H 	 42.9036 	 17.9181 	 79.5665
| 38> H 	 42.058 	 19.5084 	 79.7386
| 39> H 	 37.5867 	 11.1065 	 79.1818
| 40> H 	 39.9222 	 15.9369 	 85.4898
| 41> *
| 42>
| 43>                          ****END OF INPUT****

CARTESIAN COORDINATES (ANGSTROEM)
---------------------------------
  S     37.860900   12.547900   81.275600
  C     38.201000   11.848600   79.638300
  C     39.462600   12.133500   79.199700
  C     40.067200   13.131400   80.049800
  C     39.298000   13.544700   81.164200
  H     40.991400   13.540600   79.801400
  C     40.047500   11.539400   77.956500
  H     40.064800   10.474300   78.073100
  H     41.082100   11.924200   77.754800
  C     39.186100   11.784000   76.666300
  H     38.232200   11.356300   76.981200
  H     39.038100   12.851100   76.474100
  C     39.882700   11.136100   75.378600
  H     40.921000   11.489900   75.236200
  H     39.979400   10.056500   75.319900
  H     39.415100   11.585400   74.497700
  S     38.896000   14.428100   83.857700
  C     40.077500   15.461500   84.559500
  C     40.807500   16.076900   83.527800
  C     40.490200   15.617400   82.223700
  C     39.655500   14.498400   82.223700
  H     41.397600   16.933800   83.750200
  C     41.129100   16.177300   80.898100
  H     40.557000   15.836600   79.993300
  H     42.131400   15.656600   80.738200
  C     41.240100   17.756300   80.868600
  H     41.817200   18.038600   81.667100
  H     40.187700   18.107900   80.919700
  C     41.919300   18.396200   79.710300
  H     41.456600   18.230800   78.756100
  H     42.903600   17.918100   79.566500
  H     42.058000   19.508400   79.738600
  H     37.586700   11.106500   79.181800
  H     39.922200   15.936900   85.489800

 Total Charge           Charge          ....    0
 Multiplicity           Mult            ....    1
 Number of Electrons    NEL             ....  134
 Basis Dimension        Dim             ....  322

ORBITAL ENERGIES
----------------

  NO   OCC          E(Eh)            E(eV)
   0   2.0000     -88.967926     -2420.9403
   1   2.0000     -88.965137     -2420.8645
   2   2.0000     -10.340169      -281.3703
   3   2.0000     -10.335999      -281.2568
   4   2.0000     -10.316485      -280.7258
   5   2.0000     -10.315414      -280.6967
   6   2.0000     -10.310351      -280.5589
   7   2.0000     -10.307217      -280.4736
   8   2.0000     -10.303208      -280.3645
   9   2.0000     -10.299286      -280.2578
  10   2.0000     -10.297375      -280.2058
  11   2.0000     -10.297208      -280.2013
  12   2.0000     -10.296231      -280.1747
  13   2.0000     -10.288598      -279.9670
  14   2.0000     -10.285036      -279.8700
  15   2.0000     -10.278705      -279.6978
  16   2.0000      -8.081709      -219.9145
  17   2.0000      -8.079703      -219.8599
  18   2.0000      -6.040378      -164.3671
  19   2.0000      -6.038263      -164.3095
  20   2.0000      -6.036512      -164.2619
  21   2.0000      -6.034336      -164.2026
  22   2.0000      -6.032203      -164.1446
  23   2.0000      -6.030312      -164.0931
  24   2.0000      -1.002120       -27.2691
  25   2.0000      -0.981569       -26.7098
  26   2.0000      -0.911085       -24.7919
  27   2.0000      -0.905043       -24.6275
  28   2.0000      -0.866326       -23.5739
  29   2.0000      -0.853940       -23.2369
  30   2.0000      -0.838941       -22.8287
  31   2.0000      -0.812433       -22.1074
  32   2.0000      -0.783253       -21.3134
  33   2.0000      -0.773582       -21.0502
  34   2.0000      -0.711222       -19.3533
  35   2.0000      -0.705207       -19.1897
  36   2.0000      -0.700525       -19.0623
  37   2.0000      -0.655735       -17.8435
  38   2.0000      -0.638487       -17.3741
  39   2.0000      -0.622782       -16.9468
  40   2.0000      -0.595247       -16.1975
  41   2.0000      -0.571879       -15.5616
  42   2.0000      -0.571026       -15.5384
  43   2.0000      -0.563203       -15.3255
  44   2.0000      -0.526179       -14.3181
  45   2.0000      -0.521778       -14.1983
  46   2.0000      -0.519553       -14.1378
  47   2.0000      -0.509151       -13.8547
  48   2.0000      -0.502370       -13.6702
  49   2.0000      -0.501856       -13.6562
  50   2.0000      -0.490756       -13.3542
  51   2.0000      -0.479959       -13.0603
  52   2.0000      -0.469791       -12.7837
  53   2.0000      -0.464298       -12.6342
  54   2.0000      -0.459603       -12.5064
  55   2.0000      -0.454378       -12.3643
  56   2.0000      -0.450671       -12.2634
  57   2.0000      -0.442135       -12.0311
  58   2.0000      -0.430815       -11.7231
  59   2.0000      -0.423663       -11.5285
  60   2.0000      -0.421782       -11.4773
  61   2.0000      -0.417028       -11.3479
  62   2.0000      -0.411354       -11.1935
  63   2.0000      -0.357677        -9.7329
  64   2.0000      -0.333014        -9.0618
  65   2.0000      -0.327255        -8.9051
  66   2.0000      -0.281952        -7.6723
  67   0.0000       0.009837         0.2677
  68   0.0000       0.072541         1.9739
  69   0.0000       0.093998         2.5578
  70   0.0000       0.113757         3.0955
  71   0.0000       0.134401         3.6572

MULLIKEN ATOMIC CHARGES
-----------------------
   0 S :    0.095227
   1 C :   -0.130491
   2 C :   -0.060823
   3 C :    0.028972
   4 C :   -0.117199
   5 H :   -0.024127
   6 C :    0.056509
   7 H :    0.035876
   8 H :    0.027270
   9 C :   -0.092033
  10 H :    0.029149
  11 H :    0.041552
  12 C :   -0.054508
  13 H :    0.025141
  14 H :    0.042042
  15 H :    0.036811
  16 S :    0.088539
  17 C :   -0.066660
  18 C :   -0.049164
  19 C :   -0.030491
  20 C :   -0.128642
  21 H :    0.015877
  22 C :   -0.014722
  23 H :    0.042550
  24 H :    0.050079
  25 C :   -0.041238
  26 H :    0.017580
  27 H :    0.045657
  28 C :   -0.053093
  29 H :    0.016129
  30 H :    0.020009
  31 H :    0.046189
  32 H :    0.042405
  33 H :    0.059626
Sum of atomic charges:   -0.0000000

LOEWDIN ATOMIC CHARGES
----------------------
   0 S :    0.378780
   1 C :   -0.173138
   2 C :   -0.059139
   3 C :   -0.055219
   4 C :   -0.180420
   5 H :    0.015304
   6 C :   -0.033340
   7 H :    0.032052
   8 H :    0.030859
   9 C :   -0.029968
  10 H :    0.021073
  11 H :    0.027267
  12 C :   -0.073394
  13 H :    0.028575
  14 H :    0.025414
  15 H :    0.029862
  16 S :    0.394358
  17 C :   -0.190945
  18 C :   -0.068408
  19 C :   -0.057296
  20 C :   -0.177801
  21 H :    0.025498
  22 C :   -0.036802
  23 H :    0.032558
  24 H :    0.033181
  25 C :   -0.038752
  26 H :    0.012580
  27 H :    0.034097
  28 C :   -0.071365
  29 H :    0.018318
  30 H :    0.026179
  31 H :    0.035157
  32 H :    0.019502
  33 H :    0.025372

  Mayer bond orders larger than 0.100000
B(  0-S ,  1-C ) :   1.1180 B(  0-S ,  4-C ) :   1.1415 B(  1-C ,  2-C ) :   1.6180
B(  1-C , 32-H ) :   0.9689 B(  2-C ,  3-C ) :   1.2463 B(  2-C ,  6-C ) :   1.0267
B(  3-C ,  4-C ) :   1.5297 B(  3-C ,  5-H ) :   1.0022 B(  4-C , 20-C ) :   1.1060
B(  6-C ,  7-H ) :   0.9354 B(  6-C ,  8-H ) :   0.9454 B(  6-C ,  9-C ) :   1.0548
B(  9-C , 10-H ) :   0.9583 B(  9-C , 11-H ) :   0.9619 B(  9-C , 12-C ) :   1.0657
B( 12-C , 13-H ) :   0.9732 B( 12-C , 14-H ) :   0.9788 B( 12-C , 15-H ) :   0.9768
B( 16-S , 17-C ) :   1.1696 B( 16-S , 20-C ) :   1.1347 B( 17-C , 18-C ) :   1.5697
B( 17-C , 20-C ) :   0.1107 B( 17-C , 33-H ) :   0.9667 B( 18-C , 19-C ) :   1.2834
B( 18-C , 21-H ) :   0.9894 B( 19-C , 20-C ) :   1.5448 B( 19-C , 22-C ) :   1.0301
B( 22-C , 23-H ) :   0.9401 B( 22-C , 24-H ) :   0.9377 B( 22-C , 25-C ) :   1.0497
B( 25-C , 26-H ) :   0.9522 B( 25-C , 27-H ) :   0.9568 B( 25-C , 28-C ) :   1.0964
B( 28-C , 29-H ) :   0.9724 B( 28-C , 30-H ) :   0.9683 B( 28-C , 31-H ) :   0.9727

Dispersion correction           -0.013067542
FINAL SINGLE POINT ENERGY     -1339.856592664211

DIPOLE MOMENT
-------------
                                X             Y             Z
Electronic contribution:    -13.93832      -6.92785      27.81082
Nuclear contribution   :     14.37929       7.17664     -28.46950
                        -----------------------------------------
Total Dipole Moment    :      0.44098       0.24879      -0.65868
                        -----------------------------------------
Magnitude (a.u.)       :      0.83079
Magnitude (Debye)      :      2.11171

Rotational constants in cm-1:     0.017595     0.007840     0.005663
Rotational constants in MHz :   527.473772   235.026589   169.766118

                             ****ORCA TERMINATED NORMALLY****
TOTAL RUN TIME: 0 days 0 hours 0 minutes 28 seconds 635 msec
