                         Program Version 4.2.1 -  RELEASE  -
|  1> ! wB97X-D3 SP def2-SVP
|  2> %pal
|  3> nprocs 16
|  4> end
|  5>
|  6> * xyz 0 1
|  7> S 	 13.6192 	 26.0501 	 46.6037
|  8> C 	 14.9591 	 24.9905 	 46.6635
|  9> C 	 14.5567 	 23.8001 	 47.2205
| 10> C 	 13.1423 	 23.7257 	 47.5087
| 11> C 	 12.5144 	 24.9222 	 47.3443
| 12> H 	 12.5371 	 22.921 	 47.8716
| 13> C 	 15.4818 	 22.6472 	 47.4648
| 14> H 	 15.7369 	 22.6666 	 48.5315
| 15> H 	 16.4179 	 22.8398 	 46.8575
| 16> C 	 14.9434 	 21.2048 	 47.0996
| 17> H 	 14.0015 	 21.0368 	 47.5903
| 18> H 	 14.628 	 21.2485 	 46.0852
| 19> C 	 15.946 	 20.0396 	 47.2755
| 20> H 	 16.9115 	 20.2755 	 46.8406
| 21> H 	 16.0038 	 19.7264 	 48.3399
| 22> H 	 15.5114 	 19.137 	 46.7901
| 23> S 	 10.3383 	 25.9413 	 45.9802
| 24> C 	 8.80772 	 25.7033 	 46.6456
| 25> C 	 8.75964 	 25.0576 	 47.8585
| 26> C 	 10.0673 	 24.8484 	 48.3522
| 27> C 	 11.0979 	 25.274 	 47.4342
| 28> H 	 7.83144 	 24.7921 	 48.3996
| 29> C 	 10.3828 	 24.2252 	 49.7244
| 30> H 	 10.9763 	 24.9396 	 50.2467
| 31> H 	 10.9039 	 23.2528 	 49.5653
| 32> C 	 9.19841 	 23.8873 	 50.6432
| 33> H 	 8.70789 	 23.0313 	 50.1702
| 34> H 	 8.39054 	 24.5828 	 50.7334
| 35> C 	 9.66747 	 23.6159 	 52.1175
| 36> H 	 10.0888 	 24.4339 	 52.5875
| 37> H 	 10.4812 	 22.8904 	 51.9846
| 38> H 	 8.89831 	 23.1946 	 52.6565
| 39> H 	 15.9957 	 25.1305 	 46.3327
| 40> H 	 7.88753 	 26.1156 	 46.1961
| 41> *
| 42>
| 43>                          ****END OF INPUT****

CARTESIAN COORDINATES (ANGSTROEM)
---------------------------------
  S     13.619200   26.050100   46.603700
  C     14.959100   24.990500   46.663500
  C     14.556700   23.800100   47.220500
  C     13.142300   23.725700   47.508700
  C     12.514400   24.922200   47.344300
  H     12.537100   22.921000   47.871600
  C     15.481800   22.647200   47.464800
  H     15.736900   22.666600   48.531500
  H     16.417900   22.839800   46.857500
  C     14.943400   21.204800   47.099600
  H     14.001500   21.036800   47.590300
  H     14.628000   21.248500   46.085200
  C     15.946000   20.039600   47.275500
  H     16.911500   20.275500   46.840600
  H     16.003800   19.726400   48.339900
  H     15.511400   19.137000   46.790100
  S     10.338300   25.941300   45.980200
  C      8.807720   25.703300   46.645600
  C      8.759640   25.057600   47.858500
  C     10.067300   24.848400   48.352200
  C     11.097900   25.274000   47.434200
  H      7.831440   24.792100   48.399600
  C     10.382800   24.225200   49.724400
  H     10.976300   24.939600   50.246700
  H     10.903900   23.252800   49.565300
  C      9.198410   23.887300   50.643200
  H      8.707890   23.031300   50.170200
  H      8.390540   24.582800   50.733400
  C      9.667470   23.615900   52.117500
  H     10.088800   24.433900   52.587500
  H     10.481200   22.890400   51.984600
  H      8.898310   23.194600   52.656500
  H     15.995700   25.130500   46.332700
  H      7.887530   26.115600   46.196100

 Total Charge           Charge          ....    0
 Multiplicity           Mult            ....    1
 Number of Electrons    NEL             ....  134
 Basis Dimension        Dim             ....  322

ORBITAL ENERGIES
----------------

  NO   OCC          E(Eh)            E(eV)
   0   2.0000     -88.969430     -2420.9813
   1   2.0000     -88.960011     -2420.7250
   2   2.0000     -10.328659      -281.0571
   3   2.0000     -10.326029      -280.9855
   4   2.0000     -10.314907      -280.6829
   5   2.0000     -10.310515      -280.5634
   6   2.0000     -10.310259      -280.5564
   7   2.0000     -10.298360      -280.2326
   8   2.0000     -10.295282      -280.1489
   9   2.0000     -10.294831      -280.1366
  10   2.0000     -10.294659      -280.1319
  11   2.0000     -10.290282      -280.0128
  12   2.0000     -10.287079      -279.9257
  13   2.0000     -10.285097      -279.8717
  14   2.0000     -10.284770      -279.8628
  15   2.0000     -10.271589      -279.5041
  16   2.0000      -8.084771      -219.9978
  17   2.0000      -8.075767      -219.7528
  18   2.0000      -6.043079      -164.4405
  19   2.0000      -6.039101      -164.3323
  20   2.0000      -6.035790      -164.2422
  21   2.0000      -6.034315      -164.2021
  22   2.0000      -6.029994      -164.0845
  23   2.0000      -6.026564      -163.9911
  24   2.0000      -1.009979       -27.4829
  25   2.0000      -0.989013       -26.9124
  26   2.0000      -0.910227       -24.7685
  27   2.0000      -0.904374       -24.6093
  28   2.0000      -0.870500       -23.6875
  29   2.0000      -0.854892       -23.2628
  30   2.0000      -0.844222       -22.9724
  31   2.0000      -0.817164       -22.2362
  32   2.0000      -0.784387       -21.3443
  33   2.0000      -0.766828       -20.8665
  34   2.0000      -0.713485       -19.4149
  35   2.0000      -0.703718       -19.1491
  36   2.0000      -0.689955       -18.7746
  37   2.0000      -0.650713       -17.7068
  38   2.0000      -0.640432       -17.4271
  39   2.0000      -0.618384       -16.8271
  40   2.0000      -0.600311       -16.3353
  41   2.0000      -0.573639       -15.6095
  42   2.0000      -0.565587       -15.3904
  43   2.0000      -0.560551       -15.2534
  44   2.0000      -0.530334       -14.4311
  45   2.0000      -0.520954       -14.1759
  46   2.0000      -0.516447       -14.0532
  47   2.0000      -0.509230       -13.8569
  48   2.0000      -0.504810       -13.7366
  49   2.0000      -0.500981       -13.6324
  50   2.0000      -0.495621       -13.4865
  51   2.0000      -0.480864       -13.0850
  52   2.0000      -0.473201       -12.8765
  53   2.0000      -0.468405       -12.7460
  54   2.0000      -0.460718       -12.5368
  55   2.0000      -0.458192       -12.4680
  56   2.0000      -0.451597       -12.2886
  57   2.0000      -0.435076       -11.8390
  58   2.0000      -0.430275       -11.7084
  59   2.0000      -0.425701       -11.5839
  60   2.0000      -0.420202       -11.4343
  61   2.0000      -0.415415       -11.3040
  62   2.0000      -0.409995       -11.1565
  63   2.0000      -0.351306        -9.5595
  64   2.0000      -0.336090        -9.1455
  65   2.0000      -0.323021        -8.7899
  66   2.0000      -0.287525        -7.8239
  67   0.0000       0.026990         0.7344
  68   0.0000       0.076999         2.0953
  69   0.0000       0.117097         3.1864
  70   0.0000       0.124975         3.4007
  71   0.0000       0.138021         3.7557

MULLIKEN ATOMIC CHARGES
-----------------------
   0 S :    0.094504
   1 C :   -0.105906
   2 C :   -0.097319
   3 C :    0.028838
   4 C :   -0.154959
   5 H :    0.002445
   6 C :    0.045660
   7 H :    0.044142
   8 H :    0.022121
   9 C :   -0.090065
  10 H :    0.021961
  11 H :    0.020845
  12 C :   -0.043210
  13 H :    0.039674
  14 H :    0.037665
  15 H :    0.036385
  16 S :    0.131067
  17 C :   -0.084475
  18 C :   -0.051364
  19 C :   -0.072294
  20 C :   -0.133033
  21 H :    0.031506
  22 C :    0.071619
  23 H :    0.039126
  24 H :    0.046342
  25 C :   -0.130138
  26 H :    0.025195
  27 H :    0.025267
  28 C :    0.018043
  29 H :    0.025861
  30 H :    0.017207
  31 H :    0.021824
  32 H :    0.052689
  33 H :    0.062777
Sum of atomic charges:   -0.0000000

LOEWDIN ATOMIC CHARGES
----------------------
   0 S :    0.413552
   1 C :   -0.215812
   2 C :   -0.067672
   3 C :   -0.065677
   4 C :   -0.192950
   5 H :    0.027685
   6 C :   -0.035774
   7 H :    0.032954
   8 H :    0.031234
   9 C :   -0.043090
  10 H :    0.018573
  11 H :    0.020307
  12 C :   -0.065371
  13 H :    0.025092
  14 H :    0.028822
  15 H :    0.032704
  16 S :    0.440064
  17 C :   -0.204801
  18 C :   -0.084722
  19 C :   -0.045832
  20 C :   -0.211373
  21 H :    0.039927
  22 C :   -0.030965
  23 H :    0.031685
  24 H :    0.037833
  25 C :   -0.042904
  26 H :    0.022232
  27 H :    0.014589
  28 C :   -0.043641
  29 H :    0.017108
  30 H :    0.027025
  31 H :    0.017350
  32 H :    0.038307
  33 H :    0.033542

  Mayer bond orders larger than 0.100000
B(  0-S ,  1-C ) :   1.1309 B(  0-S ,  4-C ) :   1.1567 B(  1-C ,  2-C ) :   1.6208
B(  1-C , 32-H ) :   0.9661 B(  2-C ,  3-C ) :   1.2132 B(  2-C ,  6-C ) :   1.0317
B(  3-C ,  4-C ) :   1.5926 B(  3-C ,  5-H ) :   0.9944 B(  4-C , 20-C ) :   1.0313
B(  6-C ,  7-H ) :   0.9341 B(  6-C ,  8-H ) :   0.9440 B(  6-C ,  9-C ) :   1.0574
B(  9-C , 10-H ) :   0.9504 B(  9-C , 11-H ) :   0.9592 B(  9-C , 12-C ) :   1.0863
B( 12-C , 13-H ) :   0.9755 B( 12-C , 14-H ) :   0.9758 B( 12-C , 15-H ) :   0.9731
B( 16-S , 17-C ) :   1.2033 B( 16-S , 20-C ) :   1.1507 B( 17-C , 18-C ) :   1.5465
B( 17-C , 20-C ) :   0.1039 B( 17-C , 33-H ) :   0.9544 B( 18-C , 19-C ) :   1.3139
B( 18-C , 21-H ) :   0.9847 B( 19-C , 20-C ) :   1.5436 B( 19-C , 22-C ) :   1.0142
B( 22-C , 23-H ) :   0.9450 B( 22-C , 24-H ) :   0.9265 B( 22-C , 25-C ) :   1.0778
B( 25-C , 26-H ) :   0.9529 B( 25-C , 27-H ) :   0.9571 B( 25-C , 28-C ) :   1.0773
B( 28-C , 29-H ) :   0.9774 B( 28-C , 30-H ) :   0.9745 B( 28-C , 31-H ) :   0.9721

Dispersion correction           -0.013204920
FINAL SINGLE POINT ENERGY     -1339.874866554149

DIPOLE MOMENT
-------------
                                X             Y             Z
Electronic contribution:     -4.17715      23.67998     -17.99570
Nuclear contribution   :      4.00589     -24.27535      18.36141
                        -----------------------------------------
Total Dipole Moment    :     -0.17126      -0.59537       0.36571
                        -----------------------------------------
Magnitude (a.u.)       :      0.71940
Magnitude (Debye)      :      1.82857

Rotational constants in cm-1:     0.015849     0.008360     0.006262
Rotational constants in MHz :   475.135981   250.640610   187.718218

                             ****ORCA TERMINATED NORMALLY****
TOTAL RUN TIME: 0 days 0 hours 0 minutes 33 seconds 29 msec
