                         Program Version 4.2.1 -  RELEASE  -
|  1> ! wB97X-D3 SP def2-SVP
|  2> %pal
|  3> nprocs 16
|  4> end
|  5>
|  6> * xyz 0 1
|  7> S 	 24.7918 	 -0.174885 	 83.589
|  8> C 	 25.7923 	 1.10062 	 84.0822
|  9> C 	 25.0909 	 2.21267 	 84.3819
| 10> C 	 23.6909 	 2.13606 	 84.1395
| 11> C 	 23.3339 	 0.865444 	 83.6782
| 12> H 	 22.9376 	 2.93139 	 84.1322
| 13> C 	 25.7329 	 3.52558 	 84.8103
| 14> H 	 26.6379 	 3.5971 	 85.4799
| 15> H 	 25.0789 	 3.83524 	 85.5268
| 16> C 	 25.8916 	 4.5428 	 83.664
| 17> H 	 26.854 	 4.4721 	 83.1138
| 18> H 	 25.1671 	 4.40685 	 82.8398
| 19> C 	 25.8207 	 5.97631 	 84.1556
| 20> H 	 25.9985 	 6.57691 	 83.266
| 21> H 	 24.7306 	 6.10635 	 84.3524
| 22> H 	 26.473 	 6.32252 	 84.9503
| 23> S 	 20.6204 	 0.56671 	 84.2986
| 24> C 	 19.4948 	 0.169235 	 83.0421
| 25> C 	 20.1244 	 -0.0658046 	 81.8606
| 26> C 	 21.536 	 0.128432 	 81.9065
| 27> C 	 22.004 	 0.496042 	 83.1928
| 28> H 	 19.4853 	 -0.432834 	 81.1121
| 29> C 	 22.4858 	 -0.13074 	 80.7706
| 30> H 	 23.3342 	 0.569335 	 80.7314
| 31> H 	 21.9412 	 -0.0428007 	 79.831
| 32> C 	 22.8446 	 -1.61385 	 80.6321
| 33> H 	 22.0004 	 -2.25893 	 80.2049
| 34> H 	 23.1625 	 -2.08806 	 81.6265
| 35> C 	 24.0488 	 -1.81558 	 79.6623
| 36> H 	 24.9375 	 -1.35335 	 80.1175
| 37> H 	 23.8774 	 -1.26515 	 78.7517
| 38> H 	 24.3545 	 -2.87829 	 79.4623
| 39> H 	 26.8752 	 0.91965 	 84.2595
| 40> H 	 18.3642 	 0.130303 	 83.1091
| 41> *
| 42>
| 43>                          ****END OF INPUT****

CARTESIAN COORDINATES (ANGSTROEM)
---------------------------------
  S     24.791800   -0.174885   83.589000
  C     25.792300    1.100620   84.082200
  C     25.090900    2.212670   84.381900
  C     23.690900    2.136060   84.139500
  C     23.333900    0.865444   83.678200
  H     22.937600    2.931390   84.132200
  C     25.732900    3.525580   84.810300
  H     26.637900    3.597100   85.479900
  H     25.078900    3.835240   85.526800
  C     25.891600    4.542800   83.664000
  H     26.854000    4.472100   83.113800
  H     25.167100    4.406850   82.839800
  C     25.820700    5.976310   84.155600
  H     25.998500    6.576910   83.266000
  H     24.730600    6.106350   84.352400
  H     26.473000    6.322520   84.950300
  S     20.620400    0.566710   84.298600
  C     19.494800    0.169235   83.042100
  C     20.124400   -0.065805   81.860600
  C     21.536000    0.128432   81.906500
  C     22.004000    0.496042   83.192800
  H     19.485300   -0.432834   81.112100
  C     22.485800   -0.130740   80.770600
  H     23.334200    0.569335   80.731400
  H     21.941200   -0.042801   79.831000
  C     22.844600   -1.613850   80.632100
  H     22.000400   -2.258930   80.204900
  H     23.162500   -2.088060   81.626500
  C     24.048800   -1.815580   79.662300
  H     24.937500   -1.353350   80.117500
  H     23.877400   -1.265150   78.751700
  H     24.354500   -2.878290   79.462300
  H     26.875200    0.919650   84.259500
  H     18.364200    0.130303   83.109100

 Total Charge           Charge          ....    0
 Multiplicity           Mult            ....    1
 Number of Electrons    NEL             ....  134
 Basis Dimension        Dim             ....  322

ORBITAL ENERGIES
----------------

  NO   OCC          E(Eh)            E(eV)
   0   2.0000     -88.966998     -2420.9151
   1   2.0000     -88.964804     -2420.8554
   2   2.0000     -10.334955      -281.2284
   3   2.0000     -10.329150      -281.0705
   4   2.0000     -10.318256      -280.7740
   5   2.0000     -10.311174      -280.5813
   6   2.0000     -10.306788      -280.4620
   7   2.0000     -10.300890      -280.3015
   8   2.0000     -10.299229      -280.2563
   9   2.0000     -10.294717      -280.1335
  10   2.0000     -10.290433      -280.0169
  11   2.0000     -10.288219      -279.9567
  12   2.0000     -10.287572      -279.9391
  13   2.0000     -10.286284      -279.9040
  14   2.0000     -10.277346      -279.6608
  15   2.0000     -10.276638      -279.6415
  16   2.0000      -8.081859      -219.9186
  17   2.0000      -8.079361      -219.8506
  18   2.0000      -6.040286      -164.3646
  19   2.0000      -6.037873      -164.2989
  20   2.0000      -6.036301      -164.2561
  21   2.0000      -6.033794      -164.1879
  22   2.0000      -6.032739      -164.1592
  23   2.0000      -6.030223      -164.0907
  24   2.0000      -1.006840       -27.3975
  25   2.0000      -0.987880       -26.8816
  26   2.0000      -0.911065       -24.7913
  27   2.0000      -0.906116       -24.6567
  28   2.0000      -0.873649       -23.7732
  29   2.0000      -0.853445       -23.2234
  30   2.0000      -0.843537       -22.9538
  31   2.0000      -0.817056       -22.2332
  32   2.0000      -0.780728       -21.2447
  33   2.0000      -0.766079       -20.8461
  34   2.0000      -0.703019       -19.1301
  35   2.0000      -0.697745       -18.9866
  36   2.0000      -0.684474       -18.6255
  37   2.0000      -0.659316       -17.9409
  38   2.0000      -0.644326       -17.5330
  39   2.0000      -0.620143       -16.8749
  40   2.0000      -0.594738       -16.1836
  41   2.0000      -0.572851       -15.5881
  42   2.0000      -0.559424       -15.2227
  43   2.0000      -0.553332       -15.0569
  44   2.0000      -0.532013       -14.4768
  45   2.0000      -0.520346       -14.1593
  46   2.0000      -0.514216       -13.9925
  47   2.0000      -0.513516       -13.9735
  48   2.0000      -0.505861       -13.7652
  49   2.0000      -0.499642       -13.5960
  50   2.0000      -0.496132       -13.5004
  51   2.0000      -0.477360       -12.9896
  52   2.0000      -0.468514       -12.7489
  53   2.0000      -0.464644       -12.6436
  54   2.0000      -0.459924       -12.5152
  55   2.0000      -0.449777       -12.2391
  56   2.0000      -0.441046       -12.0015
  57   2.0000      -0.436112       -11.8672
  58   2.0000      -0.432180       -11.7602
  59   2.0000      -0.421709       -11.4753
  60   2.0000      -0.418417       -11.3857
  61   2.0000      -0.406034       -11.0487
  62   2.0000      -0.398368       -10.8402
  63   2.0000      -0.345975        -9.4145
  64   2.0000      -0.334007        -9.0888
  65   2.0000      -0.325923        -8.8688
  66   2.0000      -0.297624        -8.0988
  67   0.0000       0.031719         0.8631
  68   0.0000       0.068108         1.8533
  69   0.0000       0.113981         3.1016
  70   0.0000       0.118622         3.2279
  71   0.0000       0.131161         3.5691

MULLIKEN ATOMIC CHARGES
-----------------------
   0 S :    0.113706
   1 C :   -0.133426
   2 C :   -0.065156
   3 C :    0.029089
   4 C :   -0.169095
   5 H :    0.031094
   6 C :    0.095147
   7 H :    0.026099
   8 H :   -0.005760
   9 C :   -0.090769
  10 H :    0.027946
  11 H :    0.032743
  12 C :   -0.062704
  13 H :    0.026993
  14 H :    0.032626
  15 H :    0.046069
  16 S :    0.109354
  17 C :   -0.116413
  18 C :   -0.025502
  19 C :    0.000539
  20 C :   -0.175663
  21 H :    0.000874
  22 C :    0.071776
  23 H :    0.046018
  24 H :    0.013867
  25 C :   -0.129180
  26 H :    0.045215
  27 H :    0.039408
  28 C :   -0.050524
  29 H :    0.025198
  30 H :    0.020944
  31 H :    0.044497
  32 H :    0.068055
  33 H :    0.076936
Sum of atomic charges:    0.0000000

LOEWDIN ATOMIC CHARGES
----------------------
   0 S :    0.415115
   1 C :   -0.210970
   2 C :   -0.070465
   3 C :   -0.051343
   4 C :   -0.185976
   5 H :    0.039113
   6 C :   -0.037723
   7 H :    0.039269
   8 H :    0.016868
   9 C :   -0.044631
  10 H :    0.023764
  11 H :    0.027033
  12 C :   -0.068914
  13 H :    0.026623
  14 H :    0.028996
  15 H :    0.024501
  16 S :    0.405604
  17 C :   -0.197735
  18 C :   -0.075827
  19 C :   -0.047224
  20 C :   -0.199845
  21 H :    0.027026
  22 C :   -0.040869
  23 H :    0.034466
  24 H :    0.034114
  25 C :   -0.047264
  26 H :    0.029628
  27 H :    0.021112
  28 C :   -0.072532
  29 H :    0.022969
  30 H :    0.017571
  31 H :    0.030927
  32 H :    0.039941
  33 H :    0.046678

  Mayer bond orders larger than 0.100000
B(  0-S ,  1-C ) :   1.1474 B(  0-S ,  4-C ) :   1.1473 B(  1-C ,  2-C ) :   1.6196
B(  1-C , 32-H ) :   0.9635 B(  2-C ,  3-C ) :   1.2388 B(  2-C ,  6-C ) :   1.0090
B(  3-C ,  4-C ) :   1.5748 B(  3-C ,  5-H ) :   0.9899 B(  4-C , 20-C ) :   1.0425
B(  6-C ,  7-H ) :   0.9423 B(  6-C ,  8-H ) :   0.9386 B(  6-C ,  9-C ) :   1.0454
B(  9-C , 10-H ) :   0.9571 B(  9-C , 11-H ) :   0.9623 B(  9-C , 12-C ) :   1.0747
B( 12-C , 13-H ) :   0.9718 B( 12-C , 14-H ) :   0.9779 B( 12-C , 15-H ) :   0.9773
B( 16-S , 17-C ) :   1.1601 B( 16-S , 20-C ) :   1.1412 B( 17-C , 18-C ) :   1.6211
B( 17-C , 33-H ) :   0.9541 B( 18-C , 19-C ) :   1.2343 B( 18-C , 21-H ) :   0.9994
B( 19-C , 20-C ) :   1.5603 B( 19-C , 22-C ) :   1.0660 B( 22-C , 23-H ) :   0.9411
B( 22-C , 24-H ) :   0.9200 B( 22-C , 25-C ) :   1.0390 B( 25-C , 26-H ) :   0.9581
B( 25-C , 27-H ) :   0.9587 B( 25-C , 28-C ) :   1.0734 B( 28-C , 29-H ) :   0.9756
B( 28-C , 30-H ) :   0.9716 B( 28-C , 31-H ) :   0.9749

Dispersion correction           -0.014525271
FINAL SINGLE POINT ENERGY     -1339.868028843593

DIPOLE MOMENT
-------------
                                X             Y             Z
Electronic contribution:    -12.27570     -10.38393      11.86619
Nuclear contribution   :     12.37841      10.71641     -12.18042
                        -----------------------------------------
Total Dipole Moment    :      0.10271       0.33247      -0.31423
                        -----------------------------------------
Magnitude (a.u.)       :      0.46886
Magnitude (Debye)      :      1.19175

Rotational constants in cm-1:     0.018380     0.008344     0.006841
Rotational constants in MHz :   551.026773   250.152753   205.088831

                             ****ORCA TERMINATED NORMALLY****
TOTAL RUN TIME: 0 days 0 hours 0 minutes 34 seconds 451 msec
