                         Program Version 4.2.1 -  RELEASE  -
|  1> ! wB97X-D3 SP def2-SVP
|  2> %pal
|  3> nprocs 16
|  4> end
|  5>
|  6> * xyz 0 1
|  7> S 	 -11.0855 	 45.161 	 37.9596
|  8> C 	 -12.1935 	 44.0535 	 37.1036
|  9> C 	 -12.3975 	 42.8658 	 37.8448
| 10> C 	 -11.5367 	 42.8196 	 38.9809
| 11> C 	 -10.7253 	 43.9036 	 39.1053
| 12> H 	 -11.4365 	 42.0826 	 39.7482
| 13> C 	 -13.2132 	 41.6583 	 37.4791
| 14> H 	 -12.6263 	 40.9673 	 36.7734
| 15> H 	 -14.1138 	 41.9772 	 36.9933
| 16> C 	 -13.7063 	 40.7572 	 38.7145
| 17> H 	 -12.8596 	 40.1751 	 39.1137
| 18> H 	 -14.2103 	 41.2682 	 39.5048
| 19> C 	 -14.679 	 39.6333 	 38.3306
| 20> H 	 -15.6755 	 39.972 	 37.9596
| 21> H 	 -14.1871 	 39.1111 	 37.4805
| 22> H 	 -14.9903 	 38.9729 	 39.1646
| 23> S 	 -10.461 	 44.0527 	 41.8661
| 24> C 	 -8.84737 	 44.3026 	 42.5391
| 25> C 	 -7.9345 	 44.4948 	 41.5349
| 26> C 	 -8.4344 	 44.4117 	 40.204
| 27> C 	 -9.80563 	 44.1351 	 40.1979
| 28> H 	 -6.86697 	 44.7166 	 41.6731
| 29> C 	 -7.47389 	 44.4894 	 39.0369
| 30> H 	 -6.71088 	 45.156 	 39.3481
| 31> H 	 -8.04283 	 45.0355 	 38.3237
| 32> C 	 -6.85817 	 43.2431 	 38.4579
| 33> H 	 -7.64519 	 42.4145 	 38.4389
| 34> H 	 -6.13877 	 42.9882 	 39.1773
| 35> C 	 -6.12989 	 43.4072 	 37.1335
| 36> H 	 -5.11621 	 43.9145 	 37.1718
| 37> H 	 -6.7517 	 43.984 	 36.4577
| 38> H 	 -5.97839 	 42.4186 	 36.7127
| 39> H 	 -12.7228 	 44.1932 	 36.2063
| 40> H 	 -8.57135 	 44.2201 	 43.6048
| 41> *
| 42>
| 43>                          ****END OF INPUT****

CARTESIAN COORDINATES (ANGSTROEM)
---------------------------------
  S    -11.085500   45.161000   37.959600
  C    -12.193500   44.053500   37.103600
  C    -12.397500   42.865800   37.844800
  C    -11.536700   42.819600   38.980900
  C    -10.725300   43.903600   39.105300
  H    -11.436500   42.082600   39.748200
  C    -13.213200   41.658300   37.479100
  H    -12.626300   40.967300   36.773400
  H    -14.113800   41.977200   36.993300
  C    -13.706300   40.757200   38.714500
  H    -12.859600   40.175100   39.113700
  H    -14.210300   41.268200   39.504800
  C    -14.679000   39.633300   38.330600
  H    -15.675500   39.972000   37.959600
  H    -14.187100   39.111100   37.480500
  H    -14.990300   38.972900   39.164600
  S    -10.461000   44.052700   41.866100
  C     -8.847370   44.302600   42.539100
  C     -7.934500   44.494800   41.534900
  C     -8.434400   44.411700   40.204000
  C     -9.805630   44.135100   40.197900
  H     -6.866970   44.716600   41.673100
  C     -7.473890   44.489400   39.036900
  H     -6.710880   45.156000   39.348100
  H     -8.042830   45.035500   38.323700
  C     -6.858170   43.243100   38.457900
  H     -7.645190   42.414500   38.438900
  H     -6.138770   42.988200   39.177300
  C     -6.129890   43.407200   37.133500
  H     -5.116210   43.914500   37.171800
  H     -6.751700   43.984000   36.457700
  H     -5.978390   42.418600   36.712700
  H    -12.722800   44.193200   36.206300
  H     -8.571350   44.220100   43.604800

 Total Charge           Charge          ....    0
 Multiplicity           Mult            ....    1
 Number of Electrons    NEL             ....  134
 Basis Dimension        Dim             ....  322

ORBITAL ENERGIES
----------------

  NO   OCC          E(Eh)            E(eV)
   0   2.0000     -88.970149     -2421.0008
   1   2.0000     -88.966892     -2420.9122
   2   2.0000     -10.327616      -281.0287
   3   2.0000     -10.322628      -280.8930
   4   2.0000     -10.320074      -280.8235
   5   2.0000     -10.316180      -280.7175
   6   2.0000     -10.305331      -280.4223
   7   2.0000     -10.303935      -280.3843
   8   2.0000     -10.301392      -280.3151
   9   2.0000     -10.291476      -280.0453
  10   2.0000     -10.291261      -280.0394
  11   2.0000     -10.286940      -279.9219
  12   2.0000     -10.284480      -279.8549
  13   2.0000     -10.282892      -279.8117
  14   2.0000     -10.280438      -279.7449
  15   2.0000     -10.279854      -279.7291
  16   2.0000      -8.083952      -219.9755
  17   2.0000      -8.080498      -219.8815
  18   2.0000      -6.042494      -164.4246
  19   2.0000      -6.039165      -164.3340
  20   2.0000      -6.038671      -164.3206
  21   2.0000      -6.035156      -164.2249
  22   2.0000      -6.034645      -164.2110
  23   2.0000      -6.031174      -164.1166
  24   2.0000      -1.003681       -27.3116
  25   2.0000      -0.978929       -26.6380
  26   2.0000      -0.912232       -24.8231
  27   2.0000      -0.905857       -24.6496
  28   2.0000      -0.868131       -23.6230
  29   2.0000      -0.852893       -23.2084
  30   2.0000      -0.847514       -23.0620
  31   2.0000      -0.811298       -22.0765
  32   2.0000      -0.783833       -21.3292
  33   2.0000      -0.768672       -20.9166
  34   2.0000      -0.709101       -19.2956
  35   2.0000      -0.697468       -18.9791
  36   2.0000      -0.688793       -18.7430
  37   2.0000      -0.666752       -18.1432
  38   2.0000      -0.636642       -17.3239
  39   2.0000      -0.615640       -16.7524
  40   2.0000      -0.594209       -16.1692
  41   2.0000      -0.572742       -15.5851
  42   2.0000      -0.566957       -15.4277
  43   2.0000      -0.558546       -15.1988
  44   2.0000      -0.527227       -14.3466
  45   2.0000      -0.521881       -14.2011
  46   2.0000      -0.514725       -14.0064
  47   2.0000      -0.511120       -13.9083
  48   2.0000      -0.506076       -13.7710
  49   2.0000      -0.496207       -13.5025
  50   2.0000      -0.484653       -13.1881
  51   2.0000      -0.479956       -13.0603
  52   2.0000      -0.471907       -12.8413
  53   2.0000      -0.463260       -12.6059
  54   2.0000      -0.458771       -12.4838
  55   2.0000      -0.449466       -12.2306
  56   2.0000      -0.446767       -12.1571
  57   2.0000      -0.436052       -11.8656
  58   2.0000      -0.431574       -11.7437
  59   2.0000      -0.424364       -11.5475
  60   2.0000      -0.420189       -11.4339
  61   2.0000      -0.414933       -11.2909
  62   2.0000      -0.412487       -11.2243
  63   2.0000      -0.336850        -9.1662
  64   2.0000      -0.334296        -9.0966
  65   2.0000      -0.329702        -8.9716
  66   2.0000      -0.295291        -8.0353
  67   0.0000       0.028131         0.7655
  68   0.0000       0.067304         1.8314
  69   0.0000       0.101146         2.7523
  70   0.0000       0.114884         3.1262
  71   0.0000       0.126441         3.4406

MULLIKEN ATOMIC CHARGES
-----------------------
   0 S :    0.123937
   1 C :   -0.098253
   2 C :   -0.065223
   3 C :    0.008091
   4 C :   -0.134567
   5 H :    0.004473
   6 C :    0.045427
   7 H :    0.062894
   8 H :    0.022929
   9 C :   -0.099943
  10 H :    0.043014
  11 H :    0.036799
  12 C :   -0.081233
  13 H :    0.026935
  14 H :    0.031480
  15 H :    0.046211
  16 S :    0.106527
  17 C :   -0.097009
  18 C :   -0.031330
  19 C :   -0.063276
  20 C :   -0.190041
  21 H :    0.019826
  22 C :    0.121941
  23 H :    0.001923
  24 H :   -0.004002
  25 C :   -0.039706
  26 H :    0.043979
  27 H :    0.008736
  28 C :   -0.051193
  29 H :    0.041924
  30 H :    0.029996
  31 H :    0.036657
  32 H :    0.022179
  33 H :    0.069896
Sum of atomic charges:   -0.0000000

LOEWDIN ATOMIC CHARGES
----------------------
   0 S :    0.406636
   1 C :   -0.185474
   2 C :   -0.058552
   3 C :   -0.062637
   4 C :   -0.197901
   5 H :    0.027334
   6 C :   -0.032211
   7 H :    0.046349
   8 H :    0.026058
   9 C :   -0.042582
  10 H :    0.027669
  11 H :    0.021654
  12 C :   -0.074741
  13 H :    0.021642
  14 H :    0.025657
  15 H :    0.031621
  16 S :    0.386369
  17 C :   -0.186614
  18 C :   -0.075191
  19 C :   -0.052108
  20 C :   -0.187911
  21 H :    0.032563
  22 C :   -0.030851
  23 H :    0.025265
  24 H :    0.018629
  25 C :   -0.039948
  26 H :    0.035553
  27 H :    0.017614
  28 C :   -0.065834
  29 H :    0.032826
  30 H :    0.023168
  31 H :    0.029301
  32 H :    0.018272
  33 H :    0.038373

  Mayer bond orders larger than 0.100000
B(  0-S ,  1-C ) :   1.1291 B(  0-S ,  4-C ) :   1.1423 B(  1-C ,  2-C ) :   1.6132
B(  1-C , 32-H ) :   0.9762 B(  2-C ,  3-C ) :   1.2131 B(  2-C ,  6-C ) :   1.0322
B(  3-C ,  4-C ) :   1.5921 B(  3-C ,  5-H ) :   1.0003 B(  4-C , 20-C ) :   1.0487
B(  6-C ,  7-H ) :   0.9350 B(  6-C ,  8-H ) :   0.9410 B(  6-C ,  9-C ) :   1.0618
B(  9-C , 10-H ) :   0.9485 B(  9-C , 11-H ) :   0.9641 B(  9-C , 12-C ) :   1.0814
B( 12-C , 13-H ) :   0.9745 B( 12-C , 14-H ) :   0.9746 B( 12-C , 15-H ) :   0.9738
B( 16-S , 17-C ) :   1.1407 B( 16-S , 20-C ) :   1.1309 B( 17-C , 18-C ) :   1.6069
B( 17-C , 33-H ) :   0.9631 B( 18-C , 19-C ) :   1.2617 B( 18-C , 21-H ) :   0.9794
B( 19-C , 20-C ) :   1.5802 B( 19-C , 22-C ) :   1.0430 B( 22-C , 23-H ) :   0.9229
B( 22-C , 24-H ) :   0.9123 B( 22-C , 25-C ) :   1.0655 B( 25-C , 26-H ) :   0.9563
B( 25-C , 27-H ) :   0.9480 B( 25-C , 28-C ) :   1.0834 B( 28-C , 29-H ) :   0.9733
B( 28-C , 30-H ) :   0.9772 B( 28-C , 31-H ) :   0.9726

Dispersion correction           -0.013822538
FINAL SINGLE POINT ENERGY     -1339.873302397555

DIPOLE MOMENT
-------------
                                X             Y             Z
Electronic contribution:     -2.33040      17.42802      11.48237
Nuclear contribution   :      2.51071     -17.85375     -11.61351
                        -----------------------------------------
Total Dipole Moment    :      0.18031      -0.42573      -0.13114
                        -----------------------------------------
Magnitude (a.u.)       :      0.48058
Magnitude (Debye)      :      1.22154

Rotational constants in cm-1:     0.017399     0.008135     0.006934
Rotational constants in MHz :   521.618740   243.885221   207.889582

                             ****ORCA TERMINATED NORMALLY****
TOTAL RUN TIME: 0 days 0 hours 0 minutes 31 seconds 316 msec
