                         Program Version 4.2.1 -  RELEASE  -
|  1> ! wB97X-D3 SP def2-SVP
|  2> %pal
|  3> nprocs 16
|  4> end
|  5>
|  6> * xyz 0 1
|  7> S 	 -23.4935 	 59.103 	 105.24
|  8> C 	 -25.172 	 59.1235 	 104.79
|  9> C 	 -26.1216 	 59.3728 	 105.839
| 10> C 	 -25.3678 	 59.3566 	 107.094
| 11> C 	 -24.0655 	 59.0912 	 106.915
| 12> H 	 -25.7381 	 59.5368 	 108.133
| 13> C 	 -27.6293 	 59.2507 	 105.791
| 14> H 	 -27.9884 	 58.5014 	 106.472
| 15> H 	 -27.8871 	 58.9175 	 104.73
| 16> C 	 -28.4386 	 60.5017 	 106.294
| 17> H 	 -29.5071 	 60.3119 	 106.387
| 18> H 	 -28.0434 	 60.7927 	 107.246
| 19> C 	 -28.3646 	 61.6444 	 105.303
| 20> H 	 -28.7387 	 61.3091 	 104.386
| 21> H 	 -29.0432 	 62.4929 	 105.568
| 22> H 	 -27.3261 	 62.0951 	 105.144
| 23> S 	 -21.8879 	 60.4264 	 107.826
| 24> C 	 -21.2955 	 60.0265 	 109.431
| 25> C 	 -22.0783 	 59.0575 	 110.073
| 26> C 	 -23.1284 	 58.5997 	 109.263
| 27> C 	 -23.1201 	 59.1986 	 108.006
| 28> H 	 -21.8176 	 58.6344 	 111.103
| 29> C 	 -24.1641 	 57.5657 	 109.643
| 30> H 	 -23.6375 	 56.6855 	 109.851
| 31> H 	 -24.7665 	 57.3598 	 108.797
| 32> C 	 -24.926 	 57.8528 	 110.984
| 33> H 	 -24.1037 	 57.8168 	 111.706
| 34> H 	 -25.6465 	 57.0914 	 111.194
| 35> C 	 -25.6459 	 59.2453 	 110.993
| 36> H 	 -25.0308 	 60.0317 	 110.513
| 37> H 	 -25.9102 	 59.6078 	 112.052
| 38> H 	 -26.6744 	 59.2021 	 110.476
| 39> H 	 -25.4222 	 58.883 	 103.744
| 40> H 	 -20.5047 	 60.6171 	 109.9
| 41> *
| 42>
| 43>                          ****END OF INPUT****

CARTESIAN COORDINATES (ANGSTROEM)
---------------------------------
  S    -23.493500   59.103000  105.240000
  C    -25.172000   59.123500  104.790000
  C    -26.121600   59.372800  105.839000
  C    -25.367800   59.356600  107.094000
  C    -24.065500   59.091200  106.915000
  H    -25.738100   59.536800  108.133000
  C    -27.629300   59.250700  105.791000
  H    -27.988400   58.501400  106.472000
  H    -27.887100   58.917500  104.730000
  C    -28.438600   60.501700  106.294000
  H    -29.507100   60.311900  106.387000
  H    -28.043400   60.792700  107.246000
  C    -28.364600   61.644400  105.303000
  H    -28.738700   61.309100  104.386000
  H    -29.043200   62.492900  105.568000
  H    -27.326100   62.095100  105.144000
  S    -21.887900   60.426400  107.826000
  C    -21.295500   60.026500  109.431000
  C    -22.078300   59.057500  110.073000
  C    -23.128400   58.599700  109.263000
  C    -23.120100   59.198600  108.006000
  H    -21.817600   58.634400  111.103000
  C    -24.164100   57.565700  109.643000
  H    -23.637500   56.685500  109.851000
  H    -24.766500   57.359800  108.797000
  C    -24.926000   57.852800  110.984000
  H    -24.103700   57.816800  111.706000
  H    -25.646500   57.091400  111.194000
  C    -25.645900   59.245300  110.993000
  H    -25.030800   60.031700  110.513000
  H    -25.910200   59.607800  112.052000
  H    -26.674400   59.202100  110.476000
  H    -25.422200   58.883000  103.744000
  H    -20.504700   60.617100  109.900000

 Total Charge           Charge          ....    0
 Multiplicity           Mult            ....    1
 Number of Electrons    NEL             ....  134
 Basis Dimension        Dim             ....  322

ORBITAL ENERGIES
----------------

  NO   OCC          E(Eh)            E(eV)
   0   2.0000     -88.970256     -2421.0038
   1   2.0000     -88.965886     -2420.8848
   2   2.0000     -10.322758      -280.8965
   3   2.0000     -10.321382      -280.8591
   4   2.0000     -10.319353      -280.8039
   5   2.0000     -10.318679      -280.7855
   6   2.0000     -10.313177      -280.6358
   7   2.0000     -10.300924      -280.3024
   8   2.0000     -10.300834      -280.2999
   9   2.0000     -10.297908      -280.2203
  10   2.0000     -10.295953      -280.1671
  11   2.0000     -10.292878      -280.0835
  12   2.0000     -10.292722      -280.0792
  13   2.0000     -10.287965      -279.9498
  14   2.0000     -10.282302      -279.7957
  15   2.0000     -10.274289      -279.5776
  16   2.0000      -8.085091      -220.0065
  17   2.0000      -8.080625      -219.8850
  18   2.0000      -6.043477      -164.4514
  19   2.0000      -6.039997      -164.3567
  20   2.0000      -6.038959      -164.3284
  21   2.0000      -6.035556      -164.2358
  22   2.0000      -6.035174      -164.2254
  23   2.0000      -6.031538      -164.1265
  24   2.0000      -1.008140       -27.4329
  25   2.0000      -0.980369       -26.6772
  26   2.0000      -0.909814       -24.7573
  27   2.0000      -0.906132       -24.6571
  28   2.0000      -0.867484       -23.6054
  29   2.0000      -0.853158       -23.2156
  30   2.0000      -0.843321       -22.9479
  31   2.0000      -0.808850       -22.0099
  32   2.0000      -0.781421       -21.2636
  33   2.0000      -0.767007       -20.8713
  34   2.0000      -0.705342       -19.1933
  35   2.0000      -0.696831       -18.9617
  36   2.0000      -0.689582       -18.7645
  37   2.0000      -0.654659       -17.8142
  38   2.0000      -0.640901       -17.4398
  39   2.0000      -0.616731       -16.7821
  40   2.0000      -0.595281       -16.1984
  41   2.0000      -0.559786       -15.2325
  42   2.0000      -0.550397       -14.9771
  43   2.0000      -0.549272       -14.9465
  44   2.0000      -0.544211       -14.8087
  45   2.0000      -0.539349       -14.6764
  46   2.0000      -0.517100       -14.0710
  47   2.0000      -0.510834       -13.9005
  48   2.0000      -0.490929       -13.3589
  49   2.0000      -0.488827       -13.3017
  50   2.0000      -0.484528       -13.1847
  51   2.0000      -0.474358       -12.9079
  52   2.0000      -0.466386       -12.6910
  53   2.0000      -0.463349       -12.6084
  54   2.0000      -0.454385       -12.3644
  55   2.0000      -0.451946       -12.2981
  56   2.0000      -0.448374       -12.2009
  57   2.0000      -0.435079       -11.8391
  58   2.0000      -0.431736       -11.7481
  59   2.0000      -0.428007       -11.6467
  60   2.0000      -0.425377       -11.5751
  61   2.0000      -0.422570       -11.4987
  62   2.0000      -0.417714       -11.3666
  63   2.0000      -0.350668        -9.5422
  64   2.0000      -0.333459        -9.0739
  65   2.0000      -0.325395        -8.8544
  66   2.0000      -0.285059        -7.7568
  67   0.0000       0.033688         0.9167
  68   0.0000       0.060049         1.6340
  69   0.0000       0.101515         2.7624
  70   0.0000       0.113395         3.0856
  71   0.0000       0.128346         3.4925

MULLIKEN ATOMIC CHARGES
-----------------------
   0 S :    0.113460
   1 C :   -0.130901
   2 C :   -0.048091
   3 C :    0.004141
   4 C :   -0.155112
   5 H :    0.026273
   6 C :    0.028558
   7 H :    0.036818
   8 H :    0.032917
   9 C :   -0.059771
  10 H :    0.032664
  11 H :    0.026652
  12 C :   -0.064640
  13 H :    0.008866
  14 H :    0.031856
  15 H :    0.050625
  16 S :    0.108062
  17 C :   -0.107999
  18 C :   -0.061112
  19 C :   -0.066466
  20 C :   -0.158881
  21 H :    0.046960
  22 C :    0.117562
  23 H :    0.014793
  24 H :    0.017500
  25 C :   -0.058912
  26 H :    0.027932
  27 H :    0.034724
  28 C :   -0.124416
  29 H :    0.063905
  30 H :    0.045639
  31 H :    0.046536
  32 H :    0.057534
  33 H :    0.062325
Sum of atomic charges:    0.0000000

LOEWDIN ATOMIC CHARGES
----------------------
   0 S :    0.396018
   1 C :   -0.195377
   2 C :   -0.057939
   3 C :   -0.056901
   4 C :   -0.192895
   5 H :    0.041332
   6 C :   -0.032796
   7 H :    0.031301
   8 H :    0.036003
   9 C :   -0.036706
  10 H :    0.027796
  11 H :    0.019725
  12 C :   -0.071136
  13 H :    0.012626
  14 H :    0.027559
  15 H :    0.033574
  16 S :    0.402955
  17 C :   -0.188801
  18 C :   -0.078608
  19 C :   -0.065298
  20 C :   -0.196093
  21 H :    0.044658
  22 C :   -0.024087
  23 H :    0.027573
  24 H :    0.022478
  25 C :   -0.031471
  26 H :    0.022618
  27 H :    0.023386
  28 C :   -0.086488
  29 H :    0.028192
  30 H :    0.033229
  31 H :    0.029933
  32 H :    0.025295
  33 H :    0.028346

  Mayer bond orders larger than 0.100000
B(  0-S ,  1-C ) :   1.1437 B(  0-S ,  4-C ) :   1.1185 B(  1-C ,  2-C ) :   1.6150
B(  1-C , 32-H ) :   0.9622 B(  2-C ,  3-C ) :   1.1860 B(  2-C ,  6-C ) :   1.0289
B(  3-C ,  4-C ) :   1.6370 B(  3-C ,  5-H ) :   0.9733 B(  4-C , 20-C ) :   1.0254
B(  6-C ,  7-H ) :   0.9464 B(  6-C ,  8-H ) :   0.9485 B(  6-C ,  9-C ) :   1.0576
B(  9-C , 10-H ) :   0.9567 B(  9-C , 11-H ) :   0.9572 B(  9-C , 12-C ) :   1.0785
B( 12-C , 13-H ) :   0.9738 B( 12-C , 14-H ) :   0.9745 B( 12-C , 15-H ) :   0.9754
B( 16-S , 17-C ) :   1.1575 B( 16-S , 20-C ) :   1.1531 B( 17-C , 18-C ) :   1.5924
B( 17-C , 20-C ) :   0.1050 B( 17-C , 33-H ) :   0.9676 B( 18-C , 19-C ) :   1.2524
B( 18-C , 21-H ) :   0.9766 B( 19-C , 20-C ) :   1.5948 B( 19-C , 22-C ) :   1.0444
B( 22-C , 23-H ) :   0.9260 B( 22-C , 24-H ) :   0.9306 B( 22-C , 25-C ) :   1.0626
B( 25-C , 26-H ) :   0.9586 B( 25-C , 27-H ) :   0.9587 B( 25-C , 28-C ) :   1.0715
B( 28-C , 29-H ) :   0.9678 B( 28-C , 30-H ) :   0.9725 B( 28-C , 31-H ) :   0.9678

Dispersion correction           -0.015162103
FINAL SINGLE POINT ENERGY     -1339.869538735171

DIPOLE MOMENT
-------------
                                X             Y             Z
Electronic contribution:     25.40784      -0.56709     -10.28496
Nuclear contribution   :    -25.95589       0.38805      10.64388
                        -----------------------------------------
Total Dipole Moment    :     -0.54806      -0.17905       0.35892
                        -----------------------------------------
Magnitude (a.u.)       :      0.67915
Magnitude (Debye)      :      1.72627

Rotational constants in cm-1:     0.018503     0.009503     0.007369
Rotational constants in MHz :   554.720115   284.878524   220.919178

                             ****ORCA TERMINATED NORMALLY****
TOTAL RUN TIME: 0 days 0 hours 0 minutes 31 seconds 547 msec
