                         Program Version 4.2.1 -  RELEASE  -
|  1> ! wB97X-D3 SP def2-SVP
|  2> %pal
|  3> nprocs 16
|  4> end
|  5>
|  6> * xyz 0 1
|  7> S 	 -4.02876 	 58.7174 	 47.4514
|  8> C 	 -4.61379 	 57.9891 	 48.9949
|  9> C 	 -4.56777 	 56.6181 	 48.9451
| 10> C 	 -4.17179 	 56.1584 	 47.6617
| 11> C 	 -3.68732 	 57.0935 	 46.8318
| 12> H 	 -4.05687 	 55.1874 	 47.3581
| 13> C 	 -5.03236 	 55.6528 	 50.0682
| 14> H 	 -4.70036 	 56.1745 	 50.994
| 15> H 	 -4.52404 	 54.6889 	 50.0646
| 16> C 	 -6.53535 	 55.4998 	 50.2508
| 17> H 	 -6.96302 	 56.4776 	 50.086
| 18> H 	 -7.09583 	 54.905 	 49.5119
| 19> C 	 -6.91541 	 55.058 	 51.6475
| 20> H 	 -8.01424 	 54.9619 	 51.7158
| 21> H 	 -6.36068 	 54.1404 	 51.8363
| 22> H 	 -6.75444 	 55.8006 	 52.3614
| 23> S 	 -3.81026 	 58.0633 	 44.2646
| 24> C 	 -2.9472 	 57.1879 	 42.9878
| 25> C 	 -2.35525 	 56.0465 	 43.4581
| 26> C 	 -2.39551 	 55.9342 	 44.9047
| 27> C 	 -3.26453 	 56.8633 	 45.4358
| 28> H 	 -1.76575 	 55.4967 	 42.8369
| 29> C 	 -1.79773 	 54.6755 	 45.5414
| 30> H 	 -1.93756 	 54.8083 	 46.583
| 31> H 	 -0.713624 	 54.6088 	 45.3609
| 32> C 	 -2.31391 	 53.3063 	 45.1566
| 33> H 	 -1.78929 	 52.8618 	 44.2798
| 34> H 	 -3.43446 	 53.3726 	 44.9237
| 35> C 	 -2.11636 	 52.2145 	 46.1203
| 36> H 	 -1.16449 	 52.1737 	 46.6437
| 37> H 	 -2.37169 	 51.215 	 45.6601
| 38> H 	 -2.9109 	 52.3177 	 46.8925
| 39> H 	 -5.02332 	 58.582 	 49.7918
| 40> H 	 -2.74702 	 57.4861 	 42.0019
| 41> *
| 42>
| 43>                          ****END OF INPUT****

CARTESIAN COORDINATES (ANGSTROEM)
---------------------------------
  S     -4.028760   58.717400   47.451400
  C     -4.613790   57.989100   48.994900
  C     -4.567770   56.618100   48.945100
  C     -4.171790   56.158400   47.661700
  C     -3.687320   57.093500   46.831800
  H     -4.056870   55.187400   47.358100
  C     -5.032360   55.652800   50.068200
  H     -4.700360   56.174500   50.994000
  H     -4.524040   54.688900   50.064600
  C     -6.535350   55.499800   50.250800
  H     -6.963020   56.477600   50.086000
  H     -7.095830   54.905000   49.511900
  C     -6.915410   55.058000   51.647500
  H     -8.014240   54.961900   51.715800
  H     -6.360680   54.140400   51.836300
  H     -6.754440   55.800600   52.361400
  S     -3.810260   58.063300   44.264600
  C     -2.947200   57.187900   42.987800
  C     -2.355250   56.046500   43.458100
  C     -2.395510   55.934200   44.904700
  C     -3.264530   56.863300   45.435800
  H     -1.765750   55.496700   42.836900
  C     -1.797730   54.675500   45.541400
  H     -1.937560   54.808300   46.583000
  H     -0.713624   54.608800   45.360900
  C     -2.313910   53.306300   45.156600
  H     -1.789290   52.861800   44.279800
  H     -3.434460   53.372600   44.923700
  C     -2.116360   52.214500   46.120300
  H     -1.164490   52.173700   46.643700
  H     -2.371690   51.215000   45.660100
  H     -2.910900   52.317700   46.892500
  H     -5.023320   58.582000   49.791800
  H     -2.747020   57.486100   42.001900

 Total Charge           Charge          ....    0
 Multiplicity           Mult            ....    1
 Number of Electrons    NEL             ....  134
 Basis Dimension        Dim             ....  322

ORBITAL ENERGIES
----------------

  NO   OCC          E(Eh)            E(eV)
   0   2.0000     -88.967136     -2420.9189
   1   2.0000     -88.965668     -2420.8789
   2   2.0000     -10.330874      -281.1174
   3   2.0000     -10.327031      -281.0128
   4   2.0000     -10.318826      -280.7895
   5   2.0000     -10.313300      -280.6392
   6   2.0000     -10.305867      -280.4369
   7   2.0000     -10.304982      -280.4128
   8   2.0000     -10.298497      -280.2364
   9   2.0000     -10.291683      -280.0509
  10   2.0000     -10.289825      -280.0004
  11   2.0000     -10.285603      -279.8855
  12   2.0000     -10.283148      -279.8187
  13   2.0000     -10.282880      -279.8114
  14   2.0000     -10.282364      -279.7974
  15   2.0000     -10.274685      -279.5884
  16   2.0000      -8.081350      -219.9047
  17   2.0000      -8.079447      -219.8529
  18   2.0000      -6.040064      -164.3585
  19   2.0000      -6.038097      -164.3050
  20   2.0000      -6.036037      -164.2489
  21   2.0000      -6.034264      -164.2007
  22   2.0000      -6.031816      -164.1340
  23   2.0000      -6.029934      -164.0829
  24   2.0000      -1.005755       -27.3680
  25   2.0000      -0.981673       -26.7127
  26   2.0000      -0.917228       -24.9590
  27   2.0000      -0.913761       -24.8647
  28   2.0000      -0.871853       -23.7243
  29   2.0000      -0.857990       -23.3471
  30   2.0000      -0.846250       -23.0276
  31   2.0000      -0.821359       -22.3503
  32   2.0000      -0.784954       -21.3597
  33   2.0000      -0.775197       -21.0942
  34   2.0000      -0.702675       -19.1207
  35   2.0000      -0.701116       -19.0783
  36   2.0000      -0.690525       -18.7901
  37   2.0000      -0.665578       -18.1113
  38   2.0000      -0.648745       -17.6533
  39   2.0000      -0.623478       -16.9657
  40   2.0000      -0.598196       -16.2777
  41   2.0000      -0.578980       -15.7549
  42   2.0000      -0.574272       -15.6267
  43   2.0000      -0.555816       -15.1245
  44   2.0000      -0.532283       -14.4842
  45   2.0000      -0.529728       -14.4146
  46   2.0000      -0.523508       -14.2454
  47   2.0000      -0.512571       -13.9478
  48   2.0000      -0.509677       -13.8690
  49   2.0000      -0.498892       -13.5755
  50   2.0000      -0.494368       -13.4524
  51   2.0000      -0.486007       -13.2249
  52   2.0000      -0.475202       -12.9309
  53   2.0000      -0.462598       -12.5879
  54   2.0000      -0.459844       -12.5130
  55   2.0000      -0.452691       -12.3184
  56   2.0000      -0.441396       -12.0110
  57   2.0000      -0.438623       -11.9355
  58   2.0000      -0.431197       -11.7335
  59   2.0000      -0.422345       -11.4926
  60   2.0000      -0.418408       -11.3855
  61   2.0000      -0.416751       -11.3404
  62   2.0000      -0.404429       -11.0051
  63   2.0000      -0.351893        -9.5755
  64   2.0000      -0.334335        -9.0977
  65   2.0000      -0.331339        -9.0162
  66   2.0000      -0.293812        -7.9950
  67   0.0000       0.026092         0.7100
  68   0.0000       0.076047         2.0693
  69   0.0000       0.094474         2.5708
  70   0.0000       0.119797         3.2598
  71   0.0000       0.123347         3.3564

MULLIKEN ATOMIC CHARGES
-----------------------
   0 S :    0.084573
   1 C :   -0.133367
   2 C :   -0.051203
   3 C :    0.048756
   4 C :   -0.113827
   5 H :   -0.031191
   6 C :    0.061242
   7 H :    0.024123
   8 H :    0.029605
   9 C :   -0.065025
  10 H :    0.009337
  11 H :    0.030582
  12 C :   -0.029318
  13 H :    0.031305
  14 H :    0.037014
  15 H :    0.017409
  16 S :    0.100169
  17 C :   -0.061934
  18 C :    0.013847
  19 C :   -0.058302
  20 C :   -0.142490
  21 H :   -0.018305
  22 C :    0.086969
  23 H :    0.007583
  24 H :    0.030936
  25 C :   -0.098040
  26 H :    0.030106
  27 H :    0.043499
  28 C :   -0.066478
  29 H :    0.038911
  30 H :    0.041374
  31 H :    0.019396
  32 H :    0.046980
  33 H :    0.035767
Sum of atomic charges:    0.0000000

LOEWDIN ATOMIC CHARGES
----------------------
   0 S :    0.364497
   1 C :   -0.171075
   2 C :   -0.056274
   3 C :   -0.055462
   4 C :   -0.176282
   5 H :    0.015791
   6 C :   -0.030056
   7 H :    0.037360
   8 H :    0.028336
   9 C :   -0.047392
  10 H :    0.020580
  11 H :    0.024812
  12 C :   -0.059452
  13 H :    0.032331
  14 H :    0.026321
  15 H :    0.015301
  16 S :    0.385598
  17 C :   -0.166424
  18 C :   -0.051609
  19 C :   -0.053614
  20 C :   -0.182269
  21 H :    0.013942
  22 C :   -0.034350
  23 H :    0.021031
  24 H :    0.037563
  25 C :   -0.056578
  26 H :    0.026519
  27 H :    0.033414
  28 C :   -0.071224
  29 H :    0.024280
  30 H :    0.035438
  31 H :    0.022168
  32 H :    0.025219
  33 H :    0.021557

  Mayer bond orders larger than 0.100000
B(  0-S ,  1-C ) :   1.1210 B(  0-S ,  4-C ) :   1.1219 B(  1-C ,  2-C ) :   1.6286
B(  1-C , 32-H ) :   0.9717 B(  2-C ,  3-C ) :   1.2134 B(  2-C ,  6-C ) :   1.0196
B(  3-C ,  4-C ) :   1.6146 B(  3-C ,  5-H ) :   1.0039 B(  4-C , 20-C ) :   1.0293
B(  6-C ,  7-H ) :   0.9396 B(  6-C ,  8-H ) :   0.9427 B(  6-C ,  9-C ) :   1.0592
B(  9-C , 10-H ) :   0.9508 B(  9-C , 11-H ) :   0.9543 B(  9-C , 12-C ) :   1.0892
B( 12-C , 13-H ) :   0.9699 B( 12-C , 14-H ) :   0.9763 B( 12-C , 15-H ) :   0.9740
B( 16-S , 17-C ) :   1.1222 B( 16-S , 20-C ) :   1.1231 B( 17-C , 18-C ) :   1.6628
B( 17-C , 33-H ) :   0.9702 B( 18-C , 19-C ) :   1.1967 B( 18-C , 21-H ) :   0.9955
B( 19-C , 20-C ) :   1.6338 B( 19-C , 22-C ) :   1.0663 B( 22-C , 23-H ) :   0.9382
B( 22-C , 24-H ) :   0.9185 B( 22-C , 25-C ) :   1.0556 B( 25-C , 26-H ) :   0.9522
B( 25-C , 27-H ) :   0.9548 B( 25-C , 28-C ) :   1.0919 B( 28-C , 29-H ) :   0.9716
B( 28-C , 30-H ) :   0.9716 B( 28-C , 31-H ) :   0.9711

Dispersion correction           -0.013592369
FINAL SINGLE POINT ENERGY     -1339.858989515116

DIPOLE MOMENT
-------------
                                X             Y             Z
Electronic contribution:      3.31757      26.58498     -15.99029
Nuclear contribution   :     -3.28887     -27.24504      16.21408
                        -----------------------------------------
Total Dipole Moment    :      0.02871      -0.66005       0.22379
                        -----------------------------------------
Magnitude (a.u.)       :      0.69755
Magnitude (Debye)      :      1.77304

Rotational constants in cm-1:     0.017583     0.008527     0.006144
Rotational constants in MHz :   527.115256   255.631007   184.201490

                             ****ORCA TERMINATED NORMALLY****
TOTAL RUN TIME: 0 days 0 hours 0 minutes 32 seconds 656 msec
