                         Program Version 4.2.1 -  RELEASE  -
|  1> ! wB97X-D3 SP def2-SVP
|  2> %pal
|  3> nprocs 16
|  4> end
|  5>
|  6> * xyz 0 1
|  7> S 	 2.03418 	 -16.4426 	 85.7702
|  8> C 	 0.595196 	 -17.231 	 85.2575
|  9> C 	 -0.517584 	 -16.7969 	 85.9884
| 10> C 	 -0.134754 	 -15.7164 	 86.8322
| 11> C 	 1.24802 	 -15.4199 	 86.9278
| 12> H 	 -0.788109 	 -15.2755 	 87.4559
| 13> C 	 -1.99053 	 -17.0695 	 85.8719
| 14> H 	 -2.3541 	 -16.4047 	 85.0091
| 15> H 	 -2.5983 	 -16.6573 	 86.6582
| 16> C 	 -2.42093 	 -18.47 	 85.4726
| 17> H 	 -3.48607 	 -18.5279 	 85.2627
| 18> H 	 -2.04645 	 -18.8474 	 84.508
| 19> C 	 -2.09438 	 -19.568 	 86.4041
| 20> H 	 -1.03519 	 -19.7507 	 86.4444
| 21> H 	 -2.54692 	 -19.3715 	 87.3228
| 22> H 	 -2.54024 	 -20.4106 	 85.9748
| 23> S 	 3.27686 	 -13.4883 	 87.1237
| 24> C 	 3.53545 	 -12.7047 	 88.652
| 25> C 	 2.816 	 -13.3024 	 89.6573
| 26> C 	 1.84329 	 -14.2922 	 89.1615
| 27> C 	 1.96727 	 -14.5581 	 87.8271
| 28> H 	 2.93876 	 -13.0564 	 90.6523
| 29> C 	 0.872272 	 -14.9786 	 90.1161
| 30> H 	 1.3635 	 -15.2179 	 91.092
| 31> H 	 0.474788 	 -15.8905 	 89.6992
| 32> C 	 -0.397096 	 -14.2295 	 90.4315
| 33> H 	 -0.751695 	 -13.6479 	 89.6095
| 34> H 	 -0.16205 	 -13.4333 	 91.2098
| 35> C 	 -1.46349 	 -15.0975 	 91.1059
| 36> H 	 -1.25357 	 -15.2654 	 92.1694
| 37> H 	 -1.5416 	 -16.0317 	 90.6363
| 38> H 	 -2.41769 	 -14.554 	 91.1387
| 39> H 	 0.585087 	 -18.0827 	 84.5809
| 40> H 	 4.15538 	 -11.9184 	 88.8945
| 41> *
| 42>
| 43>                          ****END OF INPUT****

CARTESIAN COORDINATES (ANGSTROEM)
---------------------------------
  S      2.034180  -16.442600   85.770200
  C      0.595196  -17.231000   85.257500
  C     -0.517584  -16.796900   85.988400
  C     -0.134754  -15.716400   86.832200
  C      1.248020  -15.419900   86.927800
  H     -0.788109  -15.275500   87.455900
  C     -1.990530  -17.069500   85.871900
  H     -2.354100  -16.404700   85.009100
  H     -2.598300  -16.657300   86.658200
  C     -2.420930  -18.470000   85.472600
  H     -3.486070  -18.527900   85.262700
  H     -2.046450  -18.847400   84.508000
  C     -2.094380  -19.568000   86.404100
  H     -1.035190  -19.750700   86.444400
  H     -2.546920  -19.371500   87.322800
  H     -2.540240  -20.410600   85.974800
  S      3.276860  -13.488300   87.123700
  C      3.535450  -12.704700   88.652000
  C      2.816000  -13.302400   89.657300
  C      1.843290  -14.292200   89.161500
  C      1.967270  -14.558100   87.827100
  H      2.938760  -13.056400   90.652300
  C      0.872272  -14.978600   90.116100
  H      1.363500  -15.217900   91.092000
  H      0.474788  -15.890500   89.699200
  C     -0.397096  -14.229500   90.431500
  H     -0.751695  -13.647900   89.609500
  H     -0.162050  -13.433300   91.209800
  C     -1.463490  -15.097500   91.105900
  H     -1.253570  -15.265400   92.169400
  H     -1.541600  -16.031700   90.636300
  H     -2.417690  -14.554000   91.138700
  H      0.585087  -18.082700   84.580900
  H      4.155380  -11.918400   88.894500

 Total Charge           Charge          ....    0
 Multiplicity           Mult            ....    1
 Number of Electrons    NEL             ....  134
 Basis Dimension        Dim             ....  322

ORBITAL ENERGIES
----------------

  NO   OCC          E(Eh)            E(eV)
   0   2.0000     -88.967164     -2420.9196
   1   2.0000     -88.963761     -2420.8270
   2   2.0000     -10.332803      -281.1699
   3   2.0000     -10.331536      -281.1354
   4   2.0000     -10.316264      -280.7198
   5   2.0000     -10.314792      -280.6798
   6   2.0000     -10.309043      -280.5233
   7   2.0000     -10.303903      -280.3835
   8   2.0000     -10.298395      -280.2336
   9   2.0000     -10.291853      -280.0555
  10   2.0000     -10.291750      -280.0528
  11   2.0000     -10.286654      -279.9141
  12   2.0000     -10.285229      -279.8753
  13   2.0000     -10.281450      -279.7725
  14   2.0000     -10.277159      -279.6557
  15   2.0000     -10.259758      -279.1822
  16   2.0000      -8.082470      -219.9352
  17   2.0000      -8.077827      -219.8089
  18   2.0000      -6.040948      -164.3826
  19   2.0000      -6.036613      -164.2646
  20   2.0000      -6.036588      -164.2639
  21   2.0000      -6.033521      -164.1805
  22   2.0000      -6.032489      -164.1524
  23   2.0000      -6.028286      -164.0380
  24   2.0000      -1.005917       -27.3724
  25   2.0000      -0.982481       -26.7347
  26   2.0000      -0.920217       -25.0404
  27   2.0000      -0.913493       -24.8574
  28   2.0000      -0.875646       -23.8275
  29   2.0000      -0.859237       -23.3810
  30   2.0000      -0.846244       -23.0275
  31   2.0000      -0.814368       -22.1601
  32   2.0000      -0.789002       -21.4698
  33   2.0000      -0.778214       -21.1763
  34   2.0000      -0.709483       -19.3060
  35   2.0000      -0.701016       -19.0756
  36   2.0000      -0.694359       -18.8945
  37   2.0000      -0.669536       -18.2190
  38   2.0000      -0.645705       -17.5705
  39   2.0000      -0.617326       -16.7983
  40   2.0000      -0.601192       -16.3593
  41   2.0000      -0.583527       -15.8786
  42   2.0000      -0.569546       -15.4981
  43   2.0000      -0.557412       -15.1680
  44   2.0000      -0.548510       -14.9257
  45   2.0000      -0.525280       -14.2936
  46   2.0000      -0.521024       -14.1778
  47   2.0000      -0.518386       -14.1060
  48   2.0000      -0.511903       -13.9296
  49   2.0000      -0.502486       -13.6733
  50   2.0000      -0.494349       -13.4519
  51   2.0000      -0.481353       -13.0983
  52   2.0000      -0.476462       -12.9652
  53   2.0000      -0.469368       -12.7722
  54   2.0000      -0.461344       -12.5538
  55   2.0000      -0.451797       -12.2940
  56   2.0000      -0.438559       -11.9338
  57   2.0000      -0.438069       -11.9205
  58   2.0000      -0.432788       -11.7768
  59   2.0000      -0.426185       -11.5971
  60   2.0000      -0.416712       -11.3393
  61   2.0000      -0.414919       -11.2905
  62   2.0000      -0.407941       -11.1006
  63   2.0000      -0.352621        -9.5953
  64   2.0000      -0.329054        -8.9540
  65   2.0000      -0.327375        -8.9083
  66   2.0000      -0.289736        -7.8841
  67   0.0000       0.027202         0.7402
  68   0.0000       0.066620         1.8128
  69   0.0000       0.110947         3.0190
  70   0.0000       0.119839         3.2610
  71   0.0000       0.125573         3.4170

MULLIKEN ATOMIC CHARGES
-----------------------
   0 S :    0.120534
   1 C :   -0.122559
   2 C :   -0.069504
   3 C :    0.055646
   4 C :   -0.135777
   5 H :   -0.054034
   6 C :    0.044601
   7 H :    0.055011
   8 H :    0.021709
   9 C :   -0.094196
  10 H :    0.015602
  11 H :    0.010903
  12 C :    0.024159
  13 H :    0.030221
  14 H :    0.011596
  15 H :    0.010339
  16 S :    0.089566
  17 C :   -0.036579
  18 C :   -0.006133
  19 C :   -0.034218
  20 C :   -0.132247
  21 H :   -0.009789
  22 C :    0.058176
  23 H :    0.033388
  24 H :    0.015093
  25 C :   -0.100224
  26 H :    0.031988
  27 H :    0.023216
  28 C :   -0.029209
  29 H :    0.029734
  30 H :    0.021565
  31 H :    0.037108
  32 H :    0.054873
  33 H :    0.029444
Sum of atomic charges:   -0.0000000

LOEWDIN ATOMIC CHARGES
----------------------
   0 S :    0.437702
   1 C :   -0.211875
   2 C :   -0.061069
   3 C :   -0.051183
   4 C :   -0.200587
   5 H :    0.004319
   6 C :   -0.038397
   7 H :    0.052701
   8 H :    0.029845
   9 C :   -0.050746
  10 H :    0.024848
  11 H :    0.023071
  12 C :   -0.050923
  13 H :    0.023756
  14 H :    0.015063
  15 H :    0.021884
  16 S :    0.369313
  17 C :   -0.166069
  18 C :   -0.058760
  19 C :   -0.043265
  20 C :   -0.174572
  21 H :    0.017435
  22 C :   -0.033782
  23 H :    0.036917
  24 H :    0.025043
  25 C :   -0.046561
  26 H :    0.017557
  27 H :    0.027295
  28 C :   -0.061675
  29 H :    0.028404
  30 H :    0.014088
  31 H :    0.032330
  32 H :    0.028802
  33 H :    0.019091

  Mayer bond orders larger than 0.100000
B(  0-S ,  1-C ) :   1.1663 B(  0-S ,  4-C ) :   1.1700 B(  1-C ,  2-C ) :   1.5511
B(  1-C ,  4-C ) :   0.1058 B(  1-C , 32-H ) :   0.9657 B(  2-C ,  3-C ) :   1.2862
B(  2-C ,  6-C ) :   1.0251 B(  3-C ,  4-C ) :   1.5099 B(  3-C ,  5-H ) :   1.0164
B(  4-C , 20-C ) :   1.0628 B(  6-C ,  7-H ) :   0.9293 B(  6-C ,  8-H ) :   0.9451
B(  6-C ,  9-C ) :   1.0773 B(  9-C , 10-H ) :   0.9501 B(  9-C , 11-H ) :   0.9498
B(  9-C , 12-C ) :   1.0962 B( 12-C , 13-H ) :   0.9720 B( 12-C , 14-H ) :   0.9724
B( 12-C , 15-H ) :   0.9681 B( 16-S , 17-C ) :   1.1407 B( 16-S , 20-C ) :   1.0883
B( 17-C , 18-C ) :   1.6440 B( 17-C , 33-H ) :   0.9729 B( 18-C , 19-C ) :   1.1891
B( 18-C , 21-H ) :   0.9991 B( 19-C , 20-C ) :   1.6523 B( 19-C , 22-C ) :   1.0565
B( 22-C , 23-H ) :   0.9348 B( 22-C , 24-H ) :   0.9359 B( 22-C , 25-C ) :   1.0574
B( 25-C , 26-H ) :   0.9578 B( 25-C , 27-H ) :   0.9493 B( 25-C , 28-C ) :   1.0836
B( 28-C , 29-H ) :   0.9741 B( 28-C , 30-H ) :   0.9761 B( 28-C , 31-H ) :   0.9725

Dispersion correction           -0.014183389
FINAL SINGLE POINT ENERGY     -1339.861206490800

DIPOLE MOMENT
-------------
                                X             Y             Z
Electronic contribution:     26.25028      11.86922     -11.93203
Nuclear contribution   :    -26.90155     -11.98403      12.39303
                        -----------------------------------------
Total Dipole Moment    :     -0.65128      -0.11481       0.46100
                        -----------------------------------------
Magnitude (a.u.)       :      0.80614
Magnitude (Debye)      :      2.04905

Rotational constants in cm-1:     0.018967     0.008913     0.006440
Rotational constants in MHz :   568.607383   267.195647   193.059694

                             ****ORCA TERMINATED NORMALLY****
TOTAL RUN TIME: 0 days 0 hours 0 minutes 34 seconds 90 msec
