                         Program Version 4.2.1 -  RELEASE  -
|  1> ! wB97X-D3 SP def2-SVP
|  2> %pal
|  3> nprocs 16
|  4> end
|  5>
|  6> * xyz 0 1
|  7> S 	 -2.57229 	 -17.2861 	 83.3911
|  8> C 	 -3.89385 	 -17.9542 	 84.1376
|  9> C 	 -5.03901 	 -17.2158 	 83.8756
| 10> C 	 -4.78122 	 -16.0719 	 83.0342
| 11> C 	 -3.46326 	 -16.0436 	 82.5781
| 12> H 	 -5.59749 	 -15.3919 	 82.6079
| 13> C 	 -6.4737 	 -17.5345 	 84.5012
| 14> H 	 -7.18732 	 -16.7756 	 84.2701
| 15> H 	 -6.35438 	 -17.4904 	 85.5991
| 16> C 	 -7.13925 	 -18.8663 	 84.0972
| 17> H 	 -6.59234 	 -19.7439 	 84.3983
| 18> H 	 -8.02128 	 -18.9343 	 84.6202
| 19> C 	 -7.2187 	 -19.1756 	 82.6076
| 20> H 	 -7.76369 	 -20.0624 	 82.3202
| 21> H 	 -7.73789 	 -18.3854 	 81.984
| 22> H 	 -6.19929 	 -19.2298 	 82.2745
| 23> S 	 -3.44347 	 -13.5137 	 81.682
| 24> C 	 -2.48776 	 -13.0255 	 80.3015
| 25> C 	 -1.78843 	 -14.1041 	 79.7863
| 26> C 	 -1.93091 	 -15.2705 	 80.5686
| 27> C 	 -2.81875 	 -15.1222 	 81.6681
| 28> H 	 -1.06472 	 -13.9499 	 79.0295
| 29> C 	 -1.27208 	 -16.5722 	 80.108
| 30> H 	 -2.0714 	 -17.2815 	 80.2691
| 31> H 	 -0.437481 	 -16.7655 	 80.8403
| 32> C 	 -0.764854 	 -16.6661 	 78.6424
| 33> H 	 -0.00986841 	 -15.9463 	 78.3154
| 34> H 	 -1.71687 	 -16.4749 	 78.1541
| 35> C 	 -0.304181 	 -18.0413 	 78.2509
| 36> H 	 -0.0645368 	 -18.0721 	 77.1643
| 37> H 	 -1.09979 	 -18.8536 	 78.3759
| 38> H 	 0.676386 	 -18.4086 	 78.7463
| 39> H 	 -3.80674 	 -18.8124 	 84.8214
| 40> H 	 -2.30679 	 -11.9755 	 79.9771
| 41> *
| 42>
| 43>                          ****END OF INPUT****

CARTESIAN COORDINATES (ANGSTROEM)
---------------------------------
  S     -2.572290  -17.286100   83.391100
  C     -3.893850  -17.954200   84.137600
  C     -5.039010  -17.215800   83.875600
  C     -4.781220  -16.071900   83.034200
  C     -3.463260  -16.043600   82.578100
  H     -5.597490  -15.391900   82.607900
  C     -6.473700  -17.534500   84.501200
  H     -7.187320  -16.775600   84.270100
  H     -6.354380  -17.490400   85.599100
  C     -7.139250  -18.866300   84.097200
  H     -6.592340  -19.743900   84.398300
  H     -8.021280  -18.934300   84.620200
  C     -7.218700  -19.175600   82.607600
  H     -7.763690  -20.062400   82.320200
  H     -7.737890  -18.385400   81.984000
  H     -6.199290  -19.229800   82.274500
  S     -3.443470  -13.513700   81.682000
  C     -2.487760  -13.025500   80.301500
  C     -1.788430  -14.104100   79.786300
  C     -1.930910  -15.270500   80.568600
  C     -2.818750  -15.122200   81.668100
  H     -1.064720  -13.949900   79.029500
  C     -1.272080  -16.572200   80.108000
  H     -2.071400  -17.281500   80.269100
  H     -0.437481  -16.765500   80.840300
  C     -0.764854  -16.666100   78.642400
  H     -0.009868  -15.946300   78.315400
  H     -1.716870  -16.474900   78.154100
  C     -0.304181  -18.041300   78.250900
  H     -0.064537  -18.072100   77.164300
  H     -1.099790  -18.853600   78.375900
  H      0.676386  -18.408600   78.746300
  H     -3.806740  -18.812400   84.821400
  H     -2.306790  -11.975500   79.977100

 Total Charge           Charge          ....    0
 Multiplicity           Mult            ....    1
 Number of Electrons    NEL             ....  134
 Basis Dimension        Dim             ....  322

ORBITAL ENERGIES
----------------

  NO   OCC          E(Eh)            E(eV)
   0   2.0000     -88.966807     -2420.9099
   1   2.0000     -88.966103     -2420.8907
   2   2.0000     -10.330776      -281.1147
   3   2.0000     -10.327377      -281.0222
   4   2.0000     -10.319664      -280.8123
   5   2.0000     -10.310711      -280.5687
   6   2.0000     -10.306810      -280.4626
   7   2.0000     -10.305497      -280.4268
   8   2.0000     -10.302179      -280.3365
   9   2.0000     -10.297006      -280.1958
  10   2.0000     -10.293308      -280.0951
  11   2.0000     -10.290783      -280.0264
  12   2.0000     -10.289978      -280.0045
  13   2.0000     -10.289260      -279.9850
  14   2.0000     -10.277044      -279.6526
  15   2.0000     -10.273127      -279.5460
  16   2.0000      -8.082641      -219.9399
  17   2.0000      -8.081643      -219.9127
  18   2.0000      -6.040935      -164.3822
  19   2.0000      -6.040122      -164.3601
  20   2.0000      -6.036632      -164.2651
  21   2.0000      -6.035954      -164.2467
  22   2.0000      -6.033777      -164.1874
  23   2.0000      -6.032617      -164.1559
  24   2.0000      -1.013935       -27.5906
  25   2.0000      -0.990251       -26.9461
  26   2.0000      -0.908984       -24.7347
  27   2.0000      -0.905417       -24.6377
  28   2.0000      -0.874946       -23.8085
  29   2.0000      -0.852252       -23.1910
  30   2.0000      -0.844373       -22.9766
  31   2.0000      -0.812653       -22.1134
  32   2.0000      -0.782838       -21.3021
  33   2.0000      -0.766767       -20.8648
  34   2.0000      -0.703132       -19.1332
  35   2.0000      -0.700936       -19.0734
  36   2.0000      -0.692502       -18.8439
  37   2.0000      -0.658533       -17.9196
  38   2.0000      -0.638082       -17.3631
  39   2.0000      -0.607444       -16.5294
  40   2.0000      -0.592710       -16.1285
  41   2.0000      -0.576336       -15.6829
  42   2.0000      -0.572708       -15.5842
  43   2.0000      -0.549579       -14.9548
  44   2.0000      -0.543348       -14.7852
  45   2.0000      -0.525988       -14.3129
  46   2.0000      -0.516492       -14.0545
  47   2.0000      -0.508764       -13.8442
  48   2.0000      -0.504322       -13.7233
  49   2.0000      -0.492116       -13.3912
  50   2.0000      -0.482433       -13.1277
  51   2.0000      -0.481071       -13.0906
  52   2.0000      -0.472103       -12.8466
  53   2.0000      -0.470186       -12.7944
  54   2.0000      -0.460638       -12.5346
  55   2.0000      -0.448389       -12.2013
  56   2.0000      -0.442754       -12.0479
  57   2.0000      -0.438372       -11.9287
  58   2.0000      -0.431549       -11.7431
  59   2.0000      -0.419553       -11.4166
  60   2.0000      -0.417968       -11.3735
  61   2.0000      -0.409922       -11.1545
  62   2.0000      -0.406805       -11.0697
  63   2.0000      -0.359326        -9.7778
  64   2.0000      -0.334399        -9.0995
  65   2.0000      -0.328515        -8.9394
  66   2.0000      -0.283269        -7.7081
  67   0.0000       0.025301         0.6885
  68   0.0000       0.079498         2.1633
  69   0.0000       0.114214         3.1079
  70   0.0000       0.127789         3.4773
  71   0.0000       0.136015         3.7011

MULLIKEN ATOMIC CHARGES
-----------------------
   0 S :    0.128826
   1 C :   -0.127162
   2 C :   -0.121963
   3 C :   -0.003559
   4 C :   -0.177714
   5 H :    0.051132
   6 C :    0.070782
   7 H :    0.015242
   8 H :    0.042050
   9 C :   -0.029646
  10 H :    0.014144
  11 H :    0.009270
  12 C :   -0.069131
  13 H :    0.032727
  14 H :    0.022746
  15 H :    0.040075
  16 S :    0.106985
  17 C :   -0.100735
  18 C :   -0.030003
  19 C :   -0.064195
  20 C :   -0.121889
  21 H :    0.009383
  22 C :    0.050555
  23 H :    0.032026
  24 H :    0.046916
  25 C :   -0.078559
  26 H :    0.043912
  27 H :    0.033552
  28 C :   -0.083782
  29 H :    0.036044
  30 H :    0.042222
  31 H :    0.044815
  32 H :    0.062986
  33 H :    0.071948
Sum of atomic charges:    0.0000000

LOEWDIN ATOMIC CHARGES
----------------------
   0 S :    0.463385
   1 C :   -0.234822
   2 C :   -0.067350
   3 C :   -0.084451
   4 C :   -0.208141
   5 H :    0.044165
   6 C :   -0.022355
   7 H :    0.024681
   8 H :    0.036566
   9 C :   -0.039706
  10 H :    0.023108
  11 H :    0.012596
  12 C :   -0.067164
  13 H :    0.024780
  14 H :    0.023179
  15 H :    0.025548
  16 S :    0.432840
  17 C :   -0.192360
  18 C :   -0.075195
  19 C :   -0.056643
  20 C :   -0.214917
  21 H :    0.026762
  22 C :   -0.037049
  23 H :    0.030335
  24 H :    0.034622
  25 C :   -0.050108
  26 H :    0.026506
  27 H :    0.031257
  28 C :   -0.078134
  29 H :    0.028900
  30 H :    0.031802
  31 H :    0.032360
  32 H :    0.035608
  33 H :    0.039397

  Mayer bond orders larger than 0.100000
B(  0-S ,  1-C ) :   1.1743 B(  0-S ,  4-C ) :   1.1830 B(  1-C ,  2-C ) :   1.5644
B(  1-C , 32-H ) :   0.9701 B(  2-C ,  3-C ) :   1.3000 B(  2-C ,  6-C ) :   1.0031
B(  3-C ,  4-C ) :   1.5301 B(  3-C ,  5-H ) :   0.9729 B(  4-C , 20-C ) :   1.0507
B(  6-C ,  7-H ) :   0.9472 B(  6-C ,  8-H ) :   0.9457 B(  6-C ,  9-C ) :   1.0754
B(  9-C , 10-H ) :   0.9551 B(  9-C , 11-H ) :   0.9560 B(  9-C , 12-C ) :   1.0662
B( 12-C , 13-H ) :   0.9754 B( 12-C , 14-H ) :   0.9771 B( 12-C , 15-H ) :   0.9734
B( 16-S , 17-C ) :   1.1767 B( 16-S , 20-C ) :   1.1583 B( 17-C , 18-C ) :   1.5608
B( 17-C , 20-C ) :   0.1036 B( 17-C , 33-H ) :   0.9588 B( 18-C , 19-C ) :   1.3078
B( 18-C , 21-H ) :   0.9886 B( 19-C , 20-C ) :   1.5251 B( 19-C , 22-C ) :   1.0147
B( 22-C , 23-H ) :   0.9363 B( 22-C , 24-H ) :   0.9296 B( 22-C , 25-C ) :   1.0785
B( 25-C , 26-H ) :   0.9469 B( 25-C , 27-H ) :   0.9486 B( 25-C , 28-C ) :   1.0970
B( 28-C , 29-H ) :   0.9707 B( 28-C , 30-H ) :   0.9716 B( 28-C , 31-H ) :   0.9713

Dispersion correction           -0.013882809
FINAL SINGLE POINT ENERGY     -1339.873673486657

DIPOLE MOMENT
-------------
                                X             Y             Z
Electronic contribution:      5.59213      17.58213       9.68739
Nuclear contribution   :     -5.63682     -17.80712      -9.88875
                        -----------------------------------------
Total Dipole Moment    :     -0.04469      -0.22499      -0.20135
                        -----------------------------------------
Magnitude (a.u.)       :      0.30522
Magnitude (Debye)      :      0.77582

Rotational constants in cm-1:     0.019190     0.007811     0.006514
Rotational constants in MHz :   575.298415   234.175543   195.279692

                             ****ORCA TERMINATED NORMALLY****
TOTAL RUN TIME: 0 days 0 hours 0 minutes 32 seconds 220 msec
