                         Program Version 4.2.1 -  RELEASE  -
|  1> ! wB97X-D3 SP def2-SVP
|  2> %pal
|  3> nprocs 16
|  4> end
|  5>
|  6> * xyz 0 1
|  7> S 	 -44.0648 	 56.6944 	 104.74
|  8> C 	 -45.1716 	 56.1956 	 103.454
|  9> C 	 -44.4217 	 55.5758 	 102.446
| 10> C 	 -43.0438 	 55.613 	 102.756
| 11> C 	 -42.6408 	 56.2057 	 103.919
| 12> H 	 -42.2639 	 55.4217 	 102.084
| 13> C 	 -44.9586 	 55.0605 	 101.091
| 14> H 	 -44.5884 	 55.8033 	 100.385
| 15> H 	 -46.0609 	 55.1956 	 101.163
| 16> C 	 -44.6744 	 53.5527 	 100.864
| 17> H 	 -45.2525 	 53.308 	 99.9883
| 18> H 	 -43.6634 	 53.3408 	 100.566
| 19> C 	 -45.1567 	 52.6673 	 101.996
| 20> H 	 -44.8575 	 53.0619 	 102.986
| 21> H 	 -46.236 	 52.6302 	 101.906
| 22> H 	 -44.7432 	 51.6449 	 101.843
| 23> S 	 -40.6939 	 58.1928 	 104.342
| 24> C 	 -39.1304 	 57.5582 	 104.852
| 25> C 	 -39.1272 	 56.2043 	 105.013
| 26> C 	 -40.3716 	 55.5796 	 104.772
| 27> C 	 -41.3074 	 56.4865 	 104.431
| 28> H 	 -38.2277 	 55.7079 	 105.177
| 29> C 	 -40.531 	 54.0929 	 104.736
| 30> H 	 -41.6178 	 53.8991 	 104.767
| 31> H 	 -40.1424 	 53.5707 	 105.637
| 32> C 	 -40.0826 	 53.3695 	 103.444
| 33> H 	 -40.4533 	 53.7837 	 102.523
| 34> H 	 -40.4536 	 52.3869 	 103.453
| 35> C 	 -38.58 	 53.2763 	 103.342
| 36> H 	 -38.2582 	 54.246 	 103.513
| 37> H 	 -38.2552 	 52.9002 	 102.399
| 38> H 	 -38.2392 	 52.6149 	 104.147
| 39> H 	 -46.2365 	 56.3017 	 103.543
| 40> H 	 -38.2555 	 58.1762 	 104.894
| 41> *
| 42>
| 43>                          ****END OF INPUT****

CARTESIAN COORDINATES (ANGSTROEM)
---------------------------------
  S    -44.064800   56.694400  104.740000
  C    -45.171600   56.195600  103.454000
  C    -44.421700   55.575800  102.446000
  C    -43.043800   55.613000  102.756000
  C    -42.640800   56.205700  103.919000
  H    -42.263900   55.421700  102.084000
  C    -44.958600   55.060500  101.091000
  H    -44.588400   55.803300  100.385000
  H    -46.060900   55.195600  101.163000
  C    -44.674400   53.552700  100.864000
  H    -45.252500   53.308000   99.988300
  H    -43.663400   53.340800  100.566000
  C    -45.156700   52.667300  101.996000
  H    -44.857500   53.061900  102.986000
  H    -46.236000   52.630200  101.906000
  H    -44.743200   51.644900  101.843000
  S    -40.693900   58.192800  104.342000
  C    -39.130400   57.558200  104.852000
  C    -39.127200   56.204300  105.013000
  C    -40.371600   55.579600  104.772000
  C    -41.307400   56.486500  104.431000
  H    -38.227700   55.707900  105.177000
  C    -40.531000   54.092900  104.736000
  H    -41.617800   53.899100  104.767000
  H    -40.142400   53.570700  105.637000
  C    -40.082600   53.369500  103.444000
  H    -40.453300   53.783700  102.523000
  H    -40.453600   52.386900  103.453000
  C    -38.580000   53.276300  103.342000
  H    -38.258200   54.246000  103.513000
  H    -38.255200   52.900200  102.399000
  H    -38.239200   52.614900  104.147000
  H    -46.236500   56.301700  103.543000
  H    -38.255500   58.176200  104.894000

 Total Charge           Charge          ....    0
 Multiplicity           Mult            ....    1
 Number of Electrons    NEL             ....  134
 Basis Dimension        Dim             ....  322

ORBITAL ENERGIES
----------------

  NO   OCC          E(Eh)            E(eV)
   0   2.0000     -88.967802     -2420.9370
   1   2.0000     -88.958658     -2420.6882
   2   2.0000     -10.326745      -281.0050
   3   2.0000     -10.321660      -280.8666
   4   2.0000     -10.318111      -280.7701
   5   2.0000     -10.315513      -280.6994
   6   2.0000     -10.301709      -280.3238
   7   2.0000     -10.300264      -280.2844
   8   2.0000     -10.298460      -280.2353
   9   2.0000     -10.293897      -280.1112
  10   2.0000     -10.287104      -279.9263
  11   2.0000     -10.284326      -279.8507
  12   2.0000     -10.282662      -279.8054
  13   2.0000     -10.278491      -279.6920
  14   2.0000     -10.278255      -279.6855
  15   2.0000     -10.265516      -279.3389
  16   2.0000      -8.081607      -219.9117
  17   2.0000      -8.073959      -219.7036
  18   2.0000      -6.040134      -164.3604
  19   2.0000      -6.036509      -164.2618
  20   2.0000      -6.032339      -164.1483
  21   2.0000      -6.032138      -164.1428
  22   2.0000      -6.028185      -164.0353
  23   2.0000      -6.025005      -163.9487
  24   2.0000      -1.008639       -27.4465
  25   2.0000      -0.985819       -26.8255
  26   2.0000      -0.914328       -24.8801
  27   2.0000      -0.911214       -24.7954
  28   2.0000      -0.871021       -23.7017
  29   2.0000      -0.855681       -23.2843
  30   2.0000      -0.842061       -22.9136
  31   2.0000      -0.816013       -22.2049
  32   2.0000      -0.786805       -21.4100
  33   2.0000      -0.774063       -21.0633
  34   2.0000      -0.710634       -19.3373
  35   2.0000      -0.699978       -19.0474
  36   2.0000      -0.691787       -18.8245
  37   2.0000      -0.665529       -18.1100
  38   2.0000      -0.646305       -17.5869
  39   2.0000      -0.618293       -16.8246
  40   2.0000      -0.602468       -16.3940
  41   2.0000      -0.565568       -15.3899
  42   2.0000      -0.559215       -15.2170
  43   2.0000      -0.557220       -15.1627
  44   2.0000      -0.553073       -15.0499
  45   2.0000      -0.543050       -14.7771
  46   2.0000      -0.519842       -14.1456
  47   2.0000      -0.515475       -14.0268
  48   2.0000      -0.502370       -13.6702
  49   2.0000      -0.495089       -13.4720
  50   2.0000      -0.484351       -13.1799
  51   2.0000      -0.480898       -13.0859
  52   2.0000      -0.473107       -12.8739
  53   2.0000      -0.467019       -12.7082
  54   2.0000      -0.457885       -12.4597
  55   2.0000      -0.444180       -12.0867
  56   2.0000      -0.442990       -12.0544
  57   2.0000      -0.440089       -11.9754
  58   2.0000      -0.434362       -11.8196
  59   2.0000      -0.425396       -11.5756
  60   2.0000      -0.422939       -11.5088
  61   2.0000      -0.416808       -11.3419
  62   2.0000      -0.405853       -11.0438
  63   2.0000      -0.339133        -9.2283
  64   2.0000      -0.333715        -9.0808
  65   2.0000      -0.326566        -8.8863
  66   2.0000      -0.305575        -8.3151
  67   0.0000       0.038410         1.0452
  68   0.0000       0.059973         1.6320
  69   0.0000       0.108501         2.9525
  70   0.0000       0.129368         3.5203
  71   0.0000       0.130616         3.5542

MULLIKEN ATOMIC CHARGES
-----------------------
   0 S :    0.097236
   1 C :   -0.130930
   2 C :   -0.121152
   3 C :    0.059555
   4 C :   -0.194301
   5 H :   -0.012579
   6 C :    0.069994
   7 H :    0.051154
   8 H :    0.015858
   9 C :   -0.056118
  10 H :    0.022456
  11 H :    0.025811
  12 C :   -0.062962
  13 H :    0.057644
  14 H :    0.029318
  15 H :    0.040527
  16 S :    0.107083
  17 C :   -0.079788
  18 C :   -0.013489
  19 C :    0.011401
  20 C :   -0.162460
  21 H :   -0.001245
  22 C :    0.038744
  23 H :    0.034705
  24 H :    0.035761
  25 C :   -0.038640
  26 H :    0.013375
  27 H :    0.013695
  28 C :   -0.001604
  29 H :    0.004004
  30 H :    0.026512
  31 H :    0.020607
  32 H :    0.048882
  33 H :    0.050950
Sum of atomic charges:   -0.0000000

LOEWDIN ATOMIC CHARGES
----------------------
   0 S :    0.411574
   1 C :   -0.193372
   2 C :   -0.067890
   3 C :   -0.069149
   4 C :   -0.206014
   5 H :    0.018963
   6 C :   -0.027372
   7 H :    0.036828
   8 H :    0.030791
   9 C :   -0.042708
  10 H :    0.024437
  11 H :    0.017980
  12 C :   -0.063305
  13 H :    0.030149
  14 H :    0.024496
  15 H :    0.032353
  16 S :    0.373055
  17 C :   -0.163769
  18 C :   -0.066494
  19 C :   -0.049669
  20 C :   -0.177694
  21 H :    0.020929
  22 C :   -0.031936
  23 H :    0.037748
  24 H :    0.036452
  25 C :   -0.029177
  26 H :    0.019518
  27 H :    0.017584
  28 C :   -0.053979
  29 H :    0.012051
  30 H :    0.021615
  31 H :    0.025221
  32 H :    0.025176
  33 H :    0.025604

  Mayer bond orders larger than 0.100000
B(  0-S ,  1-C ) :   1.1555 B(  0-S ,  4-C ) :   1.1662 B(  1-C ,  2-C ) :   1.5695
B(  1-C ,  4-C ) :   0.1047 B(  1-C , 32-H ) :   0.9755 B(  2-C ,  3-C ) :   1.2501
B(  2-C ,  6-C ) :   1.0098 B(  3-C ,  4-C ) :   1.5818 B(  3-C ,  5-H ) :   0.9997
B(  4-C , 20-C ) :   1.0038 B(  6-C ,  7-H ) :   0.9455 B(  6-C ,  8-H ) :   0.9419
B(  6-C ,  9-C ) :   1.0595 B(  9-C , 10-H ) :   0.9578 B(  9-C , 11-H ) :   0.9593
B(  9-C , 12-C ) :   1.0704 B( 12-C , 13-H ) :   0.9731 B( 12-C , 14-H ) :   0.9771
B( 12-C , 15-H ) :   0.9727 B( 16-S , 17-C ) :   1.1395 B( 16-S , 20-C ) :   1.1209
B( 17-C , 18-C ) :   1.6417 B( 17-C , 33-H ) :   0.9668 B( 18-C , 19-C ) :   1.2003
B( 18-C , 21-H ) :   0.9925 B( 19-C , 20-C ) :   1.6554 B( 19-C , 22-C ) :   1.0590
B( 22-C , 23-H ) :   0.9153 B( 22-C , 24-H ) :   0.9365 B( 22-C , 25-C ) :   1.0780
B( 25-C , 26-H ) :   0.9509 B( 25-C , 27-H ) :   0.9521 B( 25-C , 28-C ) :   1.0801
B( 28-C , 29-H ) :   0.9750 B( 28-C , 30-H ) :   0.9701 B( 28-C , 31-H ) :   0.9747

Dispersion correction           -0.015461163
FINAL SINGLE POINT ENERGY     -1339.879517553910

DIPOLE MOMENT
-------------
                                X             Y             Z
Electronic contribution:     -0.87551      25.22047      12.98104
Nuclear contribution   :      1.05220     -25.76446     -13.49294
                        -----------------------------------------
Total Dipole Moment    :      0.17669      -0.54399      -0.51190
                        -----------------------------------------
Magnitude (a.u.)       :      0.76759
Magnitude (Debye)      :      1.95105

Rotational constants in cm-1:     0.018805     0.009836     0.007269
Rotational constants in MHz :   563.760682   294.873845   217.930156

                             ****ORCA TERMINATED NORMALLY****
TOTAL RUN TIME: 0 days 0 hours 0 minutes 30 seconds 901 msec
