                         Program Version 4.2.1 -  RELEASE  -
|  1> ! wB97X-D3 SP def2-SVP
|  2> %pal
|  3> nprocs 16
|  4> end
|  5>
|  6> * xyz 0 1
|  7> S 	 25.4594 	 31.8226 	 57.3486
|  8> C 	 26.0812 	 30.6395 	 56.1808
|  9> C 	 27.3959 	 30.342 	 56.3983
| 10> C 	 27.9818 	 31.1736 	 57.4199
| 11> C 	 27.0693 	 31.957 	 58.0955
| 12> H 	 28.986 	 31.0951 	 57.7424
| 13> C 	 28.1323 	 29.2697 	 55.6146
| 14> H 	 29.0286 	 29.76 	 55.2574
| 15> H 	 27.5707 	 29.1019 	 54.6724
| 16> C 	 28.2597 	 27.9163 	 56.3833
| 17> H 	 28.5506 	 28.1503 	 57.4516
| 18> H 	 27.2713 	 27.3648 	 56.4988
| 19> C 	 29.1721 	 26.9495 	 55.6709
| 20> H 	 30.1893 	 27.477 	 55.8784
| 21> H 	 29.212 	 26.0341 	 56.2576
| 22> H 	 28.9153 	 26.6957 	 54.6113
| 23> S 	 26.4048 	 34.3364 	 59.1722
| 24> C 	 26.9521 	 34.6852 	 60.7961
| 25> C 	 27.8897 	 33.7794 	 61.2426
| 26> C 	 28.1069 	 32.6932 	 60.3414
| 27> C 	 27.3207 	 32.8553 	 59.1736
| 28> H 	 28.3538 	 33.933 	 62.197
| 29> C 	 28.8022 	 31.4345 	 60.7269
| 30> H 	 28.7253 	 30.5775 	 60.0638
| 31> H 	 28.3528 	 31.2446 	 61.7191
| 32> C 	 30.2897 	 31.5784 	 60.8568
| 33> H 	 30.8256 	 30.6306 	 61.1534
| 34> H 	 30.6556 	 32.374 	 61.504
| 35> C 	 30.9545 	 32.1719 	 59.6486
| 36> H 	 30.5988 	 33.1445 	 59.3695
| 37> H 	 30.8319 	 31.617 	 58.7772
| 38> H 	 32.0433 	 32.3703 	 59.6973
| 39> H 	 25.449 	 30.2698 	 55.419
| 40> H 	 26.5305 	 35.4383 	 61.4912
| 41> *
| 42>
| 43>                          ****END OF INPUT****

CARTESIAN COORDINATES (ANGSTROEM)
---------------------------------
  S     25.459400   31.822600   57.348600
  C     26.081200   30.639500   56.180800
  C     27.395900   30.342000   56.398300
  C     27.981800   31.173600   57.419900
  C     27.069300   31.957000   58.095500
  H     28.986000   31.095100   57.742400
  C     28.132300   29.269700   55.614600
  H     29.028600   29.760000   55.257400
  H     27.570700   29.101900   54.672400
  C     28.259700   27.916300   56.383300
  H     28.550600   28.150300   57.451600
  H     27.271300   27.364800   56.498800
  C     29.172100   26.949500   55.670900
  H     30.189300   27.477000   55.878400
  H     29.212000   26.034100   56.257600
  H     28.915300   26.695700   54.611300
  S     26.404800   34.336400   59.172200
  C     26.952100   34.685200   60.796100
  C     27.889700   33.779400   61.242600
  C     28.106900   32.693200   60.341400
  C     27.320700   32.855300   59.173600
  H     28.353800   33.933000   62.197000
  C     28.802200   31.434500   60.726900
  H     28.725300   30.577500   60.063800
  H     28.352800   31.244600   61.719100
  C     30.289700   31.578400   60.856800
  H     30.825600   30.630600   61.153400
  H     30.655600   32.374000   61.504000
  C     30.954500   32.171900   59.648600
  H     30.598800   33.144500   59.369500
  H     30.831900   31.617000   58.777200
  H     32.043300   32.370300   59.697300
  H     25.449000   30.269800   55.419000
  H     26.530500   35.438300   61.491200

 Total Charge           Charge          ....    0
 Multiplicity           Mult            ....    1
 Number of Electrons    NEL             ....  134
 Basis Dimension        Dim             ....  322

ORBITAL ENERGIES
----------------

  NO   OCC          E(Eh)            E(eV)
   0   2.0000     -88.967582     -2420.9310
   1   2.0000     -88.962373     -2420.7892
   2   2.0000     -10.328216      -281.0450
   3   2.0000     -10.324540      -280.9450
   4   2.0000     -10.319054      -280.7957
   5   2.0000     -10.309483      -280.5353
   6   2.0000     -10.307070      -280.4696
   7   2.0000     -10.299176      -280.2548
   8   2.0000     -10.297931      -280.2210
   9   2.0000     -10.295076      -280.1433
  10   2.0000     -10.294726      -280.1337
  11   2.0000     -10.293221      -280.0928
  12   2.0000     -10.290767      -280.0260
  13   2.0000     -10.288592      -279.9668
  14   2.0000     -10.285994      -279.8961
  15   2.0000     -10.266532      -279.3665
  16   2.0000      -8.082473      -219.9353
  17   2.0000      -8.076537      -219.7737
  18   2.0000      -6.040916      -164.3817
  19   2.0000      -6.036999      -164.2751
  20   2.0000      -6.035109      -164.2237
  21   2.0000      -6.033241      -164.1728
  22   2.0000      -6.031222      -164.1179
  23   2.0000      -6.027169      -164.0076
  24   2.0000      -1.006890       -27.3989
  25   2.0000      -0.980543       -26.6819
  26   2.0000      -0.922699       -25.1079
  27   2.0000      -0.908961       -24.7341
  28   2.0000      -0.872816       -23.7505
  29   2.0000      -0.854936       -23.2640
  30   2.0000      -0.845058       -22.9952
  31   2.0000      -0.817392       -22.2424
  32   2.0000      -0.786549       -21.4031
  33   2.0000      -0.769062       -20.9272
  34   2.0000      -0.709956       -19.3189
  35   2.0000      -0.693749       -18.8779
  36   2.0000      -0.691062       -18.8048
  37   2.0000      -0.661104       -17.9896
  38   2.0000      -0.642502       -17.4834
  39   2.0000      -0.624988       -17.0068
  40   2.0000      -0.603185       -16.4135
  41   2.0000      -0.564254       -15.3541
  42   2.0000      -0.562619       -15.3096
  43   2.0000      -0.554468       -15.0878
  44   2.0000      -0.546252       -14.8643
  45   2.0000      -0.527005       -14.3405
  46   2.0000      -0.523640       -14.2490
  47   2.0000      -0.511006       -13.9052
  48   2.0000      -0.507646       -13.8138
  49   2.0000      -0.498533       -13.5658
  50   2.0000      -0.488956       -13.3052
  51   2.0000      -0.485413       -13.2088
  52   2.0000      -0.472530       -12.8582
  53   2.0000      -0.465289       -12.6612
  54   2.0000      -0.456997       -12.4355
  55   2.0000      -0.451066       -12.2741
  56   2.0000      -0.445597       -12.1253
  57   2.0000      -0.440142       -11.9769
  58   2.0000      -0.433553       -11.7976
  59   2.0000      -0.422629       -11.5003
  60   2.0000      -0.418596       -11.3906
  61   2.0000      -0.404763       -11.0142
  62   2.0000      -0.402582       -10.9548
  63   2.0000      -0.350571        -9.5395
  64   2.0000      -0.333020        -9.0619
  65   2.0000      -0.329270        -8.9599
  66   2.0000      -0.284598        -7.7443
  67   0.0000       0.021364         0.5814
  68   0.0000       0.080420         2.1883
  69   0.0000       0.104949         2.8558
  70   0.0000       0.119434         3.2500
  71   0.0000       0.127750         3.4762

MULLIKEN ATOMIC CHARGES
-----------------------
   0 S :    0.089904
   1 C :   -0.115375
   2 C :   -0.088946
   3 C :    0.059234
   4 C :   -0.128909
   5 H :   -0.039174
   6 C :    0.075129
   7 H :    0.028413
   8 H :    0.016394
   9 C :   -0.110611
  10 H :    0.040000
  11 H :    0.037071
  12 C :   -0.056887
  13 H :    0.039959
  14 H :    0.035457
  15 H :    0.055871
  16 S :    0.115213
  17 C :   -0.103442
  18 C :   -0.035946
  19 C :   -0.042690
  20 C :   -0.156731
  21 H :    0.015556
  22 C :    0.102674
  23 H :    0.031073
  24 H :    0.043526
  25 C :   -0.082217
  26 H :    0.041924
  27 H :    0.023985
  28 C :   -0.062247
  29 H :    0.031690
  30 H :    0.005946
  31 H :    0.029055
  32 H :    0.035495
  33 H :    0.069607
Sum of atomic charges:    0.0000000

LOEWDIN ATOMIC CHARGES
----------------------
   0 S :    0.371446
   1 C :   -0.178041
   2 C :   -0.062192
   3 C :   -0.060462
   4 C :   -0.177946
   5 H :    0.018279
   6 C :   -0.034264
   7 H :    0.030077
   8 H :    0.032234
   9 C :   -0.050596
  10 H :    0.028030
  11 H :    0.029066
  12 C :   -0.077095
  13 H :    0.037663
  14 H :    0.025116
  15 H :    0.033384
  16 S :    0.411278
  17 C :   -0.190732
  18 C :   -0.068283
  19 C :   -0.049796
  20 C :   -0.201363
  21 H :    0.030398
  22 C :   -0.029914
  23 H :    0.033663
  24 H :    0.042388
  25 C :   -0.049898
  26 H :    0.031174
  27 H :    0.025826
  28 C :   -0.068965
  29 H :    0.025620
  30 H :    0.004411
  31 H :    0.031837
  32 H :    0.018962
  33 H :    0.038693

  Mayer bond orders larger than 0.100000
B(  0-S ,  1-C ) :   1.1173 B(  0-S ,  4-C ) :   1.1302 B(  1-C ,  2-C ) :   1.6327
B(  1-C , 32-H ) :   0.9739 B(  2-C ,  3-C ) :   1.2207 B(  2-C ,  6-C ) :   1.0240
B(  3-C ,  4-C ) :   1.5668 B(  3-C ,  5-H ) :   0.9968 B(  4-C , 20-C ) :   1.1008
B(  6-C ,  7-H ) :   0.9441 B(  6-C ,  8-H ) :   0.9371 B(  6-C ,  9-C ) :   1.0410
B(  9-C , 10-H ) :   0.9614 B(  9-C , 11-H ) :   0.9529 B(  9-C , 12-C ) :   1.0756
B( 12-C , 13-H ) :   0.9763 B( 12-C , 14-H ) :   0.9725 B( 12-C , 15-H ) :   0.9711
B( 16-S , 17-C ) :   1.1456 B( 16-S , 20-C ) :   1.1430 B( 17-C , 18-C ) :   1.6231
B( 17-C , 33-H ) :   0.9614 B( 18-C , 19-C ) :   1.2398 B( 18-C , 21-H ) :   0.9894
B( 19-C , 20-C ) :   1.5455 B( 19-C , 22-C ) :   1.0411 B( 22-C , 23-H ) :   0.9369
B( 22-C , 24-H ) :   0.9328 B( 22-C , 25-C ) :   1.0623 B( 25-C , 26-H ) :   0.9583
B( 25-C , 27-H ) :   0.9569 B( 25-C , 28-C ) :   1.0634 B( 28-C , 29-H ) :   0.9660
B( 28-C , 30-H ) :   0.9677 B( 28-C , 31-H ) :   0.9681

Dispersion correction           -0.014854093
FINAL SINGLE POINT ENERGY     -1339.867165048791

DIPOLE MOMENT
-------------
                                X             Y             Z
Electronic contribution:    -22.40580      20.76340       1.60305
Nuclear contribution   :     22.83335     -21.19487      -1.40884
                        -----------------------------------------
Total Dipole Moment    :      0.42755      -0.43147       0.19421
                        -----------------------------------------
Magnitude (a.u.)       :      0.63772
Magnitude (Debye)      :      1.62095

Rotational constants in cm-1:     0.019692     0.009174     0.006666
Rotational constants in MHz :   590.351917   275.036360   199.854604

                             ****ORCA TERMINATED NORMALLY****
TOTAL RUN TIME: 0 days 0 hours 0 minutes 33 seconds 911 msec
