                         Program Version 4.2.1 -  RELEASE  -
|  1> ! wB97X-D3 SP def2-SVP
|  2> %pal
|  3> nprocs 16
|  4> end
|  5>
|  6> * xyz 0 1
|  7> S 	 55.8958 	 24.6561 	 41.2139
|  8> C 	 56.0528 	 26.3865 	 40.7174
|  9> C 	 54.9575 	 27.1383 	 41.0779
| 10> C 	 54.0494 	 26.3237 	 41.7857
| 11> C 	 54.4441 	 25.0685 	 42.0507
| 12> H 	 53.1096 	 26.6008 	 42.1962
| 13> C 	 54.8288 	 28.6556 	 40.8253
| 14> H 	 53.9129 	 28.9879 	 41.3715
| 15> H 	 54.7606 	 28.7764 	 39.731
| 16> C 	 55.9816 	 29.5295 	 41.3717
| 17> H 	 55.9415 	 29.5121 	 42.4098
| 18> H 	 56.9284 	 29.2129 	 41.0485
| 19> C 	 55.9821 	 31.0101 	 41.0199
| 20> H 	 56.2754 	 30.98 	 39.9701
| 21> H 	 55.0074 	 31.4982 	 41.1967
| 22> H 	 56.7658 	 31.4477 	 41.61
| 23> S 	 55.0809 	 22.9771 	 43.6871
| 24> C 	 53.8057 	 22.1202 	 44.4695
| 25> C 	 52.5445 	 22.6244 	 44.1761
| 26> C 	 52.5666 	 23.7047 	 43.2731
| 27> C 	 53.8833 	 24.1032 	 42.9704
| 28> H 	 51.6845 	 22.0955 	 44.5188
| 29> C 	 51.2296 	 24.3066 	 42.8435
| 30> H 	 50.5542 	 23.5454 	 42.6147
| 31> H 	 51.4598 	 24.7541 	 41.8431
| 32> C 	 50.7031 	 25.3269 	 43.7885
| 33> H 	 51.2648 	 26.2214 	 43.6835
| 34> H 	 50.797 	 24.9949 	 44.8522
| 35> C 	 49.22 	 25.7228 	 43.6271
| 36> H 	 48.6159 	 24.8207 	 43.5431
| 37> H 	 48.9504 	 26.2674 	 42.7295
| 38> H 	 48.9006 	 26.3613 	 44.4995
| 39> H 	 56.7941 	 26.8896 	 40.1351
| 40> H 	 53.9644 	 21.4136 	 45.2518
| 41> *
| 42>
| 43>                          ****END OF INPUT****

CARTESIAN COORDINATES (ANGSTROEM)
---------------------------------
  S     55.895800   24.656100   41.213900
  C     56.052800   26.386500   40.717400
  C     54.957500   27.138300   41.077900
  C     54.049400   26.323700   41.785700
  C     54.444100   25.068500   42.050700
  H     53.109600   26.600800   42.196200
  C     54.828800   28.655600   40.825300
  H     53.912900   28.987900   41.371500
  H     54.760600   28.776400   39.731000
  C     55.981600   29.529500   41.371700
  H     55.941500   29.512100   42.409800
  H     56.928400   29.212900   41.048500
  C     55.982100   31.010100   41.019900
  H     56.275400   30.980000   39.970100
  H     55.007400   31.498200   41.196700
  H     56.765800   31.447700   41.610000
  S     55.080900   22.977100   43.687100
  C     53.805700   22.120200   44.469500
  C     52.544500   22.624400   44.176100
  C     52.566600   23.704700   43.273100
  C     53.883300   24.103200   42.970400
  H     51.684500   22.095500   44.518800
  C     51.229600   24.306600   42.843500
  H     50.554200   23.545400   42.614700
  H     51.459800   24.754100   41.843100
  C     50.703100   25.326900   43.788500
  H     51.264800   26.221400   43.683500
  H     50.797000   24.994900   44.852200
  C     49.220000   25.722800   43.627100
  H     48.615900   24.820700   43.543100
  H     48.950400   26.267400   42.729500
  H     48.900600   26.361300   44.499500
  H     56.794100   26.889600   40.135100
  H     53.964400   21.413600   45.251800

 Total Charge           Charge          ....    0
 Multiplicity           Mult            ....    1
 Number of Electrons    NEL             ....  134
 Basis Dimension        Dim             ....  322

ORBITAL ENERGIES
----------------

  NO   OCC          E(Eh)            E(eV)
   0   2.0000     -88.968656     -2420.9602
   1   2.0000     -88.966614     -2420.9046
   2   2.0000     -10.331418      -281.1322
   3   2.0000     -10.321785      -280.8701
   4   2.0000     -10.313088      -280.6334
   5   2.0000     -10.309645      -280.5397
   6   2.0000     -10.305657      -280.4312
   7   2.0000     -10.301674      -280.3228
   8   2.0000     -10.299681      -280.2686
   9   2.0000     -10.290568      -280.0206
  10   2.0000     -10.289672      -279.9962
  11   2.0000     -10.286257      -279.9033
  12   2.0000     -10.283431      -279.8264
  13   2.0000     -10.281993      -279.7872
  14   2.0000     -10.277801      -279.6732
  15   2.0000     -10.275879      -279.6209
  16   2.0000      -8.083068      -219.9515
  17   2.0000      -8.080848      -219.8911
  18   2.0000      -6.041479      -164.3970
  19   2.0000      -6.039477      -164.3425
  20   2.0000      -6.037623      -164.2921
  21   2.0000      -6.035616      -164.2375
  22   2.0000      -6.033938      -164.1918
  23   2.0000      -6.031306      -164.1202
  24   2.0000      -1.009644       -27.4738
  25   2.0000      -0.983498       -26.7624
  26   2.0000      -0.916994       -24.9527
  27   2.0000      -0.913440       -24.8560
  28   2.0000      -0.873350       -23.7651
  29   2.0000      -0.855399       -23.2766
  30   2.0000      -0.844875       -22.9902
  31   2.0000      -0.815859       -22.2006
  32   2.0000      -0.787450       -21.4276
  33   2.0000      -0.773936       -21.0599
  34   2.0000      -0.708426       -19.2773
  35   2.0000      -0.700374       -19.0582
  36   2.0000      -0.694736       -18.9047
  37   2.0000      -0.666312       -18.1313
  38   2.0000      -0.639255       -17.3950
  39   2.0000      -0.617733       -16.8094
  40   2.0000      -0.597733       -16.2651
  41   2.0000      -0.582797       -15.8587
  42   2.0000      -0.569459       -15.4958
  43   2.0000      -0.560420       -15.2498
  44   2.0000      -0.533889       -14.5278
  45   2.0000      -0.527414       -14.3517
  46   2.0000      -0.516806       -14.0630
  47   2.0000      -0.511830       -13.9276
  48   2.0000      -0.507909       -13.8209
  49   2.0000      -0.504266       -13.7218
  50   2.0000      -0.497460       -13.5366
  51   2.0000      -0.473972       -12.8974
  52   2.0000      -0.469198       -12.7675
  53   2.0000      -0.468028       -12.7357
  54   2.0000      -0.456154       -12.4126
  55   2.0000      -0.451437       -12.2842
  56   2.0000      -0.445721       -12.1287
  57   2.0000      -0.440613       -11.9897
  58   2.0000      -0.433990       -11.8095
  59   2.0000      -0.429395       -11.6844
  60   2.0000      -0.421449       -11.4682
  61   2.0000      -0.415385       -11.3032
  62   2.0000      -0.414080       -11.2677
  63   2.0000      -0.353205        -9.6112
  64   2.0000      -0.336485        -9.1562
  65   2.0000      -0.333896        -9.0858
  66   2.0000      -0.281257        -7.6534
  67   0.0000       0.023432         0.6376
  68   0.0000       0.070515         1.9188
  69   0.0000       0.099842         2.7168
  70   0.0000       0.125934         3.4268
  71   0.0000       0.133842         3.6420

MULLIKEN ATOMIC CHARGES
-----------------------
   0 S :    0.105444
   1 C :   -0.116036
   2 C :   -0.068733
   3 C :    0.012329
   4 C :   -0.114139
   5 H :   -0.034182
   6 C :    0.073502
   7 H :    0.028596
   8 H :    0.041154
   9 C :   -0.064694
  10 H :    0.016568
  11 H :    0.009980
  12 C :   -0.045675
  13 H :    0.028316
  14 H :    0.038740
  15 H :    0.036450
  16 S :    0.102863
  17 C :   -0.079482
  18 C :   -0.028028
  19 C :   -0.056731
  20 C :   -0.146953
  21 H :    0.010903
  22 C :    0.099097
  23 H :    0.005683
  24 H :    0.026401
  25 C :   -0.058103
  26 H :    0.024884
  27 H :    0.036606
  28 C :   -0.061719
  29 H :    0.024420
  30 H :    0.027699
  31 H :    0.047532
  32 H :    0.026118
  33 H :    0.051188
Sum of atomic charges:   -0.0000000

LOEWDIN ATOMIC CHARGES
----------------------
   0 S :    0.388395
   1 C :   -0.182625
   2 C :   -0.058084
   3 C :   -0.072479
   4 C :   -0.191778
   5 H :    0.021316
   6 C :   -0.026969
   7 H :    0.035022
   8 H :    0.034502
   9 C :   -0.035057
  10 H :    0.015650
  11 H :    0.014595
  12 C :   -0.057526
  13 H :    0.024724
  14 H :    0.025435
  15 H :    0.027682
  16 S :    0.404133
  17 C :   -0.188815
  18 C :   -0.068481
  19 C :   -0.049264
  20 C :   -0.181503
  21 H :    0.028327
  22 C :   -0.028673
  23 H :    0.021575
  24 H :    0.036053
  25 C :   -0.041522
  26 H :    0.019347
  27 H :    0.031951
  28 C :   -0.069587
  29 H :    0.021769
  30 H :    0.021154
  31 H :    0.035363
  32 H :    0.021511
  33 H :    0.023859

  Mayer bond orders larger than 0.100000
B(  0-S ,  1-C ) :   1.1086 B(  0-S ,  4-C ) :   1.1274 B(  1-C ,  2-C ) :   1.6442
B(  1-C , 32-H ) :   0.9670 B(  2-C ,  3-C ) :   1.2280 B(  2-C ,  6-C ) :   1.0057
B(  3-C ,  4-C ) :   1.6052 B(  3-C ,  5-H ) :   1.0031 B(  4-C , 20-C ) :   1.0626
B(  6-C ,  7-H ) :   0.9437 B(  6-C ,  8-H ) :   0.9362 B(  6-C ,  9-C ) :   1.0724
B(  9-C , 10-H ) :   0.9577 B(  9-C , 11-H ) :   0.9574 B(  9-C , 12-C ) :   1.0841
B( 12-C , 13-H ) :   0.9796 B( 12-C , 14-H ) :   0.9754 B( 12-C , 15-H ) :   0.9739
B( 16-S , 17-C ) :   1.1627 B( 16-S , 20-C ) :   1.1379 B( 17-C , 18-C ) :   1.5959
B( 17-C , 20-C ) :   0.1057 B( 17-C , 33-H ) :   0.9667 B( 18-C , 19-C ) :   1.2610
B( 18-C , 21-H ) :   0.9921 B( 19-C , 20-C ) :   1.5627 B( 19-C , 22-C ) :   1.0449
B( 22-C , 23-H ) :   0.9320 B( 22-C , 24-H ) :   0.9219 B( 22-C , 25-C ) :   1.0697
B( 25-C , 26-H ) :   0.9483 B( 25-C , 27-H ) :   0.9560 B( 25-C , 28-C ) :   1.0807
B( 28-C , 29-H ) :   0.9753 B( 28-C , 30-H ) :   0.9753 B( 28-C , 31-H ) :   0.9751

Dispersion correction           -0.013468687
FINAL SINGLE POINT ENERGY     -1339.867705224667

DIPOLE MOMENT
-------------
                                X             Y             Z
Electronic contribution:     15.58254     -24.98369       0.65726
Nuclear contribution   :    -16.05675      25.39012      -0.53639
                        -----------------------------------------
Total Dipole Moment    :     -0.47421       0.40642       0.12087
                        -----------------------------------------
Magnitude (a.u.)       :      0.63613
Magnitude (Debye)      :      1.61691

Rotational constants in cm-1:     0.017943     0.008112     0.006003
Rotational constants in MHz :   537.923725   243.182676   179.979755

                             ****ORCA TERMINATED NORMALLY****
TOTAL RUN TIME: 0 days 0 hours 0 minutes 27 seconds 891 msec
