                         Program Version 4.2.1 -  RELEASE  -
|  1> ! wB97X-D3 SP def2-SVP
|  2> %pal
|  3> nprocs 16
|  4> end
|  5>
|  6> * xyz 0 1
|  7> S 	 -1.06361 	 58.9587 	 48.8915
|  8> C 	 -2.55019 	 58.8893 	 49.7098
|  9> C 	 -3.56816 	 59.5374 	 49.0803
| 10> C 	 -3.10035 	 60.1122 	 47.8522
| 11> C 	 -1.75178 	 59.8969 	 47.5885
| 12> H 	 -3.79483 	 60.6921 	 47.2747
| 13> C 	 -4.99908 	 59.6036 	 49.5618
| 14> H 	 -5.16011 	 60.633 	 49.2505
| 15> H 	 -5.02423 	 59.501 	 50.6846
| 16> C 	 -5.93844 	 58.5617 	 49.0189
| 17> H 	 -6.00478 	 58.5699 	 47.9476
| 18> H 	 -5.65219 	 57.5316 	 49.2497
| 19> C 	 -7.30219 	 58.6056 	 49.7449
| 20> H 	 -7.83836 	 59.5291 	 49.6447
| 21> H 	 -7.8548 	 57.7688 	 49.2912
| 22> H 	 -7.1768 	 58.3699 	 50.8155
| 23> S 	 0.304661 	 61.4165 	 46.5794
| 24> C 	 0.535242 	 61.4282 	 44.8184
| 25> C 	 -0.396083 	 60.7301 	 44.1248
| 26> C 	 -1.27444 	 60.0318 	 45.0389
| 27> C 	 -1.00581 	 60.2579 	 46.4235
| 28> H 	 -0.309532 	 60.546 	 43.0889
| 29> C 	 -2.37545 	 59.1885 	 44.4312
| 30> H 	 -3.12033 	 59.8678 	 44.0811
| 31> H 	 -2.94595 	 58.745 	 45.19
| 32> C 	 -1.99672 	 58.2612 	 43.3003
| 33> H 	 -1.70591 	 58.9052 	 42.4217
| 34> H 	 -2.8715 	 57.8071 	 42.8784
| 35> C 	 -1.12046 	 57.0562 	 43.5487
| 36> H 	 -1.61024 	 56.3597 	 44.1841
| 37> H 	 -0.295333 	 57.4801 	 44.1148
| 38> H 	 -0.933097 	 56.7091 	 42.6064
| 39> H 	 -2.72058 	 58.2529 	 50.5619
| 40> H 	 1.23612 	 62.123 	 44.2638
| 41> *
| 42>
| 43>                          ****END OF INPUT****

CARTESIAN COORDINATES (ANGSTROEM)
---------------------------------
  S     -1.063610   58.958700   48.891500
  C     -2.550190   58.889300   49.709800
  C     -3.568160   59.537400   49.080300
  C     -3.100350   60.112200   47.852200
  C     -1.751780   59.896900   47.588500
  H     -3.794830   60.692100   47.274700
  C     -4.999080   59.603600   49.561800
  H     -5.160110   60.633000   49.250500
  H     -5.024230   59.501000   50.684600
  C     -5.938440   58.561700   49.018900
  H     -6.004780   58.569900   47.947600
  H     -5.652190   57.531600   49.249700
  C     -7.302190   58.605600   49.744900
  H     -7.838360   59.529100   49.644700
  H     -7.854800   57.768800   49.291200
  H     -7.176800   58.369900   50.815500
  S      0.304661   61.416500   46.579400
  C      0.535242   61.428200   44.818400
  C     -0.396083   60.730100   44.124800
  C     -1.274440   60.031800   45.038900
  C     -1.005810   60.257900   46.423500
  H     -0.309532   60.546000   43.088900
  C     -2.375450   59.188500   44.431200
  H     -3.120330   59.867800   44.081100
  H     -2.945950   58.745000   45.190000
  C     -1.996720   58.261200   43.300300
  H     -1.705910   58.905200   42.421700
  H     -2.871500   57.807100   42.878400
  C     -1.120460   57.056200   43.548700
  H     -1.610240   56.359700   44.184100
  H     -0.295333   57.480100   44.114800
  H     -0.933097   56.709100   42.606400
  H     -2.720580   58.252900   50.561900
  H      1.236120   62.123000   44.263800

 Total Charge           Charge          ....    0
 Multiplicity           Mult            ....    1
 Number of Electrons    NEL             ....  134
 Basis Dimension        Dim             ....  322

ORBITAL ENERGIES
----------------

  NO   OCC          E(Eh)            E(eV)
   0   2.0000     -88.964695     -2420.8524
   1   2.0000     -88.964046     -2420.8348
   2   2.0000     -10.327477      -281.0249
   3   2.0000     -10.327043      -281.0131
   4   2.0000     -10.320933      -280.8469
   5   2.0000     -10.307389      -280.4783
   6   2.0000     -10.304544      -280.4009
   7   2.0000     -10.295291      -280.1491
   8   2.0000     -10.294414      -280.1252
   9   2.0000     -10.293066      -280.0886
  10   2.0000     -10.289071      -279.9799
  11   2.0000     -10.286897      -279.9207
  12   2.0000     -10.281355      -279.7699
  13   2.0000     -10.280682      -279.7516
  14   2.0000     -10.279186      -279.7109
  15   2.0000     -10.263213      -279.2762
  16   2.0000      -8.079967      -219.8671
  17   2.0000      -8.079033      -219.8417
  18   2.0000      -6.038322      -164.3111
  19   2.0000      -6.037607      -164.2916
  20   2.0000      -6.034270      -164.2008
  21   2.0000      -6.033624      -164.1832
  22   2.0000      -6.030858      -164.1080
  23   2.0000      -6.029711      -164.0768
  24   2.0000      -1.007751       -27.4223
  25   2.0000      -0.983252       -26.7557
  26   2.0000      -0.917433       -24.9646
  27   2.0000      -0.912524       -24.8310
  28   2.0000      -0.874564       -23.7981
  29   2.0000      -0.853691       -23.2301
  30   2.0000      -0.849718       -23.1220
  31   2.0000      -0.817451       -22.2440
  32   2.0000      -0.786474       -21.4010
  33   2.0000      -0.771335       -20.9891
  34   2.0000      -0.709496       -19.3064
  35   2.0000      -0.702259       -19.1094
  36   2.0000      -0.691299       -18.8112
  37   2.0000      -0.656101       -17.8534
  38   2.0000      -0.640036       -17.4163
  39   2.0000      -0.626156       -17.0386
  40   2.0000      -0.595044       -16.1920
  41   2.0000      -0.569594       -15.4994
  42   2.0000      -0.565969       -15.4008
  43   2.0000      -0.564499       -15.3608
  44   2.0000      -0.539929       -14.6922
  45   2.0000      -0.535284       -14.5658
  46   2.0000      -0.522804       -14.2262
  47   2.0000      -0.510260       -13.8849
  48   2.0000      -0.504685       -13.7332
  49   2.0000      -0.499172       -13.5832
  50   2.0000      -0.494634       -13.4597
  51   2.0000      -0.475230       -12.9317
  52   2.0000      -0.471289       -12.8244
  53   2.0000      -0.462385       -12.5821
  54   2.0000      -0.460162       -12.5216
  55   2.0000      -0.449983       -12.2447
  56   2.0000      -0.447075       -12.1655
  57   2.0000      -0.441719       -12.0198
  58   2.0000      -0.434698       -11.8287
  59   2.0000      -0.432705       -11.7745
  60   2.0000      -0.421497       -11.4695
  61   2.0000      -0.406767       -11.0687
  62   2.0000      -0.399399       -10.8682
  63   2.0000      -0.347384        -9.4528
  64   2.0000      -0.330609        -8.9963
  65   2.0000      -0.325049        -8.8450
  66   2.0000      -0.293116        -7.9761
  67   0.0000       0.035389         0.9630
  68   0.0000       0.066930         1.8212
  69   0.0000       0.115573         3.1449
  70   0.0000       0.124224         3.3803
  71   0.0000       0.130035         3.5384

MULLIKEN ATOMIC CHARGES
-----------------------
   0 S :    0.124892
   1 C :   -0.112855
   2 C :   -0.115608
   3 C :    0.047830
   4 C :   -0.167813
   5 H :   -0.001706
   6 C :    0.063067
   7 H :    0.031110
   8 H :    0.027147
   9 C :   -0.054588
  10 H :    0.022394
  11 H :    0.021571
  12 C :   -0.053215
  13 H :    0.033897
  14 H :    0.035681
  15 H :    0.034754
  16 S :    0.104561
  17 C :   -0.099219
  18 C :   -0.023175
  19 C :   -0.066192
  20 C :   -0.146132
  21 H :    0.018608
  22 C :    0.131544
  23 H :    0.020479
  24 H :   -0.009261
  25 C :   -0.130299
  26 H :    0.022773
  27 H :    0.006682
  28 C :    0.045335
  29 H :    0.023667
  30 H :    0.032238
  31 H :    0.020068
  32 H :    0.038709
  33 H :    0.073056
Sum of atomic charges:    0.0000000

LOEWDIN ATOMIC CHARGES
----------------------
   0 S :    0.431012
   1 C :   -0.208854
   2 C :   -0.072279
   3 C :   -0.055667
   4 C :   -0.205825
   5 H :    0.025907
   6 C :   -0.034807
   7 H :    0.035184
   8 H :    0.037123
   9 C :   -0.040816
  10 H :    0.019851
  11 H :    0.028211
  12 C :   -0.062096
  13 H :    0.018671
  14 H :    0.030003
  15 H :    0.026686
  16 S :    0.393104
  17 C :   -0.177137
  18 C :   -0.072843
  19 C :   -0.041492
  20 C :   -0.212511
  21 H :    0.028611
  22 C :   -0.036460
  23 H :    0.036709
  24 H :    0.020580
  25 C :   -0.047151
  26 H :    0.023943
  27 H :    0.020934
  28 C :   -0.044987
  29 H :    0.023577
  30 H :    0.028559
  31 H :    0.017713
  32 H :    0.025226
  33 H :    0.041320

  Mayer bond orders larger than 0.100000
B(  0-S ,  1-C ) :   1.1564 B(  0-S ,  4-C ) :   1.1628 B(  1-C ,  2-C ) :   1.6120
B(  1-C , 32-H ) :   0.9640 B(  2-C ,  3-C ) :   1.2708 B(  2-C ,  6-C ) :   1.0014
B(  3-C ,  4-C ) :   1.5417 B(  3-C ,  5-H ) :   1.0012 B(  4-C , 20-C ) :   1.0430
B(  6-C ,  7-H ) :   0.9352 B(  6-C ,  8-H ) :   0.9421 B(  6-C ,  9-C ) :   1.0745
B(  9-C , 10-H ) :   0.9544 B(  9-C , 11-H ) :   0.9551 B(  9-C , 12-C ) :   1.0761
B( 12-C , 13-H ) :   0.9776 B( 12-C , 14-H ) :   0.9761 B( 12-C , 15-H ) :   0.9746
B( 16-S , 17-C ) :   1.1490 B( 16-S , 20-C ) :   1.1292 B( 17-C , 18-C ) :   1.6440
B( 17-C , 33-H ) :   0.9524 B( 18-C , 19-C ) :   1.2211 B( 18-C , 21-H ) :   0.9893
B( 19-C , 20-C ) :   1.5897 B( 19-C , 22-C ) :   1.0485 B( 22-C , 23-H ) :   0.9183
B( 22-C , 24-H ) :   0.9229 B( 22-C , 25-C ) :   1.0873 B( 25-C , 26-H ) :   0.9499
B( 25-C , 27-H ) :   0.9438 B( 25-C , 28-C ) :   1.0676 B( 28-C , 29-H ) :   0.9716
B( 28-C , 30-H ) :   0.9775 B( 28-C , 31-H ) :   0.9702

Dispersion correction           -0.013898539
FINAL SINGLE POINT ENERGY     -1339.863757974940

DIPOLE MOMENT
-------------
                                X             Y             Z
Electronic contribution:     23.39673      12.22866       7.18326
Nuclear contribution   :    -24.12096     -12.42984      -7.53399
                        -----------------------------------------
Total Dipole Moment    :     -0.72424      -0.20118      -0.35073
                        -----------------------------------------
Magnitude (a.u.)       :      0.82946
Magnitude (Debye)      :      2.10832

Rotational constants in cm-1:     0.019429     0.007834     0.006491
Rotational constants in MHz :   582.481222   234.851900   194.583101

                             ****ORCA TERMINATED NORMALLY****
TOTAL RUN TIME: 0 days 0 hours 0 minutes 33 seconds 299 msec
