                         Program Version 4.2.1 -  RELEASE  -
|  1> ! wB97X-D3 SP def2-SVP
|  2> %pal
|  3> nprocs 16
|  4> end
|  5>
|  6> * xyz 0 1
|  7> S 	 -4.03448 	 -15.2217 	 84.7754
|  8> C 	 -3.52136 	 -15.5974 	 86.366
|  9> C 	 -4.36417 	 -14.9957 	 87.2952
| 10> C 	 -5.47662 	 -14.3264 	 86.6947
| 11> C 	 -5.57298 	 -14.5216 	 85.3323
| 12> H 	 -6.26649 	 -13.8362 	 87.2276
| 13> C 	 -4.08079 	 -14.9241 	 88.7427
| 14> H 	 -3.47417 	 -14.0717 	 88.8528
| 15> H 	 -3.40499 	 -15.6616 	 89.1675
| 16> C 	 -5.34101 	 -14.941 	 89.67
| 17> H 	 -5.99983 	 -14.1043 	 89.3757
| 18> H 	 -5.93755 	 -15.7976 	 89.3461
| 19> C 	 -5.11397 	 -15.0831 	 91.1732
| 20> H 	 -4.80839 	 -14.1093 	 91.5942
| 21> H 	 -6.00523 	 -15.2962 	 91.753
| 22> H 	 -4.42553 	 -15.7409 	 91.5418
| 23> S 	 -5.95342 	 -12.6261 	 83.3712
| 24> C 	 -7.57554 	 -12.412 	 82.6611
| 25> C 	 -8.44212 	 -13.2066 	 83.3589
| 26> C 	 -7.90402 	 -14.0709 	 84.2915
| 27> C 	 -6.50092 	 -13.9085 	 84.4406
| 28> H 	 -9.49833 	 -13.1145 	 83.2771
| 29> C 	 -8.72468 	 -15.1536 	 85.0101
| 30> H 	 -9.42947 	 -14.7044 	 85.7915
| 31> H 	 -8.06689 	 -15.7829 	 85.7154
| 32> C 	 -9.53655 	 -16.0896 	 84.1273
| 33> H 	 -9.07439 	 -16.3604 	 83.1498
| 34> H 	 -10.4585 	 -15.5972 	 83.9292
| 35> C 	 -9.92155 	 -17.3275 	 84.9593
| 36> H 	 -10.3789 	 -16.9644 	 85.9033
| 37> H 	 -9.13783 	 -17.935 	 85.3565
| 38> H 	 -10.6979 	 -17.9147 	 84.4148
| 39> H 	 -2.60821 	 -16.0533 	 86.5693
| 40> H 	 -7.88544 	 -11.6416 	 81.9186
| 41> *
| 42>
| 43>                          ****END OF INPUT****

CARTESIAN COORDINATES (ANGSTROEM)
---------------------------------
  S     -4.034480  -15.221700   84.775400
  C     -3.521360  -15.597400   86.366000
  C     -4.364170  -14.995700   87.295200
  C     -5.476620  -14.326400   86.694700
  C     -5.572980  -14.521600   85.332300
  H     -6.266490  -13.836200   87.227600
  C     -4.080790  -14.924100   88.742700
  H     -3.474170  -14.071700   88.852800
  H     -3.404990  -15.661600   89.167500
  C     -5.341010  -14.941000   89.670000
  H     -5.999830  -14.104300   89.375700
  H     -5.937550  -15.797600   89.346100
  C     -5.113970  -15.083100   91.173200
  H     -4.808390  -14.109300   91.594200
  H     -6.005230  -15.296200   91.753000
  H     -4.425530  -15.740900   91.541800
  S     -5.953420  -12.626100   83.371200
  C     -7.575540  -12.412000   82.661100
  C     -8.442120  -13.206600   83.358900
  C     -7.904020  -14.070900   84.291500
  C     -6.500920  -13.908500   84.440600
  H     -9.498330  -13.114500   83.277100
  C     -8.724680  -15.153600   85.010100
  H     -9.429470  -14.704400   85.791500
  H     -8.066890  -15.782900   85.715400
  C     -9.536550  -16.089600   84.127300
  H     -9.074390  -16.360400   83.149800
  H    -10.458500  -15.597200   83.929200
  C     -9.921550  -17.327500   84.959300
  H    -10.378900  -16.964400   85.903300
  H     -9.137830  -17.935000   85.356500
  H    -10.697900  -17.914700   84.414800
  H     -2.608210  -16.053300   86.569300
  H     -7.885440  -11.641600   81.918600

 Total Charge           Charge          ....    0
 Multiplicity           Mult            ....    1
 Number of Electrons    NEL             ....  134
 Basis Dimension        Dim             ....  322

ORBITAL ENERGIES
----------------

  NO   OCC          E(Eh)            E(eV)
   0   2.0000     -88.965982     -2420.8874
   1   2.0000     -88.962805     -2420.8010
   2   2.0000     -10.328248      -281.0459
   3   2.0000     -10.327138      -281.0157
   4   2.0000     -10.321274      -280.8561
   5   2.0000     -10.308933      -280.5203
   6   2.0000     -10.301567      -280.3199
   7   2.0000     -10.300762      -280.2980
   8   2.0000     -10.300631      -280.2944
   9   2.0000     -10.294910      -280.1388
  10   2.0000     -10.291708      -280.0516
  11   2.0000     -10.286379      -279.9066
  12   2.0000     -10.285980      -279.8957
  13   2.0000     -10.284793      -279.8634
  14   2.0000     -10.278334      -279.6877
  15   2.0000     -10.274582      -279.5856
  16   2.0000      -8.079902      -219.8653
  17   2.0000      -8.077891      -219.8106
  18   2.0000      -6.038416      -164.3137
  19   2.0000      -6.036330      -164.2569
  20   2.0000      -6.034449      -164.2057
  21   2.0000      -6.032298      -164.1472
  22   2.0000      -6.030755      -164.1052
  23   2.0000      -6.028747      -164.0505
  24   2.0000      -1.007259       -27.4089
  25   2.0000      -0.985029       -26.8040
  26   2.0000      -0.911911       -24.8144
  27   2.0000      -0.906664       -24.6716
  28   2.0000      -0.875603       -23.8264
  29   2.0000      -0.851257       -23.1639
  30   2.0000      -0.846882       -23.0448
  31   2.0000      -0.817863       -22.2552
  32   2.0000      -0.781058       -21.2537
  33   2.0000      -0.766046       -20.8452
  34   2.0000      -0.718996       -19.5649
  35   2.0000      -0.699192       -19.0260
  36   2.0000      -0.697754       -18.9869
  37   2.0000      -0.655879       -17.8474
  38   2.0000      -0.650062       -17.6891
  39   2.0000      -0.624643       -16.9974
  40   2.0000      -0.598523       -16.2866
  41   2.0000      -0.566637       -15.4190
  42   2.0000      -0.561182       -15.2705
  43   2.0000      -0.560434       -15.2502
  44   2.0000      -0.527054       -14.3419
  45   2.0000      -0.522798       -14.2260
  46   2.0000      -0.515115       -14.0170
  47   2.0000      -0.513617       -13.9762
  48   2.0000      -0.506115       -13.7721
  49   2.0000      -0.500700       -13.6247
  50   2.0000      -0.492589       -13.4040
  51   2.0000      -0.484784       -13.1916
  52   2.0000      -0.480880       -13.0854
  53   2.0000      -0.472401       -12.8547
  54   2.0000      -0.456351       -12.4179
  55   2.0000      -0.449936       -12.2434
  56   2.0000      -0.441173       -12.0049
  57   2.0000      -0.436085       -11.8665
  58   2.0000      -0.430136       -11.7046
  59   2.0000      -0.423761       -11.5311
  60   2.0000      -0.420042       -11.4299
  61   2.0000      -0.411153       -11.1880
  62   2.0000      -0.407772       -11.0960
  63   2.0000      -0.345852        -9.4111
  64   2.0000      -0.330877        -9.0036
  65   2.0000      -0.322737        -8.7821
  66   2.0000      -0.293868        -7.9966
  67   0.0000       0.028665         0.7800
  68   0.0000       0.059742         1.6257
  69   0.0000       0.113815         3.0971
  70   0.0000       0.125996         3.4285
  71   0.0000       0.137128         3.7315

MULLIKEN ATOMIC CHARGES
-----------------------
   0 S :    0.103403
   1 C :   -0.083667
   2 C :   -0.086151
   3 C :    0.045868
   4 C :   -0.168579
   5 H :    0.012399
   6 C :    0.092100
   7 H :    0.027744
   8 H :    0.009332
   9 C :   -0.115547
  10 H :    0.037099
  11 H :    0.030849
  12 C :   -0.000753
  13 H :    0.020216
  14 H :    0.026391
  15 H :    0.011732
  16 S :    0.106391
  17 C :   -0.106429
  18 C :   -0.019530
  19 C :    0.001021
  20 C :   -0.167768
  21 H :    0.005252
  22 C :   -0.010761
  23 H :    0.038421
  24 H :    0.036215
  25 C :   -0.045905
  26 H :    0.050814
  27 H :    0.020374
  28 C :   -0.065098
  29 H :    0.015479
  30 H :    0.035253
  31 H :    0.041691
  32 H :    0.026182
  33 H :    0.075959
Sum of atomic charges:   -0.0000000

LOEWDIN ATOMIC CHARGES
----------------------
   0 S :    0.410486
   1 C :   -0.192861
   2 C :   -0.061787
   3 C :   -0.049722
   4 C :   -0.191276
   5 H :    0.029515
   6 C :   -0.035476
   7 H :    0.029926
   8 H :    0.030311
   9 C :   -0.043201
  10 H :    0.024729
  11 H :    0.025704
  12 C :   -0.063872
  13 H :    0.028799
  14 H :    0.030804
  15 H :    0.013111
  16 S :    0.398022
  17 C :   -0.184061
  18 C :   -0.072936
  19 C :   -0.060482
  20 C :   -0.199100
  21 H :    0.027501
  22 C :   -0.043586
  23 H :    0.036829
  24 H :    0.034742
  25 C :   -0.042347
  26 H :    0.030995
  27 H :    0.020393
  28 C :   -0.066801
  29 H :    0.025477
  30 H :    0.020631
  31 H :    0.029896
  32 H :    0.016816
  33 H :    0.042819

  Mayer bond orders larger than 0.100000
B(  0-S ,  1-C ) :   1.1543 B(  0-S ,  4-C ) :   1.1467 B(  1-C ,  2-C ) :   1.5773
B(  1-C ,  4-C ) :   0.1006 B(  1-C , 32-H ) :   0.9819 B(  2-C ,  3-C ) :   1.2527
B(  2-C ,  6-C ) :   1.0332 B(  3-C ,  4-C ) :   1.5557 B(  3-C ,  5-H ) :   0.9929
B(  4-C , 20-C ) :   1.0623 B(  6-C ,  7-H ) :   0.9260 B(  6-C ,  8-H ) :   0.9398
B(  6-C ,  9-C ) :   1.0492 B(  9-C , 10-H ) :   0.9512 B(  9-C , 11-H ) :   0.9638
B(  9-C , 12-C ) :   1.0844 B( 12-C , 13-H ) :   0.9718 B( 12-C , 14-H ) :   0.9717
B( 12-C , 15-H ) :   0.9745 B( 16-S , 17-C ) :   1.1470 B( 16-S , 20-C ) :   1.1586
B( 17-C , 18-C ) :   1.5759 B( 17-C , 20-C ) :   0.1124 B( 17-C , 33-H ) :   0.9643
B( 18-C , 19-C ) :   1.2962 B( 18-C , 21-H ) :   0.9878 B( 19-C , 20-C ) :   1.5509
B( 19-C , 22-C ) :   1.0357 B( 22-C , 23-H ) :   0.9286 B( 22-C , 24-H ) :   0.9466
B( 22-C , 25-C ) :   1.0546 B( 25-C , 26-H ) :   0.9624 B( 25-C , 27-H ) :   0.9446
B( 25-C , 28-C ) :   1.0827 B( 28-C , 29-H ) :   0.9681 B( 28-C , 30-H ) :   0.9775
B( 28-C , 31-H ) :   0.9745

Dispersion correction           -0.013460433
FINAL SINGLE POINT ENERGY     -1339.866951171695

DIPOLE MOMENT
-------------
                                X             Y             Z
Electronic contribution:     14.54245      11.56052     -22.39229
Nuclear contribution   :    -14.89833     -11.55680      23.01141
                        -----------------------------------------
Total Dipole Moment    :     -0.35588       0.00372       0.61912
                        -----------------------------------------
Magnitude (a.u.)       :      0.71412
Magnitude (Debye)      :      1.81515

Rotational constants in cm-1:     0.016512     0.008358     0.006703
Rotational constants in MHz :   495.018769   250.555520   200.956328

                             ****ORCA TERMINATED NORMALLY****
TOTAL RUN TIME: 0 days 0 hours 0 minutes 31 seconds 55 msec
