                         Program Version 4.2.1 -  RELEASE  -
|  1> ! wB97X-D3 SP def2-SVP
|  2> %pal
|  3> nprocs 16
|  4> end
|  5>
|  6> * xyz 0 1
|  7> S 	 5.38548 	 -17.4094 	 84.2973
|  8> C 	 4.32985 	 -18.8083 	 83.9574
|  9> C 	 2.99415 	 -18.4208 	 83.868
| 10> C 	 2.83266 	 -17.0249 	 83.9654
| 11> C 	 3.96629 	 -16.2948 	 84.2245
| 12> H 	 1.94498 	 -16.4961 	 83.8881
| 13> C 	 1.8313 	 -19.3425 	 83.5158
| 14> H 	 2.29024 	 -20.2283 	 82.9313
| 15> H 	 1.03491 	 -19.0178 	 82.7338
| 16> C 	 1.06992 	 -19.8857 	 84.7597
| 17> H 	 1.83657 	 -20.2374 	 85.4453
| 18> H 	 0.558948 	 -19.0975 	 85.3058
| 19> C 	 0.132188 	 -21.0656 	 84.5613
| 20> H 	 -0.55995 	 -21.3026 	 85.3785
| 21> H 	 -0.481517 	 -20.9877 	 83.6545
| 22> H 	 0.699247 	 -21.9235 	 84.2946
| 23> S 	 5.47577 	 -14.0335 	 83.7549
| 24> C 	 4.94096 	 -12.4569 	 84.1583
| 25> C 	 3.80795 	 -12.5346 	 84.9031
| 26> C 	 3.26928 	 -13.8464 	 84.956
| 27> C 	 4.05113 	 -14.8334 	 84.4003
| 28> H 	 3.29355 	 -11.679 	 85.2463
| 29> C 	 2.02225 	 -14.0348 	 85.7976
| 30> H 	 1.30761 	 -14.8196 	 85.4599
| 31> H 	 1.41494 	 -13.1718 	 85.5728
| 32> C 	 2.38956 	 -14.2122 	 87.3083
| 33> H 	 2.65865 	 -13.2466 	 87.6992
| 34> H 	 3.23962 	 -14.8684 	 87.4
| 35> C 	 1.36438 	 -14.8855 	 88.1586
| 36> H 	 0.355178 	 -14.4753 	 88.217
| 37> H 	 1.7302 	 -14.9667 	 89.2156
| 38> H 	 1.15518 	 -15.9359 	 87.74
| 39> H 	 4.6418 	 -19.8594 	 83.9537
| 40> H 	 5.50032 	 -11.5827 	 84.0065
| 41> *
| 42>
| 43>                          ****END OF INPUT****

CARTESIAN COORDINATES (ANGSTROEM)
---------------------------------
  S      5.385480  -17.409400   84.297300
  C      4.329850  -18.808300   83.957400
  C      2.994150  -18.420800   83.868000
  C      2.832660  -17.024900   83.965400
  C      3.966290  -16.294800   84.224500
  H      1.944980  -16.496100   83.888100
  C      1.831300  -19.342500   83.515800
  H      2.290240  -20.228300   82.931300
  H      1.034910  -19.017800   82.733800
  C      1.069920  -19.885700   84.759700
  H      1.836570  -20.237400   85.445300
  H      0.558948  -19.097500   85.305800
  C      0.132188  -21.065600   84.561300
  H     -0.559950  -21.302600   85.378500
  H     -0.481517  -20.987700   83.654500
  H      0.699247  -21.923500   84.294600
  S      5.475770  -14.033500   83.754900
  C      4.940960  -12.456900   84.158300
  C      3.807950  -12.534600   84.903100
  C      3.269280  -13.846400   84.956000
  C      4.051130  -14.833400   84.400300
  H      3.293550  -11.679000   85.246300
  C      2.022250  -14.034800   85.797600
  H      1.307610  -14.819600   85.459900
  H      1.414940  -13.171800   85.572800
  C      2.389560  -14.212200   87.308300
  H      2.658650  -13.246600   87.699200
  H      3.239620  -14.868400   87.400000
  C      1.364380  -14.885500   88.158600
  H      0.355178  -14.475300   88.217000
  H      1.730200  -14.966700   89.215600
  H      1.155180  -15.935900   87.740000
  H      4.641800  -19.859400   83.953700
  H      5.500320  -11.582700   84.006500

 Total Charge           Charge          ....    0
 Multiplicity           Mult            ....    1
 Number of Electrons    NEL             ....  134
 Basis Dimension        Dim             ....  322

ORBITAL ENERGIES
----------------

  NO   OCC          E(Eh)            E(eV)
   0   2.0000     -88.971338     -2421.0332
   1   2.0000     -88.961251     -2420.7587
   2   2.0000     -10.337623      -281.3010
   3   2.0000     -10.330166      -281.0981
   4   2.0000     -10.323521      -280.9173
   5   2.0000     -10.312693      -280.6226
   6   2.0000     -10.309851      -280.5453
   7   2.0000     -10.306294      -280.4485
   8   2.0000     -10.301999      -280.3316
   9   2.0000     -10.292655      -280.0774
  10   2.0000     -10.288256      -279.9577
  11   2.0000     -10.288016      -279.9512
  12   2.0000     -10.286519      -279.9104
  13   2.0000     -10.283006      -279.8148
  14   2.0000     -10.282575      -279.8031
  15   2.0000     -10.276436      -279.6360
  16   2.0000      -8.084376      -219.9870
  17   2.0000      -8.077041      -219.7875
  18   2.0000      -6.043147      -164.4424
  19   2.0000      -6.039144      -164.3335
  20   2.0000      -6.035565      -164.2361
  21   2.0000      -6.034925      -164.2187
  22   2.0000      -6.031240      -164.1184
  23   2.0000      -6.027875      -164.0268
  24   2.0000      -1.009729       -27.4761
  25   2.0000      -0.985204       -26.8088
  26   2.0000      -0.909037       -24.7362
  27   2.0000      -0.906230       -24.6598
  28   2.0000      -0.872022       -23.7289
  29   2.0000      -0.854971       -23.2649
  30   2.0000      -0.847652       -23.0658
  31   2.0000      -0.819743       -22.3064
  32   2.0000      -0.779207       -21.2033
  33   2.0000      -0.770886       -20.9769
  34   2.0000      -0.706908       -19.2360
  35   2.0000      -0.699107       -19.0237
  36   2.0000      -0.696617       -18.9559
  37   2.0000      -0.670077       -18.2337
  38   2.0000      -0.644614       -17.5408
  39   2.0000      -0.623687       -16.9714
  40   2.0000      -0.601409       -16.3652
  41   2.0000      -0.573135       -15.5958
  42   2.0000      -0.561181       -15.2705
  43   2.0000      -0.555305       -15.1106
  44   2.0000      -0.530743       -14.4423
  45   2.0000      -0.525829       -14.3085
  46   2.0000      -0.518037       -14.0965
  47   2.0000      -0.512000       -13.9322
  48   2.0000      -0.506701       -13.7880
  49   2.0000      -0.501412       -13.6441
  50   2.0000      -0.492095       -13.3906
  51   2.0000      -0.487789       -13.2734
  52   2.0000      -0.466748       -12.7009
  53   2.0000      -0.465483       -12.6664
  54   2.0000      -0.457378       -12.4459
  55   2.0000      -0.446476       -12.1492
  56   2.0000      -0.441847       -12.0233
  57   2.0000      -0.433880       -11.8065
  58   2.0000      -0.433690       -11.8013
  59   2.0000      -0.428987       -11.6733
  60   2.0000      -0.420717       -11.4483
  61   2.0000      -0.409231       -11.1357
  62   2.0000      -0.406134       -11.0515
  63   2.0000      -0.358561        -9.7569
  64   2.0000      -0.336157        -9.1473
  65   2.0000      -0.330036        -8.9807
  66   2.0000      -0.290174        -7.8960
  67   0.0000       0.023187         0.6310
  68   0.0000       0.071957         1.9580
  69   0.0000       0.106806         2.9063
  70   0.0000       0.121263         3.2997
  71   0.0000       0.128725         3.5028

MULLIKEN ATOMIC CHARGES
-----------------------
   0 S :    0.104029
   1 C :   -0.120887
   2 C :   -0.038785
   3 C :    0.042246
   4 C :   -0.109891
   5 H :   -0.021328
   6 C :   -0.029686
   7 H :    0.031235
   8 H :    0.051955
   9 C :   -0.060529
  10 H :    0.024999
  11 H :    0.027066
  12 C :   -0.030220
  13 H :    0.045272
  14 H :    0.014712
  15 H :    0.015489
  16 S :    0.086005
  17 C :   -0.053243
  18 C :   -0.020874
  19 C :   -0.072761
  20 C :   -0.131563
  21 H :    0.005853
  22 C :    0.044327
  23 H :    0.015377
  24 H :    0.015622
  25 C :   -0.016736
  26 H :    0.021572
  27 H :    0.037507
  28 C :   -0.087487
  29 H :    0.026766
  30 H :    0.044337
  31 H :    0.036511
  32 H :    0.059725
  33 H :    0.043386
Sum of atomic charges:   -0.0000000

LOEWDIN ATOMIC CHARGES
----------------------
   0 S :    0.371333
   1 C :   -0.183231
   2 C :   -0.064336
   3 C :   -0.053070
   4 C :   -0.169352
   5 H :    0.020354
   6 C :   -0.043837
   7 H :    0.035385
   8 H :    0.039959
   9 C :   -0.046385
  10 H :    0.024609
  11 H :    0.021727
  12 C :   -0.070229
  13 H :    0.031979
  14 H :    0.023504
  15 H :    0.020512
  16 S :    0.414159
  17 C :   -0.177374
  18 C :   -0.069788
  19 C :   -0.060614
  20 C :   -0.193336
  21 H :    0.026023
  22 C :   -0.034911
  23 H :    0.027138
  24 H :    0.027469
  25 C :   -0.035972
  26 H :    0.021391
  27 H :    0.031577
  28 C :   -0.076275
  29 H :    0.018686
  30 H :    0.033288
  31 H :    0.031721
  32 H :    0.034870
  33 H :    0.023028

  Mayer bond orders larger than 0.100000
B(  0-S ,  1-C ) :   1.1295 B(  0-S ,  4-C ) :   1.1244 B(  1-C ,  2-C ) :   1.6140
B(  1-C ,  4-C ) :   0.1020 B(  1-C , 32-H ) :   0.9623 B(  2-C ,  3-C ) :   1.2334
B(  2-C ,  6-C ) :   1.0133 B(  3-C ,  4-C ) :   1.5906 B(  3-C ,  5-H ) :   1.0087
B(  4-C , 20-C ) :   1.0520 B(  6-C ,  7-H ) :   0.9489 B(  6-C ,  8-H ) :   0.9501
B(  6-C ,  9-C ) :   1.0446 B(  9-C , 10-H ) :   0.9568 B(  9-C , 11-H ) :   0.9585
B(  9-C , 12-C ) :   1.0810 B( 12-C , 13-H ) :   0.9747 B( 12-C , 14-H ) :   0.9713
B( 12-C , 15-H ) :   0.9722 B( 16-S , 17-C ) :   1.1741 B( 16-S , 20-C ) :   1.1314
B( 17-C , 18-C ) :   1.5795 B( 17-C , 33-H ) :   0.9746 B( 18-C , 19-C ) :   1.2628
B( 18-C , 21-H ) :   0.9962 B( 19-C , 20-C ) :   1.5904 B( 19-C , 22-C ) :   1.0509
B( 22-C , 23-H ) :   0.9458 B( 22-C , 24-H ) :   0.9256 B( 22-C , 25-C ) :   1.0431
B( 25-C , 26-H ) :   0.9512 B( 25-C , 27-H ) :   0.9586 B( 25-C , 28-C ) :   1.0918
B( 28-C , 29-H ) :   0.9744 B( 28-C , 30-H ) :   0.9717 B( 28-C , 31-H ) :   0.9720

Dispersion correction           -0.013758798
FINAL SINGLE POINT ENERGY     -1339.875253216738

DIPOLE MOMENT
-------------
                                X             Y             Z
Electronic contribution:     26.18987      12.12739     -12.28263
Nuclear contribution   :    -26.80409     -12.10977      12.52405
                        -----------------------------------------
Total Dipole Moment    :     -0.61421       0.01762       0.24142
                        -----------------------------------------
Magnitude (a.u.)       :      0.66019
Magnitude (Debye)      :      1.67807

Rotational constants in cm-1:     0.018655     0.008366     0.006381
Rotational constants in MHz :   559.250766   250.801305   191.293967

                             ****ORCA TERMINATED NORMALLY****
TOTAL RUN TIME: 0 days 0 hours 0 minutes 33 seconds 360 msec
