                         Program Version 4.2.1 -  RELEASE  -
|  1> ! wB97X-D3 SP def2-SVP
|  2> %pal
|  3> nprocs 16
|  4> end
|  5>
|  6> * xyz 0 1
|  7> S 	 -16.6739 	 -6.37502 	 82.7928
|  8> C 	 -17.2573 	 -7.82679 	 82.157
|  9> C 	 -17.9016 	 -8.56333 	 83.1342
| 10> C 	 -18.2216 	 -7.74517 	 84.2718
| 11> C 	 -17.6259 	 -6.50502 	 84.296
| 12> H 	 -18.6907 	 -8.04783 	 85.2002
| 13> C 	 -18.4145 	 -9.96556 	 82.9452
| 14> H 	 -17.6381 	 -10.7193 	 83.217
| 15> H 	 -18.4612 	 -10.0754 	 81.9005
| 16> C 	 -19.8153 	 -10.3255 	 83.4688
| 17> H 	 -20.0526 	 -11.3659 	 83.2707
| 18> H 	 -19.759 	 -10.3336 	 84.6057
| 19> C 	 -21.0604 	 -9.53264 	 82.9015
| 20> H 	 -21.1764 	 -8.46671 	 83.2816
| 21> H 	 -21.034 	 -9.43702 	 81.7791
| 22> H 	 -21.9704 	 -10.1001 	 83.1984
| 23> S 	 -19.3231 	 -4.79797 	 85.6744
| 24> C 	 -18.6571 	 -3.71656 	 86.8764
| 25> C 	 -17.3038 	 -3.87218 	 87.0967
| 26> C 	 -16.7416 	 -4.77618 	 86.1329
| 27> C 	 -17.7018 	 -5.42795 	 85.3111
| 28> H 	 -16.8717 	 -3.21739 	 87.8471
| 29> C 	 -15.2276 	 -4.92391 	 86.0362
| 30> H 	 -14.771 	 -3.95076 	 86.2496
| 31> H 	 -14.8704 	 -5.30446 	 85.0305
| 32> C 	 -14.6676 	 -5.85472 	 87.1028
| 33> H 	 -15.1289 	 -6.75485 	 86.8098
| 34> H 	 -15.0152 	 -5.45181 	 88.0936
| 35> C 	 -13.1792 	 -6.18201 	 87.0924
| 36> H 	 -12.5302 	 -5.29589 	 87.096
| 37> H 	 -12.9342 	 -6.81714 	 86.1943
| 38> H 	 -12.9712 	 -6.95193 	 87.845
| 39> H 	 -17.0539 	 -8.18387 	 81.1106
| 40> H 	 -19.3627 	 -3.15958 	 87.594
| 41> *
| 42>
| 43>                          ****END OF INPUT****

CARTESIAN COORDINATES (ANGSTROEM)
---------------------------------
  S    -16.673900   -6.375020   82.792800
  C    -17.257300   -7.826790   82.157000
  C    -17.901600   -8.563330   83.134200
  C    -18.221600   -7.745170   84.271800
  C    -17.625900   -6.505020   84.296000
  H    -18.690700   -8.047830   85.200200
  C    -18.414500   -9.965560   82.945200
  H    -17.638100  -10.719300   83.217000
  H    -18.461200  -10.075400   81.900500
  C    -19.815300  -10.325500   83.468800
  H    -20.052600  -11.365900   83.270700
  H    -19.759000  -10.333600   84.605700
  C    -21.060400   -9.532640   82.901500
  H    -21.176400   -8.466710   83.281600
  H    -21.034000   -9.437020   81.779100
  H    -21.970400  -10.100100   83.198400
  S    -19.323100   -4.797970   85.674400
  C    -18.657100   -3.716560   86.876400
  C    -17.303800   -3.872180   87.096700
  C    -16.741600   -4.776180   86.132900
  C    -17.701800   -5.427950   85.311100
  H    -16.871700   -3.217390   87.847100
  C    -15.227600   -4.923910   86.036200
  H    -14.771000   -3.950760   86.249600
  H    -14.870400   -5.304460   85.030500
  C    -14.667600   -5.854720   87.102800
  H    -15.128900   -6.754850   86.809800
  H    -15.015200   -5.451810   88.093600
  C    -13.179200   -6.182010   87.092400
  H    -12.530200   -5.295890   87.096000
  H    -12.934200   -6.817140   86.194300
  H    -12.971200   -6.951930   87.845000
  H    -17.053900   -8.183870   81.110600
  H    -19.362700   -3.159580   87.594000

 Total Charge           Charge          ....    0
 Multiplicity           Mult            ....    1
 Number of Electrons    NEL             ....  134
 Basis Dimension        Dim             ....  322

ORBITAL ENERGIES
----------------

  NO   OCC          E(Eh)            E(eV)
   0   2.0000     -88.967645     -2420.9327
   1   2.0000     -88.962620     -2420.7960
   2   2.0000     -10.336252      -281.2637
   3   2.0000     -10.333439      -281.1872
   4   2.0000     -10.323669      -280.9213
   5   2.0000     -10.316867      -280.7362
   6   2.0000     -10.313081      -280.6332
   7   2.0000     -10.301984      -280.3312
   8   2.0000     -10.298784      -280.2442
   9   2.0000     -10.296474      -280.1813
  10   2.0000     -10.294838      -280.1368
  11   2.0000     -10.292124      -280.0629
  12   2.0000     -10.291305      -280.0407
  13   2.0000     -10.290888      -280.0293
  14   2.0000     -10.281113      -279.7633
  15   2.0000     -10.279493      -279.7192
  16   2.0000      -8.081918      -219.9202
  17   2.0000      -8.077964      -219.8126
  18   2.0000      -6.040384      -164.3672
  19   2.0000      -6.036463      -164.2605
  20   2.0000      -6.036404      -164.2589
  21   2.0000      -6.032781      -164.1603
  22   2.0000      -6.032278      -164.1466
  23   2.0000      -6.028848      -164.0533
  24   2.0000      -1.005012       -27.3478
  25   2.0000      -0.984970       -26.8024
  26   2.0000      -0.909206       -24.7407
  27   2.0000      -0.905670       -24.6445
  28   2.0000      -0.869649       -23.6644
  29   2.0000      -0.847723       -23.0677
  30   2.0000      -0.840289       -22.8654
  31   2.0000      -0.816833       -22.2272
  32   2.0000      -0.782253       -21.2862
  33   2.0000      -0.767764       -20.8919
  34   2.0000      -0.706655       -19.2291
  35   2.0000      -0.690635       -18.7931
  36   2.0000      -0.678493       -18.4627
  37   2.0000      -0.659791       -17.9538
  38   2.0000      -0.639701       -17.4071
  39   2.0000      -0.620872       -16.8948
  40   2.0000      -0.592072       -16.1111
  41   2.0000      -0.573951       -15.6180
  42   2.0000      -0.561552       -15.2806
  43   2.0000      -0.549042       -14.9402
  44   2.0000      -0.533950       -14.5295
  45   2.0000      -0.521237       -14.1836
  46   2.0000      -0.515630       -14.0310
  47   2.0000      -0.506294       -13.7770
  48   2.0000      -0.500147       -13.6097
  49   2.0000      -0.497406       -13.5351
  50   2.0000      -0.488831       -13.3018
  51   2.0000      -0.478261       -13.0141
  52   2.0000      -0.471678       -12.8350
  53   2.0000      -0.467407       -12.7188
  54   2.0000      -0.457567       -12.4510
  55   2.0000      -0.445171       -12.1137
  56   2.0000      -0.441059       -12.0018
  57   2.0000      -0.437805       -11.9133
  58   2.0000      -0.427190       -11.6244
  59   2.0000      -0.420432       -11.4405
  60   2.0000      -0.414708       -11.2848
  61   2.0000      -0.411796       -11.2055
  62   2.0000      -0.410660       -11.1746
  63   2.0000      -0.346110        -9.4181
  64   2.0000      -0.334364        -9.0985
  65   2.0000      -0.324968        -8.8428
  66   2.0000      -0.293651        -7.9907
  67   0.0000       0.033500         0.9116
  68   0.0000       0.059903         1.6300
  69   0.0000       0.106382         2.8948
  70   0.0000       0.112978         3.0743
  71   0.0000       0.131513         3.5787

MULLIKEN ATOMIC CHARGES
-----------------------
   0 S :    0.110462
   1 C :   -0.140300
   2 C :   -0.095944
   3 C :    0.023771
   4 C :   -0.153854
   5 H :    0.016568
   6 C :    0.094682
   7 H :    0.047809
   8 H :   -0.005397
   9 C :   -0.095553
  10 H :    0.027279
  11 H :    0.036313
  12 C :   -0.090721
  13 H :    0.053050
  14 H :    0.041729
  15 H :    0.044173
  16 S :    0.110328
  17 C :   -0.127211
  18 C :   -0.040628
  19 C :   -0.015540
  20 C :   -0.163681
  21 H :    0.032431
  22 C :    0.060067
  23 H :    0.020393
  24 H :    0.026417
  25 C :   -0.093196
  26 H :    0.018160
  27 H :    0.033571
  28 C :   -0.036379
  29 H :    0.039431
  30 H :    0.025671
  31 H :    0.037366
  32 H :    0.073645
  33 H :    0.085085
Sum of atomic charges:    0.0000000

LOEWDIN ATOMIC CHARGES
----------------------
   0 S :    0.415200
   1 C :   -0.216165
   2 C :   -0.070455
   3 C :   -0.063801
   4 C :   -0.191499
   5 H :    0.032578
   6 C :   -0.039356
   7 H :    0.042103
   8 H :    0.022182
   9 C :   -0.049391
  10 H :    0.025811
  11 H :    0.027633
  12 C :   -0.076426
  13 H :    0.032520
  14 H :    0.029921
  15 H :    0.031028
  16 S :    0.403073
  17 C :   -0.194865
  18 C :   -0.075981
  19 C :   -0.046858
  20 C :   -0.196389
  21 H :    0.038881
  22 C :   -0.035632
  23 H :    0.026569
  24 H :    0.028343
  25 C :   -0.046089
  26 H :    0.021102
  27 H :    0.025085
  28 C :   -0.072493
  29 H :    0.023807
  30 H :    0.031425
  31 H :    0.032231
  32 H :    0.042613
  33 H :    0.043294

  Mayer bond orders larger than 0.100000
B(  0-S ,  1-C ) :   1.1707 B(  0-S ,  4-C ) :   1.1382 B(  1-C ,  2-C ) :   1.5870
B(  1-C , 32-H ) :   0.9592 B(  2-C ,  3-C ) :   1.2399 B(  2-C ,  6-C ) :   1.0224
B(  3-C ,  4-C ) :   1.5918 B(  3-C ,  5-H ) :   0.9911 B(  4-C , 20-C ) :   1.0266
B(  6-C ,  7-H ) :   0.9269 B(  6-C ,  8-H ) :   0.9346 B(  6-C ,  9-C ) :   1.0837
B(  9-C , 10-H ) :   0.9548 B(  9-C , 11-H ) :   0.9499 B(  9-C , 12-C ) :   1.0608
B( 12-C , 13-H ) :   0.9752 B( 12-C , 14-H ) :   0.9754 B( 12-C , 15-H ) :   0.9766
B( 16-S , 17-C ) :   1.1631 B( 16-S , 20-C ) :   1.1415 B( 17-C , 18-C ) :   1.6267
B( 17-C , 33-H ) :   0.9501 B( 18-C , 19-C ) :   1.2274 B( 18-C , 21-H ) :   0.9890
B( 19-C , 20-C ) :   1.5826 B( 19-C , 22-C ) :   1.0476 B( 22-C , 23-H ) :   0.9318
B( 22-C , 24-H ) :   0.9393 B( 22-C , 25-C ) :   1.0574 B( 25-C , 26-H ) :   0.9548
B( 25-C , 27-H ) :   0.9570 B( 25-C , 28-C ) :   1.0941 B( 28-C , 29-H ) :   0.9737
B( 28-C , 30-H ) :   0.9687 B( 28-C , 31-H ) :   0.9699

Dispersion correction           -0.014173433
FINAL SINGLE POINT ENERGY     -1339.870061162148

DIPOLE MOMENT
-------------
                                X             Y             Z
Electronic contribution:     -5.20900      14.65180      -4.37774
Nuclear contribution   :      5.28659     -15.06337       4.57875
                        -----------------------------------------
Total Dipole Moment    :      0.07759      -0.41157       0.20101
                        -----------------------------------------
Magnitude (a.u.)       :      0.46456
Magnitude (Debye)      :      1.18081

Rotational constants in cm-1:     0.018550     0.008363     0.006827
Rotational constants in MHz :   556.116501   250.708164   204.675720

                             ****ORCA TERMINATED NORMALLY****
TOTAL RUN TIME: 0 days 0 hours 0 minutes 31 seconds 887 msec
