                         Program Version 4.2.1 -  RELEASE  -
|  1> ! wB97X-D3 SP def2-SVP
|  2> %pal
|  3> nprocs 16
|  4> end
|  5>
|  6> * xyz 0 1
|  7> S 	 46.7585 	 15.2988 	 79.6277
|  8> C 	 46.2918 	 16.7777 	 80.4077
|  9> C 	 46.8123 	 16.9068 	 81.705
| 10> C 	 47.4573 	 15.6515 	 82.0898
| 11> C 	 47.5543 	 14.7091 	 81.0738
| 12> H 	 47.879 	 15.4169 	 83.0272
| 13> C 	 46.6712 	 18.0794 	 82.5818
| 14> H 	 46.7141 	 19.0453 	 82.063
| 15> H 	 47.4979 	 18.082 	 83.3001
| 16> C 	 45.3222 	 18.0448 	 83.3341
| 17> H 	 45.3728 	 17.1839 	 83.9388
| 18> H 	 45.2995 	 18.987 	 83.8732
| 19> C 	 44.0857 	 17.9256 	 82.4173
| 20> H 	 43.9933 	 18.7636 	 81.7151
| 21> H 	 44.1202 	 16.9773 	 81.9341
| 22> H 	 43.1907 	 17.8574 	 83.0305
| 23> S 	 47.2308 	 12.1042 	 82.0032
| 24> C 	 48.4294 	 10.9638 	 81.451
| 25> C 	 49.5192 	 11.5611 	 80.8458
| 26> C 	 49.3388 	 12.9684 	 80.6087
| 27> C 	 48.1351 	 13.3936 	 81.1791
| 28> H 	 50.3978 	 10.9881 	 80.5604
| 29> C 	 50.2778 	 13.7181 	 79.7253
| 30> H 	 49.8782 	 14.6977 	 79.36
| 31> H 	 50.3249 	 13.2263 	 78.7786
| 32> C 	 51.6819 	 13.8634 	 80.2177
| 33> H 	 52.2267 	 14.6135 	 79.6647
| 34> H 	 52.0916 	 12.8461 	 80.1728
| 35> C 	 51.9638 	 14.2893 	 81.6487
| 36> H 	 53.0506 	 14.4012 	 81.7373
| 37> H 	 51.8193 	 13.4822 	 82.4101
| 38> H 	 51.3357 	 15.1709 	 81.9156
| 39> H 	 45.7004 	 17.5518 	 79.9628
| 40> H 	 48.3916 	 9.87581 	 81.6181
| 41> *
| 42>
| 43>                          ****END OF INPUT****

CARTESIAN COORDINATES (ANGSTROEM)
---------------------------------
  S     46.758500   15.298800   79.627700
  C     46.291800   16.777700   80.407700
  C     46.812300   16.906800   81.705000
  C     47.457300   15.651500   82.089800
  C     47.554300   14.709100   81.073800
  H     47.879000   15.416900   83.027200
  C     46.671200   18.079400   82.581800
  H     46.714100   19.045300   82.063000
  H     47.497900   18.082000   83.300100
  C     45.322200   18.044800   83.334100
  H     45.372800   17.183900   83.938800
  H     45.299500   18.987000   83.873200
  C     44.085700   17.925600   82.417300
  H     43.993300   18.763600   81.715100
  H     44.120200   16.977300   81.934100
  H     43.190700   17.857400   83.030500
  S     47.230800   12.104200   82.003200
  C     48.429400   10.963800   81.451000
  C     49.519200   11.561100   80.845800
  C     49.338800   12.968400   80.608700
  C     48.135100   13.393600   81.179100
  H     50.397800   10.988100   80.560400
  C     50.277800   13.718100   79.725300
  H     49.878200   14.697700   79.360000
  H     50.324900   13.226300   78.778600
  C     51.681900   13.863400   80.217700
  H     52.226700   14.613500   79.664700
  H     52.091600   12.846100   80.172800
  C     51.963800   14.289300   81.648700
  H     53.050600   14.401200   81.737300
  H     51.819300   13.482200   82.410100
  H     51.335700   15.170900   81.915600
  H     45.700400   17.551800   79.962800
  H     48.391600    9.875810   81.618100

 Total Charge           Charge          ....    0
 Multiplicity           Mult            ....    1
 Number of Electrons    NEL             ....  134
 Basis Dimension        Dim             ....  322

ORBITAL ENERGIES
----------------

  NO   OCC          E(Eh)            E(eV)
   0   2.0000     -88.968845     -2420.9654
   1   2.0000     -88.965225     -2420.8669
   2   2.0000     -10.324963      -280.9565
   3   2.0000     -10.323190      -280.9083
   4   2.0000     -10.319262      -280.8014
   5   2.0000     -10.310504      -280.5631
   6   2.0000     -10.304900      -280.4106
   7   2.0000     -10.300774      -280.2983
   8   2.0000     -10.294261      -280.1211
   9   2.0000     -10.292154      -280.0637
  10   2.0000     -10.288876      -279.9746
  11   2.0000     -10.286481      -279.9094
  12   2.0000     -10.281415      -279.7715
  13   2.0000     -10.280816      -279.7552
  14   2.0000     -10.276543      -279.6390
  15   2.0000     -10.272447      -279.5275
  16   2.0000      -8.083154      -219.9538
  17   2.0000      -8.079729      -219.8606
  18   2.0000      -6.041697      -164.4029
  19   2.0000      -6.038181      -164.3073
  20   2.0000      -6.037865      -164.2987
  21   2.0000      -6.034201      -164.1990
  22   2.0000      -6.033770      -164.1872
  23   2.0000      -6.030645      -164.1022
  24   2.0000      -1.002181       -27.2707
  25   2.0000      -0.979934       -26.6654
  26   2.0000      -0.915739       -24.9185
  27   2.0000      -0.915270       -24.9058
  28   2.0000      -0.865029       -23.5386
  29   2.0000      -0.850275       -23.1372
  30   2.0000      -0.843515       -22.9532
  31   2.0000      -0.809429       -22.0257
  32   2.0000      -0.788433       -21.4544
  33   2.0000      -0.775853       -21.1120
  34   2.0000      -0.705163       -19.1884
  35   2.0000      -0.693339       -18.8667
  36   2.0000      -0.684016       -18.6130
  37   2.0000      -0.657068       -17.8797
  38   2.0000      -0.642133       -17.4733
  39   2.0000      -0.616679       -16.7807
  40   2.0000      -0.601264       -16.3612
  41   2.0000      -0.571810       -15.5597
  42   2.0000      -0.560431       -15.2501
  43   2.0000      -0.553830       -15.0705
  44   2.0000      -0.548005       -14.9120
  45   2.0000      -0.534906       -14.5555
  46   2.0000      -0.517469       -14.0810
  47   2.0000      -0.511825       -13.9275
  48   2.0000      -0.499247       -13.5852
  49   2.0000      -0.494900       -13.4669
  50   2.0000      -0.489511       -13.3203
  51   2.0000      -0.476462       -12.9652
  52   2.0000      -0.466471       -12.6933
  53   2.0000      -0.460910       -12.5420
  54   2.0000      -0.457329       -12.4445
  55   2.0000      -0.447831       -12.1861
  56   2.0000      -0.445244       -12.1157
  57   2.0000      -0.441233       -12.0065
  58   2.0000      -0.431852       -11.7513
  59   2.0000      -0.429730       -11.6936
  60   2.0000      -0.416629       -11.3371
  61   2.0000      -0.414685       -11.2842
  62   2.0000      -0.401906       -10.9364
  63   2.0000      -0.333760        -9.0821
  64   2.0000      -0.331219        -9.0129
  65   2.0000      -0.321294        -8.7428
  66   2.0000      -0.299251        -8.1430
  67   0.0000       0.045137         1.2282
  68   0.0000       0.053760         1.4629
  69   0.0000       0.106093         2.8869
  70   0.0000       0.118975         3.2375
  71   0.0000       0.126243         3.4353

MULLIKEN ATOMIC CHARGES
-----------------------
   0 S :    0.126122
   1 C :   -0.116623
   2 C :   -0.109129
   3 C :    0.046948
   4 C :   -0.176497
   5 H :   -0.006757
   6 C :    0.064052
   7 H :    0.026655
   8 H :    0.026235
   9 C :   -0.050855
  10 H :    0.017736
  11 H :    0.032470
  12 C :   -0.056813
  13 H :    0.032025
  14 H :    0.043138
  15 H :    0.030787
  16 S :    0.127859
  17 C :   -0.101684
  18 C :   -0.040170
  19 C :   -0.006600
  20 C :   -0.190946
  21 H :    0.023085
  22 C :    0.105500
  23 H :    0.018388
  24 H :    0.027513
  25 C :   -0.097202
  26 H :    0.036095
  27 H :    0.024326
  28 C :   -0.063584
  29 H :    0.031395
  30 H :    0.028297
  31 H :    0.044146
  32 H :    0.039994
  33 H :    0.064095
Sum of atomic charges:   -0.0000000

LOEWDIN ATOMIC CHARGES
----------------------
   0 S :    0.413727
   1 C :   -0.199643
   2 C :   -0.061400
   3 C :   -0.054111
   4 C :   -0.202147
   5 H :    0.022195
   6 C :   -0.037243
   7 H :    0.030625
   8 H :    0.032901
   9 C :   -0.027243
  10 H :    0.017862
  11 H :    0.023079
  12 C :   -0.064588
  13 H :    0.022961
  14 H :    0.023780
  15 H :    0.027990
  16 S :    0.400868
  17 C :   -0.187297
  18 C :   -0.071325
  19 C :   -0.042554
  20 C :   -0.200050
  21 H :    0.031381
  22 C :   -0.040361
  23 H :    0.031598
  24 H :    0.035455
  25 C :   -0.046560
  26 H :    0.028875
  27 H :    0.024250
  28 C :   -0.072860
  29 H :    0.028428
  30 H :    0.025424
  31 H :    0.029208
  32 H :    0.022678
  33 H :    0.034098

  Mayer bond orders larger than 0.100000
B(  0-S ,  1-C ) :   1.1500 B(  0-S ,  4-C ) :   1.1391 B(  1-C ,  2-C ) :   1.5948
B(  1-C , 32-H ) :   0.9663 B(  2-C ,  3-C ) :   1.2247 B(  2-C ,  6-C ) :   1.0448
B(  3-C ,  4-C ) :   1.5955 B(  3-C ,  5-H ) :   0.9978 B(  4-C , 20-C ) :   1.0357
B(  6-C ,  7-H ) :   0.9402 B(  6-C ,  8-H ) :   0.9370 B(  6-C ,  9-C ) :   1.0637
B(  9-C , 10-H ) :   0.9549 B(  9-C , 11-H ) :   0.9585 B(  9-C , 12-C ) :   1.0916
B( 12-C , 13-H ) :   0.9754 B( 12-C , 14-H ) :   0.9658 B( 12-C , 15-H ) :   0.9700
B( 16-S , 17-C ) :   1.1477 B( 16-S , 20-C ) :   1.1312 B( 17-C , 18-C ) :   1.6370
B( 17-C , 33-H ) :   0.9619 B( 18-C , 19-C ) :   1.2151 B( 18-C , 21-H ) :   0.9851
B( 19-C , 20-C ) :   1.6058 B( 19-C , 22-C ) :   1.0496 B( 22-C , 23-H ) :   0.9200
B( 22-C , 24-H ) :   0.9334 B( 22-C , 25-C ) :   1.0738 B( 25-C , 26-H ) :   0.9566
B( 25-C , 27-H ) :   0.9534 B( 25-C , 28-C ) :   1.0908 B( 28-C , 29-H ) :   0.9723
B( 28-C , 30-H ) :   0.9691 B( 28-C , 31-H ) :   0.9743

Dispersion correction           -0.015108339
FINAL SINGLE POINT ENERGY     -1339.882777688469

DIPOLE MOMENT
-------------
                                X             Y             Z
Electronic contribution:     -7.45252     -14.41338      -6.06767
Nuclear contribution   :      7.74634      14.57609       6.16835
                        -----------------------------------------
Total Dipole Moment    :      0.29381       0.16271       0.10068
                        -----------------------------------------
Magnitude (a.u.)       :      0.35063
Magnitude (Debye)      :      0.89122

Rotational constants in cm-1:     0.022274     0.008019     0.007137
Rotational constants in MHz :   667.762946   240.399337   213.961182

                             ****ORCA TERMINATED NORMALLY****
TOTAL RUN TIME: 0 days 0 hours 0 minutes 28 seconds 993 msec
