                         Program Version 4.2.1 -  RELEASE  -
|  1> ! wB97X-D3 SP def2-SVP
|  2> %pal
|  3> nprocs 16
|  4> end
|  5>
|  6> * xyz 0 1
|  7> S 	 -41.188 	 40.1856 	 97.4949
|  8> C 	 -42.7175 	 41.0818 	 97.2341
|  9> C 	 -43.7272 	 40.5186 	 98.0085
| 10> C 	 -43.303 	 39.3529 	 98.7211
| 11> C 	 -41.9274 	 39.0314 	 98.5688
| 12> H 	 -43.9647 	 38.7417 	 99.282
| 13> C 	 -45.141 	 41.1748 	 98.2272
| 14> H 	 -45.0671 	 42.175 	 97.7856
| 15> H 	 -45.202 	 41.3301 	 99.207
| 16> C 	 -46.3334 	 40.344 	 97.6949
| 17> H 	 -46.2695 	 40.09 	 96.6526
| 18> H 	 -46.2383 	 39.3908 	 98.2578
| 19> C 	 -47.5827 	 41.2212 	 97.7551
| 20> H 	 -47.7887 	 41.549 	 98.793
| 21> H 	 -47.5559 	 42.0787 	 97.1538
| 22> H 	 -48.4315 	 40.6525 	 97.3784
| 23> S 	 -40.4206 	 36.7637 	 98.2508
| 24> C 	 -39.9778 	 35.7556 	 99.6477
| 25> C 	 -40.4417 	 36.3683 	 100.769
| 26> C 	 -41.1808 	 37.5671 	 100.539
| 27> C 	 -41.2101 	 37.9249 	 99.2303
| 28> H 	 -40.1513 	 35.9574 	 101.727
| 29> C 	 -41.5838 	 38.523 	 101.626
| 30> H 	 -41.9467 	 38.061 	 102.56
| 31> H 	 -42.4189 	 39.1338 	 101.22
| 32> C 	 -40.4326 	 39.3566 	 102.029
| 33> H 	 -40.0005 	 39.8424 	 101.14
| 34> H 	 -39.6041 	 38.7364 	 102.382
| 35> C 	 -40.7466 	 40.5181 	 103.002
| 36> H 	 -41.6659 	 41.0776 	 102.773
| 37> H 	 -40.0053 	 41.2847 	 103.22
| 38> H 	 -40.8986 	 39.9887 	 103.962
| 39> H 	 -42.9161 	 41.8005 	 96.4647
| 40> H 	 -39.2423 	 34.9885 	 99.5701
| 41> *
| 42>
| 43>                          ****END OF INPUT****

CARTESIAN COORDINATES (ANGSTROEM)
---------------------------------
  S    -41.188000   40.185600   97.494900
  C    -42.717500   41.081800   97.234100
  C    -43.727200   40.518600   98.008500
  C    -43.303000   39.352900   98.721100
  C    -41.927400   39.031400   98.568800
  H    -43.964700   38.741700   99.282000
  C    -45.141000   41.174800   98.227200
  H    -45.067100   42.175000   97.785600
  H    -45.202000   41.330100   99.207000
  C    -46.333400   40.344000   97.694900
  H    -46.269500   40.090000   96.652600
  H    -46.238300   39.390800   98.257800
  C    -47.582700   41.221200   97.755100
  H    -47.788700   41.549000   98.793000
  H    -47.555900   42.078700   97.153800
  H    -48.431500   40.652500   97.378400
  S    -40.420600   36.763700   98.250800
  C    -39.977800   35.755600   99.647700
  C    -40.441700   36.368300  100.769000
  C    -41.180800   37.567100  100.539000
  C    -41.210100   37.924900   99.230300
  H    -40.151300   35.957400  101.727000
  C    -41.583800   38.523000  101.626000
  H    -41.946700   38.061000  102.560000
  H    -42.418900   39.133800  101.220000
  C    -40.432600   39.356600  102.029000
  H    -40.000500   39.842400  101.140000
  H    -39.604100   38.736400  102.382000
  C    -40.746600   40.518100  103.002000
  H    -41.665900   41.077600  102.773000
  H    -40.005300   41.284700  103.220000
  H    -40.898600   39.988700  103.962000
  H    -42.916100   41.800500   96.464700
  H    -39.242300   34.988500   99.570100

 Total Charge           Charge          ....    0
 Multiplicity           Mult            ....    1
 Number of Electrons    NEL             ....  134
 Basis Dimension        Dim             ....  322

ORBITAL ENERGIES
----------------

  NO   OCC          E(Eh)            E(eV)
   0   2.0000     -88.969501     -2420.9832
   1   2.0000     -88.961088     -2420.7543
   2   2.0000     -10.336537      -281.2715
   3   2.0000     -10.324149      -280.9344
   4   2.0000     -10.317291      -280.7478
   5   2.0000     -10.317169      -280.7444
   6   2.0000     -10.304906      -280.4108
   7   2.0000     -10.299292      -280.2580
   8   2.0000     -10.296515      -280.1824
   9   2.0000     -10.294821      -280.1363
  10   2.0000     -10.290044      -280.0063
  11   2.0000     -10.288146      -279.9547
  12   2.0000     -10.287392      -279.9342
  13   2.0000     -10.279879      -279.7297
  14   2.0000     -10.278162      -279.6830
  15   2.0000     -10.277109      -279.6543
  16   2.0000      -8.083296      -219.9577
  17   2.0000      -8.076557      -219.7743
  18   2.0000      -6.041888      -164.4081
  19   2.0000      -6.037745      -164.2954
  20   2.0000      -6.035063      -164.2224
  21   2.0000      -6.034212      -164.1993
  22   2.0000      -6.030857      -164.1080
  23   2.0000      -6.027364      -164.0129
  24   2.0000      -1.010220       -27.4895
  25   2.0000      -0.982029       -26.7224
  26   2.0000      -0.914357       -24.8809
  27   2.0000      -0.911742       -24.8098
  28   2.0000      -0.871958       -23.7272
  29   2.0000      -0.847995       -23.0751
  30   2.0000      -0.843695       -22.9581
  31   2.0000      -0.815548       -22.1922
  32   2.0000      -0.783562       -21.3218
  33   2.0000      -0.773358       -21.0441
  34   2.0000      -0.710774       -19.3412
  35   2.0000      -0.701272       -19.0826
  36   2.0000      -0.694201       -18.8902
  37   2.0000      -0.665973       -18.1220
  38   2.0000      -0.640176       -17.4201
  39   2.0000      -0.619971       -16.8703
  40   2.0000      -0.600353       -16.3364
  41   2.0000      -0.574566       -15.6347
  42   2.0000      -0.566620       -15.4185
  43   2.0000      -0.558883       -15.2080
  44   2.0000      -0.531764       -14.4700
  45   2.0000      -0.523057       -14.2331
  46   2.0000      -0.516808       -14.0630
  47   2.0000      -0.510631       -13.8950
  48   2.0000      -0.508705       -13.8426
  49   2.0000      -0.502901       -13.6846
  50   2.0000      -0.498837       -13.5740
  51   2.0000      -0.482956       -13.1419
  52   2.0000      -0.476280       -12.9602
  53   2.0000      -0.465870       -12.6770
  54   2.0000      -0.459068       -12.4919
  55   2.0000      -0.446562       -12.1516
  56   2.0000      -0.442049       -12.0288
  57   2.0000      -0.440964       -11.9992
  58   2.0000      -0.433259       -11.7896
  59   2.0000      -0.428647       -11.6641
  60   2.0000      -0.421100       -11.4587
  61   2.0000      -0.407256       -11.0820
  62   2.0000      -0.400786       -10.9059
  63   2.0000      -0.345185        -9.3930
  64   2.0000      -0.331654        -9.0248
  65   2.0000      -0.328064        -8.9271
  66   2.0000      -0.299874        -8.1600
  67   0.0000       0.027946         0.7604
  68   0.0000       0.071768         1.9529
  69   0.0000       0.112750         3.0681
  70   0.0000       0.122635         3.3371
  71   0.0000       0.132729         3.6117

MULLIKEN ATOMIC CHARGES
-----------------------
   0 S :    0.110689
   1 C :   -0.120723
   2 C :   -0.107448
   3 C :    0.051444
   4 C :   -0.157458
   5 H :    0.005851
   6 C :    0.097945
   7 H :    0.010156
   8 H :    0.004772
   9 C :   -0.074525
  10 H :    0.028726
  11 H :    0.038350
  12 C :   -0.028192
  13 H :    0.028969
  14 H :    0.024131
  15 H :    0.032314
  16 S :    0.094106
  17 C :   -0.088222
  18 C :   -0.029315
  19 C :   -0.023715
  20 C :   -0.152988
  21 H :    0.018730
  22 C :    0.074708
  23 H :    0.016710
  24 H :    0.021718
  25 C :   -0.073285
  26 H :    0.021586
  27 H :    0.021910
  28 C :   -0.044605
  29 H :    0.033368
  30 H :    0.038130
  31 H :    0.020702
  32 H :    0.049411
  33 H :    0.056051
Sum of atomic charges:   -0.0000000

LOEWDIN ATOMIC CHARGES
----------------------
   0 S :    0.401611
   1 C :   -0.192454
   2 C :   -0.055700
   3 C :   -0.062962
   4 C :   -0.196031
   5 H :    0.022799
   6 C :   -0.013726
   7 H :    0.028684
   8 H :    0.012240
   9 C :   -0.038537
  10 H :    0.024537
  11 H :    0.029423
  12 C :   -0.060141
  13 H :    0.026100
  14 H :    0.019959
  15 H :    0.027476
  16 S :    0.406581
  17 C :   -0.169141
  18 C :   -0.065032
  19 C :   -0.059040
  20 C :   -0.208481
  21 H :    0.031993
  22 C :   -0.034743
  23 H :    0.028327
  24 H :    0.033272
  25 C :   -0.045239
  26 H :    0.023080
  27 H :    0.024015
  28 C :   -0.071404
  29 H :    0.026802
  30 H :    0.027003
  31 H :    0.024395
  32 H :    0.028088
  33 H :    0.026245

  Mayer bond orders larger than 0.100000
B(  0-S ,  1-C ) :   1.1302 B(  0-S ,  4-C ) :   1.1693 B(  1-C ,  2-C ) :   1.6093
B(  1-C ,  4-C ) :   0.1067 B(  1-C , 32-H ) :   0.9676 B(  2-C ,  3-C ) :   1.2675
B(  2-C ,  6-C ) :   1.0024 B(  3-C ,  4-C ) :   1.5437 B(  3-C ,  5-H ) :   0.9917
B(  4-C , 20-C ) :   1.0063 B(  6-C ,  7-H ) :   0.9465 B(  6-C ,  8-H ) :   0.9417
B(  6-C ,  9-C ) :   1.0516 B(  9-C , 10-H ) :   0.9590 B(  9-C , 11-H ) :   0.9586
B(  9-C , 12-C ) :   1.0797 B( 12-C , 13-H ) :   0.9748 B( 12-C , 14-H ) :   0.9735
B( 12-C , 15-H ) :   0.9740 B( 16-S , 17-C ) :   1.1452 B( 16-S , 20-C ) :   1.1554
B( 17-C , 18-C ) :   1.6117 B( 17-C , 33-H ) :   0.9731 B( 18-C , 19-C ) :   1.2274
B( 18-C , 21-H ) :   0.9922 B( 19-C , 20-C ) :   1.6072 B( 19-C , 22-C ) :   1.0631
B( 22-C , 23-H ) :   0.9281 B( 22-C , 24-H ) :   0.9207 B( 22-C , 25-C ) :   1.0718
B( 25-C , 26-H ) :   0.9523 B( 25-C , 27-H ) :   0.9533 B( 25-C , 28-C ) :   1.0694
B( 28-C , 29-H ) :   0.9755 B( 28-C , 30-H ) :   0.9768 B( 28-C , 31-H ) :   0.9746

Dispersion correction           -0.014070383
FINAL SINGLE POINT ENERGY     -1339.871404173644

DIPOLE MOMENT
-------------
                                X             Y             Z
Electronic contribution:     18.46216     -12.85869     -14.11369
Nuclear contribution   :    -18.85723      13.03491      14.48727
                        -----------------------------------------
Total Dipole Moment    :     -0.39508       0.17622       0.37358
                        -----------------------------------------
Magnitude (a.u.)       :      0.57158
Magnitude (Debye)      :      1.45283

Rotational constants in cm-1:     0.018770     0.007798     0.006858
Rotational constants in MHz :   562.706755   233.770611   205.609581

                             ****ORCA TERMINATED NORMALLY****
TOTAL RUN TIME: 0 days 0 hours 0 minutes 29 seconds 840 msec
