                         Program Version 4.2.1 -  RELEASE  -
|  1> ! wB97X-D3 SP def2-SVP
|  2> %pal
|  3> nprocs 16
|  4> end
|  5>
|  6> * xyz 0 1
|  7> S 	 36.2701 	 24.1387 	 46.534
|  8> C 	 36.3335 	 25.0041 	 48.0401
|  9> C 	 37.1303 	 24.3998 	 48.9704
| 10> C 	 37.5537 	 23.0618 	 48.5484
| 11> C 	 36.9999 	 22.7314 	 47.2918
| 12> H 	 38.2018 	 22.3976 	 49.1552
| 13> C 	 37.5471 	 25.025 	 50.2955
| 14> H 	 37.9036 	 26.073 	 49.9781
| 15> H 	 38.4065 	 24.4042 	 50.6644
| 16> C 	 36.3796 	 25.1057 	 51.325
| 17> H 	 35.731 	 25.948 	 51.0667
| 18> H 	 35.6931 	 24.2489 	 51.483
| 19> C 	 36.9531 	 25.446 	 52.6035
| 20> H 	 37.4907 	 26.3869 	 52.5931
| 21> H 	 36.0772 	 25.7106 	 53.2351
| 22> H 	 37.6216 	 24.6819 	 53.1293
| 23> S 	 37.9425 	 21.8085 	 44.8054
| 24> C 	 37.9984 	 20.0956 	 44.4604
| 25> C 	 37.3628 	 19.4355 	 45.4585
| 26> C 	 37.0706 	 20.194 	 46.6434
| 27> C 	 37.2962 	 21.5428 	 46.4745
| 28> H 	 37.3046 	 18.3744 	 45.3774
| 29> C 	 36.3436 	 19.5085 	 47.8349
| 30> H 	 36.062 	 18.477 	 47.7153
| 31> H 	 35.3448 	 20.021 	 47.8474
| 32> C 	 37.1117 	 19.4907 	 49.2219
| 33> H 	 37.1511 	 20.5353 	 49.5044
| 34> H 	 38.1678 	 19.1544 	 48.9638
| 35> C 	 36.5637 	 18.5758 	 50.3109
| 36> H 	 37.1808 	 18.6899 	 51.2707
| 37> H 	 36.7403 	 17.5619 	 50.0349
| 38> H 	 35.4529 	 18.6007 	 50.5486
| 39> H 	 35.7048 	 25.8977 	 48.2182
| 40> H 	 38.4493 	 19.612 	 43.6364
| 41> *
| 42>
| 43>                          ****END OF INPUT****

CARTESIAN COORDINATES (ANGSTROEM)
---------------------------------
  S     36.270100   24.138700   46.534000
  C     36.333500   25.004100   48.040100
  C     37.130300   24.399800   48.970400
  C     37.553700   23.061800   48.548400
  C     36.999900   22.731400   47.291800
  H     38.201800   22.397600   49.155200
  C     37.547100   25.025000   50.295500
  H     37.903600   26.073000   49.978100
  H     38.406500   24.404200   50.664400
  C     36.379600   25.105700   51.325000
  H     35.731000   25.948000   51.066700
  H     35.693100   24.248900   51.483000
  C     36.953100   25.446000   52.603500
  H     37.490700   26.386900   52.593100
  H     36.077200   25.710600   53.235100
  H     37.621600   24.681900   53.129300
  S     37.942500   21.808500   44.805400
  C     37.998400   20.095600   44.460400
  C     37.362800   19.435500   45.458500
  C     37.070600   20.194000   46.643400
  C     37.296200   21.542800   46.474500
  H     37.304600   18.374400   45.377400
  C     36.343600   19.508500   47.834900
  H     36.062000   18.477000   47.715300
  H     35.344800   20.021000   47.847400
  C     37.111700   19.490700   49.221900
  H     37.151100   20.535300   49.504400
  H     38.167800   19.154400   48.963800
  C     36.563700   18.575800   50.310900
  H     37.180800   18.689900   51.270700
  H     36.740300   17.561900   50.034900
  H     35.452900   18.600700   50.548600
  H     35.704800   25.897700   48.218200
  H     38.449300   19.612000   43.636400

 Total Charge           Charge          ....    0
 Multiplicity           Mult            ....    1
 Number of Electrons    NEL             ....  134
 Basis Dimension        Dim             ....  322

ORBITAL ENERGIES
----------------

  NO   OCC          E(Eh)            E(eV)
   0   2.0000     -88.966323     -2420.8967
   1   2.0000     -88.960458     -2420.7371
   2   2.0000     -10.336028      -281.2576
   3   2.0000     -10.331539      -281.1355
   4   2.0000     -10.311879      -280.6005
   5   2.0000     -10.311763      -280.5973
   6   2.0000     -10.306456      -280.4529
   7   2.0000     -10.305220      -280.4193
   8   2.0000     -10.305106      -280.4162
   9   2.0000     -10.301568      -280.3199
  10   2.0000     -10.295616      -280.1580
  11   2.0000     -10.292670      -280.0778
  12   2.0000     -10.288557      -279.9659
  13   2.0000     -10.287392      -279.9342
  14   2.0000     -10.287157      -279.9278
  15   2.0000     -10.277829      -279.6740
  16   2.0000      -8.081253      -219.9021
  17   2.0000      -8.074634      -219.7220
  18   2.0000      -6.039801      -164.3513
  19   2.0000      -6.035904      -164.2453
  20   2.0000      -6.033359      -164.1761
  21   2.0000      -6.031778      -164.1330
  22   2.0000      -6.029248      -164.0642
  23   2.0000      -6.025151      -163.9527
  24   2.0000      -1.001879       -27.2625
  25   2.0000      -0.981163       -26.6988
  26   2.0000      -0.919093       -25.0098
  27   2.0000      -0.897425       -24.4202
  28   2.0000      -0.872311       -23.7368
  29   2.0000      -0.851522       -23.1711
  30   2.0000      -0.842942       -22.9376
  31   2.0000      -0.813604       -22.1393
  32   2.0000      -0.777394       -21.1540
  33   2.0000      -0.767331       -20.8801
  34   2.0000      -0.704575       -19.1725
  35   2.0000      -0.695914       -18.9368
  36   2.0000      -0.689772       -18.7696
  37   2.0000      -0.660207       -17.9651
  38   2.0000      -0.636425       -17.3180
  39   2.0000      -0.613762       -16.7013
  40   2.0000      -0.591235       -16.0883
  41   2.0000      -0.572121       -15.5682
  42   2.0000      -0.563114       -15.3231
  43   2.0000      -0.558659       -15.2019
  44   2.0000      -0.531319       -14.4579
  45   2.0000      -0.519577       -14.1384
  46   2.0000      -0.516589       -14.0571
  47   2.0000      -0.513809       -13.9815
  48   2.0000      -0.507561       -13.8114
  49   2.0000      -0.497856       -13.5474
  50   2.0000      -0.494159       -13.4467
  51   2.0000      -0.472265       -12.8510
  52   2.0000      -0.470589       -12.8054
  53   2.0000      -0.464917       -12.6510
  54   2.0000      -0.454914       -12.3788
  55   2.0000      -0.453540       -12.3415
  56   2.0000      -0.446977       -12.1629
  57   2.0000      -0.433704       -11.8017
  58   2.0000      -0.424685       -11.5563
  59   2.0000      -0.422403       -11.4942
  60   2.0000      -0.416083       -11.3222
  61   2.0000      -0.410110       -11.1596
  62   2.0000      -0.404787       -11.0148
  63   2.0000      -0.349861        -9.5202
  64   2.0000      -0.327696        -8.9171
  65   2.0000      -0.326873        -8.8947
  66   2.0000      -0.289318        -7.8727
  67   0.0000       0.029762         0.8099
  68   0.0000       0.059644         1.6230
  69   0.0000       0.105615         2.8739
  70   0.0000       0.122040         3.3209
  71   0.0000       0.136144         3.7047

MULLIKEN ATOMIC CHARGES
-----------------------
   0 S :    0.109590
   1 C :   -0.144033
   2 C :   -0.085603
   3 C :    0.027239
   4 C :   -0.150114
   5 H :    0.042022
   6 C :    0.016806
   7 H :    0.057186
   8 H :    0.035301
   9 C :   -0.055064
  10 H :    0.024838
  11 H :    0.045802
  12 C :   -0.062796
  13 H :    0.018784
  14 H :    0.025224
  15 H :    0.047990
  16 S :    0.079447
  17 C :   -0.073633
  18 C :   -0.024694
  19 C :   -0.028676
  20 C :   -0.148379
  21 H :    0.009009
  22 C :    0.046267
  23 H :    0.005402
  24 H :    0.048865
  25 C :   -0.096271
  26 H :    0.029631
  27 H :    0.041143
  28 C :   -0.065487
  29 H :    0.046478
  30 H :    0.021605
  31 H :    0.047387
  32 H :    0.062770
  33 H :    0.045967
Sum of atomic charges:   -0.0000000

LOEWDIN ATOMIC CHARGES
----------------------
   0 S :    0.407340
   1 C :   -0.208726
   2 C :   -0.067019
   3 C :   -0.060416
   4 C :   -0.189619
   5 H :    0.036783
   6 C :   -0.034893
   7 H :    0.047027
   8 H :    0.034223
   9 C :   -0.048544
  10 H :    0.028638
  11 H :    0.033370
  12 C :   -0.075788
  13 H :    0.021203
  14 H :    0.029068
  15 H :    0.030244
  16 S :    0.370362
  17 C :   -0.175123
  18 C :   -0.071331
  19 C :   -0.058853
  20 C :   -0.178046
  21 H :    0.025465
  22 C :   -0.033285
  23 H :    0.021606
  24 H :    0.039703
  25 C :   -0.046809
  26 H :    0.016168
  27 H :    0.033832
  28 C :   -0.078888
  29 H :    0.039040
  30 H :    0.018715
  31 H :    0.033275
  32 H :    0.033916
  33 H :    0.027359

  Mayer bond orders larger than 0.100000
B(  0-S ,  1-C ) :   1.1322 B(  0-S ,  4-C ) :   1.1585 B(  1-C ,  2-C ) :   1.6227
B(  1-C , 32-H ) :   0.9653 B(  2-C ,  3-C ) :   1.2430 B(  2-C ,  6-C ) :   1.0101
B(  3-C ,  4-C ) :   1.5560 B(  3-C ,  5-H ) :   0.9754 B(  4-C , 20-C ) :   1.0409
B(  6-C ,  7-H ) :   0.9368 B(  6-C ,  8-H ) :   0.9519 B(  6-C ,  9-C ) :   1.0571
B(  9-C , 10-H ) :   0.9432 B(  9-C , 11-H ) :   0.9602 B(  9-C , 12-C ) :   1.1067
B( 12-C , 13-H ) :   0.9642 B( 12-C , 14-H ) :   0.9683 B( 12-C , 15-H ) :   0.9725
B( 16-S , 17-C ) :   1.1348 B( 16-S , 20-C ) :   1.1180 B( 17-C , 18-C ) :   1.6375
B( 17-C , 33-H ) :   0.9730 B( 18-C , 19-C ) :   1.2303 B( 18-C , 21-H ) :   0.9881
B( 19-C , 20-C ) :   1.6252 B( 19-C , 22-C ) :   1.0284 B( 22-C , 23-H ) :   0.9492
B( 22-C , 24-H ) :   0.9367 B( 22-C , 25-C ) :   1.0418 B( 25-C , 26-H ) :   0.9530
B( 25-C , 27-H ) :   0.9560 B( 25-C , 28-C ) :   1.0830 B( 28-C , 29-H ) :   0.9718
B( 28-C , 30-H ) :   0.9710 B( 28-C , 31-H ) :   0.9740

Dispersion correction           -0.013645323
FINAL SINGLE POINT ENERGY     -1339.857634816030

DIPOLE MOMENT
-------------
                                X             Y             Z
Electronic contribution:      2.09438       4.70039     -31.57146
Nuclear contribution   :     -2.12979      -4.88184      32.23413
                        -----------------------------------------
Total Dipole Moment    :     -0.03541      -0.18145       0.66267
                        -----------------------------------------
Magnitude (a.u.)       :      0.68797
Magnitude (Debye)      :      1.74868

Rotational constants in cm-1:     0.018109     0.008560     0.006188
Rotational constants in MHz :   542.905050   256.635766   185.514462

                             ****ORCA TERMINATED NORMALLY****
TOTAL RUN TIME: 0 days 0 hours 0 minutes 34 seconds 399 msec
