                         Program Version 4.2.1 -  RELEASE  -
|  1> ! wB97X-D3 SP def2-SVP
|  2> %pal
|  3> nprocs 16
|  4> end
|  5>
|  6> * xyz 0 1
|  7> S 	 -69.0601 	 55.6269 	 122.398
|  8> C 	 -69.5726 	 57.1805 	 123.198
|  9> C 	 -70.3007 	 57.9748 	 122.382
| 10> C 	 -70.5707 	 57.2573 	 121.184
| 11> C 	 -70.2591 	 55.9559 	 121.117
| 12> H 	 -71.0922 	 57.7117 	 120.314
| 13> C 	 -70.7567 	 59.4178 	 122.489
| 14> H 	 -70.2181 	 59.9211 	 121.713
| 15> H 	 -70.1954 	 59.8767 	 123.344
| 16> C 	 -72.3227 	 59.5808 	 122.485
| 17> H 	 -72.8345 	 58.9832 	 121.673
| 18> H 	 -72.623 	 59.2191 	 123.461
| 19> C 	 -72.824 	 61.0352 	 122.296
| 20> H 	 -72.8574 	 61.5092 	 123.275
| 21> H 	 -72.2658 	 61.5806 	 121.549
| 22> H 	 -73.8701 	 61.0231 	 121.989
| 23> S 	 -69.5982 	 53.8235 	 119.394
| 24> C 	 -70.8191 	 53.3195 	 118.215
| 25> C 	 -72.0296 	 54.0059 	 118.394
| 26> C 	 -71.9922 	 54.977 	 119.491
| 27> C 	 -70.7222 	 55.0209 	 120.079
| 28> H 	 -72.9163 	 53.8069 	 117.776
| 29> C 	 -73.2356 	 55.7422 	 119.916
| 30> H 	 -72.9871 	 56.3012 	 120.743
| 31> H 	 -74.0738 	 55.0068 	 120.226
| 32> C 	 -73.624 	 56.8214 	 118.898
| 33> H 	 -73.8373 	 56.4153 	 117.887
| 34> H 	 -72.816 	 57.4975 	 118.788
| 35> C 	 -74.8495 	 57.6184 	 119.42
| 36> H 	 -75.7672 	 57.0348 	 119.382
| 37> H 	 -74.9753 	 58.3561 	 118.659
| 38> H 	 -74.8317 	 58.1353 	 120.363
| 39> H 	 -69.1039 	 57.5959 	 124.091
| 40> H 	 -70.7483 	 52.3364 	 117.727
| 41> *
| 42>
| 43>                          ****END OF INPUT****

CARTESIAN COORDINATES (ANGSTROEM)
---------------------------------
  S    -69.060100   55.626900  122.398000
  C    -69.572600   57.180500  123.198000
  C    -70.300700   57.974800  122.382000
  C    -70.570700   57.257300  121.184000
  C    -70.259100   55.955900  121.117000
  H    -71.092200   57.711700  120.314000
  C    -70.756700   59.417800  122.489000
  H    -70.218100   59.921100  121.713000
  H    -70.195400   59.876700  123.344000
  C    -72.322700   59.580800  122.485000
  H    -72.834500   58.983200  121.673000
  H    -72.623000   59.219100  123.461000
  C    -72.824000   61.035200  122.296000
  H    -72.857400   61.509200  123.275000
  H    -72.265800   61.580600  121.549000
  H    -73.870100   61.023100  121.989000
  S    -69.598200   53.823500  119.394000
  C    -70.819100   53.319500  118.215000
  C    -72.029600   54.005900  118.394000
  C    -71.992200   54.977000  119.491000
  C    -70.722200   55.020900  120.079000
  H    -72.916300   53.806900  117.776000
  C    -73.235600   55.742200  119.916000
  H    -72.987100   56.301200  120.743000
  H    -74.073800   55.006800  120.226000
  C    -73.624000   56.821400  118.898000
  H    -73.837300   56.415300  117.887000
  H    -72.816000   57.497500  118.788000
  C    -74.849500   57.618400  119.420000
  H    -75.767200   57.034800  119.382000
  H    -74.975300   58.356100  118.659000
  H    -74.831700   58.135300  120.363000
  H    -69.103900   57.595900  124.091000
  H    -70.748300   52.336400  117.727000

 Total Charge           Charge          ....    0
 Multiplicity           Mult            ....    1
 Number of Electrons    NEL             ....  134
 Basis Dimension        Dim             ....  322

ORBITAL ENERGIES
----------------

  NO   OCC          E(Eh)            E(eV)
   0   2.0000     -88.966075     -2420.8900
   1   2.0000     -88.962185     -2420.7841
   2   2.0000     -10.332893      -281.1723
   3   2.0000     -10.327651      -281.0297
   4   2.0000     -10.323809      -280.9251
   5   2.0000     -10.316873      -280.7364
   6   2.0000     -10.309012      -280.5225
   7   2.0000     -10.303670      -280.3771
   8   2.0000     -10.302029      -280.3325
   9   2.0000     -10.301076      -280.3065
  10   2.0000     -10.298989      -280.2497
  11   2.0000     -10.291884      -280.0564
  12   2.0000     -10.291573      -280.0479
  13   2.0000     -10.287875      -279.9473
  14   2.0000     -10.282047      -279.7887
  15   2.0000     -10.277158      -279.6557
  16   2.0000      -8.080166      -219.8725
  17   2.0000      -8.075757      -219.7525
  18   2.0000      -6.038771      -164.3233
  19   2.0000      -6.034839      -164.2163
  20   2.0000      -6.034628      -164.2106
  21   2.0000      -6.030858      -164.1080
  22   2.0000      -6.030802      -164.1065
  23   2.0000      -6.025755      -163.9691
  24   2.0000      -1.001229       -27.2448
  25   2.0000      -0.977456       -26.5979
  26   2.0000      -0.912078       -24.8189
  27   2.0000      -0.907639       -24.6981
  28   2.0000      -0.868067       -23.6213
  29   2.0000      -0.851091       -23.1594
  30   2.0000      -0.841142       -22.8886
  31   2.0000      -0.811929       -22.0937
  32   2.0000      -0.785475       -21.3739
  33   2.0000      -0.775818       -21.1111
  34   2.0000      -0.708697       -19.2846
  35   2.0000      -0.703486       -19.1428
  36   2.0000      -0.696260       -18.9462
  37   2.0000      -0.657675       -17.8962
  38   2.0000      -0.637108       -17.3366
  39   2.0000      -0.619386       -16.8544
  40   2.0000      -0.595643       -16.2083
  41   2.0000      -0.567741       -15.4490
  42   2.0000      -0.565347       -15.3839
  43   2.0000      -0.556456       -15.1419
  44   2.0000      -0.530657       -14.4399
  45   2.0000      -0.525210       -14.2917
  46   2.0000      -0.519568       -14.1382
  47   2.0000      -0.510232       -13.8841
  48   2.0000      -0.502309       -13.6685
  49   2.0000      -0.494173       -13.4471
  50   2.0000      -0.492331       -13.3970
  51   2.0000      -0.484947       -13.1961
  52   2.0000      -0.471772       -12.8376
  53   2.0000      -0.459724       -12.5097
  54   2.0000      -0.456629       -12.4255
  55   2.0000      -0.450838       -12.2679
  56   2.0000      -0.442213       -12.0332
  57   2.0000      -0.440202       -11.9785
  58   2.0000      -0.437422       -11.9029
  59   2.0000      -0.429280       -11.6813
  60   2.0000      -0.425307       -11.5732
  61   2.0000      -0.419588       -11.4176
  62   2.0000      -0.414481       -11.2786
  63   2.0000      -0.349579        -9.5125
  64   2.0000      -0.330131        -8.9833
  65   2.0000      -0.326503        -8.8846
  66   2.0000      -0.290830        -7.9139
  67   0.0000       0.021243         0.5780
  68   0.0000       0.074154         2.0178
  69   0.0000       0.093237         2.5371
  70   0.0000       0.114623         3.1190
  71   0.0000       0.125265         3.4086

MULLIKEN ATOMIC CHARGES
-----------------------
   0 S :    0.079507
   1 C :   -0.126269
   2 C :   -0.077530
   3 C :   -0.021812
   4 C :   -0.114266
   5 H :    0.013541
   6 C :    0.085351
   7 H :    0.026476
   8 H :    0.017730
   9 C :   -0.099360
  10 H :    0.047248
  11 H :    0.037452
  12 C :   -0.036317
  13 H :    0.035985
  14 H :    0.037537
  15 H :    0.029314
  16 S :    0.091633
  17 C :   -0.100103
  18 C :   -0.040631
  19 C :   -0.071943
  20 C :   -0.133263
  21 H :    0.032572
  22 C :    0.099137
  23 H :   -0.008368
  24 H :    0.055369
  25 C :   -0.090919
  26 H :    0.034191
  27 H :    0.023497
  28 C :   -0.033786
  29 H :    0.028232
  30 H :    0.020769
  31 H :    0.036873
  32 H :    0.042688
  33 H :    0.079464
Sum of atomic charges:    0.0000000

LOEWDIN ATOMIC CHARGES
----------------------
   0 S :    0.342251
   1 C :   -0.168015
   2 C :   -0.067286
   3 C :   -0.065778
   4 C :   -0.175796
   5 H :    0.030806
   6 C :   -0.033617
   7 H :    0.030822
   8 H :    0.034710
   9 C :   -0.037245
  10 H :    0.028934
  11 H :    0.027799
  12 C :   -0.066104
  13 H :    0.027456
  14 H :    0.024120
  15 H :    0.027520
  16 S :    0.378890
  17 C :   -0.187389
  18 C :   -0.066632
  19 C :   -0.050933
  20 C :   -0.184408
  21 H :    0.034694
  22 C :   -0.031449
  23 H :    0.015265
  24 H :    0.044585
  25 C :   -0.028431
  26 H :    0.026795
  27 H :    0.016728
  28 C :   -0.065173
  29 H :    0.026133
  30 H :    0.024496
  31 H :    0.021995
  32 H :    0.028038
  33 H :    0.036221

  Mayer bond orders larger than 0.100000
B(  0-S ,  1-C ) :   1.1020 B(  0-S ,  4-C ) :   1.0949 B(  1-C ,  2-C ) :   1.6771
B(  1-C , 32-H ) :   0.9594 B(  2-C ,  3-C ) :   1.1942 B(  2-C ,  6-C ) :   1.0140
B(  3-C ,  4-C ) :   1.6273 B(  3-C ,  5-H ) :   0.9833 B(  4-C , 20-C ) :   1.0618
B(  6-C ,  7-H ) :   0.9384 B(  6-C ,  8-H ) :   0.9377 B(  6-C ,  9-C ) :   1.0340
B(  9-C , 10-H ) :   0.9613 B(  9-C , 11-H ) :   0.9588 B(  9-C , 12-C ) :   1.0785
B( 12-C , 13-H ) :   0.9769 B( 12-C , 14-H ) :   0.9771 B( 12-C , 15-H ) :   0.9752
B( 16-S , 17-C ) :   1.1426 B( 16-S , 20-C ) :   1.1221 B( 17-C , 18-C ) :   1.6227
B( 17-C , 33-H ) :   0.9598 B( 18-C , 19-C ) :   1.2231 B( 18-C , 21-H ) :   0.9834
B( 19-C , 20-C ) :   1.6024 B( 19-C , 22-C ) :   1.0493 B( 22-C , 23-H ) :   0.9180
B( 22-C , 24-H ) :   0.9380 B( 22-C , 25-C ) :   1.0598 B( 25-C , 26-H ) :   0.9551
B( 25-C , 27-H ) :   0.9509 B( 25-C , 28-C ) :   1.0818 B( 28-C , 29-H ) :   0.9725
B( 28-C , 30-H ) :   0.9729 B( 28-C , 31-H ) :   0.9733

Dispersion correction           -0.015163647
FINAL SINGLE POINT ENERGY     -1339.861019487553

DIPOLE MOMENT
-------------
                                X             Y             Z
Electronic contribution:     24.72690     -25.16995       0.23209
Nuclear contribution   :    -25.44735      25.82074      -0.35209
                        -----------------------------------------
Total Dipole Moment    :     -0.72045       0.65079      -0.12000
                        -----------------------------------------
Magnitude (a.u.)       :      0.97825
Magnitude (Debye)      :      2.48651

Rotational constants in cm-1:     0.016985     0.010317     0.006687
Rotational constants in MHz :   509.202562   309.297150   200.471727

                             ****ORCA TERMINATED NORMALLY****
TOTAL RUN TIME: 0 days 0 hours 0 minutes 35 seconds 257 msec
