                         Program Version 4.2.1 -  RELEASE  -
|  1> ! wB97X-D3 SP def2-SVP
|  2> %pal
|  3> nprocs 16
|  4> end
|  5>
|  6> * xyz 0 1
|  7> S 	 -100.708 	 55.2137 	 123.787
|  8> C 	 -101.774 	 53.8522 	 123.6
|  9> C 	 -102.953 	 54.0012 	 124.318
| 10> C 	 -102.959 	 55.2705 	 125.021
| 11> C 	 -101.826 	 56.0222 	 124.802
| 12> H 	 -103.66 	 55.4922 	 125.731
| 13> C 	 -104.153 	 53.019 	 124.398
| 14> H 	 -104.996 	 53.4165 	 123.769
| 15> H 	 -104.638 	 53.0668 	 125.386
| 16> C 	 -103.899 	 51.5634 	 123.992
| 17> H 	 -103.446 	 51.5596 	 123.007
| 18> H 	 -103.028 	 51.2098 	 124.579
| 19> C 	 -105.138 	 50.6432 	 124.106
| 20> H 	 -105.871 	 50.8832 	 123.32
| 21> H 	 -104.94 	 49.5941 	 123.891
| 22> H 	 -105.592 	 50.5089 	 125.084
| 23> S 	 -101.58 	 58.7239 	 124.074
| 24> C 	 -101.046 	 59.8437 	 125.275
| 25> C 	 -100.91 	 59.2373 	 126.532
| 26> C 	 -101.269 	 57.8684 	 126.509
| 27> C 	 -101.503 	 57.3689 	 125.199
| 28> H 	 -100.785 	 59.8326 	 127.408
| 29> C 	 -101.299 	 56.9544 	 127.791
| 30> H 	 -100.276 	 57.0749 	 128.329
| 31> H 	 -101.398 	 55.9117 	 127.575
| 32> C 	 -102.41 	 57.3889 	 128.853
| 33> H 	 -102.437 	 58.4062 	 129.169
| 34> H 	 -102.052 	 56.91 	 129.769
| 35> C 	 -103.856 	 56.7956 	 128.627
| 36> H 	 -103.903 	 55.6084 	 128.47
| 37> H 	 -104.3 	 57.1263 	 127.659
| 38> H 	 -104.479 	 57.0185 	 129.461
| 39> H 	 -101.477 	 52.9033 	 123.115
| 40> H 	 -101.027 	 60.9234 	 125.064
| 41> *
| 42>
| 43>                          ****END OF INPUT****

CARTESIAN COORDINATES (ANGSTROEM)
---------------------------------
  S    -100.708000   55.213700  123.787000
  C    -101.774000   53.852200  123.600000
  C    -102.953000   54.001200  124.318000
  C    -102.959000   55.270500  125.021000
  C    -101.826000   56.022200  124.802000
  H    -103.660000   55.492200  125.731000
  C    -104.153000   53.019000  124.398000
  H    -104.996000   53.416500  123.769000
  H    -104.638000   53.066800  125.386000
  C    -103.899000   51.563400  123.992000
  H    -103.446000   51.559600  123.007000
  H    -103.028000   51.209800  124.579000
  C    -105.138000   50.643200  124.106000
  H    -105.871000   50.883200  123.320000
  H    -104.940000   49.594100  123.891000
  H    -105.592000   50.508900  125.084000
  S    -101.580000   58.723900  124.074000
  C    -101.046000   59.843700  125.275000
  C    -100.910000   59.237300  126.532000
  C    -101.269000   57.868400  126.509000
  C    -101.503000   57.368900  125.199000
  H    -100.785000   59.832600  127.408000
  C    -101.299000   56.954400  127.791000
  H    -100.276000   57.074900  128.329000
  H    -101.398000   55.911700  127.575000
  C    -102.410000   57.388900  128.853000
  H    -102.437000   58.406200  129.169000
  H    -102.052000   56.910000  129.769000
  C    -103.856000   56.795600  128.627000
  H    -103.903000   55.608400  128.470000
  H    -104.300000   57.126300  127.659000
  H    -104.479000   57.018500  129.461000
  H    -101.477000   52.903300  123.115000
  H    -101.027000   60.923400  125.064000

 Total Charge           Charge          ....    0
 Multiplicity           Mult            ....    1
 Number of Electrons    NEL             ....  134
 Basis Dimension        Dim             ....  322

ORBITAL ENERGIES
----------------

  NO   OCC          E(Eh)            E(eV)
   0   2.0000     -88.966682     -2420.9065
   1   2.0000     -88.963935     -2420.8317
   2   2.0000     -10.324622      -280.9472
   3   2.0000     -10.323789      -280.9246
   4   2.0000     -10.320605      -280.8380
   5   2.0000     -10.314581      -280.6740
   6   2.0000     -10.307811      -280.4898
   7   2.0000     -10.306069      -280.4424
   8   2.0000     -10.305062      -280.4150
   9   2.0000     -10.300203      -280.2828
  10   2.0000     -10.293553      -280.1018
  11   2.0000     -10.293451      -280.0990
  12   2.0000     -10.292629      -280.0767
  13   2.0000     -10.292213      -280.0653
  14   2.0000     -10.288791      -279.9722
  15   2.0000     -10.284339      -279.8511
  16   2.0000      -8.081449      -219.9074
  17   2.0000      -8.079658      -219.8587
  18   2.0000      -6.039838      -164.3524
  19   2.0000      -6.038053      -164.3038
  20   2.0000      -6.035854      -164.2439
  21   2.0000      -6.033960      -164.1924
  22   2.0000      -6.032434      -164.1509
  23   2.0000      -6.030541      -164.0994
  24   2.0000      -1.006929       -27.3999
  25   2.0000      -0.982354       -26.7312
  26   2.0000      -0.907548       -24.6956
  27   2.0000      -0.892714       -24.2920
  28   2.0000      -0.866706       -23.5843
  29   2.0000      -0.848556       -23.0904
  30   2.0000      -0.843555       -22.9543
  31   2.0000      -0.809353       -22.0236
  32   2.0000      -0.783166       -21.3110
  33   2.0000      -0.769028       -20.9263
  34   2.0000      -0.712152       -19.3787
  35   2.0000      -0.703218       -19.1355
  36   2.0000      -0.692145       -18.8342
  37   2.0000      -0.655163       -17.8279
  38   2.0000      -0.642127       -17.4732
  39   2.0000      -0.617199       -16.7948
  40   2.0000      -0.596658       -16.2359
  41   2.0000      -0.568594       -15.4722
  42   2.0000      -0.560548       -15.2533
  43   2.0000      -0.541170       -14.7260
  44   2.0000      -0.529633       -14.4120
  45   2.0000      -0.522471       -14.2172
  46   2.0000      -0.516457       -14.0535
  47   2.0000      -0.510190       -13.8830
  48   2.0000      -0.498244       -13.5579
  49   2.0000      -0.494014       -13.4428
  50   2.0000      -0.489343       -13.3157
  51   2.0000      -0.476134       -12.9563
  52   2.0000      -0.472419       -12.8552
  53   2.0000      -0.464769       -12.6470
  54   2.0000      -0.461288       -12.5523
  55   2.0000      -0.454154       -12.3582
  56   2.0000      -0.446476       -12.1492
  57   2.0000      -0.434637       -11.8271
  58   2.0000      -0.430600       -11.7172
  59   2.0000      -0.429149       -11.6777
  60   2.0000      -0.425964       -11.5911
  61   2.0000      -0.417933       -11.3725
  62   2.0000      -0.404127       -10.9968
  63   2.0000      -0.337080        -9.1724
  64   2.0000      -0.329347        -8.9620
  65   2.0000      -0.325965        -8.8700
  66   2.0000      -0.298701        -8.1281
  67   0.0000       0.040648         1.1061
  68   0.0000       0.059446         1.6176
  69   0.0000       0.113274         3.0824
  70   0.0000       0.119913         3.2630
  71   0.0000       0.129696         3.5292

MULLIKEN ATOMIC CHARGES
-----------------------
   0 S :    0.125186
   1 C :   -0.149661
   2 C :   -0.085882
   3 C :    0.094869
   4 C :   -0.185847
   5 H :   -0.045384
   6 C :    0.045215
   7 H :    0.042018
   8 H :    0.023202
   9 C :   -0.088252
  10 H :    0.028967
  11 H :    0.029262
  12 C :   -0.039761
  13 H :    0.037914
  14 H :    0.022407
  15 H :    0.036475
  16 S :    0.127829
  17 C :   -0.117461
  18 C :   -0.012556
  19 C :   -0.010566
  20 C :   -0.161074
  21 H :    0.013826
  22 C :    0.035697
  23 H :    0.048800
  24 H :    0.031241
  25 C :   -0.062332
  26 H :    0.027654
  27 H :    0.023164
  28 C :   -0.100637
  29 H :    0.040359
  30 H :    0.051216
  31 H :    0.041011
  32 H :    0.059708
  33 H :    0.073394
Sum of atomic charges:    0.0000000

LOEWDIN ATOMIC CHARGES
----------------------
   0 S :    0.432833
   1 C :   -0.213798
   2 C :   -0.057833
   3 C :   -0.047642
   4 C :   -0.205993
   5 H :    0.013267
   6 C :   -0.038136
   7 H :    0.038376
   8 H :    0.029936
   9 C :   -0.048507
  10 H :    0.023302
  11 H :    0.025885
  12 C :   -0.071358
  13 H :    0.030845
  14 H :    0.029109
  15 H :    0.028019
  16 S :    0.421487
  17 C :   -0.193169
  18 C :   -0.074341
  19 C :   -0.049683
  20 C :   -0.218656
  21 H :    0.028041
  22 C :   -0.025690
  23 H :    0.042714
  24 H :    0.026072
  25 C :   -0.041165
  26 H :    0.020256
  27 H :    0.026187
  28 C :   -0.077183
  29 H :    0.034225
  30 H :    0.024961
  31 H :    0.021706
  32 H :    0.031716
  33 H :    0.034219

  Mayer bond orders larger than 0.100000
B(  0-S ,  1-C ) :   1.1433 B(  0-S ,  4-C ) :   1.1722 B(  1-C ,  2-C ) :   1.6196
B(  1-C , 32-H ) :   0.9590 B(  2-C ,  3-C ) :   1.2443 B(  2-C ,  6-C ) :   1.0090
B(  3-C ,  4-C ) :   1.5754 B(  3-C ,  5-H ) :   1.0124 B(  4-C , 20-C ) :   1.0191
B(  6-C ,  7-H ) :   0.9359 B(  6-C ,  8-H ) :   0.9442 B(  6-C ,  9-C ) :   1.0637
B(  9-C , 10-H ) :   0.9481 B(  9-C , 11-H ) :   0.9594 B(  9-C , 12-C ) :   1.0806
B( 12-C , 13-H ) :   0.9739 B( 12-C , 14-H ) :   0.9708 B( 12-C , 15-H ) :   0.9757
B( 16-S , 17-C ) :   1.1869 B( 16-S , 20-C ) :   1.1546 B( 17-C , 18-C ) :   1.5590
B( 17-C , 20-C ) :   0.1100 B( 17-C , 33-H ) :   0.9648 B( 18-C , 19-C ) :   1.2868
B( 18-C , 21-H ) :   0.9909 B( 19-C , 20-C ) :   1.5509 B( 19-C , 22-C ) :   1.0353
B( 22-C , 23-H ) :   0.9484 B( 22-C , 24-H ) :   0.9411 B( 22-C , 25-C ) :   1.0532
B( 25-C , 26-H ) :   0.9620 B( 25-C , 27-H ) :   0.9551 B( 25-C , 28-C ) :   1.0644
B( 28-C , 29-H ) :   0.9741 B( 28-C , 30-H ) :   0.9753 B( 28-C , 31-H ) :   0.9727

Dispersion correction           -0.014411826
FINAL SINGLE POINT ENERGY     -1339.872397525044

DIPOLE MOMENT
-------------
                                X             Y             Z
Electronic contribution:     17.09682      18.51138     -14.93923
Nuclear contribution   :    -17.50690     -18.75447      15.48009
                        -----------------------------------------
Total Dipole Moment    :     -0.41009      -0.24309       0.54086
                        -----------------------------------------
Magnitude (a.u.)       :      0.72097
Magnitude (Debye)      :      1.83255

Rotational constants in cm-1:     0.020896     0.007692     0.006224
Rotational constants in MHz :   626.439980   230.601711   186.584991

                             ****ORCA TERMINATED NORMALLY****
TOTAL RUN TIME: 0 days 0 hours 0 minutes 34 seconds 121 msec
