                         Program Version 4.2.1 -  RELEASE  -
|  1> ! wB97X-D3 SP def2-SVP
|  2> %pal
|  3> nprocs 16
|  4> end
|  5>
|  6> * xyz 0 1
|  7> S 	 43.7777 	 23.3321 	 88.7152
|  8> C 	 42.8405 	 24.0857 	 89.9976
|  9> C 	 42.2616 	 25.2563 	 89.5775
| 10> C 	 42.6535 	 25.5602 	 88.222
| 11> C 	 43.3239 	 24.5763 	 87.5871
| 12> H 	 42.332 	 26.4354 	 87.6778
| 13> C 	 41.4732 	 26.1583 	 90.5129
| 14> H 	 41.7619 	 27.2207 	 90.2999
| 15> H 	 41.7477 	 25.9389 	 91.5457
| 16> C 	 39.9686 	 26.0385 	 90.245
| 17> H 	 39.8433 	 26.1881 	 89.2027
| 18> H 	 39.5184 	 25.0978 	 90.5693
| 19> C 	 39.1046 	 27.1949 	 90.8274
| 20> H 	 39.006 	 27.1445 	 91.9391
| 21> H 	 39.6315 	 28.1701 	 90.5501
| 22> H 	 38.1221 	 27.135 	 90.4065
| 23> S 	 45.5145 	 25.158 	 85.982
| 24> C 	 45.2449 	 25.0165 	 84.2616
| 25> C 	 43.9348 	 24.841 	 83.9025
| 26> C 	 43.1066 	 24.5595 	 85.0272
| 27> C 	 43.8348 	 24.5851 	 86.2163
| 28> H 	 43.5873 	 24.781 	 82.868
| 29> C 	 41.6412 	 24.409 	 84.8447
| 30> H 	 41.2613 	 23.6791 	 85.5956
| 31> H 	 41.6332 	 23.8784 	 83.808
| 32> C 	 40.7695 	 25.7365 	 84.8901
| 33> H 	 41.1667 	 26.585 	 84.1929
| 34> H 	 40.907 	 26.1624 	 85.9057
| 35> C 	 39.2862 	 25.5544 	 84.7185
| 36> H 	 39.1896 	 24.8659 	 83.8451
| 37> H 	 38.7092 	 26.5304 	 84.5458
| 38> H 	 38.7812 	 25.0171 	 85.4803
| 39> H 	 42.6944 	 23.8239 	 90.9907
| 40> H 	 45.976 	 25.3359 	 83.5534
| 41> *
| 42>
| 43>                          ****END OF INPUT****

CARTESIAN COORDINATES (ANGSTROEM)
---------------------------------
  S     43.777700   23.332100   88.715200
  C     42.840500   24.085700   89.997600
  C     42.261600   25.256300   89.577500
  C     42.653500   25.560200   88.222000
  C     43.323900   24.576300   87.587100
  H     42.332000   26.435400   87.677800
  C     41.473200   26.158300   90.512900
  H     41.761900   27.220700   90.299900
  H     41.747700   25.938900   91.545700
  C     39.968600   26.038500   90.245000
  H     39.843300   26.188100   89.202700
  H     39.518400   25.097800   90.569300
  C     39.104600   27.194900   90.827400
  H     39.006000   27.144500   91.939100
  H     39.631500   28.170100   90.550100
  H     38.122100   27.135000   90.406500
  S     45.514500   25.158000   85.982000
  C     45.244900   25.016500   84.261600
  C     43.934800   24.841000   83.902500
  C     43.106600   24.559500   85.027200
  C     43.834800   24.585100   86.216300
  H     43.587300   24.781000   82.868000
  C     41.641200   24.409000   84.844700
  H     41.261300   23.679100   85.595600
  H     41.633200   23.878400   83.808000
  C     40.769500   25.736500   84.890100
  H     41.166700   26.585000   84.192900
  H     40.907000   26.162400   85.905700
  C     39.286200   25.554400   84.718500
  H     39.189600   24.865900   83.845100
  H     38.709200   26.530400   84.545800
  H     38.781200   25.017100   85.480300
  H     42.694400   23.823900   90.990700
  H     45.976000   25.335900   83.553400

 Total Charge           Charge          ....    0
 Multiplicity           Mult            ....    1
 Number of Electrons    NEL             ....  134
 Basis Dimension        Dim             ....  322

ORBITAL ENERGIES
----------------

  NO   OCC          E(Eh)            E(eV)
   0   2.0000     -88.967673     -2420.9335
   1   2.0000     -88.963377     -2420.8165
   2   2.0000     -10.326408      -280.9958
   3   2.0000     -10.323117      -280.9063
   4   2.0000     -10.315351      -280.6950
   5   2.0000     -10.306787      -280.4619
   6   2.0000     -10.305189      -280.4184
   7   2.0000     -10.303033      -280.3598
   8   2.0000     -10.301623      -280.3214
   9   2.0000     -10.297905      -280.2202
  10   2.0000     -10.297785      -280.2170
  11   2.0000     -10.293044      -280.0880
  12   2.0000     -10.290930      -280.0304
  13   2.0000     -10.285003      -279.8692
  14   2.0000     -10.284969      -279.8682
  15   2.0000     -10.283405      -279.8257
  16   2.0000      -8.081993      -219.9222
  17   2.0000      -8.078200      -219.8190
  18   2.0000      -6.040397      -164.3676
  19   2.0000      -6.036865      -164.2714
  20   2.0000      -6.036793      -164.2695
  21   2.0000      -6.032718      -164.1586
  22   2.0000      -6.032573      -164.1546
  23   2.0000      -6.028833      -164.0529
  24   2.0000      -1.006701       -27.3937
  25   2.0000      -0.984662       -26.7940
  26   2.0000      -0.912247       -24.8235
  27   2.0000      -0.905171       -24.6310
  28   2.0000      -0.869291       -23.6546
  29   2.0000      -0.856840       -23.3158
  30   2.0000      -0.844174       -22.9712
  31   2.0000      -0.816293       -22.2125
  32   2.0000      -0.781572       -21.2676
  33   2.0000      -0.768358       -20.9081
  34   2.0000      -0.706203       -19.2168
  35   2.0000      -0.694867       -18.9083
  36   2.0000      -0.690755       -18.7964
  37   2.0000      -0.663215       -18.0470
  38   2.0000      -0.643655       -17.5147
  39   2.0000      -0.617600       -16.8058
  40   2.0000      -0.594397       -16.1744
  41   2.0000      -0.572259       -15.5720
  42   2.0000      -0.563327       -15.3289
  43   2.0000      -0.553902       -15.0724
  44   2.0000      -0.527900       -14.3649
  45   2.0000      -0.523682       -14.2501
  46   2.0000      -0.520294       -14.1579
  47   2.0000      -0.513679       -13.9779
  48   2.0000      -0.499701       -13.5976
  49   2.0000      -0.497769       -13.5450
  50   2.0000      -0.492710       -13.4073
  51   2.0000      -0.480878       -13.0853
  52   2.0000      -0.465380       -12.6636
  53   2.0000      -0.463558       -12.6141
  54   2.0000      -0.458151       -12.4669
  55   2.0000      -0.450844       -12.2681
  56   2.0000      -0.441408       -12.0113
  57   2.0000      -0.436746       -11.8845
  58   2.0000      -0.433284       -11.7903
  59   2.0000      -0.432047       -11.7566
  60   2.0000      -0.427338       -11.6284
  61   2.0000      -0.416005       -11.3201
  62   2.0000      -0.408260       -11.1093
  63   2.0000      -0.339409        -9.2358
  64   2.0000      -0.326980        -8.8976
  65   2.0000      -0.324441        -8.8285
  66   2.0000      -0.308486        -8.3943
  67   0.0000       0.038406         1.0451
  68   0.0000       0.059077         1.6076
  69   0.0000       0.105764         2.8780
  70   0.0000       0.118901         3.2355
  71   0.0000       0.125148         3.4055

MULLIKEN ATOMIC CHARGES
-----------------------
   0 S :    0.112594
   1 C :   -0.073870
   2 C :   -0.111076
   3 C :    0.050305
   4 C :   -0.179983
   5 H :    0.010879
   6 C :    0.070477
   7 H :    0.027411
   8 H :    0.024005
   9 C :   -0.068988
  10 H :    0.020902
  11 H :    0.033798
  12 C :   -0.070863
  13 H :    0.037661
  14 H :    0.033949
  15 H :    0.037227
  16 S :    0.113675
  17 C :   -0.069570
  18 C :   -0.042641
  19 C :   -0.022258
  20 C :   -0.166468
  21 H :    0.025900
  22 C :    0.026465
  23 H :    0.045242
  24 H :    0.037026
  25 C :   -0.087097
  26 H :    0.045962
  27 H :    0.023139
  28 C :   -0.045720
  29 H :    0.025048
  30 H :    0.053208
  31 H :    0.026567
  32 H :    0.008132
  33 H :    0.048962
Sum of atomic charges:    0.0000000

LOEWDIN ATOMIC CHARGES
----------------------
   0 S :    0.403576
   1 C :   -0.184686
   2 C :   -0.061861
   3 C :   -0.060017
   4 C :   -0.203744
   5 H :    0.026746
   6 C :   -0.028429
   7 H :    0.035046
   8 H :    0.027628
   9 C :   -0.039552
  10 H :    0.020346
  11 H :    0.024752
  12 C :   -0.068607
  13 H :    0.024571
  14 H :    0.028933
  15 H :    0.022389
  16 S :    0.395653
  17 C :   -0.175066
  18 C :   -0.071509
  19 C :   -0.053586
  20 C :   -0.194685
  21 H :    0.035060
  22 C :   -0.040353
  23 H :    0.039066
  24 H :    0.040283
  25 C :   -0.049819
  26 H :    0.035926
  27 H :    0.022667
  28 C :   -0.075313
  29 H :    0.027884
  30 H :    0.039386
  31 H :    0.019027
  32 H :    0.015604
  33 H :    0.022684

  Mayer bond orders larger than 0.100000
B(  0-S ,  1-C ) :   1.1293 B(  0-S ,  4-C ) :   1.1392 B(  1-C ,  2-C ) :   1.6450
B(  1-C , 32-H ) :   0.9706 B(  2-C ,  3-C ) :   1.2164 B(  2-C ,  6-C ) :   1.0263
B(  3-C ,  4-C ) :   1.6197 B(  3-C ,  5-H ) :   0.9885 B(  4-C , 20-C ) :   1.0036
B(  6-C ,  7-H ) :   0.9407 B(  6-C ,  8-H ) :   0.9434 B(  6-C ,  9-C ) :   1.0602
B(  9-C , 10-H ) :   0.9596 B(  9-C , 11-H ) :   0.9550 B(  9-C , 12-C ) :   1.0806
B( 12-C , 13-H ) :   0.9767 B( 12-C , 14-H ) :   0.9740 B( 12-C , 15-H ) :   0.9763
B( 16-S , 17-C ) :   1.1538 B( 16-S , 20-C ) :   1.1404 B( 17-C , 18-C ) :   1.6277
B( 17-C , 33-H ) :   0.9644 B( 18-C , 19-C ) :   1.2383 B( 18-C , 21-H ) :   0.9836
B( 19-C , 20-C ) :   1.6108 B( 19-C , 22-C ) :   1.0547 B( 22-C , 23-H ) :   0.9290
B( 22-C , 24-H ) :   0.9317 B( 22-C , 25-C ) :   1.0483 B( 25-C , 26-H ) :   0.9560
B( 25-C , 27-H ) :   0.9478 B( 25-C , 28-C ) :   1.0828 B( 28-C , 29-H ) :   0.9722
B( 28-C , 30-H ) :   0.9716 B( 28-C , 31-H ) :   0.9730

Dispersion correction           -0.014385866
FINAL SINGLE POINT ENERGY     -1339.875098582554

DIPOLE MOMENT
-------------
                                X             Y             Z
Electronic contribution:     29.65401     -12.14907      -2.37223
Nuclear contribution   :    -30.24409      12.59047       2.26562
                        -----------------------------------------
Total Dipole Moment    :     -0.59008       0.44140      -0.10660
                        -----------------------------------------
Magnitude (a.u.)       :      0.74458
Magnitude (Debye)      :      1.89257

Rotational constants in cm-1:     0.017306     0.009228     0.006793
Rotational constants in MHz :   518.808150   276.638367   203.646776

                             ****ORCA TERMINATED NORMALLY****
TOTAL RUN TIME: 0 days 0 hours 0 minutes 30 seconds 681 msec
