                         Program Version 4.2.1 -  RELEASE  -
|  1> ! wB97X-D3 SP def2-SVP
|  2> %pal
|  3> nprocs 16
|  4> end
|  5>
|  6> * xyz 0 1
|  7> S 	 -0.0179796 	 32.28 	 40.9116
|  8> C 	 1.2148 	 31.682 	 39.8672
|  9> C 	 0.767162 	 31.0207 	 38.7231
| 10> C 	 -0.679616 	 30.9351 	 38.725
| 11> C 	 -1.24795 	 31.572 	 39.8195
| 12> H 	 -1.28257 	 30.4334 	 37.9858
| 13> C 	 1.69318 	 30.385 	 37.7359
| 14> H 	 2.38716 	 31.155 	 37.3355
| 15> H 	 1.11026 	 30.1913 	 36.7856
| 16> C 	 2.2418 	 29.0479 	 38.1419
| 17> H 	 2.8172 	 29.2467 	 39.0577
| 18> H 	 1.42661 	 28.3553 	 38.4123
| 19> C 	 3.30594 	 28.5329 	 37.1385
| 20> H 	 3.06372 	 28.5724 	 36.05
| 21> H 	 4.28626 	 29.1094 	 37.2873
| 22> H 	 3.52156 	 27.5217 	 37.2192
| 23> S 	 -3.17469 	 32.118 	 41.7832
| 24> C 	 -4.87799 	 32.0967 	 41.3769
| 25> C 	 -5.01411 	 31.967 	 40.0075
| 26> C 	 -3.79469 	 31.6636 	 39.3037
| 27> C 	 -2.67749 	 31.7047 	 40.1396
| 28> H 	 -6.01957 	 32.2562 	 39.6867
| 29> C 	 -3.90385 	 31.2862 	 37.7795
| 30> H 	 -4.97138 	 31.2814 	 37.5801
| 31> H 	 -3.47954 	 30.2939 	 37.6783
| 32> C 	 -3.19042 	 32.1959 	 36.7549
| 33> H 	 -2.06249 	 32.1975 	 36.9694
| 34> H 	 -3.53898 	 33.2693 	 36.8187
| 35> C 	 -3.37047 	 31.7044 	 35.226
| 36> H 	 -3.00783 	 30.7051 	 35.1184
| 37> H 	 -2.76774 	 32.3596 	 34.5923
| 38> H 	 -4.44555 	 31.7603 	 35.0016
| 39> H 	 2.29777 	 31.7555 	 39.9501
| 40> H 	 -5.64622 	 32.591 	 41.9174
| 41> *
| 42>
| 43>                          ****END OF INPUT****

CARTESIAN COORDINATES (ANGSTROEM)
---------------------------------
  S     -0.017980   32.280000   40.911600
  C      1.214800   31.682000   39.867200
  C      0.767162   31.020700   38.723100
  C     -0.679616   30.935100   38.725000
  C     -1.247950   31.572000   39.819500
  H     -1.282570   30.433400   37.985800
  C      1.693180   30.385000   37.735900
  H      2.387160   31.155000   37.335500
  H      1.110260   30.191300   36.785600
  C      2.241800   29.047900   38.141900
  H      2.817200   29.246700   39.057700
  H      1.426610   28.355300   38.412300
  C      3.305940   28.532900   37.138500
  H      3.063720   28.572400   36.050000
  H      4.286260   29.109400   37.287300
  H      3.521560   27.521700   37.219200
  S     -3.174690   32.118000   41.783200
  C     -4.877990   32.096700   41.376900
  C     -5.014110   31.967000   40.007500
  C     -3.794690   31.663600   39.303700
  C     -2.677490   31.704700   40.139600
  H     -6.019570   32.256200   39.686700
  C     -3.903850   31.286200   37.779500
  H     -4.971380   31.281400   37.580100
  H     -3.479540   30.293900   37.678300
  C     -3.190420   32.195900   36.754900
  H     -2.062490   32.197500   36.969400
  H     -3.538980   33.269300   36.818700
  C     -3.370470   31.704400   35.226000
  H     -3.007830   30.705100   35.118400
  H     -2.767740   32.359600   34.592300
  H     -4.445550   31.760300   35.001600
  H      2.297770   31.755500   39.950100
  H     -5.646220   32.591000   41.917400

 Total Charge           Charge          ....    0
 Multiplicity           Mult            ....    1
 Number of Electrons    NEL             ....  134
 Basis Dimension        Dim             ....  322

ORBITAL ENERGIES
----------------

  NO   OCC          E(Eh)            E(eV)
   0   2.0000     -88.974207     -2421.1113
   1   2.0000     -88.965906     -2420.8854
   2   2.0000     -10.337105      -281.2869
   3   2.0000     -10.334887      -281.2266
   4   2.0000     -10.313309      -280.6394
   5   2.0000     -10.311788      -280.5980
   6   2.0000     -10.310579      -280.5651
   7   2.0000     -10.302477      -280.3446
   8   2.0000     -10.300237      -280.2837
   9   2.0000     -10.299083      -280.2523
  10   2.0000     -10.297750      -280.2160
  11   2.0000     -10.296372      -280.1785
  12   2.0000     -10.295973      -280.1677
  13   2.0000     -10.293073      -280.0888
  14   2.0000     -10.284219      -279.8478
  15   2.0000     -10.283583      -279.8305
  16   2.0000      -8.088279      -220.0932
  17   2.0000      -8.080244      -219.8746
  18   2.0000      -6.046925      -164.5452
  19   2.0000      -6.042966      -164.4375
  20   2.0000      -6.038909      -164.3271
  21   2.0000      -6.038864      -164.3258
  22   2.0000      -6.034825      -164.2159
  23   2.0000      -6.030856      -164.1079
  24   2.0000      -1.003964       -27.3193
  25   2.0000      -0.982155       -26.7258
  26   2.0000      -0.916004       -24.9257
  27   2.0000      -0.897516       -24.4227
  28   2.0000      -0.868530       -23.6339
  29   2.0000      -0.852461       -23.1966
  30   2.0000      -0.840997       -22.8847
  31   2.0000      -0.816827       -22.2270
  32   2.0000      -0.781767       -21.2730
  33   2.0000      -0.772374       -21.0174
  34   2.0000      -0.707496       -19.2519
  35   2.0000      -0.705076       -19.1861
  36   2.0000      -0.686944       -18.6927
  37   2.0000      -0.662751       -18.0344
  38   2.0000      -0.634698       -17.2710
  39   2.0000      -0.622495       -16.9389
  40   2.0000      -0.588177       -16.0051
  41   2.0000      -0.571874       -15.5615
  42   2.0000      -0.564496       -15.3607
  43   2.0000      -0.558496       -15.1975
  44   2.0000      -0.525497       -14.2995
  45   2.0000      -0.521650       -14.1948
  46   2.0000      -0.518347       -14.1049
  47   2.0000      -0.505206       -13.7474
  48   2.0000      -0.503178       -13.6922
  49   2.0000      -0.496790       -13.5183
  50   2.0000      -0.491462       -13.3734
  51   2.0000      -0.483018       -13.1436
  52   2.0000      -0.476696       -12.9716
  53   2.0000      -0.464392       -12.6367
  54   2.0000      -0.456536       -12.4230
  55   2.0000      -0.450440       -12.2571
  56   2.0000      -0.446537       -12.1509
  57   2.0000      -0.439077       -11.9479
  58   2.0000      -0.435687       -11.8556
  59   2.0000      -0.427185       -11.6243
  60   2.0000      -0.423225       -11.5165
  61   2.0000      -0.410797       -11.1784
  62   2.0000      -0.404818       -11.0157
  63   2.0000      -0.361446        -9.8354
  64   2.0000      -0.336958        -9.1691
  65   2.0000      -0.328042        -8.9265
  66   2.0000      -0.283227        -7.7070
  67   0.0000       0.016359         0.4451
  68   0.0000       0.077587         2.1113
  69   0.0000       0.096217         2.6182
  70   0.0000       0.116775         3.1776
  71   0.0000       0.132895         3.6163

MULLIKEN ATOMIC CHARGES
-----------------------
   0 S :    0.125380
   1 C :   -0.091257
   2 C :   -0.109036
   3 C :    0.010312
   4 C :   -0.118452
   5 H :    0.002673
   6 C :    0.015815
   7 H :    0.040962
   8 H :    0.016007
   9 C :   -0.044580
  10 H :    0.025720
  11 H :    0.043519
  12 C :   -0.053031
  13 H :    0.029141
  14 H :    0.044346
  15 H :    0.019884
  16 S :    0.084312
  17 C :   -0.079151
  18 C :   -0.071616
  19 C :   -0.046794
  20 C :   -0.114124
  21 H :    0.030009
  22 C :    0.076124
  23 H :    0.020279
  24 H :    0.036670
  25 C :   -0.148798
  26 H :    0.051167
  27 H :    0.043149
  28 C :   -0.040502
  29 H :    0.024676
  30 H :    0.042290
  31 H :    0.039137
  32 H :    0.040402
  33 H :    0.055365
Sum of atomic charges:    0.0000000

LOEWDIN ATOMIC CHARGES
----------------------
   0 S :    0.405592
   1 C :   -0.205426
   2 C :   -0.064071
   3 C :   -0.058168
   4 C :   -0.172422
   5 H :    0.029044
   6 C :   -0.048712
   7 H :    0.037413
   8 H :    0.032238
   9 C :   -0.040049
  10 H :    0.026273
  11 H :    0.031900
  12 C :   -0.071704
  13 H :    0.026833
  14 H :    0.037206
  15 H :    0.015869
  16 S :    0.391638
  17 C :   -0.193909
  18 C :   -0.071626
  19 C :   -0.059063
  20 C :   -0.186781
  21 H :    0.036208
  22 C :   -0.029755
  23 H :    0.029825
  24 H :    0.028392
  25 C :   -0.051834
  26 H :    0.029583
  27 H :    0.028331
  28 C :   -0.061863
  29 H :    0.017506
  30 H :    0.028575
  31 H :    0.025993
  32 H :    0.030110
  33 H :    0.026855

  Mayer bond orders larger than 0.100000
B(  0-S ,  1-C ) :   1.1376 B(  0-S ,  4-C ) :   1.1319 B(  1-C ,  2-C ) :   1.6288
B(  1-C , 32-H ) :   0.9580 B(  2-C ,  3-C ) :   1.2401 B(  2-C ,  6-C ) :   1.0312
B(  3-C ,  4-C ) :   1.5713 B(  3-C ,  5-H ) :   0.9879 B(  4-C , 20-C ) :   1.0850
B(  6-C ,  7-H ) :   0.9395 B(  6-C ,  8-H ) :   0.9336 B(  6-C ,  9-C ) :   1.0569
B(  9-C , 10-H ) :   0.9580 B(  9-C , 11-H ) :   0.9544 B(  9-C , 12-C ) :   1.0650
B( 12-C , 13-H ) :   0.9755 B( 12-C , 14-H ) :   0.9761 B( 12-C , 15-H ) :   0.9747
B( 16-S , 17-C ) :   1.1427 B( 16-S , 20-C ) :   1.1356 B( 17-C , 18-C ) :   1.6436
B( 17-C , 33-H ) :   0.9602 B( 18-C , 19-C ) :   1.2450 B( 18-C , 21-H ) :   0.9806
B( 19-C , 20-C ) :   1.5816 B( 19-C , 22-C ) :   1.0190 B( 22-C , 23-H ) :   0.9376
B( 22-C , 24-H ) :   0.9363 B( 22-C , 25-C ) :   1.0585 B( 25-C , 26-H ) :   0.9523
B( 25-C , 27-H ) :   0.9559 B( 25-C , 28-C ) :   1.0664 B( 28-C , 29-H ) :   0.9769
B( 28-C , 30-H ) :   0.9770 B( 28-C , 31-H ) :   0.9787

Dispersion correction           -0.013982378
FINAL SINGLE POINT ENERGY     -1339.870442751673

DIPOLE MOMENT
-------------
                                X             Y             Z
Electronic contribution:     -8.47977      10.86900      28.42525
Nuclear contribution   :      8.54089     -10.98860     -29.11791
                        -----------------------------------------
Total Dipole Moment    :      0.06112      -0.11960      -0.69266
                        -----------------------------------------
Magnitude (a.u.)       :      0.70556
Magnitude (Debye)      :      1.79340

Rotational constants in cm-1:     0.018275     0.008506     0.006279
Rotational constants in MHz :   547.859931   255.011763   188.243340

                             ****ORCA TERMINATED NORMALLY****
TOTAL RUN TIME: 0 days 0 hours 0 minutes 32 seconds 497 msec
