                         Program Version 4.2.1 -  RELEASE  -
|  1> ! wB97X-D3 SP def2-SVP
|  2> %pal
|  3> nprocs 16
|  4> end
|  5>
|  6> * xyz 0 1
|  7> S 	 7.5748 	 24.7729 	 43.1085
|  8> C 	 5.98819 	 25.4152 	 43.5431
|  9> C 	 5.58947 	 26.4502 	 42.6573
| 10> C 	 6.56888 	 26.7667 	 41.689
| 11> C 	 7.70047 	 26.0534 	 41.8343
| 12> H 	 6.50821 	 27.5646 	 40.934
| 13> C 	 4.37751 	 27.2604 	 42.8784
| 14> H 	 3.94106 	 27.0057 	 43.8526
| 15> H 	 3.72966 	 27.0082 	 42.0035
| 16> C 	 4.75784 	 28.7695 	 43.0496
| 17> H 	 5.51667 	 28.7688 	 43.8118
| 18> H 	 5.32001 	 29.1789 	 42.2246
| 19> C 	 3.48793 	 29.5201 	 43.4642
| 20> H 	 3.72386 	 30.371 	 44.0853
| 21> H 	 2.82117 	 29.7694 	 42.6557
| 22> H 	 2.94801 	 28.8601 	 44.1562
| 23> S 	 10.4327 	 26.1674 	 42.09
| 24> C 	 11.3723 	 26.3328 	 40.5848
| 25> C 	 10.5507 	 26.4289 	 39.5173
| 26> C 	 9.15065 	 26.3442 	 39.821
| 27> C 	 8.92896 	 26.2595 	 41.1503
| 28> H 	 11.1101 	 26.2613 	 38.6299
| 29> C 	 8.13874 	 26.2979 	 38.7914
| 30> H 	 8.37858 	 27.0374 	 38.0338
| 31> H 	 7.16908 	 26.5147 	 39.2608
| 32> C 	 7.88574 	 24.9085 	 38.1418
| 33> H 	 7.85907 	 24.0942 	 38.8337
| 34> H 	 8.81972 	 24.6893 	 37.6309
| 35> C 	 6.69966 	 24.8588 	 37.1694
| 36> H 	 5.75447 	 24.8148 	 37.6336
| 37> H 	 6.76345 	 23.9223 	 36.6723
| 38> H 	 6.69752 	 25.6921 	 36.4952
| 39> H 	 5.3948 	 25.0073 	 44.3981
| 40> H 	 12.4355 	 26.4132 	 40.6467
| 41> *
| 42>
| 43>                          ****END OF INPUT****

CARTESIAN COORDINATES (ANGSTROEM)
---------------------------------
  S      7.574800   24.772900   43.108500
  C      5.988190   25.415200   43.543100
  C      5.589470   26.450200   42.657300
  C      6.568880   26.766700   41.689000
  C      7.700470   26.053400   41.834300
  H      6.508210   27.564600   40.934000
  C      4.377510   27.260400   42.878400
  H      3.941060   27.005700   43.852600
  H      3.729660   27.008200   42.003500
  C      4.757840   28.769500   43.049600
  H      5.516670   28.768800   43.811800
  H      5.320010   29.178900   42.224600
  C      3.487930   29.520100   43.464200
  H      3.723860   30.371000   44.085300
  H      2.821170   29.769400   42.655700
  H      2.948010   28.860100   44.156200
  S     10.432700   26.167400   42.090000
  C     11.372300   26.332800   40.584800
  C     10.550700   26.428900   39.517300
  C      9.150650   26.344200   39.821000
  C      8.928960   26.259500   41.150300
  H     11.110100   26.261300   38.629900
  C      8.138740   26.297900   38.791400
  H      8.378580   27.037400   38.033800
  H      7.169080   26.514700   39.260800
  C      7.885740   24.908500   38.141800
  H      7.859070   24.094200   38.833700
  H      8.819720   24.689300   37.630900
  C      6.699660   24.858800   37.169400
  H      5.754470   24.814800   37.633600
  H      6.763450   23.922300   36.672300
  H      6.697520   25.692100   36.495200
  H      5.394800   25.007300   44.398100
  H     12.435500   26.413200   40.646700

 Total Charge           Charge          ....    0
 Multiplicity           Mult            ....    1
 Number of Electrons    NEL             ....  134
 Basis Dimension        Dim             ....  322

ORBITAL ENERGIES
----------------

  NO   OCC          E(Eh)            E(eV)
   0   2.0000     -88.964327     -2420.8424
   1   2.0000     -88.958849     -2420.6934
   2   2.0000     -10.325649      -280.9752
   3   2.0000     -10.318924      -280.7922
   4   2.0000     -10.317544      -280.7546
   5   2.0000     -10.315550      -280.7004
   6   2.0000     -10.298669      -280.2410
   7   2.0000     -10.296415      -280.1797
   8   2.0000     -10.292265      -280.0668
   9   2.0000     -10.291679      -280.0508
  10   2.0000     -10.288631      -279.9679
  11   2.0000     -10.285263      -279.8762
  12   2.0000     -10.284574      -279.8575
  13   2.0000     -10.281866      -279.7838
  14   2.0000     -10.276715      -279.6436
  15   2.0000     -10.269802      -279.4555
  16   2.0000      -8.077907      -219.8110
  17   2.0000      -8.073390      -219.6881
  18   2.0000      -6.036412      -164.2591
  19   2.0000      -6.032744      -164.1593
  20   2.0000      -6.031983      -164.1386
  21   2.0000      -6.028581      -164.0460
  22   2.0000      -6.028060      -164.0318
  23   2.0000      -6.023934      -163.9196
  24   2.0000      -1.007969       -27.4282
  25   2.0000      -0.980632       -26.6843
  26   2.0000      -0.913801       -24.8658
  27   2.0000      -0.911532       -24.8040
  28   2.0000      -0.873188       -23.7607
  29   2.0000      -0.855275       -23.2732
  30   2.0000      -0.846621       -23.0377
  31   2.0000      -0.819977       -22.3127
  32   2.0000      -0.782669       -21.2975
  33   2.0000      -0.763807       -20.7842
  34   2.0000      -0.715813       -19.4783
  35   2.0000      -0.704360       -19.1666
  36   2.0000      -0.695464       -18.9245
  37   2.0000      -0.663577       -18.0568
  38   2.0000      -0.639373       -17.3982
  39   2.0000      -0.625565       -17.0225
  40   2.0000      -0.599251       -16.3065
  41   2.0000      -0.570215       -15.5163
  42   2.0000      -0.565936       -15.3999
  43   2.0000      -0.556525       -15.1438
  44   2.0000      -0.531663       -14.4673
  45   2.0000      -0.526307       -14.3215
  46   2.0000      -0.516815       -14.0632
  47   2.0000      -0.515427       -14.0255
  48   2.0000      -0.506371       -13.7790
  49   2.0000      -0.496935       -13.5223
  50   2.0000      -0.491883       -13.3848
  51   2.0000      -0.480605       -13.0779
  52   2.0000      -0.472225       -12.8499
  53   2.0000      -0.463155       -12.6031
  54   2.0000      -0.456146       -12.4124
  55   2.0000      -0.451193       -12.2776
  56   2.0000      -0.445220       -12.1151
  57   2.0000      -0.439101       -11.9485
  58   2.0000      -0.434158       -11.8141
  59   2.0000      -0.428090       -11.6489
  60   2.0000      -0.424203       -11.5432
  61   2.0000      -0.411505       -11.1976
  62   2.0000      -0.407456       -11.0874
  63   2.0000      -0.354457        -9.6453
  64   2.0000      -0.329383        -8.9630
  65   2.0000      -0.326961        -8.8971
  66   2.0000      -0.284392        -7.7387
  67   0.0000       0.027553         0.7498
  68   0.0000       0.071471         1.9448
  69   0.0000       0.107972         2.9381
  70   0.0000       0.121577         3.3083
  71   0.0000       0.133810         3.6412

MULLIKEN ATOMIC CHARGES
-----------------------
   0 S :    0.100468
   1 C :   -0.151586
   2 C :   -0.082948
   3 C :    0.002089
   4 C :   -0.143978
   5 H :    0.038844
   6 C :    0.055819
   7 H :    0.019497
   8 H :    0.050345
   9 C :   -0.097559
  10 H :    0.026352
  11 H :    0.027627
  12 C :   -0.005563
  13 H :    0.029666
  14 H :    0.039438
  15 H :    0.014273
  16 S :    0.079111
  17 C :   -0.107941
  18 C :   -0.004950
  19 C :   -0.032815
  20 C :   -0.146486
  21 H :    0.018340
  22 C :    0.078099
  23 H :    0.028592
  24 H :    0.005041
  25 C :   -0.072877
  26 H :    0.022539
  27 H :    0.009269
  28 C :    0.008659
  29 H :    0.022657
  30 H :    0.024192
  31 H :    0.023939
  32 H :    0.066495
  33 H :    0.055356
Sum of atomic charges:    0.0000000

LOEWDIN ATOMIC CHARGES
----------------------
   0 S :    0.366246
   1 C :   -0.207685
   2 C :   -0.063872
   3 C :   -0.066669
   4 C :   -0.163327
   5 H :    0.038910
   6 C :   -0.033361
   7 H :    0.030285
   8 H :    0.038042
   9 C :   -0.037236
  10 H :    0.026034
  11 H :    0.018989
  12 C :   -0.061619
  13 H :    0.025613
  14 H :    0.026009
  15 H :    0.025686
  16 S :    0.364855
  17 C :   -0.156652
  18 C :   -0.072630
  19 C :   -0.056713
  20 C :   -0.185927
  21 H :    0.032361
  22 C :   -0.035955
  23 H :    0.032825
  24 H :    0.029747
  25 C :   -0.031826
  26 H :    0.023024
  27 H :    0.018528
  28 C :   -0.054565
  29 H :    0.020871
  30 H :    0.027580
  31 H :    0.022665
  32 H :    0.035403
  33 H :    0.024367

  Mayer bond orders larger than 0.100000
B(  0-S ,  1-C ) :   1.1180 B(  0-S ,  4-C ) :   1.1219 B(  1-C ,  2-C ) :   1.6090
B(  1-C , 32-H ) :   0.9629 B(  2-C ,  3-C ) :   1.2178 B(  2-C ,  6-C ) :   1.0402
B(  3-C ,  4-C ) :   1.6117 B(  3-C ,  5-H ) :   0.9777 B(  4-C , 20-C ) :   1.0722
B(  6-C ,  7-H ) :   0.9434 B(  6-C ,  8-H ) :   0.9282 B(  6-C ,  9-C ) :   1.0573
B(  9-C , 10-H ) :   0.9550 B(  9-C , 11-H ) :   0.9560 B(  9-C , 12-C ) :   1.0789
B( 12-C , 13-H ) :   0.9736 B( 12-C , 14-H ) :   0.9763 B( 12-C , 15-H ) :   0.9710
B( 16-S , 17-C ) :   1.1304 B( 16-S , 20-C ) :   1.1113 B( 17-C , 18-C ) :   1.6549
B( 17-C , 33-H ) :   0.9703 B( 18-C , 19-C ) :   1.1796 B( 18-C , 21-H ) :   0.9905
B( 19-C , 20-C ) :   1.6304 B( 19-C , 22-C ) :   1.0781 B( 22-C , 23-H ) :   0.9214
B( 22-C , 24-H ) :   0.9196 B( 22-C , 25-C ) :   1.0591 B( 25-C , 26-H ) :   0.9540
B( 25-C , 27-H ) :   0.9539 B( 25-C , 28-C ) :   1.0859 B( 28-C , 29-H ) :   0.9739
B( 28-C , 30-H ) :   0.9701 B( 28-C , 31-H ) :   0.9740

Dispersion correction           -0.014061571
FINAL SINGLE POINT ENERGY     -1339.869476151318

DIPOLE MOMENT
-------------
                                X             Y             Z
Electronic contribution:     20.69285      -8.94855      12.06403
Nuclear contribution   :    -21.00085       9.15911     -12.47820
                        -----------------------------------------
Total Dipole Moment    :     -0.30800       0.21057      -0.41418
                        -----------------------------------------
Magnitude (a.u.)       :      0.55745
Magnitude (Debye)      :      1.41692

Rotational constants in cm-1:     0.017538     0.008611     0.007229
Rotational constants in MHz :   525.762549   258.146469   216.733625

                             ****ORCA TERMINATED NORMALLY****
TOTAL RUN TIME: 0 days 0 hours 0 minutes 35 seconds 554 msec
