                         Program Version 4.2.1 -  RELEASE  -
|  1> ! wB97X-D3 SP def2-SVP
|  2> %pal
|  3> nprocs 16
|  4> end
|  5>
|  6> * xyz 0 1
|  7> S 	 -2.3674 	 75.5353 	 57.947
|  8> C 	 -1.66844 	 74.135 	 58.7376
|  9> C 	 -2.13345 	 72.9314 	 58.3343
| 10> C 	 -3.0439 	 73.0752 	 57.2212
| 11> C 	 -3.19332 	 74.4012 	 56.8233
| 12> H 	 -3.61958 	 72.2326 	 56.8848
| 13> C 	 -1.73903 	 71.5639 	 58.926
| 14> H 	 -2.4553 	 70.875 	 58.4887
| 15> H 	 -1.94975 	 71.554 	 60.0113
| 16> C 	 -0.32952 	 71.1039 	 58.6012
| 17> H 	 -0.0940717 	 71.2515 	 57.5489
| 18> H 	 0.38432 	 71.6847 	 59.2136
| 19> C 	 -0.11039 	 69.6181 	 59.0141
| 20> H 	 0.921737 	 69.3003 	 59.0616
| 21> H 	 -0.468493 	 69.3921 	 59.9995
| 22> H 	 -0.571644 	 69.0328 	 58.2197
| 23> S 	 -5.25157 	 75.9825 	 56.1149
| 24> C 	 -5.74676 	 76.1394 	 54.475
| 25> C 	 -5.1396 	 75.2416 	 53.6433
| 26> C 	 -4.22115 	 74.4122 	 54.4066
| 27> C 	 -3.96879 	 74.8713 	 55.7128
| 28> H 	 -5.43482 	 75.1833 	 52.5634
| 29> C 	 -3.38749 	 73.4183 	 53.6384
| 30> H 	 -3.91197 	 72.9453 	 52.8602
| 31> H 	 -3.21471 	 72.7454 	 54.4539
| 32> C 	 -2.06308 	 73.8733 	 53.1163
| 33> H 	 -2.22523 	 74.5614 	 52.3387
| 34> H 	 -1.54959 	 73.0047 	 52.6831
| 35> C 	 -0.90898 	 74.4313 	 54.0166
| 36> H 	 -0.77785 	 73.8677 	 54.971
| 37> H 	 -1.08407 	 75.4782 	 54.2623
| 38> H 	 0.019964 	 74.3637 	 53.4007
| 39> H 	 -0.852058 	 74.3255 	 59.4198
| 40> H 	 -6.57622 	 76.7124 	 54.1172
| 41> *
| 42>
| 43>                          ****END OF INPUT****

CARTESIAN COORDINATES (ANGSTROEM)
---------------------------------
  S     -2.367400   75.535300   57.947000
  C     -1.668440   74.135000   58.737600
  C     -2.133450   72.931400   58.334300
  C     -3.043900   73.075200   57.221200
  C     -3.193320   74.401200   56.823300
  H     -3.619580   72.232600   56.884800
  C     -1.739030   71.563900   58.926000
  H     -2.455300   70.875000   58.488700
  H     -1.949750   71.554000   60.011300
  C     -0.329520   71.103900   58.601200
  H     -0.094072   71.251500   57.548900
  H      0.384320   71.684700   59.213600
  C     -0.110390   69.618100   59.014100
  H      0.921737   69.300300   59.061600
  H     -0.468493   69.392100   59.999500
  H     -0.571644   69.032800   58.219700
  S     -5.251570   75.982500   56.114900
  C     -5.746760   76.139400   54.475000
  C     -5.139600   75.241600   53.643300
  C     -4.221150   74.412200   54.406600
  C     -3.968790   74.871300   55.712800
  H     -5.434820   75.183300   52.563400
  C     -3.387490   73.418300   53.638400
  H     -3.911970   72.945300   52.860200
  H     -3.214710   72.745400   54.453900
  C     -2.063080   73.873300   53.116300
  H     -2.225230   74.561400   52.338700
  H     -1.549590   73.004700   52.683100
  C     -0.908980   74.431300   54.016600
  H     -0.777850   73.867700   54.971000
  H     -1.084070   75.478200   54.262300
  H      0.019964   74.363700   53.400700
  H     -0.852058   74.325500   59.419800
  H     -6.576220   76.712400   54.117200

 Total Charge           Charge          ....    0
 Multiplicity           Mult            ....    1
 Number of Electrons    NEL             ....  134
 Basis Dimension        Dim             ....  322

ORBITAL ENERGIES
----------------

  NO   OCC          E(Eh)            E(eV)
   0   2.0000     -88.968302     -2420.9506
   1   2.0000     -88.960925     -2420.7498
   2   2.0000     -10.334807      -281.2244
   3   2.0000     -10.324684      -280.9489
   4   2.0000     -10.311447      -280.5887
   5   2.0000     -10.309412      -280.5334
   6   2.0000     -10.304622      -280.4030
   7   2.0000     -10.300489      -280.2906
   8   2.0000     -10.298312      -280.2313
   9   2.0000     -10.296516      -280.1824
  10   2.0000     -10.294244      -280.1206
  11   2.0000     -10.291031      -280.0332
  12   2.0000     -10.278025      -279.6793
  13   2.0000     -10.276662      -279.6422
  14   2.0000     -10.275693      -279.6158
  15   2.0000     -10.275560      -279.6122
  16   2.0000      -8.082536      -219.9370
  17   2.0000      -8.076574      -219.7747
  18   2.0000      -6.041039      -164.3850
  19   2.0000      -6.037329      -164.2841
  20   2.0000      -6.035031      -164.2215
  21   2.0000      -6.033112      -164.1693
  22   2.0000      -6.030995      -164.1117
  23   2.0000      -6.027274      -164.0105
  24   2.0000      -1.006809       -27.3967
  25   2.0000      -0.983239       -26.7553
  26   2.0000      -0.911698       -24.8086
  27   2.0000      -0.908727       -24.7277
  28   2.0000      -0.872807       -23.7503
  29   2.0000      -0.850535       -23.1442
  30   2.0000      -0.840331       -22.8666
  31   2.0000      -0.813339       -22.1321
  32   2.0000      -0.783436       -21.3184
  33   2.0000      -0.772160       -21.0115
  34   2.0000      -0.707602       -19.2548
  35   2.0000      -0.703449       -19.1418
  36   2.0000      -0.688345       -18.7308
  37   2.0000      -0.659201       -17.9378
  38   2.0000      -0.639697       -17.4070
  39   2.0000      -0.621309       -16.9067
  40   2.0000      -0.588043       -16.0015
  41   2.0000      -0.571461       -15.5503
  42   2.0000      -0.565282       -15.3821
  43   2.0000      -0.550720       -14.9859
  44   2.0000      -0.543322       -14.7845
  45   2.0000      -0.522444       -14.2164
  46   2.0000      -0.518222       -14.1015
  47   2.0000      -0.512352       -13.9418
  48   2.0000      -0.506281       -13.7766
  49   2.0000      -0.497659       -13.5420
  50   2.0000      -0.491374       -13.3710
  51   2.0000      -0.474467       -12.9109
  52   2.0000      -0.470729       -12.8092
  53   2.0000      -0.466815       -12.7027
  54   2.0000      -0.454901       -12.3785
  55   2.0000      -0.447172       -12.1682
  56   2.0000      -0.443402       -12.0656
  57   2.0000      -0.438719       -11.9381
  58   2.0000      -0.432244       -11.7619
  59   2.0000      -0.426857       -11.6154
  60   2.0000      -0.417057       -11.3487
  61   2.0000      -0.415958       -11.3188
  62   2.0000      -0.397586       -10.8189
  63   2.0000      -0.350606        -9.5405
  64   2.0000      -0.334308        -9.0970
  65   2.0000      -0.325396        -8.8545
  66   2.0000      -0.287574        -7.8253
  67   0.0000       0.024450         0.6653
  68   0.0000       0.066789         1.8174
  69   0.0000       0.104502         2.8437
  70   0.0000       0.117107         3.1866
  71   0.0000       0.135419         3.6849

MULLIKEN ATOMIC CHARGES
-----------------------
   0 S :    0.109672
   1 C :   -0.137812
   2 C :   -0.080913
   3 C :    0.020700
   4 C :   -0.152555
   5 H :    0.024191
   6 C :    0.076834
   7 H :    0.006787
   8 H :    0.041619
   9 C :   -0.076549
  10 H :    0.037495
  11 H :    0.029528
  12 C :   -0.042354
  13 H :    0.028264
  14 H :    0.026783
  15 H :    0.034890
  16 S :    0.098550
  17 C :   -0.064059
  18 C :   -0.062662
  19 C :   -0.080017
  20 C :   -0.130782
  21 H :    0.041105
  22 C :    0.140355
  23 H :    0.009288
  24 H :   -0.008761
  25 C :   -0.062503
  26 H :    0.009296
  27 H :    0.023241
  28 C :   -0.074708
  29 H :    0.044367
  30 H :    0.039261
  31 H :    0.037597
  32 H :    0.048060
  33 H :    0.045792
Sum of atomic charges:    0.0000000

LOEWDIN ATOMIC CHARGES
----------------------
   0 S :    0.384902
   1 C :   -0.185126
   2 C :   -0.065444
   3 C :   -0.056399
   4 C :   -0.180143
   5 H :    0.031564
   6 C :   -0.029461
   7 H :    0.025360
   8 H :    0.036044
   9 C :   -0.037743
  10 H :    0.026335
  11 H :    0.023574
  12 C :   -0.064200
  13 H :    0.024852
  14 H :    0.022218
  15 H :    0.026141
  16 S :    0.417427
  17 C :   -0.190133
  18 C :   -0.081452
  19 C :   -0.050001
  20 C :   -0.206844
  21 H :    0.043195
  22 C :   -0.034452
  23 H :    0.026976
  24 H :    0.025859
  25 C :   -0.037615
  26 H :    0.014658
  27 H :    0.026816
  28 C :   -0.068251
  29 H :    0.028610
  30 H :    0.022490
  31 H :    0.031063
  32 H :    0.023407
  33 H :    0.025776

  Mayer bond orders larger than 0.100000
B(  0-S ,  1-C ) :   1.1272 B(  0-S ,  4-C ) :   1.1360 B(  1-C ,  2-C ) :   1.6452
B(  1-C , 32-H ) :   0.9692 B(  2-C ,  3-C ) :   1.2317 B(  2-C ,  6-C ) :   1.0082
B(  3-C ,  4-C ) :   1.5805 B(  3-C ,  5-H ) :   0.9872 B(  4-C , 20-C ) :   1.0552
B(  6-C ,  7-H ) :   0.9404 B(  6-C ,  8-H ) :   0.9372 B(  6-C ,  9-C ) :   1.0658
B(  9-C , 10-H ) :   0.9601 B(  9-C , 11-H ) :   0.9552 B(  9-C , 12-C ) :   1.0780
B( 12-C , 13-H ) :   0.9758 B( 12-C , 14-H ) :   0.9742 B( 12-C , 15-H ) :   0.9781
B( 16-S , 17-C ) :   1.1633 B( 16-S , 20-C ) :   1.1403 B( 17-C , 18-C ) :   1.6172
B( 17-C , 33-H ) :   0.9658 B( 18-C , 19-C ) :   1.2211 B( 18-C , 21-H ) :   0.9858
B( 19-C , 20-C ) :   1.5741 B( 19-C , 22-C ) :   1.0520 B( 22-C , 23-H ) :   0.9267
B( 22-C , 24-H ) :   0.9172 B( 22-C , 25-C ) :   1.0894 B( 25-C , 26-H ) :   0.9520
B( 25-C , 27-H ) :   0.9549 B( 25-C , 28-C ) :   1.0767 B( 28-C , 29-H ) :   0.9735
B( 28-C , 30-H ) :   0.9749 B( 28-C , 31-H ) :   0.9751

Dispersion correction           -0.015019774
FINAL SINGLE POINT ENERGY     -1339.869662636660

DIPOLE MOMENT
-------------
                                X             Y             Z
Electronic contribution:    -17.73396      22.01946       4.31560
Nuclear contribution   :     17.90621     -22.65127      -4.48008
                        -----------------------------------------
Total Dipole Moment    :      0.17225      -0.63180      -0.16448
                        -----------------------------------------
Magnitude (a.u.)       :      0.67520
Magnitude (Debye)      :      1.71623

Rotational constants in cm-1:     0.021592     0.008245     0.006986
Rotational constants in MHz :   647.317019   247.185135   209.421867

                             ****ORCA TERMINATED NORMALLY****
TOTAL RUN TIME: 0 days 0 hours 0 minutes 35 seconds 468 msec
