                         Program Version 4.2.1 -  RELEASE  -
|  1> ! wB97X-D3 SP def2-SVP
|  2> %pal
|  3> nprocs 16
|  4> end
|  5>
|  6> * xyz 0 1
|  7> S 	 -0.774042 	 -9.98728 	 66.2737
|  8> C 	 -2.51475 	 -9.46962 	 66.4673
|  9> C 	 -3.19602 	 -10.1982 	 67.4076
| 10> C 	 -2.46483 	 -11.3114 	 67.7422
| 11> C 	 -1.1591 	 -11.4345 	 67.2814
| 12> H 	 -2.67777 	 -12.0231 	 68.5542
| 13> C 	 -4.58254 	 -9.9481 	 67.9753
| 14> H 	 -4.97317 	 -10.8191 	 68.5438
| 15> H 	 -5.32372 	 -9.8244 	 67.0791
| 16> C 	 -4.59977 	 -8.72862 	 68.9366
| 17> H 	 -4.06419 	 -7.90501 	 68.4763
| 18> H 	 -5.60473 	 -8.33338 	 69.1682
| 19> C 	 -3.90656 	 -9.03951 	 70.2526
| 20> H 	 -4.20042 	 -10.0413 	 70.7252
| 21> H 	 -2.82977 	 -9.07541 	 69.8971
| 22> H 	 -4.05545 	 -8.15028 	 70.8893
| 23> S 	 1.28533 	 -12.1349 	 68.1442
| 24> C 	 1.83831 	 -13.7393 	 67.9521
| 25> C 	 0.813048 	 -14.5909 	 67.6381
| 26> C 	 -0.419514 	 -13.8967 	 67.4314
| 27> C 	 -0.228032 	 -12.5164 	 67.4886
| 28> H 	 0.894838 	 -15.6881 	 67.629
| 29> C 	 -1.71041 	 -14.6739 	 67.034
| 30> H 	 -1.37454 	 -15.2193 	 66.1355
| 31> H 	 -2.31938 	 -13.9349 	 66.5795
| 32> C 	 -2.40431 	 -15.607 	 68.0762
| 33> H 	 -1.5573 	 -16.1382 	 68.4965
| 34> H 	 -3.08832 	 -16.181 	 67.4855
| 35> C 	 -3.09357 	 -14.9207 	 69.2038
| 36> H 	 -2.28614 	 -14.5657 	 69.9268
| 37> H 	 -3.58344 	 -15.6318 	 69.8183
| 38> H 	 -3.75316 	 -14.1148 	 68.9146
| 39> H 	 -2.99878 	 -8.59636 	 66.0051
| 40> H 	 2.87288 	 -14.086 	 68.0602
| 41> *
| 42>
| 43>                          ****END OF INPUT****

CARTESIAN COORDINATES (ANGSTROEM)
---------------------------------
  S     -0.774042   -9.987280   66.273700
  C     -2.514750   -9.469620   66.467300
  C     -3.196020  -10.198200   67.407600
  C     -2.464830  -11.311400   67.742200
  C     -1.159100  -11.434500   67.281400
  H     -2.677770  -12.023100   68.554200
  C     -4.582540   -9.948100   67.975300
  H     -4.973170  -10.819100   68.543800
  H     -5.323720   -9.824400   67.079100
  C     -4.599770   -8.728620   68.936600
  H     -4.064190   -7.905010   68.476300
  H     -5.604730   -8.333380   69.168200
  C     -3.906560   -9.039510   70.252600
  H     -4.200420  -10.041300   70.725200
  H     -2.829770   -9.075410   69.897100
  H     -4.055450   -8.150280   70.889300
  S      1.285330  -12.134900   68.144200
  C      1.838310  -13.739300   67.952100
  C      0.813048  -14.590900   67.638100
  C     -0.419514  -13.896700   67.431400
  C     -0.228032  -12.516400   67.488600
  H      0.894838  -15.688100   67.629000
  C     -1.710410  -14.673900   67.034000
  H     -1.374540  -15.219300   66.135500
  H     -2.319380  -13.934900   66.579500
  C     -2.404310  -15.607000   68.076200
  H     -1.557300  -16.138200   68.496500
  H     -3.088320  -16.181000   67.485500
  C     -3.093570  -14.920700   69.203800
  H     -2.286140  -14.565700   69.926800
  H     -3.583440  -15.631800   69.818300
  H     -3.753160  -14.114800   68.914600
  H     -2.998780   -8.596360   66.005100
  H      2.872880  -14.086000   68.060200

 Total Charge           Charge          ....    0
 Multiplicity           Mult            ....    1
 Number of Electrons    NEL             ....  134
 Basis Dimension        Dim             ....  322

ORBITAL ENERGIES
----------------

  NO   OCC          E(Eh)            E(eV)
   0   2.0000     -88.969790     -2420.9911
   1   2.0000     -88.964578     -2420.8492
   2   2.0000     -10.330760      -281.1143
   3   2.0000     -10.321119      -280.8519
   4   2.0000     -10.320447      -280.8336
   5   2.0000     -10.312722      -280.6234
   6   2.0000     -10.306596      -280.4567
   7   2.0000     -10.302227      -280.3378
   8   2.0000     -10.299062      -280.2517
   9   2.0000     -10.291839      -280.0552
  10   2.0000     -10.289534      -279.9925
  11   2.0000     -10.288441      -279.9627
  12   2.0000     -10.287520      -279.9377
  13   2.0000     -10.287476      -279.9365
  14   2.0000     -10.285796      -279.8907
  15   2.0000     -10.277197      -279.6567
  16   2.0000      -8.082381      -219.9328
  17   2.0000      -8.081250      -219.9020
  18   2.0000      -6.041028      -164.3847
  19   2.0000      -6.039657      -164.3474
  20   2.0000      -6.037344      -164.2845
  21   2.0000      -6.035516      -164.2347
  22   2.0000      -6.032957      -164.1651
  23   2.0000      -6.031982      -164.1386
  24   2.0000      -1.013063       -27.5668
  25   2.0000      -0.985102       -26.8060
  26   2.0000      -0.911486       -24.8028
  27   2.0000      -0.909384       -24.7456
  28   2.0000      -0.871044       -23.7023
  29   2.0000      -0.854778       -23.2597
  30   2.0000      -0.843947       -22.9650
  31   2.0000      -0.811055       -22.0699
  32   2.0000      -0.783209       -21.3122
  33   2.0000      -0.771410       -20.9911
  34   2.0000      -0.707913       -19.2633
  35   2.0000      -0.698476       -19.0065
  36   2.0000      -0.688875       -18.7452
  37   2.0000      -0.657892       -17.9022
  38   2.0000      -0.635613       -17.2959
  39   2.0000      -0.611773       -16.6472
  40   2.0000      -0.596923       -16.2431
  41   2.0000      -0.577232       -15.7073
  42   2.0000      -0.554734       -15.0951
  43   2.0000      -0.553504       -15.0616
  44   2.0000      -0.547979       -14.9113
  45   2.0000      -0.535444       -14.5702
  46   2.0000      -0.518548       -14.1104
  47   2.0000      -0.509423       -13.8621
  48   2.0000      -0.500054       -13.6072
  49   2.0000      -0.495327       -13.4785
  50   2.0000      -0.486457       -13.2372
  51   2.0000      -0.476179       -12.9575
  52   2.0000      -0.467083       -12.7100
  53   2.0000      -0.460500       -12.5308
  54   2.0000      -0.460148       -12.5213
  55   2.0000      -0.445935       -12.1345
  56   2.0000      -0.442847       -12.0505
  57   2.0000      -0.436774       -11.8852
  58   2.0000      -0.434191       -11.8149
  59   2.0000      -0.426269       -11.5994
  60   2.0000      -0.421630       -11.4731
  61   2.0000      -0.413675       -11.2567
  62   2.0000      -0.409904       -11.1541
  63   2.0000      -0.344660        -9.3787
  64   2.0000      -0.337235        -9.1766
  65   2.0000      -0.328327        -8.9342
  66   2.0000      -0.288494        -7.8503
  67   0.0000       0.023342         0.6352
  68   0.0000       0.065875         1.7925
  69   0.0000       0.102911         2.8003
  70   0.0000       0.116339         3.1657
  71   0.0000       0.126315         3.4372

MULLIKEN ATOMIC CHARGES
-----------------------
   0 S :    0.103629
   1 C :   -0.131580
   2 C :   -0.065878
   3 C :    0.017440
   4 C :   -0.166678
   5 H :    0.014766
   6 C :    0.030036
   7 H :    0.031018
   8 H :    0.054372
   9 C :   -0.069465
  10 H :    0.025056
  11 H :    0.029572
  12 C :   -0.099541
  13 H :    0.049221
  14 H :    0.055493
  15 H :    0.047471
  16 S :    0.125375
  17 C :   -0.088698
  18 C :   -0.046955
  19 C :   -0.064104
  20 C :   -0.166206
  21 H :    0.026467
  22 C :    0.046595
  23 H :    0.030444
  24 H :    0.008262
  25 C :   -0.019916
  26 H :    0.024075
  27 H :    0.032805
  28 C :   -0.045895
  29 H :    0.038514
  30 H :    0.024489
  31 H :    0.040321
  32 H :    0.048922
  33 H :    0.060568
Sum of atomic charges:   -0.0000000

LOEWDIN ATOMIC CHARGES
----------------------
   0 S :    0.358323
   1 C :   -0.170374
   2 C :   -0.075326
   3 C :   -0.067614
   4 C :   -0.178291
   5 H :    0.034445
   6 C :   -0.033481
   7 H :    0.030805
   8 H :    0.044014
   9 C :   -0.046286
  10 H :    0.022117
  11 H :    0.020359
  12 C :   -0.077050
  13 H :    0.030779
  14 H :    0.037027
  15 H :    0.030209
  16 S :    0.446933
  17 C :   -0.202649
  18 C :   -0.077267
  19 C :   -0.056840
  20 C :   -0.225812
  21 H :    0.034277
  22 C :   -0.033610
  23 H :    0.036120
  24 H :    0.020761
  25 C :   -0.031934
  26 H :    0.027339
  27 H :    0.024285
  28 C :   -0.067912
  29 H :    0.037366
  30 H :    0.023132
  31 H :    0.021446
  32 H :    0.030863
  33 H :    0.033847

  Mayer bond orders larger than 0.100000
B(  0-S ,  1-C ) :   1.1329 B(  0-S ,  4-C ) :   1.1199 B(  1-C ,  2-C ) :   1.6138
B(  1-C ,  4-C ) :   0.1141 B(  1-C , 32-H ) :   0.9580 B(  2-C ,  3-C ) :   1.2512
B(  2-C ,  6-C ) :   1.0030 B(  3-C ,  4-C ) :   1.5886 B(  3-C ,  5-H ) :   0.9790
B(  4-C , 20-C ) :   1.0472 B(  6-C ,  7-H ) :   0.9521 B(  6-C ,  8-H ) :   0.9419
B(  6-C ,  9-C ) :   1.0565 B(  9-C , 10-H ) :   0.9600 B(  9-C , 11-H ) :   0.9596
B(  9-C , 12-C ) :   1.0625 B( 12-C , 13-H ) :   0.9741 B( 12-C , 14-H ) :   0.9773
B( 12-C , 15-H ) :   0.9722 B( 16-S , 17-C ) :   1.1614 B( 16-S , 20-C ) :   1.1694
B( 17-C , 18-C ) :   1.5897 B( 17-C , 33-H ) :   0.9667 B( 18-C , 19-C ) :   1.2628
B( 18-C , 21-H ) :   0.9864 B( 19-C , 20-C ) :   1.5637 B( 19-C , 22-C ) :   1.0228
B( 22-C , 23-H ) :   0.9402 B( 22-C , 24-H ) :   0.9342 B( 22-C , 25-C ) :   1.0552
B( 25-C , 26-H ) :   0.9558 B( 25-C , 27-H ) :   0.9536 B( 25-C , 28-C ) :   1.0955
B( 28-C , 29-H ) :   0.9688 B( 28-C , 30-H ) :   0.9656 B( 28-C , 31-H ) :   0.9691

Dispersion correction           -0.015262882
FINAL SINGLE POINT ENERGY     -1339.861266688517

DIPOLE MOMENT
-------------
                                X             Y             Z
Electronic contribution:     22.62734       5.85346     -11.40537
Nuclear contribution   :    -23.13989      -6.19283      11.65071
                        -----------------------------------------
Total Dipole Moment    :     -0.51255      -0.33937       0.24534
                        -----------------------------------------
Magnitude (a.u.)       :      0.66187
Magnitude (Debye)      :      1.68234

Rotational constants in cm-1:     0.018518     0.009387     0.007419
Rotational constants in MHz :   555.159280   281.415950   222.409467

                             ****ORCA TERMINATED NORMALLY****
TOTAL RUN TIME: 0 days 0 hours 0 minutes 36 seconds 762 msec
