                         Program Version 4.2.1 -  RELEASE  -
|  1> ! wB97X-D3 SP def2-SVP
|  2> %pal
|  3> nprocs 16
|  4> end
|  5>
|  6> * xyz 0 1
|  7> S 	 -71.3865 	 50.1063 	 124.048
|  8> C 	 -70.5177 	 49.7229 	 122.592
|  9> C 	 -69.3522 	 49.1177 	 122.892
| 10> C 	 -69.0914 	 48.9853 	 124.28
| 11> C 	 -70.0866 	 49.503 	 125.105
| 12> H 	 -68.2361 	 48.5343 	 124.634
| 13> C 	 -68.3574 	 48.5146 	 121.922
| 14> H 	 -67.347 	 48.6553 	 122.228
| 15> H 	 -68.4916 	 49.0016 	 120.952
| 16> C 	 -68.5364 	 46.9906 	 121.532
| 17> H 	 -68.6068 	 46.4962 	 122.521
| 18> H 	 -69.4923 	 46.9746 	 121.018
| 19> C 	 -67.5494 	 46.3814 	 120.641
| 20> H 	 -67.8215 	 45.3426 	 120.643
| 21> H 	 -67.5309 	 46.7318 	 119.624
| 22> H 	 -66.5442 	 46.452 	 120.954
| 23> S 	 -69.7823 	 51.1605 	 127.31
| 24> C 	 -70.0705 	 50.4444 	 128.886
| 25> C 	 -70.0154 	 49.1116 	 128.883
| 26> C 	 -70.0205 	 48.618 	 127.527
| 27> C 	 -70.0463 	 49.578 	 126.546
| 28> H 	 -70.1536 	 48.5534 	 129.757
| 29> C 	 -70.2955 	 47.0687 	 127.304
| 30> H 	 -69.4568 	 46.5041 	 127.735
| 31> H 	 -70.1023 	 46.8424 	 126.236
| 32> C 	 -71.6703 	 46.497 	 127.75
| 33> H 	 -71.847 	 46.8085 	 128.811
| 34> H 	 -71.7854 	 45.4069 	 127.715
| 35> C 	 -72.8547 	 47.2579 	 127.152
| 36> H 	 -72.8654 	 47.1656 	 126.05
| 37> H 	 -73.0581 	 48.2892 	 127.466
| 38> H 	 -73.7899 	 46.7431 	 127.512
| 39> H 	 -71.023 	 49.8303 	 121.669
| 40> H 	 -70.1271 	 51.0547 	 129.758
| 41> *
| 42>
| 43>                          ****END OF INPUT****

CARTESIAN COORDINATES (ANGSTROEM)
---------------------------------
  S    -71.386500   50.106300  124.048000
  C    -70.517700   49.722900  122.592000
  C    -69.352200   49.117700  122.892000
  C    -69.091400   48.985300  124.280000
  C    -70.086600   49.503000  125.105000
  H    -68.236100   48.534300  124.634000
  C    -68.357400   48.514600  121.922000
  H    -67.347000   48.655300  122.228000
  H    -68.491600   49.001600  120.952000
  C    -68.536400   46.990600  121.532000
  H    -68.606800   46.496200  122.521000
  H    -69.492300   46.974600  121.018000
  C    -67.549400   46.381400  120.641000
  H    -67.821500   45.342600  120.643000
  H    -67.530900   46.731800  119.624000
  H    -66.544200   46.452000  120.954000
  S    -69.782300   51.160500  127.310000
  C    -70.070500   50.444400  128.886000
  C    -70.015400   49.111600  128.883000
  C    -70.020500   48.618000  127.527000
  C    -70.046300   49.578000  126.546000
  H    -70.153600   48.553400  129.757000
  C    -70.295500   47.068700  127.304000
  H    -69.456800   46.504100  127.735000
  H    -70.102300   46.842400  126.236000
  C    -71.670300   46.497000  127.750000
  H    -71.847000   46.808500  128.811000
  H    -71.785400   45.406900  127.715000
  C    -72.854700   47.257900  127.152000
  H    -72.865400   47.165600  126.050000
  H    -73.058100   48.289200  127.466000
  H    -73.789900   46.743100  127.512000
  H    -71.023000   49.830300  121.669000
  H    -70.127100   51.054700  129.758000

 Total Charge           Charge          ....    0
 Multiplicity           Mult            ....    1
 Number of Electrons    NEL             ....  134
 Basis Dimension        Dim             ....  322

ORBITAL ENERGIES
----------------

  NO   OCC          E(Eh)            E(eV)
   0   2.0000     -88.963957     -2420.8323
   1   2.0000     -88.959594     -2420.7136
   2   2.0000     -10.331649      -281.1385
   3   2.0000     -10.326885      -281.0088
   4   2.0000     -10.313032      -280.6319
   5   2.0000     -10.311597      -280.5928
   6   2.0000     -10.308597      -280.5112
   7   2.0000     -10.296393      -280.1791
   8   2.0000     -10.296146      -280.1724
   9   2.0000     -10.291871      -280.0560
  10   2.0000     -10.288821      -279.9731
  11   2.0000     -10.287961      -279.9497
  12   2.0000     -10.286379      -279.9066
  13   2.0000     -10.285068      -279.8709
  14   2.0000     -10.275756      -279.6175
  15   2.0000     -10.270123      -279.4643
  16   2.0000      -8.078571      -219.8291
  17   2.0000      -8.074606      -219.7212
  18   2.0000      -6.037134      -164.2788
  19   2.0000      -6.033201      -164.1718
  20   2.0000      -6.032986      -164.1659
  21   2.0000      -6.029377      -164.0677
  22   2.0000      -6.029281      -164.0651
  23   2.0000      -6.025047      -163.9499
  24   2.0000      -1.006311       -27.3831
  25   2.0000      -0.987435       -26.8695
  26   2.0000      -0.911953       -24.8155
  27   2.0000      -0.896975       -24.4079
  28   2.0000      -0.878486       -23.9048
  29   2.0000      -0.854979       -23.2652
  30   2.0000      -0.841165       -22.8893
  31   2.0000      -0.819351       -22.2957
  32   2.0000      -0.782716       -21.2988
  33   2.0000      -0.771392       -20.9906
  34   2.0000      -0.708871       -19.2894
  35   2.0000      -0.696634       -18.9564
  36   2.0000      -0.688759       -18.7421
  37   2.0000      -0.661529       -18.0011
  38   2.0000      -0.652211       -17.7476
  39   2.0000      -0.622067       -16.9273
  40   2.0000      -0.595976       -16.2173
  41   2.0000      -0.575245       -15.6532
  42   2.0000      -0.567544       -15.4437
  43   2.0000      -0.545401       -14.8411
  44   2.0000      -0.540232       -14.7005
  45   2.0000      -0.529103       -14.3976
  46   2.0000      -0.521352       -14.1867
  47   2.0000      -0.518960       -14.1216
  48   2.0000      -0.505585       -13.7577
  49   2.0000      -0.502414       -13.6714
  50   2.0000      -0.490589       -13.3496
  51   2.0000      -0.477795       -13.0015
  52   2.0000      -0.472398       -12.8546
  53   2.0000      -0.468417       -12.7463
  54   2.0000      -0.454442       -12.3660
  55   2.0000      -0.452714       -12.3190
  56   2.0000      -0.449276       -12.2254
  57   2.0000      -0.425768       -11.5857
  58   2.0000      -0.423819       -11.5327
  59   2.0000      -0.421331       -11.4650
  60   2.0000      -0.416761       -11.3406
  61   2.0000      -0.410710       -11.1760
  62   2.0000      -0.398873       -10.8539
  63   2.0000      -0.340740        -9.2720
  64   2.0000      -0.329943        -8.9782
  65   2.0000      -0.327223        -8.9042
  66   2.0000      -0.306849        -8.3498
  67   0.0000       0.033974         0.9245
  68   0.0000       0.064495         1.7550
  69   0.0000       0.111229         3.0267
  70   0.0000       0.124989         3.4011
  71   0.0000       0.131229         3.5709

MULLIKEN ATOMIC CHARGES
-----------------------
   0 S :    0.103522
   1 C :   -0.123874
   2 C :   -0.048152
   3 C :    0.079443
   4 C :   -0.164581
   5 H :   -0.021189
   6 C :    0.054360
   7 H :    0.014275
   8 H :    0.010572
   9 C :   -0.090579
  10 H :    0.027441
  11 H :    0.022781
  12 C :    0.009321
  13 H :    0.032961
  14 H :    0.025391
  15 H :    0.014416
  16 S :    0.092457
  17 C :   -0.075115
  18 C :    0.001328
  19 C :   -0.038819
  20 C :   -0.159537
  21 H :    0.006947
  22 C :    0.063727
  23 H :    0.025746
  24 H :    0.020941
  25 C :   -0.069005
  26 H :    0.025244
  27 H :    0.046301
  28 C :   -0.082665
  29 H :    0.034849
  30 H :    0.048226
  31 H :    0.025042
  32 H :    0.041634
  33 H :    0.046590
Sum of atomic charges:    0.0000000

LOEWDIN ATOMIC CHARGES
----------------------
   0 S :    0.401320
   1 C :   -0.182857
   2 C :   -0.069306
   3 C :   -0.040730
   4 C :   -0.188933
   5 H :    0.018064
   6 C :   -0.032346
   7 H :    0.020579
   8 H :    0.026184
   9 C :   -0.039453
  10 H :    0.023831
  11 H :    0.024192
  12 C :   -0.061520
  13 H :    0.034278
  14 H :    0.025542
  15 H :    0.018798
  16 S :    0.379952
  17 C :   -0.158532
  18 C :   -0.067287
  19 C :   -0.045778
  20 C :   -0.192630
  21 H :    0.026831
  22 C :   -0.038105
  23 H :    0.029983
  24 H :    0.027413
  25 C :   -0.048788
  26 H :    0.028110
  27 H :    0.030374
  28 C :   -0.074444
  29 H :    0.021478
  30 H :    0.028887
  31 H :    0.029292
  32 H :    0.023303
  33 H :    0.022295

  Mayer bond orders larger than 0.100000
B(  0-S ,  1-C ) :   1.1448 B(  0-S ,  4-C ) :   1.1466 B(  1-C ,  2-C ) :   1.5953
B(  1-C , 32-H ) :   0.9795 B(  2-C ,  3-C ) :   1.2513 B(  2-C ,  6-C ) :   1.0343
B(  3-C ,  4-C ) :   1.5548 B(  3-C ,  5-H ) :   1.0107 B(  4-C , 20-C ) :   1.0471
B(  6-C ,  7-H ) :   0.9423 B(  6-C ,  8-H ) :   0.9408 B(  6-C ,  9-C ) :   1.0573
B(  9-C , 10-H ) :   0.9568 B(  9-C , 11-H ) :   0.9544 B(  9-C , 12-C ) :   1.0966
B( 12-C , 13-H ) :   0.9659 B( 12-C , 14-H ) :   0.9694 B( 12-C , 15-H ) :   0.9695
B( 16-S , 17-C ) :   1.1426 B( 16-S , 20-C ) :   1.1179 B( 17-C , 18-C ) :   1.6477
B( 17-C , 33-H ) :   0.9684 B( 18-C , 19-C ) :   1.1902 B( 18-C , 21-H ) :   1.0034
B( 19-C , 20-C ) :   1.6523 B( 19-C , 22-C ) :   1.0323 B( 22-C , 23-H ) :   0.9380
B( 22-C , 24-H ) :   0.9391 B( 22-C , 25-C ) :   1.0604 B( 25-C , 26-H ) :   0.9563
B( 25-C , 27-H ) :   0.9587 B( 25-C , 28-C ) :   1.0661 B( 28-C , 29-H ) :   0.9773
B( 28-C , 30-H ) :   0.9751 B( 28-C , 31-H ) :   0.9719

Dispersion correction           -0.014701796
FINAL SINGLE POINT ENERGY     -1339.868347356529

DIPOLE MOMENT
-------------
                                X             Y             Z
Electronic contribution:     -2.63959      23.04286       9.44123
Nuclear contribution   :      2.81052     -23.67218      -9.50235
                        -----------------------------------------
Total Dipole Moment    :      0.17093      -0.62932      -0.06112
                        -----------------------------------------
Magnitude (a.u.)       :      0.65498
Magnitude (Debye)      :      1.66483

Rotational constants in cm-1:     0.020216     0.007813     0.006985
Rotational constants in MHz :   606.052478   234.237519   209.415857

                             ****ORCA TERMINATED NORMALLY****
TOTAL RUN TIME: 0 days 0 hours 0 minutes 33 seconds 973 msec
