                         Program Version 4.2.1 -  RELEASE  -
|  1> ! wB97X-D3 SP def2-SVP
|  2> %pal
|  3> nprocs 16
|  4> end
|  5>
|  6> * xyz 0 1
|  7> S 	 6.39565 	 -11.1607 	 63.8364
|  8> C 	 6.10755 	 -10.4806 	 62.2301
|  9> C 	 5.66709 	 -9.20193 	 62.4363
| 10> C 	 6.01436 	 -8.69772 	 63.7731
| 11> C 	 6.59503 	 -9.61483 	 64.5845
| 12> H 	 5.94447 	 -7.71568 	 64.195
| 13> C 	 5.03467 	 -8.42395 	 61.3524
| 14> H 	 4.12357 	 -8.11205 	 61.8147
| 15> H 	 4.84836 	 -9.12556 	 60.5822
| 16> C 	 5.74818 	 -7.25413 	 60.6559
| 17> H 	 6.61106 	 -7.60465 	 60.1141
| 18> H 	 5.01391 	 -6.88271 	 59.995
| 19> C 	 6.22884 	 -6.11486 	 61.5457
| 20> H 	 6.72105 	 -5.28924 	 60.9971
| 21> H 	 5.47868 	 -5.72356 	 62.2994
| 22> H 	 7.00456 	 -6.34632 	 62.2175
| 23> S 	 8.00297 	 -7.81621 	 65.9855
| 24> C 	 8.32156 	 -8.10849 	 67.7306
| 25> C 	 7.64867 	 -9.27061 	 68.1394
| 26> C 	 7.13474 	 -10.0281 	 67.0678
| 27> C 	 7.15673 	 -9.33331 	 65.847
| 28> H 	 7.54905 	 -9.48374 	 69.1815
| 29> C 	 6.40662 	 -11.4068 	 67.3214
| 30> H 	 5.54164 	 -11.396 	 66.5634
| 31> H 	 6.0768 	 -11.5306 	 68.3151
| 32> C 	 7.3132 	 -12.635 	 67.0897
| 33> H 	 8.30292 	 -12.6321 	 67.66
| 34> H 	 7.50297 	 -12.5128 	 66.0062
| 35> C 	 6.56015 	 -13.934 	 67.4068
| 36> H 	 6.36905 	 -14.0337 	 68.4976
| 37> H 	 7.21534 	 -14.7438 	 67.2312
| 38> H 	 5.62299 	 -14.0795 	 66.8743
| 39> H 	 5.834 	 -11.0812 	 61.3766
| 40> H 	 8.71615 	 -7.30977 	 68.4245
| 41> *
| 42>
| 43>                          ****END OF INPUT****

CARTESIAN COORDINATES (ANGSTROEM)
---------------------------------
  S      6.395650  -11.160700   63.836400
  C      6.107550  -10.480600   62.230100
  C      5.667090   -9.201930   62.436300
  C      6.014360   -8.697720   63.773100
  C      6.595030   -9.614830   64.584500
  H      5.944470   -7.715680   64.195000
  C      5.034670   -8.423950   61.352400
  H      4.123570   -8.112050   61.814700
  H      4.848360   -9.125560   60.582200
  C      5.748180   -7.254130   60.655900
  H      6.611060   -7.604650   60.114100
  H      5.013910   -6.882710   59.995000
  C      6.228840   -6.114860   61.545700
  H      6.721050   -5.289240   60.997100
  H      5.478680   -5.723560   62.299400
  H      7.004560   -6.346320   62.217500
  S      8.002970   -7.816210   65.985500
  C      8.321560   -8.108490   67.730600
  C      7.648670   -9.270610   68.139400
  C      7.134740  -10.028100   67.067800
  C      7.156730   -9.333310   65.847000
  H      7.549050   -9.483740   69.181500
  C      6.406620  -11.406800   67.321400
  H      5.541640  -11.396000   66.563400
  H      6.076800  -11.530600   68.315100
  C      7.313200  -12.635000   67.089700
  H      8.302920  -12.632100   67.660000
  H      7.502970  -12.512800   66.006200
  C      6.560150  -13.934000   67.406800
  H      6.369050  -14.033700   68.497600
  H      7.215340  -14.743800   67.231200
  H      5.622990  -14.079500   66.874300
  H      5.834000  -11.081200   61.376600
  H      8.716150   -7.309770   68.424500

 Total Charge           Charge          ....    0
 Multiplicity           Mult            ....    1
 Number of Electrons    NEL             ....  134
 Basis Dimension        Dim             ....  322

ORBITAL ENERGIES
----------------

  NO   OCC          E(Eh)            E(eV)
   0   2.0000     -88.970734     -2421.0168
   1   2.0000     -88.959563     -2420.7128
   2   2.0000     -10.328921      -281.0642
   3   2.0000     -10.327079      -281.0141
   4   2.0000     -10.325193      -280.9628
   5   2.0000     -10.313034      -280.6319
   6   2.0000     -10.307652      -280.4855
   7   2.0000     -10.304285      -280.3939
   8   2.0000     -10.298024      -280.2235
   9   2.0000     -10.296561      -280.1837
  10   2.0000     -10.291737      -280.0524
  11   2.0000     -10.287871      -279.9472
  12   2.0000     -10.284844      -279.8648
  13   2.0000     -10.284801      -279.8637
  14   2.0000     -10.276166      -279.6287
  15   2.0000     -10.273487      -279.5558
  16   2.0000      -8.084560      -219.9921
  17   2.0000      -8.074423      -219.7162
  18   2.0000      -6.043139      -164.4422
  19   2.0000      -6.039192      -164.3348
  20   2.0000      -6.035280      -164.2283
  21   2.0000      -6.033177      -164.1711
  22   2.0000      -6.029193      -164.0627
  23   2.0000      -6.024622      -163.9383
  24   2.0000      -1.013446       -27.5773
  25   2.0000      -0.984260       -26.7831
  26   2.0000      -0.918450       -24.9923
  27   2.0000      -0.902415       -24.5560
  28   2.0000      -0.879513       -23.9328
  29   2.0000      -0.850357       -23.1394
  30   2.0000      -0.839727       -22.8501
  31   2.0000      -0.817946       -22.2574
  32   2.0000      -0.785780       -21.3821
  33   2.0000      -0.772081       -21.0094
  34   2.0000      -0.712529       -19.3889
  35   2.0000      -0.705214       -19.1898
  36   2.0000      -0.683945       -18.6111
  37   2.0000      -0.670641       -18.2491
  38   2.0000      -0.638511       -17.3748
  39   2.0000      -0.612151       -16.6575
  40   2.0000      -0.591422       -16.0934
  41   2.0000      -0.577505       -15.7147
  42   2.0000      -0.567570       -15.4444
  43   2.0000      -0.552047       -15.0220
  44   2.0000      -0.538148       -14.6438
  45   2.0000      -0.524418       -14.2701
  46   2.0000      -0.521790       -14.1986
  47   2.0000      -0.516487       -14.0543
  48   2.0000      -0.513243       -13.9660
  49   2.0000      -0.495976       -13.4962
  50   2.0000      -0.495461       -13.4822
  51   2.0000      -0.476088       -12.9550
  52   2.0000      -0.472796       -12.8654
  53   2.0000      -0.466621       -12.6974
  54   2.0000      -0.460241       -12.5238
  55   2.0000      -0.446802       -12.1581
  56   2.0000      -0.439689       -11.9645
  57   2.0000      -0.436582       -11.8800
  58   2.0000      -0.436034       -11.8651
  59   2.0000      -0.425214       -11.5707
  60   2.0000      -0.419894       -11.4259
  61   2.0000      -0.409759       -11.1501
  62   2.0000      -0.401063       -10.9135
  63   2.0000      -0.359729        -9.7887
  64   2.0000      -0.334806        -9.1105
  65   2.0000      -0.319821        -8.7028
  66   2.0000      -0.286959        -7.8086
  67   0.0000       0.016773         0.4564
  68   0.0000       0.073243         1.9930
  69   0.0000       0.087989         2.3943
  70   0.0000       0.123246         3.3537
  71   0.0000       0.128356         3.4927

MULLIKEN ATOMIC CHARGES
-----------------------
   0 S :    0.071868
   1 C :   -0.099960
   2 C :   -0.111173
   3 C :   -0.007199
   4 C :   -0.094705
   5 H :    0.003930
   6 C :    0.091011
   7 H :    0.028160
   8 H :    0.001655
   9 C :   -0.003039
  10 H :    0.027781
  11 H :    0.026868
  12 C :   -0.081761
  13 H :    0.035935
  14 H :    0.030180
  15 H :    0.018254
  16 S :    0.101991
  17 C :   -0.124427
  18 C :   -0.027026
  19 C :   -0.024898
  20 C :   -0.147233
  21 H :    0.018944
  22 C :    0.036532
  23 H :    0.047369
  24 H :    0.005460
  25 C :   -0.108445
  26 H :    0.046743
  27 H :    0.033216
  28 C :   -0.021633
  29 H :    0.025444
  30 H :    0.024235
  31 H :    0.036356
  32 H :    0.055651
  33 H :    0.083915
Sum of atomic charges:   -0.0000000

LOEWDIN ATOMIC CHARGES
----------------------
   0 S :    0.395471
   1 C :   -0.189616
   2 C :   -0.052831
   3 C :   -0.073959
   4 C :   -0.189477
   5 H :    0.020133
   6 C :   -0.029741
   7 H :    0.033922
   8 H :    0.027433
   9 C :   -0.027579
  10 H :    0.027209
  11 H :    0.023606
  12 C :   -0.079510
  13 H :    0.032006
  14 H :    0.028832
  15 H :    0.017276
  16 S :    0.406641
  17 C :   -0.190907
  18 C :   -0.061420
  19 C :   -0.054986
  20 C :   -0.193028
  21 H :    0.030711
  22 C :   -0.030024
  23 H :    0.033333
  24 H :    0.017368
  25 C :   -0.049199
  26 H :    0.033642
  27 H :    0.014400
  28 C :   -0.066312
  29 H :    0.026851
  30 H :    0.021863
  31 H :    0.026655
  32 H :    0.029112
  33 H :    0.042122

  Mayer bond orders larger than 0.100000
B(  0-S ,  1-C ) :   1.1027 B(  0-S ,  4-C ) :   1.1210 B(  1-C ,  2-C ) :   1.6389
B(  1-C , 32-H ) :   0.9667 B(  2-C ,  3-C ) :   1.1656 B(  2-C ,  6-C ) :   1.0420
B(  3-C ,  4-C ) :   1.5798 B(  3-C ,  5-H ) :   0.9997 B(  4-C , 20-C ) :   1.0971
B(  6-C ,  7-H ) :   0.9262 B(  6-C ,  8-H ) :   0.9297 B(  6-C ,  9-C ) :   1.0830
B(  9-C , 10-H ) :   0.9501 B(  9-C , 11-H ) :   0.9513 B(  9-C , 12-C ) :   1.0867
B( 12-C , 13-H ) :   0.9701 B( 12-C , 14-H ) :   0.9734 B( 12-C , 15-H ) :   0.9674
B( 16-S , 17-C ) :   1.1401 B( 16-S , 20-C ) :   1.1499 B( 17-C , 18-C ) :   1.5900
B( 17-C , 20-C ) :   0.1098 B( 17-C , 33-H ) :   0.9588 B( 18-C , 19-C ) :   1.2688
B( 18-C , 21-H ) :   0.9902 B( 19-C , 20-C ) :   1.5364 B( 19-C , 22-C ) :   1.0292
B( 22-C , 23-H ) :   0.9376 B( 22-C , 24-H ) :   0.9428 B( 22-C , 25-C ) :   1.0528
B( 25-C , 26-H ) :   0.9548 B( 25-C , 27-H ) :   0.9484 B( 25-C , 28-C ) :   1.0876
B( 28-C , 29-H ) :   0.9707 B( 28-C , 30-H ) :   0.9724 B( 28-C , 31-H ) :   0.9728

Dispersion correction           -0.014410910
FINAL SINGLE POINT ENERGY     -1339.852414483390

DIPOLE MOMENT
-------------
                                X             Y             Z
Electronic contribution:      5.66206       2.98444       4.03832
Nuclear contribution   :     -6.00707      -2.84272      -3.99821
                        -----------------------------------------
Total Dipole Moment    :     -0.34501       0.14172       0.04012
                        -----------------------------------------
Magnitude (a.u.)       :      0.37513
Magnitude (Debye)      :      0.95351

Rotational constants in cm-1:     0.020982     0.008936     0.006497
Rotational constants in MHz :   629.018599   267.908247   194.766316

                             ****ORCA TERMINATED NORMALLY****
TOTAL RUN TIME: 0 days 0 hours 0 minutes 30 seconds 180 msec
