                         Program Version 4.2.1 -  RELEASE  -
|  1> ! wB97X-D3 SP def2-SVP
|  2> %pal
|  3> nprocs 16
|  4> end
|  5>
|  6> * xyz 0 1
|  7> S 	 43.1389 	 12.8883 	 49.5406
|  8> C 	 42.8987 	 14.4525 	 50.2338
|  9> C 	 41.7052 	 14.5187 	 51.0199
| 10> C 	 41.0789 	 13.2531 	 51.0656
| 11> C 	 41.6698 	 12.2846 	 50.2593
| 12> H 	 40.2004 	 13.0535 	 51.6281
| 13> C 	 41.113 	 15.7901 	 51.6784
| 14> H 	 39.9654 	 15.6802 	 51.6036
| 15> H 	 41.3635 	 16.725 	 51.0581
| 16> C 	 41.729 	 16.0227 	 53.1136
| 17> H 	 41.6575 	 15.078 	 53.5916
| 18> H 	 42.7585 	 16.1773 	 52.9538
| 19> C 	 41.109 	 17.1199 	 53.8574
| 20> H 	 41.4492 	 18.0017 	 53.356
| 21> H 	 40.0873 	 17.1064 	 53.8193
| 22> H 	 41.4238 	 17.1146 	 54.8693
| 23> S 	 40.5406 	 10.1738 	 51.5605
| 24> C 	 40.2078 	 8.6868 	 50.7107
| 25> C 	 40.7076 	 8.68286 	 49.4214
| 26> C 	 41.2046 	 10.0193 	 49.069
| 27> C 	 41.1271 	 10.914 	 50.092
| 28> H 	 40.6263 	 7.78194 	 48.8525
| 29> C 	 41.8032 	 10.2375 	 47.6637
| 30> H 	 41.7969 	 11.2885 	 47.4411
| 31> H 	 41.2996 	 9.69538 	 46.8946
| 32> C 	 43.3223 	 9.75624 	 47.4814
| 33> H 	 43.9777 	 10.2559 	 48.2264
| 34> H 	 43.7156 	 10.0924 	 46.5412
| 35> C 	 43.53 	 8.22534 	 47.4045
| 36> H 	 43.26 	 7.80989 	 48.4055
| 37> H 	 44.5644 	 8.03352 	 47.1128
| 38> H 	 42.9941 	 7.76331 	 46.5739
| 39> H 	 43.4927 	 15.2798 	 49.8699
| 40> H 	 39.7031 	 7.88653 	 51.2239
| 41> *
| 42>
| 43>                          ****END OF INPUT****

CARTESIAN COORDINATES (ANGSTROEM)
---------------------------------
  S     43.138900   12.888300   49.540600
  C     42.898700   14.452500   50.233800
  C     41.705200   14.518700   51.019900
  C     41.078900   13.253100   51.065600
  C     41.669800   12.284600   50.259300
  H     40.200400   13.053500   51.628100
  C     41.113000   15.790100   51.678400
  H     39.965400   15.680200   51.603600
  H     41.363500   16.725000   51.058100
  C     41.729000   16.022700   53.113600
  H     41.657500   15.078000   53.591600
  H     42.758500   16.177300   52.953800
  C     41.109000   17.119900   53.857400
  H     41.449200   18.001700   53.356000
  H     40.087300   17.106400   53.819300
  H     41.423800   17.114600   54.869300
  S     40.540600   10.173800   51.560500
  C     40.207800    8.686800   50.710700
  C     40.707600    8.682860   49.421400
  C     41.204600   10.019300   49.069000
  C     41.127100   10.914000   50.092000
  H     40.626300    7.781940   48.852500
  C     41.803200   10.237500   47.663700
  H     41.796900   11.288500   47.441100
  H     41.299600    9.695380   46.894600
  C     43.322300    9.756240   47.481400
  H     43.977700   10.255900   48.226400
  H     43.715600   10.092400   46.541200
  C     43.530000    8.225340   47.404500
  H     43.260000    7.809890   48.405500
  H     44.564400    8.033520   47.112800
  H     42.994100    7.763310   46.573900
  H     43.492700   15.279800   49.869900
  H     39.703100    7.886530   51.223900

 Total Charge           Charge          ....    0
 Multiplicity           Mult            ....    1
 Number of Electrons    NEL             ....  134
 Basis Dimension        Dim             ....  322

ORBITAL ENERGIES
----------------

  NO   OCC          E(Eh)            E(eV)
   0   2.0000     -88.971937     -2421.0495
   1   2.0000     -88.962745     -2420.7994
   2   2.0000     -10.331519      -281.1349
   3   2.0000     -10.326317      -280.9934
   4   2.0000     -10.316433      -280.7244
   5   2.0000     -10.315836      -280.7082
   6   2.0000     -10.307914      -280.4926
   7   2.0000     -10.307787      -280.4891
   8   2.0000     -10.307056      -280.4692
   9   2.0000     -10.297187      -280.2007
  10   2.0000     -10.291341      -280.0416
  11   2.0000     -10.291107      -280.0353
  12   2.0000     -10.286620      -279.9132
  13   2.0000     -10.278784      -279.6999
  14   2.0000     -10.275753      -279.6175
  15   2.0000     -10.261564      -279.2314
  16   2.0000      -8.086258      -220.0383
  17   2.0000      -8.077970      -219.8127
  18   2.0000      -6.044646      -164.4832
  19   2.0000      -6.040683      -164.3754
  20   2.0000      -6.037350      -164.2847
  21   2.0000      -6.036523      -164.2622
  22   2.0000      -6.032516      -164.1531
  23   2.0000      -6.028559      -164.0454
  24   2.0000      -1.006342       -27.3840
  25   2.0000      -0.983501       -26.7624
  26   2.0000      -0.912282       -24.8245
  27   2.0000      -0.897380       -24.4189
  28   2.0000      -0.868271       -23.6269
  29   2.0000      -0.858124       -23.3507
  30   2.0000      -0.843863       -22.9627
  31   2.0000      -0.812397       -22.1064
  32   2.0000      -0.781512       -21.2660
  33   2.0000      -0.769498       -20.9391
  34   2.0000      -0.702221       -19.1084
  35   2.0000      -0.697819       -18.9886
  36   2.0000      -0.686075       -18.6690
  37   2.0000      -0.670624       -18.2486
  38   2.0000      -0.641527       -17.4568
  39   2.0000      -0.616280       -16.7698
  40   2.0000      -0.593122       -16.1397
  41   2.0000      -0.569205       -15.4889
  42   2.0000      -0.563544       -15.3348
  43   2.0000      -0.548057       -14.9134
  44   2.0000      -0.545164       -14.8347
  45   2.0000      -0.530325       -14.4309
  46   2.0000      -0.519781       -14.1440
  47   2.0000      -0.508497       -13.8369
  48   2.0000      -0.502133       -13.6637
  49   2.0000      -0.498306       -13.5596
  50   2.0000      -0.487608       -13.2685
  51   2.0000      -0.480058       -13.0630
  52   2.0000      -0.469852       -12.7853
  53   2.0000      -0.465931       -12.6786
  54   2.0000      -0.459881       -12.5140
  55   2.0000      -0.452628       -12.3166
  56   2.0000      -0.446155       -12.1405
  57   2.0000      -0.435372       -11.8471
  58   2.0000      -0.431098       -11.7308
  59   2.0000      -0.426928       -11.6173
  60   2.0000      -0.420838       -11.4516
  61   2.0000      -0.415457       -11.3052
  62   2.0000      -0.408029       -11.1030
  63   2.0000      -0.351349        -9.5607
  64   2.0000      -0.333352        -9.0710
  65   2.0000      -0.327855        -8.9214
  66   2.0000      -0.288294        -7.8449
  67   0.0000       0.026515         0.7215
  68   0.0000       0.078298         2.1306
  69   0.0000       0.107910         2.9364
  70   0.0000       0.110437         3.0052
  71   0.0000       0.132508         3.6057

MULLIKEN ATOMIC CHARGES
-----------------------
   0 S :    0.118148
   1 C :   -0.132419
   2 C :   -0.068795
   3 C :    0.006464
   4 C :   -0.123716
   5 H :    0.004242
   6 C :   -0.027680
   7 H :    0.047926
   8 H :    0.035981
   9 C :   -0.057385
  10 H :    0.017042
  11 H :    0.016976
  12 C :    0.059714
  13 H :    0.012952
  14 H :    0.006715
  15 H :    0.027922
  16 S :    0.091358
  17 C :   -0.097261
  18 C :   -0.020746
  19 C :   -0.073207
  20 C :   -0.109743
  21 H :    0.021242
  22 C :    0.088583
  23 H :    0.022372
  24 H :    0.015287
  25 C :   -0.090635
  26 H :    0.032885
  27 H :    0.018555
  28 C :   -0.065946
  29 H :    0.052597
  30 H :    0.032649
  31 H :    0.026570
  32 H :    0.055320
  33 H :    0.056032
Sum of atomic charges:   -0.0000000

LOEWDIN ATOMIC CHARGES
----------------------
   0 S :    0.436131
   1 C :   -0.213037
   2 C :   -0.057276
   3 C :   -0.067658
   4 C :   -0.196041
   5 H :    0.023231
   6 C :   -0.038128
   7 H :    0.037047
   8 H :    0.033315
   9 C :   -0.033725
  10 H :    0.017557
  11 H :    0.020795
  12 C :   -0.049554
  13 H :    0.026492
  14 H :    0.014203
  15 H :    0.027015
  16 S :    0.405627
  17 C :   -0.177543
  18 C :   -0.066257
  19 C :   -0.057567
  20 C :   -0.193221
  21 H :    0.031178
  22 C :   -0.026644
  23 H :    0.022528
  24 H :    0.025701
  25 C :   -0.039566
  26 H :    0.019241
  27 H :    0.018590
  28 C :   -0.072318
  29 H :    0.029694
  30 H :    0.028145
  31 H :    0.022878
  32 H :    0.024672
  33 H :    0.024492

  Mayer bond orders larger than 0.100000
B(  0-S ,  1-C ) :   1.1660 B(  0-S ,  4-C ) :   1.1635 B(  1-C ,  2-C ) :   1.5516
B(  1-C ,  4-C ) :   0.1020 B(  1-C , 32-H ) :   0.9682 B(  2-C ,  3-C ) :   1.2999
B(  2-C ,  6-C ) :   1.0164 B(  3-C ,  4-C ) :   1.5131 B(  3-C ,  5-H ) :   0.9953
B(  4-C , 20-C ) :   1.0394 B(  6-C ,  7-H ) :   0.9488 B(  6-C ,  8-H ) :   0.9466
B(  6-C ,  9-C ) :   1.0448 B(  9-C , 10-H ) :   0.9576 B(  9-C , 11-H ) :   0.9539
B(  9-C , 12-C ) :   1.0900 B( 12-C , 13-H ) :   0.9674 B( 12-C , 14-H ) :   0.9707
B( 12-C , 15-H ) :   0.9675 B( 16-S , 17-C ) :   1.1527 B( 16-S , 20-C ) :   1.1286
B( 17-C , 18-C ) :   1.6248 B( 17-C , 33-H ) :   0.9696 B( 18-C , 19-C ) :   1.1894
B( 18-C , 21-H ) :   0.9971 B( 19-C , 20-C ) :   1.6421 B( 19-C , 22-C ) :   1.0523
B( 22-C , 23-H ) :   0.9330 B( 22-C , 24-H ) :   0.9386 B( 22-C , 25-C ) :   1.0619
B( 25-C , 26-H ) :   0.9555 B( 25-C , 27-H ) :   0.9580 B( 25-C , 28-C ) :   1.0809
B( 28-C , 29-H ) :   0.9740 B( 28-C , 30-H ) :   0.9721 B( 28-C , 31-H ) :   0.9731

Dispersion correction           -0.014162778
FINAL SINGLE POINT ENERGY     -1339.877887954458

DIPOLE MOMENT
-------------
                                X             Y             Z
Electronic contribution:     -3.15576      -8.01579       1.26540
Nuclear contribution   :      3.12096       8.14349      -1.38241
                        -----------------------------------------
Total Dipole Moment    :     -0.03481       0.12770      -0.11701
                        -----------------------------------------
Magnitude (a.u.)       :      0.17666
Magnitude (Debye)      :      0.44904

Rotational constants in cm-1:     0.026306     0.007152     0.005876
Rotational constants in MHz :   788.645043   214.401015   176.167013

                             ****ORCA TERMINATED NORMALLY****
TOTAL RUN TIME: 0 days 0 hours 0 minutes 31 seconds 462 msec
