                         Program Version 4.2.1 -  RELEASE  -
|  1> ! wB97X-D3 SP def2-SVP
|  2> %pal
|  3> nprocs 16
|  4> end
|  5>
|  6> * xyz 0 1
|  7> S 	 14.4019 	 10.4305 	 88.9181
|  8> C 	 15.8883 	 9.79463 	 88.4391
|  9> C 	 16.0057 	 8.41 	 88.5555
| 10> C 	 14.7394 	 7.84414 	 88.8751
| 11> C 	 13.7068 	 8.76465 	 89.0139
| 12> H 	 14.5594 	 6.85646 	 88.9756
| 13> C 	 17.3066 	 7.64198 	 88.4695
| 14> H 	 18.052 	 8.23127 	 88.9606
| 15> H 	 17.4784 	 7.37987 	 87.3965
| 16> C 	 17.3008 	 6.25321 	 89.173
| 17> H 	 17.125 	 6.41176 	 90.1545
| 18> H 	 16.4378 	 5.70774 	 88.7573
| 19> C 	 18.5148 	 5.45481 	 88.9741
| 20> H 	 18.3792 	 4.43754 	 89.3702
| 21> H 	 18.6496 	 5.24213 	 87.8736
| 22> H 	 19.288 	 6.0404 	 89.4207
| 23> S 	 11.2735 	 9.86098 	 88.9843
| 24> C 	 10.0528 	 9.29409 	 89.9918
| 25> C 	 10.4377 	 8.22643 	 90.7183
| 26> C 	 11.6851 	 7.70174 	 90.3561
| 27> C 	 12.3508 	 8.61514 	 89.4949
| 28> H 	 9.75192 	 7.69244 	 91.3386
| 29> C 	 12.2112 	 6.38478 	 90.8897
| 30> H 	 13.3127 	 6.49763 	 90.7396
| 31> H 	 11.8556 	 5.57434 	 90.2617
| 32> C 	 12.0468 	 6.13597 	 92.4287
| 33> H 	 10.9645 	 6.19079 	 92.6148
| 34> H 	 12.387 	 7.02602 	 92.9068
| 35> C 	 12.3874 	 4.74654 	 92.875
| 36> H 	 11.8693 	 4.4758 	 93.8178
| 37> H 	 13.4826 	 4.57619 	 92.9518
| 38> H 	 12.0118 	 4.02491 	 92.1146
| 39> H 	 16.8233 	 10.3812 	 88.3411
| 40> H 	 9.00868 	 9.69117 	 89.9294
| 41> *
| 42>
| 43>                          ****END OF INPUT****

CARTESIAN COORDINATES (ANGSTROEM)
---------------------------------
  S     14.401900   10.430500   88.918100
  C     15.888300    9.794630   88.439100
  C     16.005700    8.410000   88.555500
  C     14.739400    7.844140   88.875100
  C     13.706800    8.764650   89.013900
  H     14.559400    6.856460   88.975600
  C     17.306600    7.641980   88.469500
  H     18.052000    8.231270   88.960600
  H     17.478400    7.379870   87.396500
  C     17.300800    6.253210   89.173000
  H     17.125000    6.411760   90.154500
  H     16.437800    5.707740   88.757300
  C     18.514800    5.454810   88.974100
  H     18.379200    4.437540   89.370200
  H     18.649600    5.242130   87.873600
  H     19.288000    6.040400   89.420700
  S     11.273500    9.860980   88.984300
  C     10.052800    9.294090   89.991800
  C     10.437700    8.226430   90.718300
  C     11.685100    7.701740   90.356100
  C     12.350800    8.615140   89.494900
  H      9.751920    7.692440   91.338600
  C     12.211200    6.384780   90.889700
  H     13.312700    6.497630   90.739600
  H     11.855600    5.574340   90.261700
  C     12.046800    6.135970   92.428700
  H     10.964500    6.190790   92.614800
  H     12.387000    7.026020   92.906800
  C     12.387400    4.746540   92.875000
  H     11.869300    4.475800   93.817800
  H     13.482600    4.576190   92.951800
  H     12.011800    4.024910   92.114600
  H     16.823300   10.381200   88.341100
  H      9.008680    9.691170   89.929400

 Total Charge           Charge          ....    0
 Multiplicity           Mult            ....    1
 Number of Electrons    NEL             ....  134
 Basis Dimension        Dim             ....  322

ORBITAL ENERGIES
----------------

  NO   OCC          E(Eh)            E(eV)
   0   2.0000     -88.966019     -2420.8884
   1   2.0000     -88.963808     -2420.8283
   2   2.0000     -10.330738      -281.1137
   3   2.0000     -10.325090      -280.9600
   4   2.0000     -10.309793      -280.5437
   5   2.0000     -10.307944      -280.4934
   6   2.0000     -10.303102      -280.3617
   7   2.0000     -10.297566      -280.2110
   8   2.0000     -10.295431      -280.1529
   9   2.0000     -10.293071      -280.0887
  10   2.0000     -10.287092      -279.9260
  11   2.0000     -10.286626      -279.9133
  12   2.0000     -10.285518      -279.8832
  13   2.0000     -10.283483      -279.8278
  14   2.0000     -10.278976      -279.7052
  15   2.0000     -10.274915      -279.5946
  16   2.0000      -8.080883      -219.8920
  17   2.0000      -8.080514      -219.8820
  18   2.0000      -6.039280      -164.3372
  19   2.0000      -6.038738      -164.3224
  20   2.0000      -6.035492      -164.2341
  21   2.0000      -6.034705      -164.2127
  22   2.0000      -6.031619      -164.1287
  23   2.0000      -6.031491      -164.1252
  24   2.0000      -1.014711       -27.6117
  25   2.0000      -0.988756       -26.9054
  26   2.0000      -0.919583       -25.0231
  27   2.0000      -0.911896       -24.8140
  28   2.0000      -0.874680       -23.8013
  29   2.0000      -0.860027       -23.4025
  30   2.0000      -0.852491       -23.1974
  31   2.0000      -0.817557       -22.2469
  32   2.0000      -0.783568       -21.3220
  33   2.0000      -0.766516       -20.8580
  34   2.0000      -0.712546       -19.3894
  35   2.0000      -0.701422       -19.0867
  36   2.0000      -0.684801       -18.6344
  37   2.0000      -0.659579       -17.9481
  38   2.0000      -0.636935       -17.3319
  39   2.0000      -0.627826       -17.0840
  40   2.0000      -0.600388       -16.3374
  41   2.0000      -0.588375       -16.0105
  42   2.0000      -0.567984       -15.4556
  43   2.0000      -0.564929       -15.3725
  44   2.0000      -0.530685       -14.4407
  45   2.0000      -0.526329       -14.3221
  46   2.0000      -0.518440       -14.1075
  47   2.0000      -0.508621       -13.8403
  48   2.0000      -0.504930       -13.7398
  49   2.0000      -0.500627       -13.6228
  50   2.0000      -0.491896       -13.3852
  51   2.0000      -0.481043       -13.0898
  52   2.0000      -0.475275       -12.9329
  53   2.0000      -0.468008       -12.7351
  54   2.0000      -0.463915       -12.6238
  55   2.0000      -0.456214       -12.4142
  56   2.0000      -0.449671       -12.2362
  57   2.0000      -0.440501       -11.9867
  58   2.0000      -0.435504       -11.8507
  59   2.0000      -0.425927       -11.5901
  60   2.0000      -0.419869       -11.4252
  61   2.0000      -0.411929       -11.2092
  62   2.0000      -0.403682       -10.9847
  63   2.0000      -0.359442        -9.7809
  64   2.0000      -0.334118        -9.0918
  65   2.0000      -0.329982        -8.9793
  66   2.0000      -0.276158        -7.5147
  67   0.0000       0.024718         0.6726
  68   0.0000       0.075927         2.0661
  69   0.0000       0.109793         2.9876
  70   0.0000       0.120367         3.2753
  71   0.0000       0.136519         3.7149

MULLIKEN ATOMIC CHARGES
-----------------------
   0 S :    0.110127
   1 C :   -0.112250
   2 C :   -0.110665
   3 C :    0.029385
   4 C :   -0.101220
   5 H :   -0.037050
   6 C :    0.077279
   7 H :    0.023201
   8 H :    0.045877
   9 C :   -0.106995
  10 H :    0.006954
  11 H :    0.029295
  12 C :   -0.008271
  13 H :    0.037124
  14 H :    0.029023
  15 H :    0.030275
  16 S :    0.114561
  17 C :   -0.095566
  18 C :   -0.028202
  19 C :   -0.056793
  20 C :   -0.167545
  21 H :    0.004482
  22 C :    0.050452
  23 H :    0.027538
  24 H :    0.041537
  25 C :   -0.081370
  26 H :    0.019526
  27 H :    0.030835
  28 C :   -0.039556
  29 H :    0.043620
  30 H :    0.040183
  31 H :    0.030132
  32 H :    0.051837
  33 H :    0.072239
Sum of atomic charges:    0.0000000

LOEWDIN ATOMIC CHARGES
----------------------
   0 S :    0.410272
   1 C :   -0.224604
   2 C :   -0.065757
   3 C :   -0.058231
   4 C :   -0.172372
   5 H :    0.006559
   6 C :   -0.026422
   7 H :    0.026307
   8 H :    0.040172
   9 C :   -0.040902
  10 H :    0.007201
  11 H :    0.022426
  12 C :   -0.059578
  13 H :    0.031938
  14 H :    0.030738
  15 H :    0.023655
  16 S :    0.448073
  17 C :   -0.212593
  18 C :   -0.077555
  19 C :   -0.055710
  20 C :   -0.209424
  21 H :    0.026092
  22 C :   -0.033799
  23 H :    0.034321
  24 H :    0.031512
  25 C :   -0.045299
  26 H :    0.022480
  27 H :    0.024850
  28 C :   -0.067541
  29 H :    0.032277
  30 H :    0.026450
  31 H :    0.031769
  32 H :    0.033196
  33 H :    0.039499

  Mayer bond orders larger than 0.100000
B(  0-S ,  1-C ) :   1.1579 B(  0-S ,  4-C ) :   1.1413 B(  1-C ,  2-C ) :   1.6046
B(  1-C , 32-H ) :   0.9587 B(  2-C ,  3-C ) :   1.2659 B(  2-C ,  6-C ) :   1.0150
B(  3-C ,  4-C ) :   1.5503 B(  3-C ,  5-H ) :   1.0093 B(  4-C , 20-C ) :   1.0748
B(  6-C ,  7-H ) :   0.9415 B(  6-C ,  8-H ) :   0.9308 B(  6-C ,  9-C ) :   1.0881
B(  9-C , 10-H ) :   0.9547 B(  9-C , 11-H ) :   0.9417 B(  9-C , 12-C ) :   1.1022
B( 12-C , 13-H ) :   0.9673 B( 12-C , 14-H ) :   0.9697 B( 12-C , 15-H ) :   0.9718
B( 16-S , 17-C ) :   1.1752 B( 16-S , 20-C ) :   1.1718 B( 17-C , 18-C ) :   1.5703
B( 17-C , 33-H ) :   0.9602 B( 18-C , 19-C ) :   1.2965 B( 18-C , 21-H ) :   0.9908
B( 19-C , 20-C ) :   1.5146 B( 19-C , 22-C ) :   1.0335 B( 22-C , 23-H ) :   0.9303
B( 22-C , 24-H ) :   0.9285 B( 22-C , 25-C ) :   1.0670 B( 25-C , 26-H ) :   0.9512
B( 25-C , 27-H ) :   0.9596 B( 25-C , 28-C ) :   1.0719 B( 28-C , 29-H ) :   0.9743
B( 28-C , 30-H ) :   0.9759 B( 28-C , 31-H ) :   0.9686

Dispersion correction           -0.013300546
FINAL SINGLE POINT ENERGY     -1339.860778640866

DIPOLE MOMENT
-------------
                                X             Y             Z
Electronic contribution:    -14.27903      27.26969     -10.79741
Nuclear contribution   :     14.39242     -27.92783      11.14647
                        -----------------------------------------
Total Dipole Moment    :      0.11340      -0.65814       0.34907
                        -----------------------------------------
Magnitude (a.u.)       :      0.75356
Magnitude (Debye)      :      1.91540

Rotational constants in cm-1:     0.015938     0.009456     0.006208
Rotational constants in MHz :   477.820322   283.468970   186.122898

                             ****ORCA TERMINATED NORMALLY****
TOTAL RUN TIME: 0 days 0 hours 0 minutes 34 seconds 566 msec
