                         Program Version 4.2.1 -  RELEASE  -
|  1> ! wB97X-D3 SP def2-SVP
|  2> %pal
|  3> nprocs 16
|  4> end
|  5>
|  6> * xyz 0 1
|  7> S 	 -97.7058 	 43.2458 	 124.709
|  8> C 	 -98.3272 	 42.7911 	 126.318
|  9> C 	 -97.3667 	 42.4239 	 127.267
| 10> C 	 -96.0713 	 42.3977 	 126.663
| 11> C 	 -96.1045 	 42.8292 	 125.328
| 12> H 	 -95.2043 	 42.0231 	 127.209
| 13> C 	 -97.5205 	 41.9334 	 128.733
| 14> H 	 -98.1111 	 42.6844 	 129.317
| 15> H 	 -96.631 	 41.8988 	 129.361
| 16> C 	 -98.3003 	 40.5648 	 128.703
| 17> H 	 -98.1964 	 40.12 	 129.683
| 18> H 	 -99.3552 	 40.6747 	 128.444
| 19> C 	 -97.5757 	 39.6084 	 127.673
| 20> H 	 -96.5454 	 39.3634 	 127.982
| 21> H 	 -98.0258 	 38.6082 	 127.634
| 22> H 	 -97.4636 	 39.9438 	 126.602
| 23> S 	 -94.791 	 41.8374 	 122.995
| 24> C 	 -93.1294 	 42.2597 	 122.771
| 25> C 	 -92.7387 	 43.2335 	 123.709
| 26> C 	 -93.7381 	 43.5224 	 124.703
| 27> C 	 -94.9302 	 42.8873 	 124.451
| 28> H 	 -91.6567 	 43.6241 	 123.778
| 29> C 	 -93.427 	 44.3296 	 125.928
| 30> H 	 -92.6602 	 43.9271 	 126.614
| 31> H 	 -94.3422 	 44.2923 	 126.5
| 32> C 	 -93.2489 	 45.8154 	 125.688
| 33> H 	 -94.1246 	 46.2621 	 125.191
| 34> H 	 -92.4227 	 46.0505 	 125.029
| 35> C 	 -93.0865 	 46.6253 	 126.991
| 36> H 	 -92.4746 	 47.5159 	 126.729
| 37> H 	 -92.605 	 46.0717 	 127.794
| 38> H 	 -93.997 	 46.9661 	 127.46
| 39> H 	 -99.4248 	 42.635 	 126.538
| 40> H 	 -92.564 	 42.1763 	 121.807
| 41> *
| 42>
| 43>                          ****END OF INPUT****

CARTESIAN COORDINATES (ANGSTROEM)
---------------------------------
  S    -97.705800   43.245800  124.709000
  C    -98.327200   42.791100  126.318000
  C    -97.366700   42.423900  127.267000
  C    -96.071300   42.397700  126.663000
  C    -96.104500   42.829200  125.328000
  H    -95.204300   42.023100  127.209000
  C    -97.520500   41.933400  128.733000
  H    -98.111100   42.684400  129.317000
  H    -96.631000   41.898800  129.361000
  C    -98.300300   40.564800  128.703000
  H    -98.196400   40.120000  129.683000
  H    -99.355200   40.674700  128.444000
  C    -97.575700   39.608400  127.673000
  H    -96.545400   39.363400  127.982000
  H    -98.025800   38.608200  127.634000
  H    -97.463600   39.943800  126.602000
  S    -94.791000   41.837400  122.995000
  C    -93.129400   42.259700  122.771000
  C    -92.738700   43.233500  123.709000
  C    -93.738100   43.522400  124.703000
  C    -94.930200   42.887300  124.451000
  H    -91.656700   43.624100  123.778000
  C    -93.427000   44.329600  125.928000
  H    -92.660200   43.927100  126.614000
  H    -94.342200   44.292300  126.500000
  C    -93.248900   45.815400  125.688000
  H    -94.124600   46.262100  125.191000
  H    -92.422700   46.050500  125.029000
  C    -93.086500   46.625300  126.991000
  H    -92.474600   47.515900  126.729000
  H    -92.605000   46.071700  127.794000
  H    -93.997000   46.966100  127.460000
  H    -99.424800   42.635000  126.538000
  H    -92.564000   42.176300  121.807000

 Total Charge           Charge          ....    0
 Multiplicity           Mult            ....    1
 Number of Electrons    NEL             ....  134
 Basis Dimension        Dim             ....  322

ORBITAL ENERGIES
----------------

  NO   OCC          E(Eh)            E(eV)
   0   2.0000     -88.975958     -2421.1589
   1   2.0000     -88.965096     -2420.8633
   2   2.0000     -10.333428      -281.1869
   3   2.0000     -10.326316      -280.9933
   4   2.0000     -10.322909      -280.9006
   5   2.0000     -10.320670      -280.8397
   6   2.0000     -10.307700      -280.4868
   7   2.0000     -10.305041      -280.4144
   8   2.0000     -10.300554      -280.2923
   9   2.0000     -10.299872      -280.2738
  10   2.0000     -10.299261      -280.2571
  11   2.0000     -10.296999      -280.1956
  12   2.0000     -10.285024      -279.8697
  13   2.0000     -10.281621      -279.7771
  14   2.0000     -10.279955      -279.7318
  15   2.0000     -10.274844      -279.5927
  16   2.0000      -8.089457      -220.1253
  17   2.0000      -8.079369      -219.8508
  18   2.0000      -6.047923      -164.5724
  19   2.0000      -6.044353      -164.4752
  20   2.0000      -6.040132      -164.3604
  21   2.0000      -6.037943      -164.3008
  22   2.0000      -6.033911      -164.1911
  23   2.0000      -6.030112      -164.0877
  24   2.0000      -1.000273       -27.2188
  25   2.0000      -0.977559       -26.6007
  26   2.0000      -0.909208       -24.7408
  27   2.0000      -0.905045       -24.6275
  28   2.0000      -0.860560       -23.4170
  29   2.0000      -0.847442       -23.0601
  30   2.0000      -0.841853       -22.9080
  31   2.0000      -0.800399       -21.7800
  32   2.0000      -0.781562       -21.2674
  33   2.0000      -0.770177       -20.9576
  34   2.0000      -0.704955       -19.1828
  35   2.0000      -0.699273       -19.0282
  36   2.0000      -0.691222       -18.8091
  37   2.0000      -0.652367       -17.7518
  38   2.0000      -0.632095       -17.2002
  39   2.0000      -0.617030       -16.7902
  40   2.0000      -0.595145       -16.1947
  41   2.0000      -0.568855       -15.4793
  42   2.0000      -0.560342       -15.2477
  43   2.0000      -0.542482       -14.7617
  44   2.0000      -0.534544       -14.5457
  45   2.0000      -0.524524       -14.2730
  46   2.0000      -0.508863       -13.8469
  47   2.0000      -0.500346       -13.6151
  48   2.0000      -0.497969       -13.5504
  49   2.0000      -0.492682       -13.4066
  50   2.0000      -0.484466       -13.1830
  51   2.0000      -0.473247       -12.8777
  52   2.0000      -0.468542       -12.7497
  53   2.0000      -0.463533       -12.6134
  54   2.0000      -0.454293       -12.3619
  55   2.0000      -0.450676       -12.2635
  56   2.0000      -0.440814       -11.9951
  57   2.0000      -0.433451       -11.7948
  58   2.0000      -0.432532       -11.7698
  59   2.0000      -0.426280       -11.5997
  60   2.0000      -0.424249       -11.5444
  61   2.0000      -0.416080       -11.3221
  62   2.0000      -0.408013       -11.1026
  63   2.0000      -0.339496        -9.2381
  64   2.0000      -0.332529        -9.0486
  65   2.0000      -0.328166        -8.9299
  66   2.0000      -0.295684        -8.0460
  67   0.0000       0.025798         0.7020
  68   0.0000       0.062713         1.7065
  69   0.0000       0.099548         2.7088
  70   0.0000       0.116243         3.1631
  71   0.0000       0.127249         3.4626

MULLIKEN ATOMIC CHARGES
-----------------------
   0 S :    0.130258
   1 C :   -0.142537
   2 C :   -0.096299
   3 C :    0.028718
   4 C :   -0.182093
   5 H :    0.026276
   6 C :    0.047015
   7 H :    0.038691
   8 H :    0.030251
   9 C :   -0.058417
  10 H :    0.033642
  11 H :    0.045487
  12 C :   -0.102026
  13 H :    0.022045
  14 H :    0.031491
  15 H :    0.068813
  16 S :    0.102957
  17 C :   -0.109276
  18 C :   -0.072076
  19 C :   -0.030362
  20 C :   -0.147097
  21 H :    0.050908
  22 C :    0.063879
  23 H :    0.040875
  24 H :    0.015723
  25 C :   -0.079338
  26 H :    0.033607
  27 H :    0.022863
  28 C :   -0.052126
  29 H :    0.036641
  30 H :    0.019465
  31 H :    0.033287
  32 H :    0.063338
  33 H :    0.085417
Sum of atomic charges:    0.0000000

LOEWDIN ATOMIC CHARGES
----------------------
   0 S :    0.398759
   1 C :   -0.202070
   2 C :   -0.058032
   3 C :   -0.052915
   4 C :   -0.190678
   5 H :    0.035967
   6 C :   -0.033882
   7 H :    0.035910
   8 H :    0.030879
   9 C :   -0.031356
  10 H :    0.024556
  11 H :    0.024901
  12 C :   -0.082033
  13 H :    0.023096
  14 H :    0.024064
  15 H :    0.036558
  16 S :    0.391831
  17 C :   -0.210442
  18 C :   -0.079948
  19 C :   -0.055804
  20 C :   -0.192588
  21 H :    0.043544
  22 C :   -0.039824
  23 H :    0.033795
  24 H :    0.030878
  25 C :   -0.039850
  26 H :    0.031097
  27 H :    0.016483
  28 C :   -0.068245
  29 H :    0.032504
  30 H :    0.020120
  31 H :    0.022974
  32 H :    0.035133
  33 H :    0.044620

  Mayer bond orders larger than 0.100000
B(  0-S ,  1-C ) :   1.1312 B(  0-S ,  4-C ) :   1.1514 B(  1-C ,  2-C ) :   1.6324
B(  1-C , 32-H ) :   0.9544 B(  2-C ,  3-C ) :   1.2438 B(  2-C ,  6-C ) :   1.0104
B(  3-C ,  4-C ) :   1.5604 B(  3-C ,  5-H ) :   0.9900 B(  4-C , 20-C ) :   1.0311
B(  6-C ,  7-H ) :   0.9428 B(  6-C ,  8-H ) :   0.9526 B(  6-C ,  9-C ) :   1.0617
B(  9-C , 10-H ) :   0.9592 B(  9-C , 11-H ) :   0.9616 B(  9-C , 12-C ) :   1.0631
B( 12-C , 13-H ) :   0.9760 B( 12-C , 14-H ) :   0.9758 B( 12-C , 15-H ) :   0.9703
B( 16-S , 17-C ) :   1.1595 B( 16-S , 20-C ) :   1.1277 B( 17-C , 18-C ) :   1.6111
B( 17-C , 33-H ) :   0.9523 B( 18-C , 19-C ) :   1.2434 B( 18-C , 21-H ) :   0.9721
B( 19-C , 20-C ) :   1.6088 B( 19-C , 22-C ) :   1.0454 B( 22-C , 23-H ) :   0.9365
B( 22-C , 24-H ) :   0.9215 B( 22-C , 25-C ) :   1.0674 B( 25-C , 26-H ) :   0.9528
B( 25-C , 27-H ) :   0.9650 B( 25-C , 28-C ) :   1.0730 B( 28-C , 29-H ) :   0.9763
B( 28-C , 30-H ) :   0.9747 B( 28-C , 31-H ) :   0.9781

Dispersion correction           -0.014890093
FINAL SINGLE POINT ENERGY     -1339.868860802310

DIPOLE MOMENT
-------------
                                X             Y             Z
Electronic contribution:     -4.73810      -3.35640     -21.62532
Nuclear contribution   :      4.89137       3.35909      22.27444
                        -----------------------------------------
Total Dipole Moment    :      0.15327       0.00269       0.64912
                        -----------------------------------------
Magnitude (a.u.)       :      0.66697
Magnitude (Debye)      :      1.69532

Rotational constants in cm-1:     0.017627     0.008998     0.007309
Rotational constants in MHz :   528.451088   269.755245   219.126597

                             ****ORCA TERMINATED NORMALLY****
TOTAL RUN TIME: 0 days 0 hours 0 minutes 33 seconds 849 msec
