                         Program Version 4.2.1 -  RELEASE  -
|  1> ! wB97X-D3 SP def2-SVP
|  2> %pal
|  3> nprocs 16
|  4> end
|  5>
|  6> * xyz 0 1
|  7> S 	 13.7139 	 -6.36747 	 89.391
|  8> C 	 13.367 	 -7.48129 	 90.6682
|  9> C 	 12.2687 	 -8.23835 	 90.3559
| 10> C 	 11.7164 	 -7.95528 	 89.0383
| 11> C 	 12.368 	 -6.95347 	 88.353
| 12> H 	 10.9304 	 -8.45015 	 88.6247
| 13> C 	 11.7327 	 -9.32721 	 91.2712
| 14> H 	 12.5345 	 -9.68979 	 91.948
| 15> H 	 11.3874 	 -10.2019 	 90.7763
| 16> C 	 10.6166 	 -8.9189 	 92.187
| 17> H 	 10.8239 	 -7.99269 	 92.6577
| 18> H 	 9.7912 	 -8.87688 	 91.5378
| 19> C 	 10.4641 	 -9.89197 	 93.4408
| 20> H 	 10.3785 	 -10.8903 	 93.0595
| 21> H 	 11.3131 	 -9.82291 	 94.0905
| 22> H 	 9.61546 	 -9.65548 	 93.9623
| 23> S 	 13.6039 	 -6.92865 	 85.873
| 24> C 	 12.5616 	 -6.70487 	 84.4563
| 25> C 	 11.2856 	 -6.30011 	 84.8043
| 26> C 	 11.0034 	 -6.34165 	 86.201
| 27> C 	 12.1762 	 -6.65013 	 86.9094
| 28> H 	 10.6063 	 -6.19019 	 84.0253
| 29> C 	 9.59496 	 -6.25222 	 86.7511
| 30> H 	 9.28654 	 -5.21723 	 86.6456
| 31> H 	 9.68218 	 -6.38498 	 87.8624
| 32> C 	 8.56444 	 -7.10921 	 86.0279
| 33> H 	 8.9092 	 -8.10259 	 86.1058
| 34> H 	 8.48017 	 -6.76623 	 85.0219
| 35> C 	 7.1705 	 -7.0426 	 86.6465
| 36> H 	 7.1835 	 -7.76923 	 87.4944
| 37> H 	 6.43713 	 -7.46538 	 85.9954
| 38> H 	 6.87986 	 -6.05142 	 87.0036
| 39> H 	 14.0094 	 -7.58696 	 91.5543
| 40> H 	 12.9163 	 -6.84391 	 83.4298
| 41> *
| 42>
| 43>                          ****END OF INPUT****

CARTESIAN COORDINATES (ANGSTROEM)
---------------------------------
  S     13.713900   -6.367470   89.391000
  C     13.367000   -7.481290   90.668200
  C     12.268700   -8.238350   90.355900
  C     11.716400   -7.955280   89.038300
  C     12.368000   -6.953470   88.353000
  H     10.930400   -8.450150   88.624700
  C     11.732700   -9.327210   91.271200
  H     12.534500   -9.689790   91.948000
  H     11.387400  -10.201900   90.776300
  C     10.616600   -8.918900   92.187000
  H     10.823900   -7.992690   92.657700
  H      9.791200   -8.876880   91.537800
  C     10.464100   -9.891970   93.440800
  H     10.378500  -10.890300   93.059500
  H     11.313100   -9.822910   94.090500
  H      9.615460   -9.655480   93.962300
  S     13.603900   -6.928650   85.873000
  C     12.561600   -6.704870   84.456300
  C     11.285600   -6.300110   84.804300
  C     11.003400   -6.341650   86.201000
  C     12.176200   -6.650130   86.909400
  H     10.606300   -6.190190   84.025300
  C      9.594960   -6.252220   86.751100
  H      9.286540   -5.217230   86.645600
  H      9.682180   -6.384980   87.862400
  C      8.564440   -7.109210   86.027900
  H      8.909200   -8.102590   86.105800
  H      8.480170   -6.766230   85.021900
  C      7.170500   -7.042600   86.646500
  H      7.183500   -7.769230   87.494400
  H      6.437130   -7.465380   85.995400
  H      6.879860   -6.051420   87.003600
  H     14.009400   -7.586960   91.554300
  H     12.916300   -6.843910   83.429800

 Total Charge           Charge          ....    0
 Multiplicity           Mult            ....    1
 Number of Electrons    NEL             ....  134
 Basis Dimension        Dim             ....  322

ORBITAL ENERGIES
----------------

  NO   OCC          E(Eh)            E(eV)
   0   2.0000     -88.967253     -2420.9220
   1   2.0000     -88.962637     -2420.7964
   2   2.0000     -10.333305      -281.1835
   3   2.0000     -10.333210      -281.1809
   4   2.0000     -10.321297      -280.8568
   5   2.0000     -10.314755      -280.6787
   6   2.0000     -10.307889      -280.4919
   7   2.0000     -10.301573      -280.3201
   8   2.0000     -10.294347      -280.1234
   9   2.0000     -10.290541      -280.0199
  10   2.0000     -10.290061      -280.0068
  11   2.0000     -10.284952      -279.8678
  12   2.0000     -10.283690      -279.8334
  13   2.0000     -10.280644      -279.7505
  14   2.0000     -10.276017      -279.6246
  15   2.0000     -10.271382      -279.4985
  16   2.0000      -8.081099      -219.8979
  17   2.0000      -8.077136      -219.7901
  18   2.0000      -6.039644      -164.3471
  19   2.0000      -6.035864      -164.2442
  20   2.0000      -6.035800      -164.2425
  21   2.0000      -6.031733      -164.1318
  22   2.0000      -6.031582      -164.1277
  23   2.0000      -6.027830      -164.0256
  24   2.0000      -0.999548       -27.1991
  25   2.0000      -0.979931       -26.6653
  26   2.0000      -0.915169       -24.9030
  27   2.0000      -0.911878       -24.8135
  28   2.0000      -0.868030       -23.6203
  29   2.0000      -0.854241       -23.2451
  30   2.0000      -0.843141       -22.9430
  31   2.0000      -0.815826       -22.1997
  32   2.0000      -0.783936       -21.3320
  33   2.0000      -0.772962       -21.0334
  34   2.0000      -0.707378       -19.2487
  35   2.0000      -0.699552       -19.0358
  36   2.0000      -0.694774       -18.9058
  37   2.0000      -0.661106       -17.9896
  38   2.0000      -0.646503       -17.5923
  39   2.0000      -0.620539       -16.8857
  40   2.0000      -0.596401       -16.2289
  41   2.0000      -0.581709       -15.8291
  42   2.0000      -0.578931       -15.7535
  43   2.0000      -0.559660       -15.2291
  44   2.0000      -0.531110       -14.4522
  45   2.0000      -0.522741       -14.2245
  46   2.0000      -0.519696       -14.1416
  47   2.0000      -0.514068       -13.9885
  48   2.0000      -0.508227       -13.8296
  49   2.0000      -0.496275       -13.5043
  50   2.0000      -0.491341       -13.3701
  51   2.0000      -0.479515       -13.0483
  52   2.0000      -0.476124       -12.9560
  53   2.0000      -0.464022       -12.6267
  54   2.0000      -0.461428       -12.5561
  55   2.0000      -0.450580       -12.2609
  56   2.0000      -0.442194       -12.0327
  57   2.0000      -0.438220       -11.9246
  58   2.0000      -0.433247       -11.7892
  59   2.0000      -0.427776       -11.6404
  60   2.0000      -0.423391       -11.5211
  61   2.0000      -0.422793       -11.5048
  62   2.0000      -0.409721       -11.1491
  63   2.0000      -0.348319        -9.4783
  64   2.0000      -0.332345        -9.0436
  65   2.0000      -0.324187        -8.8216
  66   2.0000      -0.293439        -7.9849
  67   0.0000       0.032137         0.8745
  68   0.0000       0.065502         1.7824
  69   0.0000       0.113175         3.0796
  70   0.0000       0.123055         3.3485
  71   0.0000       0.125922         3.4265

MULLIKEN ATOMIC CHARGES
-----------------------
   0 S :    0.093459
   1 C :   -0.131801
   2 C :   -0.070345
   3 C :    0.083735
   4 C :   -0.149985
   5 H :   -0.031858
   6 C :    0.048836
   7 H :    0.010600
   8 H :    0.014526
   9 C :   -0.050887
  10 H :    0.019180
  11 H :    0.014363
  12 C :   -0.013504
  13 H :    0.019384
  14 H :    0.029766
  15 H :    0.019477
  16 S :    0.108090
  17 C :   -0.110708
  18 C :   -0.006744
  19 C :   -0.022118
  20 C :   -0.164984
  21 H :   -0.004362
  22 C :    0.059963
  23 H :    0.025534
  24 H :    0.031800
  25 C :   -0.062158
  26 H :    0.026536
  27 H :    0.028904
  28 C :   -0.033551
  29 H :    0.025868
  30 H :    0.029424
  31 H :    0.035822
  32 H :    0.063586
  33 H :    0.064154
Sum of atomic charges:    0.0000000

LOEWDIN ATOMIC CHARGES
----------------------
   0 S :    0.385880
   1 C :   -0.199551
   2 C :   -0.061949
   3 C :   -0.048031
   4 C :   -0.181484
   5 H :    0.012047
   6 C :   -0.034479
   7 H :    0.028550
   8 H :    0.023275
   9 C :   -0.027674
  10 H :    0.017602
  11 H :    0.014484
  12 C :   -0.047599
  13 H :    0.020225
  14 H :    0.023598
  15 H :    0.014740
  16 S :    0.384909
  17 C :   -0.172315
  18 C :   -0.064863
  19 C :   -0.049094
  20 C :   -0.185573
  21 H :    0.019702
  22 C :   -0.035008
  23 H :    0.032293
  24 H :    0.035388
  25 C :   -0.033374
  26 H :    0.021322
  27 H :    0.020698
  28 C :   -0.060705
  29 H :    0.029579
  30 H :    0.023502
  31 H :    0.025192
  32 H :    0.036984
  33 H :    0.031730

  Mayer bond orders larger than 0.100000
B(  0-S ,  1-C ) :   1.1350 B(  0-S ,  4-C ) :   1.1372 B(  1-C ,  2-C ) :   1.6197
B(  1-C , 32-H ) :   0.9658 B(  2-C ,  3-C ) :   1.2289 B(  2-C ,  6-C ) :   1.0318
B(  3-C ,  4-C ) :   1.5746 B(  3-C ,  5-H ) :   1.0090 B(  4-C , 20-C ) :   1.0256
B(  6-C ,  7-H ) :   0.9449 B(  6-C ,  8-H ) :   0.9417 B(  6-C ,  9-C ) :   1.0591
B(  9-C , 10-H ) :   0.9584 B(  9-C , 11-H ) :   0.9606 B(  9-C , 12-C ) :   1.0778
B( 12-C , 13-H ) :   0.9773 B( 12-C , 14-H ) :   0.9761 B( 12-C , 15-H ) :   0.9758
B( 16-S , 17-C ) :   1.1443 B( 16-S , 20-C ) :   1.1391 B( 17-C , 18-C ) :   1.6338
B( 17-C , 33-H ) :   0.9656 B( 18-C , 19-C ) :   1.2136 B( 18-C , 21-H ) :   0.9948
B( 19-C , 20-C ) :   1.6075 B( 19-C , 22-C ) :   1.0473 B( 22-C , 23-H ) :   0.9188
B( 22-C , 24-H ) :   0.9353 B( 22-C , 25-C ) :   1.0662 B( 25-C , 26-H ) :   0.9619
B( 25-C , 27-H ) :   0.9467 B( 25-C , 28-C ) :   1.0916 B( 28-C , 29-H ) :   0.9756
B( 28-C , 30-H ) :   0.9736 B( 28-C , 31-H ) :   0.9743

Dispersion correction           -0.013511788
FINAL SINGLE POINT ENERGY     -1339.869639474021

DIPOLE MOMENT
-------------
                                X             Y             Z
Electronic contribution:     26.30541      10.96601     -12.98799
Nuclear contribution   :    -26.98388     -11.38301      12.97122
                        -----------------------------------------
Total Dipole Moment    :     -0.67847      -0.41699      -0.01677
                        -----------------------------------------
Magnitude (a.u.)       :      0.79654
Magnitude (Debye)      :      2.02465

Rotational constants in cm-1:     0.016993     0.008450     0.006051
Rotational constants in MHz :   509.444518   253.313463   181.411612

                             ****ORCA TERMINATED NORMALLY****
TOTAL RUN TIME: 0 days 0 hours 0 minutes 32 seconds 104 msec
