                         Program Version 4.2.1 -  RELEASE  -
|  1> ! wB97X-D3 SP def2-SVP
|  2> %pal
|  3> nprocs 16
|  4> end
|  5>
|  6> * xyz 0 1
|  7> S 	 -91.5734 	 53.6102 	 122.084
|  8> C 	 -90.9091 	 51.99 	 121.939
|  9> C 	 -91.3815 	 51.1092 	 122.929
| 10> C 	 -92.246 	 51.7849 	 123.827
| 11> C 	 -92.4773 	 53.1006 	 123.462
| 12> H 	 -92.804 	 51.3416 	 124.595
| 13> C 	 -91.1355 	 49.5908 	 122.947
| 14> H 	 -91.922 	 49.2074 	 123.544
| 15> H 	 -90.1515 	 49.4465 	 123.513
| 16> C 	 -91.0611 	 48.8563 	 121.651
| 17> H 	 -91.8305 	 49.0289 	 120.972
| 18> H 	 -90.0828 	 49.0232 	 121.102
| 19> C 	 -91.1342 	 47.3305 	 121.775
| 20> H 	 -90.4132 	 47.0718 	 122.441
| 21> H 	 -92.1288 	 46.9984 	 122.048
| 22> H 	 -90.954 	 46.7761 	 120.827
| 23> S 	 -94.8636 	 54.5044 	 123.296
| 24> C 	 -95.4813 	 55.1517 	 124.811
| 25> C 	 -94.6412 	 55.027 	 125.854
| 26> C 	 -93.4375 	 54.3369 	 125.493
| 27> C 	 -93.4164 	 53.9761 	 124.169
| 28> H 	 -94.8795 	 55.3887 	 126.867
| 29> C 	 -92.3058 	 54.1154 	 126.434
| 30> H 	 -91.7074 	 53.289 	 126.096
| 31> H 	 -92.7245 	 53.8449 	 127.397
| 32> C 	 -91.3725 	 55.2888 	 126.749
| 33> H 	 -90.8972 	 55.0211 	 127.682
| 34> H 	 -91.9788 	 56.102 	 127.055
| 35> C 	 -90.3819 	 55.7329 	 125.688
| 36> H 	 -89.6454 	 56.4362 	 126.116
| 37> H 	 -90.8431 	 56.2418 	 124.836
| 38> H 	 -89.9407 	 54.8413 	 125.345
| 39> H 	 -90.2894 	 51.5869 	 121.212
| 40> H 	 -96.4899 	 55.5522 	 124.857
| 41> *
| 42>
| 43>                          ****END OF INPUT****

CARTESIAN COORDINATES (ANGSTROEM)
---------------------------------
  S    -91.573400   53.610200  122.084000
  C    -90.909100   51.990000  121.939000
  C    -91.381500   51.109200  122.929000
  C    -92.246000   51.784900  123.827000
  C    -92.477300   53.100600  123.462000
  H    -92.804000   51.341600  124.595000
  C    -91.135500   49.590800  122.947000
  H    -91.922000   49.207400  123.544000
  H    -90.151500   49.446500  123.513000
  C    -91.061100   48.856300  121.651000
  H    -91.830500   49.028900  120.972000
  H    -90.082800   49.023200  121.102000
  C    -91.134200   47.330500  121.775000
  H    -90.413200   47.071800  122.441000
  H    -92.128800   46.998400  122.048000
  H    -90.954000   46.776100  120.827000
  S    -94.863600   54.504400  123.296000
  C    -95.481300   55.151700  124.811000
  C    -94.641200   55.027000  125.854000
  C    -93.437500   54.336900  125.493000
  C    -93.416400   53.976100  124.169000
  H    -94.879500   55.388700  126.867000
  C    -92.305800   54.115400  126.434000
  H    -91.707400   53.289000  126.096000
  H    -92.724500   53.844900  127.397000
  C    -91.372500   55.288800  126.749000
  H    -90.897200   55.021100  127.682000
  H    -91.978800   56.102000  127.055000
  C    -90.381900   55.732900  125.688000
  H    -89.645400   56.436200  126.116000
  H    -90.843100   56.241800  124.836000
  H    -89.940700   54.841300  125.345000
  H    -90.289400   51.586900  121.212000
  H    -96.489900   55.552200  124.857000

 Total Charge           Charge          ....    0
 Multiplicity           Mult            ....    1
 Number of Electrons    NEL             ....  134
 Basis Dimension        Dim             ....  322

ORBITAL ENERGIES
----------------

  NO   OCC          E(Eh)            E(eV)
   0   2.0000     -88.971609     -2421.0406
   1   2.0000     -88.962112     -2420.7821
   2   2.0000     -10.324621      -280.9472
   3   2.0000     -10.321763      -280.8695
   4   2.0000     -10.315133      -280.6890
   5   2.0000     -10.306932      -280.4659
   6   2.0000     -10.301070      -280.3064
   7   2.0000     -10.297598      -280.2119
   8   2.0000     -10.297395      -280.2064
   9   2.0000     -10.292974      -280.0861
  10   2.0000     -10.287963      -279.9497
  11   2.0000     -10.283668      -279.8328
  12   2.0000     -10.282121      -279.7907
  13   2.0000     -10.275293      -279.6049
  14   2.0000     -10.271838      -279.5109
  15   2.0000     -10.267989      -279.4062
  16   2.0000      -8.086001      -220.0313
  17   2.0000      -8.076943      -219.7848
  18   2.0000      -6.044402      -164.4765
  19   2.0000      -6.040558      -164.3719
  20   2.0000      -6.036915      -164.2728
  21   2.0000      -6.035392      -164.2314
  22   2.0000      -6.031653      -164.1296
  23   2.0000      -6.027553      -164.0181
  24   2.0000      -1.006379       -27.3850
  25   2.0000      -0.983585       -26.7647
  26   2.0000      -0.917227       -24.9590
  27   2.0000      -0.909567       -24.7506
  28   2.0000      -0.868557       -23.6346
  29   2.0000      -0.855583       -23.2816
  30   2.0000      -0.848064       -23.0770
  31   2.0000      -0.813998       -22.1500
  32   2.0000      -0.786455       -21.4005
  33   2.0000      -0.773455       -21.0468
  34   2.0000      -0.709611       -19.3095
  35   2.0000      -0.701290       -19.0831
  36   2.0000      -0.691069       -18.8050
  37   2.0000      -0.658351       -17.9147
  38   2.0000      -0.641728       -17.4623
  39   2.0000      -0.616195       -16.7675
  40   2.0000      -0.599430       -16.3113
  41   2.0000      -0.577480       -15.7140
  42   2.0000      -0.567260       -15.4359
  43   2.0000      -0.549899       -14.9635
  44   2.0000      -0.541898       -14.7458
  45   2.0000      -0.526729       -14.3330
  46   2.0000      -0.518147       -14.0995
  47   2.0000      -0.512253       -13.9391
  48   2.0000      -0.505159       -13.7461
  49   2.0000      -0.494544       -13.4572
  50   2.0000      -0.490066       -13.3354
  51   2.0000      -0.479728       -13.0541
  52   2.0000      -0.473108       -12.8739
  53   2.0000      -0.461413       -12.5557
  54   2.0000      -0.455925       -12.4064
  55   2.0000      -0.454431       -12.3657
  56   2.0000      -0.445831       -12.1317
  57   2.0000      -0.442148       -12.0315
  58   2.0000      -0.435594       -11.8531
  59   2.0000      -0.422818       -11.5055
  60   2.0000      -0.421079       -11.4581
  61   2.0000      -0.415482       -11.3058
  62   2.0000      -0.411932       -11.2092
  63   2.0000      -0.342149        -9.3104
  64   2.0000      -0.333066        -9.0632
  65   2.0000      -0.327992        -8.9251
  66   2.0000      -0.293859        -7.9963
  67   0.0000       0.038490         1.0474
  68   0.0000       0.067103         1.8260
  69   0.0000       0.114079         3.1043
  70   0.0000       0.122936         3.3453
  71   0.0000       0.127747         3.4762

MULLIKEN ATOMIC CHARGES
-----------------------
   0 S :    0.135252
   1 C :   -0.083947
   2 C :   -0.113785
   3 C :    0.057210
   4 C :   -0.179558
   5 H :   -0.004430
   6 C :    0.097115
   7 H :    0.011311
   8 H :    0.052202
   9 C :   -0.088574
  10 H :    0.021060
  11 H :    0.035629
  12 C :   -0.033617
  13 H :    0.008823
  14 H :    0.026312
  15 H :    0.033897
  16 S :    0.097323
  17 C :   -0.093126
  18 C :   -0.022628
  19 C :   -0.034066
  20 C :   -0.164018
  21 H :    0.025605
  22 C :    0.080517
  23 H :    0.014052
  24 H :    0.009471
  25 C :   -0.050125
  26 H :    0.016745
  27 H :    0.000752
  28 C :   -0.017707
  29 H :    0.037432
  30 H :    0.037350
  31 H :    0.019184
  32 H :    0.010903
  33 H :    0.057435
Sum of atomic charges:    0.0000000

LOEWDIN ATOMIC CHARGES
----------------------
   0 S :    0.424266
   1 C :   -0.196225
   2 C :   -0.055047
   3 C :   -0.057610
   4 C :   -0.203211
   5 H :    0.023944
   6 C :   -0.031292
   7 H :    0.025548
   8 H :    0.046694
   9 C :   -0.044622
  10 H :    0.017118
  11 H :    0.030100
  12 C :   -0.053165
  13 H :    0.007424
  14 H :    0.021847
  15 H :    0.032414
  16 S :    0.381948
  17 C :   -0.171888
  18 C :   -0.072557
  19 C :   -0.055521
  20 C :   -0.194210
  21 H :    0.037726
  22 C :   -0.030212
  23 H :    0.026152
  24 H :    0.030760
  25 C :   -0.036696
  26 H :    0.023558
  27 H :    0.014403
  28 C :   -0.060180
  29 H :    0.031418
  30 H :    0.028250
  31 H :    0.018623
  32 H :    0.011926
  33 H :    0.028316

  Mayer bond orders larger than 0.100000
B(  0-S ,  1-C ) :   1.1345 B(  0-S ,  4-C ) :   1.1678 B(  1-C ,  2-C ) :   1.6122
B(  1-C , 32-H ) :   0.9716 B(  2-C ,  3-C ) :   1.2614 B(  2-C ,  6-C ) :   1.0095
B(  3-C ,  4-C ) :   1.5676 B(  3-C ,  5-H ) :   0.9982 B(  4-C , 20-C ) :   1.0070
B(  6-C ,  7-H ) :   0.9470 B(  6-C ,  8-H ) :   0.9204 B(  6-C ,  9-C ) :   1.0786
B(  9-C , 10-H ) :   0.9619 B(  9-C , 11-H ) :   0.9460 B(  9-C , 12-C ) :   1.0882
B( 12-C , 13-H ) :   0.9758 B( 12-C , 14-H ) :   0.9756 B( 12-C , 15-H ) :   0.9738
B( 16-S , 17-C ) :   1.1430 B( 16-S , 20-C ) :   1.1234 B( 17-C , 18-C ) :   1.6397
B( 17-C , 33-H ) :   0.9650 B( 18-C , 19-C ) :   1.2057 B( 18-C , 21-H ) :   0.9886
B( 19-C , 20-C ) :   1.6378 B( 19-C , 22-C ) :   1.0613 B( 22-C , 23-H ) :   0.9260
B( 22-C , 24-H ) :   0.9188 B( 22-C , 25-C ) :   1.0909 B( 25-C , 26-H ) :   0.9508
B( 25-C , 27-H ) :   0.9477 B( 25-C , 28-C ) :   1.0759 B( 28-C , 29-H ) :   0.9717
B( 28-C , 30-H ) :   0.9748 B( 28-C , 31-H ) :   0.9749

Dispersion correction           -0.014559943
FINAL SINGLE POINT ENERGY     -1339.878564424644

DIPOLE MOMENT
-------------
                                X             Y             Z
Electronic contribution:    -13.49682      15.09470      -7.83400
Nuclear contribution   :     13.54944     -15.52205       8.24733
                        -----------------------------------------
Total Dipole Moment    :      0.05261      -0.42734       0.41333
                        -----------------------------------------
Magnitude (a.u.)       :      0.59685
Magnitude (Debye)      :      1.51707

Rotational constants in cm-1:     0.021757     0.007450     0.006784
Rotational constants in MHz :   652.260866   223.339218   203.391023

                             ****ORCA TERMINATED NORMALLY****
TOTAL RUN TIME: 0 days 0 hours 0 minutes 34 seconds 316 msec
