                         Program Version 4.2.1 -  RELEASE  -
|  1> ! wB97X-D3 SP def2-SVP
|  2> %pal
|  3> nprocs 16
|  4> end
|  5>
|  6> * xyz 0 1
|  7> S 	 -46.0357 	 32.3606 	 94.4491
|  8> C 	 -46.3622 	 31.1033 	 93.3245
|  9> C 	 -47.1884 	 31.5576 	 92.3343
| 10> C 	 -47.5893 	 32.9308 	 92.5354
| 11> C 	 -47.044 	 33.5361 	 93.6539
| 12> H 	 -48.1277 	 33.5308 	 91.8317
| 13> C 	 -47.5316 	 30.7511 	 91.0846
| 14> H 	 -48.6353 	 30.5918 	 91.1699
| 15> H 	 -47.1038 	 29.7488 	 91.2703
| 16> C 	 -47.1515 	 31.4068 	 89.6892
| 17> H 	 -47.6143 	 32.3858 	 89.59
| 18> H 	 -46.1127 	 31.4837 	 89.6554
| 19> C 	 -47.7395 	 30.6958 	 88.4911
| 20> H 	 -48.8596 	 30.6882 	 88.4471
| 21> H 	 -47.3691 	 31.1081 	 87.57
| 22> H 	 -47.5385 	 29.6595 	 88.4572
| 23> S 	 -45.6859 	 35.8788 	 94.0264
| 24> C 	 -46.5815 	 37.4095 	 94.0875
| 25> C 	 -47.9559 	 37.1013 	 94.0935
| 26> C 	 -48.276 	 35.7466 	 93.9762
| 27> C 	 -47.1814 	 34.9216 	 94.0388
| 28> H 	 -48.6147 	 37.9327 	 94.2444
| 29> C 	 -49.7234 	 35.2947 	 93.8496
| 30> H 	 -49.8267 	 34.631 	 92.9981
| 31> H 	 -50.3798 	 36.166 	 93.6466
| 32> C 	 -50.2814 	 34.641 	 95.0615
| 33> H 	 -50.4197 	 35.318 	 95.8564
| 34> H 	 -49.5576 	 33.9346 	 95.4779
| 35> C 	 -51.6319 	 34.0596 	 94.7598
| 36> H 	 -51.5725 	 33.2265 	 94.0412
| 37> H 	 -52.2472 	 34.8162 	 94.3149
| 38> H 	 -52.1314 	 33.5924 	 95.6311
| 39> H 	 -45.9853 	 30.1505 	 93.3322
| 40> H 	 -46.1521 	 38.309 	 94.3804
| 41> *
| 42>
| 43>                          ****END OF INPUT****

CARTESIAN COORDINATES (ANGSTROEM)
---------------------------------
  S    -46.035700   32.360600   94.449100
  C    -46.362200   31.103300   93.324500
  C    -47.188400   31.557600   92.334300
  C    -47.589300   32.930800   92.535400
  C    -47.044000   33.536100   93.653900
  H    -48.127700   33.530800   91.831700
  C    -47.531600   30.751100   91.084600
  H    -48.635300   30.591800   91.169900
  H    -47.103800   29.748800   91.270300
  C    -47.151500   31.406800   89.689200
  H    -47.614300   32.385800   89.590000
  H    -46.112700   31.483700   89.655400
  C    -47.739500   30.695800   88.491100
  H    -48.859600   30.688200   88.447100
  H    -47.369100   31.108100   87.570000
  H    -47.538500   29.659500   88.457200
  S    -45.685900   35.878800   94.026400
  C    -46.581500   37.409500   94.087500
  C    -47.955900   37.101300   94.093500
  C    -48.276000   35.746600   93.976200
  C    -47.181400   34.921600   94.038800
  H    -48.614700   37.932700   94.244400
  C    -49.723400   35.294700   93.849600
  H    -49.826700   34.631000   92.998100
  H    -50.379800   36.166000   93.646600
  C    -50.281400   34.641000   95.061500
  H    -50.419700   35.318000   95.856400
  H    -49.557600   33.934600   95.477900
  C    -51.631900   34.059600   94.759800
  H    -51.572500   33.226500   94.041200
  H    -52.247200   34.816200   94.314900
  H    -52.131400   33.592400   95.631100
  H    -45.985300   30.150500   93.332200
  H    -46.152100   38.309000   94.380400

 Total Charge           Charge          ....    0
 Multiplicity           Mult            ....    1
 Number of Electrons    NEL             ....  134
 Basis Dimension        Dim             ....  322

ORBITAL ENERGIES
----------------

  NO   OCC          E(Eh)            E(eV)
   0   2.0000     -88.964247     -2420.8402
   1   2.0000     -88.963803     -2420.8281
   2   2.0000     -10.328465      -281.0518
   3   2.0000     -10.327541      -281.0267
   4   2.0000     -10.318538      -280.7817
   5   2.0000     -10.305970      -280.4397
   6   2.0000     -10.302094      -280.3342
   7   2.0000     -10.299932      -280.2754
   8   2.0000     -10.299566      -280.2654
   9   2.0000     -10.294788      -280.1354
  10   2.0000     -10.292300      -280.0677
  11   2.0000     -10.289326      -279.9868
  12   2.0000     -10.288243      -279.9573
  13   2.0000     -10.275771      -279.6179
  14   2.0000     -10.274029      -279.5705
  15   2.0000     -10.272674      -279.5337
  16   2.0000      -8.079243      -219.8474
  17   2.0000      -8.078377      -219.8238
  18   2.0000      -6.037807      -164.2971
  19   2.0000      -6.036977      -164.2745
  20   2.0000      -6.033462      -164.1788
  21   2.0000      -6.032848      -164.1622
  22   2.0000      -6.030089      -164.0871
  23   2.0000      -6.029169      -164.0620
  24   2.0000      -1.009714       -27.4757
  25   2.0000      -0.986234       -26.8368
  26   2.0000      -0.918417       -24.9914
  27   2.0000      -0.907118       -24.6839
  28   2.0000      -0.875701       -23.8290
  29   2.0000      -0.854181       -23.2434
  30   2.0000      -0.847370       -23.0581
  31   2.0000      -0.816528       -22.2189
  32   2.0000      -0.779889       -21.2219
  33   2.0000      -0.772148       -21.0112
  34   2.0000      -0.714896       -19.4533
  35   2.0000      -0.703519       -19.1437
  36   2.0000      -0.697170       -18.9710
  37   2.0000      -0.668539       -18.1919
  38   2.0000      -0.646624       -17.5955
  39   2.0000      -0.619302       -16.8521
  40   2.0000      -0.599707       -16.3189
  41   2.0000      -0.572551       -15.5799
  42   2.0000      -0.568810       -15.4781
  43   2.0000      -0.563952       -15.3459
  44   2.0000      -0.529958       -14.4209
  45   2.0000      -0.529372       -14.4050
  46   2.0000      -0.517576       -14.0840
  47   2.0000      -0.511426       -13.9166
  48   2.0000      -0.506883       -13.7930
  49   2.0000      -0.505504       -13.7555
  50   2.0000      -0.503585       -13.7032
  51   2.0000      -0.483492       -13.1565
  52   2.0000      -0.468514       -12.7489
  53   2.0000      -0.464015       -12.6265
  54   2.0000      -0.460107       -12.5202
  55   2.0000      -0.447307       -12.1718
  56   2.0000      -0.443706       -12.0739
  57   2.0000      -0.435314       -11.8455
  58   2.0000      -0.432637       -11.7727
  59   2.0000      -0.425241       -11.5714
  60   2.0000      -0.420479       -11.4418
  61   2.0000      -0.416282       -11.3276
  62   2.0000      -0.412459       -11.2236
  63   2.0000      -0.348643        -9.4871
  64   2.0000      -0.332674        -9.0525
  65   2.0000      -0.325975        -8.8702
  66   2.0000      -0.296317        -8.0632
  67   0.0000       0.025369         0.6903
  68   0.0000       0.070904         1.9294
  69   0.0000       0.115419         3.1407
  70   0.0000       0.127304         3.4641
  71   0.0000       0.131177         3.5695

MULLIKEN ATOMIC CHARGES
-----------------------
   0 S :    0.110416
   1 C :   -0.079054
   2 C :   -0.102603
   3 C :    0.030528
   4 C :   -0.159985
   5 H :    0.010473
   6 C :    0.045560
   7 H :    0.035979
   8 H :    0.016529
   9 C :   -0.035339
  10 H :    0.033758
  11 H :    0.030036
  12 C :   -0.041920
  13 H :    0.029553
  14 H :    0.031253
  15 H :    0.012339
  16 S :    0.089245
  17 C :   -0.077282
  18 C :   -0.044338
  19 C :   -0.028768
  20 C :   -0.123503
  21 H :    0.015704
  22 C :    0.067467
  23 H :    0.014286
  24 H :    0.016912
  25 C :   -0.034887
  26 H :    0.009052
  27 H :    0.031483
  28 C :   -0.042871
  29 H :    0.026384
  30 H :    0.021123
  31 H :    0.036810
  32 H :    0.011377
  33 H :    0.044285
Sum of atomic charges:   -0.0000000

LOEWDIN ATOMIC CHARGES
----------------------
   0 S :    0.419850
   1 C :   -0.194551
   2 C :   -0.066109
   3 C :   -0.059910
   4 C :   -0.202921
   5 H :    0.024505
   6 C :   -0.033623
   7 H :    0.034948
   8 H :    0.028697
   9 C :   -0.029266
  10 H :    0.029267
  11 H :    0.019829
  12 C :   -0.065139
  13 H :    0.030207
  14 H :    0.025985
  15 H :    0.015491
  16 S :    0.393326
  17 C :   -0.168422
  18 C :   -0.064211
  19 C :   -0.055918
  20 C :   -0.190254
  21 H :    0.029007
  22 C :   -0.026605
  23 H :    0.026616
  24 H :    0.032156
  25 C :   -0.040991
  26 H :    0.018656
  27 H :    0.026730
  28 C :   -0.062829
  29 H :    0.024577
  30 H :    0.020787
  31 H :    0.029833
  32 H :    0.013656
  33 H :    0.016625

  Mayer bond orders larger than 0.100000
B(  0-S ,  1-C ) :   1.1398 B(  0-S ,  4-C ) :   1.1509 B(  1-C ,  2-C ) :   1.6097
B(  1-C , 32-H ) :   0.9778 B(  2-C ,  3-C ) :   1.2420 B(  2-C ,  6-C ) :   1.0250
B(  3-C ,  4-C ) :   1.5732 B(  3-C ,  5-H ) :   0.9911 B(  4-C , 20-C ) :   1.0243
B(  6-C ,  7-H ) :   0.9373 B(  6-C ,  8-H ) :   0.9420 B(  6-C ,  9-C ) :   1.0520
B(  9-C , 10-H ) :   0.9545 B(  9-C , 11-H ) :   0.9594 B(  9-C , 12-C ) :   1.0866
B( 12-C , 13-H ) :   0.9739 B( 12-C , 14-H ) :   0.9729 B( 12-C , 15-H ) :   0.9736
B( 16-S , 17-C ) :   1.1636 B( 16-S , 20-C ) :   1.1438 B( 17-C , 18-C ) :   1.5796
B( 17-C , 20-C ) :   0.1144 B( 17-C , 33-H ) :   0.9731 B( 18-C , 19-C ) :   1.2682
B( 18-C , 21-H ) :   0.9927 B( 19-C , 20-C ) :   1.5783 B( 19-C , 22-C ) :   1.0349
B( 22-C , 23-H ) :   0.9335 B( 22-C , 24-H ) :   0.9287 B( 22-C , 25-C ) :   1.0743
B( 25-C , 26-H ) :   0.9454 B( 25-C , 27-H ) :   0.9538 B( 25-C , 28-C ) :   1.0871
B( 28-C , 29-H ) :   0.9743 B( 28-C , 30-H ) :   0.9697 B( 28-C , 31-H ) :   0.9715

Dispersion correction           -0.013957593
FINAL SINGLE POINT ENERGY     -1339.879664553725

DIPOLE MOMENT
-------------
                                X             Y             Z
Electronic contribution:     21.06444       9.41126      14.68231
Nuclear contribution   :    -21.55186      -9.43088     -15.10129
                        -----------------------------------------
Total Dipole Moment    :     -0.48742      -0.01962      -0.41897
                        -----------------------------------------
Magnitude (a.u.)       :      0.64304
Magnitude (Debye)      :      1.63448

Rotational constants in cm-1:     0.016650     0.008480     0.007340
Rotational constants in MHz :   499.162872   254.223082   220.062569

                             ****ORCA TERMINATED NORMALLY****
TOTAL RUN TIME: 0 days 0 hours 0 minutes 30 seconds 11 msec
