                         Program Version 4.2.1 -  RELEASE  -
|  1> ! wB97X-D3 SP def2-SVP
|  2> %pal
|  3> nprocs 16
|  4> end
|  5>
|  6> * xyz 0 1
|  7> S 	 -112.563 	 49.5011 	 131.428
|  8> C 	 -111.987 	 51.1148 	 132.033
|  9> C 	 -112.668 	 51.5774 	 133.11
| 10> C 	 -113.642 	 50.6443 	 133.527
| 11> C 	 -113.82 	 49.4903 	 132.723
| 12> H 	 -114.227 	 50.7058 	 134.473
| 13> C 	 -112.353 	 52.8543 	 133.898
| 14> H 	 -113.155 	 53.3556 	 134.451
| 15> H 	 -112.033 	 53.7268 	 133.328
| 16> C 	 -111.153 	 52.5715 	 134.799
| 17> H 	 -111.414 	 52.032 	 135.688
| 18> H 	 -110.377 	 51.8649 	 134.397
| 19> C 	 -110.421 	 53.8764 	 135.169
| 20> H 	 -111.044 	 54.6276 	 135.682
| 21> H 	 -109.558 	 53.6896 	 135.811
| 22> H 	 -110.043 	 54.324 	 134.313
| 23> S 	 -115.141 	 47.5463 	 131.368
| 24> C 	 -116.199 	 46.532 	 132.278
| 25> C 	 -116.295 	 46.8278 	 133.581
| 26> C 	 -115.472 	 47.9449 	 133.951
| 27> C 	 -114.789 	 48.4444 	 132.87
| 28> H 	 -116.814 	 46.1187 	 134.198
| 29> C 	 -115.182 	 48.3899 	 135.385
| 30> H 	 -114.165 	 48.8361 	 135.464
| 31> H 	 -115.193 	 47.5103 	 136.101
| 32> C 	 -116.166 	 49.3337 	 136.072
| 33> H 	 -117.149 	 48.8723 	 136.115
| 34> H 	 -116.275 	 50.2341 	 135.444
| 35> C 	 -115.684 	 49.894 	 137.381
| 36> H 	 -114.67 	 50.297 	 137.295
| 37> H 	 -115.594 	 49.1895 	 138.21
| 38> H 	 -116.314 	 50.651 	 137.871
| 39> H 	 -111.119 	 51.5319 	 131.56
| 40> H 	 -116.745 	 45.6452 	 131.886
| 41> *
| 42>
| 43>                          ****END OF INPUT****

CARTESIAN COORDINATES (ANGSTROEM)
---------------------------------
  S    -112.563000   49.501100  131.428000
  C    -111.987000   51.114800  132.033000
  C    -112.668000   51.577400  133.110000
  C    -113.642000   50.644300  133.527000
  C    -113.820000   49.490300  132.723000
  H    -114.227000   50.705800  134.473000
  C    -112.353000   52.854300  133.898000
  H    -113.155000   53.355600  134.451000
  H    -112.033000   53.726800  133.328000
  C    -111.153000   52.571500  134.799000
  H    -111.414000   52.032000  135.688000
  H    -110.377000   51.864900  134.397000
  C    -110.421000   53.876400  135.169000
  H    -111.044000   54.627600  135.682000
  H    -109.558000   53.689600  135.811000
  H    -110.043000   54.324000  134.313000
  S    -115.141000   47.546300  131.368000
  C    -116.199000   46.532000  132.278000
  C    -116.295000   46.827800  133.581000
  C    -115.472000   47.944900  133.951000
  C    -114.789000   48.444400  132.870000
  H    -116.814000   46.118700  134.198000
  C    -115.182000   48.389900  135.385000
  H    -114.165000   48.836100  135.464000
  H    -115.193000   47.510300  136.101000
  C    -116.166000   49.333700  136.072000
  H    -117.149000   48.872300  136.115000
  H    -116.275000   50.234100  135.444000
  C    -115.684000   49.894000  137.381000
  H    -114.670000   50.297000  137.295000
  H    -115.594000   49.189500  138.210000
  H    -116.314000   50.651000  137.871000
  H    -111.119000   51.531900  131.560000
  H    -116.745000   45.645200  131.886000

 Total Charge           Charge          ....    0
 Multiplicity           Mult            ....    1
 Number of Electrons    NEL             ....  134
 Basis Dimension        Dim             ....  322

ORBITAL ENERGIES
----------------

  NO   OCC          E(Eh)            E(eV)
   0   2.0000     -88.967638     -2420.9325
   1   2.0000     -88.965694     -2420.8796
   2   2.0000     -10.336171      -281.2615
   3   2.0000     -10.328364      -281.0491
   4   2.0000     -10.317330      -280.7488
   5   2.0000     -10.314388      -280.6688
   6   2.0000     -10.307434      -280.4795
   7   2.0000     -10.305870      -280.4370
   8   2.0000     -10.300133      -280.2809
   9   2.0000     -10.299058      -280.2516
  10   2.0000     -10.298224      -280.2289
  11   2.0000     -10.290865      -280.0287
  12   2.0000     -10.287594      -279.9397
  13   2.0000     -10.287210      -279.9292
  14   2.0000     -10.280611      -279.7496
  15   2.0000     -10.274830      -279.5923
  16   2.0000      -8.080779      -219.8892
  17   2.0000      -8.080525      -219.8823
  18   2.0000      -6.039317      -164.3382
  19   2.0000      -6.039188      -164.3347
  20   2.0000      -6.035448      -164.2329
  21   2.0000      -6.035421      -164.2321
  22   2.0000      -6.031303      -164.1201
  23   2.0000      -6.031091      -164.1143
  24   2.0000      -1.007127       -27.4053
  25   2.0000      -0.980339       -26.6764
  26   2.0000      -0.913862       -24.8674
  27   2.0000      -0.913079       -24.8461
  28   2.0000      -0.874247       -23.7895
  29   2.0000      -0.856865       -23.3165
  30   2.0000      -0.841845       -22.9078
  31   2.0000      -0.812656       -22.1135
  32   2.0000      -0.786130       -21.3917
  33   2.0000      -0.775525       -21.1031
  34   2.0000      -0.710173       -19.3248
  35   2.0000      -0.705388       -19.1946
  36   2.0000      -0.695044       -18.9131
  37   2.0000      -0.665085       -18.0979
  38   2.0000      -0.639701       -17.4071
  39   2.0000      -0.621882       -16.9223
  40   2.0000      -0.599539       -16.3143
  41   2.0000      -0.573076       -15.5942
  42   2.0000      -0.570603       -15.5269
  43   2.0000      -0.553243       -15.0545
  44   2.0000      -0.525304       -14.2942
  45   2.0000      -0.522593       -14.2205
  46   2.0000      -0.520360       -14.1597
  47   2.0000      -0.514450       -13.9989
  48   2.0000      -0.505313       -13.7503
  49   2.0000      -0.494175       -13.4472
  50   2.0000      -0.490093       -13.3361
  51   2.0000      -0.480195       -13.0668
  52   2.0000      -0.473176       -12.8758
  53   2.0000      -0.465171       -12.6579
  54   2.0000      -0.458780       -12.4840
  55   2.0000      -0.454772       -12.3750
  56   2.0000      -0.447036       -12.1645
  57   2.0000      -0.440190       -11.9782
  58   2.0000      -0.435402       -11.8479
  59   2.0000      -0.425017       -11.5653
  60   2.0000      -0.422881       -11.5072
  61   2.0000      -0.415137       -11.2964
  62   2.0000      -0.409528       -11.1438
  63   2.0000      -0.361700        -9.8424
  64   2.0000      -0.336712        -9.1624
  65   2.0000      -0.332541        -9.0489
  66   2.0000      -0.281184        -7.6514
  67   0.0000       0.017045         0.4638
  68   0.0000       0.073168         1.9910
  69   0.0000       0.099784         2.7153
  70   0.0000       0.121950         3.3184
  71   0.0000       0.128950         3.5089

MULLIKEN ATOMIC CHARGES
-----------------------
   0 S :    0.082517
   1 C :   -0.140439
   2 C :   -0.005786
   3 C :   -0.014937
   4 C :   -0.122125
   5 H :    0.008933
   6 C :    0.075950
   7 H :    0.031231
   8 H :    0.017609
   9 C :   -0.090604
  10 H :    0.018412
  11 H :    0.039452
  12 C :   -0.043433
  13 H :    0.030437
  14 H :    0.031334
  15 H :    0.017894
  16 S :    0.097944
  17 C :   -0.089675
  18 C :   -0.024701
  19 C :   -0.003462
  20 C :   -0.128704
  21 H :    0.013400
  22 C :   -0.013409
  23 H :    0.034697
  24 H :    0.032585
  25 C :   -0.052231
  26 H :    0.028600
  27 H :    0.029750
  28 C :   -0.048849
  29 H :    0.023793
  30 H :    0.017433
  31 H :    0.037971
  32 H :    0.045280
  33 H :    0.063132
Sum of atomic charges:    0.0000000

LOEWDIN ATOMIC CHARGES
----------------------
   0 S :    0.349846
   1 C :   -0.161794
   2 C :   -0.059477
   3 C :   -0.067480
   4 C :   -0.172919
   5 H :    0.034213
   6 C :   -0.031084
   7 H :    0.035562
   8 H :    0.031767
   9 C :   -0.042172
  10 H :    0.017704
  11 H :    0.032418
  12 C :   -0.064540
  13 H :    0.025286
  14 H :    0.028050
  15 H :    0.013178
  16 S :    0.391398
  17 C :   -0.188866
  18 C :   -0.072636
  19 C :   -0.053259
  20 C :   -0.175729
  21 H :    0.033150
  22 C :   -0.037658
  23 H :    0.031184
  24 H :    0.036631
  25 C :   -0.047079
  26 H :    0.024666
  27 H :    0.023515
  28 C :   -0.072410
  29 H :    0.024957
  30 H :    0.021373
  31 H :    0.031440
  32 H :    0.022335
  33 H :    0.038430

  Mayer bond orders larger than 0.100000
B(  0-S ,  1-C ) :   1.1195 B(  0-S ,  4-C ) :   1.1212 B(  1-C ,  2-C ) :   1.6172
B(  1-C ,  4-C ) :   0.1035 B(  1-C , 32-H ) :   0.9716 B(  2-C ,  3-C ) :   1.2427
B(  2-C ,  6-C ) :   1.0174 B(  3-C ,  4-C ) :   1.5634 B(  3-C ,  5-H ) :   0.9804
B(  4-C , 20-C ) :   1.1102 B(  6-C ,  7-H ) :   0.9411 B(  6-C ,  8-H ) :   0.9495
B(  6-C ,  9-C ) :   1.0385 B(  9-C , 10-H ) :   0.9543 B(  9-C , 11-H ) :   0.9620
B(  9-C , 12-C ) :   1.0807 B( 12-C , 13-H ) :   0.9743 B( 12-C , 14-H ) :   0.9725
B( 12-C , 15-H ) :   0.9756 B( 16-S , 17-C ) :   1.1359 B( 16-S , 20-C ) :   1.1113
B( 17-C , 18-C ) :   1.6762 B( 17-C , 33-H ) :   0.9548 B( 18-C , 19-C ) :   1.1973
B( 18-C , 21-H ) :   0.9912 B( 19-C , 20-C ) :   1.6228 B( 19-C , 22-C ) :   1.0340
B( 22-C , 23-H ) :   0.9387 B( 22-C , 24-H ) :   0.9370 B( 22-C , 25-C ) :   1.0601
B( 25-C , 26-H ) :   0.9506 B( 25-C , 27-H ) :   0.9499 B( 25-C , 28-C ) :   1.0818
B( 28-C , 29-H ) :   0.9700 B( 28-C , 30-H ) :   0.9710 B( 28-C , 31-H ) :   0.9730

Dispersion correction           -0.013953131
FINAL SINGLE POINT ENERGY     -1339.876374655508

DIPOLE MOMENT
-------------
                                X             Y             Z
Electronic contribution:     -4.49587     -18.16311     -27.67442
Nuclear contribution   :      4.53648      18.35469      28.39441
                        -----------------------------------------
Total Dipole Moment    :      0.04061       0.19158       0.71999
                        -----------------------------------------
Magnitude (a.u.)       :      0.74615
Magnitude (Debye)      :      1.89657

Rotational constants in cm-1:     0.018365     0.009003     0.006247
Rotational constants in MHz :   550.555641   269.915136   187.278795

                             ****ORCA TERMINATED NORMALLY****
TOTAL RUN TIME: 0 days 0 hours 0 minutes 33 seconds 720 msec
