                         Program Version 4.2.1 -  RELEASE  -
|  1> ! wB97X-D3 SP def2-SVP
|  2> %pal
|  3> nprocs 16
|  4> end
|  5>
|  6> * xyz 0 1
|  7> S 	 -44.0012 	 17.0567 	 72.9204
|  8> C 	 -43.1697 	 16.0122 	 71.7706
|  9> C 	 -42.558 	 16.7686 	 70.7964
| 10> C 	 -42.8441 	 18.1615 	 70.9098
| 11> C 	 -43.7401 	 18.4304 	 71.9253
| 12> H 	 -42.5706 	 18.9405 	 70.2617
| 13> C 	 -41.6506 	 16.1555 	 69.7736
| 14> H 	 -41.8567 	 16.7068 	 68.8109
| 15> H 	 -41.8536 	 15.0955 	 69.5012
| 16> C 	 -40.1112 	 16.1094 	 70.1102
| 17> H 	 -39.9703 	 15.6506 	 71.116
| 18> H 	 -39.6235 	 15.4433 	 69.3319
| 19> C 	 -39.5571 	 17.5697 	 70.0522
| 20> H 	 -39.9657 	 18.1149 	 70.8514
| 21> H 	 -38.5019 	 17.7318 	 70.1012
| 22> H 	 -39.8959 	 18.1847 	 69.1928
| 23> S 	 -44.9265 	 20.841 	 70.9271
| 24> C 	 -45.5249 	 22.0125 	 72.1042
| 25> C 	 -45.3662 	 21.5362 	 73.392
| 26> C 	 -44.6727 	 20.2786 	 73.4722
| 27> C 	 -44.3104 	 19.769 	 72.2368
| 28> H 	 -45.8024 	 22.204 	 74.155
| 29> C 	 -44.4511 	 19.7901 	 74.8933
| 30> H 	 -44.9189 	 18.7838 	 75.0959
| 31> H 	 -45.1764 	 20.3769 	 75.4419
| 32> C 	 -43.0527 	 19.9195 	 75.5772
| 33> H 	 -42.2918 	 19.2824 	 75.0597
| 34> H 	 -43.007 	 19.4532 	 76.5862
| 35> C 	 -42.6471 	 21.415 	 75.5756
| 36> H 	 -42.6527 	 21.9127 	 74.6225
| 37> H 	 -41.6621 	 21.4618 	 76.0408
| 38> H 	 -43.3606 	 22.0453 	 76.1648
| 39> H 	 -42.8922 	 14.9788 	 71.891
| 40> H 	 -45.9263 	 23 	 71.8284
| 41> *
| 42>
| 43>                          ****END OF INPUT****

CARTESIAN COORDINATES (ANGSTROEM)
---------------------------------
  S    -44.001200   17.056700   72.920400
  C    -43.169700   16.012200   71.770600
  C    -42.558000   16.768600   70.796400
  C    -42.844100   18.161500   70.909800
  C    -43.740100   18.430400   71.925300
  H    -42.570600   18.940500   70.261700
  C    -41.650600   16.155500   69.773600
  H    -41.856700   16.706800   68.810900
  H    -41.853600   15.095500   69.501200
  C    -40.111200   16.109400   70.110200
  H    -39.970300   15.650600   71.116000
  H    -39.623500   15.443300   69.331900
  C    -39.557100   17.569700   70.052200
  H    -39.965700   18.114900   70.851400
  H    -38.501900   17.731800   70.101200
  H    -39.895900   18.184700   69.192800
  S    -44.926500   20.841000   70.927100
  C    -45.524900   22.012500   72.104200
  C    -45.366200   21.536200   73.392000
  C    -44.672700   20.278600   73.472200
  C    -44.310400   19.769000   72.236800
  H    -45.802400   22.204000   74.155000
  C    -44.451100   19.790100   74.893300
  H    -44.918900   18.783800   75.095900
  H    -45.176400   20.376900   75.441900
  C    -43.052700   19.919500   75.577200
  H    -42.291800   19.282400   75.059700
  H    -43.007000   19.453200   76.586200
  C    -42.647100   21.415000   75.575600
  H    -42.652700   21.912700   74.622500
  H    -41.662100   21.461800   76.040800
  H    -43.360600   22.045300   76.164800
  H    -42.892200   14.978800   71.891000
  H    -45.926300   23.000000   71.828400

 Total Charge           Charge          ....    0
 Multiplicity           Mult            ....    1
 Number of Electrons    NEL             ....  134
 Basis Dimension        Dim             ....  322

ORBITAL ENERGIES
----------------

  NO   OCC          E(Eh)            E(eV)
   0   2.0000     -88.968964     -2420.9686
   1   2.0000     -88.968813     -2420.9645
   2   2.0000     -10.336005      -281.2570
   3   2.0000     -10.331146      -281.1248
   4   2.0000     -10.322377      -280.8861
   5   2.0000     -10.311387      -280.5871
   6   2.0000     -10.308201      -280.5004
   7   2.0000     -10.300729      -280.2971
   8   2.0000     -10.300523      -280.2915
   9   2.0000     -10.298061      -280.2245
  10   2.0000     -10.297098      -280.1983
  11   2.0000     -10.294456      -280.1264
  12   2.0000     -10.294440      -280.1260
  13   2.0000     -10.290588      -280.0211
  14   2.0000     -10.276167      -279.6287
  15   2.0000     -10.271456      -279.5005
  16   2.0000      -8.083505      -219.9633
  17   2.0000      -8.082397      -219.9332
  18   2.0000      -6.042084      -164.4135
  19   2.0000      -6.041067      -164.3858
  20   2.0000      -6.038017      -164.3028
  21   2.0000      -6.037062      -164.2768
  22   2.0000      -6.034223      -164.1996
  23   2.0000      -6.033060      -164.1679
  24   2.0000      -1.006912       -27.3995
  25   2.0000      -0.983333       -26.7578
  26   2.0000      -0.906753       -24.6740
  27   2.0000      -0.901536       -24.5320
  28   2.0000      -0.865333       -23.5469
  29   2.0000      -0.848230       -23.0815
  30   2.0000      -0.841261       -22.8919
  31   2.0000      -0.815332       -22.1863
  32   2.0000      -0.781657       -21.2700
  33   2.0000      -0.771507       -20.9938
  34   2.0000      -0.711099       -19.3500
  35   2.0000      -0.703230       -19.1359
  36   2.0000      -0.689407       -18.7597
  37   2.0000      -0.662379       -18.0242
  38   2.0000      -0.638541       -17.3756
  39   2.0000      -0.613486       -16.6938
  40   2.0000      -0.587170       -15.9777
  41   2.0000      -0.571980       -15.5644
  42   2.0000      -0.549719       -14.9586
  43   2.0000      -0.541835       -14.7441
  44   2.0000      -0.537360       -14.6223
  45   2.0000      -0.536157       -14.5896
  46   2.0000      -0.516871       -14.0648
  47   2.0000      -0.507136       -13.7999
  48   2.0000      -0.497310       -13.5325
  49   2.0000      -0.492970       -13.4144
  50   2.0000      -0.488344       -13.2885
  51   2.0000      -0.482563       -13.1312
  52   2.0000      -0.472489       -12.8571
  53   2.0000      -0.468415       -12.7462
  54   2.0000      -0.458846       -12.4858
  55   2.0000      -0.446624       -12.1532
  56   2.0000      -0.439644       -11.9633
  57   2.0000      -0.435379       -11.8473
  58   2.0000      -0.431529       -11.7425
  59   2.0000      -0.423381       -11.5208
  60   2.0000      -0.419529       -11.4160
  61   2.0000      -0.412211       -11.2168
  62   2.0000      -0.405010       -11.0209
  63   2.0000      -0.352276        -9.5859
  64   2.0000      -0.333530        -9.0758
  65   2.0000      -0.331883        -9.0310
  66   2.0000      -0.291630        -7.9357
  67   0.0000       0.021466         0.5841
  68   0.0000       0.075726         2.0606
  69   0.0000       0.102551         2.7906
  70   0.0000       0.117227         3.1899
  71   0.0000       0.125750         3.4218

MULLIKEN ATOMIC CHARGES
-----------------------
   0 S :    0.110383
   1 C :   -0.098028
   2 C :   -0.062856
   3 C :    0.024547
   4 C :   -0.130095
   5 H :   -0.006749
   6 C :   -0.004562
   7 H :    0.037690
   8 H :    0.029261
   9 C :   -0.067695
  10 H :    0.040870
  11 H :    0.045377
  12 C :   -0.047541
  13 H :    0.022940
  14 H :    0.029961
  15 H :    0.022471
  16 S :    0.094200
  17 C :   -0.116262
  18 C :   -0.050993
  19 C :   -0.056754
  20 C :   -0.116853
  21 H :    0.036589
  22 C :    0.036110
  23 H :    0.038863
  24 H :    0.009005
  25 C :   -0.046196
  26 H :    0.036922
  27 H :    0.035859
  28 C :   -0.067870
  29 H :    0.048117
  30 H :    0.036140
  31 H :    0.024172
  32 H :    0.043464
  33 H :    0.069514
Sum of atomic charges:    0.0000000

LOEWDIN ATOMIC CHARGES
----------------------
   0 S :    0.426142
   1 C :   -0.194967
   2 C :   -0.062944
   3 C :   -0.063506
   4 C :   -0.191222
   5 H :    0.021730
   6 C :   -0.041632
   7 H :    0.035193
   8 H :    0.032859
   9 C :   -0.034512
  10 H :    0.028698
  11 H :    0.029185
  12 C :   -0.074323
  13 H :    0.020521
  14 H :    0.020997
  15 H :    0.027569
  16 S :    0.379723
  17 C :   -0.183170
  18 C :   -0.077428
  19 C :   -0.063383
  20 C :   -0.177140
  21 H :    0.039905
  22 C :   -0.047489
  23 H :    0.030348
  24 H :    0.028595
  25 C :   -0.041043
  26 H :    0.027274
  27 H :    0.030566
  28 C :   -0.069685
  29 H :    0.025956
  30 H :    0.026526
  31 H :    0.025937
  32 H :    0.028805
  33 H :    0.035917

  Mayer bond orders larger than 0.100000
B(  0-S ,  1-C ) :   1.1251 B(  0-S ,  4-C ) :   1.1651 B(  1-C ,  2-C ) :   1.6198
B(  1-C , 32-H ) :   0.9655 B(  2-C ,  3-C ) :   1.2347 B(  2-C ,  6-C ) :   1.0276
B(  3-C ,  4-C ) :   1.5434 B(  3-C ,  5-H ) :   1.0044 B(  4-C , 20-C ) :   1.0569
B(  6-C ,  7-H ) :   0.9443 B(  6-C ,  8-H ) :   0.9476 B(  6-C ,  9-C ) :   1.0579
B(  9-C , 10-H ) :   0.9564 B(  9-C , 11-H ) :   0.9602 B(  9-C , 12-C ) :   1.0607
B( 12-C , 13-H ) :   0.9728 B( 12-C , 14-H ) :   0.9759 B( 12-C , 15-H ) :   0.9757
B( 16-S , 17-C ) :   1.1453 B( 16-S , 20-C ) :   1.1241 B( 17-C , 18-C ) :   1.6333
B( 17-C , 33-H ) :   0.9617 B( 18-C , 19-C ) :   1.2213 B( 18-C , 21-H ) :   0.9835
B( 19-C , 20-C ) :   1.5952 B( 19-C , 22-C ) :   1.0309 B( 22-C , 23-H ) :   0.9295
B( 22-C , 24-H ) :   0.9342 B( 22-C , 25-C ) :   1.0611 B( 25-C , 26-H ) :   0.9570
B( 25-C , 27-H ) :   0.9551 B( 25-C , 28-C ) :   1.0641 B( 28-C , 29-H ) :   0.9762
B( 28-C , 30-H ) :   0.9740 B( 28-C , 31-H ) :   0.9756

Dispersion correction           -0.015021533
FINAL SINGLE POINT ENERGY     -1339.876520345895

DIPOLE MOMENT
-------------
                                X             Y             Z
Electronic contribution:    -17.97607       0.48856      -5.18690
Nuclear contribution   :     18.23672      -0.39613       5.37918
                        -----------------------------------------
Total Dipole Moment    :      0.26065       0.09243       0.19228
                        -----------------------------------------
Magnitude (a.u.)       :      0.33683
Magnitude (Debye)      :      0.85615

Rotational constants in cm-1:     0.020280     0.008243     0.007444
Rotational constants in MHz :   607.969615   247.123454   223.162958

                             ****ORCA TERMINATED NORMALLY****
TOTAL RUN TIME: 0 days 0 hours 0 minutes 28 seconds 597 msec
