                         Program Version 4.2.1 -  RELEASE  -
|  1> ! wB97X-D3 SP def2-SVP
|  2> %pal
|  3> nprocs 16
|  4> end
|  5>
|  6> * xyz 0 1
|  7> S 	 53.9016 	 15.1142 	 78.6519
|  8> C 	 55.6131 	 15.4385 	 78.9927
|  9> C 	 56.2039 	 14.2789 	 79.5421
| 10> C 	 55.3098 	 13.2386 	 79.7497
| 11> C 	 54.0152 	 13.5055 	 79.3286
| 12> H 	 55.5561 	 12.3157 	 80.2242
| 13> C 	 57.6495 	 14.0862 	 80.074
| 14> H 	 58.3556 	 14.5583 	 79.3541
| 15> H 	 57.8631 	 13.0337 	 80.127
| 16> C 	 57.974 	 14.6759 	 81.4969
| 17> H 	 57.3431 	 14.2689 	 82.3428
| 18> H 	 58.9874 	 14.4192 	 81.8072
| 19> C 	 58.035 	 16.2637 	 81.3673
| 20> H 	 58.8115 	 16.5535 	 80.6524
| 21> H 	 56.9971 	 16.6324 	 81.1555
| 22> H 	 58.4313 	 16.5185 	 82.3293
| 23> S 	 51.3812 	 13.1524 	 80.2834
| 24> C 	 50.5761 	 11.5759 	 80.1661
| 25> C 	 51.4603 	 10.6557 	 79.6118
| 26> C 	 52.7573 	 11.173 	 79.3437
| 27> C 	 52.9075 	 12.5596 	 79.5803
| 28> H 	 51.1347 	 9.63341 	 79.6144
| 29> C 	 53.9089 	 10.3267 	 78.8729
| 30> H 	 54.3382 	 9.93116 	 79.7169
| 31> H 	 54.7549 	 10.9402 	 78.488
| 32> C 	 53.6348 	 9.16408 	 77.9284
| 33> H 	 53.2567 	 9.54681 	 77.0013
| 34> H 	 52.9071 	 8.4133 	 78.2266
| 35> C 	 54.8771 	 8.2756 	 77.6981
| 36> H 	 55.308 	 7.89322 	 78.639
| 37> H 	 55.6845 	 8.77152 	 77.1824
| 38> H 	 54.6518 	 7.41268 	 77.1456
| 39> H 	 56.0896 	 16.316 	 78.7381
| 40> H 	 49.7411 	 11.2018 	 80.6444
| 41> *
| 42>
| 43>                          ****END OF INPUT****

CARTESIAN COORDINATES (ANGSTROEM)
---------------------------------
  S     53.901600   15.114200   78.651900
  C     55.613100   15.438500   78.992700
  C     56.203900   14.278900   79.542100
  C     55.309800   13.238600   79.749700
  C     54.015200   13.505500   79.328600
  H     55.556100   12.315700   80.224200
  C     57.649500   14.086200   80.074000
  H     58.355600   14.558300   79.354100
  H     57.863100   13.033700   80.127000
  C     57.974000   14.675900   81.496900
  H     57.343100   14.268900   82.342800
  H     58.987400   14.419200   81.807200
  C     58.035000   16.263700   81.367300
  H     58.811500   16.553500   80.652400
  H     56.997100   16.632400   81.155500
  H     58.431300   16.518500   82.329300
  S     51.381200   13.152400   80.283400
  C     50.576100   11.575900   80.166100
  C     51.460300   10.655700   79.611800
  C     52.757300   11.173000   79.343700
  C     52.907500   12.559600   79.580300
  H     51.134700    9.633410   79.614400
  C     53.908900   10.326700   78.872900
  H     54.338200    9.931160   79.716900
  H     54.754900   10.940200   78.488000
  C     53.634800    9.164080   77.928400
  H     53.256700    9.546810   77.001300
  H     52.907100    8.413300   78.226600
  C     54.877100    8.275600   77.698100
  H     55.308000    7.893220   78.639000
  H     55.684500    8.771520   77.182400
  H     54.651800    7.412680   77.145600
  H     56.089600   16.316000   78.738100
  H     49.741100   11.201800   80.644400

 Total Charge           Charge          ....    0
 Multiplicity           Mult            ....    1
 Number of Electrons    NEL             ....  134
 Basis Dimension        Dim             ....  322

ORBITAL ENERGIES
----------------

  NO   OCC          E(Eh)            E(eV)
   0   2.0000     -88.973941     -2421.1040
   1   2.0000     -88.965383     -2420.8712
   2   2.0000     -10.334771      -281.2234
   3   2.0000     -10.334304      -281.2107
   4   2.0000     -10.318006      -280.7672
   5   2.0000     -10.315460      -280.6979
   6   2.0000     -10.307273      -280.4752
   7   2.0000     -10.304919      -280.4111
   8   2.0000     -10.297770      -280.2166
   9   2.0000     -10.296059      -280.1700
  10   2.0000     -10.294013      -280.1143
  11   2.0000     -10.289355      -279.9876
  12   2.0000     -10.284470      -279.8546
  13   2.0000     -10.283969      -279.8410
  14   2.0000     -10.281814      -279.7824
  15   2.0000     -10.273799      -279.5643
  16   2.0000      -8.087770      -220.0794
  17   2.0000      -8.078957      -219.8396
  18   2.0000      -6.046303      -164.5283
  19   2.0000      -6.042293      -164.4192
  20   2.0000      -6.038653      -164.3201
  21   2.0000      -6.037614      -164.2918
  22   2.0000      -6.033477      -164.1793
  23   2.0000      -6.029756      -164.0780
  24   2.0000      -1.003056       -27.2945
  25   2.0000      -0.980643       -26.6847
  26   2.0000      -0.910104       -24.7652
  27   2.0000      -0.901780       -24.5387
  28   2.0000      -0.867170       -23.5969
  29   2.0000      -0.852586       -23.2001
  30   2.0000      -0.845980       -23.0203
  31   2.0000      -0.813863       -22.1463
  32   2.0000      -0.780519       -21.2390
  33   2.0000      -0.773813       -21.0565
  34   2.0000      -0.710202       -19.3256
  35   2.0000      -0.707555       -19.2536
  36   2.0000      -0.695192       -18.9171
  37   2.0000      -0.655296       -17.8315
  38   2.0000      -0.646342       -17.5879
  39   2.0000      -0.623031       -16.9535
  40   2.0000      -0.596724       -16.2377
  41   2.0000      -0.570484       -15.5236
  42   2.0000      -0.567110       -15.4318
  43   2.0000      -0.548738       -14.9319
  44   2.0000      -0.539785       -14.6883
  45   2.0000      -0.530892       -14.4463
  46   2.0000      -0.515223       -14.0199
  47   2.0000      -0.512554       -13.9473
  48   2.0000      -0.508610       -13.8400
  49   2.0000      -0.494035       -13.4434
  50   2.0000      -0.488877       -13.3030
  51   2.0000      -0.483172       -13.1478
  52   2.0000      -0.471415       -12.8279
  53   2.0000      -0.465515       -12.6673
  54   2.0000      -0.459762       -12.5108
  55   2.0000      -0.450114       -12.2482
  56   2.0000      -0.447361       -12.1733
  57   2.0000      -0.439174       -11.9505
  58   2.0000      -0.434924       -11.8349
  59   2.0000      -0.422669       -11.5014
  60   2.0000      -0.421089       -11.4584
  61   2.0000      -0.412700       -11.2302
  62   2.0000      -0.405423       -11.0321
  63   2.0000      -0.350060        -9.5256
  64   2.0000      -0.336337        -9.1522
  65   2.0000      -0.328548        -8.9403
  66   2.0000      -0.288173        -7.8416
  67   0.0000       0.022326         0.6075
  68   0.0000       0.065447         1.7809
  69   0.0000       0.112258         3.0547
  70   0.0000       0.121083         3.2948
  71   0.0000       0.136475         3.7137

MULLIKEN ATOMIC CHARGES
-----------------------
   0 S :    0.126576
   1 C :   -0.113963
   2 C :   -0.047884
   3 C :    0.002779
   4 C :   -0.127105
   5 H :    0.007961
   6 C :    0.059839
   7 H :    0.029929
   8 H :    0.019477
   9 C :   -0.101079
  10 H :    0.045255
  11 H :    0.024513
  12 C :   -0.066299
  13 H :    0.033679
  14 H :    0.062067
  15 H :    0.027672
  16 S :    0.093494
  17 C :   -0.055814
  18 C :   -0.051991
  19 C :   -0.012639
  20 C :   -0.160906
  21 H :    0.017976
  22 C :    0.072682
  23 H :    0.006784
  24 H :    0.032510
  25 C :   -0.061964
  26 H :    0.027286
  27 H :    0.026016
  28 C :   -0.044711
  29 H :    0.021800
  30 H :    0.026329
  31 H :    0.020715
  32 H :    0.025363
  33 H :    0.033652
Sum of atomic charges:    0.0000000

LOEWDIN ATOMIC CHARGES
----------------------
   0 S :    0.413800
   1 C :   -0.182680
   2 C :   -0.057576
   3 C :   -0.062630
   4 C :   -0.193495
   5 H :    0.028529
   6 C :   -0.030624
   7 H :    0.032447
   8 H :    0.023973
   9 C :   -0.040696
  10 H :    0.029757
  11 H :    0.020422
  12 C :   -0.067746
  13 H :    0.025024
  14 H :    0.032150
  15 H :    0.021969
  16 S :    0.385717
  17 C :   -0.170571
  18 C :   -0.068902
  19 C :   -0.052188
  20 C :   -0.187329
  21 H :    0.030240
  22 C :   -0.035993
  23 H :    0.020627
  24 H :    0.038786
  25 C :   -0.036073
  26 H :    0.022533
  27 H :    0.024009
  28 C :   -0.060698
  29 H :    0.025424
  30 H :    0.020948
  31 H :    0.019585
  32 H :    0.011537
  33 H :    0.019726

  Mayer bond orders larger than 0.100000
B(  0-S ,  1-C ) :   1.1431 B(  0-S ,  4-C ) :   1.1660 B(  1-C ,  2-C ) :   1.5519
B(  1-C ,  4-C ) :   0.1054 B(  1-C , 32-H ) :   0.9826 B(  2-C ,  3-C ) :   1.2898
B(  2-C ,  6-C ) :   1.0204 B(  3-C ,  4-C ) :   1.5145 B(  3-C ,  5-H ) :   0.9977
B(  4-C , 20-C ) :   1.0596 B(  6-C ,  7-H ) :   0.9421 B(  6-C ,  8-H ) :   0.9445
B(  6-C ,  9-C ) :   1.0661 B(  9-C , 10-H ) :   0.9591 B(  9-C , 11-H ) :   0.9577
B(  9-C , 12-C ) :   1.0640 B( 12-C , 13-H ) :   0.9759 B( 12-C , 14-H ) :   0.9744
B( 12-C , 15-H ) :   0.9765 B( 16-S , 17-C ) :   1.1541 B( 16-S , 20-C ) :   1.1293
B( 17-C , 18-C ) :   1.6033 B( 17-C , 20-C ) :   0.1042 B( 17-C , 33-H ) :   0.9688
B( 18-C , 19-C ) :   1.2617 B( 18-C , 21-H ) :   0.9891 B( 19-C , 20-C ) :   1.5603
B( 19-C , 22-C ) :   1.0423 B( 22-C , 23-H ) :   0.9202 B( 22-C , 24-H ) :   0.9286
B( 22-C , 25-C ) :   1.0659 B( 25-C , 26-H ) :   0.9569 B( 25-C , 27-H ) :   0.9506
B( 25-C , 28-C ) :   1.0860 B( 28-C , 29-H ) :   0.9728 B( 28-C , 30-H ) :   0.9759
B( 28-C , 31-H ) :   0.9748

Dispersion correction           -0.013804154
FINAL SINGLE POINT ENERGY     -1339.862916640025

DIPOLE MOMENT
-------------
                                X             Y             Z
Electronic contribution:    -22.69236      12.51912      -1.40183
Nuclear contribution   :     23.28740     -13.08802       1.61342
                        -----------------------------------------
Total Dipole Moment    :      0.59504      -0.56890       0.21159
                        -----------------------------------------
Magnitude (a.u.)       :      0.85000
Magnitude (Debye)      :      2.16052

Rotational constants in cm-1:     0.018161     0.008080     0.006372
Rotational constants in MHz :   544.447858   242.241737   191.018514

                             ****ORCA TERMINATED NORMALLY****
TOTAL RUN TIME: 0 days 0 hours 0 minutes 29 seconds 645 msec
