                         Program Version 4.2.1 -  RELEASE  -
|  1> ! wB97X-D3 SP def2-SVP
|  2> %pal
|  3> nprocs 16
|  4> end
|  5>
|  6> * xyz 0 1
|  7> S 	 35.1195 	 -0.781558 	 75.7701
|  8> C 	 34.9285 	 -2.02787 	 74.6669
|  9> C 	 33.7521 	 -1.8052 	 73.9603
| 10> C 	 33.0554 	 -0.622951 	 74.2955
| 11> C 	 33.5915 	 -0.017904 	 75.4094
| 12> H 	 32.176 	 -0.083449 	 73.8879
| 13> C 	 33.2651 	 -2.68046 	 72.7548
| 14> H 	 32.4333 	 -2.18239 	 72.2737
| 15> H 	 32.8996 	 -3.56471 	 73.2942
| 16> C 	 34.3362 	 -2.98032 	 71.6956
| 17> H 	 35.2992 	 -3.4053 	 71.9988
| 18> H 	 33.8688 	 -3.79351 	 71.1189
| 19> C 	 34.4872 	 -1.78719 	 70.7312
| 20> H 	 33.5087 	 -1.39183 	 70.4182
| 21> H 	 35.003 	 -1.08319 	 71.3328
| 22> H 	 35.1199 	 -2.03589 	 69.9353
| 23> S 	 31.4512 	 1.62029 	 76.0401
| 24> C 	 31.6777 	 2.74664 	 77.4027
| 25> C 	 33.0186 	 2.96744 	 77.6656
| 26> C 	 33.8727 	 2.0942 	 76.9333
| 27> C 	 33.1593 	 1.18184 	 76.1394
| 28> H 	 33.3901 	 3.6412 	 78.3842
| 29> C 	 35.2365 	 1.97833 	 77.4261
| 30> H 	 35.4906 	 3.06897 	 77.4738
| 31> H 	 35.9326 	 1.62977 	 76.6004
| 32> C 	 35.5681 	 1.34455 	 78.7659
| 33> H 	 35.1251 	 0.379462 	 78.5825
| 34> H 	 35.0875 	 1.88252 	 79.6366
| 35> C 	 37.0202 	 1.18367 	 79.0825
| 36> H 	 37.0693 	 0.520199 	 79.9225
| 37> H 	 37.4997 	 2.1187 	 79.3862
| 38> H 	 37.6208 	 0.635747 	 78.4139
| 39> H 	 35.6593 	 -2.75047 	 74.4045
| 40> H 	 30.9095 	 3.41683 	 77.8131
| 41> *
| 42>
| 43>                          ****END OF INPUT****

CARTESIAN COORDINATES (ANGSTROEM)
---------------------------------
  S     35.119500   -0.781558   75.770100
  C     34.928500   -2.027870   74.666900
  C     33.752100   -1.805200   73.960300
  C     33.055400   -0.622951   74.295500
  C     33.591500   -0.017904   75.409400
  H     32.176000   -0.083449   73.887900
  C     33.265100   -2.680460   72.754800
  H     32.433300   -2.182390   72.273700
  H     32.899600   -3.564710   73.294200
  C     34.336200   -2.980320   71.695600
  H     35.299200   -3.405300   71.998800
  H     33.868800   -3.793510   71.118900
  C     34.487200   -1.787190   70.731200
  H     33.508700   -1.391830   70.418200
  H     35.003000   -1.083190   71.332800
  H     35.119900   -2.035890   69.935300
  S     31.451200    1.620290   76.040100
  C     31.677700    2.746640   77.402700
  C     33.018600    2.967440   77.665600
  C     33.872700    2.094200   76.933300
  C     33.159300    1.181840   76.139400
  H     33.390100    3.641200   78.384200
  C     35.236500    1.978330   77.426100
  H     35.490600    3.068970   77.473800
  H     35.932600    1.629770   76.600400
  C     35.568100    1.344550   78.765900
  H     35.125100    0.379462   78.582500
  H     35.087500    1.882520   79.636600
  C     37.020200    1.183670   79.082500
  H     37.069300    0.520199   79.922500
  H     37.499700    2.118700   79.386200
  H     37.620800    0.635747   78.413900
  H     35.659300   -2.750470   74.404500
  H     30.909500    3.416830   77.813100

 Total Charge           Charge          ....    0
 Multiplicity           Mult            ....    1
 Number of Electrons    NEL             ....  134
 Basis Dimension        Dim             ....  322

ORBITAL ENERGIES
----------------

  NO   OCC          E(Eh)            E(eV)
   0   2.0000     -88.968694     -2420.9612
   1   2.0000     -88.965339     -2420.8699
   2   2.0000     -10.332435      -281.1599
   3   2.0000     -10.328832      -281.0618
   4   2.0000     -10.322129      -280.8794
   5   2.0000     -10.307404      -280.4787
   6   2.0000     -10.301766      -280.3253
   7   2.0000     -10.299076      -280.2521
   8   2.0000     -10.293965      -280.1130
   9   2.0000     -10.292582      -280.0754
  10   2.0000     -10.292048      -280.0609
  11   2.0000     -10.287886      -279.9476
  12   2.0000     -10.287250      -279.9303
  13   2.0000     -10.286301      -279.9045
  14   2.0000     -10.269863      -279.4572
  15   2.0000     -10.269405      -279.4447
  16   2.0000      -8.082518      -219.9365
  17   2.0000      -8.080766      -219.8888
  18   2.0000      -6.041181      -164.3889
  19   2.0000      -6.039155      -164.3338
  20   2.0000      -6.037325      -164.2840
  21   2.0000      -6.034986      -164.2203
  22   2.0000      -6.033030      -164.1671
  23   2.0000      -6.031809      -164.1339
  24   2.0000      -1.012620       -27.5548
  25   2.0000      -0.987795       -26.8793
  26   2.0000      -0.915504       -24.9121
  27   2.0000      -0.908397       -24.7187
  28   2.0000      -0.872666       -23.7464
  29   2.0000      -0.859157       -23.3789
  30   2.0000      -0.848937       -23.1007
  31   2.0000      -0.815369       -22.1873
  32   2.0000      -0.783492       -21.3199
  33   2.0000      -0.769309       -20.9340
  34   2.0000      -0.707389       -19.2490
  35   2.0000      -0.703199       -19.1350
  36   2.0000      -0.688556       -18.7366
  37   2.0000      -0.672717       -18.3056
  38   2.0000      -0.643145       -17.5009
  39   2.0000      -0.605024       -16.4636
  40   2.0000      -0.592150       -16.1132
  41   2.0000      -0.578021       -15.7287
  42   2.0000      -0.570410       -15.5217
  43   2.0000      -0.557816       -15.1790
  44   2.0000      -0.538402       -14.6507
  45   2.0000      -0.530632       -14.4392
  46   2.0000      -0.520984       -14.1767
  47   2.0000      -0.516739       -14.0612
  48   2.0000      -0.506850       -13.7921
  49   2.0000      -0.496166       -13.5014
  50   2.0000      -0.489949       -13.3322
  51   2.0000      -0.479147       -13.0383
  52   2.0000      -0.472398       -12.8546
  53   2.0000      -0.468032       -12.7358
  54   2.0000      -0.459729       -12.5099
  55   2.0000      -0.451518       -12.2864
  56   2.0000      -0.448896       -12.2151
  57   2.0000      -0.441417       -12.0116
  58   2.0000      -0.433537       -11.7971
  59   2.0000      -0.425795       -11.5865
  60   2.0000      -0.415384       -11.3032
  61   2.0000      -0.402469       -10.9517
  62   2.0000      -0.397726       -10.8227
  63   2.0000      -0.362370        -9.8606
  64   2.0000      -0.330114        -8.9828
  65   2.0000      -0.329426        -8.9641
  66   2.0000      -0.280578        -7.6349
  67   0.0000       0.017834         0.4853
  68   0.0000       0.078270         2.1298
  69   0.0000       0.100667         2.7393
  70   0.0000       0.125625         3.4184
  71   0.0000       0.135648         3.6912

MULLIKEN ATOMIC CHARGES
-----------------------
   0 S :    0.088447
   1 C :   -0.083250
   2 C :   -0.117893
   3 C :   -0.005617
   4 C :   -0.125668
   5 H :    0.028805
   6 C :    0.075097
   7 H :    0.017292
   8 H :    0.045696
   9 C :   -0.099365
  10 H :    0.029689
  11 H :    0.023658
  12 C :   -0.007602
  13 H :    0.031576
  14 H :    0.026183
  15 H :    0.025026
  16 S :    0.088243
  17 C :   -0.082937
  18 C :   -0.025792
  19 C :   -0.022799
  20 C :   -0.128747
  21 H :    0.006882
  22 C :   -0.036184
  23 H :    0.018315
  24 H :    0.038665
  25 C :   -0.032093
  26 H :    0.019963
  27 H :    0.036633
  28 C :   -0.002549
  29 H :    0.017864
  30 H :    0.031897
  31 H :    0.016348
  32 H :    0.039135
  33 H :    0.065080
Sum of atomic charges:   -0.0000000

LOEWDIN ATOMIC CHARGES
----------------------
   0 S :    0.454550
   1 C :   -0.225837
   2 C :   -0.063460
   3 C :   -0.083227
   4 C :   -0.187170
   5 H :    0.036571
   6 C :   -0.025685
   7 H :    0.027411
   8 H :    0.036297
   9 C :   -0.044367
  10 H :    0.021727
  11 H :    0.023058
  12 C :   -0.053000
  13 H :    0.027364
  14 H :    0.023102
  15 H :    0.018483
  16 S :    0.382821
  17 C :   -0.174764
  18 C :   -0.055452
  19 C :   -0.067006
  20 C :   -0.183534
  21 H :    0.025746
  22 C :   -0.062814
  23 H :    0.033372
  24 H :    0.026974
  25 C :   -0.039534
  26 H :    0.020151
  27 H :    0.032971
  28 C :   -0.060292
  29 H :    0.029540
  30 H :    0.026574
  31 H :    0.020196
  32 H :    0.025565
  33 H :    0.033670

  Mayer bond orders larger than 0.100000
B(  0-S ,  1-C ) :   1.1570 B(  0-S ,  4-C ) :   1.1693 B(  1-C ,  2-C ) :   1.5669
B(  1-C , 32-H ) :   0.9794 B(  2-C ,  3-C ) :   1.2738 B(  2-C ,  6-C ) :   0.9991
B(  3-C ,  4-C ) :   1.5410 B(  3-C ,  5-H ) :   0.9845 B(  4-C , 20-C ) :   1.0744
B(  6-C ,  7-H ) :   0.9485 B(  6-C ,  8-H ) :   0.9388 B(  6-C ,  9-C ) :   1.0710
B(  9-C , 10-H ) :   0.9591 B(  9-C , 11-H ) :   0.9538 B(  9-C , 12-C ) :   1.0688
B( 12-C , 13-H ) :   0.9742 B( 12-C , 14-H ) :   0.9792 B( 12-C , 15-H ) :   0.9736
B( 16-S , 17-C ) :   1.1309 B( 16-S , 20-C ) :   1.1294 B( 17-C , 18-C ) :   1.6208
B( 17-C , 33-H ) :   0.9621 B( 18-C , 19-C ) :   1.2272 B( 18-C , 21-H ) :   0.9969
B( 19-C , 20-C ) :   1.5510 B( 19-C , 22-C ) :   1.0832 B( 22-C , 23-H ) :   0.9103
B( 22-C , 24-H ) :   0.9236 B( 22-C , 25-C ) :   1.0536 B( 25-C , 26-H ) :   0.9474
B( 25-C , 27-H ) :   0.9468 B( 25-C , 28-C ) :   1.1028 B( 28-C , 29-H ) :   0.9654
B( 28-C , 30-H ) :   0.9734 B( 28-C , 31-H ) :   0.9681

Dispersion correction           -0.014284837
FINAL SINGLE POINT ENERGY     -1339.857914038571

DIPOLE MOMENT
-------------
                                X             Y             Z
Electronic contribution:    -12.62439       5.69311       5.25345
Nuclear contribution   :     12.86483      -5.71154      -5.30031
                        -----------------------------------------
Total Dipole Moment    :      0.24044      -0.01843      -0.04687
                        -----------------------------------------
Magnitude (a.u.)       :      0.24565
Magnitude (Debye)      :      0.62440

Rotational constants in cm-1:     0.021511     0.008239     0.006354
Rotational constants in MHz :   644.894311   246.990843   190.496844

                             ****ORCA TERMINATED NORMALLY****
TOTAL RUN TIME: 0 days 0 hours 0 minutes 31 seconds 682 msec
