                         Program Version 4.2.1 -  RELEASE  -
|  1> ! wB97X-D3 SP def2-SVP
|  2> %pal
|  3> nprocs 16
|  4> end
|  5>
|  6> * xyz 0 1
|  7> S 	 -4.71294 	 6.81661 	 82.1017
|  8> C 	 -6.38647 	 6.5715 	 82.4742
|  9> C 	 -7.03336 	 7.82612 	 82.5214
| 10> C 	 -6.11414 	 8.88322 	 82.6338
| 11> C 	 -4.84865 	 8.58233 	 82.2124
| 12> H 	 -6.48465 	 9.85976 	 82.8839
| 13> C 	 -8.5188 	 8.0807 	 82.6904
| 14> H 	 -8.60138 	 8.69991 	 83.5537
| 15> H 	 -9.1216 	 7.15159 	 82.7876
| 16> C 	 -9.22174 	 8.8289 	 81.528
| 17> H 	 -10.1845 	 9.09308 	 81.9021
| 18> H 	 -8.73404 	 9.78135 	 81.4611
| 19> C 	 -9.1604 	 8.07355 	 80.1556
| 20> H 	 -8.17388 	 7.57184 	 80.0104
| 21> H 	 -9.86344 	 7.25273 	 80.0645
| 22> H 	 -9.41619 	 8.75925 	 79.308
| 23> S 	 -2.90834 	 8.92599 	 80.3657
| 24> C 	 -1.79723 	 10.2012 	 80.571
| 25> C 	 -2.27291 	 11.2071 	 81.4879
| 26> C 	 -3.31608 	 10.6641 	 82.3285
| 27> C 	 -3.77644 	 9.43899 	 81.8239
| 28> H 	 -1.66549 	 12.0687 	 81.6761
| 29> C 	 -3.91274 	 11.4756 	 83.4636
| 30> H 	 -3.13119 	 11.7389 	 84.2023
| 31> H 	 -4.57258 	 10.8282 	 84.0614
| 32> C 	 -4.67858 	 12.7331 	 83.1278
| 33> H 	 -5.58555 	 12.4655 	 82.5745
| 34> H 	 -4.00776 	 13.3372 	 82.4336
| 35> C 	 -5.12742 	 13.5557 	 84.4283
| 36> H 	 -4.20165 	 13.8943 	 84.9122
| 37> H 	 -5.56682 	 12.8471 	 85.1689
| 38> H 	 -5.7916 	 14.4099 	 84.2521
| 39> H 	 -6.87548 	 5.62304 	 82.648
| 40> H 	 -1.0086 	 10.2721 	 79.8181
| 41> *
| 42>
| 43>                          ****END OF INPUT****

CARTESIAN COORDINATES (ANGSTROEM)
---------------------------------
  S     -4.712940    6.816610   82.101700
  C     -6.386470    6.571500   82.474200
  C     -7.033360    7.826120   82.521400
  C     -6.114140    8.883220   82.633800
  C     -4.848650    8.582330   82.212400
  H     -6.484650    9.859760   82.883900
  C     -8.518800    8.080700   82.690400
  H     -8.601380    8.699910   83.553700
  H     -9.121600    7.151590   82.787600
  C     -9.221740    8.828900   81.528000
  H    -10.184500    9.093080   81.902100
  H     -8.734040    9.781350   81.461100
  C     -9.160400    8.073550   80.155600
  H     -8.173880    7.571840   80.010400
  H     -9.863440    7.252730   80.064500
  H     -9.416190    8.759250   79.308000
  S     -2.908340    8.925990   80.365700
  C     -1.797230   10.201200   80.571000
  C     -2.272910   11.207100   81.487900
  C     -3.316080   10.664100   82.328500
  C     -3.776440    9.438990   81.823900
  H     -1.665490   12.068700   81.676100
  C     -3.912740   11.475600   83.463600
  H     -3.131190   11.738900   84.202300
  H     -4.572580   10.828200   84.061400
  C     -4.678580   12.733100   83.127800
  H     -5.585550   12.465500   82.574500
  H     -4.007760   13.337200   82.433600
  C     -5.127420   13.555700   84.428300
  H     -4.201650   13.894300   84.912200
  H     -5.566820   12.847100   85.168900
  H     -5.791600   14.409900   84.252100
  H     -6.875480    5.623040   82.648000
  H     -1.008600   10.272100   79.818100

 Total Charge           Charge          ....    0
 Multiplicity           Mult            ....    1
 Number of Electrons    NEL             ....  134
 Basis Dimension        Dim             ....  322

ORBITAL ENERGIES
----------------

  NO   OCC          E(Eh)            E(eV)
   0   2.0000     -88.968101     -2420.9451
   1   2.0000     -88.965665     -2420.8788
   2   2.0000     -10.328743      -281.0594
   3   2.0000     -10.328370      -281.0492
   4   2.0000     -10.321339      -280.8579
   5   2.0000     -10.315962      -280.7116
   6   2.0000     -10.309888      -280.5463
   7   2.0000     -10.301736      -280.3245
   8   2.0000     -10.300568      -280.2927
   9   2.0000     -10.297694      -280.2145
  10   2.0000     -10.295040      -280.1423
  11   2.0000     -10.291549      -280.0473
  12   2.0000     -10.290648      -280.0228
  13   2.0000     -10.290547      -280.0200
  14   2.0000     -10.285535      -279.8836
  15   2.0000     -10.282502      -279.8011
  16   2.0000      -8.083464      -219.9622
  17   2.0000      -8.080216      -219.8739
  18   2.0000      -6.041711      -164.4033
  19   2.0000      -6.038728      -164.3221
  20   2.0000      -6.037913      -164.3000
  21   2.0000      -6.034716      -164.2130
  22   2.0000      -6.034418      -164.2049
  23   2.0000      -6.030995      -164.1117
  24   2.0000      -1.008980       -27.4558
  25   2.0000      -0.983850       -26.7719
  26   2.0000      -0.910177       -24.7672
  27   2.0000      -0.908098       -24.7106
  28   2.0000      -0.867604       -23.6087
  29   2.0000      -0.851346       -23.1663
  30   2.0000      -0.843933       -22.9646
  31   2.0000      -0.806180       -21.9373
  32   2.0000      -0.783250       -21.3133
  33   2.0000      -0.771456       -20.9924
  34   2.0000      -0.708426       -19.2773
  35   2.0000      -0.698547       -19.0084
  36   2.0000      -0.694217       -18.8906
  37   2.0000      -0.664243       -18.0750
  38   2.0000      -0.636784       -17.3278
  39   2.0000      -0.628560       -17.1040
  40   2.0000      -0.600210       -16.3325
  41   2.0000      -0.565340       -15.3837
  42   2.0000      -0.559331       -15.2202
  43   2.0000      -0.550925       -14.9914
  44   2.0000      -0.538621       -14.6566
  45   2.0000      -0.520867       -14.1735
  46   2.0000      -0.519455       -14.1351
  47   2.0000      -0.511150       -13.9091
  48   2.0000      -0.499299       -13.5866
  49   2.0000      -0.496470       -13.5096
  50   2.0000      -0.487189       -13.2571
  51   2.0000      -0.481538       -13.1033
  52   2.0000      -0.469636       -12.7794
  53   2.0000      -0.464148       -12.6301
  54   2.0000      -0.456545       -12.4232
  55   2.0000      -0.455508       -12.3950
  56   2.0000      -0.444698       -12.1008
  57   2.0000      -0.438729       -11.9384
  58   2.0000      -0.436832       -11.8868
  59   2.0000      -0.426190       -11.5972
  60   2.0000      -0.418427       -11.3860
  61   2.0000      -0.416895       -11.3443
  62   2.0000      -0.415662       -11.3107
  63   2.0000      -0.352688        -9.5971
  64   2.0000      -0.333620        -9.0783
  65   2.0000      -0.326945        -8.8966
  66   2.0000      -0.278702        -7.5839
  67   0.0000       0.021136         0.5751
  68   0.0000       0.066957         1.8220
  69   0.0000       0.100347         2.7306
  70   0.0000       0.111983         3.0472
  71   0.0000       0.129205         3.5158

MULLIKEN ATOMIC CHARGES
-----------------------
   0 S :    0.108600
   1 C :   -0.112778
   2 C :   -0.107676
   3 C :    0.026521
   4 C :   -0.127292
   5 H :    0.000842
   6 C :    0.041178
   7 H :    0.024574
   8 H :    0.023999
   9 C :   -0.038689
  10 H :    0.020594
  11 H :    0.011360
  12 C :   -0.073457
  13 H :    0.052814
  14 H :    0.024417
  15 H :    0.045674
  16 S :    0.117001
  17 C :   -0.113345
  18 C :   -0.027957
  19 C :   -0.028896
  20 C :   -0.132637
  21 H :    0.027602
  22 C :    0.035209
  23 H :    0.026674
  24 H :    0.015684
  25 C :   -0.087021
  26 H :    0.033533
  27 H :    0.039309
  28 C :   -0.064626
  29 H :    0.031268
  30 H :    0.035355
  31 H :    0.052929
  32 H :    0.052200
  33 H :    0.067039
Sum of atomic charges:   -0.0000000

LOEWDIN ATOMIC CHARGES
----------------------
   0 S :    0.403775
   1 C :   -0.205700
   2 C :   -0.062721
   3 C :   -0.060540
   4 C :   -0.187888
   5 H :    0.025597
   6 C :   -0.031106
   7 H :    0.027903
   8 H :    0.030430
   9 C :   -0.036102
  10 H :    0.020529
  11 H :    0.016959
  12 C :   -0.072750
  13 H :    0.034841
  14 H :    0.021082
  15 H :    0.032984
  16 S :    0.424210
  17 C :   -0.198633
  18 C :   -0.066142
  19 C :   -0.052273
  20 C :   -0.189553
  21 H :    0.028054
  22 C :   -0.041998
  23 H :    0.033273
  24 H :    0.027398
  25 C :   -0.041027
  26 H :    0.021018
  27 H :    0.028143
  28 C :   -0.069116
  29 H :    0.025381
  30 H :    0.028867
  31 H :    0.029781
  32 H :    0.029988
  33 H :    0.025338

  Mayer bond orders larger than 0.100000
B(  0-S ,  1-C ) :   1.1432 B(  0-S ,  4-C ) :   1.1409 B(  1-C ,  2-C ) :   1.5617
B(  1-C ,  4-C ) :   0.1077 B(  1-C , 32-H ) :   0.9738 B(  2-C ,  3-C ) :   1.2788
B(  2-C ,  6-C ) :   1.0342 B(  3-C ,  4-C ) :   1.5300 B(  3-C ,  5-H ) :   0.9908
B(  4-C , 20-C ) :   1.0851 B(  6-C ,  7-H ) :   0.9377 B(  6-C ,  8-H ) :   0.9478
B(  6-C ,  9-C ) :   1.0797 B(  9-C , 10-H ) :   0.9563 B(  9-C , 11-H ) :   0.9548
B(  9-C , 12-C ) :   1.0565 B( 12-C , 13-H ) :   0.9764 B( 12-C , 14-H ) :   0.9765
B( 12-C , 15-H ) :   0.9765 B( 16-S , 17-C ) :   1.1864 B( 16-S , 20-C ) :   1.1478
B( 17-C , 18-C ) :   1.5653 B( 17-C , 20-C ) :   0.1053 B( 17-C , 33-H ) :   0.9675
B( 18-C , 19-C ) :   1.2457 B( 18-C , 21-H ) :   0.9848 B( 19-C , 20-C ) :   1.5724
B( 19-C , 22-C ) :   1.0557 B( 22-C , 23-H ) :   0.9302 B( 22-C , 24-H ) :   0.9276
B( 22-C , 25-C ) :   1.0615 B( 25-C , 26-H ) :   0.9556 B( 25-C , 27-H ) :   0.9560
B( 25-C , 28-C ) :   1.0603 B( 28-C , 29-H ) :   0.9762 B( 28-C , 30-H ) :   0.9757
B( 28-C , 31-H ) :   0.9770

Dispersion correction           -0.014245276
FINAL SINGLE POINT ENERGY     -1339.871384110077

DIPOLE MOMENT
-------------
                                X             Y             Z
Electronic contribution:     19.81116     -16.88930      -7.09477
Nuclear contribution   :    -20.22583      17.34822       7.28268
                        -----------------------------------------
Total Dipole Moment    :     -0.41467       0.45892       0.18792
                        -----------------------------------------
Magnitude (a.u.)       :      0.64643
Magnitude (Debye)      :      1.64310

Rotational constants in cm-1:     0.016092     0.009630     0.007152
Rotational constants in MHz :   482.431235   288.708236   214.412935

                             ****ORCA TERMINATED NORMALLY****
TOTAL RUN TIME: 0 days 0 hours 0 minutes 34 seconds 408 msec
