                         Program Version 4.2.1 -  RELEASE  -
|  1> ! wB97X-D3 SP def2-SVP
|  2> %pal
|  3> nprocs 16
|  4> end
|  5>
|  6> * xyz 0 1
|  7> S 	 -19.8909 	 33.9939 	 41.3375
|  8> C 	 -18.7707 	 33.2861 	 42.4533
|  9> C 	 -19.3502 	 32.3975 	 43.352
| 10> C 	 -20.7588 	 32.2769 	 43.1295
| 11> C 	 -21.2343 	 33.1841 	 42.156
| 12> H 	 -21.4591 	 31.5592 	 43.5545
| 13> C 	 -18.6381 	 31.4881 	 44.3752
| 14> H 	 -17.8613 	 30.8729 	 43.814
| 15> H 	 -19.3702 	 30.7891 	 44.7791
| 16> C 	 -18.192 	 32.2786 	 45.6374
| 17> H 	 -17.8905 	 33.2917 	 45.2902
| 18> H 	 -18.9299 	 32.3483 	 46.4213
| 19> C 	 -16.9816 	 31.5764 	 46.3624
| 20> H 	 -16.1867 	 31.4672 	 45.7445
| 21> H 	 -16.6017 	 32.26 	 47.0647
| 22> H 	 -17.1012 	 30.6505 	 46.779
| 23> S 	 -22.7728 	 32.9058 	 39.8512
| 24> C 	 -24.4837 	 33.275 	 39.9986
| 25> C 	 -24.8779 	 33.6753 	 41.2375
| 26> C 	 -23.7687 	 33.5555 	 42.2017
| 27> C 	 -22.5265 	 33.2531 	 41.5967
| 28> H 	 -25.9273 	 33.762 	 41.4839
| 29> C 	 -23.7559 	 33.9659 	 43.6425
| 30> H 	 -22.9883 	 34.7243 	 43.8194
| 31> H 	 -23.3961 	 33.0586 	 44.2089
| 32> C 	 -25.0304 	 34.4605 	 44.3375
| 33> H 	 -25.6981 	 33.5396 	 44.4075
| 34> H 	 -25.5637 	 35.1319 	 43.6144
| 35> C 	 -24.8496 	 35.1668 	 45.6375
| 36> H 	 -24.139 	 36.0312 	 45.5823
| 37> H 	 -24.5741 	 34.54 	 46.4831
| 38> H 	 -25.787 	 35.7324 	 45.8674
| 39> H 	 -17.7016 	 33.4708 	 42.4248
| 40> H 	 -25.1256 	 33.3348 	 39.0933
| 41> *
| 42>
| 43>                          ****END OF INPUT****

CARTESIAN COORDINATES (ANGSTROEM)
---------------------------------
  S    -19.890900   33.993900   41.337500
  C    -18.770700   33.286100   42.453300
  C    -19.350200   32.397500   43.352000
  C    -20.758800   32.276900   43.129500
  C    -21.234300   33.184100   42.156000
  H    -21.459100   31.559200   43.554500
  C    -18.638100   31.488100   44.375200
  H    -17.861300   30.872900   43.814000
  H    -19.370200   30.789100   44.779100
  C    -18.192000   32.278600   45.637400
  H    -17.890500   33.291700   45.290200
  H    -18.929900   32.348300   46.421300
  C    -16.981600   31.576400   46.362400
  H    -16.186700   31.467200   45.744500
  H    -16.601700   32.260000   47.064700
  H    -17.101200   30.650500   46.779000
  S    -22.772800   32.905800   39.851200
  C    -24.483700   33.275000   39.998600
  C    -24.877900   33.675300   41.237500
  C    -23.768700   33.555500   42.201700
  C    -22.526500   33.253100   41.596700
  H    -25.927300   33.762000   41.483900
  C    -23.755900   33.965900   43.642500
  H    -22.988300   34.724300   43.819400
  H    -23.396100   33.058600   44.208900
  C    -25.030400   34.460500   44.337500
  H    -25.698100   33.539600   44.407500
  H    -25.563700   35.131900   43.614400
  C    -24.849600   35.166800   45.637500
  H    -24.139000   36.031200   45.582300
  H    -24.574100   34.540000   46.483100
  H    -25.787000   35.732400   45.867400
  H    -17.701600   33.470800   42.424800
  H    -25.125600   33.334800   39.093300

 Total Charge           Charge          ....    0
 Multiplicity           Mult            ....    1
 Number of Electrons    NEL             ....  134
 Basis Dimension        Dim             ....  322

ORBITAL ENERGIES
----------------

  NO   OCC          E(Eh)            E(eV)
   0   2.0000     -88.969379     -2420.9799
   1   2.0000     -88.962631     -2420.7963
   2   2.0000     -10.326595      -281.0009
   3   2.0000     -10.322576      -280.8916
   4   2.0000     -10.319297      -280.8023
   5   2.0000     -10.314816      -280.6804
   6   2.0000     -10.308047      -280.4962
   7   2.0000     -10.303795      -280.3805
   8   2.0000     -10.299941      -280.2756
   9   2.0000     -10.299087      -280.2524
  10   2.0000     -10.297468      -280.2084
  11   2.0000     -10.292934      -280.0850
  12   2.0000     -10.291367      -280.0423
  13   2.0000     -10.288274      -279.9582
  14   2.0000     -10.283168      -279.8192
  15   2.0000     -10.259559      -279.1768
  16   2.0000      -8.083931      -219.9750
  17   2.0000      -8.076774      -219.7802
  18   2.0000      -6.042375      -164.4214
  19   2.0000      -6.038468      -164.3151
  20   2.0000      -6.035349      -164.2302
  21   2.0000      -6.034776      -164.2146
  22   2.0000      -6.031443      -164.1239
  23   2.0000      -6.027418      -164.0144
  24   2.0000      -1.001695       -27.2575
  25   2.0000      -0.976048       -26.5596
  26   2.0000      -0.907312       -24.6892
  27   2.0000      -0.905779       -24.6475
  28   2.0000      -0.871907       -23.7258
  29   2.0000      -0.852754       -23.2046
  30   2.0000      -0.844837       -22.9892
  31   2.0000      -0.812509       -22.1095
  32   2.0000      -0.785627       -21.3780
  33   2.0000      -0.766964       -20.8702
  34   2.0000      -0.705999       -19.2112
  35   2.0000      -0.702629       -19.1195
  36   2.0000      -0.693666       -18.8756
  37   2.0000      -0.648482       -17.6461
  38   2.0000      -0.638410       -17.3720
  39   2.0000      -0.611218       -16.6321
  40   2.0000      -0.594137       -16.1673
  41   2.0000      -0.572620       -15.5818
  42   2.0000      -0.566032       -15.4025
  43   2.0000      -0.552665       -15.0388
  44   2.0000      -0.526350       -14.3227
  45   2.0000      -0.519972       -14.1492
  46   2.0000      -0.518479       -14.1085
  47   2.0000      -0.511654       -13.9228
  48   2.0000      -0.505539       -13.7564
  49   2.0000      -0.495330       -13.4786
  50   2.0000      -0.486679       -13.2432
  51   2.0000      -0.480659       -13.0794
  52   2.0000      -0.479646       -13.0518
  53   2.0000      -0.464812       -12.6482
  54   2.0000      -0.458041       -12.4639
  55   2.0000      -0.453626       -12.3438
  56   2.0000      -0.448039       -12.1918
  57   2.0000      -0.440866       -11.9966
  58   2.0000      -0.427510       -11.6331
  59   2.0000      -0.425957       -11.5909
  60   2.0000      -0.414760       -11.2862
  61   2.0000      -0.409675       -11.1478
  62   2.0000      -0.406825       -11.0703
  63   2.0000      -0.344386        -9.3712
  64   2.0000      -0.330710        -8.9991
  65   2.0000      -0.326926        -8.8961
  66   2.0000      -0.286114        -7.7855
  67   0.0000       0.024471         0.6659
  68   0.0000       0.063397         1.7251
  69   0.0000       0.111064         3.0222
  70   0.0000       0.122844         3.3428
  71   0.0000       0.125798         3.4231

MULLIKEN ATOMIC CHARGES
-----------------------
   0 S :    0.124335
   1 C :   -0.122873
   2 C :   -0.087525
   3 C :    0.031275
   4 C :   -0.190013
   5 H :    0.029062
   6 C :    0.050362
   7 H :    0.057251
   8 H :    0.021261
   9 C :   -0.090926
  10 H :    0.037882
  11 H :    0.039218
  12 C :    0.020193
  13 H :   -0.007850
  14 H :    0.014134
  15 H :    0.014972
  16 S :    0.098006
  17 C :   -0.100854
  18 C :   -0.026139
  19 C :   -0.042242
  20 C :   -0.152087
  21 H :    0.033485
  22 C :    0.027039
  23 H :    0.040448
  24 H :    0.029574
  25 C :   -0.103338
  26 H :    0.036499
  27 H :    0.031776
  28 C :   -0.043625
  29 H :    0.033118
  30 H :    0.042155
  31 H :    0.035374
  32 H :    0.048252
  33 H :    0.071800
Sum of atomic charges:    0.0000000

LOEWDIN ATOMIC CHARGES
----------------------
   0 S :    0.416703
   1 C :   -0.203847
   2 C :   -0.066402
   3 C :   -0.050059
   4 C :   -0.197486
   5 H :    0.034613
   6 C :   -0.035741
   7 H :    0.040832
   8 H :    0.030321
   9 C :   -0.029077
  10 H :    0.026124
  11 H :    0.025030
  12 C :   -0.053052
  13 H :    0.010824
  14 H :    0.024169
  15 H :    0.014314
  16 S :    0.376368
  17 C :   -0.179929
  18 C :   -0.079672
  19 C :   -0.047118
  20 C :   -0.198163
  21 H :    0.035138
  22 C :   -0.046623
  23 H :    0.033481
  24 H :    0.036453
  25 C :   -0.056034
  26 H :    0.029546
  27 H :    0.025535
  28 C :   -0.071697
  29 H :    0.030878
  30 H :    0.025951
  31 H :    0.035303
  32 H :    0.027158
  33 H :    0.036155

  Mayer bond orders larger than 0.100000
B(  0-S ,  1-C ) :   1.1535 B(  0-S ,  4-C ) :   1.1463 B(  1-C ,  2-C ) :   1.5900
B(  1-C ,  4-C ) :   0.1016 B(  1-C , 32-H ) :   0.9669 B(  2-C ,  3-C ) :   1.2698
B(  2-C ,  6-C ) :   1.0160 B(  3-C ,  4-C ) :   1.5489 B(  3-C ,  5-H ) :   0.9820
B(  4-C , 20-C ) :   1.1002 B(  6-C ,  7-H ) :   0.9541 B(  6-C ,  8-H ) :   0.9419
B(  6-C ,  9-C ) :   1.0403 B(  9-C , 10-H ) :   0.9675 B(  9-C , 11-H ) :   0.9612
B(  9-C , 12-C ) :   1.0733 B( 12-C , 13-H ) :   0.9721 B( 12-C , 14-H ) :   0.9707
B( 12-C , 15-H ) :   0.9757 B( 16-S , 17-C ) :   1.1508 B( 16-S , 20-C ) :   1.1122
B( 17-C , 18-C ) :   1.6414 B( 17-C , 33-H ) :   0.9548 B( 18-C , 19-C ) :   1.2198
B( 18-C , 21-H ) :   0.9814 B( 19-C , 20-C ) :   1.5957 B( 19-C , 22-C ) :   1.0545
B( 22-C , 23-H ) :   0.9360 B( 22-C , 24-H ) :   0.9212 B( 22-C , 25-C ) :   1.0706
B( 25-C , 26-H ) :   0.9498 B( 25-C , 27-H ) :   0.9504 B( 25-C , 28-C ) :   1.0955
B( 28-C , 29-H ) :   0.9685 B( 28-C , 30-H ) :   0.9743 B( 28-C , 31-H ) :   0.9697

Dispersion correction           -0.013433108
FINAL SINGLE POINT ENERGY     -1339.863225482510

DIPOLE MOMENT
-------------
                                X             Y             Z
Electronic contribution:     -1.68991       1.06368     -29.60400
Nuclear contribution   :      1.66445      -1.21738      30.18933
                        -----------------------------------------
Total Dipole Moment    :     -0.02546      -0.15369       0.58534
                        -----------------------------------------
Magnitude (a.u.)       :      0.60572
Magnitude (Debye)      :      1.53961

Rotational constants in cm-1:     0.017840     0.007964     0.005999
Rotational constants in MHz :   534.832336   238.749145   179.832335

                             ****ORCA TERMINATED NORMALLY****
TOTAL RUN TIME: 0 days 0 hours 0 minutes 31 seconds 963 msec
