                         Program Version 4.2.1 -  RELEASE  -
|  1> ! wB97X-D3 SP def2-SVP
|  2> %pal
|  3> nprocs 16
|  4> end
|  5>
|  6> * xyz 0 1
|  7> S 	 10.9779 	 -16.1304 	 92.3206
|  8> C 	 12.0774 	 -16.2124 	 90.9907
|  9> C 	 11.6238 	 -15.3327 	 90.0396
| 10> C 	 10.5209 	 -14.5256 	 90.4167
| 11> C 	 9.97096 	 -14.8701 	 91.6378
| 12> H 	 10.0633 	 -13.7593 	 89.8153
| 13> C 	 12.3923 	 -15.06 	 88.7959
| 14> H 	 11.7043 	 -15.0778 	 87.9652
| 15> H 	 13.0688 	 -15.9745 	 88.5808
| 16> C 	 13.3564 	 -13.8702 	 88.7983
| 17> H 	 12.7856 	 -12.9838 	 88.9532
| 18> H 	 14.0776 	 -14.0048 	 89.6266
| 19> C 	 14.1638 	 -13.7089 	 87.5273
| 20> H 	 14.5577 	 -12.7451 	 87.4146
| 21> H 	 14.9674 	 -14.4537 	 87.5037
| 22> H 	 13.561 	 -13.8588 	 86.6215
| 23> S 	 8.15761 	 -15.1407 	 93.6543
| 24> C 	 6.78855 	 -14.0453 	 93.8246
| 25> C 	 6.85544 	 -13.037 	 92.8787
| 26> C 	 8.06451 	 -13.1285 	 92.0366
| 27> C 	 8.81682 	 -14.2774 	 92.2847
| 28> H 	 6.12152 	 -12.223 	 92.7219
| 29> C 	 8.30412 	 -12.0286 	 90.981
| 30> H 	 7.57147 	 -11.2028 	 91.0606
| 31> H 	 8.24983 	 -12.3384 	 89.9721
| 32> C 	 9.63923 	 -11.2101 	 91.1232
| 33> H 	 10.4846 	 -11.8195 	 90.9422
| 34> H 	 9.72707 	 -10.8446 	 92.0843
| 35> C 	 9.60375 	 -9.93778 	 90.1698
| 36> H 	 8.852 	 -9.29557 	 90.491
| 37> H 	 9.36472 	 -10.1655 	 89.0816
| 38> H 	 10.5485 	 -9.28121 	 90.0868
| 39> H 	 12.9896 	 -16.8596 	 90.9806
| 40> H 	 6.06809 	 -14.1512 	 94.686
| 41> *
| 42>
| 43>                          ****END OF INPUT****

CARTESIAN COORDINATES (ANGSTROEM)
---------------------------------
  S     10.977900  -16.130400   92.320600
  C     12.077400  -16.212400   90.990700
  C     11.623800  -15.332700   90.039600
  C     10.520900  -14.525600   90.416700
  C      9.970960  -14.870100   91.637800
  H     10.063300  -13.759300   89.815300
  C     12.392300  -15.060000   88.795900
  H     11.704300  -15.077800   87.965200
  H     13.068800  -15.974500   88.580800
  C     13.356400  -13.870200   88.798300
  H     12.785600  -12.983800   88.953200
  H     14.077600  -14.004800   89.626600
  C     14.163800  -13.708900   87.527300
  H     14.557700  -12.745100   87.414600
  H     14.967400  -14.453700   87.503700
  H     13.561000  -13.858800   86.621500
  S      8.157610  -15.140700   93.654300
  C      6.788550  -14.045300   93.824600
  C      6.855440  -13.037000   92.878700
  C      8.064510  -13.128500   92.036600
  C      8.816820  -14.277400   92.284700
  H      6.121520  -12.223000   92.721900
  C      8.304120  -12.028600   90.981000
  H      7.571470  -11.202800   91.060600
  H      8.249830  -12.338400   89.972100
  C      9.639230  -11.210100   91.123200
  H     10.484600  -11.819500   90.942200
  H      9.727070  -10.844600   92.084300
  C      9.603750   -9.937780   90.169800
  H      8.852000   -9.295570   90.491000
  H      9.364720  -10.165500   89.081600
  H     10.548500   -9.281210   90.086800
  H     12.989600  -16.859600   90.980600
  H      6.068090  -14.151200   94.686000

 Total Charge           Charge          ....    0
 Multiplicity           Mult            ....    1
 Number of Electrons    NEL             ....  134
 Basis Dimension        Dim             ....  322

ORBITAL ENERGIES
----------------

  NO   OCC          E(Eh)            E(eV)
   0   2.0000     -88.966415     -2420.8992
   1   2.0000     -88.965070     -2420.8626
   2   2.0000     -10.334708      -281.2217
   3   2.0000     -10.333566      -281.1906
   4   2.0000     -10.328154      -281.0434
   5   2.0000     -10.318025      -280.7677
   6   2.0000     -10.314192      -280.6634
   7   2.0000     -10.305807      -280.4353
   8   2.0000     -10.298580      -280.2386
   9   2.0000     -10.297594      -280.2118
  10   2.0000     -10.292595      -280.0757
  11   2.0000     -10.290901      -280.0297
  12   2.0000     -10.288024      -279.9514
  13   2.0000     -10.284021      -279.8424
  14   2.0000     -10.283609      -279.8312
  15   2.0000     -10.273861      -279.5660
  16   2.0000      -8.081218      -219.9011
  17   2.0000      -8.080172      -219.8727
  18   2.0000      -6.039862      -164.3530
  19   2.0000      -6.038764      -164.3231
  20   2.0000      -6.035658      -164.2386
  21   2.0000      -6.034420      -164.2049
  22   2.0000      -6.031894      -164.1362
  23   2.0000      -6.031022      -164.1124
  24   2.0000      -1.011000       -27.5107
  25   2.0000      -0.985965       -26.8295
  26   2.0000      -0.913673       -24.8623
  27   2.0000      -0.904150       -24.6032
  28   2.0000      -0.874714       -23.8022
  29   2.0000      -0.852710       -23.2034
  30   2.0000      -0.843019       -22.9397
  31   2.0000      -0.817790       -22.2532
  32   2.0000      -0.778715       -21.1899
  33   2.0000      -0.770047       -20.9540
  34   2.0000      -0.712991       -19.4015
  35   2.0000      -0.702248       -19.1091
  36   2.0000      -0.694948       -18.9105
  37   2.0000      -0.667686       -18.1687
  38   2.0000      -0.640433       -17.4271
  39   2.0000      -0.623501       -16.9663
  40   2.0000      -0.599032       -16.3005
  41   2.0000      -0.572779       -15.5861
  42   2.0000      -0.566816       -15.4238
  43   2.0000      -0.561781       -15.2868
  44   2.0000      -0.525851       -14.3091
  45   2.0000      -0.520707       -14.1691
  46   2.0000      -0.517866       -14.0919
  47   2.0000      -0.510790       -13.8993
  48   2.0000      -0.506362       -13.7788
  49   2.0000      -0.504342       -13.7239
  50   2.0000      -0.493039       -13.4163
  51   2.0000      -0.483933       -13.1685
  52   2.0000      -0.472698       -12.8628
  53   2.0000      -0.466262       -12.6876
  54   2.0000      -0.459013       -12.4904
  55   2.0000      -0.452113       -12.3026
  56   2.0000      -0.445120       -12.1123
  57   2.0000      -0.435324       -11.8458
  58   2.0000      -0.432145       -11.7593
  59   2.0000      -0.426391       -11.6027
  60   2.0000      -0.423148       -11.5144
  61   2.0000      -0.417320       -11.3559
  62   2.0000      -0.406891       -11.0721
  63   2.0000      -0.367571       -10.0021
  64   2.0000      -0.334918        -9.1136
  65   2.0000      -0.326725        -8.8907
  66   2.0000      -0.285959        -7.7814
  67   0.0000       0.016754         0.4559
  68   0.0000       0.088445         2.4067
  69   0.0000       0.100191         2.7263
  70   0.0000       0.118398         3.2218
  71   0.0000       0.128732         3.5030

MULLIKEN ATOMIC CHARGES
-----------------------
   0 S :    0.099244
   1 C :   -0.134390
   2 C :   -0.061516
   3 C :   -0.009107
   4 C :   -0.090846
   5 H :    0.001831
   6 C :    0.018556
   7 H :    0.021409
   8 H :    0.015813
   9 C :   -0.046591
  10 H :    0.019159
  11 H :    0.031015
  12 C :   -0.023062
  13 H :    0.023656
  14 H :    0.029594
  15 H :    0.021657
  16 S :    0.089213
  17 C :   -0.107934
  18 C :   -0.020739
  19 C :   -0.062522
  20 C :   -0.103907
  21 H :    0.034631
  22 C :    0.018057
  23 H :    0.013933
  24 H :    0.032992
  25 C :   -0.020240
  26 H :    0.027563
  27 H :    0.017135
  28 C :   -0.101111
  29 H :    0.021370
  30 H :    0.032079
  31 H :    0.049377
  32 H :    0.075872
  33 H :    0.087811
Sum of atomic charges:   -0.0000000

LOEWDIN ATOMIC CHARGES
----------------------
   0 S :    0.410337
   1 C :   -0.205178
   2 C :   -0.072449
   3 C :   -0.065646
   4 C :   -0.186990
   5 H :    0.029348
   6 C :   -0.039047
   7 H :    0.024735
   8 H :    0.032861
   9 C :   -0.037430
  10 H :    0.016868
  11 H :    0.029407
  12 C :   -0.060671
  13 H :    0.020440
  14 H :    0.025587
  15 H :    0.025605
  16 S :    0.399466
  17 C :   -0.189499
  18 C :   -0.070945
  19 C :   -0.056024
  20 C :   -0.189831
  21 H :    0.037905
  22 C :   -0.030699
  23 H :    0.032520
  24 H :    0.021414
  25 C :   -0.022861
  26 H :    0.014289
  27 H :    0.016596
  28 C :   -0.076138
  29 H :    0.012063
  30 H :    0.027250
  31 H :    0.036758
  32 H :    0.045604
  33 H :    0.044357

  Mayer bond orders larger than 0.100000
B(  0-S ,  1-C ) :   1.1382 B(  0-S ,  4-C ) :   1.1539 B(  1-C ,  2-C ) :   1.5730
B(  1-C , 32-H ) :   0.9679 B(  2-C ,  3-C ) :   1.2634 B(  2-C ,  6-C ) :   1.0442
B(  3-C ,  4-C ) :   1.5384 B(  3-C ,  5-H ) :   0.9969 B(  4-C , 20-C ) :   1.0958
B(  6-C ,  7-H ) :   0.9323 B(  6-C ,  8-H ) :   0.9426 B(  6-C ,  9-C ) :   1.0649
B(  9-C , 10-H ) :   0.9544 B(  9-C , 11-H ) :   0.9544 B(  9-C , 12-C ) :   1.0876
B( 12-C , 13-H ) :   0.9727 B( 12-C , 14-H ) :   0.9755 B( 12-C , 15-H ) :   0.9726
B( 16-S , 17-C ) :   1.1508 B( 16-S , 20-C ) :   1.1301 B( 17-C , 18-C ) :   1.5958
B( 17-C , 33-H ) :   0.9618 B( 18-C , 19-C ) :   1.2558 B( 18-C , 21-H ) :   0.9826
B( 19-C , 20-C ) :   1.5805 B( 19-C , 22-C ) :   1.0359 B( 22-C , 23-H ) :   0.9411
B( 22-C , 24-H ) :   0.9399 B( 22-C , 25-C ) :   1.0515 B( 25-C , 26-H ) :   0.9599
B( 25-C , 27-H ) :   0.9536 B( 25-C , 28-C ) :   1.0672 B( 28-C , 29-H ) :   0.9769
B( 28-C , 30-H ) :   0.9769 B( 28-C , 31-H ) :   0.9765

Dispersion correction           -0.014007484
FINAL SINGLE POINT ENERGY     -1339.878623456568

DIPOLE MOMENT
-------------
                                X             Y             Z
Electronic contribution:    -12.90763     -20.98505      23.14523
Nuclear contribution   :     12.97989      21.54901     -23.56216
                        -----------------------------------------
Total Dipole Moment    :      0.07226       0.56396      -0.41693
                        -----------------------------------------
Magnitude (a.u.)       :      0.70505
Magnitude (Debye)      :      1.79210

Rotational constants in cm-1:     0.018288     0.009241     0.006389
Rotational constants in MHz :   548.250156   277.045318   191.532160

                             ****ORCA TERMINATED NORMALLY****
TOTAL RUN TIME: 0 days 0 hours 0 minutes 32 seconds 410 msec
