                         Program Version 4.2.1 -  RELEASE  -
|  1> ! wB97X-D3 SP def2-SVP
|  2> %pal
|  3> nprocs 16
|  4> end
|  5>
|  6> * xyz 0 1
|  7> S 	 -72.1769 	 35.4609 	 124.663
|  8> C 	 -70.6868 	 35.1028 	 123.728
|  9> C 	 -70.0522 	 36.2566 	 123.364
| 10> C 	 -70.7456 	 37.4221 	 123.754
| 11> C 	 -71.8593 	 37.2305 	 124.544
| 12> H 	 -70.4949 	 38.4343 	 123.618
| 13> C 	 -68.7029 	 36.1967 	 122.727
| 14> H 	 -68.6367 	 36.9382 	 121.926
| 15> H 	 -68.642 	 35.2004 	 122.298
| 16> C 	 -67.5232 	 36.541 	 123.641
| 17> H 	 -66.6373 	 36.5927 	 123.004
| 18> H 	 -67.7408 	 37.5428 	 124.012
| 19> C 	 -67.4643 	 35.4537 	 124.76
| 20> H 	 -66.6421 	 35.6575 	 125.445
| 21> H 	 -68.3894 	 35.2516 	 125.354
| 22> H 	 -67.1989 	 34.5672 	 124.114
| 23> S 	 -72.9764 	 38.4611 	 126.696
| 24> C 	 -73.8935 	 39.8746 	 126.486
| 25> C 	 -73.8803 	 40.2834 	 125.203
| 26> C 	 -73.1919 	 39.3869 	 124.3
| 27> C 	 -72.7463 	 38.3 	 124.96
| 28> H 	 -74.4831 	 41.107 	 124.935
| 29> C 	 -73.1664 	 39.5966 	 122.798
| 30> H 	 -74.1527 	 40.0085 	 122.588
| 31> H 	 -72.9966 	 38.6802 	 122.351
| 32> C 	 -72.1135 	 40.5522 	 122.29
| 33> H 	 -71.1019 	 40.0593 	 122.41
| 34> H 	 -72.2476 	 41.5644 	 122.73
| 35> C 	 -72.3201 	 40.8338 	 120.781
| 36> H 	 -71.9549 	 41.8231 	 120.459
| 37> H 	 -73.3863 	 40.6215 	 120.512
| 38> H 	 -71.7911 	 40.0888 	 120.264
| 39> H 	 -70.2918 	 34.1118 	 123.516
| 40> H 	 -74.3558 	 40.4613 	 127.261
| 41> *
| 42>
| 43>                          ****END OF INPUT****

CARTESIAN COORDINATES (ANGSTROEM)
---------------------------------
  S    -72.176900   35.460900  124.663000
  C    -70.686800   35.102800  123.728000
  C    -70.052200   36.256600  123.364000
  C    -70.745600   37.422100  123.754000
  C    -71.859300   37.230500  124.544000
  H    -70.494900   38.434300  123.618000
  C    -68.702900   36.196700  122.727000
  H    -68.636700   36.938200  121.926000
  H    -68.642000   35.200400  122.298000
  C    -67.523200   36.541000  123.641000
  H    -66.637300   36.592700  123.004000
  H    -67.740800   37.542800  124.012000
  C    -67.464300   35.453700  124.760000
  H    -66.642100   35.657500  125.445000
  H    -68.389400   35.251600  125.354000
  H    -67.198900   34.567200  124.114000
  S    -72.976400   38.461100  126.696000
  C    -73.893500   39.874600  126.486000
  C    -73.880300   40.283400  125.203000
  C    -73.191900   39.386900  124.300000
  C    -72.746300   38.300000  124.960000
  H    -74.483100   41.107000  124.935000
  C    -73.166400   39.596600  122.798000
  H    -74.152700   40.008500  122.588000
  H    -72.996600   38.680200  122.351000
  C    -72.113500   40.552200  122.290000
  H    -71.101900   40.059300  122.410000
  H    -72.247600   41.564400  122.730000
  C    -72.320100   40.833800  120.781000
  H    -71.954900   41.823100  120.459000
  H    -73.386300   40.621500  120.512000
  H    -71.791100   40.088800  120.264000
  H    -70.291800   34.111800  123.516000
  H    -74.355800   40.461300  127.261000

 Total Charge           Charge          ....    0
 Multiplicity           Mult            ....    1
 Number of Electrons    NEL             ....  134
 Basis Dimension        Dim             ....  322

ORBITAL ENERGIES
----------------

  NO   OCC          E(Eh)            E(eV)
   0   2.0000     -88.965971     -2420.8871
   1   2.0000     -88.959745     -2420.7177
   2   2.0000     -10.331317      -281.1294
   3   2.0000     -10.320943      -280.8471
   4   2.0000     -10.317539      -280.7545
   5   2.0000     -10.309989      -280.5491
   6   2.0000     -10.300939      -280.3028
   7   2.0000     -10.297397      -280.2064
   8   2.0000     -10.292434      -280.0714
   9   2.0000     -10.290548      -280.0200
  10   2.0000     -10.289909      -280.0026
  11   2.0000     -10.288638      -279.9681
  12   2.0000     -10.286369      -279.9063
  13   2.0000     -10.285949      -279.8949
  14   2.0000     -10.283007      -279.8148
  15   2.0000     -10.277464      -279.6640
  16   2.0000      -8.079173      -219.8455
  17   2.0000      -8.075967      -219.7582
  18   2.0000      -6.037851      -164.2983
  19   2.0000      -6.034393      -164.2042
  20   2.0000      -6.033930      -164.1916
  21   2.0000      -6.030365      -164.0946
  22   2.0000      -6.029796      -164.0791
  23   2.0000      -6.026613      -163.9925
  24   2.0000      -1.011884       -27.5348
  25   2.0000      -0.986051       -26.8318
  26   2.0000      -0.917873       -24.9766
  27   2.0000      -0.914824       -24.8936
  28   2.0000      -0.873312       -23.7640
  29   2.0000      -0.852776       -23.2052
  30   2.0000      -0.840942       -22.8832
  31   2.0000      -0.818060       -22.2605
  32   2.0000      -0.783885       -21.3306
  33   2.0000      -0.773727       -21.0542
  34   2.0000      -0.712742       -19.3947
  35   2.0000      -0.693616       -18.8743
  36   2.0000      -0.691250       -18.8099
  37   2.0000      -0.665354       -18.1052
  38   2.0000      -0.644134       -17.5278
  39   2.0000      -0.620868       -16.8947
  40   2.0000      -0.600499       -16.3404
  41   2.0000      -0.578553       -15.7432
  42   2.0000      -0.569514       -15.4973
  43   2.0000      -0.551490       -15.0068
  44   2.0000      -0.543946       -14.8015
  45   2.0000      -0.529362       -14.4047
  46   2.0000      -0.520656       -14.1678
  47   2.0000      -0.518815       -14.1177
  48   2.0000      -0.505740       -13.7619
  49   2.0000      -0.500492       -13.6191
  50   2.0000      -0.486181       -13.2296
  51   2.0000      -0.479308       -13.0426
  52   2.0000      -0.469003       -12.7622
  53   2.0000      -0.465976       -12.6798
  54   2.0000      -0.461311       -12.5529
  55   2.0000      -0.451711       -12.2917
  56   2.0000      -0.443047       -12.0559
  57   2.0000      -0.432365       -11.7653
  58   2.0000      -0.429365       -11.6836
  59   2.0000      -0.426804       -11.6139
  60   2.0000      -0.419867       -11.4252
  61   2.0000      -0.417990       -11.3741
  62   2.0000      -0.412224       -11.2172
  63   2.0000      -0.347367        -9.4523
  64   2.0000      -0.333548        -9.0763
  65   2.0000      -0.328243        -8.9319
  66   2.0000      -0.300561        -8.1787
  67   0.0000       0.031963         0.8698
  68   0.0000       0.071919         1.9570
  69   0.0000       0.114811         3.1242
  70   0.0000       0.121919         3.3176
  71   0.0000       0.126044         3.4298

MULLIKEN ATOMIC CHARGES
-----------------------
   0 S :    0.093777
   1 C :   -0.128036
   2 C :   -0.067401
   3 C :    0.030601
   4 C :   -0.136657
   5 H :   -0.015086
   6 C :    0.058521
   7 H :    0.020166
   8 H :    0.013940
   9 C :   -0.049803
  10 H :    0.038376
  11 H :    0.026704
  12 C :   -0.084821
  13 H :    0.038644
  14 H :    0.070518
  15 H :    0.026663
  16 S :    0.100489
  17 C :   -0.065811
  18 C :   -0.032992
  19 C :   -0.034060
  20 C :   -0.165419
  21 H :   -0.000326
  22 C :    0.098624
  23 H :    0.021897
  24 H :    0.014536
  25 C :   -0.113866
  26 H :    0.043580
  27 H :    0.037685
  28 C :   -0.028233
  29 H :    0.044125
  30 H :    0.028436
  31 H :    0.014371
  32 H :    0.049813
  33 H :    0.051044
Sum of atomic charges:    0.0000000

LOEWDIN ATOMIC CHARGES
----------------------
   0 S :    0.361968
   1 C :   -0.177124
   2 C :   -0.067465
   3 C :   -0.056845
   4 C :   -0.177125
   5 H :    0.021007
   6 C :   -0.031058
   7 H :    0.028489
   8 H :    0.025067
   9 C :   -0.034690
  10 H :    0.027070
  11 H :    0.019931
  12 C :   -0.073293
  13 H :    0.022974
  14 H :    0.035801
  15 H :    0.030025
  16 S :    0.413906
  17 C :   -0.189226
  18 C :   -0.073184
  19 C :   -0.048320
  20 C :   -0.197292
  21 H :    0.023418
  22 C :   -0.022605
  23 H :    0.033093
  24 H :    0.022165
  25 C :   -0.042517
  26 H :    0.028322
  27 H :    0.027562
  28 C :   -0.065981
  29 H :    0.028566
  30 H :    0.029147
  31 H :    0.016527
  32 H :    0.030279
  33 H :    0.031407

  Mayer bond orders larger than 0.100000
B(  0-S ,  1-C ) :   1.1207 B(  0-S ,  4-C ) :   1.1261 B(  1-C ,  2-C ) :   1.6228
B(  1-C , 32-H ) :   0.9657 B(  2-C ,  3-C ) :   1.2107 B(  2-C ,  6-C ) :   1.0346
B(  3-C ,  4-C ) :   1.5960 B(  3-C ,  5-H ) :   1.0039 B(  4-C , 20-C ) :   1.0176
B(  6-C ,  7-H ) :   0.9332 B(  6-C ,  8-H ) :   0.9398 B(  6-C ,  9-C ) :   1.0697
B(  9-C , 10-H ) :   0.9589 B(  9-C , 11-H ) :   0.9538 B(  9-C , 12-C ) :   1.0549
B( 12-C , 13-H ) :   0.9759 B( 12-C , 14-H ) :   0.9742 B( 12-C , 15-H ) :   0.9763
B( 16-S , 17-C ) :   1.1529 B( 16-S , 20-C ) :   1.1266 B( 17-C , 18-C ) :   1.6438
B( 17-C , 33-H ) :   0.9653 B( 18-C , 19-C ) :   1.1996 B( 18-C , 21-H ) :   0.9966
B( 19-C , 20-C ) :   1.6504 B( 19-C , 22-C ) :   1.0385 B( 22-C , 23-H ) :   0.9273
B( 22-C , 24-H ) :   0.9311 B( 22-C , 25-C ) :   1.0877 B( 25-C , 26-H ) :   0.9490
B( 25-C , 27-H ) :   0.9590 B( 25-C , 28-C ) :   1.0696 B( 28-C , 29-H ) :   0.9776
B( 28-C , 30-H ) :   0.9720 B( 28-C , 31-H ) :   0.9749

Dispersion correction           -0.014777446
FINAL SINGLE POINT ENERGY     -1339.875135102729

DIPOLE MOMENT
-------------
                                X             Y             Z
Electronic contribution:    -16.06218      -7.36587      17.92731
Nuclear contribution   :     16.36143       7.80551     -18.41733
                        -----------------------------------------
Total Dipole Moment    :      0.29925       0.43964      -0.49002
                        -----------------------------------------
Magnitude (a.u.)       :      0.72316
Magnitude (Debye)      :      1.83812

Rotational constants in cm-1:     0.017458     0.009346     0.007248
Rotational constants in MHz :   523.365558   280.188703   217.281401

                             ****ORCA TERMINATED NORMALLY****
TOTAL RUN TIME: 0 days 0 hours 0 minutes 36 seconds 58 msec
