                         Program Version 4.2.1 -  RELEASE  -
|  1> ! wB97X-D3 SP def2-SVP
|  2> %pal
|  3> nprocs 16
|  4> end
|  5>
|  6> * xyz 0 1
|  7> S 	 -35.4844 	 52.7841 	 108.085
|  8> C 	 -37.127 	 52.8141 	 108.767
|  9> C 	 -38.0225 	 51.9986 	 108.048
| 10> C 	 -37.3786 	 51.4113 	 106.9
| 11> C 	 -36.0052 	 51.7293 	 106.734
| 12> H 	 -37.6826 	 50.6754 	 106.257
| 13> C 	 -39.3788 	 51.5539 	 108.408
| 14> H 	 -39.994 	 51.7302 	 107.556
| 15> H 	 -39.7271 	 52.2442 	 109.212
| 16> C 	 -39.577 	 50.0744 	 108.876
| 17> H 	 -39.4483 	 49.3631 	 108.033
| 18> H 	 -38.7374 	 49.8833 	 109.593
| 19> C 	 -41.0543 	 50.0491 	 109.502
| 20> H 	 -41.2739 	 49.1893 	 110.087
| 21> H 	 -41.1923 	 50.9358 	 110.071
| 22> H 	 -41.8333 	 50.1574 	 108.715
| 23> S 	 -33.5543 	 50.5844 	 106.421
| 24> C 	 -33.0219 	 50.2181 	 104.747
| 25> C 	 -34.0086 	 50.6468 	 103.871
| 26> C 	 -35.1713 	 51.1949 	 104.436
| 27> C 	 -35.0846 	 51.2128 	 105.815
| 28> H 	 -33.7447 	 50.5555 	 102.835
| 29> C 	 -36.2389 	 51.8352 	 103.58
| 30> H 	 -35.6805 	 52.4886 	 102.923
| 31> H 	 -36.8482 	 52.4673 	 104.233
| 32> C 	 -37.1793 	 50.8372 	 102.876
| 33> H 	 -37.5133 	 50.1678 	 103.639
| 34> H 	 -36.5827 	 50.1803 	 102.16
| 35> C 	 -38.3108 	 51.4096 	 102.095
| 36> H 	 -38.9685 	 50.6384 	 101.819
| 37> H 	 -37.8303 	 51.9386 	 101.272
| 38> H 	 -38.751 	 52.1303 	 102.728
| 39> H 	 -37.372 	 53.4206 	 109.646
| 40> H 	 -32.0567 	 49.7972 	 104.499
| 41> *
| 42>
| 43>                          ****END OF INPUT****

CARTESIAN COORDINATES (ANGSTROEM)
---------------------------------
  S    -35.484400   52.784100  108.085000
  C    -37.127000   52.814100  108.767000
  C    -38.022500   51.998600  108.048000
  C    -37.378600   51.411300  106.900000
  C    -36.005200   51.729300  106.734000
  H    -37.682600   50.675400  106.257000
  C    -39.378800   51.553900  108.408000
  H    -39.994000   51.730200  107.556000
  H    -39.727100   52.244200  109.212000
  C    -39.577000   50.074400  108.876000
  H    -39.448300   49.363100  108.033000
  H    -38.737400   49.883300  109.593000
  C    -41.054300   50.049100  109.502000
  H    -41.273900   49.189300  110.087000
  H    -41.192300   50.935800  110.071000
  H    -41.833300   50.157400  108.715000
  S    -33.554300   50.584400  106.421000
  C    -33.021900   50.218100  104.747000
  C    -34.008600   50.646800  103.871000
  C    -35.171300   51.194900  104.436000
  C    -35.084600   51.212800  105.815000
  H    -33.744700   50.555500  102.835000
  C    -36.238900   51.835200  103.580000
  H    -35.680500   52.488600  102.923000
  H    -36.848200   52.467300  104.233000
  C    -37.179300   50.837200  102.876000
  H    -37.513300   50.167800  103.639000
  H    -36.582700   50.180300  102.160000
  C    -38.310800   51.409600  102.095000
  H    -38.968500   50.638400  101.819000
  H    -37.830300   51.938600  101.272000
  H    -38.751000   52.130300  102.728000
  H    -37.372000   53.420600  109.646000
  H    -32.056700   49.797200  104.499000

 Total Charge           Charge          ....    0
 Multiplicity           Mult            ....    1
 Number of Electrons    NEL             ....  134
 Basis Dimension        Dim             ....  322

ORBITAL ENERGIES
----------------

  NO   OCC          E(Eh)            E(eV)
   0   2.0000     -88.966063     -2420.8896
   1   2.0000     -88.965458     -2420.8732
   2   2.0000     -10.329913      -281.0912
   3   2.0000     -10.323806      -280.9250
   4   2.0000     -10.321447      -280.8609
   5   2.0000     -10.321286      -280.8565
   6   2.0000     -10.305097      -280.4159
   7   2.0000     -10.301474      -280.3174
   8   2.0000     -10.300777      -280.2984
   9   2.0000     -10.292221      -280.0656
  10   2.0000     -10.291776      -280.0535
  11   2.0000     -10.291131      -280.0359
  12   2.0000     -10.290651      -280.0229
  13   2.0000     -10.284790      -279.8634
  14   2.0000     -10.282621      -279.8043
  15   2.0000     -10.269048      -279.4350
  16   2.0000      -8.079620      -219.8576
  17   2.0000      -8.079437      -219.8527
  18   2.0000      -6.038158      -164.3066
  19   2.0000      -6.038010      -164.3026
  20   2.0000      -6.034304      -164.2017
  21   2.0000      -6.034074      -164.1955
  22   2.0000      -6.030407      -164.0957
  23   2.0000      -6.030139      -164.0884
  24   2.0000      -1.004277       -27.3278
  25   2.0000      -0.974992       -26.5309
  26   2.0000      -0.914127       -24.8747
  27   2.0000      -0.909535       -24.7497
  28   2.0000      -0.870835       -23.6966
  29   2.0000      -0.858898       -23.3718
  30   2.0000      -0.843342       -22.9485
  31   2.0000      -0.812044       -22.0968
  32   2.0000      -0.783168       -21.3111
  33   2.0000      -0.769521       -20.9397
  34   2.0000      -0.713114       -19.4048
  35   2.0000      -0.703007       -19.1298
  36   2.0000      -0.694767       -18.9056
  37   2.0000      -0.664647       -18.0860
  38   2.0000      -0.645664       -17.5694
  39   2.0000      -0.615829       -16.7575
  40   2.0000      -0.596423       -16.2295
  41   2.0000      -0.571317       -15.5463
  42   2.0000      -0.569084       -15.4856
  43   2.0000      -0.555109       -15.1053
  44   2.0000      -0.541206       -14.7270
  45   2.0000      -0.527329       -14.3494
  46   2.0000      -0.514835       -14.0094
  47   2.0000      -0.512321       -13.9410
  48   2.0000      -0.509898       -13.8750
  49   2.0000      -0.499490       -13.5918
  50   2.0000      -0.495462       -13.4822
  51   2.0000      -0.473688       -12.8897
  52   2.0000      -0.471512       -12.8305
  53   2.0000      -0.464096       -12.6287
  54   2.0000      -0.456044       -12.4096
  55   2.0000      -0.450139       -12.2489
  56   2.0000      -0.440167       -11.9776
  57   2.0000      -0.435558       -11.8521
  58   2.0000      -0.434742       -11.8299
  59   2.0000      -0.427122       -11.6226
  60   2.0000      -0.425329       -11.5738
  61   2.0000      -0.420405       -11.4398
  62   2.0000      -0.414633       -11.2827
  63   2.0000      -0.348570        -9.4851
  64   2.0000      -0.333090        -9.0639
  65   2.0000      -0.327326        -8.9070
  66   2.0000      -0.284970        -7.7544
  67   0.0000       0.021801         0.5932
  68   0.0000       0.065521         1.7829
  69   0.0000       0.109668         2.9842
  70   0.0000       0.120787         3.2868
  71   0.0000       0.127478         3.4689

MULLIKEN ATOMIC CHARGES
-----------------------
   0 S :    0.097761
   1 C :   -0.134087
   2 C :   -0.061595
   3 C :    0.057468
   4 C :   -0.182306
   5 H :   -0.024745
   6 C :    0.043484
   7 H :    0.025233
   8 H :    0.020240
   9 C :   -0.089202
  10 H :    0.044562
  11 H :    0.048539
  12 C :   -0.027853
  13 H :    0.038298
  14 H :    0.018200
  15 H :    0.030923
  16 S :    0.099349
  17 C :   -0.106458
  18 C :   -0.026723
  19 C :   -0.015755
  20 C :   -0.156476
  21 H :    0.012030
  22 C :    0.087572
  23 H :    0.026839
  24 H :    0.021524
  25 C :   -0.124068
  26 H :    0.017558
  27 H :    0.025132
  28 C :    0.041539
  29 H :    0.035272
  30 H :    0.026887
  31 H :    0.012743
  32 H :    0.058269
  33 H :    0.059848
Sum of atomic charges:   -0.0000000

LOEWDIN ATOMIC CHARGES
----------------------
   0 S :    0.377556
   1 C :   -0.192673
   2 C :   -0.063133
   3 C :   -0.050397
   4 C :   -0.176852
   5 H :    0.013691
   6 C :   -0.039282
   7 H :    0.027969
   8 H :    0.031925
   9 C :   -0.033489
  10 H :    0.026194
  11 H :    0.031071
  12 C :   -0.060294
  13 H :    0.021316
  14 H :    0.019776
  15 H :    0.031362
  16 S :    0.381391
  17 C :   -0.170766
  18 C :   -0.065364
  19 C :   -0.055066
  20 C :   -0.198193
  21 H :    0.029287
  22 C :   -0.025357
  23 H :    0.030373
  24 H :    0.029179
  25 C :   -0.042843
  26 H :    0.015428
  27 H :    0.024626
  28 C :   -0.052071
  29 H :    0.024774
  30 H :    0.029587
  31 H :    0.019317
  32 H :    0.030817
  33 H :    0.030140

  Mayer bond orders larger than 0.100000
B(  0-S ,  1-C ) :   1.1333 B(  0-S ,  4-C ) :   1.1298 B(  1-C ,  2-C ) :   1.5926
B(  1-C ,  4-C ) :   0.1004 B(  1-C , 32-H ) :   0.9665 B(  2-C ,  3-C ) :   1.2171
B(  2-C ,  6-C ) :   1.0480 B(  3-C ,  4-C ) :   1.5607 B(  3-C ,  5-H ) :   1.0029
B(  4-C , 20-C ) :   1.1066 B(  6-C ,  7-H ) :   0.9290 B(  6-C ,  8-H ) :   0.9422
B(  6-C ,  9-C ) :   1.0472 B(  9-C , 10-H ) :   0.9559 B(  9-C , 11-H ) :   0.9611
B(  9-C , 12-C ) :   1.0599 B( 12-C , 13-H ) :   0.9779 B( 12-C , 14-H ) :   0.9778
B( 12-C , 15-H ) :   0.9753 B( 16-S , 17-C ) :   1.1313 B( 16-S , 20-C ) :   1.1326
B( 17-C , 18-C ) :   1.6124 B( 17-C , 20-C ) :   0.1035 B( 17-C , 33-H ) :   0.9716
B( 18-C , 19-C ) :   1.2330 B( 18-C , 21-H ) :   0.9929 B( 19-C , 20-C ) :   1.5677
B( 19-C , 22-C ) :   1.0445 B( 22-C , 23-H ) :   0.9341 B( 22-C , 24-H ) :   0.9220
B( 22-C , 25-C ) :   1.0594 B( 25-C , 26-H ) :   0.9525 B( 25-C , 27-H ) :   0.9541
B( 25-C , 28-C ) :   1.0890 B( 28-C , 29-H ) :   0.9709 B( 28-C , 30-H ) :   0.9714
B( 28-C , 31-H ) :   0.9701

Dispersion correction           -0.013912067
FINAL SINGLE POINT ENERGY     -1339.872196141279

DIPOLE MOMENT
-------------
                                X             Y             Z
Electronic contribution:     27.42469       5.27071       8.03631
Nuclear contribution   :    -27.93366      -5.42983      -8.36997
                        -----------------------------------------
Total Dipole Moment    :     -0.50897      -0.15912      -0.33366
                        -----------------------------------------
Magnitude (a.u.)       :      0.62905
Magnitude (Debye)      :      1.59892

Rotational constants in cm-1:     0.016654     0.008732     0.006636
Rotational constants in MHz :   499.282430   261.776325   198.931979

                             ****ORCA TERMINATED NORMALLY****
TOTAL RUN TIME: 0 days 0 hours 0 minutes 28 seconds 181 msec
