                         Program Version 4.2.1 -  RELEASE  -
|  1> ! wB97X-D3 SP def2-SVP
|  2> %pal
|  3> nprocs 16
|  4> end
|  5>
|  6> * xyz 0 1
|  7> S 	 -0.312106 	 22.3573 	 31.2231
|  8> C 	 -1.49742 	 23.5979 	 31.5327
|  9> C 	 -1.6601 	 23.8187 	 32.8516
| 10> C 	 -0.603503 	 23.2344 	 33.6273
| 11> C 	 0.244484 	 22.4176 	 32.9511
| 12> H 	 -0.413019 	 23.3602 	 34.6936
| 13> C 	 -2.78138 	 24.6511 	 33.4827
| 14> H 	 -3.08172 	 25.4155 	 32.7145
| 15> H 	 -2.46367 	 25.3541 	 34.2698
| 16> C 	 -3.91479 	 23.8495 	 34.1402
| 17> H 	 -4.32196 	 23.1003 	 33.4324
| 18> H 	 -3.37379 	 23.3529 	 34.9281
| 19> C 	 -5.06485 	 24.6588 	 34.7524
| 20> H 	 -5.65189 	 24.9175 	 33.8934
| 21> H 	 -5.46927 	 23.9681 	 35.5085
| 22> H 	 -4.81719 	 25.5003 	 35.3465
| 23> S 	 2.99359 	 21.9653 	 32.715
| 24> C 	 3.76581 	 21.2071 	 34.0068
| 25> C 	 2.8805 	 20.6215 	 34.9007
| 26> C 	 1.53088 	 20.9133 	 34.5918
| 27> C 	 1.43019 	 21.6944 	 33.4592
| 28> H 	 3.12459 	 20.0248 	 35.7644
| 29> C 	 0.376425 	 20.6505 	 35.5714
| 30> H 	 -0.551144 	 20.8916 	 35.1407
| 31> H 	 0.559115 	 21.3172 	 36.3493
| 32> C 	 0.158942 	 19.2247 	 36.0821
| 33> H 	 -0.453602 	 19.1983 	 37.0057
| 34> H 	 1.07849 	 18.7798 	 36.4436
| 35> C 	 -0.442494 	 18.1354 	 35.1272
| 36> H 	 -1.27188 	 18.5014 	 34.5462
| 37> H 	 -0.786365 	 17.2183 	 35.6772
| 38> H 	 0.340771 	 17.7747 	 34.4023
| 39> H 	 -2.1094 	 24.1067 	 30.7549
| 40> H 	 4.82105 	 21.1192 	 34.0989
| 41> *
| 42>
| 43>                          ****END OF INPUT****

CARTESIAN COORDINATES (ANGSTROEM)
---------------------------------
  S     -0.312106   22.357300   31.223100
  C     -1.497420   23.597900   31.532700
  C     -1.660100   23.818700   32.851600
  C     -0.603503   23.234400   33.627300
  C      0.244484   22.417600   32.951100
  H     -0.413019   23.360200   34.693600
  C     -2.781380   24.651100   33.482700
  H     -3.081720   25.415500   32.714500
  H     -2.463670   25.354100   34.269800
  C     -3.914790   23.849500   34.140200
  H     -4.321960   23.100300   33.432400
  H     -3.373790   23.352900   34.928100
  C     -5.064850   24.658800   34.752400
  H     -5.651890   24.917500   33.893400
  H     -5.469270   23.968100   35.508500
  H     -4.817190   25.500300   35.346500
  S      2.993590   21.965300   32.715000
  C      3.765810   21.207100   34.006800
  C      2.880500   20.621500   34.900700
  C      1.530880   20.913300   34.591800
  C      1.430190   21.694400   33.459200
  H      3.124590   20.024800   35.764400
  C      0.376425   20.650500   35.571400
  H     -0.551144   20.891600   35.140700
  H      0.559115   21.317200   36.349300
  C      0.158942   19.224700   36.082100
  H     -0.453602   19.198300   37.005700
  H      1.078490   18.779800   36.443600
  C     -0.442494   18.135400   35.127200
  H     -1.271880   18.501400   34.546200
  H     -0.786365   17.218300   35.677200
  H      0.340771   17.774700   34.402300
  H     -2.109400   24.106700   30.754900
  H      4.821050   21.119200   34.098900

 Total Charge           Charge          ....    0
 Multiplicity           Mult            ....    1
 Number of Electrons    NEL             ....  134
 Basis Dimension        Dim             ....  322

ORBITAL ENERGIES
----------------

  NO   OCC          E(Eh)            E(eV)
   0   2.0000     -88.968239     -2420.9489
   1   2.0000     -88.959821     -2420.7198
   2   2.0000     -10.330111      -281.0966
   3   2.0000     -10.324732      -280.9502
   4   2.0000     -10.315507      -280.6992
   5   2.0000     -10.313516      -280.6450
   6   2.0000     -10.302682      -280.3502
   7   2.0000     -10.298435      -280.2347
   8   2.0000     -10.294529      -280.1284
   9   2.0000     -10.292296      -280.0676
  10   2.0000     -10.291617      -280.0491
  11   2.0000     -10.290007      -280.0053
  12   2.0000     -10.287395      -279.9343
  13   2.0000     -10.286736      -279.9163
  14   2.0000     -10.282657      -279.8053
  15   2.0000     -10.276996      -279.6513
  16   2.0000      -8.084190      -219.9820
  17   2.0000      -8.074122      -219.7080
  18   2.0000      -6.042510      -164.4250
  19   2.0000      -6.038497      -164.3159
  20   2.0000      -6.035095      -164.2233
  21   2.0000      -6.032762      -164.1598
  22   2.0000      -6.028885      -164.0543
  23   2.0000      -6.024572      -163.9369
  24   2.0000      -1.009720       -27.4759
  25   2.0000      -0.987304       -26.8659
  26   2.0000      -0.909565       -24.7505
  27   2.0000      -0.907627       -24.6978
  28   2.0000      -0.870126       -23.6773
  29   2.0000      -0.851833       -23.1796
  30   2.0000      -0.843453       -22.9515
  31   2.0000      -0.814954       -22.1760
  32   2.0000      -0.788421       -21.4540
  33   2.0000      -0.773646       -21.0520
  34   2.0000      -0.704264       -19.1640
  35   2.0000      -0.698691       -19.0124
  36   2.0000      -0.691780       -18.8243
  37   2.0000      -0.659548       -17.9472
  38   2.0000      -0.640914       -17.4401
  39   2.0000      -0.617730       -16.8093
  40   2.0000      -0.603803       -16.4303
  41   2.0000      -0.575272       -15.6539
  42   2.0000      -0.563021       -15.3206
  43   2.0000      -0.560069       -15.2403
  44   2.0000      -0.536333       -14.5944
  45   2.0000      -0.523177       -14.2364
  46   2.0000      -0.519535       -14.1373
  47   2.0000      -0.507453       -13.8085
  48   2.0000      -0.503913       -13.7122
  49   2.0000      -0.497154       -13.5282
  50   2.0000      -0.491371       -13.3709
  51   2.0000      -0.477319       -12.9885
  52   2.0000      -0.470462       -12.8019
  53   2.0000      -0.466857       -12.7038
  54   2.0000      -0.462961       -12.5978
  55   2.0000      -0.451926       -12.2975
  56   2.0000      -0.446059       -12.1379
  57   2.0000      -0.440010       -11.9733
  58   2.0000      -0.429419       -11.6851
  59   2.0000      -0.421764       -11.4768
  60   2.0000      -0.417117       -11.3503
  61   2.0000      -0.413457       -11.2507
  62   2.0000      -0.410201       -11.1621
  63   2.0000      -0.345779        -9.4091
  64   2.0000      -0.335753        -9.1363
  65   2.0000      -0.326130        -8.8745
  66   2.0000      -0.296772        -8.0756
  67   0.0000       0.033909         0.9227
  68   0.0000       0.070721         1.9244
  69   0.0000       0.113149         3.0789
  70   0.0000       0.127319         3.4645
  71   0.0000       0.132808         3.6139

MULLIKEN ATOMIC CHARGES
-----------------------
   0 S :    0.084797
   1 C :   -0.133303
   2 C :   -0.057932
   3 C :    0.021561
   4 C :   -0.147626
   5 H :    0.015843
   6 C :    0.030852
   7 H :    0.015844
   8 H :    0.017463
   9 C :   -0.088682
  10 H :    0.039412
  11 H :    0.017667
  12 C :   -0.015059
  13 H :    0.042988
  14 H :    0.038638
  15 H :    0.019711
  16 S :    0.138632
  17 C :   -0.074515
  18 C :   -0.038050
  19 C :   -0.031855
  20 C :   -0.182234
  21 H :    0.013445
  22 C :    0.124509
  23 H :    0.016740
  24 H :    0.029115
  25 C :   -0.091259
  26 H :    0.028513
  27 H :    0.013729
  28 C :   -0.079923
  29 H :    0.033371
  30 H :    0.041857
  31 H :    0.045334
  32 H :    0.061667
  33 H :    0.048750
Sum of atomic charges:    0.0000000

LOEWDIN ATOMIC CHARGES
----------------------
   0 S :    0.361197
   1 C :   -0.191837
   2 C :   -0.071220
   3 C :   -0.063339
   4 C :   -0.169368
   5 H :    0.033018
   6 C :   -0.042622
   7 H :    0.027002
   8 H :    0.028151
   9 C :   -0.040174
  10 H :    0.028006
  11 H :    0.018996
  12 C :   -0.060847
  13 H :    0.028329
  14 H :    0.036021
  15 H :    0.018723
  16 S :    0.442108
  17 C :   -0.192376
  18 C :   -0.073600
  19 C :   -0.046777
  20 C :   -0.209232
  21 H :    0.028871
  22 C :   -0.019925
  23 H :    0.025575
  24 H :    0.029392
  25 C :   -0.045120
  26 H :    0.028410
  27 H :    0.016931
  28 C :   -0.071500
  29 H :    0.019962
  30 H :    0.032623
  31 H :    0.031446
  32 H :    0.039013
  33 H :    0.024165

  Mayer bond orders larger than 0.100000
B(  0-S ,  1-C ) :   1.1259 B(  0-S ,  4-C ) :   1.1132 B(  1-C ,  2-C ) :   1.6576
B(  1-C , 32-H ) :   0.9590 B(  2-C ,  3-C ) :   1.1949 B(  2-C ,  6-C ) :   1.0237
B(  3-C ,  4-C ) :   1.6312 B(  3-C ,  5-H ) :   0.9927 B(  4-C , 20-C ) :   1.0261
B(  6-C ,  7-H ) :   0.9436 B(  6-C ,  8-H ) :   0.9430 B(  6-C ,  9-C ) :   1.0464
B(  9-C , 10-H ) :   0.9582 B(  9-C , 11-H ) :   0.9575 B(  9-C , 12-C ) :   1.0782
B( 12-C , 13-H ) :   0.9787 B( 12-C , 14-H ) :   0.9738 B( 12-C , 15-H ) :   0.9733
B( 16-S , 17-C ) :   1.1884 B( 16-S , 20-C ) :   1.1495 B( 17-C , 18-C ) :   1.5663
B( 17-C , 33-H ) :   0.9725 B( 18-C , 19-C ) :   1.2682 B( 18-C , 21-H ) :   0.9928
B( 19-C , 20-C ) :   1.5841 B( 19-C , 22-C ) :   1.0312 B( 22-C , 23-H ) :   0.9303
B( 22-C , 24-H ) :   0.9320 B( 22-C , 25-C ) :   1.0687 B( 25-C , 26-H ) :   0.9555
B( 25-C , 27-H ) :   0.9574 B( 25-C , 28-C ) :   1.0689 B( 28-C , 29-H ) :   0.9774
B( 28-C , 30-H ) :   0.9752 B( 28-C , 31-H ) :   0.9782

Dispersion correction           -0.013900506
FINAL SINGLE POINT ENERGY     -1339.874814933876

DIPOLE MOMENT
-------------
                                X             Y             Z
Electronic contribution:     22.71027       3.13589     -18.55479
Nuclear contribution   :    -22.97548      -3.07631      19.28931
                        -----------------------------------------
Total Dipole Moment    :     -0.26521       0.05958       0.73453
                        -----------------------------------------
Magnitude (a.u.)       :      0.78321
Magnitude (Debye)      :      1.99075

Rotational constants in cm-1:     0.017864     0.008403     0.006596
Rotational constants in MHz :   535.550905   251.908324   197.744450

                             ****ORCA TERMINATED NORMALLY****
TOTAL RUN TIME: 0 days 0 hours 0 minutes 34 seconds 379 msec
