                         Program Version 4.2.1 -  RELEASE  -
|  1> ! wB97X-D3 SP def2-SVP
|  2> %pal
|  3> nprocs 16
|  4> end
|  5>
|  6> * xyz 0 1
|  7> S 	 1.45368 	 -4.36149 	 79.4328
|  8> C 	 1.42713 	 -2.80387 	 80.0634
|  9> C 	 2.69138 	 -2.36851 	 80.3123
| 10> C 	 3.72027 	 -3.26158 	 79.9321
| 11> C 	 3.21478 	 -4.44623 	 79.4676
| 12> H 	 4.77139 	 -3.11406 	 79.9826
| 13> C 	 2.897 	 -1.0564 	 80.9961
| 14> H 	 2.19071 	 -0.303469 	 80.6254
| 15> H 	 3.85124 	 -0.604097 	 80.6234
| 16> C 	 2.94302 	 -1.09002 	 82.5325
| 17> H 	 2.79309 	 -0.135306 	 82.9881
| 18> H 	 2.27165 	 -1.86464 	 82.9474
| 19> C 	 4.37289 	 -1.42118 	 83.026
| 20> H 	 5.0919 	 -0.718376 	 82.5874
| 21> H 	 4.58453 	 -1.2886 	 84.151
| 22> H 	 4.61599 	 -2.48933 	 82.7303
| 23> S 	 4.95899 	 -5.33892 	 77.5541
| 24> C 	 5.60487 	 -6.96789 	 77.6814
| 25> C 	 5.09373 	 -7.66717 	 78.7602
| 26> C 	 4.20064 	 -6.86446 	 79.4919
| 27> C 	 4.04048 	 -5.55822 	 78.9954
| 28> H 	 5.37953 	 -8.62854 	 79.0249
| 29> C 	 3.51602 	 -7.28917 	 80.8475
| 30> H 	 3.25421 	 -8.29299 	 80.8108
| 31> H 	 2.55979 	 -6.74335 	 80.838
| 32> C 	 4.3855 	 -6.93577 	 82.0762
| 33> H 	 4.59823 	 -5.85398 	 82.1064
| 34> H 	 5.39853 	 -7.26159 	 81.9543
| 35> C 	 3.84485 	 -7.46588 	 83.4499
| 36> H 	 4.65205 	 -7.16143 	 84.1558
| 37> H 	 3.73022 	 -8.56297 	 83.505
| 38> H 	 2.92304 	 -7.07075 	 83.8102
| 39> H 	 0.539624 	 -2.29167 	 80.4383
| 40> H 	 6.39761 	 -7.38825 	 76.9562
| 41> *
| 42>
| 43>                          ****END OF INPUT****

CARTESIAN COORDINATES (ANGSTROEM)
---------------------------------
  S      1.453680   -4.361490   79.432800
  C      1.427130   -2.803870   80.063400
  C      2.691380   -2.368510   80.312300
  C      3.720270   -3.261580   79.932100
  C      3.214780   -4.446230   79.467600
  H      4.771390   -3.114060   79.982600
  C      2.897000   -1.056400   80.996100
  H      2.190710   -0.303469   80.625400
  H      3.851240   -0.604097   80.623400
  C      2.943020   -1.090020   82.532500
  H      2.793090   -0.135306   82.988100
  H      2.271650   -1.864640   82.947400
  C      4.372890   -1.421180   83.026000
  H      5.091900   -0.718376   82.587400
  H      4.584530   -1.288600   84.151000
  H      4.615990   -2.489330   82.730300
  S      4.958990   -5.338920   77.554100
  C      5.604870   -6.967890   77.681400
  C      5.093730   -7.667170   78.760200
  C      4.200640   -6.864460   79.491900
  C      4.040480   -5.558220   78.995400
  H      5.379530   -8.628540   79.024900
  C      3.516020   -7.289170   80.847500
  H      3.254210   -8.292990   80.810800
  H      2.559790   -6.743350   80.838000
  C      4.385500   -6.935770   82.076200
  H      4.598230   -5.853980   82.106400
  H      5.398530   -7.261590   81.954300
  C      3.844850   -7.465880   83.449900
  H      4.652050   -7.161430   84.155800
  H      3.730220   -8.562970   83.505000
  H      2.923040   -7.070750   83.810200
  H      0.539624   -2.291670   80.438300
  H      6.397610   -7.388250   76.956200

 Total Charge           Charge          ....    0
 Multiplicity           Mult            ....    1
 Number of Electrons    NEL             ....  134
 Basis Dimension        Dim             ....  322

ORBITAL ENERGIES
----------------

  NO   OCC          E(Eh)            E(eV)
   0   2.0000     -88.968513     -2420.9563
   1   2.0000     -88.966343     -2420.8973
   2   2.0000     -10.327931      -281.0373
   3   2.0000     -10.324828      -280.9528
   4   2.0000     -10.322713      -280.8953
   5   2.0000     -10.307285      -280.4755
   6   2.0000     -10.302978      -280.3583
   7   2.0000     -10.293822      -280.1091
   8   2.0000     -10.291067      -280.0342
   9   2.0000     -10.290977      -280.0317
  10   2.0000     -10.290500      -280.0187
  11   2.0000     -10.286976      -279.9229
  12   2.0000     -10.286668      -279.9145
  13   2.0000     -10.285928      -279.8943
  14   2.0000     -10.285752      -279.8895
  15   2.0000     -10.279730      -279.7257
  16   2.0000      -8.083340      -219.9589
  17   2.0000      -8.081826      -219.9177
  18   2.0000      -6.041653      -164.4017
  19   2.0000      -6.040215      -164.3626
  20   2.0000      -6.037788      -164.2966
  21   2.0000      -6.036114      -164.2510
  22   2.0000      -6.034352      -164.2031
  23   2.0000      -6.032762      -164.1598
  24   2.0000      -1.013311       -27.5736
  25   2.0000      -0.990983       -26.9660
  26   2.0000      -0.910515       -24.7764
  27   2.0000      -0.897214       -24.4144
  28   2.0000      -0.875073       -23.8120
  29   2.0000      -0.849206       -23.1081
  30   2.0000      -0.845540       -23.0083
  31   2.0000      -0.817363       -22.2416
  32   2.0000      -0.778025       -21.1711
  33   2.0000      -0.762835       -20.7578
  34   2.0000      -0.705369       -19.1941
  35   2.0000      -0.695863       -18.9354
  36   2.0000      -0.694091       -18.8872
  37   2.0000      -0.665892       -18.1199
  38   2.0000      -0.648845       -17.6560
  39   2.0000      -0.615771       -16.7560
  40   2.0000      -0.592601       -16.1255
  41   2.0000      -0.578462       -15.7408
  42   2.0000      -0.553394       -15.0586
  43   2.0000      -0.549901       -14.9636
  44   2.0000      -0.534720       -14.5505
  45   2.0000      -0.522541       -14.2191
  46   2.0000      -0.514385       -13.9971
  47   2.0000      -0.510282       -13.8855
  48   2.0000      -0.500488       -13.6190
  49   2.0000      -0.494144       -13.4463
  50   2.0000      -0.492197       -13.3934
  51   2.0000      -0.482295       -13.1239
  52   2.0000      -0.472485       -12.8570
  53   2.0000      -0.464606       -12.6426
  54   2.0000      -0.462925       -12.5968
  55   2.0000      -0.449862       -12.2414
  56   2.0000      -0.444811       -12.1039
  57   2.0000      -0.440360       -11.9828
  58   2.0000      -0.430681       -11.7194
  59   2.0000      -0.420639       -11.4462
  60   2.0000      -0.415024       -11.2934
  61   2.0000      -0.410715       -11.1761
  62   2.0000      -0.410239       -11.1632
  63   2.0000      -0.342176        -9.3111
  64   2.0000      -0.339754        -9.2452
  65   2.0000      -0.324810        -8.8385
  66   2.0000      -0.300295        -8.1714
  67   0.0000       0.037245         1.0135
  68   0.0000       0.064123         1.7449
  69   0.0000       0.115766         3.1502
  70   0.0000       0.123781         3.3683
  71   0.0000       0.131687         3.5834

MULLIKEN ATOMIC CHARGES
-----------------------
   0 S :    0.128922
   1 C :   -0.114057
   2 C :   -0.083590
   3 C :    0.040277
   4 C :   -0.148037
   5 H :    0.005107
   6 C :    0.035869
   7 H :    0.028113
   8 H :    0.017257
   9 C :   -0.023654
  10 H :    0.026466
  11 H :    0.040390
  12 C :   -0.125641
  13 H :    0.027506
  14 H :    0.045616
  15 H :    0.044955
  16 S :    0.129549
  17 C :   -0.128106
  18 C :    0.004230
  19 C :   -0.065052
  20 C :   -0.194692
  21 H :   -0.009457
  22 C :    0.131242
  23 H :   -0.000729
  24 H :    0.018432
  25 C :   -0.064942
  26 H :    0.025057
  27 H :    0.013725
  28 C :   -0.048126
  29 H :    0.036933
  30 H :    0.033488
  31 H :    0.031218
  32 H :    0.056024
  33 H :    0.085709
Sum of atomic charges:   -0.0000000

LOEWDIN ATOMIC CHARGES
----------------------
   0 S :    0.434386
   1 C :   -0.215326
   2 C :   -0.073099
   3 C :   -0.055525
   4 C :   -0.193501
   5 H :    0.029568
   6 C :   -0.038522
   7 H :    0.031954
   8 H :    0.031620
   9 C :   -0.039690
  10 H :    0.022191
  11 H :    0.028669
  12 C :   -0.079837
  13 H :    0.019662
  14 H :    0.031618
  15 H :    0.026672
  16 S :    0.427034
  17 C :   -0.194435
  18 C :   -0.066571
  19 C :   -0.049610
  20 C :   -0.219282
  21 H :    0.022930
  22 C :   -0.023143
  23 H :    0.015605
  24 H :    0.026205
  25 C :   -0.041622
  26 H :    0.028560
  27 H :    0.020726
  28 C :   -0.066924
  29 H :    0.033449
  30 H :    0.025758
  31 H :    0.019027
  32 H :    0.035705
  33 H :    0.045748

  Mayer bond orders larger than 0.100000
B(  0-S ,  1-C ) :   1.1571 B(  0-S ,  4-C ) :   1.1561 B(  1-C ,  2-C ) :   1.5990
B(  1-C , 32-H ) :   0.9650 B(  2-C ,  3-C ) :   1.2489 B(  2-C ,  6-C ) :   1.0307
B(  3-C ,  4-C ) :   1.5548 B(  3-C ,  5-H ) :   1.0063 B(  4-C , 20-C ) :   1.0215
B(  6-C ,  7-H ) :   0.9431 B(  6-C ,  8-H ) :   0.9411 B(  6-C ,  9-C ) :   1.0534
B(  9-C , 10-H ) :   0.9555 B(  9-C , 11-H ) :   0.9587 B(  9-C , 12-C ) :   1.0707
B( 12-C , 13-H ) :   0.9752 B( 12-C , 14-H ) :   0.9751 B( 12-C , 15-H ) :   0.9759
B( 16-S , 17-C ) :   1.1729 B( 16-S , 20-C ) :   1.1629 B( 17-C , 18-C ) :   1.5657
B( 17-C , 20-C ) :   0.1060 B( 17-C , 33-H ) :   0.9553 B( 18-C , 19-C ) :   1.2825
B( 18-C , 21-H ) :   1.0056 B( 19-C , 20-C ) :   1.5640 B( 19-C , 22-C ) :   1.0370
B( 22-C , 23-H ) :   0.9351 B( 22-C , 24-H ) :   0.9256 B( 22-C , 25-C ) :   1.0608
B( 25-C , 26-H ) :   0.9520 B( 25-C , 27-H ) :   0.9556 B( 25-C , 28-C ) :   1.0727
B( 28-C , 29-H ) :   0.9752 B( 28-C , 30-H ) :   0.9766 B( 28-C , 31-H ) :   0.9791

Dispersion correction           -0.014927566
FINAL SINGLE POINT ENERGY     -1339.883693832592

DIPOLE MOMENT
-------------
                                X             Y             Z
Electronic contribution:     -4.45307      -4.30130     -26.29111
Nuclear contribution   :      4.64693       4.36993      26.73629
                        -----------------------------------------
Total Dipole Moment    :      0.19386       0.06863       0.44518
                        -----------------------------------------
Magnitude (a.u.)       :      0.49039
Magnitude (Debye)      :      1.24646

Rotational constants in cm-1:     0.017191     0.009345     0.007725
Rotational constants in MHz :   515.360886   280.162779   231.593457

                             ****ORCA TERMINATED NORMALLY****
TOTAL RUN TIME: 0 days 0 hours 0 minutes 35 seconds 334 msec
