                         Program Version 4.2.1 -  RELEASE  -
|  1> ! wB97X-D3 SP def2-SVP
|  2> %pal
|  3> nprocs 16
|  4> end
|  5>
|  6> * xyz 0 1
|  7> S 	 7.96609 	 -19.6714 	 87.5178
|  8> C 	 7.41173 	 -20.2211 	 89.1043
|  9> C 	 6.23077 	 -19.5891 	 89.4834
| 10> C 	 5.83561 	 -18.6696 	 88.4345
| 11> C 	 6.71887 	 -18.4966 	 87.3721
| 12> H 	 5.12767 	 -17.9232 	 88.6792
| 13> C 	 5.51087 	 -19.7979 	 90.8207
| 14> H 	 5.34848 	 -18.8086 	 91.2641
| 15> H 	 6.22244 	 -20.1895 	 91.5025
| 16> C 	 4.23248 	 -20.6458 	 90.7359
| 17> H 	 3.81267 	 -20.5729 	 91.7416
| 18> H 	 3.52276 	 -20.1078 	 90.1002
| 19> C 	 4.48457 	 -22.1238 	 90.5395
| 20> H 	 4.62533 	 -22.4377 	 89.5275
| 21> H 	 5.26691 	 -22.5596 	 91.0756
| 22> H 	 3.58041 	 -22.5708 	 90.8908
| 23> S 	 8.29498 	 -17.2675 	 85.5543
| 24> C 	 7.59793 	 -16.1062 	 84.4338
| 25> C 	 6.34402 	 -15.7005 	 84.797
| 26> C 	 5.85454 	 -16.5078 	 85.8308
| 27> C 	 6.7874 	 -17.385 	 86.3484
| 28> H 	 5.70298 	 -14.9508 	 84.2806
| 29> C 	 4.43867 	 -16.2198 	 86.2605
| 30> H 	 4.14054 	 -17.2324 	 86.4924
| 31> H 	 3.88589 	 -15.926 	 85.3949
| 32> C 	 4.20276 	 -15.2681 	 87.4737
| 33> H 	 4.59938 	 -14.2227 	 87.3786
| 34> H 	 4.90934 	 -15.6529 	 88.2604
| 35> C 	 2.75678 	 -15.1422 	 87.8463
| 36> H 	 2.61954 	 -14.7531 	 88.8061
| 37> H 	 2.19925 	 -16.1406 	 87.8618
| 38> H 	 2.33151 	 -14.4993 	 87.0857
| 39> H 	 7.98096 	 -20.8981 	 89.7278
| 40> H 	 7.86661 	 -15.9636 	 83.3699
| 41> *
| 42>
| 43>                          ****END OF INPUT****

CARTESIAN COORDINATES (ANGSTROEM)
---------------------------------
  S      7.966090  -19.671400   87.517800
  C      7.411730  -20.221100   89.104300
  C      6.230770  -19.589100   89.483400
  C      5.835610  -18.669600   88.434500
  C      6.718870  -18.496600   87.372100
  H      5.127670  -17.923200   88.679200
  C      5.510870  -19.797900   90.820700
  H      5.348480  -18.808600   91.264100
  H      6.222440  -20.189500   91.502500
  C      4.232480  -20.645800   90.735900
  H      3.812670  -20.572900   91.741600
  H      3.522760  -20.107800   90.100200
  C      4.484570  -22.123800   90.539500
  H      4.625330  -22.437700   89.527500
  H      5.266910  -22.559600   91.075600
  H      3.580410  -22.570800   90.890800
  S      8.294980  -17.267500   85.554300
  C      7.597930  -16.106200   84.433800
  C      6.344020  -15.700500   84.797000
  C      5.854540  -16.507800   85.830800
  C      6.787400  -17.385000   86.348400
  H      5.702980  -14.950800   84.280600
  C      4.438670  -16.219800   86.260500
  H      4.140540  -17.232400   86.492400
  H      3.885890  -15.926000   85.394900
  C      4.202760  -15.268100   87.473700
  H      4.599380  -14.222700   87.378600
  H      4.909340  -15.652900   88.260400
  C      2.756780  -15.142200   87.846300
  H      2.619540  -14.753100   88.806100
  H      2.199250  -16.140600   87.861800
  H      2.331510  -14.499300   87.085700
  H      7.980960  -20.898100   89.727800
  H      7.866610  -15.963600   83.369900

 Total Charge           Charge          ....    0
 Multiplicity           Mult            ....    1
 Number of Electrons    NEL             ....  134
 Basis Dimension        Dim             ....  322

ORBITAL ENERGIES
----------------

  NO   OCC          E(Eh)            E(eV)
   0   2.0000     -88.967959     -2420.9412
   1   2.0000     -88.965313     -2420.8692
   2   2.0000     -10.335092      -281.2321
   3   2.0000     -10.330329      -281.1025
   4   2.0000     -10.315311      -280.6939
   5   2.0000     -10.314022      -280.6588
   6   2.0000     -10.304295      -280.3941
   7   2.0000     -10.296302      -280.1766
   8   2.0000     -10.293813      -280.1089
   9   2.0000     -10.291785      -280.0537
  10   2.0000     -10.291176      -280.0371
  11   2.0000     -10.290331      -280.0141
  12   2.0000     -10.289100      -279.9806
  13   2.0000     -10.288216      -279.9566
  14   2.0000     -10.278821      -279.7009
  15   2.0000     -10.267904      -279.4039
  16   2.0000      -8.083409      -219.9608
  17   2.0000      -8.080263      -219.8751
  18   2.0000      -6.041894      -164.4083
  19   2.0000      -6.038813      -164.3245
  20   2.0000      -6.037898      -164.2996
  21   2.0000      -6.034641      -164.2109
  22   2.0000      -6.034059      -164.1951
  23   2.0000      -6.031075      -164.1139
  24   2.0000      -1.012264       -27.5451
  25   2.0000      -0.986546       -26.8453
  26   2.0000      -0.914935       -24.8966
  27   2.0000      -0.910302       -24.7706
  28   2.0000      -0.870910       -23.6987
  29   2.0000      -0.856631       -23.3101
  30   2.0000      -0.844597       -22.9826
  31   2.0000      -0.816027       -22.2052
  32   2.0000      -0.787730       -21.4352
  33   2.0000      -0.773971       -21.0608
  34   2.0000      -0.708731       -19.2856
  35   2.0000      -0.701888       -19.0993
  36   2.0000      -0.688278       -18.7290
  37   2.0000      -0.667344       -18.1594
  38   2.0000      -0.638313       -17.3694
  39   2.0000      -0.622617       -16.9423
  40   2.0000      -0.591620       -16.0988
  41   2.0000      -0.568790       -15.4776
  42   2.0000      -0.563032       -15.3209
  43   2.0000      -0.548518       -14.9259
  44   2.0000      -0.544865       -14.8265
  45   2.0000      -0.528827       -14.3901
  46   2.0000      -0.519097       -14.1253
  47   2.0000      -0.515250       -14.0207
  48   2.0000      -0.507185       -13.8012
  49   2.0000      -0.497664       -13.5421
  50   2.0000      -0.492611       -13.4046
  51   2.0000      -0.484644       -13.1878
  52   2.0000      -0.478308       -13.0154
  53   2.0000      -0.467178       -12.7126
  54   2.0000      -0.460350       -12.5268
  55   2.0000      -0.453129       -12.3303
  56   2.0000      -0.439328       -11.9547
  57   2.0000      -0.437759       -11.9120
  58   2.0000      -0.431594       -11.7443
  59   2.0000      -0.429144       -11.6776
  60   2.0000      -0.421239       -11.4625
  61   2.0000      -0.409255       -11.1364
  62   2.0000      -0.407410       -11.0862
  63   2.0000      -0.354214        -9.6387
  64   2.0000      -0.335633        -9.1331
  65   2.0000      -0.328267        -8.9326
  66   2.0000      -0.283644        -7.7183
  67   0.0000       0.018822         0.5122
  68   0.0000       0.081804         2.2260
  69   0.0000       0.098830         2.6893
  70   0.0000       0.117766         3.2046
  71   0.0000       0.135304         3.6818

MULLIKEN ATOMIC CHARGES
-----------------------
   0 S :    0.088478
   1 C :   -0.126890
   2 C :   -0.110118
   3 C :    0.017116
   4 C :   -0.093964
   5 H :   -0.013112
   6 C :    0.069686
   7 H :    0.026545
   8 H :    0.002424
   9 C :   -0.061502
  10 H :    0.023361
  11 H :    0.035576
  12 C :    0.006397
  13 H :    0.034467
  14 H :    0.012865
  15 H :    0.021670
  16 S :    0.101910
  17 C :   -0.096822
  18 C :   -0.039571
  19 C :   -0.103341
  20 C :   -0.103929
  21 H :    0.034608
  22 C :    0.075335
  23 H :    0.021397
  24 H :    0.006931
  25 C :   -0.089609
  26 H :    0.030299
  27 H :    0.029784
  28 C :   -0.014580
  29 H :    0.026416
  30 H :    0.033735
  31 H :    0.035059
  32 H :    0.046361
  33 H :    0.073017
Sum of atomic charges:   -0.0000000

LOEWDIN ATOMIC CHARGES
----------------------
   0 S :    0.400458
   1 C :   -0.193968
   2 C :   -0.055443
   3 C :   -0.077525
   4 C :   -0.194472
   5 H :    0.017638
   6 C :   -0.031118
   7 H :    0.032503
   8 H :    0.023071
   9 C :   -0.035708
  10 H :    0.026627
  11 H :    0.028273
  12 C :   -0.055636
  13 H :    0.025558
  14 H :    0.019652
  15 H :    0.028007
  16 S :    0.419819
  17 C :   -0.195558
  18 C :   -0.068579
  19 C :   -0.065452
  20 C :   -0.201310
  21 H :    0.041024
  22 C :   -0.029331
  23 H :    0.030947
  24 H :    0.022458
  25 C :   -0.048789
  26 H :    0.029477
  27 H :    0.024755
  28 C :   -0.062985
  29 H :    0.019776
  30 H :    0.031994
  31 H :    0.028469
  32 H :    0.025564
  33 H :    0.039806

  Mayer bond orders larger than 0.100000
B(  0-S ,  1-C ) :   1.1323 B(  0-S ,  4-C ) :   1.1550 B(  1-C ,  2-C ) :   1.6094
B(  1-C , 32-H ) :   0.9693 B(  2-C ,  3-C ) :   1.2647 B(  2-C ,  6-C ) :   1.0194
B(  3-C ,  4-C ) :   1.5657 B(  3-C ,  5-H ) :   0.9864 B(  4-C , 20-C ) :   1.0386
B(  6-C ,  7-H ) :   0.9372 B(  6-C ,  8-H ) :   0.9392 B(  6-C ,  9-C ) :   1.0784
B(  9-C , 10-H ) :   0.9549 B(  9-C , 11-H ) :   0.9572 B(  9-C , 12-C ) :   1.0664
B( 12-C , 13-H ) :   0.9752 B( 12-C , 14-H ) :   0.9728 B( 12-C , 15-H ) :   0.9736
B( 16-S , 17-C ) :   1.1545 B( 16-S , 20-C ) :   1.1374 B( 17-C , 18-C ) :   1.5937
B( 17-C , 33-H ) :   0.9559 B( 18-C , 19-C ) :   1.2809 B( 18-C , 21-H ) :   0.9803
B( 19-C , 20-C ) :   1.5873 B( 19-C , 22-C ) :   1.0353 B( 22-C , 23-H ) :   0.9258
B( 22-C , 24-H ) :   0.9327 B( 22-C , 25-C ) :   1.0565 B( 25-C , 26-H ) :   0.9528
B( 25-C , 27-H ) :   0.9518 B( 25-C , 28-C ) :   1.0749 B( 28-C , 29-H ) :   0.9715
B( 28-C , 30-H ) :   0.9741 B( 28-C , 31-H ) :   0.9735

Dispersion correction           -0.014084470
FINAL SINGLE POINT ENERGY     -1339.855242086057

DIPOLE MOMENT
-------------
                                X             Y             Z
Electronic contribution:     25.27069      -0.56227     -16.25290
Nuclear contribution   :    -25.90395       0.72105      16.64321
                        -----------------------------------------
Total Dipole Moment    :     -0.63326       0.15877       0.39031
                        -----------------------------------------
Magnitude (a.u.)       :      0.76064
Magnitude (Debye)      :      1.93339

Rotational constants in cm-1:     0.018141     0.009093     0.006365
Rotational constants in MHz :   543.864542   272.614058   190.805680

                             ****ORCA TERMINATED NORMALLY****
TOTAL RUN TIME: 0 days 0 hours 0 minutes 34 seconds 101 msec
