                         Program Version 4.2.1 -  RELEASE  -
|  1> ! wB97X-D3 SP def2-SVP
|  2> %pal
|  3> nprocs 16
|  4> end
|  5>
|  6> * xyz 0 1
|  7> S 	 -56.5669 	 44.5622 	 133.397
|  8> C 	 -55.198 	 43.8293 	 134.238
|  9> C 	 -55.4433 	 43.5126 	 135.554
| 10> C 	 -56.6778 	 44.0646 	 135.936
| 11> C 	 -57.3678 	 44.7333 	 134.95
| 12> H 	 -57.1698 	 43.9824 	 136.897
| 13> C 	 -54.4721 	 42.8741 	 136.513
| 14> H 	 -54.0531 	 41.9579 	 136.224
| 15> H 	 -55.0085 	 42.6908 	 137.378
| 16> C 	 -53.3334 	 43.8485 	 136.89
| 17> H 	 -52.589 	 43.6916 	 136.022
| 18> H 	 -53.7503 	 44.8493 	 136.895
| 19> C 	 -52.6562 	 43.518 	 138.211
| 20> H 	 -51.8704 	 44.1877 	 138.424
| 21> H 	 -53.346 	 43.6317 	 139.078
| 22> H 	 -52.3831 	 42.4427 	 138.279
| 23> S 	 -58.6285 	 46.7962 	 136.193
| 24> C 	 -60.3058 	 47.1591 	 135.879
| 25> C 	 -60.8281 	 46.2542 	 135.028
| 26> C 	 -59.8664 	 45.3542 	 134.496
| 27> C 	 -58.59 	 45.4953 	 135.092
| 28> H 	 -61.9781 	 46.3204 	 134.917
| 29> C 	 -60.2264 	 44.3418 	 133.477
| 30> H 	 -61.2202 	 43.9908 	 133.646
| 31> H 	 -59.6846 	 43.4369 	 133.719
| 32> C 	 -60.1039 	 44.6638 	 132.03
| 33> H 	 -59.2026 	 45.0866 	 131.687
| 34> H 	 -60.8316 	 45.4036 	 131.831
| 35> C 	 -60.3078 	 43.4874 	 130.999
| 36> H 	 -61.3369 	 43.0886 	 130.936
| 37> H 	 -59.6153 	 42.6527 	 131.28
| 38> H 	 -60.1119 	 43.9962 	 130.033
| 39> H 	 -54.2961 	 43.424 	 133.758
| 40> H 	 -60.9075 	 47.8861 	 136.383
| 41> *
| 42>
| 43>                          ****END OF INPUT****

CARTESIAN COORDINATES (ANGSTROEM)
---------------------------------
  S    -56.566900   44.562200  133.397000
  C    -55.198000   43.829300  134.238000
  C    -55.443300   43.512600  135.554000
  C    -56.677800   44.064600  135.936000
  C    -57.367800   44.733300  134.950000
  H    -57.169800   43.982400  136.897000
  C    -54.472100   42.874100  136.513000
  H    -54.053100   41.957900  136.224000
  H    -55.008500   42.690800  137.378000
  C    -53.333400   43.848500  136.890000
  H    -52.589000   43.691600  136.022000
  H    -53.750300   44.849300  136.895000
  C    -52.656200   43.518000  138.211000
  H    -51.870400   44.187700  138.424000
  H    -53.346000   43.631700  139.078000
  H    -52.383100   42.442700  138.279000
  S    -58.628500   46.796200  136.193000
  C    -60.305800   47.159100  135.879000
  C    -60.828100   46.254200  135.028000
  C    -59.866400   45.354200  134.496000
  C    -58.590000   45.495300  135.092000
  H    -61.978100   46.320400  134.917000
  C    -60.226400   44.341800  133.477000
  H    -61.220200   43.990800  133.646000
  H    -59.684600   43.436900  133.719000
  C    -60.103900   44.663800  132.030000
  H    -59.202600   45.086600  131.687000
  H    -60.831600   45.403600  131.831000
  C    -60.307800   43.487400  130.999000
  H    -61.336900   43.088600  130.936000
  H    -59.615300   42.652700  131.280000
  H    -60.111900   43.996200  130.033000
  H    -54.296100   43.424000  133.758000
  H    -60.907500   47.886100  136.383000

 Total Charge           Charge          ....    0
 Multiplicity           Mult            ....    1
 Number of Electrons    NEL             ....  134
 Basis Dimension        Dim             ....  322

ORBITAL ENERGIES
----------------

  NO   OCC          E(Eh)            E(eV)
   0   2.0000     -88.969349     -2420.9791
   1   2.0000     -88.963858     -2420.8297
   2   2.0000     -10.327718      -281.0315
   3   2.0000     -10.324361      -280.9402
   4   2.0000     -10.313818      -280.6533
   5   2.0000     -10.309438      -280.5341
   6   2.0000     -10.301285      -280.3122
   7   2.0000     -10.298499      -280.2364
   8   2.0000     -10.295039      -280.1422
   9   2.0000     -10.292123      -280.0629
  10   2.0000     -10.291550      -280.0473
  11   2.0000     -10.283113      -279.8177
  12   2.0000     -10.282388      -279.7980
  13   2.0000     -10.279939      -279.7314
  14   2.0000     -10.276880      -279.6481
  15   2.0000     -10.272909      -279.5401
  16   2.0000      -8.083345      -219.9590
  17   2.0000      -8.079397      -219.8516
  18   2.0000      -6.041806      -164.4059
  19   2.0000      -6.038128      -164.3058
  20   2.0000      -6.037804      -164.2970
  21   2.0000      -6.034034      -164.1944
  22   2.0000      -6.033597      -164.1825
  23   2.0000      -6.030410      -164.0958
  24   2.0000      -1.011653       -27.5285
  25   2.0000      -0.989196       -26.9174
  26   2.0000      -0.916765       -24.9464
  27   2.0000      -0.911305       -24.7979
  28   2.0000      -0.873037       -23.7565
  29   2.0000      -0.852560       -23.1993
  30   2.0000      -0.845289       -23.0015
  31   2.0000      -0.816730       -22.2244
  32   2.0000      -0.787225       -21.4215
  33   2.0000      -0.769880       -20.9495
  34   2.0000      -0.707018       -19.2389
  35   2.0000      -0.699699       -19.0398
  36   2.0000      -0.694866       -18.9083
  37   2.0000      -0.659799       -17.9541
  38   2.0000      -0.637411       -17.3448
  39   2.0000      -0.622252       -16.9323
  40   2.0000      -0.598821       -16.2947
  41   2.0000      -0.573292       -15.6001
  42   2.0000      -0.565944       -15.4001
  43   2.0000      -0.560089       -15.2408
  44   2.0000      -0.532064       -14.4782
  45   2.0000      -0.527160       -14.3448
  46   2.0000      -0.520460       -14.1624
  47   2.0000      -0.510272       -13.8852
  48   2.0000      -0.509051       -13.8520
  49   2.0000      -0.496226       -13.5030
  50   2.0000      -0.490959       -13.3597
  51   2.0000      -0.477609       -12.9964
  52   2.0000      -0.468749       -12.7553
  53   2.0000      -0.463519       -12.6130
  54   2.0000      -0.458592       -12.4789
  55   2.0000      -0.446602       -12.1527
  56   2.0000      -0.444920       -12.1069
  57   2.0000      -0.439097       -11.9484
  58   2.0000      -0.435781       -11.8582
  59   2.0000      -0.430395       -11.7116
  60   2.0000      -0.415449       -11.3049
  61   2.0000      -0.413622       -11.2552
  62   2.0000      -0.408560       -11.1175
  63   2.0000      -0.345690        -9.4067
  64   2.0000      -0.336648        -9.1606
  65   2.0000      -0.326638        -8.8883
  66   2.0000      -0.293485        -7.9861
  67   0.0000       0.032448         0.8830
  68   0.0000       0.068487         1.8636
  69   0.0000       0.101393         2.7590
  70   0.0000       0.126761         3.4493
  71   0.0000       0.135080         3.6757

MULLIKEN ATOMIC CHARGES
-----------------------
   0 S :    0.123349
   1 C :   -0.125850
   2 C :   -0.088972
   3 C :    0.014448
   4 C :   -0.166950
   5 H :    0.011845
   6 C :    0.144584
   7 H :    0.015931
   8 H :   -0.012525
   9 C :   -0.107968
  10 H :    0.039427
  11 H :    0.043426
  12 C :   -0.040379
  13 H :    0.034908
  14 H :    0.026416
  15 H :    0.032735
  16 S :    0.116916
  17 C :   -0.092932
  18 C :   -0.063297
  19 C :   -0.030200
  20 C :   -0.149728
  21 H :    0.050904
  22 C :    0.098416
  23 H :   -0.000084
  24 H :    0.007825
  25 C :   -0.035891
  26 H :    0.011168
  27 H :    0.007513
  28 C :   -0.082107
  29 H :    0.033828
  30 H :    0.046912
  31 H :    0.042139
  32 H :    0.048732
  33 H :    0.045460
Sum of atomic charges:    0.0000000

LOEWDIN ATOMIC CHARGES
----------------------
   0 S :    0.406221
   1 C :   -0.190428
   2 C :   -0.061879
   3 C :   -0.061326
   4 C :   -0.193376
   5 H :    0.031920
   6 C :   -0.020846
   7 H :    0.023455
   8 H :    0.017970
   9 C :   -0.036856
  10 H :    0.030834
  11 H :    0.026034
  12 C :   -0.069124
  13 H :    0.022328
  14 H :    0.027515
  15 H :    0.029211
  16 S :    0.433749
  17 C :   -0.192686
  18 C :   -0.083053
  19 C :   -0.057374
  20 C :   -0.215790
  21 H :    0.050863
  22 C :   -0.042746
  23 H :    0.029354
  24 H :    0.026678
  25 C :   -0.037272
  26 H :    0.013283
  27 H :    0.018363
  28 C :   -0.065549
  29 H :    0.021505
  30 H :    0.030043
  31 H :    0.032401
  32 H :    0.029316
  33 H :    0.027262

  Mayer bond orders larger than 0.100000
B(  0-S ,  1-C ) :   1.1409 B(  0-S ,  4-C ) :   1.1408 B(  1-C ,  2-C ) :   1.6120
B(  1-C , 32-H ) :   0.9615 B(  2-C ,  3-C ) :   1.2366 B(  2-C ,  6-C ) :   1.0377
B(  3-C ,  4-C ) :   1.5872 B(  3-C ,  5-H ) :   0.9954 B(  4-C , 20-C ) :   1.0334
B(  6-C ,  7-H ) :   0.9305 B(  6-C ,  8-H ) :   0.9325 B(  6-C ,  9-C ) :   1.0532
B(  9-C , 10-H ) :   0.9534 B(  9-C , 11-H ) :   0.9601 B(  9-C , 12-C ) :   1.0910
B( 12-C , 13-H ) :   0.9732 B( 12-C , 14-H ) :   0.9716 B( 12-C , 15-H ) :   0.9715
B( 16-S , 17-C ) :   1.1575 B( 16-S , 20-C ) :   1.1658 B( 17-C , 18-C ) :   1.6173
B( 17-C , 33-H ) :   0.9665 B( 18-C , 19-C ) :   1.2576 B( 18-C , 21-H ) :   0.9755
B( 19-C , 20-C ) :   1.5465 B( 19-C , 22-C ) :   1.0608 B( 22-C , 23-H ) :   0.9218
B( 22-C , 24-H ) :   0.9196 B( 22-C , 25-C ) :   1.0688 B( 25-C , 26-H ) :   0.9569
B( 25-C , 27-H ) :   0.9476 B( 25-C , 28-C ) :   1.0741 B( 28-C , 29-H ) :   0.9779
B( 28-C , 30-H ) :   0.9760 B( 28-C , 31-H ) :   0.9773

Dispersion correction           -0.014156814
FINAL SINGLE POINT ENERGY     -1339.871116211316

DIPOLE MOMENT
-------------
                                X             Y             Z
Electronic contribution:     -5.71154      12.15929       1.05626
Nuclear contribution   :      5.64458     -12.46678      -0.80851
                        -----------------------------------------
Total Dipole Moment    :     -0.06696      -0.30749       0.24775
                        -----------------------------------------
Magnitude (a.u.)       :      0.40051
Magnitude (Debye)      :      1.01803

Rotational constants in cm-1:     0.021533     0.007865     0.006153
Rotational constants in MHz :   645.553806   235.801653   184.448172

                             ****ORCA TERMINATED NORMALLY****
TOTAL RUN TIME: 0 days 0 hours 0 minutes 33 seconds 855 msec
