                         Program Version 4.2.1 -  RELEASE  -
|  1> ! wB97X-D3 SP def2-SVP
|  2> %pal
|  3> nprocs 16
|  4> end
|  5>
|  6> * xyz 0 1
|  7> S 	 -97.3517 	 41.1194 	 125.033
|  8> C 	 -95.7742 	 40.6931 	 124.449
|  9> C 	 -95.7852 	 40.683 	 123.056
| 10> C 	 -96.9909 	 41.0528 	 122.474
| 11> C 	 -98.0022 	 41.2849 	 123.427
| 12> H 	 -97.2137 	 41.2334 	 121.4
| 13> C 	 -94.6849 	 40.2026 	 122.157
| 14> H 	 -95.0619 	 39.3347 	 121.629
| 15> H 	 -93.8441 	 39.9108 	 122.774
| 16> C 	 -94.1876 	 41.2018 	 121.18
| 17> H 	 -94.8978 	 41.4001 	 120.472
| 18> H 	 -93.9947 	 42.2326 	 121.557
| 19> C 	 -93.1389 	 40.6721 	 120.224
| 20> H 	 -93.0045 	 39.5904 	 120.441
| 21> H 	 -93.487 	 40.8172 	 119.216
| 22> H 	 -92.162 	 41.145 	 120.301
| 23> S 	 -100.647 	 41.4428 	 124.297
| 24> C 	 -101.77 	 42.2432 	 123.244
| 25> C 	 -101.219 	 42.6094 	 122.001
| 26> C 	 -99.8185 	 42.4471 	 122.033
| 27> C 	 -99.348 	 41.8003 	 123.194
| 28> H 	 -101.857 	 43.0881 	 121.247
| 29> C 	 -99.0532 	 42.8091 	 120.772
| 30> H 	 -98.0912 	 43.0459 	 121.051
| 31> H 	 -99.6144 	 43.6164 	 120.422
| 32> C 	 -99.0674 	 41.6773 	 119.718
| 33> H 	 -100.097 	 41.5682 	 119.539
| 34> H 	 -98.7665 	 40.6881 	 120.156
| 35> C 	 -98.3764 	 42.0433 	 118.398
| 36> H 	 -97.258 	 41.8639 	 118.502
| 37> H 	 -98.6041 	 43.0424 	 118.023
| 38> H 	 -98.6154 	 41.2152 	 117.667
| 39> H 	 -94.8825 	 40.3094 	 125.095
| 40> H 	 -102.797 	 42.3573 	 123.516
| 41> *
| 42>
| 43>                          ****END OF INPUT****

CARTESIAN COORDINATES (ANGSTROEM)
---------------------------------
  S    -97.351700   41.119400  125.033000
  C    -95.774200   40.693100  124.449000
  C    -95.785200   40.683000  123.056000
  C    -96.990900   41.052800  122.474000
  C    -98.002200   41.284900  123.427000
  H    -97.213700   41.233400  121.400000
  C    -94.684900   40.202600  122.157000
  H    -95.061900   39.334700  121.629000
  H    -93.844100   39.910800  122.774000
  C    -94.187600   41.201800  121.180000
  H    -94.897800   41.400100  120.472000
  H    -93.994700   42.232600  121.557000
  C    -93.138900   40.672100  120.224000
  H    -93.004500   39.590400  120.441000
  H    -93.487000   40.817200  119.216000
  H    -92.162000   41.145000  120.301000
  S    -100.647000   41.442800  124.297000
  C    -101.770000   42.243200  123.244000
  C    -101.219000   42.609400  122.001000
  C    -99.818500   42.447100  122.033000
  C    -99.348000   41.800300  123.194000
  H    -101.857000   43.088100  121.247000
  C    -99.053200   42.809100  120.772000
  H    -98.091200   43.045900  121.051000
  H    -99.614400   43.616400  120.422000
  C    -99.067400   41.677300  119.718000
  H    -100.097000   41.568200  119.539000
  H    -98.766500   40.688100  120.156000
  C    -98.376400   42.043300  118.398000
  H    -97.258000   41.863900  118.502000
  H    -98.604100   43.042400  118.023000
  H    -98.615400   41.215200  117.667000
  H    -94.882500   40.309400  125.095000
  H    -102.797000   42.357300  123.516000

 Total Charge           Charge          ....    0
 Multiplicity           Mult            ....    1
 Number of Electrons    NEL             ....  134
 Basis Dimension        Dim             ....  322

ORBITAL ENERGIES
----------------

  NO   OCC          E(Eh)            E(eV)
   0   2.0000     -88.970963     -2421.0230
   1   2.0000     -88.966699     -2420.9069
   2   2.0000     -10.330322      -281.1024
   3   2.0000     -10.327623      -281.0289
   4   2.0000     -10.319117      -280.7974
   5   2.0000     -10.318382      -280.7774
   6   2.0000     -10.302405      -280.3427
   7   2.0000     -10.298056      -280.2243
   8   2.0000     -10.294853      -280.1372
   9   2.0000     -10.292828      -280.0821
  10   2.0000     -10.290896      -280.0295
  11   2.0000     -10.289312      -279.9864
  12   2.0000     -10.284917      -279.8668
  13   2.0000     -10.282022      -279.7880
  14   2.0000     -10.275349      -279.6065
  15   2.0000     -10.272269      -279.5226
  16   2.0000      -8.085887      -220.0282
  17   2.0000      -8.081538      -219.9098
  18   2.0000      -6.044295      -164.4736
  19   2.0000      -6.040343      -164.3661
  20   2.0000      -6.040009      -164.3570
  21   2.0000      -6.036797      -164.2696
  22   2.0000      -6.035933      -164.2461
  23   2.0000      -6.032453      -164.1514
  24   2.0000      -1.008879       -27.4530
  25   2.0000      -0.987255       -26.8646
  26   2.0000      -0.922694       -25.1078
  27   2.0000      -0.916319       -24.9343
  28   2.0000      -0.869424       -23.6582
  29   2.0000      -0.855908       -23.2904
  30   2.0000      -0.850732       -23.1496
  31   2.0000      -0.810455       -22.0536
  32   2.0000      -0.786004       -21.3882
  33   2.0000      -0.770007       -20.9529
  34   2.0000      -0.707981       -19.2652
  35   2.0000      -0.701393       -19.0859
  36   2.0000      -0.692459       -18.8428
  37   2.0000      -0.667629       -18.1671
  38   2.0000      -0.634151       -17.2561
  39   2.0000      -0.625344       -17.0165
  40   2.0000      -0.596395       -16.2287
  41   2.0000      -0.577751       -15.7214
  42   2.0000      -0.570008       -15.5107
  43   2.0000      -0.563964       -15.3463
  44   2.0000      -0.531250       -14.4560
  45   2.0000      -0.522210       -14.2101
  46   2.0000      -0.518203       -14.1010
  47   2.0000      -0.507392       -13.8068
  48   2.0000      -0.506131       -13.7725
  49   2.0000      -0.500417       -13.6170
  50   2.0000      -0.492865       -13.4116
  51   2.0000      -0.484448       -13.1825
  52   2.0000      -0.475707       -12.9446
  53   2.0000      -0.469193       -12.7674
  54   2.0000      -0.462606       -12.5881
  55   2.0000      -0.455404       -12.3922
  56   2.0000      -0.443030       -12.0555
  57   2.0000      -0.441084       -12.0025
  58   2.0000      -0.436500       -11.8778
  59   2.0000      -0.425038       -11.5659
  60   2.0000      -0.419655       -11.4194
  61   2.0000      -0.418044       -11.3756
  62   2.0000      -0.405461       -11.0332
  63   2.0000      -0.354529        -9.6472
  64   2.0000      -0.336328        -9.1520
  65   2.0000      -0.331563        -9.0223
  66   2.0000      -0.278658        -7.5827
  67   0.0000       0.019975         0.5435
  68   0.0000       0.082944         2.2570
  69   0.0000       0.103658         2.8207
  70   0.0000       0.117772         3.2047
  71   0.0000       0.123064         3.3487

MULLIKEN ATOMIC CHARGES
-----------------------
   0 S :    0.106650
   1 C :   -0.157596
   2 C :   -0.075527
   3 C :   -0.016216
   4 C :   -0.130671
   5 H :    0.008099
   6 C :    0.101264
   7 H :    0.034117
   8 H :    0.008778
   9 C :   -0.071527
  10 H :   -0.009199
  11 H :    0.033734
  12 C :   -0.048705
  13 H :    0.030539
  14 H :    0.026830
  15 H :    0.035866
  16 S :    0.120535
  17 C :   -0.093487
  18 C :   -0.048182
  19 C :   -0.093999
  20 C :   -0.107556
  21 H :    0.034294
  22 C :    0.126424
  23 H :    0.006010
  24 H :    0.003869
  25 C :   -0.085636
  26 H :    0.004801
  27 H :    0.042938
  28 C :   -0.045466
  29 H :    0.034281
  30 H :    0.047656
  31 H :    0.042826
  32 H :    0.084116
  33 H :    0.050140
Sum of atomic charges:    0.0000000

LOEWDIN ATOMIC CHARGES
----------------------
   0 S :    0.417307
   1 C :   -0.228533
   2 C :   -0.067784
   3 C :   -0.075130
   4 C :   -0.188170
   5 H :    0.038243
   6 C :   -0.028068
   7 H :    0.035100
   8 H :    0.025481
   9 C :   -0.052042
  10 H :    0.010425
  11 H :    0.031449
  12 C :   -0.059300
  13 H :    0.029632
  14 H :    0.023490
  15 H :    0.025533
  16 S :    0.422603
  17 C :   -0.182071
  18 C :   -0.074064
  19 C :   -0.049124
  20 C :   -0.210286
  21 H :    0.038213
  22 C :   -0.018578
  23 H :    0.013278
  24 H :    0.024252
  25 C :   -0.044224
  26 H :    0.016582
  27 H :    0.030757
  28 C :   -0.072135
  29 H :    0.029245
  30 H :    0.027781
  31 H :    0.035936
  32 H :    0.053046
  33 H :    0.021157

  Mayer bond orders larger than 0.100000
B(  0-S ,  1-C ) :   1.1396 B(  0-S ,  4-C ) :   1.1739 B(  1-C ,  2-C ) :   1.5760
B(  1-C ,  4-C ) :   0.1049 B(  1-C , 32-H ) :   0.9524 B(  2-C ,  3-C ) :   1.2839
B(  2-C ,  6-C ) :   1.0282 B(  3-C ,  4-C ) :   1.5225 B(  3-C ,  5-H ) :   0.9808
B(  4-C , 20-C ) :   1.0659 B(  6-C ,  7-H ) :   0.9308 B(  6-C ,  8-H ) :   0.9342
B(  6-C ,  9-C ) :   1.0856 B(  9-C , 10-H ) :   0.9540 B(  9-C , 11-H ) :   0.9529
B(  9-C , 12-C ) :   1.0638 B( 12-C , 13-H ) :   0.9732 B( 12-C , 14-H ) :   0.9853
B( 12-C , 15-H ) :   0.9742 B( 16-S , 17-C ) :   1.1809 B( 16-S , 20-C ) :   1.1414
B( 17-C , 18-C ) :   1.5677 B( 17-C , 20-C ) :   0.1023 B( 17-C , 33-H ) :   0.9711
B( 18-C , 19-C ) :   1.2764 B( 18-C , 21-H ) :   0.9857 B( 19-C , 20-C ) :   1.5525
B( 19-C , 22-C ) :   1.0453 B( 22-C , 23-H ) :   0.9297 B( 22-C , 24-H ) :   0.9200
B( 22-C , 25-C ) :   1.0621 B( 25-C , 26-H ) :   0.9458 B( 25-C , 27-H ) :   0.9508
B( 25-C , 28-C ) :   1.0784 B( 28-C , 29-H ) :   0.9728 B( 28-C , 30-H ) :   0.9718
B( 28-C , 31-H ) :   0.9706

Dispersion correction           -0.014565070
FINAL SINGLE POINT ENERGY     -1339.862972192108

DIPOLE MOMENT
-------------
                                X             Y             Z
Electronic contribution:    -17.66548      -0.10595      29.54880
Nuclear contribution   :     17.69504       0.14611     -30.30081
                        -----------------------------------------
Total Dipole Moment    :      0.02956       0.04016      -0.75201
                        -----------------------------------------
Magnitude (a.u.)       :      0.75366
Magnitude (Debye)      :      1.91565

Rotational constants in cm-1:     0.017992     0.009957     0.006608
Rotational constants in MHz :   539.373585   298.490469   198.090167

                             ****ORCA TERMINATED NORMALLY****
TOTAL RUN TIME: 0 days 0 hours 0 minutes 34 seconds 56 msec
