                         Program Version 4.2.1 -  RELEASE  -
|  1> ! wB97X-D3 SP def2-SVP
|  2> %pal
|  3> nprocs 16
|  4> end
|  5>
|  6> * xyz 0 1
|  7> S 	 -13.4743 	 43.1461 	 34.2121
|  8> C 	 -12.887 	 42.0309 	 35.4482
|  9> C 	 -13.0125 	 40.6687 	 34.9594
| 10> C 	 -13.5774 	 40.6577 	 33.6083
| 11> C 	 -13.8747 	 41.8959 	 33.1065
| 12> H 	 -13.8209 	 39.7659 	 32.9922
| 13> C 	 -12.4501 	 39.5321 	 35.7006
| 14> H 	 -12.4414 	 39.7931 	 36.7415
| 15> H 	 -11.369 	 39.3594 	 35.4942
| 16> C 	 -13.2229 	 38.1954 	 35.5866
| 17> H 	 -13.4475 	 38.0504 	 34.575
| 18> H 	 -12.5678 	 37.3291 	 35.9513
| 19> C 	 -14.5108 	 38.1259 	 36.427
| 20> H 	 -15.1026 	 37.3053 	 36.1261
| 21> H 	 -14.2859 	 38.0961 	 37.4681
| 22> H 	 -15.1858 	 38.9847 	 36.2079
| 23> S 	 -15.3972 	 43.3891 	 31.4346
| 24> C 	 -15.1404 	 43.3291 	 29.6895
| 25> C 	 -14.0796 	 42.5464 	 29.354
| 26> C 	 -13.3969 	 42.0226 	 30.5245
| 27> C 	 -14.0599 	 42.2676 	 31.7221
| 28> H 	 -13.9835 	 42.3091 	 28.2939
| 29> C 	 -12.132 	 41.2594 	 30.4458
| 30> H 	 -12.3697 	 40.3513 	 29.9044
| 31> H 	 -11.7647 	 41.0405 	 31.4556
| 32> C 	 -10.8574 	 41.928 	 29.8328
| 33> H 	 -10.4875 	 42.7824 	 30.3693
| 34> H 	 -11.289 	 42.4562 	 29.0374
| 35> C 	 -9.74186 	 40.9699 	 29.4434
| 36> H 	 -10.0124 	 40.404 	 28.5311
| 37> H 	 -9.29553 	 40.3067 	 30.1232
| 38> H 	 -8.92258 	 41.5937 	 29.1833
| 39> H 	 -12.2595 	 42.324 	 36.307
| 40> H 	 -15.7365 	 43.8166 	 28.9632
| 41> *
| 42>
| 43>                          ****END OF INPUT****

CARTESIAN COORDINATES (ANGSTROEM)
---------------------------------
  S    -13.474300   43.146100   34.212100
  C    -12.887000   42.030900   35.448200
  C    -13.012500   40.668700   34.959400
  C    -13.577400   40.657700   33.608300
  C    -13.874700   41.895900   33.106500
  H    -13.820900   39.765900   32.992200
  C    -12.450100   39.532100   35.700600
  H    -12.441400   39.793100   36.741500
  H    -11.369000   39.359400   35.494200
  C    -13.222900   38.195400   35.586600
  H    -13.447500   38.050400   34.575000
  H    -12.567800   37.329100   35.951300
  C    -14.510800   38.125900   36.427000
  H    -15.102600   37.305300   36.126100
  H    -14.285900   38.096100   37.468100
  H    -15.185800   38.984700   36.207900
  S    -15.397200   43.389100   31.434600
  C    -15.140400   43.329100   29.689500
  C    -14.079600   42.546400   29.354000
  C    -13.396900   42.022600   30.524500
  C    -14.059900   42.267600   31.722100
  H    -13.983500   42.309100   28.293900
  C    -12.132000   41.259400   30.445800
  H    -12.369700   40.351300   29.904400
  H    -11.764700   41.040500   31.455600
  C    -10.857400   41.928000   29.832800
  H    -10.487500   42.782400   30.369300
  H    -11.289000   42.456200   29.037400
  C     -9.741860   40.969900   29.443400
  H    -10.012400   40.404000   28.531100
  H     -9.295530   40.306700   30.123200
  H     -8.922580   41.593700   29.183300
  H    -12.259500   42.324000   36.307000
  H    -15.736500   43.816600   28.963200

 Total Charge           Charge          ....    0
 Multiplicity           Mult            ....    1
 Number of Electrons    NEL             ....  134
 Basis Dimension        Dim             ....  322

ORBITAL ENERGIES
----------------

  NO   OCC          E(Eh)            E(eV)
   0   2.0000     -88.966407     -2420.8990
   1   2.0000     -88.959849     -2420.7206
   2   2.0000     -10.327403      -281.0229
   3   2.0000     -10.325990      -280.9845
   4   2.0000     -10.323632      -280.9203
   5   2.0000     -10.314664      -280.6763
   6   2.0000     -10.312622      -280.6207
   7   2.0000     -10.306446      -280.4526
   8   2.0000     -10.301812      -280.3266
   9   2.0000     -10.295459      -280.1537
  10   2.0000     -10.290535      -280.0197
  11   2.0000     -10.288231      -279.9570
  12   2.0000     -10.283691      -279.8335
  13   2.0000     -10.278859      -279.7020
  14   2.0000     -10.273191      -279.5478
  15   2.0000     -10.271618      -279.5049
  16   2.0000      -8.081426      -219.9068
  17   2.0000      -8.074576      -219.7204
  18   2.0000      -6.039889      -164.3537
  19   2.0000      -6.035706      -164.2399
  20   2.0000      -6.033147      -164.1703
  21   2.0000      -6.032358      -164.1488
  22   2.0000      -6.029101      -164.0602
  23   2.0000      -6.025248      -163.9553
  24   2.0000      -1.006854       -27.3979
  25   2.0000      -0.979812       -26.6620
  26   2.0000      -0.914757       -24.8918
  27   2.0000      -0.906944       -24.6792
  28   2.0000      -0.870103       -23.6767
  29   2.0000      -0.851940       -23.1825
  30   2.0000      -0.842791       -22.9335
  31   2.0000      -0.821025       -22.3412
  32   2.0000      -0.783201       -21.3120
  33   2.0000      -0.770652       -20.9705
  34   2.0000      -0.714854       -19.4522
  35   2.0000      -0.703900       -19.1541
  36   2.0000      -0.689571       -18.7642
  37   2.0000      -0.656715       -17.8701
  38   2.0000      -0.645118       -17.5546
  39   2.0000      -0.619609       -16.8604
  40   2.0000      -0.595631       -16.2080
  41   2.0000      -0.570942       -15.5361
  42   2.0000      -0.560385       -15.2488
  43   2.0000      -0.550535       -14.9808
  44   2.0000      -0.540091       -14.6966
  45   2.0000      -0.523307       -14.2399
  46   2.0000      -0.517991       -14.0952
  47   2.0000      -0.516200       -14.0465
  48   2.0000      -0.510046       -13.8790
  49   2.0000      -0.504708       -13.7338
  50   2.0000      -0.489446       -13.3185
  51   2.0000      -0.480845       -13.0844
  52   2.0000      -0.473248       -12.8777
  53   2.0000      -0.467706       -12.7269
  54   2.0000      -0.460113       -12.5203
  55   2.0000      -0.451307       -12.2807
  56   2.0000      -0.441625       -12.0172
  57   2.0000      -0.437166       -11.8959
  58   2.0000      -0.433242       -11.7891
  59   2.0000      -0.428078       -11.6486
  60   2.0000      -0.420851       -11.4519
  61   2.0000      -0.410873       -11.1804
  62   2.0000      -0.396014       -10.7761
  63   2.0000      -0.343727        -9.3533
  64   2.0000      -0.329742        -8.9727
  65   2.0000      -0.325796        -8.8653
  66   2.0000      -0.292132        -7.9493
  67   0.0000       0.031769         0.8645
  68   0.0000       0.059514         1.6195
  69   0.0000       0.109185         2.9711
  70   0.0000       0.113044         3.0761
  71   0.0000       0.133155         3.6233

MULLIKEN ATOMIC CHARGES
-----------------------
   0 S :    0.117566
   1 C :   -0.127357
   2 C :   -0.117658
   3 C :    0.000374
   4 C :   -0.111379
   5 H :    0.037212
   6 C :    0.068232
   7 H :    0.009240
   8 H :    0.050364
   9 C :   -0.090943
  10 H :    0.017557
  11 H :    0.036488
  12 C :   -0.039217
  13 H :    0.024798
  14 H :    0.031232
  15 H :    0.036982
  16 S :    0.080911
  17 C :   -0.072243
  18 C :   -0.039715
  19 C :   -0.029574
  20 C :   -0.166552
  21 H :    0.033727
  22 C :    0.047477
  23 H :    0.028201
  24 H :    0.032983
  25 C :   -0.047069
  26 H :    0.020024
  27 H :   -0.006331
  28 C :   -0.015667
  29 H :    0.032187
  30 H :    0.025294
  31 H :    0.018386
  32 H :    0.071032
  33 H :    0.043439
Sum of atomic charges:   -0.0000000

LOEWDIN ATOMIC CHARGES
----------------------
   0 S :    0.425087
   1 C :   -0.205817
   2 C :   -0.056314
   3 C :   -0.066874
   4 C :   -0.213916
   5 H :    0.040275
   6 C :   -0.043255
   7 H :    0.028302
   8 H :    0.040907
   9 C :   -0.037370
  10 H :    0.011168
  11 H :    0.032994
  12 C :   -0.062860
  13 H :    0.021691
  14 H :    0.020961
  15 H :    0.031424
  16 S :    0.379053
  17 C :   -0.166739
  18 C :   -0.077261
  19 C :   -0.054308
  20 C :   -0.191503
  21 H :    0.038589
  22 C :   -0.036594
  23 H :    0.031057
  24 H :    0.032333
  25 C :   -0.036787
  26 H :    0.024644
  27 H :    0.014797
  28 C :   -0.061078
  29 H :    0.030337
  30 H :    0.019925
  31 H :    0.027632
  32 H :    0.036562
  33 H :    0.022939

  Mayer bond orders larger than 0.100000
B(  0-S ,  1-C ) :   1.1526 B(  0-S ,  4-C ) :   1.1683 B(  1-C ,  2-C ) :   1.5714
B(  1-C , 32-H ) :   0.9662 B(  2-C ,  3-C ) :   1.2267 B(  2-C ,  6-C ) :   1.0460
B(  3-C ,  4-C ) :   1.5800 B(  3-C ,  5-H ) :   0.9933 B(  4-C , 20-C ) :   1.0078
B(  6-C ,  7-H ) :   0.9356 B(  6-C ,  8-H ) :   0.9301 B(  6-C ,  9-C ) :   1.0655
B(  9-C , 10-H ) :   0.9598 B(  9-C , 11-H ) :   0.9551 B(  9-C , 12-C ) :   1.0846
B( 12-C , 13-H ) :   0.9727 B( 12-C , 14-H ) :   0.9753 B( 12-C , 15-H ) :   0.9749
B( 16-S , 17-C ) :   1.1419 B( 16-S , 20-C ) :   1.1146 B( 17-C , 18-C ) :   1.6607
B( 17-C , 33-H ) :   0.9679 B( 18-C , 19-C ) :   1.1768 B( 18-C , 21-H ) :   0.9868
B( 19-C , 20-C ) :   1.6330 B( 19-C , 22-C ) :   1.0596 B( 22-C , 23-H ) :   0.9336
B( 22-C , 24-H ) :   0.9364 B( 22-C , 25-C ) :   1.0507 B( 25-C , 26-H ) :   0.9548
B( 25-C , 27-H ) :   0.9519 B( 25-C , 28-C ) :   1.0813 B( 28-C , 29-H ) :   0.9737
B( 28-C , 30-H ) :   0.9780 B( 28-C , 31-H ) :   0.9692

Dispersion correction           -0.013838651
FINAL SINGLE POINT ENERGY     -1339.859339420336

DIPOLE MOMENT
-------------
                                X             Y             Z
Electronic contribution:    -14.88600      20.91986      -0.48990
Nuclear contribution   :     15.43839     -21.44231       0.27451
                        -----------------------------------------
Total Dipole Moment    :      0.55239      -0.52246      -0.21539
                        -----------------------------------------
Magnitude (a.u.)       :      0.79024
Magnitude (Debye)      :      2.00864

Rotational constants in cm-1:     0.017439     0.008453     0.006877
Rotational constants in MHz :   522.807969   253.413522   206.175514

                             ****ORCA TERMINATED NORMALLY****
TOTAL RUN TIME: 0 days 0 hours 0 minutes 33 seconds 107 msec
