                         Program Version 4.2.1 -  RELEASE  -
|  1> ! wB97X-D3 SP def2-SVP
|  2> %pal
|  3> nprocs 16
|  4> end
|  5>
|  6> * xyz 0 1
|  7> S 	 -31.5881 	 65.5382 	 117.314
|  8> C 	 -33.3267 	 65.1732 	 117.34
|  9> C 	 -33.8952 	 65.3947 	 116.107
| 10> C 	 -32.8722 	 65.5313 	 115.124
| 11> C 	 -31.598 	 65.7521 	 115.597
| 12> H 	 -33.003 	 65.4789 	 113.997
| 13> C 	 -35.3006 	 65.1688 	 115.777
| 14> H 	 -35.7599 	 65.9319 	 115.277
| 15> H 	 -35.9103 	 64.9667 	 116.698
| 16> C 	 -35.5639 	 63.9851 	 114.842
| 17> H 	 -36.4729 	 64.1131 	 114.26
| 18> H 	 -34.9178 	 63.9001 	 114.001
| 19> C 	 -35.5561 	 62.5256 	 115.509
| 20> H 	 -34.8234 	 62.3558 	 116.254
| 21> H 	 -36.5494 	 62.4197 	 115.981
| 22> H 	 -35.5562 	 61.8359 	 114.678
| 23> S 	 -28.878 	 65.2508 	 115.225
| 24> C 	 -27.9952 	 66.1035 	 113.92
| 25> C 	 -28.7407 	 67.0368 	 113.302
| 26> C 	 -30.0739 	 67.0901 	 113.853
| 27> C 	 -30.3611 	 66.1473 	 114.851
| 28> H 	 -28.3014 	 67.603 	 112.53
| 29> C 	 -31.0482 	 68.0526 	 113.134
| 30> H 	 -30.6841 	 69.0759 	 113.376
| 31> H 	 -31.8977 	 67.9956 	 113.752
| 32> C 	 -31.3788 	 67.7877 	 111.642
| 33> H 	 -31.5365 	 66.7141 	 111.598
| 34> H 	 -30.5756 	 68.0185 	 110.998
| 35> C 	 -32.6044 	 68.6108 	 111.252
| 36> H 	 -32.4342 	 69.6716 	 111.221
| 37> H 	 -33.3805 	 68.3873 	 111.964
| 38> H 	 -33.1205 	 68.3611 	 110.322
| 39> H 	 -33.8727 	 64.9441 	 118.171
| 40> H 	 -27.0132 	 65.9069 	 113.622
| 41> *
| 42>
| 43>                          ****END OF INPUT****

CARTESIAN COORDINATES (ANGSTROEM)
---------------------------------
  S    -31.588100   65.538200  117.314000
  C    -33.326700   65.173200  117.340000
  C    -33.895200   65.394700  116.107000
  C    -32.872200   65.531300  115.124000
  C    -31.598000   65.752100  115.597000
  H    -33.003000   65.478900  113.997000
  C    -35.300600   65.168800  115.777000
  H    -35.759900   65.931900  115.277000
  H    -35.910300   64.966700  116.698000
  C    -35.563900   63.985100  114.842000
  H    -36.472900   64.113100  114.260000
  H    -34.917800   63.900100  114.001000
  C    -35.556100   62.525600  115.509000
  H    -34.823400   62.355800  116.254000
  H    -36.549400   62.419700  115.981000
  H    -35.556200   61.835900  114.678000
  S    -28.878000   65.250800  115.225000
  C    -27.995200   66.103500  113.920000
  C    -28.740700   67.036800  113.302000
  C    -30.073900   67.090100  113.853000
  C    -30.361100   66.147300  114.851000
  H    -28.301400   67.603000  112.530000
  C    -31.048200   68.052600  113.134000
  H    -30.684100   69.075900  113.376000
  H    -31.897700   67.995600  113.752000
  C    -31.378800   67.787700  111.642000
  H    -31.536500   66.714100  111.598000
  H    -30.575600   68.018500  110.998000
  C    -32.604400   68.610800  111.252000
  H    -32.434200   69.671600  111.221000
  H    -33.380500   68.387300  111.964000
  H    -33.120500   68.361100  110.322000
  H    -33.872700   64.944100  118.171000
  H    -27.013200   65.906900  113.622000

 Total Charge           Charge          ....    0
 Multiplicity           Mult            ....    1
 Number of Electrons    NEL             ....  134
 Basis Dimension        Dim             ....  322

ORBITAL ENERGIES
----------------

  NO   OCC          E(Eh)            E(eV)
   0   2.0000     -88.965187     -2420.8658
   1   2.0000     -88.963556     -2420.8214
   2   2.0000     -10.336283      -281.2645
   3   2.0000     -10.333105      -281.1781
   4   2.0000     -10.314272      -280.6656
   5   2.0000     -10.311377      -280.5868
   6   2.0000     -10.308956      -280.5210
   7   2.0000     -10.300700      -280.2963
   8   2.0000     -10.298042      -280.2240
   9   2.0000     -10.288958      -279.9768
  10   2.0000     -10.288468      -279.9634
  11   2.0000     -10.288164      -279.9552
  12   2.0000     -10.288017      -279.9512
  13   2.0000     -10.285917      -279.8940
  14   2.0000     -10.276664      -279.6422
  15   2.0000     -10.276146      -279.6281
  16   2.0000      -8.079994      -219.8678
  17   2.0000      -8.077540      -219.8010
  18   2.0000      -6.038552      -164.3174
  19   2.0000      -6.036244      -164.2546
  20   2.0000      -6.034526      -164.2078
  21   2.0000      -6.032175      -164.1438
  22   2.0000      -6.030651      -164.1024
  23   2.0000      -6.028104      -164.0330
  24   2.0000      -1.005070       -27.3493
  25   2.0000      -0.983466       -26.7615
  26   2.0000      -0.916615       -24.9424
  27   2.0000      -0.906674       -24.6718
  28   2.0000      -0.868954       -23.6454
  29   2.0000      -0.847350       -23.0576
  30   2.0000      -0.841810       -22.9068
  31   2.0000      -0.820925       -22.3385
  32   2.0000      -0.787959       -21.4415
  33   2.0000      -0.771222       -20.9860
  34   2.0000      -0.715385       -19.4666
  35   2.0000      -0.707394       -19.2492
  36   2.0000      -0.699110       -19.0237
  37   2.0000      -0.660432       -17.9713
  38   2.0000      -0.647886       -17.6299
  39   2.0000      -0.620170       -16.8757
  40   2.0000      -0.592451       -16.1214
  41   2.0000      -0.579930       -15.7807
  42   2.0000      -0.569482       -15.4964
  43   2.0000      -0.557064       -15.1585
  44   2.0000      -0.530319       -14.4307
  45   2.0000      -0.526044       -14.3144
  46   2.0000      -0.521865       -14.2007
  47   2.0000      -0.514417       -13.9980
  48   2.0000      -0.505715       -13.7612
  49   2.0000      -0.499720       -13.5981
  50   2.0000      -0.488140       -13.2830
  51   2.0000      -0.481704       -13.1078
  52   2.0000      -0.475920       -12.9505
  53   2.0000      -0.465631       -12.6705
  54   2.0000      -0.460530       -12.5316
  55   2.0000      -0.448926       -12.2159
  56   2.0000      -0.444182       -12.0868
  57   2.0000      -0.435778       -11.8581
  58   2.0000      -0.432403       -11.7663
  59   2.0000      -0.424792       -11.5592
  60   2.0000      -0.422612       -11.4999
  61   2.0000      -0.413860       -11.2617
  62   2.0000      -0.411758       -11.2045
  63   2.0000      -0.350508        -9.5378
  64   2.0000      -0.329896        -8.9769
  65   2.0000      -0.328276        -8.9328
  66   2.0000      -0.296434        -8.0664
  67   0.0000       0.030343         0.8257
  68   0.0000       0.073637         2.0038
  69   0.0000       0.106706         2.9036
  70   0.0000       0.119220         3.2441
  71   0.0000       0.128140         3.4869

MULLIKEN ATOMIC CHARGES
-----------------------
   0 S :    0.105083
   1 C :   -0.083654
   2 C :   -0.057011
   3 C :   -0.014940
   4 C :   -0.130864
   5 H :    0.036087
   6 C :    0.122792
   7 H :    0.006417
   8 H :    0.024461
   9 C :   -0.109600
  10 H :    0.014568
  11 H :    0.012980
  12 C :   -0.043613
  13 H :    0.041672
  14 H :    0.026249
  15 H :    0.031298
  16 S :    0.083022
  17 C :   -0.057127
  18 C :   -0.010517
  19 C :   -0.066214
  20 C :   -0.142979
  21 H :    0.008471
  22 C :    0.062333
  23 H :    0.030206
  24 H :   -0.003793
  25 C :   -0.021432
  26 H :    0.031653
  27 H :    0.023614
  28 C :   -0.043046
  29 H :    0.033823
  30 H :    0.018658
  31 H :    0.028730
  32 H :    0.011212
  33 H :    0.031464
Sum of atomic charges:    0.0000000

LOEWDIN ATOMIC CHARGES
----------------------
   0 S :    0.400555
   1 C :   -0.168098
   2 C :   -0.060056
   3 C :   -0.071375
   4 C :   -0.199239
   5 H :    0.039406
   6 C :   -0.028058
   7 H :    0.023493
   8 H :    0.038326
   9 C :   -0.038095
  10 H :    0.023536
  11 H :    0.015413
  12 C :   -0.059091
  13 H :    0.020096
  14 H :    0.024965
  15 H :    0.025759
  16 S :    0.371003
  17 C :   -0.150547
  18 C :   -0.065430
  19 C :   -0.049395
  20 C :   -0.194564
  21 H :    0.029490
  22 C :   -0.033377
  23 H :    0.034559
  24 H :    0.018345
  25 C :   -0.030255
  26 H :    0.027477
  27 H :    0.017455
  28 C :   -0.064867
  29 H :    0.025261
  30 H :    0.023770
  31 H :    0.026731
  32 H :    0.008629
  33 H :    0.018179

  Mayer bond orders larger than 0.100000
B(  0-S ,  1-C ) :   1.1309 B(  0-S ,  4-C ) :   1.1519 B(  1-C ,  2-C ) :   1.6063
B(  1-C , 32-H ) :   0.9794 B(  2-C ,  3-C ) :   1.2132 B(  2-C ,  6-C ) :   1.0626
B(  3-C ,  4-C ) :   1.6082 B(  3-C ,  5-H ) :   0.9808 B(  4-C , 20-C ) :   1.0115
B(  6-C ,  7-H ) :   0.9167 B(  6-C ,  8-H ) :   0.9437 B(  6-C ,  9-C ) :   1.0668
B(  9-C , 10-H ) :   0.9542 B(  9-C , 11-H ) :   0.9584 B(  9-C , 12-C ) :   1.0630
B( 12-C , 13-H ) :   0.9824 B( 12-C , 14-H ) :   0.9787 B( 12-C , 15-H ) :   0.9769
B( 16-S , 17-C ) :   1.1342 B( 16-S , 20-C ) :   1.1171 B( 17-C , 18-C ) :   1.6583
B( 17-C , 33-H ) :   0.9694 B( 18-C , 19-C ) :   1.1930 B( 18-C , 21-H ) :   1.0008
B( 19-C , 20-C ) :   1.6285 B( 19-C , 22-C ) :   1.0438 B( 22-C , 23-H ) :   0.9285
B( 22-C , 24-H ) :   0.9359 B( 22-C , 25-C ) :   1.0477 B( 25-C , 26-H ) :   0.9560
B( 25-C , 27-H ) :   0.9532 B( 25-C , 28-C ) :   1.0838 B( 28-C , 29-H ) :   0.9762
B( 28-C , 30-H ) :   0.9750 B( 28-C , 31-H ) :   0.9736

Dispersion correction           -0.014070362
FINAL SINGLE POINT ENERGY     -1339.857509123106

DIPOLE MOMENT
-------------
                                X             Y             Z
Electronic contribution:     22.61682      -1.88099      17.17904
Nuclear contribution   :    -23.09042       2.07563     -17.82847
                        -----------------------------------------
Total Dipole Moment    :     -0.47360       0.19464      -0.64943
                        -----------------------------------------
Magnitude (a.u.)       :      0.82701
Magnitude (Debye)      :      2.10209

Rotational constants in cm-1:     0.016993     0.008969     0.006693
Rotational constants in MHz :   509.433022   268.888998   200.649530

                             ****ORCA TERMINATED NORMALLY****
TOTAL RUN TIME: 0 days 0 hours 0 minutes 27 seconds 291 msec
