                         Program Version 4.2.1 -  RELEASE  -
|  1> ! wB97X-D3 SP def2-SVP
|  2> %pal
|  3> nprocs 16
|  4> end
|  5>
|  6> * xyz 0 1
|  7> S 	 -4.95026 	 8.88297 	 82.7961
|  8> C 	 -6.54016 	 8.1495 	 82.6566
|  9> C 	 -7.16823 	 8.56744 	 81.5163
| 10> C 	 -6.46788 	 9.69705 	 80.9039
| 11> C 	 -5.27876 	 10.0236 	 81.4957
| 12> H 	 -6.81106 	 10.2038 	 79.9987
| 13> C 	 -8.47306 	 8.00509 	 81.0473
| 14> H 	 -9.32936 	 8.45068 	 81.5108
| 15> H 	 -8.40468 	 6.92036 	 81.3336
| 16> C 	 -8.50696 	 7.926 	 79.4912
| 17> H 	 -9.3903 	 7.35017 	 79.1624
| 18> H 	 -8.52781 	 8.98925 	 79.031
| 19> C 	 -7.31132 	 7.0907 	 78.8587
| 20> H 	 -7.39042 	 7.26762 	 77.7735
| 21> H 	 -6.36755 	 7.57723 	 79.0425
| 22> H 	 -7.30257 	 6.03192 	 79.1009
| 23> S 	 -2.62651 	 10.6537 	 81.0061
| 24> C 	 -2.13957 	 12.2905 	 80.8477
| 25> C 	 -3.22127 	 13.1066 	 80.901
| 26> C 	 -4.45522 	 12.4438 	 81.2634
| 27> C 	 -4.30247 	 11.0713 	 81.1905
| 28> H 	 -2.94973 	 14.126 	 80.6428
| 29> C 	 -5.71344 	 13.2539 	 81.4221
| 30> H 	 -6.43366 	 12.9476 	 80.649
| 31> H 	 -5.45124 	 14.2646 	 81.0359
| 32> C 	 -6.22603 	 13.3446 	 82.8809
| 33> H 	 -5.53122 	 13.278 	 83.716
| 34> H 	 -6.80832 	 12.4696 	 83.1265
| 35> C 	 -7.18351 	 14.5702 	 83.173
| 36> H 	 -6.64219 	 15.4335 	 82.7932
| 37> H 	 -7.44431 	 14.66 	 84.2847
| 38> H 	 -8.13033 	 14.332 	 82.6953
| 39> H 	 -6.73204 	 7.27068 	 83.163
| 40> H 	 -1.14972 	 12.6142 	 80.8148
| 41> *
| 42>
| 43>                          ****END OF INPUT****

CARTESIAN COORDINATES (ANGSTROEM)
---------------------------------
  S     -4.950260    8.882970   82.796100
  C     -6.540160    8.149500   82.656600
  C     -7.168230    8.567440   81.516300
  C     -6.467880    9.697050   80.903900
  C     -5.278760   10.023600   81.495700
  H     -6.811060   10.203800   79.998700
  C     -8.473060    8.005090   81.047300
  H     -9.329360    8.450680   81.510800
  H     -8.404680    6.920360   81.333600
  C     -8.506960    7.926000   79.491200
  H     -9.390300    7.350170   79.162400
  H     -8.527810    8.989250   79.031000
  C     -7.311320    7.090700   78.858700
  H     -7.390420    7.267620   77.773500
  H     -6.367550    7.577230   79.042500
  H     -7.302570    6.031920   79.100900
  S     -2.626510   10.653700   81.006100
  C     -2.139570   12.290500   80.847700
  C     -3.221270   13.106600   80.901000
  C     -4.455220   12.443800   81.263400
  C     -4.302470   11.071300   81.190500
  H     -2.949730   14.126000   80.642800
  C     -5.713440   13.253900   81.422100
  H     -6.433660   12.947600   80.649000
  H     -5.451240   14.264600   81.035900
  C     -6.226030   13.344600   82.880900
  H     -5.531220   13.278000   83.716000
  H     -6.808320   12.469600   83.126500
  C     -7.183510   14.570200   83.173000
  H     -6.642190   15.433500   82.793200
  H     -7.444310   14.660000   84.284700
  H     -8.130330   14.332000   82.695300
  H     -6.732040    7.270680   83.163000
  H     -1.149720   12.614200   80.814800

 Total Charge           Charge          ....    0
 Multiplicity           Mult            ....    1
 Number of Electrons    NEL             ....  134
 Basis Dimension        Dim             ....  322

ORBITAL ENERGIES
----------------

  NO   OCC          E(Eh)            E(eV)
   0   2.0000     -88.962390     -2420.7897
   1   2.0000     -88.958666     -2420.6884
   2   2.0000     -10.330371      -281.1037
   3   2.0000     -10.325185      -280.9626
   4   2.0000     -10.307269      -280.4750
   5   2.0000     -10.306134      -280.4442
   6   2.0000     -10.305613      -280.4300
   7   2.0000     -10.301477      -280.3175
   8   2.0000     -10.301166      -280.3090
   9   2.0000     -10.297490      -280.2089
  10   2.0000     -10.297004      -280.1957
  11   2.0000     -10.294870      -280.1377
  12   2.0000     -10.290318      -280.0138
  13   2.0000     -10.283375      -279.8249
  14   2.0000     -10.282492      -279.8008
  15   2.0000     -10.278945      -279.7043
  16   2.0000      -8.078230      -219.8198
  17   2.0000      -8.073680      -219.6960
  18   2.0000      -6.036690      -164.2667
  19   2.0000      -6.032509      -164.1529
  20   2.0000      -6.032206      -164.1447
  21   2.0000      -6.029045      -164.0587
  22   2.0000      -6.028226      -164.0364
  23   2.0000      -6.024309      -163.9298
  24   2.0000      -1.009687       -27.4750
  25   2.0000      -0.986560       -26.8457
  26   2.0000      -0.908957       -24.7340
  27   2.0000      -0.902969       -24.5710
  28   2.0000      -0.869856       -23.6700
  29   2.0000      -0.847175       -23.0528
  30   2.0000      -0.834917       -22.7193
  31   2.0000      -0.822154       -22.3719
  32   2.0000      -0.781663       -21.2701
  33   2.0000      -0.771208       -20.9856
  34   2.0000      -0.710874       -19.3439
  35   2.0000      -0.696523       -18.9534
  36   2.0000      -0.689114       -18.7517
  37   2.0000      -0.659003       -17.9324
  38   2.0000      -0.643040       -17.4980
  39   2.0000      -0.624498       -16.9935
  40   2.0000      -0.594291       -16.1715
  41   2.0000      -0.567315       -15.4374
  42   2.0000      -0.559122       -15.2145
  43   2.0000      -0.555073       -15.1043
  44   2.0000      -0.535698       -14.5771
  45   2.0000      -0.522917       -14.2293
  46   2.0000      -0.520676       -14.1683
  47   2.0000      -0.515081       -14.0161
  48   2.0000      -0.504990       -13.7415
  49   2.0000      -0.503597       -13.7036
  50   2.0000      -0.486271       -13.2321
  51   2.0000      -0.480741       -13.0816
  52   2.0000      -0.474057       -12.8997
  53   2.0000      -0.463010       -12.5991
  54   2.0000      -0.457441       -12.4476
  55   2.0000      -0.442710       -12.0467
  56   2.0000      -0.440556       -11.9881
  57   2.0000      -0.433608       -11.7991
  58   2.0000      -0.431232       -11.7344
  59   2.0000      -0.418604       -11.3908
  60   2.0000      -0.415272       -11.3001
  61   2.0000      -0.410445       -11.1688
  62   2.0000      -0.405708       -11.0399
  63   2.0000      -0.343707        -9.3527
  64   2.0000      -0.329677        -8.9710
  65   2.0000      -0.325781        -8.8649
  66   2.0000      -0.301057        -8.1922
  67   0.0000       0.034301         0.9334
  68   0.0000       0.069414         1.8888
  69   0.0000       0.113964         3.1011
  70   0.0000       0.126822         3.4510
  71   0.0000       0.131017         3.5651

MULLIKEN ATOMIC CHARGES
-----------------------
   0 S :    0.089377
   1 C :   -0.087565
   2 C :   -0.123620
   3 C :    0.028420
   4 C :   -0.135669
   5 H :    0.011997
   6 C :    0.101420
   7 H :    0.052905
   8 H :    0.022860
   9 C :   -0.148872
  10 H :    0.039807
  11 H :    0.046579
  12 C :   -0.061568
  13 H :    0.033033
  14 H :    0.038861
  15 H :    0.048319
  16 S :    0.104408
  17 C :   -0.078517
  18 C :   -0.039165
  19 C :   -0.030729
  20 C :   -0.157081
  21 H :    0.021572
  22 C :    0.078589
  23 H :    0.037592
  24 H :    0.013557
  25 C :   -0.076130
  26 H :    0.032951
  27 H :    0.027645
  28 C :   -0.077190
  29 H :    0.040715
  30 H :    0.045558
  31 H :    0.035725
  32 H :    0.027463
  33 H :    0.036752
Sum of atomic charges:   -0.0000000

LOEWDIN ATOMIC CHARGES
----------------------
   0 S :    0.388280
   1 C :   -0.180612
   2 C :   -0.062242
   3 C :   -0.065671
   4 C :   -0.183790
   5 H :    0.030583
   6 C :   -0.034786
   7 H :    0.031283
   8 H :    0.037656
   9 C :   -0.046381
  10 H :    0.026201
  11 H :    0.028015
  12 C :   -0.069235
  13 H :    0.031972
  14 H :    0.023960
  15 H :    0.026269
  16 S :    0.419558
  17 C :   -0.184767
  18 C :   -0.076469
  19 C :   -0.049684
  20 C :   -0.208947
  21 H :    0.034158
  22 C :   -0.033110
  23 H :    0.036313
  24 H :    0.031445
  25 C :   -0.045886
  26 H :    0.027221
  27 H :    0.024884
  28 C :   -0.068202
  29 H :    0.021858
  30 H :    0.034991
  31 H :    0.023147
  32 H :    0.011719
  33 H :    0.020269

  Mayer bond orders larger than 0.100000
B(  0-S ,  1-C ) :   1.1310 B(  0-S ,  4-C ) :   1.1430 B(  1-C ,  2-C ) :   1.6442
B(  1-C , 32-H ) :   0.9734 B(  2-C ,  3-C ) :   1.2011 B(  2-C ,  6-C ) :   1.0107
B(  3-C ,  4-C ) :   1.6128 B(  3-C ,  5-H ) :   0.9928 B(  4-C , 20-C ) :   1.0305
B(  6-C ,  7-H ) :   0.9468 B(  6-C ,  8-H ) :   0.9398 B(  6-C ,  9-C ) :   1.0598
B(  9-C , 10-H ) :   0.9613 B(  9-C , 11-H ) :   0.9530 B(  9-C , 12-C ) :   1.0703
B( 12-C , 13-H ) :   0.9725 B( 12-C , 14-H ) :   0.9706 B( 12-C , 15-H ) :   0.9767
B( 16-S , 17-C ) :   1.1594 B( 16-S , 20-C ) :   1.1435 B( 17-C , 18-C ) :   1.6307
B( 17-C , 33-H ) :   0.9730 B( 18-C , 19-C ) :   1.2208 B( 18-C , 21-H ) :   0.9881
B( 19-C , 20-C ) :   1.5941 B( 19-C , 22-C ) :   1.0403 B( 22-C , 23-H ) :   0.9354
B( 22-C , 24-H ) :   0.9418 B( 22-C , 25-C ) :   1.0269 B( 25-C , 26-H ) :   0.9661
B( 25-C , 27-H ) :   0.9538 B( 25-C , 28-C ) :   1.0760 B( 28-C , 29-H ) :   0.9800
B( 28-C , 30-H ) :   0.9764 B( 28-C , 31-H ) :   0.9789

Dispersion correction           -0.014540101
FINAL SINGLE POINT ENERGY     -1339.866228130126

DIPOLE MOMENT
-------------
                                X             Y             Z
Electronic contribution:     21.19190      -5.48697       4.99642
Nuclear contribution   :    -21.61377       5.65985      -5.24834
                        -----------------------------------------
Total Dipole Moment    :     -0.42187       0.17288      -0.25192
                        -----------------------------------------
Magnitude (a.u.)       :      0.52089
Magnitude (Debye)      :      1.32400

Rotational constants in cm-1:     0.017603     0.009039     0.007452
Rotational constants in MHz :   527.737457   270.981500   223.398849

                             ****ORCA TERMINATED NORMALLY****
TOTAL RUN TIME: 0 days 0 hours 0 minutes 35 seconds 454 msec
