                         Program Version 4.2.1 -  RELEASE  -
|  1> ! wB97X-D3 SP def2-SVP
|  2> %pal
|  3> nprocs 16
|  4> end
|  5>
|  6> * xyz 0 1
|  7> S 	 -5.74393 	 75.0823 	 55.2479
|  8> C 	 -5.03435 	 73.499 	 55.6719
|  9> C 	 -5.28123 	 72.5957 	 54.6756
| 10> C 	 -6.02211 	 73.2276 	 53.5573
| 11> C 	 -6.36931 	 74.5656 	 53.7019
| 12> H 	 -6.51293 	 72.6086 	 52.7957
| 13> C 	 -4.81959 	 71.1727 	 54.7875
| 14> H 	 -4.557 	 71.0644 	 55.8294
| 15> H 	 -3.98182 	 71.0837 	 54.1453
| 16> C 	 -5.92854 	 70.1289 	 54.4781
| 17> H 	 -6.65974 	 70.3594 	 55.1919
| 18> H 	 -6.23978 	 70.1813 	 53.45
| 19> C 	 -5.54373 	 68.6907 	 54.8132
| 20> H 	 -6.22387 	 67.9348 	 54.3654
| 21> H 	 -4.57121 	 68.455 	 54.397
| 22> H 	 -5.49636 	 68.5257 	 55.8703
| 23> S 	 -8.4661 	 76.322 	 53.7088
| 24> C 	 -8.94983 	 76.9428 	 52.1698
| 25> C 	 -8.11417 	 76.557 	 51.1807
| 26> C 	 -7.12016 	 75.6509 	 51.5379
| 27> C 	 -7.20963 	 75.4003 	 52.8936
| 28> H 	 -8.24999 	 76.9862 	 50.1764
| 29> C 	 -6.18296 	 74.9078 	 50.5708
| 30> H 	 -5.2822 	 74.607 	 51.2487
| 31> H 	 -5.83869 	 75.5971 	 49.7792
| 32> C 	 -6.77013 	 73.7137 	 49.7662
| 33> H 	 -6.82996 	 72.8042 	 50.3652
| 34> H 	 -6.01785 	 73.4242 	 49.0102
| 35> C 	 -8.04347 	 73.9963 	 49.0454
| 36> H 	 -7.90128 	 74.7461 	 48.2788
| 37> H 	 -8.82319 	 74.3831 	 49.7171
| 38> H 	 -8.45256 	 73.0871 	 48.5738
| 39> H 	 -4.50224 	 73.3589 	 56.6031
| 40> H 	 -9.76946 	 77.6025 	 52.0403
| 41> *
| 42>
| 43>                          ****END OF INPUT****

CARTESIAN COORDINATES (ANGSTROEM)
---------------------------------
  S     -5.743930   75.082300   55.247900
  C     -5.034350   73.499000   55.671900
  C     -5.281230   72.595700   54.675600
  C     -6.022110   73.227600   53.557300
  C     -6.369310   74.565600   53.701900
  H     -6.512930   72.608600   52.795700
  C     -4.819590   71.172700   54.787500
  H     -4.557000   71.064400   55.829400
  H     -3.981820   71.083700   54.145300
  C     -5.928540   70.128900   54.478100
  H     -6.659740   70.359400   55.191900
  H     -6.239780   70.181300   53.450000
  C     -5.543730   68.690700   54.813200
  H     -6.223870   67.934800   54.365400
  H     -4.571210   68.455000   54.397000
  H     -5.496360   68.525700   55.870300
  S     -8.466100   76.322000   53.708800
  C     -8.949830   76.942800   52.169800
  C     -8.114170   76.557000   51.180700
  C     -7.120160   75.650900   51.537900
  C     -7.209630   75.400300   52.893600
  H     -8.249990   76.986200   50.176400
  C     -6.182960   74.907800   50.570800
  H     -5.282200   74.607000   51.248700
  H     -5.838690   75.597100   49.779200
  C     -6.770130   73.713700   49.766200
  H     -6.829960   72.804200   50.365200
  H     -6.017850   73.424200   49.010200
  C     -8.043470   73.996300   49.045400
  H     -7.901280   74.746100   48.278800
  H     -8.823190   74.383100   49.717100
  H     -8.452560   73.087100   48.573800
  H     -4.502240   73.358900   56.603100
  H     -9.769460   77.602500   52.040300

 Total Charge           Charge          ....    0
 Multiplicity           Mult            ....    1
 Number of Electrons    NEL             ....  134
 Basis Dimension        Dim             ....  322

ORBITAL ENERGIES
----------------

  NO   OCC          E(Eh)            E(eV)
   0   2.0000     -88.967968     -2420.9415
   1   2.0000     -88.958175     -2420.6750
   2   2.0000     -10.329832      -281.0890
   3   2.0000     -10.325303      -280.9658
   4   2.0000     -10.314475      -280.6711
   5   2.0000     -10.311141      -280.5804
   6   2.0000     -10.303108      -280.3618
   7   2.0000     -10.303063      -280.3606
   8   2.0000     -10.301551      -280.3195
   9   2.0000     -10.297743      -280.2158
  10   2.0000     -10.289505      -279.9917
  11   2.0000     -10.289098      -279.9806
  12   2.0000     -10.287688      -279.9422
  13   2.0000     -10.282017      -279.7879
  14   2.0000     -10.276739      -279.6443
  15   2.0000     -10.275675      -279.6153
  16   2.0000      -8.083120      -219.9529
  17   2.0000      -8.072869      -219.6739
  18   2.0000      -6.041474      -164.3969
  19   2.0000      -6.037677      -164.2936
  20   2.0000      -6.033902      -164.1908
  21   2.0000      -6.031521      -164.1260
  22   2.0000      -6.027287      -164.0108
  23   2.0000      -6.023566      -163.9096
  24   2.0000      -1.011712       -27.5301
  25   2.0000      -0.982816       -26.7438
  26   2.0000      -0.916113       -24.9287
  27   2.0000      -0.909166       -24.7397
  28   2.0000      -0.875051       -23.8113
  29   2.0000      -0.856148       -23.2970
  30   2.0000      -0.840148       -22.8616
  31   2.0000      -0.814533       -22.1646
  32   2.0000      -0.784776       -21.3548
  33   2.0000      -0.772742       -21.0274
  34   2.0000      -0.714319       -19.4376
  35   2.0000      -0.698416       -19.0049
  36   2.0000      -0.691696       -18.8220
  37   2.0000      -0.661243       -17.9933
  38   2.0000      -0.640146       -17.4192
  39   2.0000      -0.615672       -16.7533
  40   2.0000      -0.592719       -16.1287
  41   2.0000      -0.583752       -15.8847
  42   2.0000      -0.561860       -15.2890
  43   2.0000      -0.555949       -15.1281
  44   2.0000      -0.548276       -14.9194
  45   2.0000      -0.521311       -14.1856
  46   2.0000      -0.517411       -14.0795
  47   2.0000      -0.507773       -13.8172
  48   2.0000      -0.504248       -13.7213
  49   2.0000      -0.503507       -13.7011
  50   2.0000      -0.493310       -13.4236
  51   2.0000      -0.486439       -13.2367
  52   2.0000      -0.471278       -12.8241
  53   2.0000      -0.469219       -12.7681
  54   2.0000      -0.453195       -12.3321
  55   2.0000      -0.448527       -12.2050
  56   2.0000      -0.443309       -12.0630
  57   2.0000      -0.437160       -11.8957
  58   2.0000      -0.434803       -11.8316
  59   2.0000      -0.429832       -11.6963
  60   2.0000      -0.419522       -11.4158
  61   2.0000      -0.412584       -11.2270
  62   2.0000      -0.409464       -11.1421
  63   2.0000      -0.351825        -9.5736
  64   2.0000      -0.337046        -9.1715
  65   2.0000      -0.322672        -8.7804
  66   2.0000      -0.292208        -7.9514
  67   0.0000       0.029285         0.7969
  68   0.0000       0.073906         2.0111
  69   0.0000       0.115263         3.1365
  70   0.0000       0.126768         3.4495
  71   0.0000       0.130803         3.5593

MULLIKEN ATOMIC CHARGES
-----------------------
   0 S :    0.076645
   1 C :   -0.139949
   2 C :   -0.104392
   3 C :    0.014267
   4 C :   -0.145653
   5 H :    0.020187
   6 C :    0.104340
   7 H :    0.009356
   8 H :    0.034082
   9 C :   -0.078296
  10 H :    0.025653
  11 H :    0.037461
  12 C :   -0.040905
  13 H :    0.037863
  14 H :    0.017454
  15 H :    0.026859
  16 S :    0.123648
  17 C :   -0.072952
  18 C :   -0.046841
  19 C :   -0.012955
  20 C :   -0.169794
  21 H :    0.020396
  22 C :    0.035822
  23 H :    0.061165
  24 H :    0.027414
  25 C :   -0.051025
  26 H :    0.020275
  27 H :    0.029313
  28 C :   -0.060164
  29 H :    0.021961
  30 H :    0.047279
  31 H :    0.037327
  32 H :    0.053657
  33 H :    0.040501
Sum of atomic charges:    0.0000000

LOEWDIN ATOMIC CHARGES
----------------------
   0 S :    0.377098
   1 C :   -0.185487
   2 C :   -0.060613
   3 C :   -0.076524
   4 C :   -0.190158
   5 H :    0.027747
   6 C :   -0.021587
   7 H :    0.029864
   8 H :    0.027227
   9 C :   -0.033370
  10 H :    0.022658
  11 H :    0.021916
  12 C :   -0.064172
  13 H :    0.031539
  14 H :    0.020204
  15 H :    0.020950
  16 S :    0.414863
  17 C :   -0.182834
  18 C :   -0.074539
  19 C :   -0.056839
  20 C :   -0.193744
  21 H :    0.034953
  22 C :   -0.035890
  23 H :    0.047924
  24 H :    0.031891
  25 C :   -0.044619
  26 H :    0.018353
  27 H :    0.029027
  28 C :   -0.068629
  29 H :    0.021121
  30 H :    0.028771
  31 H :    0.031466
  32 H :    0.028646
  33 H :    0.022786

  Mayer bond orders larger than 0.100000
B(  0-S ,  1-C ) :   1.1161 B(  0-S ,  4-C ) :   1.1418 B(  1-C ,  2-C ) :   1.6341
B(  1-C , 32-H ) :   0.9717 B(  2-C ,  3-C ) :   1.2114 B(  2-C ,  6-C ) :   1.0300
B(  3-C ,  4-C ) :   1.5825 B(  3-C ,  5-H ) :   0.9848 B(  4-C , 20-C ) :   1.0638
B(  6-C ,  7-H ) :   0.9416 B(  6-C ,  8-H ) :   0.9286 B(  6-C ,  9-C ) :   1.0657
B(  9-C , 10-H ) :   0.9613 B(  9-C , 11-H ) :   0.9546 B(  9-C , 12-C ) :   1.0946
B( 12-C , 13-H ) :   0.9741 B( 12-C , 14-H ) :   0.9724 B( 12-C , 15-H ) :   0.9766
B( 16-S , 17-C ) :   1.1447 B( 16-S , 20-C ) :   1.1514 B( 17-C , 18-C ) :   1.6129
B( 17-C , 20-C ) :   0.1001 B( 17-C , 33-H ) :   0.9720 B( 18-C , 19-C ) :   1.2437
B( 18-C , 21-H ) :   0.9870 B( 19-C , 20-C ) :   1.5767 B( 19-C , 22-C ) :   1.0470
B( 22-C , 23-H ) :   0.9255 B( 22-C , 24-H ) :   0.9338 B( 22-C , 25-C ) :   1.0653
B( 25-C , 26-H ) :   0.9523 B( 25-C , 27-H ) :   0.9506 B( 25-C , 28-C ) :   1.0891
B( 28-C , 29-H ) :   0.9729 B( 28-C , 30-H ) :   0.9679 B( 28-C , 31-H ) :   0.9685

Dispersion correction           -0.014298104
FINAL SINGLE POINT ENERGY     -1339.887897142455

DIPOLE MOMENT
-------------
                                X             Y             Z
Electronic contribution:     -3.91473      24.85476      14.07086
Nuclear contribution   :      3.90497     -25.36382     -14.49970
                        -----------------------------------------
Total Dipole Moment    :     -0.00977      -0.50905      -0.42883
                        -----------------------------------------
Magnitude (a.u.)       :      0.66568
Magnitude (Debye)      :      1.69202

Rotational constants in cm-1:     0.018657     0.008626     0.006600
Rotational constants in MHz :   559.327138   258.611939   197.851292

                             ****ORCA TERMINATED NORMALLY****
TOTAL RUN TIME: 0 days 0 hours 0 minutes 33 seconds 976 msec
