                         Program Version 4.2.1 -  RELEASE  -
|  1> ! wB97X-D3 SP def2-SVP
|  2> %pal
|  3> nprocs 16
|  4> end
|  5>
|  6> * xyz 0 1
|  7> S 	 -99.7121 	 46.433 	 120.88
|  8> C 	 -97.9897 	 46.1747 	 120.739
|  9> C 	 -97.464 	 45.8887 	 121.997
| 10> C 	 -98.4365 	 45.7349 	 123.054
| 11> C 	 -99.7043 	 45.987 	 122.587
| 12> H 	 -98.2124 	 45.4193 	 124.073
| 13> C 	 -95.9008 	 45.6581 	 122.228
| 14> H 	 -95.7544 	 45.1874 	 123.182
| 15> H 	 -95.289 	 46.4978 	 122.232
| 16> C 	 -95.2213 	 44.7036 	 121.177
| 17> H 	 -95.8209 	 43.8178 	 121.081
| 18> H 	 -95.3042 	 45.1705 	 120.127
| 19> C 	 -93.9299 	 44.2324 	 121.709
| 20> H 	 -93.4611 	 43.5647 	 121.029
| 21> H 	 -93.1199 	 45.0023 	 121.96
| 22> H 	 -93.9589 	 43.6067 	 122.603
| 23> S 	 -101.773 	 47.6652 	 123.41
| 24> C 	 -102.799 	 47.2188 	 124.709
| 25> C 	 -102.613 	 45.8968 	 125.037
| 26> C 	 -101.558 	 45.2505 	 124.296
| 27> C 	 -100.91 	 46.0664 	 123.377
| 28> H 	 -103.246 	 45.3981 	 125.815
| 29> C 	 -101.09 	 43.8696 	 124.672
| 30> H 	 -100.109 	 43.7146 	 124.094
| 31> H 	 -101.799 	 43.1301 	 124.223
| 32> C 	 -100.942 	 43.7648 	 126.222
| 33> H 	 -101.891 	 43.9141 	 126.839
| 34> H 	 -100.27 	 44.5301 	 126.468
| 35> C 	 -100.282 	 42.4759 	 126.656
| 36> H 	 -101.014 	 41.6181 	 126.705
| 37> H 	 -99.8612 	 42.5779 	 127.621
| 38> H 	 -99.5173 	 42.1141 	 125.937
| 39> H 	 -97.4177 	 46.2458 	 119.741
| 40> H 	 -103.683 	 47.8005 	 125.017
| 41> *
| 42>
| 43>                          ****END OF INPUT****

CARTESIAN COORDINATES (ANGSTROEM)
---------------------------------
  S    -99.712100   46.433000  120.880000
  C    -97.989700   46.174700  120.739000
  C    -97.464000   45.888700  121.997000
  C    -98.436500   45.734900  123.054000
  C    -99.704300   45.987000  122.587000
  H    -98.212400   45.419300  124.073000
  C    -95.900800   45.658100  122.228000
  H    -95.754400   45.187400  123.182000
  H    -95.289000   46.497800  122.232000
  C    -95.221300   44.703600  121.177000
  H    -95.820900   43.817800  121.081000
  H    -95.304200   45.170500  120.127000
  C    -93.929900   44.232400  121.709000
  H    -93.461100   43.564700  121.029000
  H    -93.119900   45.002300  121.960000
  H    -93.958900   43.606700  122.603000
  S    -101.773000   47.665200  123.410000
  C    -102.799000   47.218800  124.709000
  C    -102.613000   45.896800  125.037000
  C    -101.558000   45.250500  124.296000
  C    -100.910000   46.066400  123.377000
  H    -103.246000   45.398100  125.815000
  C    -101.090000   43.869600  124.672000
  H    -100.109000   43.714600  124.094000
  H    -101.799000   43.130100  124.223000
  C    -100.942000   43.764800  126.222000
  H    -101.891000   43.914100  126.839000
  H    -100.270000   44.530100  126.468000
  C    -100.282000   42.475900  126.656000
  H    -101.014000   41.618100  126.705000
  H    -99.861200   42.577900  127.621000
  H    -99.517300   42.114100  125.937000
  H    -97.417700   46.245800  119.741000
  H    -103.683000   47.800500  125.017000

 Total Charge           Charge          ....    0
 Multiplicity           Mult            ....    1
 Number of Electrons    NEL             ....  134
 Basis Dimension        Dim             ....  322

ORBITAL ENERGIES
----------------

  NO   OCC          E(Eh)            E(eV)
   0   2.0000     -88.968256     -2420.9493
   1   2.0000     -88.958605     -2420.6867
   2   2.0000     -10.333046      -281.1765
   3   2.0000     -10.328841      -281.0621
   4   2.0000     -10.324450      -280.9426
   5   2.0000     -10.316861      -280.7361
   6   2.0000     -10.310570      -280.5649
   7   2.0000     -10.303879      -280.3828
   8   2.0000     -10.301783      -280.3258
   9   2.0000     -10.299519      -280.2642
  10   2.0000     -10.295315      -280.1498
  11   2.0000     -10.291299      -280.0405
  12   2.0000     -10.290167      -280.0097
  13   2.0000     -10.289895      -280.0023
  14   2.0000     -10.280062      -279.7347
  15   2.0000     -10.278133      -279.6822
  16   2.0000      -8.082820      -219.9447
  17   2.0000      -8.073435      -219.6893
  18   2.0000      -6.041361      -164.3938
  19   2.0000      -6.037344      -164.2845
  20   2.0000      -6.033545      -164.1811
  21   2.0000      -6.031995      -164.1389
  22   2.0000      -6.027885      -164.0271
  23   2.0000      -6.024138      -163.9251
  24   2.0000      -1.004294       -27.3282
  25   2.0000      -0.981508       -26.7082
  26   2.0000      -0.910087       -24.7647
  27   2.0000      -0.908854       -24.7312
  28   2.0000      -0.871983       -23.7279
  29   2.0000      -0.851766       -23.1777
  30   2.0000      -0.845808       -23.0156
  31   2.0000      -0.811886       -22.0925
  32   2.0000      -0.779448       -21.2099
  33   2.0000      -0.766934       -20.8693
  34   2.0000      -0.704913       -19.1817
  35   2.0000      -0.701855       -19.0984
  36   2.0000      -0.694275       -18.8922
  37   2.0000      -0.655085       -17.8258
  38   2.0000      -0.639174       -17.3928
  39   2.0000      -0.618537       -16.8312
  40   2.0000      -0.592391       -16.1198
  41   2.0000      -0.565267       -15.3817
  42   2.0000      -0.561905       -15.2902
  43   2.0000      -0.561358       -15.2753
  44   2.0000      -0.531526       -14.4636
  45   2.0000      -0.522098       -14.2070
  46   2.0000      -0.517795       -14.0899
  47   2.0000      -0.515115       -14.0170
  48   2.0000      -0.504435       -13.7264
  49   2.0000      -0.500816       -13.6279
  50   2.0000      -0.489889       -13.3305
  51   2.0000      -0.478315       -13.0156
  52   2.0000      -0.474516       -12.9122
  53   2.0000      -0.464000       -12.6261
  54   2.0000      -0.459157       -12.4943
  55   2.0000      -0.454588       -12.3700
  56   2.0000      -0.444379       -12.0922
  57   2.0000      -0.435899       -11.8614
  58   2.0000      -0.426377       -11.6023
  59   2.0000      -0.419978       -11.4282
  60   2.0000      -0.419592       -11.4177
  61   2.0000      -0.413295       -11.2463
  62   2.0000      -0.408369       -11.1123
  63   2.0000      -0.348784        -9.4909
  64   2.0000      -0.331556        -9.0221
  65   2.0000      -0.325148        -8.8477
  66   2.0000      -0.294631        -8.0173
  67   0.0000       0.031004         0.8437
  68   0.0000       0.063349         1.7238
  69   0.0000       0.117014         3.1841
  70   0.0000       0.125465         3.4141
  71   0.0000       0.126883         3.4527

MULLIKEN ATOMIC CHARGES
-----------------------
   0 S :    0.117218
   1 C :   -0.159432
   2 C :   -0.082957
   3 C :    0.048840
   4 C :   -0.166753
   5 H :    0.023735
   6 C :    0.086755
   7 H :    0.004159
   8 H :    0.026841
   9 C :   -0.093023
  10 H :    0.025570
  11 H :    0.042749
  12 C :   -0.056044
  13 H :    0.020121
  14 H :    0.034265
  15 H :    0.030114
  16 S :    0.084249
  17 C :   -0.087601
  18 C :   -0.060767
  19 C :   -0.044006
  20 C :   -0.144917
  21 H :    0.035581
  22 C :    0.035550
  23 H :    0.037699
  24 H :    0.045384
  25 C :   -0.089891
  26 H :    0.049738
  27 H :    0.023571
  28 C :   -0.038664
  29 H :    0.030191
  30 H :    0.028820
  31 H :    0.028978
  32 H :    0.089973
  33 H :    0.073956
Sum of atomic charges:    0.0000000

LOEWDIN ATOMIC CHARGES
----------------------
   0 S :    0.406910
   1 C :   -0.214263
   2 C :   -0.060069
   3 C :   -0.057704
   4 C :   -0.191669
   5 H :    0.036782
   6 C :   -0.020447
   7 H :    0.022302
   8 H :    0.020870
   9 C :   -0.047437
  10 H :    0.024144
  11 H :    0.030139
  12 C :   -0.074906
  13 H :    0.023186
  14 H :    0.030292
  15 H :    0.028993
  16 S :    0.386091
  17 C :   -0.195818
  18 C :   -0.084586
  19 C :   -0.058920
  20 C :   -0.185377
  21 H :    0.037394
  22 C :   -0.038038
  23 H :    0.038809
  24 H :    0.036016
  25 C :   -0.042374
  26 H :    0.034907
  27 H :    0.019436
  28 C :   -0.068550
  29 H :    0.028010
  30 H :    0.020014
  31 H :    0.027102
  32 H :    0.049664
  33 H :    0.039099

  Mayer bond orders larger than 0.100000
B(  0-S ,  1-C ) :   1.1327 B(  0-S ,  4-C ) :   1.1578 B(  1-C ,  2-C ) :   1.6105
B(  1-C , 32-H ) :   0.9597 B(  2-C ,  3-C ) :   1.2489 B(  2-C ,  6-C ) :   1.0009
B(  3-C ,  4-C ) :   1.5599 B(  3-C ,  5-H ) :   0.9929 B(  4-C , 20-C ) :   1.0416
B(  6-C ,  7-H ) :   0.9509 B(  6-C ,  8-H ) :   0.9467 B(  6-C ,  9-C ) :   1.0585
B(  9-C , 10-H ) :   0.9535 B(  9-C , 11-H ) :   0.9516 B(  9-C , 12-C ) :   1.0905
B( 12-C , 13-H ) :   0.9677 B( 12-C , 14-H ) :   0.9721 B( 12-C , 15-H ) :   0.9687
B( 16-S , 17-C ) :   1.1668 B( 16-S , 20-C ) :   1.1131 B( 17-C , 18-C ) :   1.6094
B( 17-C , 33-H ) :   0.9587 B( 18-C , 19-C ) :   1.2318 B( 18-C , 21-H ) :   0.9823
B( 19-C , 20-C ) :   1.6093 B( 19-C , 22-C ) :   1.0466 B( 22-C , 23-H ) :   0.9398
B( 22-C , 24-H ) :   0.9272 B( 22-C , 25-C ) :   1.0550 B( 25-C , 26-H ) :   0.9480
B( 25-C , 27-H ) :   0.9577 B( 25-C , 28-C ) :   1.0926 B( 28-C , 29-H ) :   0.9736
B( 28-C , 30-H ) :   0.9742 B( 28-C , 31-H ) :   0.9725

Dispersion correction           -0.013489387
FINAL SINGLE POINT ENERGY     -1339.867675168542

DIPOLE MOMENT
-------------
                                X             Y             Z
Electronic contribution:    -20.20231      20.10339     -10.97471
Nuclear contribution   :     20.58377     -20.61237      11.35565
                        -----------------------------------------
Total Dipole Moment    :      0.38146      -0.50898       0.38093
                        -----------------------------------------
Magnitude (a.u.)       :      0.74141
Magnitude (Debye)      :      1.88451

Rotational constants in cm-1:     0.018321     0.007963     0.005927
Rotational constants in MHz :   549.255536   238.712508   177.700677

                             ****ORCA TERMINATED NORMALLY****
TOTAL RUN TIME: 0 days 0 hours 0 minutes 33 seconds 45 msec
