                         Program Version 4.2.1 -  RELEASE  -
|  1> ! wB97X-D3 SP def2-SVP
|  2> %pal
|  3> nprocs 16
|  4> end
|  5>
|  6> * xyz 0 1
|  7> S 	 12.9224 	 11.5936 	 82.6608
|  8> C 	 13.2702 	 11.5127 	 80.9597
|  9> C 	 12.2186 	 10.9742 	 80.2371
| 10> C 	 11.1128 	 10.6413 	 81.0479
| 11> C 	 11.2822 	 10.9651 	 82.401
| 12> H 	 10.1567 	 10.2042 	 80.7114
| 13> C 	 12.324 	 10.577 	 78.7503
| 14> H 	 12.2943 	 9.50862 	 78.6579
| 15> H 	 13.3741 	 10.7398 	 78.406
| 16> C 	 11.3567 	 11.3025 	 77.8305
| 17> H 	 11.5239 	 12.4309 	 77.806
| 18> H 	 11.4307 	 10.9018 	 76.865
| 19> C 	 9.92326 	 11.3203 	 78.2816
| 20> H 	 9.16383 	 11.4774 	 77.47
| 21> H 	 9.67962 	 10.3143 	 78.6633
| 22> H 	 9.86868 	 12.004 	 79.0488
| 23> S 	 9.36372 	 12.0458 	 84.1009
| 24> C 	 8.50858 	 10.9087 	 85.1596
| 25> C 	 8.93454 	 9.61641 	 84.9517
| 26> C 	 10.0263 	 9.48167 	 84.0738
| 27> C 	 10.3194 	 10.7034 	 83.445
| 28> H 	 8.43267 	 8.81909 	 85.5051
| 29> C 	 10.7357 	 8.15205 	 83.8202
| 30> H 	 11.7457 	 8.26457 	 83.5752
| 31> H 	 10.1945 	 7.76036 	 82.918
| 32> C 	 10.4997 	 7.05657 	 84.8902
| 33> H 	 9.53832 	 6.92792 	 85.2456
| 34> H 	 11.0156 	 7.28041 	 85.8025
| 35> C 	 10.8812 	 5.63386 	 84.3116
| 36> H 	 11.8791 	 5.66476 	 83.9204
| 37> H 	 10.2176 	 5.15936 	 83.6318
| 38> H 	 10.8855 	 4.9041 	 85.1355
| 39> H 	 14.3389 	 11.5931 	 80.6698
| 40> H 	 7.81136 	 11.0518 	 85.9613
| 41> *
| 42>
| 43>                          ****END OF INPUT****

CARTESIAN COORDINATES (ANGSTROEM)
---------------------------------
  S     12.922400   11.593600   82.660800
  C     13.270200   11.512700   80.959700
  C     12.218600   10.974200   80.237100
  C     11.112800   10.641300   81.047900
  C     11.282200   10.965100   82.401000
  H     10.156700   10.204200   80.711400
  C     12.324000   10.577000   78.750300
  H     12.294300    9.508620   78.657900
  H     13.374100   10.739800   78.406000
  C     11.356700   11.302500   77.830500
  H     11.523900   12.430900   77.806000
  H     11.430700   10.901800   76.865000
  C      9.923260   11.320300   78.281600
  H      9.163830   11.477400   77.470000
  H      9.679620   10.314300   78.663300
  H      9.868680   12.004000   79.048800
  S      9.363720   12.045800   84.100900
  C      8.508580   10.908700   85.159600
  C      8.934540    9.616410   84.951700
  C     10.026300    9.481670   84.073800
  C     10.319400   10.703400   83.445000
  H      8.432670    8.819090   85.505100
  C     10.735700    8.152050   83.820200
  H     11.745700    8.264570   83.575200
  H     10.194500    7.760360   82.918000
  C     10.499700    7.056570   84.890200
  H      9.538320    6.927920   85.245600
  H     11.015600    7.280410   85.802500
  C     10.881200    5.633860   84.311600
  H     11.879100    5.664760   83.920400
  H     10.217600    5.159360   83.631800
  H     10.885500    4.904100   85.135500
  H     14.338900   11.593100   80.669800
  H      7.811360   11.051800   85.961300

 Total Charge           Charge          ....    0
 Multiplicity           Mult            ....    1
 Number of Electrons    NEL             ....  134
 Basis Dimension        Dim             ....  322

ORBITAL ENERGIES
----------------

  NO   OCC          E(Eh)            E(eV)
   0   2.0000     -88.967099     -2420.9178
   1   2.0000     -88.965354     -2420.8704
   2   2.0000     -10.327876      -281.0358
   3   2.0000     -10.323253      -280.9100
   4   2.0000     -10.317018      -280.7403
   5   2.0000     -10.315036      -280.6864
   6   2.0000     -10.303977      -280.3855
   7   2.0000     -10.302235      -280.3381
   8   2.0000     -10.296143      -280.1723
   9   2.0000     -10.294576      -280.1297
  10   2.0000     -10.293105      -280.0896
  11   2.0000     -10.288839      -279.9735
  12   2.0000     -10.284528      -279.8562
  13   2.0000     -10.281665      -279.7783
  14   2.0000     -10.277276      -279.6589
  15   2.0000     -10.269860      -279.4571
  16   2.0000      -8.080715      -219.8874
  17   2.0000      -8.079915      -219.8657
  18   2.0000      -6.039251      -164.3364
  19   2.0000      -6.038276      -164.3098
  20   2.0000      -6.035406      -164.2317
  21   2.0000      -6.034379      -164.2038
  22   2.0000      -6.031491      -164.1252
  23   2.0000      -6.030917      -164.1096
  24   2.0000      -1.001247       -27.2453
  25   2.0000      -0.980536       -26.6817
  26   2.0000      -0.914051       -24.8726
  27   2.0000      -0.905147       -24.6303
  28   2.0000      -0.869239       -23.6532
  29   2.0000      -0.847268       -23.0553
  30   2.0000      -0.845204       -22.9992
  31   2.0000      -0.814707       -22.1693
  32   2.0000      -0.785677       -21.3794
  33   2.0000      -0.769703       -20.9447
  34   2.0000      -0.714777       -19.4501
  35   2.0000      -0.700853       -19.0712
  36   2.0000      -0.692889       -18.8545
  37   2.0000      -0.648746       -17.6533
  38   2.0000      -0.644293       -17.5321
  39   2.0000      -0.615123       -16.7383
  40   2.0000      -0.597084       -16.2475
  41   2.0000      -0.577993       -15.7280
  42   2.0000      -0.563173       -15.3247
  43   2.0000      -0.546875       -14.8812
  44   2.0000      -0.537397       -14.6233
  45   2.0000      -0.528405       -14.3786
  46   2.0000      -0.518697       -14.1145
  47   2.0000      -0.512134       -13.9359
  48   2.0000      -0.502009       -13.6604
  49   2.0000      -0.493319       -13.4239
  50   2.0000      -0.488167       -13.2837
  51   2.0000      -0.483474       -13.1560
  52   2.0000      -0.471888       -12.8407
  53   2.0000      -0.463119       -12.6021
  54   2.0000      -0.460603       -12.5336
  55   2.0000      -0.446796       -12.1579
  56   2.0000      -0.440613       -11.9897
  57   2.0000      -0.439668       -11.9640
  58   2.0000      -0.435077       -11.8391
  59   2.0000      -0.430459       -11.7134
  60   2.0000      -0.418900       -11.3989
  61   2.0000      -0.413410       -11.2495
  62   2.0000      -0.405452       -11.0329
  63   2.0000      -0.337139        -9.1740
  64   2.0000      -0.330963        -9.0060
  65   2.0000      -0.319035        -8.6814
  66   2.0000      -0.303238        -8.2515
  67   0.0000       0.039647         1.0788
  68   0.0000       0.051396         1.3985
  69   0.0000       0.117116         3.1869
  70   0.0000       0.120461         3.2779
  71   0.0000       0.130613         3.5542

MULLIKEN ATOMIC CHARGES
-----------------------
   0 S :    0.111151
   1 C :   -0.143931
   2 C :   -0.084663
   3 C :    0.033209
   4 C :   -0.191279
   5 H :    0.027233
   6 C :    0.071321
   7 H :    0.032310
   8 H :    0.015046
   9 C :   -0.056797
  10 H :    0.036094
  11 H :    0.016868
  12 C :   -0.055586
  13 H :    0.042784
  14 H :    0.016726
  15 H :    0.036716
  16 S :    0.120377
  17 C :   -0.070076
  18 C :   -0.071187
  19 C :   -0.007652
  20 C :   -0.199923
  21 H :    0.020821
  22 C :    0.108310
  23 H :    0.027574
  24 H :    0.039495
  25 C :   -0.055348
  26 H :    0.009883
  27 H :    0.027156
  28 C :   -0.057538
  29 H :    0.030928
  30 H :    0.032692
  31 H :    0.022416
  32 H :    0.071117
  33 H :    0.043754
Sum of atomic charges:   -0.0000000

LOEWDIN ATOMIC CHARGES
----------------------
   0 S :    0.402401
   1 C :   -0.202517
   2 C :   -0.070525
   3 C :   -0.055839
   4 C :   -0.198834
   5 H :    0.038561
   6 C :   -0.030039
   7 H :    0.029392
   8 H :    0.033903
   9 C :   -0.041629
  10 H :    0.035618
  11 H :    0.015371
  12 C :   -0.061513
  13 H :    0.034080
  14 H :    0.017099
  15 H :    0.014756
  16 S :    0.394685
  17 C :   -0.180071
  18 C :   -0.078140
  19 C :   -0.047409
  20 C :   -0.207976
  21 H :    0.032312
  22 C :   -0.022110
  23 H :    0.024826
  24 H :    0.044642
  25 C :   -0.031013
  26 H :    0.012249
  27 H :    0.023529
  28 C :   -0.061328
  29 H :    0.021754
  30 H :    0.020780
  31 H :    0.027912
  32 H :    0.035040
  33 H :    0.030032

  Mayer bond orders larger than 0.100000
B(  0-S ,  1-C ) :   1.1600 B(  0-S ,  4-C ) :   1.1511 B(  1-C ,  2-C ) :   1.5965
B(  1-C ,  4-C ) :   0.1023 B(  1-C , 32-H ) :   0.9607 B(  2-C ,  3-C ) :   1.2590
B(  2-C ,  6-C ) :   1.0090 B(  3-C ,  4-C ) :   1.5646 B(  3-C ,  5-H ) :   0.9863
B(  4-C , 20-C ) :   1.0516 B(  6-C ,  7-H ) :   0.9425 B(  6-C ,  8-H ) :   0.9395
B(  6-C ,  9-C ) :   1.0769 B(  9-C , 10-H ) :   0.9581 B(  9-C , 11-H ) :   0.9545
B(  9-C , 12-C ) :   1.0881 B( 12-C , 13-H ) :   0.9678 B( 12-C , 14-H ) :   0.9683
B( 12-C , 15-H ) :   0.9710 B( 16-S , 17-C ) :   1.1446 B( 16-S , 20-C ) :   1.1371
B( 17-C , 18-C ) :   1.6322 B( 17-C , 20-C ) :   0.1045 B( 17-C , 33-H ) :   0.9621
B( 18-C , 19-C ) :   1.2529 B( 18-C , 21-H ) :   0.9775 B( 19-C , 20-C ) :   1.5853
B( 19-C , 22-C ) :   1.0292 B( 22-C , 23-H ) :   0.9335 B( 22-C , 24-H ) :   0.9320
B( 22-C , 25-C ) :   1.0665 B( 25-C , 26-H ) :   0.9478 B( 25-C , 27-H ) :   0.9572
B( 25-C , 28-C ) :   1.0806 B( 28-C , 29-H ) :   0.9783 B( 28-C , 30-H ) :   0.9787
B( 28-C , 31-H ) :   0.9727

Dispersion correction           -0.014165555
FINAL SINGLE POINT ENERGY     -1339.862936930171

DIPOLE MOMENT
-------------
                                X             Y             Z
Electronic contribution:      2.34773      19.31829      12.77781
Nuclear contribution   :     -2.39303     -20.06591     -13.00214
                        -----------------------------------------
Total Dipole Moment    :     -0.04530      -0.74762      -0.22434
                        -----------------------------------------
Magnitude (a.u.)       :      0.78187
Magnitude (Debye)      :      1.98736

Rotational constants in cm-1:     0.017180     0.008289     0.007243
Rotational constants in MHz :   515.050193   248.495037   217.130492

                             ****ORCA TERMINATED NORMALLY****
TOTAL RUN TIME: 0 days 0 hours 0 minutes 34 seconds 553 msec
