                         Program Version 4.2.1 -  RELEASE  -
|  1> ! wB97X-D3 SP def2-SVP
|  2> %pal
|  3> nprocs 16
|  4> end
|  5>
|  6> * xyz 0 1
|  7> S 	 34.7143 	 30.6819 	 54.0754
|  8> C 	 34.4509 	 32.3707 	 53.6015
|  9> C 	 34.4769 	 33.1951 	 54.6785
| 10> C 	 34.6556 	 32.5133 	 55.9442
| 11> C 	 34.82 	 31.1301 	 55.7523
| 12> H 	 34.499 	 33.0994 	 56.8781
| 13> C 	 34.0729 	 34.6675 	 54.67
| 14> H 	 33.297 	 34.9443 	 55.3746
| 15> H 	 33.6304 	 34.8029 	 53.711
| 16> C 	 35.2934 	 35.6522 	 54.7367
| 17> H 	 35.8624 	 35.5612 	 55.6292
| 18> H 	 35.963 	 35.4274 	 53.8957
| 19> C 	 34.8337 	 37.0274 	 54.5645
| 20> H 	 34.6233 	 37.1414 	 53.4816
| 21> H 	 33.944 	 37.3478 	 55.1726
| 22> H 	 35.6093 	 37.783 	 54.78
| 23> S 	 33.6233 	 30.0431 	 57.9168
| 24> C 	 34.3225 	 28.7354 	 58.7343
| 25> C 	 35.5729 	 28.4065 	 58.1922
| 26> C 	 35.8794 	 29.2127 	 57.0526
| 27> C 	 34.8644 	 30.1258 	 56.7584
| 28> H 	 36.2223 	 27.7328 	 58.7462
| 29> C 	 37.3264 	 29.3323 	 56.521
| 30> H 	 37.2838 	 29.2021 	 55.4289
| 31> H 	 37.8713 	 28.4221 	 56.8307
| 32> C 	 38.0817 	 30.5739 	 56.9526
| 33> H 	 38.2488 	 30.4814 	 58.0689
| 34> H 	 37.4518 	 31.4405 	 56.7675
| 35> C 	 39.4972 	 30.7076 	 56.2228
| 36> H 	 40.0598 	 31.5346 	 56.5712
| 37> H 	 39.3385 	 30.9385 	 55.2438
| 38> H 	 40.1668 	 29.8696 	 56.2522
| 39> H 	 34.4297 	 32.5672 	 52.5448
| 40> H 	 34.102 	 28.2864 	 59.6169
| 41> *
| 42>
| 43>                          ****END OF INPUT****

CARTESIAN COORDINATES (ANGSTROEM)
---------------------------------
  S     34.714300   30.681900   54.075400
  C     34.450900   32.370700   53.601500
  C     34.476900   33.195100   54.678500
  C     34.655600   32.513300   55.944200
  C     34.820000   31.130100   55.752300
  H     34.499000   33.099400   56.878100
  C     34.072900   34.667500   54.670000
  H     33.297000   34.944300   55.374600
  H     33.630400   34.802900   53.711000
  C     35.293400   35.652200   54.736700
  H     35.862400   35.561200   55.629200
  H     35.963000   35.427400   53.895700
  C     34.833700   37.027400   54.564500
  H     34.623300   37.141400   53.481600
  H     33.944000   37.347800   55.172600
  H     35.609300   37.783000   54.780000
  S     33.623300   30.043100   57.916800
  C     34.322500   28.735400   58.734300
  C     35.572900   28.406500   58.192200
  C     35.879400   29.212700   57.052600
  C     34.864400   30.125800   56.758400
  H     36.222300   27.732800   58.746200
  C     37.326400   29.332300   56.521000
  H     37.283800   29.202100   55.428900
  H     37.871300   28.422100   56.830700
  C     38.081700   30.573900   56.952600
  H     38.248800   30.481400   58.068900
  H     37.451800   31.440500   56.767500
  C     39.497200   30.707600   56.222800
  H     40.059800   31.534600   56.571200
  H     39.338500   30.938500   55.243800
  H     40.166800   29.869600   56.252200
  H     34.429700   32.567200   52.544800
  H     34.102000   28.286400   59.616900

 Total Charge           Charge          ....    0
 Multiplicity           Mult            ....    1
 Number of Electrons    NEL             ....  134
 Basis Dimension        Dim             ....  322

ORBITAL ENERGIES
----------------

  NO   OCC          E(Eh)            E(eV)
   0   2.0000     -88.968501     -2420.9560
   1   2.0000     -88.965880     -2420.8847
   2   2.0000     -10.331054      -281.1223
   3   2.0000     -10.316968      -280.7390
   4   2.0000     -10.314571      -280.6738
   5   2.0000     -10.304956      -280.4121
   6   2.0000     -10.301347      -280.3139
   7   2.0000     -10.301088      -280.3068
   8   2.0000     -10.300317      -280.2859
   9   2.0000     -10.291816      -280.0546
  10   2.0000     -10.290971      -280.0315
  11   2.0000     -10.288588      -279.9667
  12   2.0000     -10.288294      -279.9587
  13   2.0000     -10.281385      -279.7707
  14   2.0000     -10.278787      -279.7000
  15   2.0000     -10.264930      -279.3230
  16   2.0000      -8.084494      -219.9903
  17   2.0000      -8.080620      -219.8849
  18   2.0000      -6.042804      -164.4331
  19   2.0000      -6.039136      -164.3332
  20   2.0000      -6.038600      -164.3186
  21   2.0000      -6.035627      -164.2378
  22   2.0000      -6.035121      -164.2240
  23   2.0000      -6.031373      -164.1220
  24   2.0000      -1.013402       -27.5761
  25   2.0000      -0.986301       -26.8386
  26   2.0000      -0.916388       -24.9362
  27   2.0000      -0.900688       -24.5090
  28   2.0000      -0.876491       -23.8505
  29   2.0000      -0.851787       -23.1783
  30   2.0000      -0.843911       -22.9640
  31   2.0000      -0.812708       -22.1149
  32   2.0000      -0.783587       -21.3225
  33   2.0000      -0.771014       -20.9804
  34   2.0000      -0.711373       -19.3574
  35   2.0000      -0.697231       -18.9726
  36   2.0000      -0.692088       -18.8327
  37   2.0000      -0.665203       -18.1011
  38   2.0000      -0.642680       -17.4882
  39   2.0000      -0.621477       -16.9113
  40   2.0000      -0.589129       -16.0310
  41   2.0000      -0.575572       -15.6621
  42   2.0000      -0.566880       -15.4256
  43   2.0000      -0.556848       -15.1526
  44   2.0000      -0.527687       -14.3591
  45   2.0000      -0.520806       -14.1718
  46   2.0000      -0.512643       -13.9497
  47   2.0000      -0.512394       -13.9429
  48   2.0000      -0.506021       -13.7695
  49   2.0000      -0.504147       -13.7185
  50   2.0000      -0.489399       -13.3172
  51   2.0000      -0.479058       -13.0358
  52   2.0000      -0.469749       -12.7825
  53   2.0000      -0.466368       -12.6905
  54   2.0000      -0.463037       -12.5999
  55   2.0000      -0.448898       -12.2151
  56   2.0000      -0.443294       -12.0626
  57   2.0000      -0.436906       -11.8888
  58   2.0000      -0.433800       -11.8043
  59   2.0000      -0.423275       -11.5179
  60   2.0000      -0.420560       -11.4440
  61   2.0000      -0.414827       -11.2880
  62   2.0000      -0.410058       -11.1583
  63   2.0000      -0.338005        -9.1976
  64   2.0000      -0.332682        -9.0527
  65   2.0000      -0.329812        -8.9746
  66   2.0000      -0.296953        -8.0805
  67   0.0000       0.032857         0.8941
  68   0.0000       0.068731         1.8703
  69   0.0000       0.108459         2.9513
  70   0.0000       0.111914         3.0453
  71   0.0000       0.136636         3.7180

MULLIKEN ATOMIC CHARGES
-----------------------
   0 S :    0.111589
   1 C :   -0.140408
   2 C :   -0.063850
   3 C :    0.024781
   4 C :   -0.156024
   5 H :    0.034275
   6 C :    0.047980
   7 H :    0.033880
   8 H :    0.002335
   9 C :   -0.048448
  10 H :    0.021905
  11 H :    0.029039
  12 C :   -0.064937
  13 H :    0.028881
  14 H :    0.036307
  15 H :    0.033655
  16 S :    0.149191
  17 C :   -0.046296
  18 C :   -0.065525
  19 C :   -0.024227
  20 C :   -0.175136
  21 H :    0.022857
  22 C :    0.057338
  23 H :    0.019802
  24 H :    0.014221
  25 C :   -0.069597
  26 H :    0.034684
  27 H :    0.039894
  28 C :   -0.000855
  29 H :    0.017314
  30 H :    0.008740
  31 H :    0.024636
  32 H :    0.050230
  33 H :    0.011771
Sum of atomic charges:   -0.0000000

LOEWDIN ATOMIC CHARGES
----------------------
   0 S :    0.407881
   1 C :   -0.185995
   2 C :   -0.063457
   3 C :   -0.067385
   4 C :   -0.195688
   5 H :    0.040168
   6 C :   -0.023943
   7 H :    0.030008
   8 H :    0.024975
   9 C :   -0.040959
  10 H :    0.016034
  11 H :    0.029839
  12 C :   -0.074096
  13 H :    0.027940
  14 H :    0.027524
  15 H :    0.027332
  16 S :    0.469022
  17 C :   -0.199074
  18 C :   -0.068589
  19 C :   -0.057316
  20 C :   -0.231723
  21 H :    0.031714
  22 C :   -0.038450
  23 H :    0.025875
  24 H :    0.027979
  25 C :   -0.033586
  26 H :    0.028861
  27 H :    0.026008
  28 C :   -0.056661
  29 H :    0.023220
  30 H :    0.013884
  31 H :    0.023434
  32 H :    0.024293
  33 H :    0.010929

  Mayer bond orders larger than 0.100000
B(  0-S ,  1-C ) :   1.1246 B(  0-S ,  4-C ) :   1.1719 B(  1-C ,  2-C ) :   1.6257
B(  1-C , 32-H ) :   0.9733 B(  2-C ,  3-C ) :   1.2350 B(  2-C ,  6-C ) :   1.0174
B(  3-C ,  4-C ) :   1.5417 B(  3-C ,  5-H ) :   0.9900 B(  4-C , 20-C ) :   1.0487
B(  6-C ,  7-H ) :   0.9505 B(  6-C ,  8-H ) :   0.9425 B(  6-C ,  9-C ) :   1.0533
B(  9-C , 10-H ) :   0.9586 B(  9-C , 11-H ) :   0.9537 B(  9-C , 12-C ) :   1.0928
B( 12-C , 13-H ) :   0.9747 B( 12-C , 14-H ) :   0.9708 B( 12-C , 15-H ) :   0.9705
B( 16-S , 17-C ) :   1.1860 B( 16-S , 20-C ) :   1.1711 B( 17-C , 18-C ) :   1.5728
B( 17-C , 20-C ) :   0.1002 B( 17-C , 33-H ) :   0.9746 B( 18-C , 19-C ) :   1.2945
B( 18-C , 21-H ) :   0.9869 B( 19-C , 20-C ) :   1.5278 B( 19-C , 22-C ) :   1.0496
B( 22-C , 23-H ) :   0.9265 B( 22-C , 24-H ) :   0.9364 B( 22-C , 25-C ) :   1.0585
B( 25-C , 26-H ) :   0.9568 B( 25-C , 27-H ) :   0.9567 B( 25-C , 28-C ) :   1.0702
B( 28-C , 29-H ) :   0.9736 B( 28-C , 30-H ) :   0.9741 B( 28-C , 31-H ) :   0.9785

Dispersion correction           -0.014372828
FINAL SINGLE POINT ENERGY     -1339.870998833825

DIPOLE MOMENT
-------------
                                X             Y             Z
Electronic contribution:    -16.46080     -19.41276       3.00174
Nuclear contribution   :     16.72755      19.87343      -2.90761
                        -----------------------------------------
Total Dipole Moment    :      0.26675       0.46067       0.09414
                        -----------------------------------------
Magnitude (a.u.)       :      0.54058
Magnitude (Debye)      :      1.37405

Rotational constants in cm-1:     0.018927     0.008139     0.007093
Rotational constants in MHz :   567.427696   244.001258   212.647350

                             ****ORCA TERMINATED NORMALLY****
TOTAL RUN TIME: 0 days 0 hours 0 minutes 33 seconds 317 msec
