                         Program Version 4.2.1 -  RELEASE  -
|  1> ! wB97X-D3 SP def2-SVP
|  2> %pal
|  3> nprocs 16
|  4> end
|  5>
|  6> * xyz 0 1
|  7> S 	 42.0407 	 12.143 	 50.7827
|  8> C 	 41.6794 	 12.9251 	 49.2557
|  9> C 	 42.8032 	 13.5804 	 48.7955
| 10> C 	 43.8949 	 13.6227 	 49.7536
| 11> C 	 43.6333 	 12.8613 	 50.9048
| 12> H 	 44.8734 	 14.1658 	 49.5738
| 13> C 	 42.8909 	 14.2458 	 47.4725
| 14> H 	 41.9094 	 14.1384 	 46.9134
| 15> H 	 43.5565 	 13.7433 	 46.8089
| 16> C 	 43.3711 	 15.7049 	 47.4483
| 17> H 	 42.81 	 16.3534 	 48.097
| 18> H 	 44.3934 	 15.7176 	 47.8401
| 19> C 	 43.1426 	 16.4868 	 46.1466
| 20> H 	 43.5392 	 16.0115 	 45.1917
| 21> H 	 42.1149 	 16.7302 	 45.9444
| 22> H 	 43.7378 	 17.3869 	 46.1591
| 23> S 	 44.1589 	 10.9259 	 52.8523
| 24> C 	 45.3649 	 11.2745 	 54.1171
| 25> C 	 45.9547 	 12.4588 	 53.8522
| 26> C 	 45.5507 	 13.1591 	 52.6766
| 27> C 	 44.4338 	 12.5239 	 52.0606
| 28> H 	 46.7988 	 12.7453 	 54.5179
| 29> C 	 46.067 	 14.5092 	 52.2417
| 30> H 	 46.1669 	 15.0431 	 53.1769
| 31> H 	 45.3041 	 15.0745 	 51.7349
| 32> C 	 47.2621 	 14.42 	 51.3107
| 33> H 	 47.0128 	 13.7201 	 50.4756
| 34> H 	 48.1007 	 13.9808 	 51.7637
| 35> C 	 47.801 	 15.7335 	 50.6424
| 36> H 	 47.0328 	 16.0158 	 49.8999
| 37> H 	 48.7276 	 15.5739 	 50.1703
| 38> H 	 48.0409 	 16.5879 	 51.3106
| 39> H 	 40.6732 	 13.0335 	 48.7342
| 40> H 	 45.4837 	 10.5521 	 54.9273
| 41> *
| 42>
| 43>                          ****END OF INPUT****

CARTESIAN COORDINATES (ANGSTROEM)
---------------------------------
  S     42.040700   12.143000   50.782700
  C     41.679400   12.925100   49.255700
  C     42.803200   13.580400   48.795500
  C     43.894900   13.622700   49.753600
  C     43.633300   12.861300   50.904800
  H     44.873400   14.165800   49.573800
  C     42.890900   14.245800   47.472500
  H     41.909400   14.138400   46.913400
  H     43.556500   13.743300   46.808900
  C     43.371100   15.704900   47.448300
  H     42.810000   16.353400   48.097000
  H     44.393400   15.717600   47.840100
  C     43.142600   16.486800   46.146600
  H     43.539200   16.011500   45.191700
  H     42.114900   16.730200   45.944400
  H     43.737800   17.386900   46.159100
  S     44.158900   10.925900   52.852300
  C     45.364900   11.274500   54.117100
  C     45.954700   12.458800   53.852200
  C     45.550700   13.159100   52.676600
  C     44.433800   12.523900   52.060600
  H     46.798800   12.745300   54.517900
  C     46.067000   14.509200   52.241700
  H     46.166900   15.043100   53.176900
  H     45.304100   15.074500   51.734900
  C     47.262100   14.420000   51.310700
  H     47.012800   13.720100   50.475600
  H     48.100700   13.980800   51.763700
  C     47.801000   15.733500   50.642400
  H     47.032800   16.015800   49.899900
  H     48.727600   15.573900   50.170300
  H     48.040900   16.587900   51.310600
  H     40.673200   13.033500   48.734200
  H     45.483700   10.552100   54.927300

 Total Charge           Charge          ....    0
 Multiplicity           Mult            ....    1
 Number of Electrons    NEL             ....  134
 Basis Dimension        Dim             ....  322

ORBITAL ENERGIES
----------------

  NO   OCC          E(Eh)            E(eV)
   0   2.0000     -88.966317     -2420.8966
   1   2.0000     -88.962042     -2420.7802
   2   2.0000     -10.337264      -281.2913
   3   2.0000     -10.336253      -281.2637
   4   2.0000     -10.321125      -280.8521
   5   2.0000     -10.320084      -280.8238
   6   2.0000     -10.309178      -280.5270
   7   2.0000     -10.306706      -280.4597
   8   2.0000     -10.303634      -280.3761
   9   2.0000     -10.298176      -280.2276
  10   2.0000     -10.292045      -280.0608
  11   2.0000     -10.291185      -280.0374
  12   2.0000     -10.289180      -279.9828
  13   2.0000     -10.288255      -279.9576
  14   2.0000     -10.282782      -279.8087
  15   2.0000     -10.282641      -279.8049
  16   2.0000      -8.080951      -219.8939
  17   2.0000      -8.075932      -219.7573
  18   2.0000      -6.039619      -164.3464
  19   2.0000      -6.035412      -164.2319
  20   2.0000      -6.034552      -164.2085
  21   2.0000      -6.031576      -164.1275
  22   2.0000      -6.030604      -164.1011
  23   2.0000      -6.026562      -163.9911
  24   2.0000      -1.003648       -27.3106
  25   2.0000      -0.980226       -26.6733
  26   2.0000      -0.914123       -24.8746
  27   2.0000      -0.910043       -24.7635
  28   2.0000      -0.872501       -23.7420
  29   2.0000      -0.850441       -23.1417
  30   2.0000      -0.842570       -22.9275
  31   2.0000      -0.816339       -22.2137
  32   2.0000      -0.785392       -21.3716
  33   2.0000      -0.773655       -21.0522
  34   2.0000      -0.714520       -19.4431
  35   2.0000      -0.702941       -19.1280
  36   2.0000      -0.694399       -18.8956
  37   2.0000      -0.658594       -17.9213
  38   2.0000      -0.634694       -17.2709
  39   2.0000      -0.621167       -16.9028
  40   2.0000      -0.600802       -16.3487
  41   2.0000      -0.572011       -15.5652
  42   2.0000      -0.565051       -15.3758
  43   2.0000      -0.557318       -15.1654
  44   2.0000      -0.527947       -14.3662
  45   2.0000      -0.527024       -14.3410
  46   2.0000      -0.520610       -14.1665
  47   2.0000      -0.514300       -13.9948
  48   2.0000      -0.504930       -13.7398
  49   2.0000      -0.500840       -13.6285
  50   2.0000      -0.490772       -13.3546
  51   2.0000      -0.485838       -13.2203
  52   2.0000      -0.474889       -12.9224
  53   2.0000      -0.473291       -12.8789
  54   2.0000      -0.458795       -12.4844
  55   2.0000      -0.450028       -12.2459
  56   2.0000      -0.439072       -11.9478
  57   2.0000      -0.437424       -11.9029
  58   2.0000      -0.428848       -11.6695
  59   2.0000      -0.425577       -11.5805
  60   2.0000      -0.421089       -11.4584
  61   2.0000      -0.413627       -11.2554
  62   2.0000      -0.407824       -11.0975
  63   2.0000      -0.361742        -9.8435
  64   2.0000      -0.332599        -9.0505
  65   2.0000      -0.327535        -8.9127
  66   2.0000      -0.283380        -7.7112
  67   0.0000       0.015337         0.4173
  68   0.0000       0.076349         2.0776
  69   0.0000       0.105311         2.8657
  70   0.0000       0.117841         3.2066
  71   0.0000       0.122451         3.3321

MULLIKEN ATOMIC CHARGES
-----------------------
   0 S :    0.098961
   1 C :   -0.137232
   2 C :   -0.075344
   3 C :   -0.008185
   4 C :   -0.120179
   5 H :    0.029835
   6 C :    0.064594
   7 H :    0.015116
   8 H :    0.029924
   9 C :   -0.087082
  10 H :    0.027152
  11 H :    0.031111
  12 C :   -0.060201
  13 H :    0.023719
  14 H :    0.038543
  15 H :    0.029866
  16 S :    0.070071
  17 C :   -0.102677
  18 C :   -0.025084
  19 C :   -0.058601
  20 C :   -0.121296
  21 H :    0.033153
  22 C :    0.091892
  23 H :    0.024912
  24 H :    0.013232
  25 C :   -0.080685
  26 H :    0.036687
  27 H :    0.013433
  28 C :   -0.040228
  29 H :    0.031859
  30 H :    0.026465
  31 H :    0.036494
  32 H :    0.078918
  33 H :    0.070858
Sum of atomic charges:   -0.0000000

LOEWDIN ATOMIC CHARGES
----------------------
   0 S :    0.405785
   1 C :   -0.210558
   2 C :   -0.064415
   3 C :   -0.075214
   4 C :   -0.184451
   5 H :    0.038584
   6 C :   -0.038117
   7 H :    0.033543
   8 H :    0.030965
   9 C :   -0.043593
  10 H :    0.025344
  11 H :    0.022126
  12 C :   -0.068006
  13 H :    0.025235
  14 H :    0.023925
  15 H :    0.027933
  16 S :    0.359292
  17 C :   -0.170808
  18 C :   -0.078531
  19 C :   -0.053189
  20 C :   -0.175239
  21 H :    0.039947
  22 C :   -0.032336
  23 H :    0.032990
  24 H :    0.028269
  25 C :   -0.039268
  26 H :    0.030792
  27 H :    0.015558
  28 C :   -0.065759
  29 H :    0.024210
  30 H :    0.021106
  31 H :    0.029043
  32 H :    0.050039
  33 H :    0.034798

  Mayer bond orders larger than 0.100000
B(  0-S ,  1-C ) :   1.1228 B(  0-S ,  4-C ) :   1.1528 B(  1-C ,  2-C ) :   1.6194
B(  1-C , 32-H ) :   0.9558 B(  2-C ,  3-C ) :   1.2352 B(  2-C ,  6-C ) :   1.0464
B(  3-C ,  4-C ) :   1.5430 B(  3-C ,  5-H ) :   0.9755 B(  4-C , 20-C ) :   1.0914
B(  6-C ,  7-H ) :   0.9430 B(  6-C ,  8-H ) :   0.9274 B(  6-C ,  9-C ) :   1.0538
B(  9-C , 10-H ) :   0.9584 B(  9-C , 11-H ) :   0.9521 B(  9-C , 12-C ) :   1.0822
B( 12-C , 13-H ) :   0.9732 B( 12-C , 14-H ) :   0.9774 B( 12-C , 15-H ) :   0.9718
B( 16-S , 17-C ) :   1.1290 B( 16-S , 20-C ) :   1.1325 B( 17-C , 18-C ) :   1.6168
B( 17-C , 20-C ) :   0.1033 B( 17-C , 33-H ) :   0.9705 B( 18-C , 19-C ) :   1.2401
B( 18-C , 21-H ) :   0.9818 B( 19-C , 20-C ) :   1.5657 B( 19-C , 22-C ) :   1.0442
B( 22-C , 23-H ) :   0.9339 B( 22-C , 24-H ) :   0.9343 B( 22-C , 25-C ) :   1.0474
B( 25-C , 26-H ) :   0.9525 B( 25-C , 27-H ) :   0.9565 B( 25-C , 28-C ) :   1.0793
B( 28-C , 29-H ) :   0.9772 B( 28-C , 30-H ) :   0.9744 B( 28-C , 31-H ) :   0.9745

Dispersion correction           -0.014036244
FINAL SINGLE POINT ENERGY     -1339.876168228271

DIPOLE MOMENT
-------------
                                X             Y             Z
Electronic contribution:    -13.05401     -24.89914      18.97403
Nuclear contribution   :     13.50321      25.46616     -19.21224
                        -----------------------------------------
Total Dipole Moment    :      0.44920       0.56702      -0.23821
                        -----------------------------------------
Magnitude (a.u.)       :      0.76160
Magnitude (Debye)      :      1.93584

Rotational constants in cm-1:     0.017893     0.009184     0.006245
Rotational constants in MHz :   536.429535   275.327267   187.216064

                             ****ORCA TERMINATED NORMALLY****
TOTAL RUN TIME: 0 days 0 hours 0 minutes 35 seconds 563 msec
