                         Program Version 4.2.1 -  RELEASE  -
|  1> ! wB97X-D3 SP def2-SVP
|  2> %pal
|  3> nprocs 16
|  4> end
|  5>
|  6> * xyz 0 1
|  7> S 	 -5.36296 	 11.6201 	 80.0961
|  8> C 	 -6.83975 	 10.7496 	 80.052
|  9> C 	 -7.9834 	 11.4266 	 80.3834
| 10> C 	 -7.57353 	 12.7008 	 80.8229
| 11> C 	 -6.27819 	 12.9545 	 80.7726
| 12> H 	 -8.2232 	 13.5097 	 81.1817
| 13> C 	 -9.35451 	 10.8288 	 80.1555
| 14> H 	 -9.91174 	 11.1262 	 80.9924
| 15> H 	 -9.30422 	 9.7031 	 80.189
| 16> C 	 -9.98918 	 11.1807 	 78.8807
| 17> H 	 -10.9828 	 10.8149 	 78.8684
| 18> H 	 -9.90932 	 12.293 	 78.7045
| 19> C 	 -9.31347 	 10.553 	 77.6877
| 20> H 	 -8.30553 	 10.8933 	 77.6785
| 21> H 	 -9.27258 	 9.4304 	 77.6635
| 22> H 	 -9.76325 	 10.7665 	 76.7054
| 23> S 	 -4.32691 	 14.2355 	 82.1895
| 24> C 	 -4.25883 	 15.9693 	 82.0857
| 25> C 	 -5.16158 	 16.5516 	 81.2471
| 26> C 	 -6.07411 	 15.5712 	 80.7414
| 27> C 	 -5.71552 	 14.2532 	 81.087
| 28> H 	 -5.0051 	 17.6274 	 81.1509
| 29> C 	 -7.22699 	 15.936 	 79.8153
| 30> H 	 -7.46615 	 17.0219 	 80.0821
| 31> H 	 -8.05791 	 15.3295 	 80.097
| 32> C 	 -6.88979 	 15.9348 	 78.341
| 33> H 	 -6.41759 	 14.9697 	 78.0925
| 34> H 	 -6.14493 	 16.753 	 78.2178
| 35> C 	 -8.07488 	 16.0047 	 77.4633
| 36> H 	 -8.74433 	 16.7787 	 77.7086
| 37> H 	 -8.65639 	 15.081 	 77.6757
| 38> H 	 -7.8192 	 15.9897 	 76.5177
| 39> H 	 -6.9294 	 9.72658 	 79.6583
| 40> H 	 -3.52729 	 16.5065 	 82.6561
| 41> *
| 42>
| 43>                          ****END OF INPUT****

CARTESIAN COORDINATES (ANGSTROEM)
---------------------------------
  S     -5.362960   11.620100   80.096100
  C     -6.839750   10.749600   80.052000
  C     -7.983400   11.426600   80.383400
  C     -7.573530   12.700800   80.822900
  C     -6.278190   12.954500   80.772600
  H     -8.223200   13.509700   81.181700
  C     -9.354510   10.828800   80.155500
  H     -9.911740   11.126200   80.992400
  H     -9.304220    9.703100   80.189000
  C     -9.989180   11.180700   78.880700
  H    -10.982800   10.814900   78.868400
  H     -9.909320   12.293000   78.704500
  C     -9.313470   10.553000   77.687700
  H     -8.305530   10.893300   77.678500
  H     -9.272580    9.430400   77.663500
  H     -9.763250   10.766500   76.705400
  S     -4.326910   14.235500   82.189500
  C     -4.258830   15.969300   82.085700
  C     -5.161580   16.551600   81.247100
  C     -6.074110   15.571200   80.741400
  C     -5.715520   14.253200   81.087000
  H     -5.005100   17.627400   81.150900
  C     -7.226990   15.936000   79.815300
  H     -7.466150   17.021900   80.082100
  H     -8.057910   15.329500   80.097000
  C     -6.889790   15.934800   78.341000
  H     -6.417590   14.969700   78.092500
  H     -6.144930   16.753000   78.217800
  C     -8.074880   16.004700   77.463300
  H     -8.744330   16.778700   77.708600
  H     -8.656390   15.081000   77.675700
  H     -7.819200   15.989700   76.517700
  H     -6.929400    9.726580   79.658300
  H     -3.527290   16.506500   82.656100

 Total Charge           Charge          ....    0
 Multiplicity           Mult            ....    1
 Number of Electrons    NEL             ....  134
 Basis Dimension        Dim             ....  322

ORBITAL ENERGIES
----------------

  NO   OCC          E(Eh)            E(eV)
   0   2.0000     -88.968238     -2420.9488
   1   2.0000     -88.962008     -2420.7793
   2   2.0000     -10.325315      -280.9661
   3   2.0000     -10.318841      -280.7899
   4   2.0000     -10.310649      -280.5670
   5   2.0000     -10.308626      -280.5120
   6   2.0000     -10.307629      -280.4848
   7   2.0000     -10.295818      -280.1634
   8   2.0000     -10.293684      -280.1054
   9   2.0000     -10.290909      -280.0299
  10   2.0000     -10.290067      -280.0070
  11   2.0000     -10.287098      -279.9262
  12   2.0000     -10.284157      -279.8461
  13   2.0000     -10.281030      -279.7610
  14   2.0000     -10.274329      -279.5787
  15   2.0000     -10.260806      -279.2107
  16   2.0000      -8.083721      -219.9692
  17   2.0000      -8.077021      -219.7869
  18   2.0000      -6.042041      -164.4123
  19   2.0000      -6.038446      -164.3145
  20   2.0000      -6.035308      -164.2291
  21   2.0000      -6.034306      -164.2018
  22   2.0000      -6.031580      -164.1276
  23   2.0000      -6.027934      -164.0284
  24   2.0000      -1.014580       -27.6081
  25   2.0000      -0.987128       -26.8611
  26   2.0000      -0.926898       -25.2222
  27   2.0000      -0.916413       -24.9369
  28   2.0000      -0.873051       -23.7569
  29   2.0000      -0.859284       -23.3823
  30   2.0000      -0.852166       -23.1886
  31   2.0000      -0.818178       -22.2638
  32   2.0000      -0.789647       -21.4874
  33   2.0000      -0.774233       -21.0680
  34   2.0000      -0.708658       -19.2836
  35   2.0000      -0.693644       -18.8750
  36   2.0000      -0.689381       -18.7590
  37   2.0000      -0.659549       -17.9472
  38   2.0000      -0.641392       -17.4532
  39   2.0000      -0.625833       -17.0298
  40   2.0000      -0.596490       -16.2313
  41   2.0000      -0.581858       -15.8332
  42   2.0000      -0.572206       -15.5705
  43   2.0000      -0.554795       -15.0967
  44   2.0000      -0.551830       -15.0161
  45   2.0000      -0.538024       -14.6404
  46   2.0000      -0.517064       -14.0700
  47   2.0000      -0.514786       -14.0080
  48   2.0000      -0.503140       -13.6911
  49   2.0000      -0.489371       -13.3165
  50   2.0000      -0.483925       -13.1683
  51   2.0000      -0.481240       -13.0952
  52   2.0000      -0.471823       -12.8390
  53   2.0000      -0.465150       -12.6574
  54   2.0000      -0.462005       -12.5718
  55   2.0000      -0.450073       -12.2471
  56   2.0000      -0.446030       -12.1371
  57   2.0000      -0.441203       -12.0057
  58   2.0000      -0.436485       -11.8774
  59   2.0000      -0.426152       -11.5962
  60   2.0000      -0.423949       -11.5362
  61   2.0000      -0.415462       -11.3053
  62   2.0000      -0.409133       -11.1331
  63   2.0000      -0.350460        -9.5365
  64   2.0000      -0.335582        -9.1317
  65   2.0000      -0.331690        -9.0257
  66   2.0000      -0.289749        -7.8845
  67   0.0000       0.035339         0.9616
  68   0.0000       0.072345         1.9686
  69   0.0000       0.112005         3.0478
  70   0.0000       0.115360         3.1391
  71   0.0000       0.129792         3.5318

MULLIKEN ATOMIC CHARGES
-----------------------
   0 S :    0.129569
   1 C :   -0.119118
   2 C :   -0.104305
   3 C :   -0.025054
   4 C :   -0.113290
   5 H :    0.018580
   6 C :    0.105446
   7 H :    0.013573
   8 H :    0.025155
   9 C :   -0.024674
  10 H :    0.026363
  11 H :    0.037675
  12 C :   -0.084543
  13 H :    0.031692
  14 H :    0.021477
  15 H :    0.034022
  16 S :    0.097988
  17 C :   -0.093188
  18 C :   -0.042043
  19 C :   -0.026983
  20 C :   -0.179595
  21 H :    0.027361
  22 C :    0.064072
  23 H :    0.024735
  24 H :   -0.000665
  25 C :   -0.083266
  26 H :    0.031478
  27 H :    0.027214
  28 C :    0.060623
  29 H :    0.010722
  30 H :    0.017706
  31 H :    0.001395
  32 H :    0.044693
  33 H :    0.045184
Sum of atomic charges:   -0.0000000

LOEWDIN ATOMIC CHARGES
----------------------
   0 S :    0.411899
   1 C :   -0.198632
   2 C :   -0.067349
   3 C :   -0.064195
   4 C :   -0.201271
   5 H :    0.034731
   6 C :   -0.026223
   7 H :    0.024784
   8 H :    0.038218
   9 C :   -0.040310
  10 H :    0.022328
  11 H :    0.032868
  12 C :   -0.071190
  13 H :    0.019369
  14 H :    0.024002
  15 H :    0.027538
  16 S :    0.394750
  17 C :   -0.178172
  18 C :   -0.079070
  19 C :   -0.048392
  20 C :   -0.190446
  21 H :    0.041469
  22 C :   -0.032531
  23 H :    0.036551
  24 H :    0.017406
  25 C :   -0.039949
  26 H :    0.028278
  27 H :    0.025379
  28 C :   -0.045722
  29 H :    0.018239
  30 H :    0.032952
  31 H :    0.005812
  32 H :    0.026353
  33 H :    0.020523

  Mayer bond orders larger than 0.100000
B(  0-S ,  1-C ) :   1.1430 B(  0-S ,  4-C ) :   1.1231 B(  1-C ,  2-C ) :   1.6397
B(  1-C , 32-H ) :   0.9524 B(  2-C ,  3-C ) :   1.2186 B(  2-C ,  6-C ) :   1.0171
B(  3-C ,  4-C ) :   1.6244 B(  3-C ,  5-H ) :   0.9968 B(  4-C , 20-C ) :   1.0351
B(  6-C ,  7-H ) :   0.9250 B(  6-C ,  8-H ) :   0.9353 B(  6-C ,  9-C ) :   1.0862
B(  9-C , 10-H ) :   0.9492 B(  9-C , 11-H ) :   0.9501 B(  9-C , 12-C ) :   1.0777
B( 12-C , 13-H ) :   0.9740 B( 12-C , 14-H ) :   0.9715 B( 12-C , 15-H ) :   0.9721
B( 16-S , 17-C ) :   1.1602 B( 16-S , 20-C ) :   1.1390 B( 17-C , 18-C ) :   1.6385
B( 17-C , 20-C ) :   0.1006 B( 17-C , 33-H ) :   0.9650 B( 18-C , 19-C ) :   1.2060
B( 18-C , 21-H ) :   0.9931 B( 19-C , 20-C ) :   1.6027 B( 19-C , 22-C ) :   1.0417
B( 22-C , 23-H ) :   0.9264 B( 22-C , 24-H ) :   0.9329 B( 22-C , 25-C ) :   1.0725
B( 25-C , 26-H ) :   0.9563 B( 25-C , 27-H ) :   0.9494 B( 25-C , 28-C ) :   1.0914
B( 28-C , 29-H ) :   0.9685 B( 28-C , 30-H ) :   0.9674 B( 28-C , 31-H ) :   0.9658

Dispersion correction           -0.015086905
FINAL SINGLE POINT ENERGY     -1339.865312879198

DIPOLE MOMENT
-------------
                                X             Y             Z
Electronic contribution:     22.73378      -2.12728      18.37798
Nuclear contribution   :    -23.25627       2.34529     -18.68195
                        -----------------------------------------
Total Dipole Moment    :     -0.52249       0.21801      -0.30397
                        -----------------------------------------
Magnitude (a.u.)       :      0.64259
Magnitude (Debye)      :      1.63334

Rotational constants in cm-1:     0.019506     0.009704     0.007289
Rotational constants in MHz :   584.771967   290.929373   218.522705

                             ****ORCA TERMINATED NORMALLY****
TOTAL RUN TIME: 0 days 0 hours 0 minutes 37 seconds 513 msec
