                         Program Version 4.2.1 -  RELEASE  -
|  1> ! wB97X-D3 SP def2-SVP
|  2> %pal
|  3> nprocs 16
|  4> end
|  5>
|  6> * xyz 0 1
|  7> S 	 -14.1372 	 38.4156 	 37.5333
|  8> C 	 -14.3089 	 38.2936 	 39.2804
|  9> C 	 -13.9785 	 37.0441 	 39.7538
| 10> C 	 -14.0124 	 36.125 	 38.6368
| 11> C 	 -14.3432 	 36.6575 	 37.3732
| 12> H 	 -13.8406 	 35.0571 	 38.6517
| 13> C 	 -13.789 	 36.6996 	 41.2084
| 14> H 	 -14.3244 	 35.7176 	 41.4462
| 15> H 	 -14.3854 	 37.4035 	 41.8022
| 16> C 	 -12.3505 	 36.7273 	 41.6954
| 17> H 	 -11.8768 	 37.7164 	 41.3557
| 18> H 	 -12.4064 	 36.6497 	 42.8004
| 19> C 	 -11.6184 	 35.5876 	 40.9964
| 20> H 	 -11.9374 	 34.627 	 41.4524
| 21> H 	 -11.6763 	 35.3639 	 39.9367
| 22> H 	 -10.5879 	 35.7118 	 41.3066
| 23> S 	 -12.9364 	 35.6165 	 35.3243
| 24> C 	 -13.6544 	 34.5593 	 34.2033
| 25> C 	 -15.0238 	 34.3836 	 34.4588
| 26> C 	 -15.4853 	 35.1385 	 35.5772
| 27> C 	 -14.4777 	 35.8261 	 36.1728
| 28> H 	 -15.7084 	 33.7269 	 33.9559
| 29> C 	 -16.8992 	 34.887 	 36.048
| 30> H 	 -17.4258 	 34.8205 	 35.0976
| 31> H 	 -17.2747 	 35.7239 	 36.6952
| 32> C 	 -17.1593 	 33.4828 	 36.5632
| 33> H 	 -16.67 	 33.2853 	 37.4723
| 34> H 	 -16.7776 	 32.7138 	 35.8167
| 35> C 	 -18.697 	 33.3094 	 36.6996
| 36> H 	 -19.1373 	 32.3868 	 36.4984
| 37> H 	 -19.3446 	 34.0075 	 36.2717
| 38> H 	 -18.8401 	 33.3628 	 37.7563
| 39> H 	 -14.4012 	 39.1787 	 39.8454
| 40> H 	 -13.2279 	 34.1055 	 33.3606
| 41> *
| 42>
| 43>                          ****END OF INPUT****

CARTESIAN COORDINATES (ANGSTROEM)
---------------------------------
  S    -14.137200   38.415600   37.533300
  C    -14.308900   38.293600   39.280400
  C    -13.978500   37.044100   39.753800
  C    -14.012400   36.125000   38.636800
  C    -14.343200   36.657500   37.373200
  H    -13.840600   35.057100   38.651700
  C    -13.789000   36.699600   41.208400
  H    -14.324400   35.717600   41.446200
  H    -14.385400   37.403500   41.802200
  C    -12.350500   36.727300   41.695400
  H    -11.876800   37.716400   41.355700
  H    -12.406400   36.649700   42.800400
  C    -11.618400   35.587600   40.996400
  H    -11.937400   34.627000   41.452400
  H    -11.676300   35.363900   39.936700
  H    -10.587900   35.711800   41.306600
  S    -12.936400   35.616500   35.324300
  C    -13.654400   34.559300   34.203300
  C    -15.023800   34.383600   34.458800
  C    -15.485300   35.138500   35.577200
  C    -14.477700   35.826100   36.172800
  H    -15.708400   33.726900   33.955900
  C    -16.899200   34.887000   36.048000
  H    -17.425800   34.820500   35.097600
  H    -17.274700   35.723900   36.695200
  C    -17.159300   33.482800   36.563200
  H    -16.670000   33.285300   37.472300
  H    -16.777600   32.713800   35.816700
  C    -18.697000   33.309400   36.699600
  H    -19.137300   32.386800   36.498400
  H    -19.344600   34.007500   36.271700
  H    -18.840100   33.362800   37.756300
  H    -14.401200   39.178700   39.845400
  H    -13.227900   34.105500   33.360600

 Total Charge           Charge          ....    0
 Multiplicity           Mult            ....    1
 Number of Electrons    NEL             ....  134
 Basis Dimension        Dim             ....  322

ORBITAL ENERGIES
----------------

  NO   OCC          E(Eh)            E(eV)
   0   2.0000     -88.963724     -2420.8260
   1   2.0000     -88.961496     -2420.7654
   2   2.0000     -10.329298      -281.0745
   3   2.0000     -10.322733      -280.8959
   4   2.0000     -10.312994      -280.6308
   5   2.0000     -10.312210      -280.6095
   6   2.0000     -10.303639      -280.3763
   7   2.0000     -10.297855      -280.2189
   8   2.0000     -10.297070      -280.1975
   9   2.0000     -10.296333      -280.1775
  10   2.0000     -10.295865      -280.1647
  11   2.0000     -10.292997      -280.0867
  12   2.0000     -10.290174      -280.0099
  13   2.0000     -10.290023      -280.0058
  14   2.0000     -10.275609      -279.6135
  15   2.0000     -10.264695      -279.3166
  16   2.0000      -8.079141      -219.8446
  17   2.0000      -8.075884      -219.7560
  18   2.0000      -6.037633      -164.2923
  19   2.0000      -6.034434      -164.2053
  20   2.0000      -6.033463      -164.1789
  21   2.0000      -6.030810      -164.1067
  22   2.0000      -6.029967      -164.0837
  23   2.0000      -6.026243      -163.9824
  24   2.0000      -1.004912       -27.3451
  25   2.0000      -0.983325       -26.7576
  26   2.0000      -0.916194       -24.9309
  27   2.0000      -0.913764       -24.8648
  28   2.0000      -0.867201       -23.5977
  29   2.0000      -0.855023       -23.2664
  30   2.0000      -0.839770       -22.8513
  31   2.0000      -0.808300       -21.9950
  32   2.0000      -0.785056       -21.3625
  33   2.0000      -0.774420       -21.0730
  34   2.0000      -0.708656       -19.2835
  35   2.0000      -0.696904       -18.9637
  36   2.0000      -0.694833       -18.9074
  37   2.0000      -0.670284       -18.2393
  38   2.0000      -0.643575       -17.5126
  39   2.0000      -0.609380       -16.5821
  40   2.0000      -0.597102       -16.2480
  41   2.0000      -0.574027       -15.6201
  42   2.0000      -0.567363       -15.4387
  43   2.0000      -0.545548       -14.8451
  44   2.0000      -0.538553       -14.6548
  45   2.0000      -0.521163       -14.1816
  46   2.0000      -0.518111       -14.0985
  47   2.0000      -0.516543       -14.0558
  48   2.0000      -0.509636       -13.8679
  49   2.0000      -0.498630       -13.5684
  50   2.0000      -0.495907       -13.4943
  51   2.0000      -0.476308       -12.9610
  52   2.0000      -0.465985       -12.6801
  53   2.0000      -0.461088       -12.5469
  54   2.0000      -0.456675       -12.4267
  55   2.0000      -0.452466       -12.3122
  56   2.0000      -0.446276       -12.1438
  57   2.0000      -0.438919       -11.9436
  58   2.0000      -0.429591       -11.6898
  59   2.0000      -0.426659       -11.6100
  60   2.0000      -0.420792       -11.4503
  61   2.0000      -0.411866       -11.2074
  62   2.0000      -0.407181       -11.0800
  63   2.0000      -0.331239        -9.0135
  64   2.0000      -0.322957        -8.7881
  65   2.0000      -0.319661        -8.6984
  66   2.0000      -0.307215        -8.3597
  67   0.0000       0.037375         1.0170
  68   0.0000       0.051340         1.3970
  69   0.0000       0.108168         2.9434
  70   0.0000       0.122844         3.3428
  71   0.0000       0.125085         3.4037

MULLIKEN ATOMIC CHARGES
-----------------------
   0 S :    0.102594
   1 C :   -0.112809
   2 C :   -0.047216
   3 C :    0.021458
   4 C :   -0.156587
   5 H :    0.013511
   6 C :    0.026928
   7 H :    0.036926
   8 H :    0.018345
   9 C :   -0.060013
  10 H :    0.043889
  11 H :    0.047750
  12 C :   -0.063392
  13 H :    0.017275
  14 H :    0.052310
  15 H :    0.031284
  16 S :    0.118265
  17 C :   -0.048215
  18 C :   -0.067324
  19 C :    0.013176
  20 C :   -0.228100
  21 H :    0.009854
  22 C :    0.055052
  23 H :    0.020141
  24 H :    0.053017
  25 C :   -0.075086
  26 H :    0.024555
  27 H :    0.035374
  28 C :   -0.001217
  29 H :    0.011269
  30 H :    0.020009
  31 H :    0.016021
  32 H :    0.033820
  33 H :    0.037139
Sum of atomic charges:   -0.0000000

LOEWDIN ATOMIC CHARGES
----------------------
   0 S :    0.379579
   1 C :   -0.170919
   2 C :   -0.064406
   3 C :   -0.054793
   4 C :   -0.203658
   5 H :    0.025442
   6 C :   -0.042750
   7 H :    0.035309
   8 H :    0.027961
   9 C :   -0.039929
  10 H :    0.033385
  11 H :    0.032868
  12 C :   -0.073579
  13 H :    0.026372
  14 H :    0.029991
  15 H :    0.025487
  16 S :    0.421295
  17 C :   -0.190291
  18 C :   -0.071364
  19 C :   -0.053932
  20 C :   -0.197856
  21 H :    0.024558
  22 C :   -0.030788
  23 H :    0.034908
  24 H :    0.039751
  25 C :   -0.027845
  26 H :    0.015251
  27 H :    0.029491
  28 C :   -0.063977
  29 H :    0.018765
  30 H :    0.019201
  31 H :    0.029755
  32 H :    0.016146
  33 H :    0.020572

  Mayer bond orders larger than 0.100000
B(  0-S ,  1-C ) :   1.1505 B(  0-S ,  4-C ) :   1.1215 B(  1-C ,  2-C ) :   1.6038
B(  1-C ,  4-C ) :   0.1000 B(  1-C , 32-H ) :   0.9749 B(  2-C ,  3-C ) :   1.2142
B(  2-C ,  6-C ) :   1.0225 B(  3-C ,  4-C ) :   1.5913 B(  3-C ,  5-H ) :   0.9904
B(  4-C , 20-C ) :   1.0334 B(  6-C ,  7-H ) :   0.9456 B(  6-C ,  8-H ) :   0.9384
B(  6-C ,  9-C ) :   1.0675 B(  9-C , 10-H ) :   0.9535 B(  9-C , 11-H ) :   0.9527
B(  9-C , 12-C ) :   1.0681 B( 12-C , 13-H ) :   0.9716 B( 12-C , 14-H ) :   0.9759
B( 12-C , 15-H ) :   0.9736 B( 16-S , 17-C ) :   1.1678 B( 16-S , 20-C ) :   1.1366
B( 17-C , 18-C ) :   1.5919 B( 17-C , 33-H ) :   0.9729 B( 18-C , 19-C ) :   1.2382
B( 18-C , 21-H ) :   0.9861 B( 19-C , 20-C ) :   1.6384 B( 19-C , 22-C ) :   1.0466
B( 22-C , 23-H ) :   0.9243 B( 22-C , 24-H ) :   0.9393 B( 22-C , 25-C ) :   1.0652
B( 25-C , 26-H ) :   0.9639 B( 25-C , 27-H ) :   0.9556 B( 25-C , 28-C ) :   1.0551
B( 28-C , 29-H ) :   0.9745 B( 28-C , 30-H ) :   0.9780 B( 28-C , 31-H ) :   0.9739

Dispersion correction           -0.014000026
FINAL SINGLE POINT ENERGY     -1339.843125927228

DIPOLE MOMENT
-------------
                                X             Y             Z
Electronic contribution:      9.39857      14.00453     -15.66213
Nuclear contribution   :     -9.64522     -14.48736      16.09908
                        -----------------------------------------
Total Dipole Moment    :     -0.24665      -0.48283       0.43695
                        -----------------------------------------
Magnitude (a.u.)       :      0.69634
Magnitude (Debye)      :      1.76995

Rotational constants in cm-1:     0.017983     0.008182     0.007139
Rotational constants in MHz :   539.102235   245.302603   214.015974

                             ****ORCA TERMINATED NORMALLY****
TOTAL RUN TIME: 0 days 0 hours 0 minutes 35 seconds 570 msec
