                         Program Version 4.2.1 -  RELEASE  -
|  1> ! wB97X-D3 SP def2-SVP
|  2> %pal
|  3> nprocs 16
|  4> end
|  5>
|  6> * xyz 0 1
|  7> S 	 32.1109 	 18.9755 	 69.8673
|  8> C 	 31.8599 	 17.3298 	 70.5041
|  9> C 	 32.2096 	 17.2808 	 71.8567
| 10> C 	 32.8547 	 18.4947 	 72.2588
| 11> C 	 32.9536 	 19.4963 	 71.2535
| 12> H 	 33.3053 	 18.6082 	 73.257
| 13> C 	 31.9488 	 16.0796 	 72.8143
| 14> H 	 31.574 	 16.4228 	 73.8045
| 15> H 	 32.9371 	 15.7218 	 73.1862
| 16> C 	 31.1418 	 14.8491 	 72.4232
| 17> H 	 30.0846 	 15.1824 	 72.3119
| 18> H 	 31.426 	 14.6277 	 71.3833
| 19> C 	 31.2361 	 13.7911 	 73.5125
| 20> H 	 30.9556 	 12.853 	 73.112
| 21> H 	 32.2952 	 13.769 	 73.8671
| 22> H 	 30.5806 	 13.9852 	 74.4016
| 23> S 	 32.378 	 22.133 	 71.0132
| 24> C 	 33.5812 	 23.3225 	 71.4736
| 25> C 	 34.7667 	 22.7397 	 71.8257
| 26> C 	 34.733 	 21.3618 	 71.8732
| 27> C 	 33.5287 	 20.8773 	 71.3879
| 28> H 	 35.5775 	 23.3592 	 71.922
| 29> C 	 35.9181 	 20.5576 	 72.3838
| 30> H 	 35.5451 	 19.6978 	 72.9379
| 31> H 	 36.3338 	 21.1285 	 73.241
| 32> C 	 37.0414 	 20.218 	 71.3276
| 33> H 	 36.5145 	 19.7873 	 70.4693
| 34> H 	 37.5391 	 19.3623 	 71.7046
| 35> C 	 38.0407 	 21.3043 	 70.9284
| 36> H 	 38.579 	 21.8004 	 71.7354
| 37> H 	 37.7102 	 22.0646 	 70.2728
| 38> H 	 38.8787 	 20.8806 	 70.3464
| 39> H 	 31.3827 	 16.4522 	 70.0076
| 40> H 	 33.5987 	 24.3473 	 71.1339
| 41> *
| 42>
| 43>                          ****END OF INPUT****

CARTESIAN COORDINATES (ANGSTROEM)
---------------------------------
  S     32.110900   18.975500   69.867300
  C     31.859900   17.329800   70.504100
  C     32.209600   17.280800   71.856700
  C     32.854700   18.494700   72.258800
  C     32.953600   19.496300   71.253500
  H     33.305300   18.608200   73.257000
  C     31.948800   16.079600   72.814300
  H     31.574000   16.422800   73.804500
  H     32.937100   15.721800   73.186200
  C     31.141800   14.849100   72.423200
  H     30.084600   15.182400   72.311900
  H     31.426000   14.627700   71.383300
  C     31.236100   13.791100   73.512500
  H     30.955600   12.853000   73.112000
  H     32.295200   13.769000   73.867100
  H     30.580600   13.985200   74.401600
  S     32.378000   22.133000   71.013200
  C     33.581200   23.322500   71.473600
  C     34.766700   22.739700   71.825700
  C     34.733000   21.361800   71.873200
  C     33.528700   20.877300   71.387900
  H     35.577500   23.359200   71.922000
  C     35.918100   20.557600   72.383800
  H     35.545100   19.697800   72.937900
  H     36.333800   21.128500   73.241000
  C     37.041400   20.218000   71.327600
  H     36.514500   19.787300   70.469300
  H     37.539100   19.362300   71.704600
  C     38.040700   21.304300   70.928400
  H     38.579000   21.800400   71.735400
  H     37.710200   22.064600   70.272800
  H     38.878700   20.880600   70.346400
  H     31.382700   16.452200   70.007600
  H     33.598700   24.347300   71.133900

 Total Charge           Charge          ....    0
 Multiplicity           Mult            ....    1
 Number of Electrons    NEL             ....  134
 Basis Dimension        Dim             ....  322

ORBITAL ENERGIES
----------------

  NO   OCC          E(Eh)            E(eV)
   0   2.0000     -88.969497     -2420.9831
   1   2.0000     -88.965717     -2420.8802
   2   2.0000     -10.333786      -281.1966
   3   2.0000     -10.329941      -281.0920
   4   2.0000     -10.319397      -280.8051
   5   2.0000     -10.308787      -280.5164
   6   2.0000     -10.308507      -280.5087
   7   2.0000     -10.299545      -280.2649
   8   2.0000     -10.298434      -280.2346
   9   2.0000     -10.298036      -280.2238
  10   2.0000     -10.294882      -280.1380
  11   2.0000     -10.293114      -280.0899
  12   2.0000     -10.288247      -279.9574
  13   2.0000     -10.287162      -279.9279
  14   2.0000     -10.280477      -279.7460
  15   2.0000     -10.277407      -279.6625
  16   2.0000      -8.084024      -219.9775
  17   2.0000      -8.080627      -219.8850
  18   2.0000      -6.042578      -164.4269
  19   2.0000      -6.039108      -164.3325
  20   2.0000      -6.038482      -164.3155
  21   2.0000      -6.035147      -164.2247
  22   2.0000      -6.034821      -164.2158
  23   2.0000      -6.031357      -164.1216
  24   2.0000      -1.007726       -27.4216
  25   2.0000      -0.984641       -26.7934
  26   2.0000      -0.913682       -24.8626
  27   2.0000      -0.901863       -24.5409
  28   2.0000      -0.869104       -23.6495
  29   2.0000      -0.851576       -23.1726
  30   2.0000      -0.844523       -22.9806
  31   2.0000      -0.809716       -22.0335
  32   2.0000      -0.784935       -21.3592
  33   2.0000      -0.775189       -21.0940
  34   2.0000      -0.712758       -19.3951
  35   2.0000      -0.707466       -19.2511
  36   2.0000      -0.689361       -18.7585
  37   2.0000      -0.665628       -18.1126
  38   2.0000      -0.631633       -17.1876
  39   2.0000      -0.613864       -16.7041
  40   2.0000      -0.594271       -16.1709
  41   2.0000      -0.575842       -15.6695
  42   2.0000      -0.562654       -15.3106
  43   2.0000      -0.540945       -14.7199
  44   2.0000      -0.539978       -14.6935
  45   2.0000      -0.523746       -14.2518
  46   2.0000      -0.517054       -14.0698
  47   2.0000      -0.510474       -13.8907
  48   2.0000      -0.500444       -13.6178
  49   2.0000      -0.493039       -13.4163
  50   2.0000      -0.486147       -13.2287
  51   2.0000      -0.480325       -13.0703
  52   2.0000      -0.475602       -12.9418
  53   2.0000      -0.474460       -12.9107
  54   2.0000      -0.457100       -12.4383
  55   2.0000      -0.449623       -12.2349
  56   2.0000      -0.445789       -12.1305
  57   2.0000      -0.435782       -11.8582
  58   2.0000      -0.433574       -11.7982
  59   2.0000      -0.426325       -11.6009
  60   2.0000      -0.422440       -11.4952
  61   2.0000      -0.418872       -11.3981
  62   2.0000      -0.412743       -11.2313
  63   2.0000      -0.343804        -9.3554
  64   2.0000      -0.332220        -9.0402
  65   2.0000      -0.327977        -8.9247
  66   2.0000      -0.292110        -7.9487
  67   0.0000       0.030023         0.8170
  68   0.0000       0.068722         1.8700
  69   0.0000       0.106900         2.9089
  70   0.0000       0.123737         3.3670
  71   0.0000       0.129589         3.5263

MULLIKEN ATOMIC CHARGES
-----------------------
   0 S :    0.117112
   1 C :   -0.155701
   2 C :   -0.051345
   3 C :    0.016182
   4 C :   -0.142675
   5 H :    0.018984
   6 C :    0.000207
   7 H :    0.025442
   8 H :    0.023055
   9 C :   -0.076683
  10 H :    0.036449
  11 H :    0.030487
  12 C :   -0.034859
  13 H :    0.030003
  14 H :    0.034213
  15 H :    0.048658
  16 S :    0.104891
  17 C :   -0.080465
  18 C :   -0.031423
  19 C :   -0.015322
  20 C :   -0.165680
  21 H :   -0.014094
  22 C :    0.059208
  23 H :    0.012198
  24 H :    0.021704
  25 C :   -0.020611
  26 H :    0.032559
  27 H :    0.018191
  28 C :   -0.041348
  29 H :    0.025110
  30 H :    0.028603
  31 H :    0.027327
  32 H :    0.063685
  33 H :    0.055941
Sum of atomic charges:    0.0000000

LOEWDIN ATOMIC CHARGES
----------------------
   0 S :    0.420301
   1 C :   -0.211364
   2 C :   -0.059039
   3 C :   -0.071457
   4 C :   -0.213955
   5 H :    0.030549
   6 C :   -0.043504
   7 H :    0.033322
   8 H :    0.029977
   9 C :   -0.050543
  10 H :    0.029548
  11 H :    0.022315
  12 C :   -0.059476
  13 H :    0.023100
  14 H :    0.029735
  15 H :    0.036232
  16 S :    0.409274
  17 C :   -0.190585
  18 C :   -0.056896
  19 C :   -0.062251
  20 C :   -0.190267
  21 H :    0.019566
  22 C :   -0.032367
  23 H :    0.029825
  24 H :    0.032777
  25 C :   -0.033759
  26 H :    0.032295
  27 H :    0.022410
  28 C :   -0.071649
  29 H :    0.025523
  30 H :    0.020380
  31 H :    0.034179
  32 H :    0.037225
  33 H :    0.028579

  Mayer bond orders larger than 0.100000
B(  0-S ,  1-C ) :   1.1321 B(  0-S ,  4-C ) :   1.1789 B(  1-C ,  2-C ) :   1.6007
B(  1-C ,  4-C ) :   0.1031 B(  1-C , 32-H ) :   0.9583 B(  2-C ,  3-C ) :   1.2807
B(  2-C ,  6-C ) :   0.9994 B(  3-C ,  4-C ) :   1.5320 B(  3-C ,  5-H ) :   0.9889
B(  4-C , 20-C ) :   0.9992 B(  6-C ,  7-H ) :   0.9443 B(  6-C ,  8-H ) :   0.9373
B(  6-C ,  9-C ) :   1.0643 B(  9-C , 10-H ) :   0.9515 B(  9-C , 11-H ) :   0.9525
B(  9-C , 12-C ) :   1.0740 B( 12-C , 13-H ) :   0.9722 B( 12-C , 14-H ) :   0.9769
B( 12-C , 15-H ) :   0.9727 B( 16-S , 17-C ) :   1.1446 B( 16-S , 20-C ) :   1.1662
B( 17-C , 18-C ) :   1.6263 B( 17-C , 20-C ) :   0.1059 B( 17-C , 33-H ) :   0.9566
B( 18-C , 19-C ) :   1.2521 B( 18-C , 21-H ) :   0.9990 B( 19-C , 20-C ) :   1.5967
B( 19-C , 22-C ) :   1.0332 B( 22-C , 23-H ) :   0.9323 B( 22-C , 24-H ) :   0.9375
B( 22-C , 25-C ) :   1.0610 B( 25-C , 26-H ) :   0.9546 B( 25-C , 27-H ) :   0.9559
B( 25-C , 28-C ) :   1.0792 B( 28-C , 29-H ) :   0.9739 B( 28-C , 30-H ) :   0.9753
B( 28-C , 31-H ) :   0.9693

Dispersion correction           -0.013525100
FINAL SINGLE POINT ENERGY     -1339.865102625680

DIPOLE MOMENT
-------------
                                X             Y             Z
Electronic contribution:    -13.07066      18.17227     -10.90753
Nuclear contribution   :     13.49791     -18.56327      11.26211
                        -----------------------------------------
Total Dipole Moment    :      0.42725      -0.39100       0.35459
                        -----------------------------------------
Magnitude (a.u.)       :      0.67909
Magnitude (Debye)      :      1.72610

Rotational constants in cm-1:     0.021794     0.006880     0.005885
Rotational constants in MHz :   653.369284   206.253950   176.437780

                             ****ORCA TERMINATED NORMALLY****
TOTAL RUN TIME: 0 days 0 hours 0 minutes 28 seconds 593 msec
