                         Program Version 4.2.1 -  RELEASE  -
|  1> ! wB97X-D3 SP def2-SVP
|  2> %pal
|  3> nprocs 16
|  4> end
|  5>
|  6> * xyz 0 1
|  7> S 	 4.94001 	 -22.2745 	 61.4114
|  8> C 	 6.13121 	 -21.0551 	 61.0132
|  9> C 	 5.48719 	 -19.8362 	 60.6291
| 10> C 	 4.05929 	 -19.932 	 60.678
| 11> C 	 3.59715 	 -21.1698 	 61.0185
| 12> H 	 3.37193 	 -19.1277 	 60.3008
| 13> C 	 6.11232 	 -18.5097 	 60.1372
| 14> H 	 5.36889 	 -17.9939 	 59.6168
| 15> H 	 6.83872 	 -18.7001 	 59.3302
| 16> C 	 6.80304 	 -17.6862 	 61.2993
| 17> H 	 7.32773 	 -16.8162 	 60.9556
| 18> H 	 6.07892 	 -17.3361 	 61.9546
| 19> C 	 7.77804 	 -18.4314 	 62.1912
| 20> H 	 8.67889 	 -18.8432 	 61.7012
| 21> H 	 8.27186 	 -17.7482 	 62.8146
| 22> H 	 7.35624 	 -19.2011 	 62.7564
| 23> S 	 1.86359 	 -22.7554 	 59.5205
| 24> C 	 0.189269 	 -22.6929 	 59.9298
| 25> C 	 -0.110345 	 -21.7728 	 60.8816
| 26> C 	 1.06609 	 -21.1141 	 61.2893
| 27> C 	 2.23315 	 -21.7058 	 60.8217
| 28> H 	 -1.0683 	 -21.4501 	 61.1269
| 29> C 	 1.04651 	 -20.0119 	 62.2817
| 30> H 	 0.552544 	 -19.1048 	 61.8542
| 31> H 	 2.04497 	 -19.6457 	 62.443
| 32> C 	 0.322668 	 -20.3244 	 63.6051
| 33> H 	 -0.696946 	 -20.5613 	 63.5656
| 34> H 	 0.215275 	 -19.3423 	 64.0083
| 35> C 	 1.12785 	 -21.2568 	 64.5532
| 36> H 	 2.16798 	 -20.9916 	 64.6888
| 37> H 	 1.15064 	 -22.309 	 64.1714
| 38> H 	 0.691278 	 -21.2167 	 65.5108
| 39> H 	 7.18299 	 -21.2561 	 61.094
| 40> H 	 -0.630959 	 -23.2715 	 59.5844
| 41> *
| 42>
| 43>                          ****END OF INPUT****

CARTESIAN COORDINATES (ANGSTROEM)
---------------------------------
  S      4.940010  -22.274500   61.411400
  C      6.131210  -21.055100   61.013200
  C      5.487190  -19.836200   60.629100
  C      4.059290  -19.932000   60.678000
  C      3.597150  -21.169800   61.018500
  H      3.371930  -19.127700   60.300800
  C      6.112320  -18.509700   60.137200
  H      5.368890  -17.993900   59.616800
  H      6.838720  -18.700100   59.330200
  C      6.803040  -17.686200   61.299300
  H      7.327730  -16.816200   60.955600
  H      6.078920  -17.336100   61.954600
  C      7.778040  -18.431400   62.191200
  H      8.678890  -18.843200   61.701200
  H      8.271860  -17.748200   62.814600
  H      7.356240  -19.201100   62.756400
  S      1.863590  -22.755400   59.520500
  C      0.189269  -22.692900   59.929800
  C     -0.110345  -21.772800   60.881600
  C      1.066090  -21.114100   61.289300
  C      2.233150  -21.705800   60.821700
  H     -1.068300  -21.450100   61.126900
  C      1.046510  -20.011900   62.281700
  H      0.552544  -19.104800   61.854200
  H      2.044970  -19.645700   62.443000
  C      0.322668  -20.324400   63.605100
  H     -0.696946  -20.561300   63.565600
  H      0.215275  -19.342300   64.008300
  C      1.127850  -21.256800   64.553200
  H      2.167980  -20.991600   64.688800
  H      1.150640  -22.309000   64.171400
  H      0.691278  -21.216700   65.510800
  H      7.182990  -21.256100   61.094000
  H     -0.630959  -23.271500   59.584400

 Total Charge           Charge          ....    0
 Multiplicity           Mult            ....    1
 Number of Electrons    NEL             ....  134
 Basis Dimension        Dim             ....  322

ORBITAL ENERGIES
----------------

  NO   OCC          E(Eh)            E(eV)
   0   2.0000     -88.966310     -2420.8964
   1   2.0000     -88.966235     -2420.8943
   2   2.0000     -10.329015      -281.0668
   3   2.0000     -10.320634      -280.8387
   4   2.0000     -10.317608      -280.7564
   5   2.0000     -10.308691      -280.5138
   6   2.0000     -10.308374      -280.5051
   7   2.0000     -10.297515      -280.2096
   8   2.0000     -10.294011      -280.1143
   9   2.0000     -10.291147      -280.0364
  10   2.0000     -10.284170      -279.8465
  11   2.0000     -10.282038      -279.7885
  12   2.0000     -10.280782      -279.7543
  13   2.0000     -10.278392      -279.6893
  14   2.0000     -10.270649      -279.4786
  15   2.0000     -10.265989      -279.3518
  16   2.0000      -8.081799      -219.9169
  17   2.0000      -8.080510      -219.8819
  18   2.0000      -6.040290      -164.3646
  19   2.0000      -6.039021      -164.3301
  20   2.0000      -6.036317      -164.2565
  21   2.0000      -6.034973      -164.2200
  22   2.0000      -6.032395      -164.1498
  23   2.0000      -6.031421      -164.1233
  24   2.0000      -1.010494       -27.4969
  25   2.0000      -0.982880       -26.7455
  26   2.0000      -0.907830       -24.7033
  27   2.0000      -0.905341       -24.6356
  28   2.0000      -0.867966       -23.6186
  29   2.0000      -0.851901       -23.1814
  30   2.0000      -0.846731       -23.0407
  31   2.0000      -0.814062       -22.1517
  32   2.0000      -0.784815       -21.3559
  33   2.0000      -0.771775       -21.0011
  34   2.0000      -0.709782       -19.3142
  35   2.0000      -0.704701       -19.1759
  36   2.0000      -0.696655       -18.9569
  37   2.0000      -0.658498       -17.9186
  38   2.0000      -0.643875       -17.5207
  39   2.0000      -0.618404       -16.8276
  40   2.0000      -0.598570       -16.2879
  41   2.0000      -0.573237       -15.5986
  42   2.0000      -0.550126       -14.9697
  43   2.0000      -0.548377       -14.9221
  44   2.0000      -0.544159       -14.8073
  45   2.0000      -0.528813       -14.3897
  46   2.0000      -0.514367       -13.9966
  47   2.0000      -0.510755       -13.8983
  48   2.0000      -0.496501       -13.5105
  49   2.0000      -0.493875       -13.4390
  50   2.0000      -0.491168       -13.3654
  51   2.0000      -0.476189       -12.9578
  52   2.0000      -0.474214       -12.9040
  53   2.0000      -0.462753       -12.5921
  54   2.0000      -0.458284       -12.4705
  55   2.0000      -0.451143       -12.2762
  56   2.0000      -0.447985       -12.1903
  57   2.0000      -0.437803       -11.9132
  58   2.0000      -0.434158       -11.8140
  59   2.0000      -0.423554       -11.5255
  60   2.0000      -0.420731       -11.4487
  61   2.0000      -0.419193       -11.4068
  62   2.0000      -0.409028       -11.1302
  63   2.0000      -0.347731        -9.4622
  64   2.0000      -0.328916        -8.9503
  65   2.0000      -0.322796        -8.7837
  66   2.0000      -0.294365        -8.0101
  67   0.0000       0.032959         0.8969
  68   0.0000       0.068029         1.8512
  69   0.0000       0.115335         3.1384
  70   0.0000       0.119179         3.2430
  71   0.0000       0.125744         3.4217

MULLIKEN ATOMIC CHARGES
-----------------------
   0 S :    0.105315
   1 C :   -0.121370
   2 C :   -0.126097
   3 C :    0.029445
   4 C :   -0.191897
   5 H :    0.041747
   6 C :    0.102363
   7 H :    0.000796
   8 H :    0.032098
   9 C :   -0.025710
  10 H :    0.022367
  11 H :    0.012291
  12 C :   -0.039609
  13 H :    0.013636
  14 H :    0.012166
  15 H :    0.033822
  16 S :    0.133499
  17 C :   -0.057552
  18 C :   -0.006479
  19 C :   -0.060371
  20 C :   -0.122540
  21 H :   -0.008096
  22 C :    0.050881
  23 H :    0.025360
  24 H :    0.011264
  25 C :   -0.036389
  26 H :    0.010147
  27 H :    0.004840
  28 C :   -0.034069
  29 H :    0.027137
  30 H :    0.046643
  31 H :    0.023765
  32 H :    0.054408
  33 H :    0.036189
Sum of atomic charges:    0.0000000

LOEWDIN ATOMIC CHARGES
----------------------
   0 S :    0.397328
   1 C :   -0.193740
   2 C :   -0.059052
   3 C :   -0.068058
   4 C :   -0.187925
   5 H :    0.043671
   6 C :   -0.024889
   7 H :    0.019850
   8 H :    0.033980
   9 C :   -0.028297
  10 H :    0.023230
  11 H :    0.017614
  12 C :   -0.062643
  13 H :    0.024121
  14 H :    0.022766
  15 H :    0.016057
  16 S :    0.436597
  17 C :   -0.183411
  18 C :   -0.062378
  19 C :   -0.054645
  20 C :   -0.226956
  21 H :    0.022225
  22 C :   -0.034973
  23 H :    0.035123
  24 H :    0.025658
  25 C :   -0.036280
  26 H :    0.016008
  27 H :    0.022183
  28 C :   -0.061578
  29 H :    0.025165
  30 H :    0.033461
  31 H :    0.019345
  32 H :    0.024869
  33 H :    0.025572

  Mayer bond orders larger than 0.100000
B(  0-S ,  1-C ) :   1.1510 B(  0-S ,  4-C ) :   1.1516 B(  1-C ,  2-C ) :   1.5754
B(  1-C ,  4-C ) :   0.1010 B(  1-C , 32-H ) :   0.9755 B(  2-C ,  3-C ) :   1.2656
B(  2-C ,  6-C ) :   1.0156 B(  3-C ,  4-C ) :   1.5789 B(  3-C ,  5-H ) :   0.9770
B(  4-C , 20-C ) :   1.0087 B(  6-C ,  7-H ) :   0.9427 B(  6-C ,  8-H ) :   0.9453
B(  6-C ,  9-C ) :   1.0563 B(  9-C , 10-H ) :   0.9579 B(  9-C , 11-H ) :   0.9532
B(  9-C , 12-C ) :   1.0948 B( 12-C , 13-H ) :   0.9708 B( 12-C , 14-H ) :   0.9663
B( 12-C , 15-H ) :   0.9713 B( 16-S , 17-C ) :   1.1671 B( 16-S , 20-C ) :   1.1442
B( 17-C , 18-C ) :   1.5999 B( 17-C , 33-H ) :   0.9628 B( 18-C , 19-C ) :   1.2606
B( 18-C , 21-H ) :   0.9998 B( 19-C , 20-C ) :   1.5675 B( 19-C , 22-C ) :   1.0702
B( 22-C , 23-H ) :   0.9233 B( 22-C , 24-H ) :   0.9282 B( 22-C , 25-C ) :   1.0835
B( 25-C , 26-H ) :   0.9524 B( 25-C , 27-H ) :   0.9469 B( 25-C , 28-C ) :   1.0686
B( 28-C , 29-H ) :   0.9755 B( 28-C , 30-H ) :   0.9769 B( 28-C , 31-H ) :   0.9749

Dispersion correction           -0.014900453
FINAL SINGLE POINT ENERGY     -1339.862323360388

DIPOLE MOMENT
-------------
                                X             Y             Z
Electronic contribution:     -4.75401     -19.14585     -14.11560
Nuclear contribution   :      4.63295      19.84744      14.17753
                        -----------------------------------------
Total Dipole Moment    :     -0.12106       0.70159       0.06194
                        -----------------------------------------
Magnitude (a.u.)       :      0.71465
Magnitude (Debye)      :      1.81649

Rotational constants in cm-1:     0.021189     0.008227     0.007098
Rotational constants in MHz :   635.220460   246.629380   212.796642

                             ****ORCA TERMINATED NORMALLY****
TOTAL RUN TIME: 0 days 0 hours 0 minutes 35 seconds 787 msec
