                         Program Version 4.2.1 -  RELEASE  -
|  1> ! wB97X-D3 SP def2-SVP
|  2> %pal
|  3> nprocs 16
|  4> end
|  5>
|  6> * xyz 0 1
|  7> S 	 -9.75878 	 58.4513 	 53.6062
|  8> C 	 -8.07959 	 57.9425 	 53.7436
|  9> C 	 -7.3903 	 58.8832 	 54.5073
| 10> C 	 -8.24612 	 59.838 	 55.1451
| 11> C 	 -9.54144 	 59.815 	 54.7212
| 12> H 	 -7.94272 	 60.6794 	 55.8012
| 13> C 	 -5.91854 	 58.8308 	 54.7815
| 14> H 	 -5.53689 	 59.8372 	 54.5632
| 15> H 	 -5.39127 	 58.1914 	 53.9705
| 16> C 	 -5.50757 	 58.2756 	 56.1663
| 17> H 	 -4.38804 	 58.4854 	 56.3881
| 18> H 	 -6.1505 	 58.7586 	 56.9057
| 19> C 	 -5.60077 	 56.7571 	 56.5079
| 20> H 	 -6.61041 	 56.361 	 56.4983
| 21> H 	 -4.95964 	 56.0615 	 55.8443
| 22> H 	 -5.27872 	 56.5866 	 57.482
| 23> S 	 -11.7458 	 60.7536 	 56.2056
| 24> C 	 -12.4504 	 62.281 	 55.7243
| 25> C 	 -11.7679 	 62.8597 	 54.7372
| 26> C 	 -10.6489 	 62.1219 	 54.2259
| 27> C 	 -10.5729 	 60.8692 	 54.8721
| 28> H 	 -12.127 	 63.7571 	 54.2763
| 29> C 	 -9.7309 	 62.5826 	 53.1396
| 30> H 	 -10.42 	 62.7939 	 52.3256
| 31> H 	 -8.98804 	 61.8617 	 52.7756
| 32> C 	 -8.84584 	 63.8407 	 53.4882
| 33> H 	 -9.6065 	 64.6276 	 53.6095
| 34> H 	 -8.26032 	 64.1213 	 52.6347
| 35> C 	 -7.99017 	 63.546 	 54.7105
| 36> H 	 -7.38601 	 64.441 	 54.9111
| 37> H 	 -7.2748 	 62.8089 	 54.4059
| 38> H 	 -8.54707 	 63.2077 	 55.5871
| 39> H 	 -7.63739 	 57.0631 	 53.3185
| 40> H 	 -13.3443 	 62.6559 	 56.1793
| 41> *
| 42>
| 43>                          ****END OF INPUT****

CARTESIAN COORDINATES (ANGSTROEM)
---------------------------------
  S     -9.758780   58.451300   53.606200
  C     -8.079590   57.942500   53.743600
  C     -7.390300   58.883200   54.507300
  C     -8.246120   59.838000   55.145100
  C     -9.541440   59.815000   54.721200
  H     -7.942720   60.679400   55.801200
  C     -5.918540   58.830800   54.781500
  H     -5.536890   59.837200   54.563200
  H     -5.391270   58.191400   53.970500
  C     -5.507570   58.275600   56.166300
  H     -4.388040   58.485400   56.388100
  H     -6.150500   58.758600   56.905700
  C     -5.600770   56.757100   56.507900
  H     -6.610410   56.361000   56.498300
  H     -4.959640   56.061500   55.844300
  H     -5.278720   56.586600   57.482000
  S    -11.745800   60.753600   56.205600
  C    -12.450400   62.281000   55.724300
  C    -11.767900   62.859700   54.737200
  C    -10.648900   62.121900   54.225900
  C    -10.572900   60.869200   54.872100
  H    -12.127000   63.757100   54.276300
  C     -9.730900   62.582600   53.139600
  H    -10.420000   62.793900   52.325600
  H     -8.988040   61.861700   52.775600
  C     -8.845840   63.840700   53.488200
  H     -9.606500   64.627600   53.609500
  H     -8.260320   64.121300   52.634700
  C     -7.990170   63.546000   54.710500
  H     -7.386010   64.441000   54.911100
  H     -7.274800   62.808900   54.405900
  H     -8.547070   63.207700   55.587100
  H     -7.637390   57.063100   53.318500
  H    -13.344300   62.655900   56.179300

 Total Charge           Charge          ....    0
 Multiplicity           Mult            ....    1
 Number of Electrons    NEL             ....  134
 Basis Dimension        Dim             ....  322

ORBITAL ENERGIES
----------------

  NO   OCC          E(Eh)            E(eV)
   0   2.0000     -88.963490     -2420.8196
   1   2.0000     -88.962310     -2420.7875
   2   2.0000     -10.330235      -281.1000
   3   2.0000     -10.328713      -281.0586
   4   2.0000     -10.316756      -280.7332
   5   2.0000     -10.314602      -280.6746
   6   2.0000     -10.308322      -280.5037
   7   2.0000     -10.301727      -280.3242
   8   2.0000     -10.300022      -280.2778
   9   2.0000     -10.298036      -280.2238
  10   2.0000     -10.295487      -280.1544
  11   2.0000     -10.290392      -280.0158
  12   2.0000     -10.290371      -280.0152
  13   2.0000     -10.288111      -279.9537
  14   2.0000     -10.278877      -279.7025
  15   2.0000     -10.276555      -279.6393
  16   2.0000      -8.078104      -219.8164
  17   2.0000      -8.076520      -219.7733
  18   2.0000      -6.036596      -164.2641
  19   2.0000      -6.035084      -164.2230
  20   2.0000      -6.032655      -164.1569
  21   2.0000      -6.030974      -164.1111
  22   2.0000      -6.028867      -164.0538
  23   2.0000      -6.027355      -164.0127
  24   2.0000      -1.002539       -27.2805
  25   2.0000      -0.983672       -26.7671
  26   2.0000      -0.909999       -24.7623
  27   2.0000      -0.903908       -24.5966
  28   2.0000      -0.866575       -23.5807
  29   2.0000      -0.848767       -23.0961
  30   2.0000      -0.842837       -22.9348
  31   2.0000      -0.818350       -22.2684
  32   2.0000      -0.783243       -21.3131
  33   2.0000      -0.772180       -21.0121
  34   2.0000      -0.707573       -19.2540
  35   2.0000      -0.695991       -18.9389
  36   2.0000      -0.690907       -18.8005
  37   2.0000      -0.655657       -17.8413
  38   2.0000      -0.640108       -17.4182
  39   2.0000      -0.616895       -16.7866
  40   2.0000      -0.601450       -16.3663
  41   2.0000      -0.568060       -15.4577
  42   2.0000      -0.557287       -15.1646
  43   2.0000      -0.549866       -14.9626
  44   2.0000      -0.542363       -14.7585
  45   2.0000      -0.535546       -14.5729
  46   2.0000      -0.515252       -14.0207
  47   2.0000      -0.512557       -13.9474
  48   2.0000      -0.501147       -13.6369
  49   2.0000      -0.495947       -13.4954
  50   2.0000      -0.484994       -13.1974
  51   2.0000      -0.477599       -12.9961
  52   2.0000      -0.471327       -12.8255
  53   2.0000      -0.467184       -12.7127
  54   2.0000      -0.459993       -12.5170
  55   2.0000      -0.451242       -12.2789
  56   2.0000      -0.445834       -12.1318
  57   2.0000      -0.437904       -11.9160
  58   2.0000      -0.432091       -11.7578
  59   2.0000      -0.425884       -11.5889
  60   2.0000      -0.416495       -11.3334
  61   2.0000      -0.408391       -11.1129
  62   2.0000      -0.403947       -10.9920
  63   2.0000      -0.336467        -9.1557
  64   2.0000      -0.332185        -9.0392
  65   2.0000      -0.315881        -8.5956
  66   2.0000      -0.314429        -8.5560
  67   0.0000       0.044050         1.1986
  68   0.0000       0.053714         1.4616
  69   0.0000       0.113024         3.0755
  70   0.0000       0.121453         3.3049
  71   0.0000       0.128395         3.4938

MULLIKEN ATOMIC CHARGES
-----------------------
   0 S :    0.099927
   1 C :   -0.099548
   2 C :   -0.116392
   3 C :    0.042516
   4 C :   -0.160080
   5 H :    0.026248
   6 C :    0.056289
   7 H :    0.034659
   8 H :    0.026415
   9 C :   -0.093382
  10 H :    0.044775
  11 H :    0.033107
  12 C :   -0.051841
  13 H :    0.032486
  14 H :    0.032754
  15 H :    0.020872
  16 S :    0.099413
  17 C :   -0.074721
  18 C :   -0.015131
  19 C :   -0.012744
  20 C :   -0.198851
  21 H :    0.010277
  22 C :    0.043621
  23 H :    0.034001
  24 H :    0.035515
  25 C :   -0.077425
  26 H :    0.022734
  27 H :    0.030553
  28 C :   -0.041776
  29 H :    0.034789
  30 H :    0.022209
  31 H :    0.060909
  32 H :    0.046305
  33 H :    0.051516
Sum of atomic charges:   -0.0000000

LOEWDIN ATOMIC CHARGES
----------------------
   0 S :    0.390992
   1 C :   -0.187026
   2 C :   -0.072175
   3 C :   -0.065559
   4 C :   -0.191590
   5 H :    0.038802
   6 C :   -0.043309
   7 H :    0.034579
   8 H :    0.035832
   9 C :   -0.045431
  10 H :    0.035453
  11 H :    0.024681
  12 C :   -0.069105
  13 H :    0.022762
  14 H :    0.029469
  15 H :    0.018466
  16 S :    0.388491
  17 C :   -0.170454
  18 C :   -0.073852
  19 C :   -0.044604
  20 C :   -0.198789
  21 H :    0.029113
  22 C :   -0.034716
  23 H :    0.033210
  24 H :    0.032930
  25 C :   -0.033822
  26 H :    0.018330
  27 H :    0.022682
  28 C :   -0.063517
  29 H :    0.029797
  30 H :    0.022158
  31 H :    0.029725
  32 H :    0.028682
  33 H :    0.027792

  Mayer bond orders larger than 0.100000
B(  0-S ,  1-C ) :   1.1391 B(  0-S ,  4-C ) :   1.1452 B(  1-C ,  2-C ) :   1.6008
B(  1-C , 32-H ) :   0.9740 B(  2-C ,  3-C ) :   1.2258 B(  2-C ,  6-C ) :   1.0353
B(  3-C ,  4-C ) :   1.6092 B(  3-C ,  5-H ) :   0.9855 B(  4-C , 20-C ) :   0.9975
B(  6-C ,  7-H ) :   0.9360 B(  6-C ,  8-H ) :   0.9425 B(  6-C ,  9-C ) :   1.0553
B(  9-C , 10-H ) :   0.9574 B(  9-C , 11-H ) :   0.9572 B(  9-C , 12-C ) :   1.0788
B( 12-C , 13-H ) :   0.9744 B( 12-C , 14-H ) :   0.9741 B( 12-C , 15-H ) :   0.9723
B( 16-S , 17-C ) :   1.1436 B( 16-S , 20-C ) :   1.1419 B( 17-C , 18-C ) :   1.6342
B( 17-C , 33-H ) :   0.9695 B( 18-C , 19-C ) :   1.2157 B( 18-C , 21-H ) :   0.9907
B( 19-C , 20-C ) :   1.5983 B( 19-C , 22-C ) :   1.0467 B( 22-C , 23-H ) :   0.9334
B( 22-C , 24-H ) :   0.9394 B( 22-C , 25-C ) :   1.0651 B( 25-C , 26-H ) :   0.9581
B( 25-C , 27-H ) :   0.9578 B( 25-C , 28-C ) :   1.0733 B( 28-C , 29-H ) :   0.9690
B( 28-C , 30-H ) :   0.9702 B( 28-C , 31-H ) :   0.9712

Dispersion correction           -0.015827036
FINAL SINGLE POINT ENERGY     -1339.883113913704

DIPOLE MOMENT
-------------
                                X             Y             Z
Electronic contribution:    -23.49036      -5.14758      -1.17185
Nuclear contribution   :     23.93920       5.62646       1.06359
                        -----------------------------------------
Total Dipole Moment    :      0.44884       0.47888      -0.10826
                        -----------------------------------------
Magnitude (a.u.)       :      0.66521
Magnitude (Debye)      :      1.69083

Rotational constants in cm-1:     0.020660     0.008412     0.007387
Rotational constants in MHz :   619.360567   252.191174   221.445973

                             ****ORCA TERMINATED NORMALLY****
TOTAL RUN TIME: 0 days 0 hours 0 minutes 34 seconds 916 msec
