                         Program Version 4.2.1 -  RELEASE  -
|  1> ! wB97X-D3 SP def2-SVP
|  2> %pal
|  3> nprocs 16
|  4> end
|  5>
|  6> * xyz 0 1
|  7> S 	 66.8061 	 18.1377 	 75.6195
|  8> C 	 65.6596 	 19.379 	 75.0458
|  9> C 	 66.0308 	 20.647 	 75.4456
| 10> C 	 67.3295 	 20.6446 	 76.0598
| 11> C 	 67.8683 	 19.3547 	 76.2855
| 12> H 	 67.7962 	 21.4722 	 76.5602
| 13> C 	 65.1668 	 21.8842 	 75.3709
| 14> H 	 64.8658 	 22.0818 	 74.3458
| 15> H 	 65.8859 	 22.7313 	 75.5274
| 16> C 	 63.9685 	 22.1009 	 76.2894
| 17> H 	 64.2718 	 22.1733 	 77.3893
| 18> H 	 63.5806 	 23.1872 	 76.0632
| 19> C 	 62.8764 	 21.014 	 76.1249
| 20> H 	 62.5917 	 21.1224 	 75.0901
| 21> H 	 63.1801 	 19.9827 	 76.2886
| 22> H 	 62.014 	 21.1771 	 76.7547
| 23> S 	 70.4713 	 18.4777 	 76.3806
| 24> C 	 71.3991 	 18.7354 	 77.7993
| 25> C 	 70.56 	 19.1536 	 78.831
| 26> C 	 69.19 	 19.4177 	 78.4088
| 27> C 	 69.0027 	 19.0568 	 77.116
| 28> H 	 70.9724 	 19.3513 	 79.8292
| 29> C 	 68.0638 	 19.8167 	 79.3551
| 30> H 	 67.2556 	 19.983 	 78.6841
| 31> H 	 68.3781 	 20.7226 	 79.7923
| 32> C 	 67.4793 	 18.8461 	 80.3493
| 33> H 	 66.6759 	 19.4678 	 80.7575
| 34> H 	 68.1161 	 18.5371 	 81.1726
| 35> C 	 66.9763 	 17.6085 	 79.6443
| 36> H 	 66.3092 	 17.8654 	 78.8332
| 37> H 	 66.3704 	 16.9798 	 80.3268
| 38> H 	 67.7212 	 16.9904 	 79.2124
| 39> H 	 64.7763 	 19.2609 	 74.4446
| 40> H 	 72.4318 	 18.5937 	 77.8704
| 41> *
| 42>
| 43>                          ****END OF INPUT****

CARTESIAN COORDINATES (ANGSTROEM)
---------------------------------
  S     66.806100   18.137700   75.619500
  C     65.659600   19.379000   75.045800
  C     66.030800   20.647000   75.445600
  C     67.329500   20.644600   76.059800
  C     67.868300   19.354700   76.285500
  H     67.796200   21.472200   76.560200
  C     65.166800   21.884200   75.370900
  H     64.865800   22.081800   74.345800
  H     65.885900   22.731300   75.527400
  C     63.968500   22.100900   76.289400
  H     64.271800   22.173300   77.389300
  H     63.580600   23.187200   76.063200
  C     62.876400   21.014000   76.124900
  H     62.591700   21.122400   75.090100
  H     63.180100   19.982700   76.288600
  H     62.014000   21.177100   76.754700
  S     70.471300   18.477700   76.380600
  C     71.399100   18.735400   77.799300
  C     70.560000   19.153600   78.831000
  C     69.190000   19.417700   78.408800
  C     69.002700   19.056800   77.116000
  H     70.972400   19.351300   79.829200
  C     68.063800   19.816700   79.355100
  H     67.255600   19.983000   78.684100
  H     68.378100   20.722600   79.792300
  C     67.479300   18.846100   80.349300
  H     66.675900   19.467800   80.757500
  H     68.116100   18.537100   81.172600
  C     66.976300   17.608500   79.644300
  H     66.309200   17.865400   78.833200
  H     66.370400   16.979800   80.326800
  H     67.721200   16.990400   79.212400
  H     64.776300   19.260900   74.444600
  H     72.431800   18.593700   77.870400

 Total Charge           Charge          ....    0
 Multiplicity           Mult            ....    1
 Number of Electrons    NEL             ....  134
 Basis Dimension        Dim             ....  322

ORBITAL ENERGIES
----------------

  NO   OCC          E(Eh)            E(eV)
   0   2.0000     -88.970984     -2421.0236
   1   2.0000     -88.962286     -2420.7869
   2   2.0000     -10.330077      -281.0957
   3   2.0000     -10.319100      -280.7970
   4   2.0000     -10.315909      -280.7101
   5   2.0000     -10.315264      -280.6926
   6   2.0000     -10.304921      -280.4112
   7   2.0000     -10.302809      -280.3537
   8   2.0000     -10.300648      -280.2949
   9   2.0000     -10.296864      -280.1919
  10   2.0000     -10.296370      -280.1785
  11   2.0000     -10.296108      -280.1714
  12   2.0000     -10.282517      -279.8015
  13   2.0000     -10.279801      -279.7276
  14   2.0000     -10.277867      -279.6750
  15   2.0000     -10.266542      -279.3668
  16   2.0000      -8.084583      -219.9927
  17   2.0000      -8.078160      -219.8179
  18   2.0000      -6.043127      -164.4418
  19   2.0000      -6.039149      -164.3336
  20   2.0000      -6.036587      -164.2639
  21   2.0000      -6.035460      -164.2332
  22   2.0000      -6.032433      -164.1508
  23   2.0000      -6.028997      -164.0573
  24   2.0000      -1.008888       -27.4532
  25   2.0000      -0.982267       -26.7288
  26   2.0000      -0.916638       -24.9430
  27   2.0000      -0.910569       -24.7778
  28   2.0000      -0.870182       -23.6789
  29   2.0000      -0.850341       -23.1390
  30   2.0000      -0.842737       -22.9320
  31   2.0000      -0.808693       -22.0057
  32   2.0000      -0.787766       -21.4362
  33   2.0000      -0.780429       -21.2366
  34   2.0000      -0.708550       -19.2806
  35   2.0000      -0.699789       -19.0422
  36   2.0000      -0.695833       -18.9346
  37   2.0000      -0.659353       -17.9419
  38   2.0000      -0.638936       -17.3863
  39   2.0000      -0.614093       -16.7103
  40   2.0000      -0.597352       -16.2548
  41   2.0000      -0.569331       -15.4923
  42   2.0000      -0.561156       -15.2698
  43   2.0000      -0.547926       -14.9098
  44   2.0000      -0.545556       -14.8453
  45   2.0000      -0.537496       -14.6260
  46   2.0000      -0.522928       -14.2296
  47   2.0000      -0.511710       -13.9243
  48   2.0000      -0.502196       -13.6654
  49   2.0000      -0.498286       -13.5590
  50   2.0000      -0.490774       -13.3547
  51   2.0000      -0.478453       -13.0194
  52   2.0000      -0.473130       -12.8745
  53   2.0000      -0.459792       -12.5116
  54   2.0000      -0.457416       -12.4469
  55   2.0000      -0.446214       -12.1421
  56   2.0000      -0.444211       -12.0876
  57   2.0000      -0.442291       -12.0353
  58   2.0000      -0.432471       -11.7681
  59   2.0000      -0.424561       -11.5529
  60   2.0000      -0.419005       -11.4017
  61   2.0000      -0.410855       -11.1799
  62   2.0000      -0.410174       -11.1614
  63   2.0000      -0.334505        -9.1024
  64   2.0000      -0.334248        -9.0953
  65   2.0000      -0.327493        -8.9115
  66   2.0000      -0.302904        -8.2424
  67   0.0000       0.035810         0.9744
  68   0.0000       0.060407         1.6438
  69   0.0000       0.112717         3.0672
  70   0.0000       0.118226         3.2171
  71   0.0000       0.124813         3.3963

MULLIKEN ATOMIC CHARGES
-----------------------
   0 S :    0.121221
   1 C :   -0.107463
   2 C :   -0.108063
   3 C :    0.066115
   4 C :   -0.195120
   5 H :    0.011885
   6 C :    0.048246
   7 H :    0.028967
   8 H :    0.022956
   9 C :   -0.096427
  10 H :    0.036746
  11 H :    0.046848
  12 C :   -0.045175
  13 H :    0.019439
  14 H :    0.046209
  15 H :    0.035326
  16 S :    0.114179
  17 C :   -0.076282
  18 C :   -0.039129
  19 C :   -0.063126
  20 C :   -0.160892
  21 H :    0.022483
  22 C :    0.096911
  23 H :    0.011768
  24 H :    0.014067
  25 C :   -0.024071
  26 H :    0.029854
  27 H :    0.026598
  28 C :   -0.051783
  29 H :    0.016119
  30 H :    0.029050
  31 H :    0.038129
  32 H :    0.041763
  33 H :    0.042653
Sum of atomic charges:   -0.0000000

LOEWDIN ATOMIC CHARGES
----------------------
   0 S :    0.405182
   1 C :   -0.188274
   2 C :   -0.066109
   3 C :   -0.054281
   4 C :   -0.200013
   5 H :    0.028506
   6 C :   -0.043776
   7 H :    0.030807
   8 H :    0.037479
   9 C :   -0.045928
  10 H :    0.025437
  11 H :    0.037642
  12 C :   -0.069322
  13 H :    0.022023
  14 H :    0.027042
  15 H :    0.026430
  16 S :    0.422966
  17 C :   -0.182965
  18 C :   -0.073928
  19 C :   -0.050060
  20 C :   -0.216609
  21 H :    0.031075
  22 C :   -0.027600
  23 H :    0.028268
  24 H :    0.023423
  25 C :   -0.033783
  26 H :    0.031551
  27 H :    0.020373
  28 C :   -0.063799
  29 H :    0.019371
  30 H :    0.028187
  31 H :    0.023097
  32 H :    0.027121
  33 H :    0.020468

  Mayer bond orders larger than 0.100000
B(  0-S ,  1-C ) :   1.1306 B(  0-S ,  4-C ) :   1.1592 B(  1-C ,  2-C ) :   1.6188
B(  1-C , 32-H ) :   0.9657 B(  2-C ,  3-C ) :   1.2548 B(  2-C ,  6-C ) :   1.0182
B(  3-C ,  4-C ) :   1.5611 B(  3-C ,  5-H ) :   0.9905 B(  4-C , 20-C ) :   1.0162
B(  6-C ,  7-H ) :   0.9377 B(  6-C ,  8-H ) :   0.9357 B(  6-C ,  9-C ) :   1.0696
B(  9-C , 10-H ) :   0.9558 B(  9-C , 11-H ) :   0.9524 B(  9-C , 12-C ) :   1.0653
B( 12-C , 13-H ) :   0.9756 B( 12-C , 14-H ) :   0.9721 B( 12-C , 15-H ) :   0.9733
B( 16-S , 17-C ) :   1.1713 B( 16-S , 20-C ) :   1.1392 B( 17-C , 18-C ) :   1.5933
B( 17-C , 33-H ) :   0.9790 B( 18-C , 19-C ) :   1.2214 B( 18-C , 21-H ) :   0.9909
B( 19-C , 20-C ) :   1.6122 B( 19-C , 22-C ) :   1.0387 B( 22-C , 23-H ) :   0.9258
B( 22-C , 24-H ) :   0.9232 B( 22-C , 25-C ) :   1.0794 B( 25-C , 26-H ) :   0.9499
B( 25-C , 27-H ) :   0.9539 B( 25-C , 28-C ) :   1.0797 B( 28-C , 29-H ) :   0.9717
B( 28-C , 30-H ) :   0.9711 B( 28-C , 31-H ) :   0.9735

Dispersion correction           -0.015954873
FINAL SINGLE POINT ENERGY     -1339.879696968648

DIPOLE MOMENT
-------------
                                X             Y             Z
Electronic contribution:     20.89676     -10.24660     -11.88409
Nuclear contribution   :    -21.18645      10.74220      12.30210
                        -----------------------------------------
Total Dipole Moment    :     -0.28969       0.49560       0.41801
                        -----------------------------------------
Magnitude (a.u.)       :      0.71012
Magnitude (Debye)      :      1.80498

Rotational constants in cm-1:     0.021902     0.008744     0.007651
Rotational constants in MHz :   656.602792   262.133108   229.368455

                             ****ORCA TERMINATED NORMALLY****
TOTAL RUN TIME: 0 days 0 hours 0 minutes 32 seconds 112 msec
