                         Program Version 4.2.1 -  RELEASE  -
|  1> ! wB97X-D3 SP def2-SVP
|  2> %pal
|  3> nprocs 16
|  4> end
|  5>
|  6> * xyz 0 1
|  7> S 	 -55.9535 	 38.5998 	 86.7917
|  8> C 	 -56.4013 	 39.6033 	 88.0518
|  9> C 	 -56.299 	 39.0234 	 89.3013
| 10> C 	 -55.9848 	 37.6657 	 89.1873
| 11> C 	 -55.9515 	 37.243 	 87.8788
| 12> H 	 -55.6482 	 36.9946 	 90.0203
| 13> C 	 -56.3599 	 39.7771 	 90.5829
| 14> H 	 -56.1353 	 40.8933 	 90.4749
| 15> H 	 -55.6404 	 39.3914 	 91.2592
| 16> C 	 -57.735 	 39.6082 	 91.2029
| 17> H 	 -58.0923 	 38.5244 	 91.3026
| 18> H 	 -57.7671 	 40.0641 	 92.2845
| 19> C 	 -58.7908 	 40.2107 	 90.2866
| 20> H 	 -59.0822 	 39.4469 	 89.5811
| 21> H 	 -59.5776 	 40.7957 	 90.7897
| 22> H 	 -58.3901 	 40.9948 	 89.6381
| 23> S 	 -54.0654 	 35.7873 	 86.4975
| 24> C 	 -54.378 	 34.0648 	 86.3154
| 25> C 	 -55.4438 	 33.6339 	 87.0478
| 26> C 	 -56.0192 	 34.6273 	 87.889
| 27> C 	 -55.4853 	 35.8998 	 87.5464
| 28> H 	 -55.5679 	 32.5562 	 86.9992
| 29> C 	 -57.2619 	 34.3916 	 88.7524
| 30> H 	 -58.0963 	 33.8842 	 88.1613
| 31> H 	 -57.6904 	 35.3609 	 89.0718
| 32> C 	 -56.95 	 33.519 	 89.9502
| 33> H 	 -56.9768 	 32.5203 	 89.7303
| 34> H 	 -57.737 	 33.5858 	 90.6673
| 35> C 	 -55.5814 	 33.8304 	 90.4581
| 36> H 	 -55.3805 	 34.8749 	 90.818
| 37> H 	 -54.7389 	 33.4765 	 89.7734
| 38> H 	 -55.4007 	 33.1451 	 91.3623
| 39> H 	 -56.4865 	 40.6937 	 87.8878
| 40> H 	 -53.6985 	 33.4313 	 85.7723
| 41> *
| 42>
| 43>                          ****END OF INPUT****

CARTESIAN COORDINATES (ANGSTROEM)
---------------------------------
  S    -55.953500   38.599800   86.791700
  C    -56.401300   39.603300   88.051800
  C    -56.299000   39.023400   89.301300
  C    -55.984800   37.665700   89.187300
  C    -55.951500   37.243000   87.878800
  H    -55.648200   36.994600   90.020300
  C    -56.359900   39.777100   90.582900
  H    -56.135300   40.893300   90.474900
  H    -55.640400   39.391400   91.259200
  C    -57.735000   39.608200   91.202900
  H    -58.092300   38.524400   91.302600
  H    -57.767100   40.064100   92.284500
  C    -58.790800   40.210700   90.286600
  H    -59.082200   39.446900   89.581100
  H    -59.577600   40.795700   90.789700
  H    -58.390100   40.994800   89.638100
  S    -54.065400   35.787300   86.497500
  C    -54.378000   34.064800   86.315400
  C    -55.443800   33.633900   87.047800
  C    -56.019200   34.627300   87.889000
  C    -55.485300   35.899800   87.546400
  H    -55.567900   32.556200   86.999200
  C    -57.261900   34.391600   88.752400
  H    -58.096300   33.884200   88.161300
  H    -57.690400   35.360900   89.071800
  C    -56.950000   33.519000   89.950200
  H    -56.976800   32.520300   89.730300
  H    -57.737000   33.585800   90.667300
  C    -55.581400   33.830400   90.458100
  H    -55.380500   34.874900   90.818000
  H    -54.738900   33.476500   89.773400
  H    -55.400700   33.145100   91.362300
  H    -56.486500   40.693700   87.887800
  H    -53.698500   33.431300   85.772300

 Total Charge           Charge          ....    0
 Multiplicity           Mult            ....    1
 Number of Electrons    NEL             ....  134
 Basis Dimension        Dim             ....  322

ORBITAL ENERGIES
----------------

  NO   OCC          E(Eh)            E(eV)
   0   2.0000     -88.969824     -2420.9920
   1   2.0000     -88.963311     -2420.8148
   2   2.0000     -10.328344      -281.0485
   3   2.0000     -10.323066      -280.9049
   4   2.0000     -10.312518      -280.6179
   5   2.0000     -10.308825      -280.5174
   6   2.0000     -10.306995      -280.4676
   7   2.0000     -10.295370      -280.1513
   8   2.0000     -10.295083      -280.1435
   9   2.0000     -10.293995      -280.1139
  10   2.0000     -10.293685      -280.1054
  11   2.0000     -10.292184      -280.0646
  12   2.0000     -10.291953      -280.0583
  13   2.0000     -10.284745      -279.8621
  14   2.0000     -10.273404      -279.5535
  15   2.0000     -10.270694      -279.4798
  16   2.0000      -8.086071      -220.0332
  17   2.0000      -8.077875      -219.8101
  18   2.0000      -6.044319      -164.4743
  19   2.0000      -6.040559      -164.3720
  20   2.0000      -6.036822      -164.2703
  21   2.0000      -6.036240      -164.2544
  22   2.0000      -6.032549      -164.1540
  23   2.0000      -6.028669      -164.0484
  24   2.0000      -1.016031       -27.6476
  25   2.0000      -0.986211       -26.8362
  26   2.0000      -0.919292       -25.0152
  27   2.0000      -0.915285       -24.9062
  28   2.0000      -0.870181       -23.6788
  29   2.0000      -0.853545       -23.2261
  30   2.0000      -0.842874       -22.9358
  31   2.0000      -0.810349       -22.0507
  32   2.0000      -0.781668       -21.2703
  33   2.0000      -0.770154       -20.9570
  34   2.0000      -0.708061       -19.2673
  35   2.0000      -0.693086       -18.8598
  36   2.0000      -0.685521       -18.6540
  37   2.0000      -0.653930       -17.7943
  38   2.0000      -0.640080       -17.4175
  39   2.0000      -0.623113       -16.9558
  40   2.0000      -0.595643       -16.2083
  41   2.0000      -0.571746       -15.5580
  42   2.0000      -0.555708       -15.1216
  43   2.0000      -0.546874       -14.8812
  44   2.0000      -0.543615       -14.7925
  45   2.0000      -0.541128       -14.7248
  46   2.0000      -0.517188       -14.0734
  47   2.0000      -0.513223       -13.9655
  48   2.0000      -0.495324       -13.4784
  49   2.0000      -0.492782       -13.4093
  50   2.0000      -0.487087       -13.2543
  51   2.0000      -0.479000       -13.0343
  52   2.0000      -0.468591       -12.7510
  53   2.0000      -0.465032       -12.6542
  54   2.0000      -0.455842       -12.4041
  55   2.0000      -0.453011       -12.3271
  56   2.0000      -0.445210       -12.1148
  57   2.0000      -0.429540       -11.6884
  58   2.0000      -0.423749       -11.5308
  59   2.0000      -0.422513       -11.4972
  60   2.0000      -0.419852       -11.4247
  61   2.0000      -0.415022       -11.2933
  62   2.0000      -0.408260       -11.1093
  63   2.0000      -0.349422        -9.5083
  64   2.0000      -0.331983        -9.0337
  65   2.0000      -0.329910        -8.9773
  66   2.0000      -0.285767        -7.7761
  67   0.0000       0.028971         0.7883
  68   0.0000       0.068733         1.8703
  69   0.0000       0.109023         2.9667
  70   0.0000       0.120857         3.2887
  71   0.0000       0.126410         3.4398

MULLIKEN ATOMIC CHARGES
-----------------------
   0 S :    0.138341
   1 C :   -0.135204
   2 C :   -0.086104
   3 C :   -0.005951
   4 C :   -0.139419
   5 H :    0.032069
   6 C :    0.088815
   7 H :    0.042229
   8 H :    0.016700
   9 C :   -0.137867
  10 H :    0.046035
  11 H :    0.045382
  12 C :   -0.044609
  13 H :    0.046240
  14 H :    0.039160
  15 H :    0.004896
  16 S :    0.095669
  17 C :   -0.102998
  18 C :   -0.023092
  19 C :   -0.047948
  20 C :   -0.172837
  21 H :    0.021029
  22 C :    0.047709
  23 H :    0.044442
  24 H :    0.031458
  25 C :   -0.003042
  26 H :    0.002443
  27 H :    0.017855
  28 C :   -0.099706
  29 H :    0.041769
  30 H :    0.057621
  31 H :    0.028179
  32 H :    0.060318
  33 H :    0.050418
Sum of atomic charges:    0.0000000

LOEWDIN ATOMIC CHARGES
----------------------
   0 S :    0.451630
   1 C :   -0.223257
   2 C :   -0.070066
   3 C :   -0.060026
   4 C :   -0.209265
   5 H :    0.040585
   6 C :   -0.032351
   7 H :    0.038994
   8 H :    0.025296
   9 C :   -0.054208
  10 H :    0.031637
  11 H :    0.029541
  12 C :   -0.075622
  13 H :    0.029305
  14 H :    0.030183
  15 H :    0.018102
  16 S :    0.381713
  17 C :   -0.179496
  18 C :   -0.072760
  19 C :   -0.053847
  20 C :   -0.182418
  21 H :    0.034751
  22 C :   -0.032789
  23 H :    0.038765
  24 H :    0.030166
  25 C :   -0.043971
  26 H :    0.014855
  27 H :    0.024676
  28 C :   -0.076679
  29 H :    0.024023
  30 H :    0.039116
  31 H :    0.028868
  32 H :    0.030776
  33 H :    0.023772

  Mayer bond orders larger than 0.100000
B(  0-S ,  1-C ) :   1.1732 B(  0-S ,  4-C ) :   1.1709 B(  1-C ,  2-C ) :   1.5613
B(  1-C , 32-H ) :   0.9601 B(  2-C ,  3-C ) :   1.2923 B(  2-C ,  6-C ) :   1.0276
B(  3-C ,  4-C ) :   1.5216 B(  3-C ,  5-H ) :   0.9845 B(  4-C , 20-C ) :   1.0586
B(  6-C ,  7-H ) :   0.9452 B(  6-C ,  8-H ) :   0.9345 B(  6-C ,  9-C ) :   1.0661
B(  9-C , 10-H ) :   0.9641 B(  9-C , 11-H ) :   0.9592 B(  9-C , 12-C ) :   1.0514
B( 12-C , 13-H ) :   0.9729 B( 12-C , 14-H ) :   0.9724 B( 12-C , 15-H ) :   0.9746
B( 16-S , 17-C ) :   1.1308 B( 16-S , 20-C ) :   1.1551 B( 17-C , 18-C ) :   1.6442
B( 17-C , 33-H ) :   0.9678 B( 18-C , 19-C ) :   1.2123 B( 18-C , 21-H ) :   0.9873
B( 19-C , 20-C ) :   1.5745 B( 19-C , 22-C ) :   1.0493 B( 22-C , 23-H ) :   0.9464
B( 22-C , 24-H ) :   0.9336 B( 22-C , 25-C ) :   1.0606 B( 25-C , 26-H ) :   0.9411
B( 25-C , 27-H ) :   0.9517 B( 25-C , 28-C ) :   1.1039 B( 28-C , 29-H ) :   0.9721
B( 28-C , 30-H ) :   0.9529 B( 28-C , 31-H ) :   0.9669

Dispersion correction           -0.015638868
FINAL SINGLE POINT ENERGY     -1339.858670003136

DIPOLE MOMENT
-------------
                                X             Y             Z
Electronic contribution:     12.80623       1.41137     -22.90069
Nuclear contribution   :    -12.85783      -1.55919      23.36938
                        -----------------------------------------
Total Dipole Moment    :     -0.05160      -0.14783       0.46869
                        -----------------------------------------
Magnitude (a.u.)       :      0.49415
Magnitude (Debye)      :      1.25603

Rotational constants in cm-1:     0.020753     0.009514     0.007223
Rotational constants in MHz :   622.165502   285.209244   216.555044

                             ****ORCA TERMINATED NORMALLY****
TOTAL RUN TIME: 0 days 0 hours 0 minutes 32 seconds 643 msec
