                         Program Version 4.2.1 -  RELEASE  -
|  1> ! wB97X-D3 SP def2-SVP
|  2> %pal
|  3> nprocs 16
|  4> end
|  5>
|  6> * xyz 0 1
|  7> S 	 -22.9127 	 46.0689 	 62.1798
|  8> C 	 -22.2646 	 47.6915 	 62.5183
|  9> C 	 -22.1565 	 48.4187 	 61.3311
| 10> C 	 -22.5431 	 47.6419 	 60.1547
| 11> C 	 -22.9232 	 46.3538 	 60.4706
| 12> H 	 -22.6097 	 47.9455 	 59.1414
| 13> C 	 -21.7606 	 49.8507 	 61.2597
| 14> H 	 -20.747 	 49.8521 	 60.838
| 15> H 	 -21.6387 	 50.1347 	 62.3339
| 16> C 	 -22.7351 	 50.7871 	 60.5302
| 17> H 	 -22.4932 	 51.8 	 60.7468
| 18> H 	 -22.6599 	 50.6465 	 59.4466
| 19> C 	 -24.2682 	 50.66 	 60.8049
| 20> H 	 -24.5347 	 50.9082 	 61.8284
| 21> H 	 -24.8388 	 51.2345 	 60.108
| 22> H 	 -24.5947 	 49.6443 	 60.6379
| 23> S 	 -22.4167 	 43.752 	 59.5344
| 24> C 	 -23.3659 	 43.1118 	 58.2072
| 25> C 	 -24.3899 	 44.0551 	 57.8697
| 26> C 	 -24.391 	 45.2722 	 58.6909
| 27> C 	 -23.3546 	 45.2845 	 59.5511
| 28> H 	 -25.208 	 43.7498 	 57.1958
| 29> C 	 -25.4706 	 46.3448 	 58.5921
| 30> H 	 -26.2343 	 46.1185 	 57.8921
| 31> H 	 -25.1015 	 47.2538 	 58.2058
| 32> C 	 -26.2699 	 46.6094 	 59.9129
| 33> H 	 -26.6269 	 47.6412 	 60.0443
| 34> H 	 -25.5782 	 46.4314 	 60.7247
| 35> C 	 -27.4489 	 45.6235 	 60.051
| 36> H 	 -27.1518 	 44.6984 	 60.4957
| 37> H 	 -28.0667 	 45.3387 	 59.1908
| 38> H 	 -28.0413 	 45.9813 	 60.8429
| 39> H 	 -22.0932 	 48.1154 	 63.5022
| 40> H 	 -23.2116 	 42.1134 	 57.8472
| 41> *
| 42>
| 43>                          ****END OF INPUT****

CARTESIAN COORDINATES (ANGSTROEM)
---------------------------------
  S    -22.912700   46.068900   62.179800
  C    -22.264600   47.691500   62.518300
  C    -22.156500   48.418700   61.331100
  C    -22.543100   47.641900   60.154700
  C    -22.923200   46.353800   60.470600
  H    -22.609700   47.945500   59.141400
  C    -21.760600   49.850700   61.259700
  H    -20.747000   49.852100   60.838000
  H    -21.638700   50.134700   62.333900
  C    -22.735100   50.787100   60.530200
  H    -22.493200   51.800000   60.746800
  H    -22.659900   50.646500   59.446600
  C    -24.268200   50.660000   60.804900
  H    -24.534700   50.908200   61.828400
  H    -24.838800   51.234500   60.108000
  H    -24.594700   49.644300   60.637900
  S    -22.416700   43.752000   59.534400
  C    -23.365900   43.111800   58.207200
  C    -24.389900   44.055100   57.869700
  C    -24.391000   45.272200   58.690900
  C    -23.354600   45.284500   59.551100
  H    -25.208000   43.749800   57.195800
  C    -25.470600   46.344800   58.592100
  H    -26.234300   46.118500   57.892100
  H    -25.101500   47.253800   58.205800
  C    -26.269900   46.609400   59.912900
  H    -26.626900   47.641200   60.044300
  H    -25.578200   46.431400   60.724700
  C    -27.448900   45.623500   60.051000
  H    -27.151800   44.698400   60.495700
  H    -28.066700   45.338700   59.190800
  H    -28.041300   45.981300   60.842900
  H    -22.093200   48.115400   63.502200
  H    -23.211600   42.113400   57.847200

 Total Charge           Charge          ....    0
 Multiplicity           Mult            ....    1
 Number of Electrons    NEL             ....  134
 Basis Dimension        Dim             ....  322

ORBITAL ENERGIES
----------------

  NO   OCC          E(Eh)            E(eV)
   0   2.0000     -88.966837     -2420.9107
   1   2.0000     -88.965327     -2420.8696
   2   2.0000     -10.330232      -281.0999
   3   2.0000     -10.327063      -281.0137
   4   2.0000     -10.325759      -280.9782
   5   2.0000     -10.317820      -280.7622
   6   2.0000     -10.307376      -280.4780
   7   2.0000     -10.305452      -280.4256
   8   2.0000     -10.305423      -280.4248
   9   2.0000     -10.295727      -280.1610
  10   2.0000     -10.294931      -280.1393
  11   2.0000     -10.289415      -279.9892
  12   2.0000     -10.286902      -279.9208
  13   2.0000     -10.284450      -279.8541
  14   2.0000     -10.274431      -279.5815
  15   2.0000     -10.266225      -279.3582
  16   2.0000      -8.080986      -219.8948
  17   2.0000      -8.079426      -219.8523
  18   2.0000      -6.039541      -164.3443
  19   2.0000      -6.038007      -164.3025
  20   2.0000      -6.035531      -164.2352
  21   2.0000      -6.033987      -164.1931
  22   2.0000      -6.031763      -164.1326
  23   2.0000      -6.030172      -164.0893
  24   2.0000      -1.002314       -27.2743
  25   2.0000      -0.977417       -26.5969
  26   2.0000      -0.911742       -24.8098
  27   2.0000      -0.904663       -24.6171
  28   2.0000      -0.864178       -23.5155
  29   2.0000      -0.848331       -23.0842
  30   2.0000      -0.839933       -22.8557
  31   2.0000      -0.813073       -22.1248
  32   2.0000      -0.786783       -21.4094
  33   2.0000      -0.776850       -21.1391
  34   2.0000      -0.710922       -19.3452
  35   2.0000      -0.700807       -19.0699
  36   2.0000      -0.689574       -18.7643
  37   2.0000      -0.664452       -18.0806
  38   2.0000      -0.641726       -17.4623
  39   2.0000      -0.616267       -16.7695
  40   2.0000      -0.596259       -16.2250
  41   2.0000      -0.558085       -15.1863
  42   2.0000      -0.557043       -15.1579
  43   2.0000      -0.552264       -15.0279
  44   2.0000      -0.543483       -14.7889
  45   2.0000      -0.542438       -14.7605
  46   2.0000      -0.518484       -14.1087
  47   2.0000      -0.510167       -13.8824
  48   2.0000      -0.503195       -13.6926
  49   2.0000      -0.494225       -13.4486
  50   2.0000      -0.487843       -13.2749
  51   2.0000      -0.478895       -13.0314
  52   2.0000      -0.475034       -12.9263
  53   2.0000      -0.463821       -12.6212
  54   2.0000      -0.456753       -12.4289
  55   2.0000      -0.449554       -12.2330
  56   2.0000      -0.442719       -12.0470
  57   2.0000      -0.433166       -11.7871
  58   2.0000      -0.427242       -11.6258
  59   2.0000      -0.425604       -11.5813
  60   2.0000      -0.420959       -11.4549
  61   2.0000      -0.418194       -11.3796
  62   2.0000      -0.412812       -11.2332
  63   2.0000      -0.339862        -9.2481
  64   2.0000      -0.332149        -9.0382
  65   2.0000      -0.325428        -8.8553
  66   2.0000      -0.301371        -8.2007
  67   0.0000       0.033336         0.9071
  68   0.0000       0.063025         1.7150
  69   0.0000       0.109576         2.9817
  70   0.0000       0.120472         3.2782
  71   0.0000       0.126545         3.4435

MULLIKEN ATOMIC CHARGES
-----------------------
   0 S :    0.108608
   1 C :   -0.118502
   2 C :   -0.130991
   3 C :    0.068652
   4 C :   -0.183889
   5 H :    0.000259
   6 C :    0.093435
   7 H :    0.049514
   8 H :    0.014007
   9 C :   -0.081330
  10 H :    0.028692
  11 H :    0.031383
  12 C :   -0.037953
  13 H :    0.029701
  14 H :    0.027186
  15 H :    0.027962
  16 S :    0.103807
  17 C :   -0.103030
  18 C :   -0.040116
  19 C :   -0.017424
  20 C :   -0.175039
  21 H :    0.034027
  22 C :    0.125774
  23 H :   -0.002208
  24 H :    0.013093
  25 C :   -0.088856
  26 H :    0.037200
  27 H :    0.034192
  28 C :   -0.030469
  29 H :    0.018528
  30 H :    0.035385
  31 H :    0.013381
  32 H :    0.049869
  33 H :    0.065154
Sum of atomic charges:   -0.0000000

LOEWDIN ATOMIC CHARGES
----------------------
   0 S :    0.400551
   1 C :   -0.196419
   2 C :   -0.057519
   3 C :   -0.059596
   4 C :   -0.192435
   5 H :    0.026844
   6 C :   -0.036871
   7 H :    0.040939
   8 H :    0.032462
   9 C :   -0.038236
  10 H :    0.022610
  11 H :    0.025294
  12 C :   -0.060329
  13 H :    0.023017
  14 H :    0.024000
  15 H :    0.022828
  16 S :    0.386798
  17 C :   -0.180516
  18 C :   -0.072148
  19 C :   -0.052101
  20 C :   -0.190295
  21 H :    0.033507
  22 C :   -0.024877
  23 H :    0.024267
  24 H :    0.024616
  25 C :   -0.031924
  26 H :    0.024800
  27 H :    0.022034
  28 C :   -0.070765
  29 H :    0.025061
  30 H :    0.025029
  31 H :    0.022345
  32 H :    0.029375
  33 H :    0.027655

  Mayer bond orders larger than 0.100000
B(  0-S ,  1-C ) :   1.1175 B(  0-S ,  4-C ) :   1.1608 B(  1-C ,  2-C ) :   1.6295
B(  1-C , 32-H ) :   0.9660 B(  2-C ,  3-C ) :   1.1908 B(  2-C ,  6-C ) :   1.0301
B(  3-C ,  4-C ) :   1.6034 B(  3-C ,  5-H ) :   1.0017 B(  4-C , 20-C ) :   1.0038
B(  6-C ,  7-H ) :   0.9340 B(  6-C ,  8-H ) :   0.9369 B(  6-C ,  9-C ) :   1.0620
B(  9-C , 10-H ) :   0.9592 B(  9-C , 11-H ) :   0.9537 B(  9-C , 12-C ) :   1.0828
B( 12-C , 13-H ) :   0.9763 B( 12-C , 14-H ) :   0.9735 B( 12-C , 15-H ) :   0.9700
B( 16-S , 17-C ) :   1.1586 B( 16-S , 20-C ) :   1.1263 B( 17-C , 18-C ) :   1.5991
B( 17-C , 33-H ) :   0.9734 B( 18-C , 19-C ) :   1.2236 B( 18-C , 21-H ) :   0.9811
B( 19-C , 20-C ) :   1.6378 B( 19-C , 22-C ) :   1.0425 B( 22-C , 23-H ) :   0.9367
B( 22-C , 24-H ) :   0.9283 B( 22-C , 25-C ) :   1.0564 B( 25-C , 26-H ) :   0.9606
B( 25-C , 27-H ) :   0.9577 B( 25-C , 28-C ) :   1.0743 B( 28-C , 29-H ) :   0.9730
B( 28-C , 30-H ) :   0.9775 B( 28-C , 31-H ) :   0.9691

Dispersion correction           -0.016059476
FINAL SINGLE POINT ENERGY     -1339.880748053175

DIPOLE MOMENT
-------------
                                X             Y             Z
Electronic contribution:     15.85212     -20.70647       2.61931
Nuclear contribution   :    -16.18516      21.20793      -2.80811
                        -----------------------------------------
Total Dipole Moment    :     -0.33304       0.50146      -0.18880
                        -----------------------------------------
Magnitude (a.u.)       :      0.63090
Magnitude (Debye)      :      1.60361

Rotational constants in cm-1:     0.019620     0.009612     0.007925
Rotational constants in MHz :   588.202295   288.149268   237.580525

                             ****ORCA TERMINATED NORMALLY****
TOTAL RUN TIME: 0 days 0 hours 0 minutes 34 seconds 940 msec
