                         Program Version 4.2.1 -  RELEASE  -
|  1> ! wB97X-D3 SP def2-SVP
|  2> %pal
|  3> nprocs 16
|  4> end
|  5>
|  6> * xyz 0 1
|  7> S 	 7.37499 	 -12.9145 	 68.0972
|  8> C 	 8.39123 	 -13.8115 	 69.2526
|  9> C 	 8.53538 	 -13.1498 	 70.4571
| 10> C 	 7.60373 	 -12.1177 	 70.586
| 11> C 	 6.98847 	 -11.8058 	 69.371
| 12> H 	 7.4712 	 -11.6427 	 71.5408
| 13> C 	 9.38203 	 -13.6892 	 71.6005
| 14> H 	 9.7393 	 -14.6118 	 71.2981
| 15> H 	 8.75111 	 -13.8382 	 72.5212
| 16> C 	 10.6896 	 -12.915 	 72.0133
| 17> H 	 10.3965 	 -11.9181 	 72.2588
| 18> H 	 11.1054 	 -13.3184 	 72.9883
| 19> C 	 11.766 	 -12.8332 	 70.9
| 20> H 	 12.0511 	 -13.807 	 70.6464
| 21> H 	 11.288 	 -12.3584 	 70.0129
| 22> H 	 12.5887 	 -12.2044 	 71.2415
| 23> S 	 4.35101 	 -11.3095 	 69.3629
| 24> C 	 3.74365 	 -9.72019 	 68.8167
| 25> C 	 4.78993 	 -8.89892 	 68.4359
| 26> C 	 6.09708 	 -9.4986 	 68.5623
| 27> C 	 6.01527 	 -10.7926 	 69.0863
| 28> H 	 4.53233 	 -7.92857 	 67.9805
| 29> C 	 7.35089 	 -8.81087 	 68.1666
| 30> H 	 8.20816 	 -9.45801 	 68.4397
| 31> H 	 7.5609 	 -7.99803 	 68.819
| 32> C 	 7.32191 	 -8.30823 	 66.6969
| 33> H 	 6.44035 	 -7.76607 	 66.6139
| 34> H 	 7.15708 	 -9.16408 	 65.9557
| 35> C 	 8.49189 	 -7.51665 	 66.3775
| 36> H 	 9.33418 	 -8.0881 	 66.7453
| 37> H 	 8.49608 	 -6.59335 	 66.9842
| 38> H 	 8.47546 	 -7.19373 	 65.3583
| 39> H 	 9.00048 	 -14.7027 	 69.0238
| 40> H 	 2.70394 	 -9.47661 	 68.7584
| 41> *
| 42>
| 43>                          ****END OF INPUT****

CARTESIAN COORDINATES (ANGSTROEM)
---------------------------------
  S      7.374990  -12.914500   68.097200
  C      8.391230  -13.811500   69.252600
  C      8.535380  -13.149800   70.457100
  C      7.603730  -12.117700   70.586000
  C      6.988470  -11.805800   69.371000
  H      7.471200  -11.642700   71.540800
  C      9.382030  -13.689200   71.600500
  H      9.739300  -14.611800   71.298100
  H      8.751110  -13.838200   72.521200
  C     10.689600  -12.915000   72.013300
  H     10.396500  -11.918100   72.258800
  H     11.105400  -13.318400   72.988300
  C     11.766000  -12.833200   70.900000
  H     12.051100  -13.807000   70.646400
  H     11.288000  -12.358400   70.012900
  H     12.588700  -12.204400   71.241500
  S      4.351010  -11.309500   69.362900
  C      3.743650   -9.720190   68.816700
  C      4.789930   -8.898920   68.435900
  C      6.097080   -9.498600   68.562300
  C      6.015270  -10.792600   69.086300
  H      4.532330   -7.928570   67.980500
  C      7.350890   -8.810870   68.166600
  H      8.208160   -9.458010   68.439700
  H      7.560900   -7.998030   68.819000
  C      7.321910   -8.308230   66.696900
  H      6.440350   -7.766070   66.613900
  H      7.157080   -9.164080   65.955700
  C      8.491890   -7.516650   66.377500
  H      9.334180   -8.088100   66.745300
  H      8.496080   -6.593350   66.984200
  H      8.475460   -7.193730   65.358300
  H      9.000480  -14.702700   69.023800
  H      2.703940   -9.476610   68.758400

 Total Charge           Charge          ....    0
 Multiplicity           Mult            ....    1
 Number of Electrons    NEL             ....  134
 Basis Dimension        Dim             ....  322

ORBITAL ENERGIES
----------------

  NO   OCC          E(Eh)            E(eV)
   0   2.0000     -88.969904     -2420.9942
   1   2.0000     -88.960870     -2420.7483
   2   2.0000     -10.326664      -281.0028
   3   2.0000     -10.322105      -280.8788
   4   2.0000     -10.317924      -280.7650
   5   2.0000     -10.315940      -280.7110
   6   2.0000     -10.304204      -280.3916
   7   2.0000     -10.297067      -280.1974
   8   2.0000     -10.296530      -280.1828
   9   2.0000     -10.293320      -280.0955
  10   2.0000     -10.292416      -280.0709
  11   2.0000     -10.290294      -280.0131
  12   2.0000     -10.286208      -279.9019
  13   2.0000     -10.279503      -279.7195
  14   2.0000     -10.275896      -279.6214
  15   2.0000     -10.270286      -279.4687
  16   2.0000      -8.084299      -219.9850
  17   2.0000      -8.075057      -219.7335
  18   2.0000      -6.042658      -164.4291
  19   2.0000      -6.038956      -164.3283
  20   2.0000      -6.035120      -164.2240
  21   2.0000      -6.033635      -164.1836
  22   2.0000      -6.029635      -164.0747
  23   2.0000      -6.025785      -163.9700
  24   2.0000      -1.005892       -27.3717
  25   2.0000      -0.978536       -26.6273
  26   2.0000      -0.917716       -24.9723
  27   2.0000      -0.907740       -24.7009
  28   2.0000      -0.867265       -23.5995
  29   2.0000      -0.854480       -23.2516
  30   2.0000      -0.848490       -23.0886
  31   2.0000      -0.811526       -22.0827
  32   2.0000      -0.784058       -21.3353
  33   2.0000      -0.767665       -20.8892
  34   2.0000      -0.708188       -19.2708
  35   2.0000      -0.702126       -19.1058
  36   2.0000      -0.691350       -18.8126
  37   2.0000      -0.656855       -17.8739
  38   2.0000      -0.635340       -17.2885
  39   2.0000      -0.624837       -17.0027
  40   2.0000      -0.600117       -16.3300
  41   2.0000      -0.563457       -15.3325
  42   2.0000      -0.561737       -15.2856
  43   2.0000      -0.547010       -14.8849
  44   2.0000      -0.544267       -14.8103
  45   2.0000      -0.539576       -14.6826
  46   2.0000      -0.516216       -14.0470
  47   2.0000      -0.514525       -14.0009
  48   2.0000      -0.508037       -13.8244
  49   2.0000      -0.495426       -13.4812
  50   2.0000      -0.485084       -13.1998
  51   2.0000      -0.475359       -12.9352
  52   2.0000      -0.468596       -12.7512
  53   2.0000      -0.461739       -12.5646
  54   2.0000      -0.455885       -12.4053
  55   2.0000      -0.451139       -12.2761
  56   2.0000      -0.447760       -12.1842
  57   2.0000      -0.436241       -11.8707
  58   2.0000      -0.432847       -11.7784
  59   2.0000      -0.423436       -11.5223
  60   2.0000      -0.422076       -11.4853
  61   2.0000      -0.421166       -11.4605
  62   2.0000      -0.410004       -11.1568
  63   2.0000      -0.339428        -9.2363
  64   2.0000      -0.327074        -8.9001
  65   2.0000      -0.314108        -8.5473
  66   2.0000      -0.308974        -8.4076
  67   0.0000       0.044393         1.2080
  68   0.0000       0.050953         1.3865
  69   0.0000       0.112586         3.0636
  70   0.0000       0.115038         3.1303
  71   0.0000       0.122142         3.3237

MULLIKEN ATOMIC CHARGES
-----------------------
   0 S :    0.134163
   1 C :   -0.132962
   2 C :   -0.097472
   3 C :    0.060536
   4 C :   -0.185968
   5 H :    0.008635
   6 C :    0.079200
   7 H :   -0.011262
   8 H :    0.045241
   9 C :   -0.090022
  10 H :    0.013304
  11 H :    0.036315
  12 C :   -0.038096
  13 H :    0.018017
  14 H :    0.044519
  15 H :    0.042520
  16 S :    0.101025
  17 C :   -0.089714
  18 C :   -0.052016
  19 C :    0.006606
  20 C :   -0.188460
  21 H :    0.032923
  22 C :    0.076648
  23 H :    0.022713
  24 H :    0.014503
  25 C :   -0.091370
  26 H :    0.003567
  27 H :    0.039202
  28 C :    0.015248
  29 H :    0.026069
  30 H :    0.017164
  31 H :    0.034508
  32 H :    0.052998
  33 H :    0.051715
Sum of atomic charges:   -0.0000000

LOEWDIN ATOMIC CHARGES
----------------------
   0 S :    0.414775
   1 C :   -0.191797
   2 C :   -0.069087
   3 C :   -0.050517
   4 C :   -0.208061
   5 H :    0.032507
   6 C :   -0.026638
   7 H :    0.014875
   8 H :    0.040043
   9 C :   -0.040857
  10 H :    0.012876
  11 H :    0.028548
  12 C :   -0.060119
  13 H :    0.013331
  14 H :    0.033164
  15 H :    0.029553
  16 S :    0.384991
  17 C :   -0.168995
  18 C :   -0.075382
  19 C :   -0.050328
  20 C :   -0.204454
  21 H :    0.035352
  22 C :   -0.033409
  23 H :    0.032933
  24 H :    0.028260
  25 C :   -0.039579
  26 H :    0.010279
  27 H :    0.033023
  28 C :   -0.061337
  29 H :    0.028089
  30 H :    0.027003
  31 H :    0.026322
  32 H :    0.029902
  33 H :    0.024735

  Mayer bond orders larger than 0.100000
B(  0-S ,  1-C ) :   1.1396 B(  0-S ,  4-C ) :   1.1679 B(  1-C ,  2-C ) :   1.6064
B(  1-C ,  4-C ) :   0.1046 B(  1-C , 32-H ) :   0.9575 B(  2-C ,  3-C ) :   1.2556
B(  2-C ,  6-C ) :   1.0292 B(  3-C ,  4-C ) :   1.5573 B(  3-C ,  5-H ) :   0.9994
B(  4-C , 20-C ) :   1.0148 B(  6-C ,  7-H ) :   0.9369 B(  6-C ,  8-H ) :   0.9442
B(  6-C ,  9-C ) :   1.0561 B(  9-C , 10-H ) :   0.9593 B(  9-C , 11-H ) :   0.9578
B(  9-C , 12-C ) :   1.0716 B( 12-C , 13-H ) :   0.9786 B( 12-C , 14-H ) :   0.9747
B( 12-C , 15-H ) :   0.9744 B( 16-S , 17-C ) :   1.1406 B( 16-S , 20-C ) :   1.1439
B( 17-C , 18-C ) :   1.6367 B( 17-C , 20-C ) :   0.1017 B( 17-C , 33-H ) :   0.9705
B( 18-C , 19-C ) :   1.2022 B( 18-C , 21-H ) :   0.9818 B( 19-C , 20-C ) :   1.6147
B( 19-C , 22-C ) :   1.0636 B( 22-C , 23-H ) :   0.9205 B( 22-C , 24-H ) :   0.9259
B( 22-C , 25-C ) :   1.0477 B( 25-C , 26-H ) :   0.9530 B( 25-C , 27-H ) :   0.9483
B( 25-C , 28-C ) :   1.1046 B( 28-C , 29-H ) :   0.9681 B( 28-C , 30-H ) :   0.9656
B( 28-C , 31-H ) :   0.9674

Dispersion correction           -0.014032812
FINAL SINGLE POINT ENERGY     -1339.873614849798

DIPOLE MOMENT
-------------
                                X             Y             Z
Electronic contribution:    -22.72469      -9.59303      -2.07490
Nuclear contribution   :     23.06969       9.91304       2.20439
                        -----------------------------------------
Total Dipole Moment    :      0.34500       0.32001       0.12949
                        -----------------------------------------
Magnitude (a.u.)       :      0.48806
Magnitude (Debye)      :      1.24054

Rotational constants in cm-1:     0.018561     0.008351     0.006741
Rotational constants in MHz :   556.456796   250.351634   202.103351

                             ****ORCA TERMINATED NORMALLY****
TOTAL RUN TIME: 0 days 0 hours 0 minutes 34 seconds 354 msec
