                         Program Version 4.2.1 -  RELEASE  -
|  1> ! wB97X-D3 SP def2-SVP
|  2> %pal
|  3> nprocs 16
|  4> end
|  5>
|  6> * xyz 0 1
|  7> S 	 13.782 	 -14.0546 	 94.5413
|  8> C 	 14.6756 	 -12.6095 	 94.7485
|  9> C 	 13.8617 	 -11.5166 	 94.9038
| 10> C 	 12.4901 	 -11.8336 	 94.686
| 11> C 	 12.2816 	 -13.1557 	 94.3871
| 12> H 	 11.7206 	 -11.1185 	 94.926
| 13> C 	 14.2895 	 -10.0826 	 95.1528
| 14> H 	 14.0148 	 -9.50429 	 94.2917
| 15> H 	 15.4011 	 -9.98687 	 95.2955
| 16> C 	 13.5076 	 -9.46643 	 96.2905
| 17> H 	 13.8738 	 -8.36699 	 96.4043
| 18> H 	 12.4689 	 -9.16666 	 96.0935
| 19> C 	 13.5249 	 -10.1709 	 97.5725
| 20> H 	 12.9706 	 -11.176 	 97.5192
| 21> H 	 14.5716 	 -10.3458 	 97.8593
| 22> H 	 13.1845 	 -9.59349 	 98.439
| 23> S 	 10.825 	 -15.044 	 95.612
| 24> C 	 9.14162 	 -15.2682 	 95.2741
| 25> C 	 8.68022 	 -14.3022 	 94.4347
| 26> C 	 9.72695 	 -13.5078 	 93.8416
| 27> C 	 11.0112 	 -13.7768 	 94.4137
| 28> H 	 7.58388 	 -14.2066 	 94.2248
| 29> C 	 9.5674 	 -12.4151 	 92.8099
| 30> H 	 9.84999 	 -12.7392 	 91.7867
| 31> H 	 10.185 	 -11.5282 	 92.9779
| 32> C 	 8.10158 	 -11.8657 	 92.7405
| 33> H 	 7.61742 	 -12.0179 	 93.7506
| 34> H 	 7.5612 	 -12.4364 	 91.9919
| 35> C 	 7.99234 	 -10.4163 	 92.3091
| 36> H 	 8.49726 	 -10.2993 	 91.3715
| 37> H 	 8.39613 	 -9.743 	 93.0013
| 38> H 	 7.01695 	 -10.147 	 92.1113
| 39> H 	 15.7396 	 -12.5603 	 94.7203
| 40> H 	 8.41263 	 -15.8731 	 95.8407
| 41> *
| 42>
| 43>                          ****END OF INPUT****

CARTESIAN COORDINATES (ANGSTROEM)
---------------------------------
  S     13.782000  -14.054600   94.541300
  C     14.675600  -12.609500   94.748500
  C     13.861700  -11.516600   94.903800
  C     12.490100  -11.833600   94.686000
  C     12.281600  -13.155700   94.387100
  H     11.720600  -11.118500   94.926000
  C     14.289500  -10.082600   95.152800
  H     14.014800   -9.504290   94.291700
  H     15.401100   -9.986870   95.295500
  C     13.507600   -9.466430   96.290500
  H     13.873800   -8.366990   96.404300
  H     12.468900   -9.166660   96.093500
  C     13.524900  -10.170900   97.572500
  H     12.970600  -11.176000   97.519200
  H     14.571600  -10.345800   97.859300
  H     13.184500   -9.593490   98.439000
  S     10.825000  -15.044000   95.612000
  C      9.141620  -15.268200   95.274100
  C      8.680220  -14.302200   94.434700
  C      9.726950  -13.507800   93.841600
  C     11.011200  -13.776800   94.413700
  H      7.583880  -14.206600   94.224800
  C      9.567400  -12.415100   92.809900
  H      9.849990  -12.739200   91.786700
  H     10.185000  -11.528200   92.977900
  C      8.101580  -11.865700   92.740500
  H      7.617420  -12.017900   93.750600
  H      7.561200  -12.436400   91.991900
  C      7.992340  -10.416300   92.309100
  H      8.497260  -10.299300   91.371500
  H      8.396130   -9.743000   93.001300
  H      7.016950  -10.147000   92.111300
  H     15.739600  -12.560300   94.720300
  H      8.412630  -15.873100   95.840700

 Total Charge           Charge          ....    0
 Multiplicity           Mult            ....    1
 Number of Electrons    NEL             ....  134
 Basis Dimension        Dim             ....  322

ORBITAL ENERGIES
----------------

  NO   OCC          E(Eh)            E(eV)
   0   2.0000     -88.967351     -2420.9247
   1   2.0000     -88.962410     -2420.7902
   2   2.0000     -10.327334      -281.0210
   3   2.0000     -10.325605      -280.9740
   4   2.0000     -10.313118      -280.6342
   5   2.0000     -10.309962      -280.5483
   6   2.0000     -10.307626      -280.4848
   7   2.0000     -10.297687      -280.2143
   8   2.0000     -10.296373      -280.1785
   9   2.0000     -10.296024      -280.1691
  10   2.0000     -10.291888      -280.0565
  11   2.0000     -10.291655      -280.0502
  12   2.0000     -10.289841      -280.0008
  13   2.0000     -10.286173      -279.9010
  14   2.0000     -10.276823      -279.6466
  15   2.0000     -10.264322      -279.3064
  16   2.0000      -8.082751      -219.9428
  17   2.0000      -8.077435      -219.7982
  18   2.0000      -6.041293      -164.3919
  19   2.0000      -6.037223      -164.2812
  20   2.0000      -6.035920      -164.2457
  21   2.0000      -6.033366      -164.1762
  22   2.0000      -6.031801      -164.1336
  23   2.0000      -6.028282      -164.0379
  24   2.0000      -1.013148       -27.5692
  25   2.0000      -0.986038       -26.8314
  26   2.0000      -0.920993       -25.0615
  27   2.0000      -0.906537       -24.6681
  28   2.0000      -0.878603       -23.9080
  29   2.0000      -0.853535       -23.2259
  30   2.0000      -0.846122       -23.0242
  31   2.0000      -0.817006       -22.2319
  32   2.0000      -0.785233       -21.3673
  33   2.0000      -0.771743       -21.0002
  34   2.0000      -0.710676       -19.3385
  35   2.0000      -0.698909       -19.0183
  36   2.0000      -0.690401       -18.7868
  37   2.0000      -0.648291       -17.6409
  38   2.0000      -0.635516       -17.2933
  39   2.0000      -0.629915       -17.1409
  40   2.0000      -0.599164       -16.3041
  41   2.0000      -0.568917       -15.4810
  42   2.0000      -0.566208       -15.4073
  43   2.0000      -0.562330       -15.3018
  44   2.0000      -0.536700       -14.6043
  45   2.0000      -0.522140       -14.2082
  46   2.0000      -0.520728       -14.1697
  47   2.0000      -0.515119       -14.0171
  48   2.0000      -0.507743       -13.8164
  49   2.0000      -0.499834       -13.6012
  50   2.0000      -0.491809       -13.3828
  51   2.0000      -0.479354       -13.0439
  52   2.0000      -0.472977       -12.8703
  53   2.0000      -0.468428       -12.7466
  54   2.0000      -0.459494       -12.5035
  55   2.0000      -0.454501       -12.3676
  56   2.0000      -0.446502       -12.1499
  57   2.0000      -0.442011       -12.0277
  58   2.0000      -0.428825       -11.6689
  59   2.0000      -0.423731       -11.5303
  60   2.0000      -0.419537       -11.4162
  61   2.0000      -0.410159       -11.1610
  62   2.0000      -0.398518       -10.8442
  63   2.0000      -0.355405        -9.6710
  64   2.0000      -0.328950        -8.9512
  65   2.0000      -0.327194        -8.9034
  66   2.0000      -0.285937        -7.7807
  67   0.0000       0.026606         0.7240
  68   0.0000       0.070073         1.9068
  69   0.0000       0.108542         2.9536
  70   0.0000       0.123860         3.3704
  71   0.0000       0.133399         3.6300

MULLIKEN ATOMIC CHARGES
-----------------------
   0 S :    0.115841
   1 C :   -0.111805
   2 C :   -0.106623
   3 C :    0.020226
   4 C :   -0.134468
   5 H :    0.021532
   6 C :    0.125746
   7 H :    0.031973
   8 H :    0.032055
   9 C :   -0.148242
  10 H :    0.027711
  11 H :    0.025660
  12 C :   -0.042507
  13 H :    0.059658
  14 H :    0.018153
  15 H :    0.032766
  16 S :    0.097719
  17 C :   -0.079874
  18 C :   -0.073176
  19 C :   -0.046912
  20 C :   -0.141480
  21 H :    0.044615
  22 C :    0.069435
  23 H :    0.042393
  24 H :    0.021240
  25 C :   -0.143445
  26 H :    0.043168
  27 H :    0.030658
  28 C :    0.019394
  29 H :    0.016133
  30 H :    0.021849
  31 H :    0.010513
  32 H :    0.035769
  33 H :    0.064325
Sum of atomic charges:   -0.0000000

LOEWDIN ATOMIC CHARGES
----------------------
   0 S :    0.419743
   1 C :   -0.200659
   2 C :   -0.066591
   3 C :   -0.051520
   4 C :   -0.198286
   5 H :    0.031163
   6 C :   -0.028273
   7 H :    0.034913
   8 H :    0.035783
   9 C :   -0.064511
  10 H :    0.033650
  11 H :    0.021902
  12 C :   -0.076410
  13 H :    0.038611
  14 H :    0.024264
  15 H :    0.028900
  16 S :    0.411918
  17 C :   -0.204326
  18 C :   -0.082134
  19 C :   -0.059973
  20 C :   -0.192794
  21 H :    0.041460
  22 C :   -0.036032
  23 H :    0.037827
  24 H :    0.027318
  25 C :   -0.043323
  26 H :    0.026690
  27 H :    0.022155
  28 C :   -0.053915
  29 H :    0.024647
  30 H :    0.017366
  31 H :    0.017858
  32 H :    0.023701
  33 H :    0.038876

  Mayer bond orders larger than 0.100000
B(  0-S ,  1-C ) :   1.1407 B(  0-S ,  4-C ) :   1.1487 B(  1-C ,  2-C ) :   1.6071
B(  1-C , 32-H ) :   0.9713 B(  2-C ,  3-C ) :   1.2561 B(  2-C ,  6-C ) :   1.0236
B(  3-C ,  4-C ) :   1.5445 B(  3-C ,  5-H ) :   0.9877 B(  4-C , 20-C ) :   1.0766
B(  6-C ,  7-H ) :   0.9316 B(  6-C ,  8-H ) :   0.9438 B(  6-C ,  9-C ) :   1.0707
B(  9-C , 10-H ) :   0.9443 B(  9-C , 11-H ) :   0.9466 B(  9-C , 12-C ) :   1.0938
B( 12-C , 13-H ) :   0.9621 B( 12-C , 14-H ) :   0.9709 B( 12-C , 15-H ) :   0.9682
B( 16-S , 17-C ) :   1.1528 B( 16-S , 20-C ) :   1.1525 B( 17-C , 18-C ) :   1.6137
B( 17-C , 33-H ) :   0.9561 B( 18-C , 19-C ) :   1.2611 B( 18-C , 21-H ) :   0.9760
B( 19-C , 20-C ) :   1.5594 B( 19-C , 22-C ) :   1.0393 B( 22-C , 23-H ) :   0.9227
B( 22-C , 24-H ) :   0.9492 B( 22-C , 25-C ) :   1.0545 B( 25-C , 26-H ) :   0.9606
B( 25-C , 27-H ) :   0.9519 B( 25-C , 28-C ) :   1.1009 B( 28-C , 29-H ) :   0.9674
B( 28-C , 30-H ) :   0.9727 B( 28-C , 31-H ) :   0.9677

Dispersion correction           -0.014155358
FINAL SINGLE POINT ENERGY     -1339.871158526811

DIPOLE MOMENT
-------------
                                X             Y             Z
Electronic contribution:      8.46769     -25.51350       1.58624
Nuclear contribution   :     -8.68139      26.28233      -1.57669
                        -----------------------------------------
Total Dipole Moment    :     -0.21370       0.76883       0.00955
                        -----------------------------------------
Magnitude (a.u.)       :      0.79804
Magnitude (Debye)      :      2.02845

Rotational constants in cm-1:     0.016703     0.009501     0.007318
Rotational constants in MHz :   500.756762   284.845176   219.387397

                             ****ORCA TERMINATED NORMALLY****
TOTAL RUN TIME: 0 days 0 hours 0 minutes 35 seconds 55 msec
