                         Program Version 4.2.1 -  RELEASE  -
|  1> ! wB97X-D3 SP def2-SVP
|  2> %pal
|  3> nprocs 16
|  4> end
|  5>
|  6> * xyz 0 1
|  7> S 	 5.12779 	 -9.19593 	 70.6414
|  8> C 	 4.51336 	 -8.26689 	 69.2467
|  9> C 	 4.69734 	 -6.87801 	 69.4202
| 10> C 	 5.18543 	 -6.58787 	 70.7127
| 11> C 	 5.60607 	 -7.69354 	 71.3871
| 12> H 	 5.26252 	 -5.64888 	 71.2965
| 13> C 	 4.12347 	 -5.75801 	 68.5591
| 14> H 	 3.55219 	 -6.25465 	 67.7336
| 15> H 	 4.94439 	 -5.18837 	 68.1494
| 16> C 	 3.16459 	 -4.75499 	 69.1784
| 17> H 	 3.72421 	 -4.16569 	 69.9295
| 18> H 	 2.60563 	 -4.19522 	 68.4193
| 19> C 	 2.12621 	 -5.58473 	 69.9759
| 20> H 	 1.46498 	 -4.89607 	 70.4492
| 21> H 	 1.53765 	 -6.20155 	 69.2906
| 22> H 	 2.56919 	 -6.15708 	 70.7456
| 23> S 	 5.4105 	 -8.33854 	 73.9729
| 24> C 	 6.73078 	 -8.07657 	 75.0297
| 25> C 	 7.78424 	 -7.33163 	 74.5042
| 26> C 	 7.51765 	 -7.03109 	 73.139
| 27> C 	 6.30979 	 -7.60933 	 72.6555
| 28> H 	 8.81047 	 -7.20115 	 74.9564
| 29> C 	 8.64546 	 -6.49699 	 72.2533
| 30> H 	 8.40004 	 -6.56707 	 71.1712
| 31> H 	 9.40795 	 -7.22155 	 72.426
| 32> C 	 9.15178 	 -5.12404 	 72.7554
| 33> H 	 9.84249 	 -4.71695 	 72.0432
| 34> H 	 9.81434 	 -5.42037 	 73.5857
| 35> C 	 8.07164 	 -4.07533 	 73.0068
| 36> H 	 7.97972 	 -3.3884 	 72.1451
| 37> H 	 8.346 	 -3.48261 	 73.813
| 38> H 	 7.0389 	 -4.42943 	 73.1719
| 39> H 	 4.1138 	 -8.7316 	 68.3584
| 40> H 	 6.76675 	 -8.43222 	 76.0559
| 41> *
| 42>
| 43>                          ****END OF INPUT****

CARTESIAN COORDINATES (ANGSTROEM)
---------------------------------
  S      5.127790   -9.195930   70.641400
  C      4.513360   -8.266890   69.246700
  C      4.697340   -6.878010   69.420200
  C      5.185430   -6.587870   70.712700
  C      5.606070   -7.693540   71.387100
  H      5.262520   -5.648880   71.296500
  C      4.123470   -5.758010   68.559100
  H      3.552190   -6.254650   67.733600
  H      4.944390   -5.188370   68.149400
  C      3.164590   -4.754990   69.178400
  H      3.724210   -4.165690   69.929500
  H      2.605630   -4.195220   68.419300
  C      2.126210   -5.584730   69.975900
  H      1.464980   -4.896070   70.449200
  H      1.537650   -6.201550   69.290600
  H      2.569190   -6.157080   70.745600
  S      5.410500   -8.338540   73.972900
  C      6.730780   -8.076570   75.029700
  C      7.784240   -7.331630   74.504200
  C      7.517650   -7.031090   73.139000
  C      6.309790   -7.609330   72.655500
  H      8.810470   -7.201150   74.956400
  C      8.645460   -6.496990   72.253300
  H      8.400040   -6.567070   71.171200
  H      9.407950   -7.221550   72.426000
  C      9.151780   -5.124040   72.755400
  H      9.842490   -4.716950   72.043200
  H      9.814340   -5.420370   73.585700
  C      8.071640   -4.075330   73.006800
  H      7.979720   -3.388400   72.145100
  H      8.346000   -3.482610   73.813000
  H      7.038900   -4.429430   73.171900
  H      4.113800   -8.731600   68.358400
  H      6.766750   -8.432220   76.055900

 Total Charge           Charge          ....    0
 Multiplicity           Mult            ....    1
 Number of Electrons    NEL             ....  134
 Basis Dimension        Dim             ....  322

ORBITAL ENERGIES
----------------

  NO   OCC          E(Eh)            E(eV)
   0   2.0000     -88.969716     -2420.9891
   1   2.0000     -88.965377     -2420.8710
   2   2.0000     -10.324094      -280.9329
   3   2.0000     -10.323411      -280.9143
   4   2.0000     -10.320361      -280.8313
   5   2.0000     -10.316564      -280.7280
   6   2.0000     -10.306737      -280.4606
   7   2.0000     -10.305133      -280.4169
   8   2.0000     -10.298250      -280.2296
   9   2.0000     -10.290355      -280.0148
  10   2.0000     -10.290141      -280.0090
  11   2.0000     -10.288637      -279.9681
  12   2.0000     -10.288635      -279.9680
  13   2.0000     -10.286529      -279.9107
  14   2.0000     -10.273084      -279.5448
  15   2.0000     -10.264421      -279.3091
  16   2.0000      -8.083903      -219.9742
  17   2.0000      -8.080898      -219.8924
  18   2.0000      -6.042349      -164.4207
  19   2.0000      -6.039170      -164.3342
  20   2.0000      -6.038621      -164.3192
  21   2.0000      -6.035285      -164.2285
  22   2.0000      -6.034631      -164.2107
  23   2.0000      -6.031880      -164.1358
  24   2.0000      -1.007013       -27.4022
  25   2.0000      -0.983256       -26.7557
  26   2.0000      -0.914529       -24.8856
  27   2.0000      -0.909003       -24.7352
  28   2.0000      -0.866075       -23.5671
  29   2.0000      -0.849350       -23.1120
  30   2.0000      -0.844573       -22.9820
  31   2.0000      -0.809231       -22.0203
  32   2.0000      -0.784614       -21.3504
  33   2.0000      -0.772203       -21.0127
  34   2.0000      -0.707048       -19.2398
  35   2.0000      -0.693897       -18.8819
  36   2.0000      -0.690427       -18.7875
  37   2.0000      -0.656430       -17.8624
  38   2.0000      -0.639655       -17.4059
  39   2.0000      -0.617811       -16.8115
  40   2.0000      -0.590118       -16.0579
  41   2.0000      -0.561825       -15.2880
  42   2.0000      -0.555725       -15.1221
  43   2.0000      -0.554643       -15.0926
  44   2.0000      -0.544901       -14.8275
  45   2.0000      -0.542534       -14.7631
  46   2.0000      -0.515349       -14.0233
  47   2.0000      -0.510115       -13.8809
  48   2.0000      -0.499724       -13.5982
  49   2.0000      -0.492831       -13.4106
  50   2.0000      -0.487677       -13.2704
  51   2.0000      -0.477512       -12.9938
  52   2.0000      -0.465965       -12.6796
  53   2.0000      -0.460963       -12.5435
  54   2.0000      -0.460093       -12.5198
  55   2.0000      -0.451201       -12.2778
  56   2.0000      -0.447988       -12.1904
  57   2.0000      -0.437663       -11.9094
  58   2.0000      -0.433142       -11.7864
  59   2.0000      -0.421160       -11.4604
  60   2.0000      -0.419881       -11.4255
  61   2.0000      -0.412723       -11.2308
  62   2.0000      -0.410401       -11.1676
  63   2.0000      -0.338847        -9.2205
  64   2.0000      -0.331538        -9.0216
  65   2.0000      -0.328896        -8.9497
  66   2.0000      -0.292832        -7.9684
  67   0.0000       0.031357         0.8533
  68   0.0000       0.065453         1.7811
  69   0.0000       0.111747         3.0408
  70   0.0000       0.115639         3.1467
  71   0.0000       0.127650         3.4735

MULLIKEN ATOMIC CHARGES
-----------------------
   0 S :    0.120501
   1 C :   -0.124662
   2 C :   -0.081494
   3 C :    0.007960
   4 C :   -0.155066
   5 H :    0.033460
   6 C :    0.073052
   7 H :    0.018512
   8 H :    0.033369
   9 C :   -0.091534
  10 H :    0.034613
  11 H :    0.045707
  12 C :   -0.031814
  13 H :    0.017891
  14 H :    0.023345
  15 H :    0.037151
  16 S :    0.114148
  17 C :   -0.084838
  18 C :   -0.062538
  19 C :   -0.034436
  20 C :   -0.205655
  21 H :    0.049411
  22 C :    0.053261
  23 H :    0.038756
  24 H :    0.027679
  25 C :   -0.080676
  26 H :    0.025440
  27 H :    0.025110
  28 C :   -0.028847
  29 H :    0.027964
  30 H :    0.021672
  31 H :    0.046279
  32 H :    0.049443
  33 H :    0.056837
Sum of atomic charges:    0.0000000

LOEWDIN ATOMIC CHARGES
----------------------
   0 S :    0.396922
   1 C :   -0.185897
   2 C :   -0.059608
   3 C :   -0.070022
   4 C :   -0.205756
   5 H :    0.041108
   6 C :   -0.035800
   7 H :    0.030280
   8 H :    0.028619
   9 C :   -0.037777
  10 H :    0.023853
  11 H :    0.032062
  12 C :   -0.057117
  13 H :    0.018059
  14 H :    0.023268
  15 H :    0.020857
  16 S :    0.423289
  17 C :   -0.192164
  18 C :   -0.084569
  19 C :   -0.049393
  20 C :   -0.207220
  21 H :    0.044910
  22 C :   -0.029457
  23 H :    0.031540
  24 H :    0.029525
  25 C :   -0.044290
  26 H :    0.024843
  27 H :    0.023886
  28 C :   -0.065369
  29 H :    0.030043
  30 H :    0.020265
  31 H :    0.028731
  32 H :    0.025270
  33 H :    0.027110

  Mayer bond orders larger than 0.100000
B(  0-S ,  1-C ) :   1.1301 B(  0-S ,  4-C ) :   1.1490 B(  1-C ,  2-C ) :   1.6081
B(  1-C , 32-H ) :   0.9675 B(  2-C ,  3-C ) :   1.2099 B(  2-C ,  6-C ) :   1.0266
B(  3-C ,  4-C ) :   1.5996 B(  3-C ,  5-H ) :   0.9868 B(  4-C , 20-C ) :   1.0266
B(  6-C ,  7-H ) :   0.9458 B(  6-C ,  8-H ) :   0.9307 B(  6-C ,  9-C ) :   1.0775
B(  9-C , 10-H ) :   0.9468 B(  9-C , 11-H ) :   0.9566 B(  9-C , 12-C ) :   1.0872
B( 12-C , 13-H ) :   0.9733 B( 12-C , 14-H ) :   0.9765 B( 12-C , 15-H ) :   0.9704
B( 16-S , 17-C ) :   1.1800 B( 16-S , 20-C ) :   1.1515 B( 17-C , 18-C ) :   1.5969
B( 17-C , 20-C ) :   0.1046 B( 17-C , 33-H ) :   0.9636 B( 18-C , 19-C ) :   1.2507
B( 18-C , 21-H ) :   0.9771 B( 19-C , 20-C ) :   1.5781 B( 19-C , 22-C ) :   1.0299
B( 22-C , 23-H ) :   0.9471 B( 22-C , 24-H ) :   0.9459 B( 22-C , 25-C ) :   1.0625
B( 25-C , 26-H ) :   0.9570 B( 25-C , 27-H ) :   0.9602 B( 25-C , 28-C ) :   1.0638
B( 28-C , 29-H ) :   0.9763 B( 28-C , 30-H ) :   0.9727 B( 28-C , 31-H ) :   0.9736

Dispersion correction           -0.015274149
FINAL SINGLE POINT ENERGY     -1339.865053783478

DIPOLE MOMENT
-------------
                                X             Y             Z
Electronic contribution:     -1.66726     -22.47694       6.93781
Nuclear contribution   :      1.90899      22.91469      -7.02719
                        -----------------------------------------
Total Dipole Moment    :      0.24173       0.43775      -0.08938
                        -----------------------------------------
Magnitude (a.u.)       :      0.50799
Magnitude (Debye)      :      1.29120

Rotational constants in cm-1:     0.018793     0.009383     0.007694
Rotational constants in MHz :   563.395729   281.294264   230.648223

                             ****ORCA TERMINATED NORMALLY****
TOTAL RUN TIME: 0 days 0 hours 0 minutes 36 seconds 794 msec
