                         Program Version 4.2.1 -  RELEASE  -
|  1> ! wB97X-D3 SP def2-SVP
|  2> %pal
|  3> nprocs 16
|  4> end
|  5>
|  6> * xyz 0 1
|  7> S 	 0.443171 	 -20.404 	 87.3792
|  8> C 	 0.410074 	 -22.0817 	 87.8379
|  9> C 	 1.68831 	 -22.6502 	 88.1172
| 10> C 	 2.68663 	 -21.6554 	 87.8564
| 11> C 	 2.16576 	 -20.4594 	 87.4612
| 12> H 	 3.71473 	 -21.8604 	 87.7389
| 13> C 	 1.98802 	 -24.0881 	 88.3072
| 14> H 	 2.8088 	 -24.4241 	 87.6462
| 15> H 	 1.15433 	 -24.6895 	 87.9923
| 16> C 	 2.35659 	 -24.4397 	 89.6975
| 17> H 	 2.62514 	 -25.478 	 89.8444
| 18> H 	 3.25418 	 -23.7584 	 89.9437
| 19> C 	 1.2032 	 -24.324 	 90.6525
| 20> H 	 0.540947 	 -25.1619 	 90.4995
| 21> H 	 1.55094 	 -24.4075 	 91.6038
| 22> H 	 0.668719 	 -23.4451 	 90.469
| 23> S 	 3.05283 	 -19.1071 	 85.1702
| 24> C 	 4.37488 	 -17.8589 	 85.2949
| 25> C 	 4.62579 	 -17.5784 	 86.6403
| 26> C 	 3.89541 	 -18.4695 	 87.5812
| 27> C 	 2.94426 	 -19.2966 	 86.9848
| 28> H 	 5.41784 	 -16.8503 	 86.8288
| 29> C 	 4.0615 	 -18.5853 	 89.1301
| 30> H 	 4.7991 	 -17.8442 	 89.4114
| 31> H 	 4.34488 	 -19.4911 	 89.4883
| 32> C 	 2.85025 	 -18.1975 	 89.9305
| 33> H 	 2.05193 	 -18.9376 	 89.7102
| 34> H 	 2.43179 	 -17.2348 	 89.5066
| 35> C 	 3.19774 	 -18.0917 	 91.4807
| 36> H 	 2.33985 	 -17.7756 	 92.055
| 37> H 	 4.13017 	 -17.515 	 91.7245
| 38> H 	 3.39304 	 -19.1355 	 91.7412
| 39> H 	 -0.502135 	 -22.6764 	 87.8447
| 40> H 	 4.74622 	 -17.4142 	 84.4077
| 41> *
| 42>
| 43>                          ****END OF INPUT****

CARTESIAN COORDINATES (ANGSTROEM)
---------------------------------
  S      0.443171  -20.404000   87.379200
  C      0.410074  -22.081700   87.837900
  C      1.688310  -22.650200   88.117200
  C      2.686630  -21.655400   87.856400
  C      2.165760  -20.459400   87.461200
  H      3.714730  -21.860400   87.738900
  C      1.988020  -24.088100   88.307200
  H      2.808800  -24.424100   87.646200
  H      1.154330  -24.689500   87.992300
  C      2.356590  -24.439700   89.697500
  H      2.625140  -25.478000   89.844400
  H      3.254180  -23.758400   89.943700
  C      1.203200  -24.324000   90.652500
  H      0.540947  -25.161900   90.499500
  H      1.550940  -24.407500   91.603800
  H      0.668719  -23.445100   90.469000
  S      3.052830  -19.107100   85.170200
  C      4.374880  -17.858900   85.294900
  C      4.625790  -17.578400   86.640300
  C      3.895410  -18.469500   87.581200
  C      2.944260  -19.296600   86.984800
  H      5.417840  -16.850300   86.828800
  C      4.061500  -18.585300   89.130100
  H      4.799100  -17.844200   89.411400
  H      4.344880  -19.491100   89.488300
  C      2.850250  -18.197500   89.930500
  H      2.051930  -18.937600   89.710200
  H      2.431790  -17.234800   89.506600
  C      3.197740  -18.091700   91.480700
  H      2.339850  -17.775600   92.055000
  H      4.130170  -17.515000   91.724500
  H      3.393040  -19.135500   91.741200
  H     -0.502135  -22.676400   87.844700
  H      4.746220  -17.414200   84.407700

 Total Charge           Charge          ....    0
 Multiplicity           Mult            ....    1
 Number of Electrons    NEL             ....  134
 Basis Dimension        Dim             ....  322

ORBITAL ENERGIES
----------------

  NO   OCC          E(Eh)            E(eV)
   0   2.0000     -88.974088     -2421.1080
   1   2.0000     -88.957904     -2420.6676
   2   2.0000     -10.331832      -281.1434
   3   2.0000     -10.329103      -281.0692
   4   2.0000     -10.327569      -281.0274
   5   2.0000     -10.320419      -280.8329
   6   2.0000     -10.316777      -280.7338
   7   2.0000     -10.309588      -280.5382
   8   2.0000     -10.306743      -280.4607
   9   2.0000     -10.293351      -280.0963
  10   2.0000     -10.287971      -279.9499
  11   2.0000     -10.285561      -279.8844
  12   2.0000     -10.283504      -279.8284
  13   2.0000     -10.282591      -279.8035
  14   2.0000     -10.281578      -279.7760
  15   2.0000     -10.258357      -279.1441
  16   2.0000      -8.089035      -220.1138
  17   2.0000      -8.070983      -219.6226
  18   2.0000      -6.047318      -164.5559
  19   2.0000      -6.043598      -164.4547
  20   2.0000      -6.039930      -164.3548
  21   2.0000      -6.029670      -164.0757
  22   2.0000      -6.025706      -163.9678
  23   2.0000      -6.021659      -163.8577
  24   2.0000      -1.005857       -27.3707
  25   2.0000      -0.969280       -26.3754
  26   2.0000      -0.927259       -25.2320
  27   2.0000      -0.903815       -24.5940
  28   2.0000      -0.865391       -23.5485
  29   2.0000      -0.858182       -23.3523
  30   2.0000      -0.831674       -22.6310
  31   2.0000      -0.815483       -22.1904
  32   2.0000      -0.787369       -21.4254
  33   2.0000      -0.770648       -20.9704
  34   2.0000      -0.705710       -19.2033
  35   2.0000      -0.691603       -18.8195
  36   2.0000      -0.685451       -18.6521
  37   2.0000      -0.660981       -17.9862
  38   2.0000      -0.647339       -17.6150
  39   2.0000      -0.626308       -17.0427
  40   2.0000      -0.595224       -16.1969
  41   2.0000      -0.578341       -15.7374
  42   2.0000      -0.565903       -15.3990
  43   2.0000      -0.554495       -15.0886
  44   2.0000      -0.552676       -15.0391
  45   2.0000      -0.520139       -14.1537
  46   2.0000      -0.517725       -14.0880
  47   2.0000      -0.514251       -13.9935
  48   2.0000      -0.496415       -13.5082
  49   2.0000      -0.492009       -13.3883
  50   2.0000      -0.488986       -13.3060
  51   2.0000      -0.482383       -13.1263
  52   2.0000      -0.469244       -12.7688
  53   2.0000      -0.466321       -12.6892
  54   2.0000      -0.460709       -12.5365
  55   2.0000      -0.454018       -12.3544
  56   2.0000      -0.443005       -12.0548
  57   2.0000      -0.435929       -11.8622
  58   2.0000      -0.431211       -11.7338
  59   2.0000      -0.420845       -11.4518
  60   2.0000      -0.416048       -11.3212
  61   2.0000      -0.411778       -11.2051
  62   2.0000      -0.404826       -11.0159
  63   2.0000      -0.343077        -9.3356
  64   2.0000      -0.329523        -8.9668
  65   2.0000      -0.322604        -8.7785
  66   2.0000      -0.305136        -8.3032
  67   0.0000       0.033963         0.9242
  68   0.0000       0.054131         1.4730
  69   0.0000       0.108006         2.9390
  70   0.0000       0.114182         3.1071
  71   0.0000       0.119896         3.2625

MULLIKEN ATOMIC CHARGES
-----------------------
   0 S :    0.143825
   1 C :   -0.118700
   2 C :   -0.103369
   3 C :    0.073026
   4 C :   -0.194807
   5 H :    0.008187
   6 C :    0.076096
   7 H :    0.037103
   8 H :    0.006783
   9 C :   -0.103373
  10 H :    0.024652
  11 H :    0.032111
  12 C :    0.028631
  13 H :    0.012023
  14 H :    0.011287
  15 H :    0.015913
  16 S :    0.058689
  17 C :   -0.099159
  18 C :   -0.014211
  19 C :   -0.046929
  20 C :   -0.133947
  21 H :    0.034691
  22 C :    0.133090
  23 H :    0.004083
  24 H :   -0.001875
  25 C :   -0.129286
  26 H :    0.042501
  27 H :    0.031853
  28 C :   -0.053381
  29 H :    0.043581
  30 H :    0.043726
  31 H :    0.027008
  32 H :    0.050803
  33 H :    0.059372
Sum of atomic charges:   -0.0000000

LOEWDIN ATOMIC CHARGES
----------------------
   0 S :    0.434545
   1 C :   -0.199073
   2 C :   -0.055673
   3 C :   -0.048514
   4 C :   -0.207790
   5 H :    0.029481
   6 C :   -0.037932
   7 H :    0.038415
   8 H :    0.026266
   9 C :   -0.043747
  10 H :    0.023366
  11 H :    0.027693
  12 C :   -0.048177
  13 H :    0.024908
  14 H :    0.014726
  15 H :    0.015108
  16 S :    0.332338
  17 C :   -0.147858
  18 C :   -0.072963
  19 C :   -0.044125
  20 C :   -0.179392
  21 H :    0.036749
  22 C :   -0.024144
  23 H :    0.026667
  24 H :    0.013445
  25 C :   -0.043586
  26 H :    0.022380
  27 H :    0.023277
  28 C :   -0.067609
  29 H :    0.026449
  30 H :    0.030472
  31 H :    0.026054
  32 H :    0.024922
  33 H :    0.023322

  Mayer bond orders larger than 0.100000
B(  0-S ,  1-C ) :   1.1562 B(  0-S ,  4-C ) :   1.1582 B(  1-C ,  2-C ) :   1.5893
B(  1-C , 32-H ) :   0.9648 B(  2-C ,  3-C ) :   1.2368 B(  2-C ,  6-C ) :   1.0318
B(  3-C ,  4-C ) :   1.6006 B(  3-C ,  5-H ) :   0.9942 B(  4-C , 20-C ) :   0.9936
B(  6-C ,  7-H ) :   0.9403 B(  6-C ,  8-H ) :   0.9360 B(  6-C ,  9-C ) :   1.0762
B(  9-C , 10-H ) :   0.9545 B(  9-C , 11-H ) :   0.9549 B(  9-C , 12-C ) :   1.0777
B( 12-C , 13-H ) :   0.9696 B( 12-C , 14-H ) :   0.9688 B( 12-C , 15-H ) :   0.9744
B( 16-S , 17-C ) :   1.1422 B( 16-S , 20-C ) :   1.1075 B( 17-C , 18-C ) :   1.6350
B( 17-C , 33-H ) :   0.9723 B( 18-C , 19-C ) :   1.1948 B( 18-C , 21-H ) :   0.9880
B( 19-C , 20-C ) :   1.6400 B( 19-C , 22-C ) :   1.0353 B( 22-C , 23-H ) :   0.9336
B( 22-C , 24-H ) :   0.9361 B( 22-C , 25-C ) :   1.0593 B( 25-C , 26-H ) :   0.9538
B( 25-C , 27-H ) :   0.9575 B( 25-C , 28-C ) :   1.0655 B( 28-C , 29-H ) :   0.9760
B( 28-C , 30-H ) :   0.9767 B( 28-C , 31-H ) :   0.9747

Dispersion correction           -0.014732697
FINAL SINGLE POINT ENERGY     -1339.856404757802

DIPOLE MOMENT
-------------
                                X             Y             Z
Electronic contribution:     -4.06135      10.18709     -24.51331
Nuclear contribution   :      4.39174     -10.54496      24.80831
                        -----------------------------------------
Total Dipole Moment    :      0.33039      -0.35787       0.29500
                        -----------------------------------------
Magnitude (a.u.)       :      0.56943
Magnitude (Debye)      :      1.44737

Rotational constants in cm-1:     0.018599     0.008968     0.007272
Rotational constants in MHz :   557.572762   268.846307   218.005752

                             ****ORCA TERMINATED NORMALLY****
TOTAL RUN TIME: 0 days 0 hours 0 minutes 34 seconds 428 msec
