                         Program Version 4.2.1 -  RELEASE  -
|  1> ! wB97X-D3 SP def2-SVP
|  2> %pal
|  3> nprocs 16
|  4> end
|  5>
|  6> * xyz 0 1
|  7> S 	 -0.141607 	 -4.86013 	 89.9241
|  8> C 	 1.2812 	 -4.89779 	 90.9524
|  9> C 	 1.02686 	 -5.51428 	 92.1427
| 10> C 	 -0.324777 	 -5.93676 	 92.2842
| 11> C 	 -1.10326 	 -5.62882 	 91.1539
| 12> H 	 -0.715151 	 -6.39163 	 93.1683
| 13> C 	 2.06609 	 -5.78466 	 93.2231
| 14> H 	 1.88068 	 -4.94343 	 93.9179
| 15> H 	 3.08059 	 -5.63567 	 92.8452
| 16> C 	 2.12509 	 -7.21205 	 93.8917
| 17> H 	 2.63457 	 -7.26071 	 94.8706
| 18> H 	 1.14844 	 -7.48758 	 94.2018
| 19> C 	 2.42144 	 -8.46197 	 92.9926
| 20> H 	 3.46987 	 -8.37552 	 92.5505
| 21> H 	 2.40592 	 -9.36603 	 93.6448
| 22> H 	 1.70578 	 -8.5291 	 92.1518
| 23> S 	 -3.80528 	 -4.97264 	 90.3466
| 24> C 	 -4.86078 	 -6.38343 	 89.8334
| 25> C 	 -4.27289 	 -7.55321 	 90.4088
| 26> C 	 -3.02848 	 -7.38972 	 91.0911
| 27> C 	 -2.47808 	 -6.10768 	 90.8978
| 28> H 	 -4.93358 	 -8.40103 	 90.5003
| 29> C 	 -2.36289 	 -8.63882 	 91.6468
| 30> H 	 -1.30588 	 -8.49163 	 91.7466
| 31> H 	 -2.55035 	 -9.40343 	 90.8566
| 32> C 	 -2.89085 	 -9.14708 	 93.0196
| 33> H 	 -3.96889 	 -9.05833 	 92.9399
| 34> H 	 -2.85755 	 -8.47636 	 93.8329
| 35> C 	 -2.46011 	 -10.5824 	 93.3235
| 36> H 	 -2.92927 	 -11.1128 	 94.151
| 37> H 	 -1.38608 	 -10.5906 	 93.6333
| 38> H 	 -2.58901 	 -11.2194 	 92.4525
| 39> H 	 2.27899 	 -4.66275 	 90.5492
| 40> H 	 -5.85002 	 -6.36806 	 89.4857
| 41> *
| 42>
| 43>                          ****END OF INPUT****

CARTESIAN COORDINATES (ANGSTROEM)
---------------------------------
  S     -0.141607   -4.860130   89.924100
  C      1.281200   -4.897790   90.952400
  C      1.026860   -5.514280   92.142700
  C     -0.324777   -5.936760   92.284200
  C     -1.103260   -5.628820   91.153900
  H     -0.715151   -6.391630   93.168300
  C      2.066090   -5.784660   93.223100
  H      1.880680   -4.943430   93.917900
  H      3.080590   -5.635670   92.845200
  C      2.125090   -7.212050   93.891700
  H      2.634570   -7.260710   94.870600
  H      1.148440   -7.487580   94.201800
  C      2.421440   -8.461970   92.992600
  H      3.469870   -8.375520   92.550500
  H      2.405920   -9.366030   93.644800
  H      1.705780   -8.529100   92.151800
  S     -3.805280   -4.972640   90.346600
  C     -4.860780   -6.383430   89.833400
  C     -4.272890   -7.553210   90.408800
  C     -3.028480   -7.389720   91.091100
  C     -2.478080   -6.107680   90.897800
  H     -4.933580   -8.401030   90.500300
  C     -2.362890   -8.638820   91.646800
  H     -1.305880   -8.491630   91.746600
  H     -2.550350   -9.403430   90.856600
  C     -2.890850   -9.147080   93.019600
  H     -3.968890   -9.058330   92.939900
  H     -2.857550   -8.476360   93.832900
  C     -2.460110  -10.582400   93.323500
  H     -2.929270  -11.112800   94.151000
  H     -1.386080  -10.590600   93.633300
  H     -2.589010  -11.219400   92.452500
  H      2.278990   -4.662750   90.549200
  H     -5.850020   -6.368060   89.485700

 Total Charge           Charge          ....    0
 Multiplicity           Mult            ....    1
 Number of Electrons    NEL             ....  134
 Basis Dimension        Dim             ....  322

ORBITAL ENERGIES
----------------

  NO   OCC          E(Eh)            E(eV)
   0   2.0000     -88.968936     -2420.9678
   1   2.0000     -88.966950     -2420.9138
   2   2.0000     -10.340439      -281.3777
   3   2.0000     -10.336173      -281.2616
   4   2.0000     -10.327351      -281.0215
   5   2.0000     -10.315593      -280.7015
   6   2.0000     -10.309861      -280.5456
   7   2.0000     -10.302827      -280.3542
   8   2.0000     -10.301008      -280.3047
   9   2.0000     -10.299723      -280.2697
  10   2.0000     -10.297175      -280.2004
  11   2.0000     -10.295907      -280.1659
  12   2.0000     -10.293119      -280.0900
  13   2.0000     -10.292116      -280.0627
  14   2.0000     -10.286825      -279.9187
  15   2.0000     -10.284029      -279.8427
  16   2.0000      -8.083692      -219.9685
  17   2.0000      -8.079010      -219.8410
  18   2.0000      -6.042176      -164.4160
  19   2.0000      -6.038156      -164.3066
  20   2.0000      -6.037841      -164.2980
  21   2.0000      -6.034499      -164.2071
  22   2.0000      -6.034091      -164.1960
  23   2.0000      -6.029366      -164.0674
  24   2.0000      -1.001704       -27.2578
  25   2.0000      -0.972652       -26.4672
  26   2.0000      -0.906934       -24.6789
  27   2.0000      -0.903762       -24.5926
  28   2.0000      -0.864265       -23.5179
  29   2.0000      -0.849667       -23.1206
  30   2.0000      -0.843597       -22.9554
  31   2.0000      -0.811483       -22.0816
  32   2.0000      -0.781695       -21.2710
  33   2.0000      -0.771291       -20.9879
  34   2.0000      -0.714857       -19.4523
  35   2.0000      -0.705952       -19.2099
  36   2.0000      -0.695487       -18.9252
  37   2.0000      -0.659631       -17.9495
  38   2.0000      -0.640473       -17.4281
  39   2.0000      -0.622695       -16.9444
  40   2.0000      -0.593677       -16.1548
  41   2.0000      -0.563891       -15.3443
  42   2.0000      -0.559767       -15.2320
  43   2.0000      -0.553936       -15.0734
  44   2.0000      -0.535469       -14.5709
  45   2.0000      -0.521546       -14.1920
  46   2.0000      -0.518295       -14.1035
  47   2.0000      -0.509688       -13.8693
  48   2.0000      -0.505973       -13.7682
  49   2.0000      -0.497799       -13.5458
  50   2.0000      -0.487740       -13.2721
  51   2.0000      -0.483681       -13.1616
  52   2.0000      -0.465633       -12.6705
  53   2.0000      -0.462928       -12.5969
  54   2.0000      -0.458007       -12.4630
  55   2.0000      -0.452357       -12.3093
  56   2.0000      -0.448267       -12.1980
  57   2.0000      -0.444702       -12.1010
  58   2.0000      -0.436820       -11.8865
  59   2.0000      -0.423679       -11.5289
  60   2.0000      -0.419135       -11.4052
  61   2.0000      -0.408544       -11.1170
  62   2.0000      -0.407097       -11.0777
  63   2.0000      -0.342590        -9.3224
  64   2.0000      -0.334906        -9.1133
  65   2.0000      -0.326282        -8.8786
  66   2.0000      -0.292152        -7.9499
  67   0.0000       0.017607         0.4791
  68   0.0000       0.061753         1.6804
  69   0.0000       0.095095         2.5877
  70   0.0000       0.116504         3.1702
  71   0.0000       0.121217         3.2985

MULLIKEN ATOMIC CHARGES
-----------------------
   0 S :    0.121940
   1 C :   -0.140598
   2 C :   -0.089717
   3 C :    0.022353
   4 C :   -0.143372
   5 H :    0.010410
   6 C :    0.075526
   7 H :    0.052929
   8 H :    0.019513
   9 C :   -0.078348
  10 H :    0.035415
  11 H :    0.005596
  12 C :   -0.094418
  13 H :    0.037797
  14 H :    0.046794
  15 H :    0.057345
  16 S :    0.082603
  17 C :   -0.079396
  18 C :   -0.049673
  19 C :   -0.004680
  20 C :   -0.159452
  21 H :    0.028491
  22 C :    0.038264
  23 H :    0.022641
  24 H :    0.040760
  25 C :   -0.036488
  26 H :    0.002683
  27 H :    0.010086
  28 C :   -0.045306
  29 H :    0.034573
  30 H :    0.033577
  31 H :    0.031414
  32 H :    0.059887
  33 H :    0.050851
Sum of atomic charges:   -0.0000000

LOEWDIN ATOMIC CHARGES
----------------------
   0 S :    0.419434
   1 C :   -0.200536
   2 C :   -0.067825
   3 C :   -0.059207
   4 C :   -0.194376
   5 H :    0.027979
   6 C :   -0.031367
   7 H :    0.043252
   8 H :    0.027662
   9 C :   -0.051003
  10 H :    0.031051
  11 H :    0.014161
  12 C :   -0.069143
  13 H :    0.026262
  14 H :    0.032377
  15 H :    0.028749
  16 S :    0.340008
  17 C :   -0.156288
  18 C :   -0.067527
  19 C :   -0.054902
  20 C :   -0.171484
  21 H :    0.029136
  22 C :   -0.025775
  23 H :    0.022798
  24 H :    0.039090
  25 C :   -0.046150
  26 H :    0.022260
  27 H :    0.019755
  28 C :   -0.067785
  29 H :    0.027662
  30 H :    0.029919
  31 H :    0.025815
  32 H :    0.033936
  33 H :    0.022062

  Mayer bond orders larger than 0.100000
B(  0-S ,  1-C ) :   1.1358 B(  0-S ,  4-C ) :   1.1766 B(  1-C ,  2-C ) :   1.6127
B(  1-C , 32-H ) :   0.9637 B(  2-C ,  3-C ) :   1.2525 B(  2-C ,  6-C ) :   1.0059
B(  3-C ,  4-C ) :   1.5311 B(  3-C ,  5-H ) :   1.0037 B(  4-C , 20-C ) :   1.0516
B(  6-C ,  7-H ) :   0.9382 B(  6-C ,  8-H ) :   0.9506 B(  6-C ,  9-C ) :   1.0554
B(  9-C , 10-H ) :   0.9568 B(  9-C , 11-H ) :   0.9544 B(  9-C , 12-C ) :   1.0647
B( 12-C , 13-H ) :   0.9767 B( 12-C , 14-H ) :   0.9739 B( 12-C , 15-H ) :   0.9743
B( 16-S , 17-C ) :   1.1212 B( 16-S , 20-C ) :   1.1251 B( 17-C , 18-C ) :   1.6196
B( 17-C , 20-C ) :   0.1102 B( 17-C , 33-H ) :   0.9725 B( 18-C , 19-C ) :   1.2457
B( 18-C , 21-H ) :   0.9761 B( 19-C , 20-C ) :   1.5668 B( 19-C , 22-C ) :   1.0409
B( 22-C , 23-H ) :   0.9362 B( 22-C , 24-H ) :   0.9443 B( 22-C , 25-C ) :   1.0468
B( 25-C , 26-H ) :   0.9489 B( 25-C , 27-H ) :   0.9497 B( 25-C , 28-C ) :   1.0742
B( 28-C , 29-H ) :   0.9747 B( 28-C , 30-H ) :   0.9750 B( 28-C , 31-H ) :   0.9753

Dispersion correction           -0.014834750
FINAL SINGLE POINT ENERGY     -1339.854226040102

DIPOLE MOMENT
-------------
                                X             Y             Z
Electronic contribution:    -11.32469      24.64456     -18.51778
Nuclear contribution   :     11.49129     -25.31145      19.07100
                        -----------------------------------------
Total Dipole Moment    :      0.16660      -0.66689       0.55322
                        -----------------------------------------
Magnitude (a.u.)       :      0.88235
Magnitude (Debye)      :      2.24276

Rotational constants in cm-1:     0.015965     0.010448     0.006779
Rotational constants in MHz :   478.616713   313.208484   203.242708

                             ****ORCA TERMINATED NORMALLY****
TOTAL RUN TIME: 0 days 0 hours 0 minutes 34 seconds 626 msec
