                         Program Version 4.2.1 -  RELEASE  -
|  1> ! wB97X-D3 SP def2-SVP
|  2> %pal
|  3> nprocs 16
|  4> end
|  5>
|  6> * xyz 0 1
|  7> S 	 -95.8501 	 56.5856 	 130.174
|  8> C 	 -95.31 	 56.7965 	 131.845
|  9> C 	 -95.5746 	 58.0711 	 132.385
| 10> C 	 -96.3803 	 58.7798 	 131.448
| 11> C 	 -96.4307 	 58.2149 	 130.193
| 12> H 	 -96.9064 	 59.6433 	 131.769
| 13> C 	 -95.1809 	 58.5666 	 133.768
| 14> H 	 -95.4904 	 57.7803 	 134.378
| 15> H 	 -95.7105 	 59.5834 	 133.833
| 16> C 	 -93.6469 	 58.723 	 134.03
| 17> H 	 -93.1115 	 57.7875 	 133.996
| 18> H 	 -93.0913 	 59.3216 	 133.312
| 19> C 	 -93.5041 	 59.4137 	 135.385
| 20> H 	 -93.7705 	 58.789 	 136.213
| 21> H 	 -92.4486 	 59.7182 	 135.532
| 22> H 	 -94.157 	 60.2085 	 135.512
| 23> S 	 -98.3682 	 57.8308 	 128.157
| 24> C 	 -98.8381 	 59.1703 	 127.219
| 25> C 	 -98.0648 	 60.2602 	 127.444
| 26> C 	 -97.1729 	 60.1271 	 128.558
| 27> C 	 -97.114 	 58.7851 	 128.974
| 28> H 	 -98.2915 	 61.2025 	 126.984
| 29> C 	 -96.2246 	 61.2858 	 128.926
| 30> H 	 -96.0472 	 61.2892 	 129.935
| 31> H 	 -96.7149 	 62.2283 	 128.938
| 32> C 	 -94.8655 	 61.2597 	 128.184
| 33> H 	 -95.0989 	 61.3545 	 127.128
| 34> H 	 -94.4941 	 60.2436 	 128.339
| 35> C 	 -93.8669 	 62.3642 	 128.521
| 36> H 	 -94.3546 	 63.3219 	 128.457
| 37> H 	 -92.9687 	 62.4579 	 127.864
| 38> H 	 -93.5528 	 62.2012 	 129.519
| 39> H 	 -94.7154 	 56.1107 	 132.427
| 40> H 	 -99.5825 	 59.1291 	 126.432
| 41> *
| 42>
| 43>                          ****END OF INPUT****

CARTESIAN COORDINATES (ANGSTROEM)
---------------------------------
  S    -95.850100   56.585600  130.174000
  C    -95.310000   56.796500  131.845000
  C    -95.574600   58.071100  132.385000
  C    -96.380300   58.779800  131.448000
  C    -96.430700   58.214900  130.193000
  H    -96.906400   59.643300  131.769000
  C    -95.180900   58.566600  133.768000
  H    -95.490400   57.780300  134.378000
  H    -95.710500   59.583400  133.833000
  C    -93.646900   58.723000  134.030000
  H    -93.111500   57.787500  133.996000
  H    -93.091300   59.321600  133.312000
  C    -93.504100   59.413700  135.385000
  H    -93.770500   58.789000  136.213000
  H    -92.448600   59.718200  135.532000
  H    -94.157000   60.208500  135.512000
  S    -98.368200   57.830800  128.157000
  C    -98.838100   59.170300  127.219000
  C    -98.064800   60.260200  127.444000
  C    -97.172900   60.127100  128.558000
  C    -97.114000   58.785100  128.974000
  H    -98.291500   61.202500  126.984000
  C    -96.224600   61.285800  128.926000
  H    -96.047200   61.289200  129.935000
  H    -96.714900   62.228300  128.938000
  C    -94.865500   61.259700  128.184000
  H    -95.098900   61.354500  127.128000
  H    -94.494100   60.243600  128.339000
  C    -93.866900   62.364200  128.521000
  H    -94.354600   63.321900  128.457000
  H    -92.968700   62.457900  127.864000
  H    -93.552800   62.201200  129.519000
  H    -94.715400   56.110700  132.427000
  H    -99.582500   59.129100  126.432000

 Total Charge           Charge          ....    0
 Multiplicity           Mult            ....    1
 Number of Electrons    NEL             ....  134
 Basis Dimension        Dim             ....  322

ORBITAL ENERGIES
----------------

  NO   OCC          E(Eh)            E(eV)
   0   2.0000     -88.969983     -2420.9963
   1   2.0000     -88.965604     -2420.8772
   2   2.0000     -10.331280      -281.1284
   3   2.0000     -10.329560      -281.0816
   4   2.0000     -10.311777      -280.5977
   5   2.0000     -10.311102      -280.5794
   6   2.0000     -10.306159      -280.4448
   7   2.0000     -10.301080      -280.3066
   8   2.0000     -10.299740      -280.2702
   9   2.0000     -10.289676      -279.9963
  10   2.0000     -10.289161      -279.9823
  11   2.0000     -10.286722      -279.9159
  12   2.0000     -10.282376      -279.7977
  13   2.0000     -10.282092      -279.7899
  14   2.0000     -10.275088      -279.5994
  15   2.0000     -10.272566      -279.5307
  16   2.0000      -8.084401      -219.9877
  17   2.0000      -8.080895      -219.8923
  18   2.0000      -6.042883      -164.4352
  19   2.0000      -6.039346      -164.3390
  20   2.0000      -6.039104      -164.3324
  21   2.0000      -6.035281      -164.2284
  22   2.0000      -6.035084      -164.2230
  23   2.0000      -6.031730      -164.1317
  24   2.0000      -1.004520       -27.3344
  25   2.0000      -0.984882       -26.8000
  26   2.0000      -0.913701       -24.8631
  27   2.0000      -0.906717       -24.6730
  28   2.0000      -0.864825       -23.5331
  29   2.0000      -0.852801       -23.2059
  30   2.0000      -0.846539       -23.0355
  31   2.0000      -0.812570       -22.1112
  32   2.0000      -0.786928       -21.4134
  33   2.0000      -0.771427       -20.9916
  34   2.0000      -0.712039       -19.3756
  35   2.0000      -0.703501       -19.1432
  36   2.0000      -0.692205       -18.8358
  37   2.0000      -0.657047       -17.8792
  38   2.0000      -0.633433       -17.2366
  39   2.0000      -0.625418       -17.0185
  40   2.0000      -0.601231       -16.3603
  41   2.0000      -0.573750       -15.6125
  42   2.0000      -0.563565       -15.3354
  43   2.0000      -0.558448       -15.1962
  44   2.0000      -0.527530       -14.3548
  45   2.0000      -0.518184       -14.1005
  46   2.0000      -0.514611       -14.0033
  47   2.0000      -0.512956       -13.9582
  48   2.0000      -0.506229       -13.7752
  49   2.0000      -0.493474       -13.4281
  50   2.0000      -0.489361       -13.3162
  51   2.0000      -0.482605       -13.1324
  52   2.0000      -0.467503       -12.7214
  53   2.0000      -0.464549       -12.6410
  54   2.0000      -0.458981       -12.4895
  55   2.0000      -0.455592       -12.3973
  56   2.0000      -0.451220       -12.2783
  57   2.0000      -0.438235       -11.9250
  58   2.0000      -0.429147       -11.6777
  59   2.0000      -0.427578       -11.6350
  60   2.0000      -0.424712       -11.5570
  61   2.0000      -0.422616       -11.5000
  62   2.0000      -0.410926       -11.1819
  63   2.0000      -0.344769        -9.3816
  64   2.0000      -0.332815        -9.0564
  65   2.0000      -0.330034        -8.9807
  66   2.0000      -0.288037        -7.8379
  67   0.0000       0.029946         0.8149
  68   0.0000       0.071770         1.9530
  69   0.0000       0.104853         2.8532
  70   0.0000       0.122537         3.3344
  71   0.0000       0.129208         3.5159

MULLIKEN ATOMIC CHARGES
-----------------------
   0 S :    0.118295
   1 C :   -0.112648
   2 C :   -0.120474
   3 C :    0.026445
   4 C :   -0.139923
   5 H :    0.006115
   6 C :    0.063363
   7 H :    0.032693
   8 H :    0.042333
   9 C :   -0.069053
  10 H :    0.026329
  11 H :    0.029080
  12 C :   -0.014009
  13 H :    0.015186
  14 H :    0.037261
  15 H :    0.008586
  16 S :    0.106971
  17 C :   -0.082462
  18 C :   -0.013589
  19 C :   -0.081944
  20 C :   -0.127665
  21 H :    0.011725
  22 C :    0.125072
  23 H :   -0.029505
  24 H :   -0.003663
  25 C :   -0.064102
  26 H :    0.020300
  27 H :    0.036669
  28 C :   -0.026071
  29 H :    0.021483
  30 H :    0.044479
  31 H :    0.023791
  32 H :    0.032759
  33 H :    0.056170
Sum of atomic charges:   -0.0000000

LOEWDIN ATOMIC CHARGES
----------------------
   0 S :    0.410527
   1 C :   -0.201308
   2 C :   -0.058157
   3 C :   -0.063224
   4 C :   -0.198048
   5 H :    0.024269
   6 C :   -0.025499
   7 H :    0.030711
   8 H :    0.043124
   9 C :   -0.034603
  10 H :    0.022614
  11 H :    0.024343
  12 C :   -0.060440
  13 H :    0.021767
  14 H :    0.030842
  15 H :    0.014068
  16 S :    0.413874
  17 C :   -0.195978
  18 C :   -0.073316
  19 C :   -0.046836
  20 C :   -0.195164
  21 H :    0.028428
  22 C :   -0.029623
  23 H :    0.014032
  24 H :    0.025150
  25 C :   -0.034069
  26 H :    0.020807
  27 H :    0.028108
  28 C :   -0.063591
  29 H :    0.022867
  30 H :    0.034494
  31 H :    0.019260
  32 H :    0.019811
  33 H :    0.030762

  Mayer bond orders larger than 0.100000
B(  0-S ,  1-C ) :   1.1358 B(  0-S ,  4-C ) :   1.1593 B(  1-C ,  2-C ) :   1.6099
B(  1-C , 32-H ) :   0.9655 B(  2-C ,  3-C ) :   1.2664 B(  2-C ,  6-C ) :   1.0067
B(  3-C ,  4-C ) :   1.5690 B(  3-C ,  5-H ) :   0.9885 B(  4-C , 20-C ) :   1.0062
B(  6-C ,  7-H ) :   0.9330 B(  6-C ,  8-H ) :   0.9464 B(  6-C ,  9-C ) :   1.0661
B(  9-C , 10-H ) :   0.9527 B(  9-C , 11-H ) :   0.9609 B(  9-C , 12-C ) :   1.0829
B( 12-C , 13-H ) :   0.9715 B( 12-C , 14-H ) :   0.9740 B( 12-C , 15-H ) :   0.9731
B( 16-S , 17-C ) :   1.1658 B( 16-S , 20-C ) :   1.1441 B( 17-C , 18-C ) :   1.6110
B( 17-C , 33-H ) :   0.9635 B( 18-C , 19-C ) :   1.2500 B( 18-C , 21-H ) :   0.9885
B( 19-C , 20-C ) :   1.5928 B( 19-C , 22-C ) :   1.0571 B( 22-C , 23-H ) :   0.9160
B( 22-C , 24-H ) :   0.9232 B( 22-C , 25-C ) :   1.0498 B( 25-C , 26-H ) :   0.9585
B( 25-C , 27-H ) :   0.9582 B( 25-C , 28-C ) :   1.0757 B( 28-C , 29-H ) :   0.9730
B( 28-C , 30-H ) :   0.9741 B( 28-C , 31-H ) :   0.9765

Dispersion correction           -0.013659124
FINAL SINGLE POINT ENERGY     -1339.862073358273

DIPOLE MOMENT
-------------
                                X             Y             Z
Electronic contribution:    -18.42047     -20.28354     -15.58259
Nuclear contribution   :     18.59671      20.85999      15.99389
                        -----------------------------------------
Total Dipole Moment    :      0.17624       0.57645       0.41131
                        -----------------------------------------
Magnitude (a.u.)       :      0.72975
Magnitude (Debye)      :      1.85488

Rotational constants in cm-1:     0.018032     0.008341     0.006341
Rotational constants in MHz :   540.594905   250.062110   190.104389

                             ****ORCA TERMINATED NORMALLY****
TOTAL RUN TIME: 0 days 0 hours 0 minutes 34 seconds 38 msec
