                         Program Version 4.2.1 -  RELEASE  -
|  1> ! wB97X-D3 SP def2-SVP
|  2> %pal
|  3> nprocs 16
|  4> end
|  5>
|  6> * xyz 0 1
|  7> S 	 48.8433 	 11.9524 	 85.1098
|  8> C 	 47.6974 	 11.8178 	 83.728
|  9> C 	 48.4079 	 11.7186 	 82.5258
| 10> C 	 49.7926 	 11.6788 	 82.685
| 11> C 	 50.2107 	 11.73 	 83.999
| 12> H 	 50.5164 	 11.5751 	 81.8871
| 13> C 	 47.7952 	 11.7469 	 81.1539
| 14> H 	 46.7497 	 11.574 	 81.3037
| 15> H 	 48.2394 	 10.8828 	 80.7056
| 16> C 	 47.852 	 13.0355 	 80.2965
| 17> H 	 48.8624 	 13.4529 	 80.125
| 18> H 	 47.4573 	 12.7621 	 79.3121
| 19> C 	 46.9421 	 14.0865 	 80.9355
| 20> H 	 46.5586 	 14.8276 	 80.2754
| 21> H 	 46.1826 	 13.5562 	 81.4032
| 22> H 	 47.5642 	 14.5792 	 81.7508
| 23> S 	 52.8046 	 12.4918 	 84.1596
| 24> C 	 53.9752 	 11.4244 	 85.0716
| 25> C 	 53.3105 	 10.3513 	 85.6505
| 26> C 	 51.9383 	 10.3022 	 85.3215
| 27> C 	 51.5382 	 11.3838 	 84.5118
| 28> H 	 53.868 	 9.5705 	 86.161
| 29> C 	 50.9483 	 9.21883 	 85.68
| 30> H 	 49.8988 	 9.56437 	 85.5583
| 31> H 	 50.98 	 9.17023 	 86.7936
| 32> C 	 50.9481 	 7.82344 	 85
| 33> H 	 50.1585 	 7.25107 	 85.4019
| 34> H 	 51.8905 	 7.34923 	 85.1119
| 35> C 	 50.6522 	 8.0572 	 83.4719
| 36> H 	 51.3793 	 8.74007 	 82.9967
| 37> H 	 49.7106 	 8.45575 	 83.3471
| 38> H 	 50.5513 	 7.1685 	 82.8131
| 39> H 	 46.5786 	 11.7872 	 83.7821
| 40> H 	 54.984 	 11.7815 	 85.2752
| 41> *
| 42>
| 43>                          ****END OF INPUT****

CARTESIAN COORDINATES (ANGSTROEM)
---------------------------------
  S     48.843300   11.952400   85.109800
  C     47.697400   11.817800   83.728000
  C     48.407900   11.718600   82.525800
  C     49.792600   11.678800   82.685000
  C     50.210700   11.730000   83.999000
  H     50.516400   11.575100   81.887100
  C     47.795200   11.746900   81.153900
  H     46.749700   11.574000   81.303700
  H     48.239400   10.882800   80.705600
  C     47.852000   13.035500   80.296500
  H     48.862400   13.452900   80.125000
  H     47.457300   12.762100   79.312100
  C     46.942100   14.086500   80.935500
  H     46.558600   14.827600   80.275400
  H     46.182600   13.556200   81.403200
  H     47.564200   14.579200   81.750800
  S     52.804600   12.491800   84.159600
  C     53.975200   11.424400   85.071600
  C     53.310500   10.351300   85.650500
  C     51.938300   10.302200   85.321500
  C     51.538200   11.383800   84.511800
  H     53.868000    9.570500   86.161000
  C     50.948300    9.218830   85.680000
  H     49.898800    9.564370   85.558300
  H     50.980000    9.170230   86.793600
  C     50.948100    7.823440   85.000000
  H     50.158500    7.251070   85.401900
  H     51.890500    7.349230   85.111900
  C     50.652200    8.057200   83.471900
  H     51.379300    8.740070   82.996700
  H     49.710600    8.455750   83.347100
  H     50.551300    7.168500   82.813100
  H     46.578600   11.787200   83.782100
  H     54.984000   11.781500   85.275200

 Total Charge           Charge          ....    0
 Multiplicity           Mult            ....    1
 Number of Electrons    NEL             ....  134
 Basis Dimension        Dim             ....  322

ORBITAL ENERGIES
----------------

  NO   OCC          E(Eh)            E(eV)
   0   2.0000     -88.970417     -2421.0081
   1   2.0000     -88.967231     -2420.9214
   2   2.0000     -10.330789      -281.1151
   3   2.0000     -10.326233      -280.9911
   4   2.0000     -10.324523      -280.9446
   5   2.0000     -10.323745      -280.9234
   6   2.0000     -10.304223      -280.3922
   7   2.0000     -10.299958      -280.2761
   8   2.0000     -10.299493      -280.2635
   9   2.0000     -10.292026      -280.0603
  10   2.0000     -10.290155      -280.0094
  11   2.0000     -10.288365      -279.9607
  12   2.0000     -10.287791      -279.9450
  13   2.0000     -10.282805      -279.8094
  14   2.0000     -10.271547      -279.5030
  15   2.0000     -10.267252      -279.3861
  16   2.0000      -8.083246      -219.9563
  17   2.0000      -8.081392      -219.9059
  18   2.0000      -6.041885      -164.4081
  19   2.0000      -6.039820      -164.3519
  20   2.0000      -6.037973      -164.3016
  21   2.0000      -6.035918      -164.2457
  22   2.0000      -6.034009      -164.1937
  23   2.0000      -6.032332      -164.1481
  24   2.0000      -1.003302       -27.3012
  25   2.0000      -0.979285       -26.6477
  26   2.0000      -0.914355       -24.8809
  27   2.0000      -0.900409       -24.5014
  28   2.0000      -0.868297       -23.6276
  29   2.0000      -0.851925       -23.1821
  30   2.0000      -0.840591       -22.8736
  31   2.0000      -0.813499       -22.1364
  32   2.0000      -0.779241       -21.2042
  33   2.0000      -0.766755       -20.8645
  34   2.0000      -0.709680       -19.3114
  35   2.0000      -0.701904       -19.0998
  36   2.0000      -0.692535       -18.8448
  37   2.0000      -0.663406       -18.0522
  38   2.0000      -0.634918       -17.2770
  39   2.0000      -0.621870       -16.9219
  40   2.0000      -0.595745       -16.2111
  41   2.0000      -0.564272       -15.3546
  42   2.0000      -0.561769       -15.2865
  43   2.0000      -0.549255       -14.9460
  44   2.0000      -0.542242       -14.7552
  45   2.0000      -0.536584       -14.6012
  46   2.0000      -0.516332       -14.0501
  47   2.0000      -0.510994       -13.9049
  48   2.0000      -0.496415       -13.5081
  49   2.0000      -0.486426       -13.2363
  50   2.0000      -0.483321       -13.1518
  51   2.0000      -0.474671       -12.9164
  52   2.0000      -0.466424       -12.6920
  53   2.0000      -0.464514       -12.6401
  54   2.0000      -0.454727       -12.3738
  55   2.0000      -0.445507       -12.1229
  56   2.0000      -0.442929       -12.0527
  57   2.0000      -0.441236       -12.0066
  58   2.0000      -0.433023       -11.7831
  59   2.0000      -0.432516       -11.7694
  60   2.0000      -0.421643       -11.4735
  61   2.0000      -0.412459       -11.2236
  62   2.0000      -0.409248       -11.1362
  63   2.0000      -0.344318        -9.3694
  64   2.0000      -0.336446        -9.1551
  65   2.0000      -0.322980        -8.7887
  66   2.0000      -0.294504        -8.0139
  67   0.0000       0.027466         0.7474
  68   0.0000       0.060243         1.6393
  69   0.0000       0.107589         2.9276
  70   0.0000       0.113529         3.0893
  71   0.0000       0.124026         3.3749

MULLIKEN ATOMIC CHARGES
-----------------------
   0 S :    0.105275
   1 C :   -0.146039
   2 C :   -0.100380
   3 C :    0.052724
   4 C :   -0.153995
   5 H :    0.012231
   6 C :    0.072762
   7 H :    0.005452
   8 H :    0.026146
   9 C :   -0.064701
  10 H :    0.036358
  11 H :    0.029732
  12 C :   -0.026124
  13 H :    0.034917
  14 H :   -0.000952
  15 H :    0.049326
  16 S :    0.101139
  17 C :   -0.114276
  18 C :   -0.025524
  19 C :   -0.012944
  20 C :   -0.172139
  21 H :    0.029877
  22 C :    0.003973
  23 H :    0.023357
  24 H :    0.029928
  25 C :    0.012284
  26 H :    0.025894
  27 H :    0.023097
  28 C :   -0.064622
  29 H :    0.043025
  30 H :    0.006185
  31 H :    0.025783
  32 H :    0.064898
  33 H :    0.067335
Sum of atomic charges:    0.0000000

LOEWDIN ATOMIC CHARGES
----------------------
   0 S :    0.393269
   1 C :   -0.196287
   2 C :   -0.067820
   3 C :   -0.057242
   4 C :   -0.183581
   5 H :    0.033059
   6 C :   -0.028795
   7 H :    0.024588
   8 H :    0.029608
   9 C :   -0.035598
  10 H :    0.024372
  11 H :    0.024712
  12 C :   -0.057731
  13 H :    0.021971
  14 H :    0.009745
  15 H :    0.039309
  16 S :    0.395898
  17 C :   -0.166898
  18 C :   -0.063428
  19 C :   -0.062187
  20 C :   -0.207285
  21 H :    0.037635
  22 C :   -0.046903
  23 H :    0.022954
  24 H :    0.032893
  25 C :   -0.020575
  26 H :    0.022890
  27 H :    0.015515
  28 C :   -0.067884
  29 H :    0.028455
  30 H :    0.012075
  31 H :    0.026160
  32 H :    0.038223
  33 H :    0.028883

  Mayer bond orders larger than 0.100000
B(  0-S ,  1-C ) :   1.1244 B(  0-S ,  4-C ) :   1.1469 B(  1-C ,  2-C ) :   1.5994
B(  1-C , 32-H ) :   0.9604 B(  2-C ,  3-C ) :   1.2520 B(  2-C ,  6-C ) :   1.0220
B(  3-C ,  4-C ) :   1.5756 B(  3-C ,  5-H ) :   0.9915 B(  4-C , 20-C ) :   0.9999
B(  6-C ,  7-H ) :   0.9382 B(  6-C ,  8-H ) :   0.9338 B(  6-C ,  9-C ) :   1.0708
B(  9-C , 10-H ) :   0.9607 B(  9-C , 11-H ) :   0.9535 B(  9-C , 12-C ) :   1.0664
B( 12-C , 13-H ) :   0.9750 B( 12-C , 14-H ) :   0.9775 B( 12-C , 15-H ) :   0.9750
B( 16-S , 17-C ) :   1.1424 B( 16-S , 20-C ) :   1.1688 B( 17-C , 18-C ) :   1.5942
B( 17-C , 20-C ) :   0.1059 B( 17-C , 33-H ) :   0.9686 B( 18-C , 19-C ) :   1.2544
B( 18-C , 21-H ) :   0.9885 B( 19-C , 20-C ) :   1.5633 B( 19-C , 22-C ) :   1.0427
B( 22-C , 23-H ) :   0.9284 B( 22-C , 24-H ) :   0.9293 B( 22-C , 25-C ) :   1.0700
B( 25-C , 26-H ) :   0.9535 B( 25-C , 27-H ) :   0.9616 B( 25-C , 28-C ) :   1.0661
B( 28-C , 29-H ) :   0.9777 B( 28-C , 30-H ) :   0.9737 B( 28-C , 31-H ) :   0.9742

Dispersion correction           -0.016199046
FINAL SINGLE POINT ENERGY     -1339.871525940736

DIPOLE MOMENT
-------------
                                X             Y             Z
Electronic contribution:     11.89056       8.78567      13.34128
Nuclear contribution   :    -12.06980      -9.07959     -13.61813
                        -----------------------------------------
Total Dipole Moment    :     -0.17924      -0.29391      -0.27685
                        -----------------------------------------
Magnitude (a.u.)       :      0.44176
Magnitude (Debye)      :      1.12287

Rotational constants in cm-1:     0.021840     0.008639     0.007591
Rotational constants in MHz :   654.756614   258.978937   227.580783

                             ****ORCA TERMINATED NORMALLY****
TOTAL RUN TIME: 0 days 0 hours 0 minutes 29 seconds 999 msec
