                         Program Version 4.2.1 -  RELEASE  -
|  1> ! wB97X-D3 SP def2-SVP
|  2> %pal
|  3> nprocs 16
|  4> end
|  5>
|  6> * xyz 0 1
|  7> S 	 8.37437 	 -4.56028 	 90.0959
|  8> C 	 9.21112 	 -3.25517 	 90.7838
|  9> C 	 10.0271 	 -2.6019 	 89.8884
| 10> C 	 10.0751 	 -3.28318 	 88.6309
| 11> C 	 9.17414 	 -4.30825 	 88.5465
| 12> H 	 10.701 	 -3.03736 	 87.7602
| 13> C 	 10.8377 	 -1.46855 	 90.4258
| 14> H 	 11.6035 	 -1.21092 	 89.7212
| 15> H 	 11.4423 	 -1.78304 	 91.2881
| 16> C 	 10.0423 	 -0.150845 	 90.6701
| 17> H 	 9.46661 	 -0.0793567 	 89.7652
| 18> H 	 9.32942 	 -0.186095 	 91.4852
| 19> C 	 10.9393 	 1.08537 	 90.8298
| 20> H 	 10.3528 	 2.06772 	 90.9444
| 21> H 	 11.6111 	 0.959937 	 91.6524
| 22> H 	 11.5459 	 1.37745 	 90.0095
| 23> S 	 8.99256 	 -6.86363 	 87.5074
| 24> C 	 8.34855 	 -7.1165 	 85.8609
| 25> C 	 8.00783 	 -5.90202 	 85.2557
| 26> C 	 8.35336 	 -4.75072 	 86.0659
| 27> C 	 8.85193 	 -5.12988 	 87.3441
| 28> H 	 7.50405 	 -5.81984 	 84.2751
| 29> C 	 8.08588 	 -3.30119 	 85.6844
| 30> H 	 8.21086 	 -3.2286 	 84.5747
| 31> H 	 8.93905 	 -2.69117 	 86.0836
| 32> C 	 6.73735 	 -2.66363 	 86.1416
| 33> H 	 6.77146 	 -2.68899 	 87.2437
| 34> H 	 5.93063 	 -3.2752 	 85.7675
| 35> C 	 6.37926 	 -1.27997 	 85.6118
| 36> H 	 5.445 	 -0.820473 	 86.001
| 37> H 	 6.30377 	 -1.32195 	 84.5762
| 38> H 	 7.25349 	 -0.624581 	 85.7106
| 39> H 	 9.09526 	 -3.08303 	 91.8123
| 40> H 	 8.17773 	 -7.94516 	 85.2951
| 41> *
| 42>
| 43>                          ****END OF INPUT****

CARTESIAN COORDINATES (ANGSTROEM)
---------------------------------
  S      8.374370   -4.560280   90.095900
  C      9.211120   -3.255170   90.783800
  C     10.027100   -2.601900   89.888400
  C     10.075100   -3.283180   88.630900
  C      9.174140   -4.308250   88.546500
  H     10.701000   -3.037360   87.760200
  C     10.837700   -1.468550   90.425800
  H     11.603500   -1.210920   89.721200
  H     11.442300   -1.783040   91.288100
  C     10.042300   -0.150845   90.670100
  H      9.466610   -0.079357   89.765200
  H      9.329420   -0.186095   91.485200
  C     10.939300    1.085370   90.829800
  H     10.352800    2.067720   90.944400
  H     11.611100    0.959937   91.652400
  H     11.545900    1.377450   90.009500
  S      8.992560   -6.863630   87.507400
  C      8.348550   -7.116500   85.860900
  C      8.007830   -5.902020   85.255700
  C      8.353360   -4.750720   86.065900
  C      8.851930   -5.129880   87.344100
  H      7.504050   -5.819840   84.275100
  C      8.085880   -3.301190   85.684400
  H      8.210860   -3.228600   84.574700
  H      8.939050   -2.691170   86.083600
  C      6.737350   -2.663630   86.141600
  H      6.771460   -2.688990   87.243700
  H      5.930630   -3.275200   85.767500
  C      6.379260   -1.279970   85.611800
  H      5.445000   -0.820473   86.001000
  H      6.303770   -1.321950   84.576200
  H      7.253490   -0.624581   85.710600
  H      9.095260   -3.083030   91.812300
  H      8.177730   -7.945160   85.295100

 Total Charge           Charge          ....    0
 Multiplicity           Mult            ....    1
 Number of Electrons    NEL             ....  134
 Basis Dimension        Dim             ....  322

ORBITAL ENERGIES
----------------

  NO   OCC          E(Eh)            E(eV)
   0   2.0000     -88.971392     -2421.0347
   1   2.0000     -88.965392     -2420.8714
   2   2.0000     -10.332117      -281.1512
   3   2.0000     -10.330445      -281.1057
   4   2.0000     -10.316271      -280.7200
   5   2.0000     -10.309935      -280.5476
   6   2.0000     -10.305965      -280.4396
   7   2.0000     -10.301040      -280.3056
   8   2.0000     -10.299570      -280.2655
   9   2.0000     -10.298870      -280.2465
  10   2.0000     -10.298469      -280.2356
  11   2.0000     -10.289653      -279.9957
  12   2.0000     -10.287127      -279.9270
  13   2.0000     -10.284543      -279.8566
  14   2.0000     -10.279163      -279.7102
  15   2.0000     -10.273835      -279.5653
  16   2.0000      -8.085002      -220.0041
  17   2.0000      -8.081133      -219.8988
  18   2.0000      -6.043627      -164.4554
  19   2.0000      -6.039586      -164.3455
  20   2.0000      -6.039423      -164.3411
  21   2.0000      -6.035782      -164.2420
  22   2.0000      -6.035426      -164.2323
  23   2.0000      -6.032138      -164.1428
  24   2.0000      -1.007531       -27.4163
  25   2.0000      -0.981116       -26.6975
  26   2.0000      -0.910495       -24.7758
  27   2.0000      -0.901742       -24.5376
  28   2.0000      -0.867763       -23.6130
  29   2.0000      -0.853578       -23.2270
  30   2.0000      -0.847793       -23.0696
  31   2.0000      -0.820659       -22.3313
  32   2.0000      -0.779860       -21.2211
  33   2.0000      -0.766522       -20.8581
  34   2.0000      -0.707550       -19.2534
  35   2.0000      -0.703933       -19.1550
  36   2.0000      -0.691887       -18.8272
  37   2.0000      -0.660757       -17.9801
  38   2.0000      -0.652266       -17.7491
  39   2.0000      -0.617074       -16.7914
  40   2.0000      -0.588087       -16.0027
  41   2.0000      -0.570365       -15.5204
  42   2.0000      -0.563421       -15.3315
  43   2.0000      -0.561025       -15.2663
  44   2.0000      -0.524133       -14.2624
  45   2.0000      -0.522394       -14.2151
  46   2.0000      -0.520517       -14.1640
  47   2.0000      -0.511107       -13.9079
  48   2.0000      -0.502840       -13.6830
  49   2.0000      -0.499226       -13.5846
  50   2.0000      -0.490194       -13.3389
  51   2.0000      -0.484106       -13.1732
  52   2.0000      -0.466691       -12.6993
  53   2.0000      -0.465106       -12.6562
  54   2.0000      -0.458570       -12.4783
  55   2.0000      -0.452510       -12.3134
  56   2.0000      -0.447325       -12.1723
  57   2.0000      -0.433184       -11.7875
  58   2.0000      -0.429574       -11.6893
  59   2.0000      -0.424753       -11.5581
  60   2.0000      -0.421816       -11.4782
  61   2.0000      -0.418912       -11.3992
  62   2.0000      -0.412601       -11.2275
  63   2.0000      -0.346354        -9.4248
  64   2.0000      -0.333159        -9.0657
  65   2.0000      -0.328924        -8.9505
  66   2.0000      -0.293956        -7.9990
  67   0.0000       0.030399         0.8272
  68   0.0000       0.066832         1.8186
  69   0.0000       0.113402         3.0858
  70   0.0000       0.122930         3.3451
  71   0.0000       0.128159         3.4874

MULLIKEN ATOMIC CHARGES
-----------------------
   0 S :    0.123146
   1 C :   -0.110316
   2 C :   -0.082241
   3 C :    0.036085
   4 C :   -0.162574
   5 H :    0.029815
   6 C :    0.064246
   7 H :   -0.000927
   8 H :    0.036989
   9 C :   -0.048787
  10 H :    0.024566
  11 H :    0.031295
  12 C :   -0.058509
  13 H :    0.039061
  14 H :    0.026897
  15 H :    0.019993
  16 S :    0.119365
  17 C :   -0.039194
  18 C :   -0.062933
  19 C :   -0.030199
  20 C :   -0.179217
  21 H :    0.034230
  22 C :    0.030335
  23 H :    0.020568
  24 H :    0.023494
  25 C :   -0.057105
  26 H :    0.042031
  27 H :    0.023298
  28 C :   -0.021228
  29 H :    0.051188
  30 H :    0.005192
  31 H :    0.017311
  32 H :    0.037401
  33 H :    0.016725
Sum of atomic charges:   -0.0000000

LOEWDIN ATOMIC CHARGES
----------------------
   0 S :    0.424371
   1 C :   -0.193291
   2 C :   -0.069296
   3 C :   -0.061835
   4 C :   -0.198105
   5 H :    0.038853
   6 C :   -0.034615
   7 H :    0.024946
   8 H :    0.032196
   9 C :   -0.034236
  10 H :    0.024633
  11 H :    0.021991
  12 C :   -0.071962
  13 H :    0.037248
  14 H :    0.020759
  15 H :    0.018720
  16 S :    0.406177
  17 C :   -0.170118
  18 C :   -0.066677
  19 C :   -0.055294
  20 C :   -0.202241
  21 H :    0.037784
  22 C :   -0.041290
  23 H :    0.029135
  24 H :    0.032181
  25 C :   -0.038764
  26 H :    0.028314
  27 H :    0.022149
  28 C :   -0.066088
  29 H :    0.035690
  30 H :    0.014530
  31 H :    0.024113
  32 H :    0.017397
  33 H :    0.012629

  Mayer bond orders larger than 0.100000
B(  0-S ,  1-C ) :   1.1659 B(  0-S ,  4-C ) :   1.1564 B(  1-C ,  2-C ) :   1.5718
B(  1-C , 32-H ) :   0.9810 B(  2-C ,  3-C ) :   1.2487 B(  2-C ,  6-C ) :   1.0351
B(  3-C ,  4-C ) :   1.5804 B(  3-C ,  5-H ) :   0.9893 B(  4-C , 20-C ) :   1.0135
B(  6-C ,  7-H ) :   0.9370 B(  6-C ,  8-H ) :   0.9406 B(  6-C ,  9-C ) :   1.0450
B(  9-C , 10-H ) :   0.9557 B(  9-C , 11-H ) :   0.9590 B(  9-C , 12-C ) :   1.0856
B( 12-C , 13-H ) :   0.9733 B( 12-C , 14-H ) :   0.9753 B( 12-C , 15-H ) :   0.9740
B( 16-S , 17-C ) :   1.1391 B( 16-S , 20-C ) :   1.1534 B( 17-C , 18-C ) :   1.6151
B( 17-C , 20-C ) :   0.1009 B( 17-C , 33-H ) :   0.9760 B( 18-C , 19-C ) :   1.2568
B( 18-C , 21-H ) :   0.9778 B( 19-C , 20-C ) :   1.5726 B( 19-C , 22-C ) :   1.0510
B( 22-C , 23-H ) :   0.9327 B( 22-C , 24-H ) :   0.9282 B( 22-C , 25-C ) :   1.0582
B( 25-C , 26-H ) :   0.9556 B( 25-C , 27-H ) :   0.9571 B( 25-C , 28-C ) :   1.0818
B( 28-C , 29-H ) :   0.9733 B( 28-C , 30-H ) :   0.9702 B( 28-C , 31-H ) :   0.9721

Dispersion correction           -0.014077672
FINAL SINGLE POINT ENERGY     -1339.876561962092

DIPOLE MOMENT
-------------
                                X             Y             Z
Electronic contribution:     -0.07395     -30.96613       3.09113
Nuclear contribution   :      0.11629      31.49881      -3.32034
                        -----------------------------------------
Total Dipole Moment    :      0.04234       0.53268      -0.22921
                        -----------------------------------------
Magnitude (a.u.)       :      0.58144
Magnitude (Debye)      :      1.47791

Rotational constants in cm-1:     0.019157     0.008264     0.006459
Rotational constants in MHz :   574.302385   247.748821   193.627704

                             ****ORCA TERMINATED NORMALLY****
TOTAL RUN TIME: 0 days 0 hours 0 minutes 33 seconds 17 msec
