                         Program Version 4.2.1 -  RELEASE  -
|  1> ! wB97X-D3 SP def2-SVP
|  2> %pal
|  3> nprocs 16
|  4> end
|  5>
|  6> * xyz 0 1
|  7> S 	 34.7084 	 14.0214 	 71.6401
|  8> C 	 33.1083 	 14.6861 	 71.4508
|  9> C 	 32.3414 	 13.972 	 70.566
| 10> C 	 33.051 	 12.8403 	 70.0907
| 11> C 	 34.3116 	 12.6896 	 70.6721
| 12> H 	 32.6118 	 12.0343 	 69.4673
| 13> C 	 30.8935 	 14.0827 	 70.1247
| 14> H 	 30.3963 	 14.8794 	 70.7128
| 15> H 	 30.5309 	 13.1397 	 70.2746
| 16> C 	 30.6263 	 14.4271 	 68.6662
| 17> H 	 30.9563 	 15.4578 	 68.5298
| 18> H 	 31.3183 	 13.9531 	 67.979
| 19> C 	 29.1577 	 14.4431 	 68.2528
| 20> H 	 28.5326 	 15.102 	 68.8777
| 21> H 	 29.0081 	 14.7737 	 67.2045
| 22> H 	 28.7266 	 13.4039 	 68.2713
| 23> S 	 36.8165 	 12.5297 	 69.8012
| 24> C 	 37.7863 	 11.1143 	 70.0961
| 25> C 	 36.8985 	 10.0378 	 70.164
| 26> C 	 35.4942 	 10.3479 	 70.2146
| 27> C 	 35.3725 	 11.736 	 70.3734
| 28> H 	 37.2594 	 9.05268 	 70.0495
| 29> C 	 34.3944 	 9.2865 	 70.2179
| 30> H 	 33.7288 	 9.57122 	 69.48
| 31> H 	 33.7737 	 9.41431 	 71.1717
| 32> C 	 34.7592 	 7.85991 	 69.8041
| 33> H 	 35.3658 	 7.43829 	 70.6335
| 34> H 	 35.3637 	 7.75875 	 68.9722
| 35> C 	 33.5607 	 7.02928 	 69.5559
| 36> H 	 33.834 	 6.06727 	 69.1766
| 37> H 	 33.0266 	 7.44366 	 68.6973
| 38> H 	 32.9596 	 6.91606 	 70.4116
| 39> H 	 32.7663 	 15.6101 	 71.8515
| 40> H 	 38.8598 	 11.0384 	 69.9678
| 41> *
| 42>
| 43>                          ****END OF INPUT****

CARTESIAN COORDINATES (ANGSTROEM)
---------------------------------
  S     34.708400   14.021400   71.640100
  C     33.108300   14.686100   71.450800
  C     32.341400   13.972000   70.566000
  C     33.051000   12.840300   70.090700
  C     34.311600   12.689600   70.672100
  H     32.611800   12.034300   69.467300
  C     30.893500   14.082700   70.124700
  H     30.396300   14.879400   70.712800
  H     30.530900   13.139700   70.274600
  C     30.626300   14.427100   68.666200
  H     30.956300   15.457800   68.529800
  H     31.318300   13.953100   67.979000
  C     29.157700   14.443100   68.252800
  H     28.532600   15.102000   68.877700
  H     29.008100   14.773700   67.204500
  H     28.726600   13.403900   68.271300
  S     36.816500   12.529700   69.801200
  C     37.786300   11.114300   70.096100
  C     36.898500   10.037800   70.164000
  C     35.494200   10.347900   70.214600
  C     35.372500   11.736000   70.373400
  H     37.259400    9.052680   70.049500
  C     34.394400    9.286500   70.217900
  H     33.728800    9.571220   69.480000
  H     33.773700    9.414310   71.171700
  C     34.759200    7.859910   69.804100
  H     35.365800    7.438290   70.633500
  H     35.363700    7.758750   68.972200
  C     33.560700    7.029280   69.555900
  H     33.834000    6.067270   69.176600
  H     33.026600    7.443660   68.697300
  H     32.959600    6.916060   70.411600
  H     32.766300   15.610100   71.851500
  H     38.859800   11.038400   69.967800

 Total Charge           Charge          ....    0
 Multiplicity           Mult            ....    1
 Number of Electrons    NEL             ....  134
 Basis Dimension        Dim             ....  322

ORBITAL ENERGIES
----------------

  NO   OCC          E(Eh)            E(eV)
   0   2.0000     -88.967055     -2420.9166
   1   2.0000     -88.959421     -2420.7089
   2   2.0000     -10.324120      -280.9336
   3   2.0000     -10.323936      -280.9286
   4   2.0000     -10.313007      -280.6312
   5   2.0000     -10.309260      -280.5292
   6   2.0000     -10.306447      -280.4527
   7   2.0000     -10.297772      -280.2166
   8   2.0000     -10.294405      -280.1250
   9   2.0000     -10.292489      -280.0729
  10   2.0000     -10.289493      -279.9913
  11   2.0000     -10.288396      -279.9615
  12   2.0000     -10.287453      -279.9358
  13   2.0000     -10.284485      -279.8551
  14   2.0000     -10.282021      -279.7880
  15   2.0000     -10.271981      -279.5148
  16   2.0000      -8.082741      -219.9426
  17   2.0000      -8.074588      -219.7207
  18   2.0000      -6.041097      -164.3866
  19   2.0000      -6.037042      -164.2763
  20   2.0000      -6.033626      -164.1833
  21   2.0000      -6.033082      -164.1685
  22   2.0000      -6.029226      -164.0636
  23   2.0000      -6.025116      -163.9517
  24   2.0000      -1.013131       -27.5687
  25   2.0000      -0.985847       -26.8263
  26   2.0000      -0.920696       -25.0534
  27   2.0000      -0.916653       -24.9434
  28   2.0000      -0.869810       -23.6687
  29   2.0000      -0.856260       -23.3000
  30   2.0000      -0.846291       -23.0288
  31   2.0000      -0.808944       -22.0125
  32   2.0000      -0.785228       -21.3671
  33   2.0000      -0.777546       -21.1581
  34   2.0000      -0.711394       -19.3580
  35   2.0000      -0.703085       -19.1319
  36   2.0000      -0.697601       -18.9827
  37   2.0000      -0.654828       -17.8188
  38   2.0000      -0.639049       -17.3894
  39   2.0000      -0.621844       -16.9212
  40   2.0000      -0.600663       -16.3449
  41   2.0000      -0.580349       -15.7921
  42   2.0000      -0.570225       -15.5166
  43   2.0000      -0.561406       -15.2766
  44   2.0000      -0.534409       -14.5420
  45   2.0000      -0.525633       -14.3032
  46   2.0000      -0.517702       -14.0874
  47   2.0000      -0.505934       -13.7672
  48   2.0000      -0.504006       -13.7147
  49   2.0000      -0.501245       -13.6396
  50   2.0000      -0.497656       -13.5419
  51   2.0000      -0.478035       -13.0080
  52   2.0000      -0.472098       -12.8464
  53   2.0000      -0.468954       -12.7609
  54   2.0000      -0.464233       -12.6324
  55   2.0000      -0.452024       -12.3002
  56   2.0000      -0.450510       -12.2590
  57   2.0000      -0.442022       -12.0280
  58   2.0000      -0.433013       -11.7829
  59   2.0000      -0.427109       -11.6222
  60   2.0000      -0.421434       -11.4678
  61   2.0000      -0.415300       -11.3009
  62   2.0000      -0.412298       -11.2192
  63   2.0000      -0.338773        -9.2185
  64   2.0000      -0.334014        -9.0890
  65   2.0000      -0.318142        -8.6571
  66   2.0000      -0.288716        -7.8564
  67   0.0000       0.024613         0.6697
  68   0.0000       0.071799         1.9538
  69   0.0000       0.104985         2.8568
  70   0.0000       0.122016         3.3202
  71   0.0000       0.135703         3.6927

MULLIKEN ATOMIC CHARGES
-----------------------
   0 S :    0.134988
   1 C :   -0.111407
   2 C :   -0.078026
   3 C :    0.004621
   4 C :   -0.164955
   5 H :    0.024975
   6 C :    0.117447
   7 H :    0.021933
   8 H :    0.008095
   9 C :   -0.081376
  10 H :    0.015241
  11 H :    0.024756
  12 C :   -0.061383
  13 H :    0.036059
  14 H :    0.040481
  15 H :    0.033656
  16 S :    0.096516
  17 C :   -0.076240
  18 C :   -0.053345
  19 C :   -0.015838
  20 C :   -0.177698
  21 H :    0.002435
  22 C :    0.087044
  23 H :   -0.002057
  24 H :    0.053385
  25 C :   -0.079191
  26 H :    0.031347
  27 H :    0.016061
  28 C :   -0.002856
  29 H :    0.018494
  30 H :    0.022949
  31 H :    0.029337
  32 H :    0.026466
  33 H :    0.058084
Sum of atomic charges:   -0.0000000

LOEWDIN ATOMIC CHARGES
----------------------
   0 S :    0.448006
   1 C :   -0.199818
   2 C :   -0.061332
   3 C :   -0.068436
   4 C :   -0.221399
   5 H :    0.033613
   6 C :   -0.019707
   7 H :    0.033673
   8 H :    0.018949
   9 C :   -0.049095
  10 H :    0.025189
  11 H :    0.022584
  12 C :   -0.069456
  13 H :    0.027050
  14 H :    0.031986
  15 H :    0.026411
  16 S :    0.409623
  17 C :   -0.196520
  18 C :   -0.069189
  19 C :   -0.054301
  20 C :   -0.196688
  21 H :    0.019556
  22 C :   -0.033284
  23 H :    0.018842
  24 H :    0.048097
  25 C :   -0.039590
  26 H :    0.026363
  27 H :    0.017328
  28 C :   -0.052534
  29 H :    0.025577
  30 H :    0.027026
  31 H :    0.020360
  32 H :    0.021027
  33 H :    0.030090

  Mayer bond orders larger than 0.100000
B(  0-S ,  1-C ) :   1.1418 B(  0-S ,  4-C ) :   1.1817 B(  1-C ,  2-C ) :   1.6083
B(  1-C , 32-H ) :   0.9691 B(  2-C ,  3-C ) :   1.2587 B(  2-C ,  6-C ) :   1.0174
B(  3-C ,  4-C ) :   1.5465 B(  3-C ,  5-H ) :   0.9849 B(  4-C , 20-C ) :   1.0324
B(  6-C ,  7-H ) :   0.9393 B(  6-C ,  8-H ) :   0.9378 B(  6-C ,  9-C ) :   1.0642
B(  9-C , 10-H ) :   0.9475 B(  9-C , 11-H ) :   0.9558 B(  9-C , 12-C ) :   1.0838
B( 12-C , 13-H ) :   0.9728 B( 12-C , 14-H ) :   0.9730 B( 12-C , 15-H ) :   0.9752
B( 16-S , 17-C ) :   1.1403 B( 16-S , 20-C ) :   1.1751 B( 17-C , 18-C ) :   1.5751
B( 17-C , 20-C ) :   0.1096 B( 17-C , 33-H ) :   0.9723 B( 18-C , 19-C ) :   1.2579
B( 18-C , 21-H ) :   0.9883 B( 19-C , 20-C ) :   1.5574 B( 19-C , 22-C ) :   1.0304
B( 22-C , 23-H ) :   0.9261 B( 22-C , 24-H ) :   0.9267 B( 22-C , 25-C ) :   1.0732
B( 25-C , 26-H ) :   0.9434 B( 25-C , 27-H ) :   0.9519 B( 25-C , 28-C ) :   1.1054
B( 28-C , 29-H ) :   0.9668 B( 28-C , 30-H ) :   0.9684 B( 28-C , 31-H ) :   0.9739

Dispersion correction           -0.013092104
FINAL SINGLE POINT ENERGY     -1339.849616356894

DIPOLE MOMENT
-------------
                                X             Y             Z
Electronic contribution:     23.76825      13.65101      10.17753
Nuclear contribution   :    -24.27447     -14.05576     -10.54798
                        -----------------------------------------
Total Dipole Moment    :     -0.50622      -0.40475      -0.37046
                        -----------------------------------------
Magnitude (a.u.)       :      0.74654
Magnitude (Debye)      :      1.89755

Rotational constants in cm-1:     0.016769     0.008171     0.006057
Rotational constants in MHz :   502.710634   244.955513   181.597624

                             ****ORCA TERMINATED NORMALLY****
TOTAL RUN TIME: 0 days 0 hours 0 minutes 29 seconds 166 msec
