                         Program Version 4.2.1 -  RELEASE  -
|  1> ! wB97X-D3 SP def2-SVP
|  2> %pal
|  3> nprocs 16
|  4> end
|  5>
|  6> * xyz 0 1
|  7> S 	 44.4665 	 24.4596 	 90.8825
|  8> C 	 44.6274 	 25.8844 	 91.8121
|  9> C 	 44.3473 	 27.0483 	 91.1015
| 10> C 	 43.9702 	 26.8048 	 89.7459
| 11> C 	 43.9842 	 25.4269 	 89.474
| 12> H 	 43.7207 	 27.5598 	 89.0322
| 13> C 	 44.3687 	 28.4586 	 91.6845
| 14> H 	 45.3504 	 28.8338 	 91.6251
| 15> H 	 44.1225 	 28.1354 	 92.6701
| 16> C 	 43.3172 	 29.4169 	 91.2133
| 17> H 	 43.2693 	 29.4422 	 90.1135
| 18> H 	 42.2975 	 28.8983 	 91.3546
| 19> C 	 43.503 	 30.8982 	 91.7679
| 20> H 	 43.6119 	 30.9584 	 92.8598
| 21> H 	 44.4358 	 31.2998 	 91.2825
| 22> H 	 42.6798 	 31.583 	 91.6167
| 23> S 	 45.0639 	 23.9488 	 87.3744
| 24> C 	 44.0506 	 23.5581 	 86.0497
| 25> C 	 42.9126 	 24.3355 	 86.0597
| 26> C 	 42.6989 	 24.9783 	 87.3277
| 27> C 	 43.7461 	 24.8011 	 88.1559
| 28> H 	 42.3855 	 24.5408 	 85.1477
| 29> C 	 41.4498 	 25.8616 	 87.6164
| 30> H 	 41.4208 	 26.3267 	 88.5574
| 31> H 	 40.6571 	 25.1717 	 87.6567
| 32> C 	 41.1129 	 26.8576 	 86.4799
| 33> H 	 41.3701 	 26.5189 	 85.5331
| 34> H 	 41.4527 	 27.8234 	 86.6298
| 35> C 	 39.6059 	 26.9694 	 86.4007
| 36> H 	 39.0579 	 26.0715 	 86.1765
| 37> H 	 39.2874 	 27.5795 	 85.4833
| 38> H 	 39.1534 	 27.4374 	 87.3049
| 39> H 	 44.9389 	 25.822 	 92.9071
| 40> H 	 44.384 	 22.8766 	 85.28
| 41> *
| 42>
| 43>                          ****END OF INPUT****

CARTESIAN COORDINATES (ANGSTROEM)
---------------------------------
  S     44.466500   24.459600   90.882500
  C     44.627400   25.884400   91.812100
  C     44.347300   27.048300   91.101500
  C     43.970200   26.804800   89.745900
  C     43.984200   25.426900   89.474000
  H     43.720700   27.559800   89.032200
  C     44.368700   28.458600   91.684500
  H     45.350400   28.833800   91.625100
  H     44.122500   28.135400   92.670100
  C     43.317200   29.416900   91.213300
  H     43.269300   29.442200   90.113500
  H     42.297500   28.898300   91.354600
  C     43.503000   30.898200   91.767900
  H     43.611900   30.958400   92.859800
  H     44.435800   31.299800   91.282500
  H     42.679800   31.583000   91.616700
  S     45.063900   23.948800   87.374400
  C     44.050600   23.558100   86.049700
  C     42.912600   24.335500   86.059700
  C     42.698900   24.978300   87.327700
  C     43.746100   24.801100   88.155900
  H     42.385500   24.540800   85.147700
  C     41.449800   25.861600   87.616400
  H     41.420800   26.326700   88.557400
  H     40.657100   25.171700   87.656700
  C     41.112900   26.857600   86.479900
  H     41.370100   26.518900   85.533100
  H     41.452700   27.823400   86.629800
  C     39.605900   26.969400   86.400700
  H     39.057900   26.071500   86.176500
  H     39.287400   27.579500   85.483300
  H     39.153400   27.437400   87.304900
  H     44.938900   25.822000   92.907100
  H     44.384000   22.876600   85.280000

 Total Charge           Charge          ....    0
 Multiplicity           Mult            ....    1
 Number of Electrons    NEL             ....  134
 Basis Dimension        Dim             ....  322

ORBITAL ENERGIES
----------------

  NO   OCC          E(Eh)            E(eV)
   0   2.0000     -88.968471     -2420.9552
   1   2.0000     -88.959680     -2420.7159
   2   2.0000     -10.330486      -281.1068
   3   2.0000     -10.317440      -280.7518
   4   2.0000     -10.315945      -280.7111
   5   2.0000     -10.313119      -280.6342
   6   2.0000     -10.300259      -280.2843
   7   2.0000     -10.298862      -280.2463
   8   2.0000     -10.298843      -280.2458
   9   2.0000     -10.294864      -280.1375
  10   2.0000     -10.291008      -280.0326
  11   2.0000     -10.290809      -280.0272
  12   2.0000     -10.285489      -279.8824
  13   2.0000     -10.283181      -279.8196
  14   2.0000     -10.280240      -279.7395
  15   2.0000     -10.277286      -279.6592
  16   2.0000      -8.083337      -219.9588
  17   2.0000      -8.075539      -219.7466
  18   2.0000      -6.041682      -164.4025
  19   2.0000      -6.037813      -164.2972
  20   2.0000      -6.034289      -164.2014
  21   2.0000      -6.033978      -164.1929
  22   2.0000      -6.030098      -164.0873
  23   2.0000      -6.026094      -163.9784
  24   2.0000      -1.006947       -27.4004
  25   2.0000      -0.986220       -26.8364
  26   2.0000      -0.914102       -24.8740
  27   2.0000      -0.911668       -24.8078
  28   2.0000      -0.866535       -23.5796
  29   2.0000      -0.850346       -23.1391
  30   2.0000      -0.845232       -22.9999
  31   2.0000      -0.811825       -22.0909
  32   2.0000      -0.782107       -21.2822
  33   2.0000      -0.770382       -20.9632
  34   2.0000      -0.712521       -19.3887
  35   2.0000      -0.707998       -19.2656
  36   2.0000      -0.685331       -18.6488
  37   2.0000      -0.660061       -17.9612
  38   2.0000      -0.638729       -17.3807
  39   2.0000      -0.620720       -16.8907
  40   2.0000      -0.604965       -16.4619
  41   2.0000      -0.575583       -15.6624
  42   2.0000      -0.567675       -15.4472
  43   2.0000      -0.554963       -15.1013
  44   2.0000      -0.529457       -14.4072
  45   2.0000      -0.521705       -14.1963
  46   2.0000      -0.512122       -13.9355
  47   2.0000      -0.509417       -13.8619
  48   2.0000      -0.509023       -13.8512
  49   2.0000      -0.494570       -13.4579
  50   2.0000      -0.488478       -13.2922
  51   2.0000      -0.479492       -13.0477
  52   2.0000      -0.474797       -12.9199
  53   2.0000      -0.463078       -12.6010
  54   2.0000      -0.458226       -12.4690
  55   2.0000      -0.452657       -12.3174
  56   2.0000      -0.449284       -12.2256
  57   2.0000      -0.441267       -12.0075
  58   2.0000      -0.438353       -11.9282
  59   2.0000      -0.431431       -11.7398
  60   2.0000      -0.424105       -11.5405
  61   2.0000      -0.410322       -11.1654
  62   2.0000      -0.406871       -11.0715
  63   2.0000      -0.341513        -9.2931
  64   2.0000      -0.330579        -8.9955
  65   2.0000      -0.322811        -8.7841
  66   2.0000      -0.295346        -8.0368
  67   0.0000       0.035229         0.9586
  68   0.0000       0.069739         1.8977
  69   0.0000       0.109436         2.9779
  70   0.0000       0.121843         3.3155
  71   0.0000       0.133979         3.6458

MULLIKEN ATOMIC CHARGES
-----------------------
   0 S :    0.130150
   1 C :   -0.161533
   2 C :   -0.124066
   3 C :    0.050265
   4 C :   -0.188738
   5 H :    0.010342
   6 C :    0.141700
   7 H :    0.033669
   8 H :    0.014967
   9 C :   -0.129846
  10 H :    0.026564
  11 H :    0.032840
  12 C :   -0.051340
  13 H :    0.034652
  14 H :    0.045291
  15 H :    0.037135
  16 S :    0.110165
  17 C :   -0.098370
  18 C :   -0.043268
  19 C :   -0.030241
  20 C :   -0.162827
  21 H :    0.021049
  22 C :    0.129153
  23 H :    0.012424
  24 H :    0.013817
  25 C :    0.015715
  26 H :    0.007764
  27 H :    0.018039
  28 C :   -0.127365
  29 H :    0.028734
  30 H :    0.029939
  31 H :    0.040000
  32 H :    0.073811
  33 H :    0.059411
Sum of atomic charges:    0.0000000

LOEWDIN ATOMIC CHARGES
----------------------
   0 S :    0.422330
   1 C :   -0.228553
   2 C :   -0.063879
   3 C :   -0.054789
   4 C :   -0.185719
   5 H :    0.029169
   6 C :   -0.031391
   7 H :    0.026456
   8 H :    0.032624
   9 C :   -0.051996
  10 H :    0.018488
  11 H :    0.032728
  12 C :   -0.067932
  13 H :    0.026918
  14 H :    0.034471
  15 H :    0.026249
  16 S :    0.409952
  17 C :   -0.187979
  18 C :   -0.074477
  19 C :   -0.053506
  20 C :   -0.207219
  21 H :    0.027660
  22 C :   -0.012496
  23 H :    0.023705
  24 H :    0.028229
  25 C :   -0.023439
  26 H :    0.016040
  27 H :    0.017706
  28 C :   -0.072054
  29 H :    0.018439
  30 H :    0.029840
  31 H :    0.025334
  32 H :    0.041391
  33 H :    0.027701

  Mayer bond orders larger than 0.100000
B(  0-S ,  1-C ) :   1.1538 B(  0-S ,  4-C ) :   1.1742 B(  1-C ,  2-C ) :   1.6062
B(  1-C , 32-H ) :   0.9564 B(  2-C ,  3-C ) :   1.2590 B(  2-C ,  6-C ) :   0.9804
B(  3-C ,  4-C ) :   1.5473 B(  3-C ,  5-H ) :   0.9960 B(  4-C , 20-C ) :   1.0134
B(  6-C ,  7-H ) :   0.9360 B(  6-C ,  8-H ) :   0.9373 B(  6-C ,  9-C ) :   1.0742
B(  9-C , 10-H ) :   0.9531 B(  9-C , 11-H ) :   0.9561 B(  9-C , 12-C ) :   1.0591
B( 12-C , 13-H ) :   0.9791 B( 12-C , 14-H ) :   0.9754 B( 12-C , 15-H ) :   0.9774
B( 16-S , 17-C ) :   1.1667 B( 16-S , 20-C ) :   1.1403 B( 17-C , 18-C ) :   1.6044
B( 17-C , 33-H ) :   0.9707 B( 18-C , 19-C ) :   1.2254 B( 18-C , 21-H ) :   0.9898
B( 19-C , 20-C ) :   1.6453 B( 19-C , 22-C ) :   1.0252 B( 22-C , 23-H ) :   0.9316
B( 22-C , 24-H ) :   0.9370 B( 22-C , 25-C ) :   1.0576 B( 25-C , 26-H ) :   0.9570
B( 25-C , 27-H ) :   0.9543 B( 25-C , 28-C ) :   1.0801 B( 28-C , 29-H ) :   0.9758
B( 28-C , 30-H ) :   0.9723 B( 28-C , 31-H ) :   0.9766

Dispersion correction           -0.013798228
FINAL SINGLE POINT ENERGY     -1339.856736402562

DIPOLE MOMENT
-------------
                                X             Y             Z
Electronic contribution:     17.83273     -26.48774       0.21850
Nuclear contribution   :    -18.13304      27.08753      -0.33368
                        -----------------------------------------
Total Dipole Moment    :     -0.30031       0.59979      -0.11518
                        -----------------------------------------
Magnitude (a.u.)       :      0.68059
Magnitude (Debye)      :      1.72991

Rotational constants in cm-1:     0.015969     0.009208     0.006436
Rotational constants in MHz :   478.752447   276.044717   192.940898

                             ****ORCA TERMINATED NORMALLY****
TOTAL RUN TIME: 0 days 0 hours 0 minutes 28 seconds 50 msec
