                         Program Version 4.2.1 -  RELEASE  -
|  1> ! wB97X-D3 SP def2-SVP
|  2> %pal
|  3> nprocs 16
|  4> end
|  5>
|  6> * xyz 0 1
|  7> S 	 -13.5066 	 -9.31592 	 90.8716
|  8> C 	 -14.1585 	 -10.55 	 91.8434
|  9> C 	 -14.3852 	 -11.7499 	 91.1419
| 10> C 	 -14.1089 	 -11.5745 	 89.7662
| 11> C 	 -13.6906 	 -10.3022 	 89.4547
| 12> H 	 -14.402 	 -12.3049 	 88.9939
| 13> C 	 -14.8454 	 -13.0472 	 91.7929
| 14> H 	 -15.5308 	 -13.4488 	 91.0801
| 15> H 	 -15.2861 	 -12.8935 	 92.7473
| 16> C 	 -13.7538 	 -13.8951 	 92.3529
| 17> H 	 -13.0205 	 -13.8921 	 91.5875
| 18> H 	 -13.3026 	 -13.5662 	 93.2822
| 19> C 	 -14.2651 	 -15.2917 	 92.42
| 20> H 	 -14.7382 	 -15.6935 	 91.5237
| 21> H 	 -13.4495 	 -15.9089 	 92.8329
| 22> H 	 -14.9931 	 -15.2634 	 93.1756
| 23> S 	 -12.0809 	 -8.77722 	 87.6854
| 24> C 	 -12.7688 	 -8.43544 	 86.0639
| 25> C 	 -13.8623 	 -9.14985 	 85.8249
| 26> C 	 -14.2921 	 -9.92934 	 86.9631
| 27> C 	 -13.4804 	 -9.69394 	 88.0799
| 28> H 	 -14.3404 	 -9.03597 	 84.9027
| 29> C 	 -15.5995 	 -10.7739 	 86.9208
| 30> H 	 -16.4275 	 -10.093 	 86.4615
| 31> H 	 -15.8601 	 -11.128 	 87.9254
| 32> C 	 -15.3854 	 -12.0617 	 86.084
| 33> H 	 -14.5049 	 -12.6619 	 86.3498
| 34> H 	 -15.1164 	 -11.7021 	 85.08
| 35> C 	 -16.7045 	 -12.9497 	 86.0534
| 36> H 	 -16.6847 	 -13.5416 	 86.9122
| 37> H 	 -16.8557 	 -13.5752 	 85.2477
| 38> H 	 -17.6236 	 -12.4144 	 86.1424
| 39> H 	 -14.5381 	 -10.3143 	 92.8132
| 40> H 	 -12.2993 	 -7.81123 	 85.2976
| 41> *
| 42>
| 43>                          ****END OF INPUT****

CARTESIAN COORDINATES (ANGSTROEM)
---------------------------------
  S    -13.506600   -9.315920   90.871600
  C    -14.158500  -10.550000   91.843400
  C    -14.385200  -11.749900   91.141900
  C    -14.108900  -11.574500   89.766200
  C    -13.690600  -10.302200   89.454700
  H    -14.402000  -12.304900   88.993900
  C    -14.845400  -13.047200   91.792900
  H    -15.530800  -13.448800   91.080100
  H    -15.286100  -12.893500   92.747300
  C    -13.753800  -13.895100   92.352900
  H    -13.020500  -13.892100   91.587500
  H    -13.302600  -13.566200   93.282200
  C    -14.265100  -15.291700   92.420000
  H    -14.738200  -15.693500   91.523700
  H    -13.449500  -15.908900   92.832900
  H    -14.993100  -15.263400   93.175600
  S    -12.080900   -8.777220   87.685400
  C    -12.768800   -8.435440   86.063900
  C    -13.862300   -9.149850   85.824900
  C    -14.292100   -9.929340   86.963100
  C    -13.480400   -9.693940   88.079900
  H    -14.340400   -9.035970   84.902700
  C    -15.599500  -10.773900   86.920800
  H    -16.427500  -10.093000   86.461500
  H    -15.860100  -11.128000   87.925400
  C    -15.385400  -12.061700   86.084000
  H    -14.504900  -12.661900   86.349800
  H    -15.116400  -11.702100   85.080000
  C    -16.704500  -12.949700   86.053400
  H    -16.684700  -13.541600   86.912200
  H    -16.855700  -13.575200   85.247700
  H    -17.623600  -12.414400   86.142400
  H    -14.538100  -10.314300   92.813200
  H    -12.299300   -7.811230   85.297600

 Total Charge           Charge          ....    0
 Multiplicity           Mult            ....    1
 Number of Electrons    NEL             ....  134
 Basis Dimension        Dim             ....  322

ORBITAL ENERGIES
----------------

  NO   OCC          E(Eh)            E(eV)
   0   2.0000     -88.966447     -2420.9001
   1   2.0000     -88.964766     -2420.8544
   2   2.0000     -10.330216      -281.0995
   3   2.0000     -10.329127      -281.0698
   4   2.0000     -10.313941      -280.6566
   5   2.0000     -10.308149      -280.4990
   6   2.0000     -10.304002      -280.3861
   7   2.0000     -10.302955      -280.3577
   8   2.0000     -10.300685      -280.2959
   9   2.0000     -10.295410      -280.1523
  10   2.0000     -10.293888      -280.1109
  11   2.0000     -10.286950      -279.9221
  12   2.0000     -10.283571      -279.8302
  13   2.0000     -10.275566      -279.6124
  14   2.0000     -10.271629      -279.5052
  15   2.0000     -10.269117      -279.4369
  16   2.0000      -8.082357      -219.9321
  17   2.0000      -8.079471      -219.8536
  18   2.0000      -6.040614      -164.3735
  19   2.0000      -6.038069      -164.3042
  20   2.0000      -6.036650      -164.2656
  21   2.0000      -6.034167      -164.1980
  22   2.0000      -6.033382      -164.1767
  23   2.0000      -6.029966      -164.0837
  24   2.0000      -1.007979       -27.4285
  25   2.0000      -0.987449       -26.8698
  26   2.0000      -0.929109       -25.2823
  27   2.0000      -0.899906       -24.4877
  28   2.0000      -0.869203       -23.6522
  29   2.0000      -0.857031       -23.3210
  30   2.0000      -0.844119       -22.9696
  31   2.0000      -0.818806       -22.2809
  32   2.0000      -0.783781       -21.3278
  33   2.0000      -0.770244       -20.9594
  34   2.0000      -0.703209       -19.1353
  35   2.0000      -0.700466       -19.0606
  36   2.0000      -0.690999       -18.8031
  37   2.0000      -0.660265       -17.9667
  38   2.0000      -0.643716       -17.5164
  39   2.0000      -0.629764       -17.1367
  40   2.0000      -0.594223       -16.1696
  41   2.0000      -0.580575       -15.7983
  42   2.0000      -0.569673       -15.5016
  43   2.0000      -0.557646       -15.1743
  44   2.0000      -0.533538       -14.5183
  45   2.0000      -0.524579       -14.2745
  46   2.0000      -0.519045       -14.1239
  47   2.0000      -0.511995       -13.9321
  48   2.0000      -0.504067       -13.7164
  49   2.0000      -0.494424       -13.4540
  50   2.0000      -0.490478       -13.3466
  51   2.0000      -0.480273       -13.0689
  52   2.0000      -0.470091       -12.7918
  53   2.0000      -0.467390       -12.7183
  54   2.0000      -0.462400       -12.5825
  55   2.0000      -0.457922       -12.4607
  56   2.0000      -0.450552       -12.2601
  57   2.0000      -0.445545       -12.1239
  58   2.0000      -0.444045       -12.0831
  59   2.0000      -0.418794       -11.3960
  60   2.0000      -0.415534       -11.3072
  61   2.0000      -0.414811       -11.2876
  62   2.0000      -0.400597       -10.9008
  63   2.0000      -0.352409        -9.5895
  64   2.0000      -0.335582        -9.1317
  65   2.0000      -0.327249        -8.9049
  66   2.0000      -0.287532        -7.8242
  67   0.0000       0.034217         0.9311
  68   0.0000       0.073686         2.0051
  69   0.0000       0.111816         3.0427
  70   0.0000       0.119093         3.2407
  71   0.0000       0.128776         3.5042

MULLIKEN ATOMIC CHARGES
-----------------------
   0 S :    0.125870
   1 C :   -0.122574
   2 C :   -0.108480
   3 C :    0.024176
   4 C :   -0.161551
   5 H :    0.016937
   6 C :    0.075706
   7 H :    0.023786
   8 H :    0.004012
   9 C :   -0.038594
  10 H :    0.008522
  11 H :    0.035423
  12 C :   -0.019417
  13 H :    0.036744
  14 H :    0.033628
  15 H :   -0.000482
  16 S :    0.099101
  17 C :   -0.094633
  18 C :   -0.000165
  19 C :   -0.047339
  20 C :   -0.122700
  21 H :    0.000505
  22 C :    0.024591
  23 H :    0.056359
  24 H :    0.028499
  25 C :   -0.105456
  26 H :    0.041054
  27 H :    0.020900
  28 C :    0.021447
  29 H :    0.008607
  30 H :    0.018588
  31 H :    0.015408
  32 H :    0.044873
  33 H :    0.056653
Sum of atomic charges:   -0.0000000

LOEWDIN ATOMIC CHARGES
----------------------
   0 S :    0.437799
   1 C :   -0.213401
   2 C :   -0.058196
   3 C :   -0.072213
   4 C :   -0.192549
   5 H :    0.035993
   6 C :   -0.030515
   7 H :    0.027562
   8 H :    0.030457
   9 C :   -0.032838
  10 H :    0.013686
  11 H :    0.027909
  12 C :   -0.055938
  13 H :    0.027147
  14 H :    0.029841
  15 H :    0.013837
  16 S :    0.388004
  17 C :   -0.169466
  18 C :   -0.064340
  19 C :   -0.060072
  20 C :   -0.205959
  21 H :    0.026120
  22 C :   -0.032767
  23 H :    0.043651
  24 H :    0.024150
  25 C :   -0.040760
  26 H :    0.026442
  27 H :    0.019456
  28 C :   -0.057199
  29 H :    0.018314
  30 H :    0.017060
  31 H :    0.024443
  32 H :    0.020794
  33 H :    0.033547

  Mayer bond orders larger than 0.100000
B(  0-S ,  1-C ) :   1.1690 B(  0-S ,  4-C ) :   1.1819 B(  1-C ,  2-C ) :   1.5718
B(  1-C ,  4-C ) :   0.1009 B(  1-C , 32-H ) :   0.9705 B(  2-C ,  3-C ) :   1.2719
B(  2-C ,  6-C ) :   1.0330 B(  3-C ,  4-C ) :   1.5527 B(  3-C ,  5-H ) :   0.9889
B(  4-C , 20-C ) :   0.9959 B(  6-C ,  7-H ) :   0.9470 B(  6-C ,  8-H ) :   0.9345
B(  6-C ,  9-C ) :   1.0428 B(  9-C , 10-H ) :   0.9537 B(  9-C , 11-H ) :   0.9555
B(  9-C , 12-C ) :   1.0874 B( 12-C , 13-H ) :   0.9765 B( 12-C , 14-H ) :   0.9693
B( 12-C , 15-H ) :   0.9673 B( 16-S , 17-C ) :   1.1140 B( 16-S , 20-C ) :   1.1476
B( 17-C , 18-C ) :   1.6707 B( 17-C , 33-H ) :   0.9631 B( 18-C , 19-C ) :   1.2032
B( 18-C , 21-H ) :   0.9967 B( 19-C , 20-C ) :   1.6205 B( 19-C , 22-C ) :   1.0348
B( 22-C , 23-H ) :   0.9408 B( 22-C , 24-H ) :   0.9409 B( 22-C , 25-C ) :   1.0459
B( 25-C , 26-H ) :   0.9588 B( 25-C , 27-H ) :   0.9611 B( 25-C , 28-C ) :   1.0589
B( 28-C , 29-H ) :   0.9744 B( 28-C , 30-H ) :   0.9775 B( 28-C , 31-H ) :   0.9740

Dispersion correction           -0.013914640
FINAL SINGLE POINT ENERGY     -1339.850611751388

DIPOLE MOMENT
-------------
                                X             Y             Z
Electronic contribution:     15.26171      27.41086      -0.20661
Nuclear contribution   :    -15.76354     -27.88675       0.09269
                        -----------------------------------------
Total Dipole Moment    :     -0.50183      -0.47588      -0.11392
                        -----------------------------------------
Magnitude (a.u.)       :      0.70091
Magnitude (Debye)      :      1.78158

Rotational constants in cm-1:     0.017522     0.008781     0.006408
Rotational constants in MHz :   525.290054   263.246080   192.093413

                             ****ORCA TERMINATED NORMALLY****
TOTAL RUN TIME: 0 days 0 hours 0 minutes 34 seconds 25 msec
