                         Program Version 4.2.1 -  RELEASE  -
|  1> ! wB97X-D3 SP def2-SVP
|  2> %pal
|  3> nprocs 16
|  4> end
|  5>
|  6> * xyz 0 1
|  7> S 	 -17.3758 	 -9.85156 	 81.5432
|  8> C 	 -16.224 	 -9.38231 	 80.2119
|  9> C 	 -15.1904 	 -8.6691 	 80.7293
| 10> C 	 -15.3437 	 -8.4046 	 82.1273
| 11> C 	 -16.4772 	 -8.93923 	 82.7429
| 12> H 	 -14.6742 	 -7.76099 	 82.7706
| 13> C 	 -14.1324 	 -8.01708 	 79.9032
| 14> H 	 -13.2084 	 -8.56872 	 80.1953
| 15> H 	 -13.9245 	 -7.06314 	 80.3782
| 16> C 	 -14.243 	 -7.86408 	 78.4077
| 17> H 	 -14.492 	 -8.81741 	 77.8844
| 18> H 	 -15.068 	 -7.16197 	 78.2348
| 19> C 	 -12.9839 	 -7.25609 	 77.7471
| 20> H 	 -12.7328 	 -6.44325 	 78.3376
| 21> H 	 -12.0898 	 -7.83488 	 77.7255
| 22> H 	 -13.2327 	 -6.89802 	 76.7151
| 23> S 	 -17.5001 	 -10.3499 	 84.9689
| 24> C 	 -17.4857 	 -9.48677 	 86.5284
| 25> C 	 -17.3667 	 -8.11194 	 86.3179
| 26> C 	 -17.1106 	 -7.71263 	 84.9449
| 27> C 	 -17.1021 	 -8.83341 	 84.0733
| 28> H 	 -17.5615 	 -7.44722 	 87.1033
| 29> C 	 -16.8889 	 -6.23911 	 84.6128
| 30> H 	 -16.4992 	 -6.25261 	 83.6405
| 31> H 	 -16.0587 	 -5.88446 	 85.2344
| 32> C 	 -18.1356 	 -5.25223 	 84.7449
| 33> H 	 -18.373 	 -5.08825 	 85.7805
| 34> H 	 -19.0811 	 -5.6208 	 84.3305
| 35> C 	 -17.97 	 -3.81416 	 84.2001
| 36> H 	 -18.7101 	 -3.16493 	 84.6636
| 37> H 	 -18.1902 	 -3.72924 	 83.1173
| 38> H 	 -16.9978 	 -3.38873 	 84.4584
| 39> H 	 -16.4192 	 -9.55267 	 79.1299
| 40> H 	 -17.5509 	 -9.95027 	 87.4937
| 41> *
| 42>
| 43>                          ****END OF INPUT****

CARTESIAN COORDINATES (ANGSTROEM)
---------------------------------
  S    -17.375800   -9.851560   81.543200
  C    -16.224000   -9.382310   80.211900
  C    -15.190400   -8.669100   80.729300
  C    -15.343700   -8.404600   82.127300
  C    -16.477200   -8.939230   82.742900
  H    -14.674200   -7.760990   82.770600
  C    -14.132400   -8.017080   79.903200
  H    -13.208400   -8.568720   80.195300
  H    -13.924500   -7.063140   80.378200
  C    -14.243000   -7.864080   78.407700
  H    -14.492000   -8.817410   77.884400
  H    -15.068000   -7.161970   78.234800
  C    -12.983900   -7.256090   77.747100
  H    -12.732800   -6.443250   78.337600
  H    -12.089800   -7.834880   77.725500
  H    -13.232700   -6.898020   76.715100
  S    -17.500100  -10.349900   84.968900
  C    -17.485700   -9.486770   86.528400
  C    -17.366700   -8.111940   86.317900
  C    -17.110600   -7.712630   84.944900
  C    -17.102100   -8.833410   84.073300
  H    -17.561500   -7.447220   87.103300
  C    -16.888900   -6.239110   84.612800
  H    -16.499200   -6.252610   83.640500
  H    -16.058700   -5.884460   85.234400
  C    -18.135600   -5.252230   84.744900
  H    -18.373000   -5.088250   85.780500
  H    -19.081100   -5.620800   84.330500
  C    -17.970000   -3.814160   84.200100
  H    -18.710100   -3.164930   84.663600
  H    -18.190200   -3.729240   83.117300
  H    -16.997800   -3.388730   84.458400
  H    -16.419200   -9.552670   79.129900
  H    -17.550900   -9.950270   87.493700

 Total Charge           Charge          ....    0
 Multiplicity           Mult            ....    1
 Number of Electrons    NEL             ....  134
 Basis Dimension        Dim             ....  322

ORBITAL ENERGIES
----------------

  NO   OCC          E(Eh)            E(eV)
   0   2.0000     -88.968535     -2420.9569
   1   2.0000     -88.957695     -2420.6620
   2   2.0000     -10.337830      -281.3067
   3   2.0000     -10.335545      -281.2445
   4   2.0000     -10.325748      -280.9779
   5   2.0000     -10.316401      -280.7235
   6   2.0000     -10.314029      -280.6590
   7   2.0000     -10.302035      -280.3326
   8   2.0000     -10.301703      -280.3236
   9   2.0000     -10.296665      -280.1865
  10   2.0000     -10.295451      -280.1535
  11   2.0000     -10.294526      -280.1283
  12   2.0000     -10.293019      -280.0873
  13   2.0000     -10.292298      -280.0677
  14   2.0000     -10.281740      -279.7804
  15   2.0000     -10.277311      -279.6598
  16   2.0000      -8.081923      -219.9203
  17   2.0000      -8.071853      -219.6463
  18   2.0000      -6.040690      -164.3755
  19   2.0000      -6.036650      -164.2656
  20   2.0000      -6.032434      -164.1509
  21   2.0000      -6.030612      -164.1013
  22   2.0000      -6.026400      -163.9867
  23   2.0000      -6.022423      -163.8785
  24   2.0000      -0.996634       -27.1198
  25   2.0000      -0.974516       -26.5179
  26   2.0000      -0.916372       -24.9358
  27   2.0000      -0.899718       -24.4826
  28   2.0000      -0.869314       -23.6552
  29   2.0000      -0.851048       -23.1582
  30   2.0000      -0.839436       -22.8422
  31   2.0000      -0.812296       -22.1037
  32   2.0000      -0.785639       -21.3783
  33   2.0000      -0.772419       -21.0186
  34   2.0000      -0.714595       -19.4451
  35   2.0000      -0.705077       -19.1861
  36   2.0000      -0.696016       -18.9395
  37   2.0000      -0.659920       -17.9573
  38   2.0000      -0.633540       -17.2395
  39   2.0000      -0.608653       -16.5623
  40   2.0000      -0.592383       -16.1196
  41   2.0000      -0.575445       -15.6587
  42   2.0000      -0.565124       -15.3778
  43   2.0000      -0.560081       -15.2406
  44   2.0000      -0.525997       -14.3131
  45   2.0000      -0.525534       -14.3005
  46   2.0000      -0.522587       -14.2203
  47   2.0000      -0.512435       -13.9441
  48   2.0000      -0.506001       -13.7690
  49   2.0000      -0.500334       -13.6148
  50   2.0000      -0.489683       -13.3249
  51   2.0000      -0.479755       -13.0548
  52   2.0000      -0.477473       -12.9927
  53   2.0000      -0.456905       -12.4330
  54   2.0000      -0.452568       -12.3150
  55   2.0000      -0.449191       -12.2231
  56   2.0000      -0.442485       -12.0406
  57   2.0000      -0.438583       -11.9344
  58   2.0000      -0.433584       -11.7984
  59   2.0000      -0.427170       -11.6239
  60   2.0000      -0.423355       -11.5201
  61   2.0000      -0.418877       -11.3982
  62   2.0000      -0.412156       -11.2153
  63   2.0000      -0.347436        -9.4542
  64   2.0000      -0.329292        -8.9605
  65   2.0000      -0.325049        -8.8450
  66   2.0000      -0.289636        -7.8814
  67   0.0000       0.024169         0.6577
  68   0.0000       0.061744         1.6801
  69   0.0000       0.099877         2.7178
  70   0.0000       0.119886         3.2623
  71   0.0000       0.131639         3.5821

MULLIKEN ATOMIC CHARGES
-----------------------
   0 S :    0.065569
   1 C :   -0.153115
   2 C :   -0.061857
   3 C :    0.001630
   4 C :   -0.146242
   5 H :    0.029624
   6 C :    0.048816
   7 H :    0.035061
   8 H :    0.016269
   9 C :   -0.082258
  10 H :    0.041114
  11 H :    0.036092
  12 C :   -0.019558
  13 H :    0.005914
  14 H :    0.030177
  15 H :    0.041536
  16 S :    0.098066
  17 C :   -0.092594
  18 C :   -0.010507
  19 C :   -0.079661
  20 C :   -0.113961
  21 H :    0.006926
  22 C :    0.118916
  23 H :    0.000382
  24 H :    0.031473
  25 C :   -0.066583
  26 H :    0.020284
  27 H :    0.036533
  28 C :   -0.069397
  29 H :    0.028986
  30 H :    0.043752
  31 H :    0.029960
  32 H :    0.066109
  33 H :    0.062546
Sum of atomic charges:    0.0000000

LOEWDIN ATOMIC CHARGES
----------------------
   0 S :    0.362192
   1 C :   -0.183862
   2 C :   -0.067142
   3 C :   -0.077612
   4 C :   -0.179187
   5 H :    0.037649
   6 C :   -0.041280
   7 H :    0.040133
   8 H :    0.030812
   9 C :   -0.042180
  10 H :    0.026195
  11 H :    0.029354
  12 C :   -0.056520
  13 H :    0.014836
  14 H :    0.022144
  15 H :    0.035153
  16 S :    0.375355
  17 C :   -0.164726
  18 C :   -0.064297
  19 C :   -0.043220
  20 C :   -0.194492
  21 H :    0.021986
  22 C :   -0.027162
  23 H :    0.020513
  24 H :    0.035875
  25 C :   -0.037494
  26 H :    0.019902
  27 H :    0.029584
  28 C :   -0.068432
  29 H :    0.027554
  30 H :    0.028108
  31 H :    0.022993
  32 H :    0.037215
  33 H :    0.030050

  Mayer bond orders larger than 0.100000
B(  0-S ,  1-C ) :   1.1043 B(  0-S ,  4-C ) :   1.1441 B(  1-C ,  2-C ) :   1.6523
B(  1-C , 32-H ) :   0.9598 B(  2-C ,  3-C ) :   1.2118 B(  2-C ,  6-C ) :   1.0138
B(  3-C ,  4-C ) :   1.6085 B(  3-C ,  5-H ) :   0.9813 B(  4-C , 20-C ) :   1.0079
B(  6-C ,  7-H ) :   0.9224 B(  6-C ,  8-H ) :   0.9365 B(  6-C ,  9-C ) :   1.0766
B(  9-C , 10-H ) :   0.9485 B(  9-C , 11-H ) :   0.9526 B(  9-C , 12-C ) :   1.0828
B( 12-C , 13-H ) :   0.9723 B( 12-C , 14-H ) :   0.9767 B( 12-C , 15-H ) :   0.9735
B( 16-S , 17-C ) :   1.1458 B( 16-S , 20-C ) :   1.1180 B( 17-C , 18-C ) :   1.6142
B( 17-C , 33-H ) :   0.9704 B( 18-C , 19-C ) :   1.2265 B( 18-C , 21-H ) :   0.9956
B( 19-C , 20-C ) :   1.5977 B( 19-C , 22-C ) :   1.0483 B( 22-C , 23-H ) :   0.9304
B( 22-C , 24-H ) :   0.9311 B( 22-C , 25-C ) :   1.0445 B( 25-C , 26-H ) :   0.9585
B( 25-C , 27-H ) :   0.9596 B( 25-C , 28-C ) :   1.0876 B( 28-C , 29-H ) :   0.9750
B( 28-C , 30-H ) :   0.9779 B( 28-C , 31-H ) :   0.9750

Dispersion correction           -0.013095728
FINAL SINGLE POINT ENERGY     -1339.866211064598

DIPOLE MOMENT
-------------
                                X             Y             Z
Electronic contribution:    -10.77205     -25.44717      12.02898
Nuclear contribution   :     11.15168      26.27548     -11.94653
                        -----------------------------------------
Total Dipole Moment    :      0.37963       0.82831       0.08245
                        -----------------------------------------
Magnitude (a.u.)       :      0.91488
Magnitude (Debye)      :      2.32544

Rotational constants in cm-1:     0.017948     0.007493     0.005825
Rotational constants in MHz :   538.060734   224.644713   174.622830

                             ****ORCA TERMINATED NORMALLY****
TOTAL RUN TIME: 0 days 0 hours 0 minutes 31 seconds 485 msec
