                         Program Version 4.2.1 -  RELEASE  -
|  1> ! wB97X-D3 SP def2-SVP
|  2> %pal
|  3> nprocs 16
|  4> end
|  5>
|  6> * xyz 0 1
|  7> S 	 -38.9176 	 31.3374 	 76.9033
|  8> C 	 -39.2467 	 32.8813 	 76.1332
|  9> C 	 -38.4231 	 33.7817 	 76.6797
| 10> C 	 -37.5674 	 33.2097 	 77.7042
| 11> C 	 -37.7319 	 31.906 	 78.0495
| 12> H 	 -36.8756 	 33.6879 	 78.3246
| 13> C 	 -38.2095 	 35.1685 	 76.1003
| 14> H 	 -37.9408 	 34.9457 	 75.0721
| 15> H 	 -37.2946 	 35.6087 	 76.4555
| 16> C 	 -39.3887 	 36.1422 	 76.2567
| 17> H 	 -40.2917 	 35.7793 	 75.7279
| 18> H 	 -39.6666 	 36.1276 	 77.3266
| 19> C 	 -39.17 	 37.6145 	 75.8575
| 20> H 	 -40.0834 	 38.144 	 76.0535
| 21> H 	 -38.3879 	 38.1411 	 76.3213
| 22> H 	 -38.9255 	 37.7271 	 74.8192
| 23> S 	 -36.0411 	 29.7244 	 78.1781
| 24> C 	 -35.3837 	 29.2231 	 79.7014
| 25> C 	 -36.0477 	 29.8388 	 80.7782
| 26> C 	 -36.9341 	 30.8795 	 80.3595
| 27> C 	 -36.9607 	 31.0145 	 78.9418
| 28> H 	 -35.8297 	 29.4543 	 81.7193
| 29> C 	 -37.9085 	 31.7007 	 81.2163
| 30> H 	 -38.0373 	 32.6469 	 80.7087
| 31> H 	 -37.4841 	 31.9011 	 82.1785
| 32> C 	 -39.2234 	 30.9391 	 81.5173
| 33> H 	 -39.6641 	 30.4738 	 80.5967
| 34> H 	 -39.912 	 31.6874 	 81.8822
| 35> C 	 -39.1399 	 29.9169 	 82.5596
| 36> H 	 -38.9871 	 30.3687 	 83.5768
| 37> H 	 -38.483 	 29.086 	 82.3967
| 38> H 	 -40.0952 	 29.414 	 82.4833
| 39> H 	 -39.5949 	 33.0769 	 75.1361
| 40> H 	 -34.7421 	 28.3754 	 79.8076
| 41> *
| 42>
| 43>                          ****END OF INPUT****

CARTESIAN COORDINATES (ANGSTROEM)
---------------------------------
  S    -38.917600   31.337400   76.903300
  C    -39.246700   32.881300   76.133200
  C    -38.423100   33.781700   76.679700
  C    -37.567400   33.209700   77.704200
  C    -37.731900   31.906000   78.049500
  H    -36.875600   33.687900   78.324600
  C    -38.209500   35.168500   76.100300
  H    -37.940800   34.945700   75.072100
  H    -37.294600   35.608700   76.455500
  C    -39.388700   36.142200   76.256700
  H    -40.291700   35.779300   75.727900
  H    -39.666600   36.127600   77.326600
  C    -39.170000   37.614500   75.857500
  H    -40.083400   38.144000   76.053500
  H    -38.387900   38.141100   76.321300
  H    -38.925500   37.727100   74.819200
  S    -36.041100   29.724400   78.178100
  C    -35.383700   29.223100   79.701400
  C    -36.047700   29.838800   80.778200
  C    -36.934100   30.879500   80.359500
  C    -36.960700   31.014500   78.941800
  H    -35.829700   29.454300   81.719300
  C    -37.908500   31.700700   81.216300
  H    -38.037300   32.646900   80.708700
  H    -37.484100   31.901100   82.178500
  C    -39.223400   30.939100   81.517300
  H    -39.664100   30.473800   80.596700
  H    -39.912000   31.687400   81.882200
  C    -39.139900   29.916900   82.559600
  H    -38.987100   30.368700   83.576800
  H    -38.483000   29.086000   82.396700
  H    -40.095200   29.414000   82.483300
  H    -39.594900   33.076900   75.136100
  H    -34.742100   28.375400   79.807600

 Total Charge           Charge          ....    0
 Multiplicity           Mult            ....    1
 Number of Electrons    NEL             ....  134
 Basis Dimension        Dim             ....  322

ORBITAL ENERGIES
----------------

  NO   OCC          E(Eh)            E(eV)
   0   2.0000     -88.969455     -2420.9820
   1   2.0000     -88.956715     -2420.6353
   2   2.0000     -10.333228      -281.1814
   3   2.0000     -10.329673      -281.0847
   4   2.0000     -10.320150      -280.8256
   5   2.0000     -10.313596      -280.6472
   6   2.0000     -10.307237      -280.4742
   7   2.0000     -10.298217      -280.2287
   8   2.0000     -10.296663      -280.1864
   9   2.0000     -10.291476      -280.0453
  10   2.0000     -10.289570      -279.9934
  11   2.0000     -10.288936      -279.9762
  12   2.0000     -10.286754      -279.9168
  13   2.0000     -10.281976      -279.7868
  14   2.0000     -10.272389      -279.5259
  15   2.0000     -10.271568      -279.5036
  16   2.0000      -8.084107      -219.9797
  17   2.0000      -8.071773      -219.6441
  18   2.0000      -6.042435      -164.4230
  19   2.0000      -6.038569      -164.3178
  20   2.0000      -6.035118      -164.2239
  21   2.0000      -6.030425      -164.0962
  22   2.0000      -6.026099      -163.9785
  23   2.0000      -6.022427      -163.8786
  24   2.0000      -1.007874       -27.4257
  25   2.0000      -0.986702       -26.8495
  26   2.0000      -0.913785       -24.8654
  27   2.0000      -0.910261       -24.7695
  28   2.0000      -0.872606       -23.7448
  29   2.0000      -0.854340       -23.2478
  30   2.0000      -0.840877       -22.8814
  31   2.0000      -0.822655       -22.3856
  32   2.0000      -0.786409       -21.3993
  33   2.0000      -0.775673       -21.1071
  34   2.0000      -0.706392       -19.2219
  35   2.0000      -0.705318       -19.1927
  36   2.0000      -0.688276       -18.7289
  37   2.0000      -0.663261       -18.0482
  38   2.0000      -0.645377       -17.5616
  39   2.0000      -0.614454       -16.7202
  40   2.0000      -0.595720       -16.2104
  41   2.0000      -0.575479       -15.6596
  42   2.0000      -0.559646       -15.2287
  43   2.0000      -0.554521       -15.0893
  44   2.0000      -0.547598       -14.9009
  45   2.0000      -0.532342       -14.4857
  46   2.0000      -0.523212       -14.2373
  47   2.0000      -0.515663       -14.0319
  48   2.0000      -0.510494       -13.8912
  49   2.0000      -0.494708       -13.4617
  50   2.0000      -0.489194       -13.3116
  51   2.0000      -0.485229       -13.2038
  52   2.0000      -0.476401       -12.9635
  53   2.0000      -0.469551       -12.7771
  54   2.0000      -0.457044       -12.4368
  55   2.0000      -0.443427       -12.0663
  56   2.0000      -0.442094       -12.0300
  57   2.0000      -0.438315       -11.9272
  58   2.0000      -0.434361       -11.8196
  59   2.0000      -0.423762       -11.5312
  60   2.0000      -0.416146       -11.3239
  61   2.0000      -0.413911       -11.2631
  62   2.0000      -0.402909       -10.9637
  63   2.0000      -0.340053        -9.2533
  64   2.0000      -0.332507        -9.0480
  65   2.0000      -0.322562        -8.7774
  66   2.0000      -0.304569        -8.2877
  67   0.0000       0.030382         0.8267
  68   0.0000       0.058609         1.5948
  69   0.0000       0.114920         3.1271
  70   0.0000       0.123845         3.3700
  71   0.0000       0.132056         3.5934

MULLIKEN ATOMIC CHARGES
-----------------------
   0 S :    0.072933
   1 C :   -0.088039
   2 C :   -0.109555
   3 C :    0.060703
   4 C :   -0.158746
   5 H :   -0.020213
   6 C :    0.081695
   7 H :    0.027187
   8 H :    0.007931
   9 C :   -0.091043
  10 H :    0.031399
  11 H :    0.034297
  12 C :   -0.011878
  13 H :    0.032062
  14 H :    0.017284
  15 H :    0.018557
  16 S :    0.125509
  17 C :   -0.090864
  18 C :   -0.030018
  19 C :   -0.025529
  20 C :   -0.181416
  21 H :   -0.001792
  22 C :    0.118915
  23 H :    0.026538
  24 H :    0.004956
  25 C :   -0.072968
  26 H :    0.037184
  27 H :    0.028875
  28 C :   -0.043280
  29 H :    0.038380
  30 H :    0.025235
  31 H :    0.026588
  32 H :    0.054484
  33 H :    0.054632
Sum of atomic charges:   -0.0000000

LOEWDIN ATOMIC CHARGES
----------------------
   0 S :    0.390810
   1 C :   -0.195899
   2 C :   -0.064901
   3 C :   -0.066632
   4 C :   -0.195200
   5 H :    0.018042
   6 C :   -0.033708
   7 H :    0.031219
   8 H :    0.026669
   9 C :   -0.040450
  10 H :    0.026530
  11 H :    0.029034
  12 C :   -0.062073
  13 H :    0.028846
  14 H :    0.017746
  15 H :    0.022233
  16 S :    0.424989
  17 C :   -0.182943
  18 C :   -0.066677
  19 C :   -0.039747
  20 C :   -0.207213
  21 H :    0.021344
  22 C :   -0.027093
  23 H :    0.031069
  24 H :    0.023917
  25 C :   -0.040296
  26 H :    0.030552
  27 H :    0.027054
  28 C :   -0.069823
  29 H :    0.029567
  30 H :    0.019950
  31 H :    0.032719
  32 H :    0.035496
  33 H :    0.024871

  Mayer bond orders larger than 0.100000
B(  0-S ,  1-C ) :   1.1296 B(  0-S ,  4-C ) :   1.1346 B(  1-C ,  2-C ) :   1.6375
B(  1-C , 32-H ) :   0.9608 B(  2-C ,  3-C ) :   1.2199 B(  2-C ,  6-C ) :   1.0148
B(  3-C ,  4-C ) :   1.6111 B(  3-C ,  5-H ) :   1.0036 B(  4-C , 20-C ) :   1.0157
B(  6-C ,  7-H ) :   0.9382 B(  6-C ,  8-H ) :   0.9444 B(  6-C ,  9-C ) :   1.0540
B(  9-C , 10-H ) :   0.9559 B(  9-C , 11-H ) :   0.9577 B(  9-C , 12-C ) :   1.0882
B( 12-C , 13-H ) :   0.9737 B( 12-C , 14-H ) :   0.9742 B( 12-C , 15-H ) :   0.9729
B( 16-S , 17-C ) :   1.1819 B( 16-S , 20-C ) :   1.1628 B( 17-C , 18-C ) :   1.5708
B( 17-C , 20-C ) :   0.1123 B( 17-C , 33-H ) :   0.9692 B( 18-C , 19-C ) :   1.2560
B( 18-C , 21-H ) :   1.0051 B( 19-C , 20-C ) :   1.5485 B( 19-C , 22-C ) :   1.0518
B( 22-C , 23-H ) :   0.9250 B( 22-C , 24-H ) :   0.9294 B( 22-C , 25-C ) :   1.0640
B( 25-C , 26-H ) :   0.9560 B( 25-C , 27-H ) :   0.9503 B( 25-C , 28-C ) :   1.0965
B( 28-C , 29-H ) :   0.9705 B( 28-C , 30-H ) :   0.9690 B( 28-C , 31-H ) :   0.9653

Dispersion correction           -0.013912759
FINAL SINGLE POINT ENERGY     -1339.860315933391

DIPOLE MOMENT
-------------
                                X             Y             Z
Electronic contribution:     10.11907     -19.04449      -8.19988
Nuclear contribution   :    -10.03103      19.36862       8.48826
                        -----------------------------------------
Total Dipole Moment    :      0.08804       0.32413       0.28837
                        -----------------------------------------
Magnitude (a.u.)       :      0.44269
Magnitude (Debye)      :      1.12522

Rotational constants in cm-1:     0.022693     0.006979     0.006183
Rotational constants in MHz :   680.309408   209.235769   185.366601

                             ****ORCA TERMINATED NORMALLY****
TOTAL RUN TIME: 0 days 0 hours 0 minutes 29 seconds 115 msec
