                         Program Version 4.2.1 -  RELEASE  -
|  1> ! wB97X-D3 SP def2-SVP
|  2> %pal
|  3> nprocs 16
|  4> end
|  5>
|  6> * xyz 0 1
|  7> S 	 -15.313 	 -8.8826 	 84.9144
|  8> C 	 -15.5577 	 -9.84582 	 86.3725
|  9> C 	 -14.329 	 -10.1622 	 86.9468
| 10> C 	 -13.3149 	 -9.44397 	 86.3128
| 11> C 	 -13.6427 	 -8.69021 	 85.2202
| 12> H 	 -12.3232 	 -9.45054 	 86.691
| 13> C 	 -14.112 	 -11.0714 	 88.143
| 14> H 	 -13.7625 	 -12.079 	 87.7819
| 15> H 	 -15.1325 	 -11.3229 	 88.4287
| 16> C 	 -13.2262 	 -10.6036 	 89.2565
| 17> H 	 -12.2182 	 -10.6001 	 88.8413
| 18> H 	 -13.5009 	 -9.59425 	 89.6015
| 19> C 	 -13.292 	 -11.5113 	 90.4707
| 20> H 	 -12.8948 	 -10.9648 	 91.299
| 21> H 	 -14.3321 	 -11.7367 	 90.6559
| 22> H 	 -12.6301 	 -12.4402 	 90.4555
| 23> S 	 -13.1162 	 -7.75983 	 82.7466
| 24> C 	 -11.5335 	 -7.05913 	 82.3576
| 25> C 	 -10.8562 	 -6.93009 	 83.5079
| 26> C 	 -11.551 	 -7.30774 	 84.6931
| 27> C 	 -12.7665 	 -7.87384 	 84.44
| 28> H 	 -9.83292 	 -6.52794 	 83.4279
| 29> C 	 -11.0148 	 -6.994 	 86.0831
| 30> H 	 -11.5781 	 -7.37116 	 86.8636
| 31> H 	 -11.0045 	 -5.92012 	 86.2506
| 32> C 	 -9.55535 	 -7.36216 	 86.3453
| 33> H 	 -9.43139 	 -7.00366 	 87.3381
| 34> H 	 -8.90403 	 -6.72365 	 85.7456
| 35> C 	 -9.2858 	 -8.86868 	 86.2843
| 36> H 	 -8.26498 	 -9.09534 	 86.4332
| 37> H 	 -9.51104 	 -9.21 	 85.2604
| 38> H 	 -9.81998 	 -9.57746 	 86.9464
| 39> H 	 -16.45 	 -10.2238 	 86.7187
| 40> H 	 -11.0771 	 -6.80968 	 81.4118
| 41> *
| 42>
| 43>                          ****END OF INPUT****

CARTESIAN COORDINATES (ANGSTROEM)
---------------------------------
  S    -15.313000   -8.882600   84.914400
  C    -15.557700   -9.845820   86.372500
  C    -14.329000  -10.162200   86.946800
  C    -13.314900   -9.443970   86.312800
  C    -13.642700   -8.690210   85.220200
  H    -12.323200   -9.450540   86.691000
  C    -14.112000  -11.071400   88.143000
  H    -13.762500  -12.079000   87.781900
  H    -15.132500  -11.322900   88.428700
  C    -13.226200  -10.603600   89.256500
  H    -12.218200  -10.600100   88.841300
  H    -13.500900   -9.594250   89.601500
  C    -13.292000  -11.511300   90.470700
  H    -12.894800  -10.964800   91.299000
  H    -14.332100  -11.736700   90.655900
  H    -12.630100  -12.440200   90.455500
  S    -13.116200   -7.759830   82.746600
  C    -11.533500   -7.059130   82.357600
  C    -10.856200   -6.930090   83.507900
  C    -11.551000   -7.307740   84.693100
  C    -12.766500   -7.873840   84.440000
  H     -9.832920   -6.527940   83.427900
  C    -11.014800   -6.994000   86.083100
  H    -11.578100   -7.371160   86.863600
  H    -11.004500   -5.920120   86.250600
  C     -9.555350   -7.362160   86.345300
  H     -9.431390   -7.003660   87.338100
  H     -8.904030   -6.723650   85.745600
  C     -9.285800   -8.868680   86.284300
  H     -8.264980   -9.095340   86.433200
  H     -9.511040   -9.210000   85.260400
  H     -9.819980   -9.577460   86.946400
  H    -16.450000  -10.223800   86.718700
  H    -11.077100   -6.809680   81.411800

 Total Charge           Charge          ....    0
 Multiplicity           Mult            ....    1
 Number of Electrons    NEL             ....  134
 Basis Dimension        Dim             ....  322

ORBITAL ENERGIES
----------------

  NO   OCC          E(Eh)            E(eV)
   0   2.0000     -88.966247     -2420.8946
   1   2.0000     -88.960435     -2420.7365
   2   2.0000     -10.324141      -280.9342
   3   2.0000     -10.323481      -280.9162
   4   2.0000     -10.314875      -280.6820
   5   2.0000     -10.309710      -280.5415
   6   2.0000     -10.299627      -280.2671
   7   2.0000     -10.297431      -280.2074
   8   2.0000     -10.294597      -280.1302
   9   2.0000     -10.290849      -280.0282
  10   2.0000     -10.289520      -279.9921
  11   2.0000     -10.284439      -279.8538
  12   2.0000     -10.282842      -279.8103
  13   2.0000     -10.281869      -279.7839
  14   2.0000     -10.281388      -279.7708
  15   2.0000     -10.276392      -279.6348
  16   2.0000      -8.081349      -219.9047
  17   2.0000      -8.075582      -219.7477
  18   2.0000      -6.039856      -164.3528
  19   2.0000      -6.035778      -164.2419
  20   2.0000      -6.034239      -164.2000
  21   2.0000      -6.032115      -164.1422
  22   2.0000      -6.030063      -164.0864
  23   2.0000      -6.026105      -163.9786
  24   2.0000      -1.016223       -27.6528
  25   2.0000      -0.990617       -26.9561
  26   2.0000      -0.920590       -25.0505
  27   2.0000      -0.913020       -24.8445
  28   2.0000      -0.879985       -23.9456
  29   2.0000      -0.853170       -23.2159
  30   2.0000      -0.841693       -22.9036
  31   2.0000      -0.821041       -22.3417
  32   2.0000      -0.786986       -21.4150
  33   2.0000      -0.780714       -21.2443
  34   2.0000      -0.718816       -19.5600
  35   2.0000      -0.700553       -19.0630
  36   2.0000      -0.697660       -18.9843
  37   2.0000      -0.657275       -17.8853
  38   2.0000      -0.643211       -17.5027
  39   2.0000      -0.627947       -17.0873
  40   2.0000      -0.603186       -16.4135
  41   2.0000      -0.577055       -15.7025
  42   2.0000      -0.568943       -15.4817
  43   2.0000      -0.555327       -15.1112
  44   2.0000      -0.539248       -14.6737
  45   2.0000      -0.531235       -14.4556
  46   2.0000      -0.523358       -14.2413
  47   2.0000      -0.514608       -14.0032
  48   2.0000      -0.505623       -13.7587
  49   2.0000      -0.502993       -13.6871
  50   2.0000      -0.496542       -13.5116
  51   2.0000      -0.483560       -13.1583
  52   2.0000      -0.475791       -12.9469
  53   2.0000      -0.470961       -12.8155
  54   2.0000      -0.461795       -12.5661
  55   2.0000      -0.448347       -12.2001
  56   2.0000      -0.439341       -11.9551
  57   2.0000      -0.435677       -11.8554
  58   2.0000      -0.434150       -11.8138
  59   2.0000      -0.428042       -11.6476
  60   2.0000      -0.421540       -11.4707
  61   2.0000      -0.420626       -11.4458
  62   2.0000      -0.406505       -11.0616
  63   2.0000      -0.362154        -9.8547
  64   2.0000      -0.334268        -9.0959
  65   2.0000      -0.325506        -8.8575
  66   2.0000      -0.284584        -7.7439
  67   0.0000       0.024260         0.6602
  68   0.0000       0.084681         2.3043
  69   0.0000       0.103949         2.8286
  70   0.0000       0.121995         3.3197
  71   0.0000       0.131469         3.5774

MULLIKEN ATOMIC CHARGES
-----------------------
   0 S :    0.111298
   1 C :   -0.092771
   2 C :   -0.078678
   3 C :    0.000689
   4 C :   -0.095254
   5 H :   -0.037503
   6 C :    0.077558
   7 H :    0.040606
   8 H :   -0.003432
   9 C :   -0.085440
  10 H :    0.036477
  11 H :    0.037888
  12 C :   -0.034997
  13 H :    0.024682
  14 H :    0.029518
  15 H :    0.042352
  16 S :    0.077626
  17 C :   -0.070404
  18 C :   -0.055199
  19 C :   -0.054055
  20 C :   -0.101520
  21 H :    0.024929
  22 C :    0.088693
  23 H :   -0.003000
  24 H :    0.031608
  25 C :   -0.062704
  26 H :    0.013723
  27 H :    0.027529
  28 C :   -0.045795
  29 H :    0.021642
  30 H :    0.034947
  31 H :    0.038115
  32 H :    0.009660
  33 H :    0.051213
Sum of atomic charges:    0.0000000

LOEWDIN ATOMIC CHARGES
----------------------
   0 S :    0.419289
   1 C :   -0.180556
   2 C :   -0.058692
   3 C :   -0.067167
   4 C :   -0.201648
   5 H :    0.018498
   6 C :   -0.036494
   7 H :    0.040647
   8 H :    0.024226
   9 C :   -0.044342
  10 H :    0.025821
  11 H :    0.029419
  12 C :   -0.063905
  13 H :    0.023995
  14 H :    0.024079
  15 H :    0.033820
  16 S :    0.390636
  17 C :   -0.175282
  18 C :   -0.075175
  19 C :   -0.064480
  20 C :   -0.189650
  21 H :    0.035710
  22 C :   -0.022782
  23 H :    0.016569
  24 H :    0.037082
  25 C :   -0.035479
  26 H :    0.020917
  27 H :    0.022799
  28 C :   -0.070805
  29 H :    0.020398
  30 H :    0.029703
  31 H :    0.027769
  32 H :    0.009644
  33 H :    0.035438

  Mayer bond orders larger than 0.100000
B(  0-S ,  1-C ) :   1.1446 B(  0-S ,  4-C ) :   1.1497 B(  1-C ,  2-C ) :   1.5793
B(  1-C ,  4-C ) :   0.1025 B(  1-C , 32-H ) :   0.9755 B(  2-C ,  3-C ) :   1.2799
B(  2-C ,  6-C ) :   1.0232 B(  3-C ,  4-C ) :   1.5495 B(  3-C ,  5-H ) :   0.9979
B(  4-C , 20-C ) :   1.0594 B(  6-C ,  7-H ) :   0.9274 B(  6-C ,  8-H ) :   0.9327
B(  6-C ,  9-C ) :   1.0680 B(  9-C , 10-H ) :   0.9430 B(  9-C , 11-H ) :   0.9598
B(  9-C , 12-C ) :   1.0934 B( 12-C , 13-H ) :   0.9735 B( 12-C , 14-H ) :   0.9745
B( 12-C , 15-H ) :   0.9720 B( 16-S , 17-C ) :   1.1255 B( 16-S , 20-C ) :   1.1254
B( 17-C , 18-C ) :   1.6563 B( 17-C , 33-H ) :   0.9671 B( 18-C , 19-C ) :   1.2136
B( 18-C , 21-H ) :   0.9842 B( 19-C , 20-C ) :   1.6121 B( 19-C , 22-C ) :   1.0372
B( 22-C , 23-H ) :   0.9368 B( 22-C , 24-H ) :   0.9321 B( 22-C , 25-C ) :   1.0870
B( 25-C , 26-H ) :   0.9522 B( 25-C , 27-H ) :   0.9515 B( 25-C , 28-C ) :   1.0740
B( 28-C , 29-H ) :   0.9722 B( 28-C , 30-H ) :   0.9720 B( 28-C , 31-H ) :   0.9697

Dispersion correction           -0.014579251
FINAL SINGLE POINT ENERGY     -1339.874128018387

DIPOLE MOMENT
-------------
                                X             Y             Z
Electronic contribution:    -16.83581       8.74861     -26.14002
Nuclear contribution   :     17.44486      -8.85001      26.79087
                        -----------------------------------------
Total Dipole Moment    :      0.60905      -0.10141       0.65085
                        -----------------------------------------
Magnitude (a.u.)       :      0.89713
Magnitude (Debye)      :      2.28031

Rotational constants in cm-1:     0.018579     0.009612     0.006653
Rotational constants in MHz :   556.985836   288.170088   199.444387

                             ****ORCA TERMINATED NORMALLY****
TOTAL RUN TIME: 0 days 0 hours 0 minutes 33 seconds 396 msec
