                         Program Version 4.2.1 -  RELEASE  -
|  1> ! wB97X-D3 SP def2-SVP
|  2> %pal
|  3> nprocs 16
|  4> end
|  5>
|  6> * xyz 0 1
|  7> S 	 -97.2735 	 50.406 	 121.018
|  8> C 	 -96.0784 	 50.9417 	 119.981
|  9> C 	 -96.5476 	 51.7475 	 118.966
| 10> C 	 -97.9469 	 52.023 	 119.164
| 11> C 	 -98.5126 	 51.2874 	 120.213
| 12> H 	 -98.5764 	 52.7448 	 118.557
| 13> C 	 -95.7904 	 52.3731 	 117.885
| 14> H 	 -95.0222 	 53.0178 	 118.312
| 15> H 	 -96.3842 	 52.9006 	 117.169
| 16> C 	 -94.9963 	 51.2778 	 117.109
| 17> H 	 -94.6422 	 50.4853 	 117.784
| 18> H 	 -95.7048 	 50.9074 	 116.404
| 19> C 	 -94.0055 	 51.7624 	 116.043
| 20> H 	 -93.5834 	 50.8206 	 115.664
| 21> H 	 -94.3579 	 52.2017 	 115.219
| 22> H 	 -93.2066 	 52.3067 	 116.513
| 23> S 	 -100.003 	 52.737 	 121.872
| 24> C 	 -101.786 	 52.388 	 122.046
| 25> C 	 -102.1 	 51.3786 	 121.184
| 26> C 	 -101.06 	 50.9112 	 120.347
| 27> C 	 -99.8369 	 51.4559 	 120.73
| 28> H 	 -103.086 	 50.9758 	 121.152
| 29> C 	 -101.213 	 49.8393 	 119.251
| 30> H 	 -100.25 	 49.5012 	 118.934
| 31> H 	 -101.57 	 50.3278 	 118.337
| 32> C 	 -102.033 	 48.6317 	 119.703
| 33> H 	 -102.239 	 48.0424 	 118.824
| 34> H 	 -102.948 	 49.1188 	 120.019
| 35> C 	 -101.246 	 47.8103 	 120.756
| 36> H 	 -101.79 	 46.9605 	 121.228
| 37> H 	 -100.816 	 48.4646 	 121.547
| 38> H 	 -100.371 	 47.3861 	 120.2
| 39> H 	 -95.0821 	 50.6394 	 119.999
| 40> H 	 -102.585 	 53.016 	 122.484
| 41> *
| 42>
| 43>                          ****END OF INPUT****

CARTESIAN COORDINATES (ANGSTROEM)
---------------------------------
  S    -97.273500   50.406000  121.018000
  C    -96.078400   50.941700  119.981000
  C    -96.547600   51.747500  118.966000
  C    -97.946900   52.023000  119.164000
  C    -98.512600   51.287400  120.213000
  H    -98.576400   52.744800  118.557000
  C    -95.790400   52.373100  117.885000
  H    -95.022200   53.017800  118.312000
  H    -96.384200   52.900600  117.169000
  C    -94.996300   51.277800  117.109000
  H    -94.642200   50.485300  117.784000
  H    -95.704800   50.907400  116.404000
  C    -94.005500   51.762400  116.043000
  H    -93.583400   50.820600  115.664000
  H    -94.357900   52.201700  115.219000
  H    -93.206600   52.306700  116.513000
  S    -100.003000   52.737000  121.872000
  C    -101.786000   52.388000  122.046000
  C    -102.100000   51.378600  121.184000
  C    -101.060000   50.911200  120.347000
  C    -99.836900   51.455900  120.730000
  H    -103.086000   50.975800  121.152000
  C    -101.213000   49.839300  119.251000
  H    -100.250000   49.501200  118.934000
  H    -101.570000   50.327800  118.337000
  C    -102.033000   48.631700  119.703000
  H    -102.239000   48.042400  118.824000
  H    -102.948000   49.118800  120.019000
  C    -101.246000   47.810300  120.756000
  H    -101.790000   46.960500  121.228000
  H    -100.816000   48.464600  121.547000
  H    -100.371000   47.386100  120.200000
  H    -95.082100   50.639400  119.999000
  H    -102.585000   53.016000  122.484000

 Total Charge           Charge          ....    0
 Multiplicity           Mult            ....    1
 Number of Electrons    NEL             ....  134
 Basis Dimension        Dim             ....  322

ORBITAL ENERGIES
----------------

  NO   OCC          E(Eh)            E(eV)
   0   2.0000     -88.966682     -2420.9065
   1   2.0000     -88.962459     -2420.7916
   2   2.0000     -10.320959      -280.8476
   3   2.0000     -10.320355      -280.8311
   4   2.0000     -10.320005      -280.8216
   5   2.0000     -10.302638      -280.3490
   6   2.0000     -10.300460      -280.2898
   7   2.0000     -10.297762      -280.2163
   8   2.0000     -10.294940      -280.1396
   9   2.0000     -10.289424      -279.9895
  10   2.0000     -10.287283      -279.9312
  11   2.0000     -10.285809      -279.8911
  12   2.0000     -10.284577      -279.8576
  13   2.0000     -10.283516      -279.8287
  14   2.0000     -10.282924      -279.8126
  15   2.0000     -10.268750      -279.4269
  16   2.0000      -8.083112      -219.9527
  17   2.0000      -8.076585      -219.7751
  18   2.0000      -6.041441      -164.3960
  19   2.0000      -6.037196      -164.2805
  20   2.0000      -6.035197      -164.2261
  21   2.0000      -6.034158      -164.1978
  22   2.0000      -6.031145      -164.1158
  23   2.0000      -6.027276      -164.0105
  24   2.0000      -1.013288       -27.5730
  25   2.0000      -0.986390       -26.8410
  26   2.0000      -0.918364       -24.9899
  27   2.0000      -0.907431       -24.6924
  28   2.0000      -0.875127       -23.8134
  29   2.0000      -0.856436       -23.3048
  30   2.0000      -0.837260       -22.7830
  31   2.0000      -0.814511       -22.1640
  32   2.0000      -0.784200       -21.3392
  33   2.0000      -0.769667       -20.9437
  34   2.0000      -0.708972       -19.2921
  35   2.0000      -0.700338       -19.0572
  36   2.0000      -0.696570       -18.9546
  37   2.0000      -0.655150       -17.8275
  38   2.0000      -0.646346       -17.5880
  39   2.0000      -0.611409       -16.6373
  40   2.0000      -0.597284       -16.2529
  41   2.0000      -0.584081       -15.8936
  42   2.0000      -0.565881       -15.3984
  43   2.0000      -0.550587       -14.9822
  44   2.0000      -0.539513       -14.6809
  45   2.0000      -0.522436       -14.2162
  46   2.0000      -0.521508       -14.1910
  47   2.0000      -0.512613       -13.9489
  48   2.0000      -0.509995       -13.8777
  49   2.0000      -0.500391       -13.6163
  50   2.0000      -0.485412       -13.2087
  51   2.0000      -0.476343       -12.9619
  52   2.0000      -0.471911       -12.8413
  53   2.0000      -0.465990       -12.6802
  54   2.0000      -0.462453       -12.5840
  55   2.0000      -0.456549       -12.4233
  56   2.0000      -0.441273       -12.0077
  57   2.0000      -0.439605       -11.9623
  58   2.0000      -0.432496       -11.7688
  59   2.0000      -0.418681       -11.3929
  60   2.0000      -0.417252       -11.3540
  61   2.0000      -0.414866       -11.2891
  62   2.0000      -0.407934       -11.1005
  63   2.0000      -0.340918        -9.2768
  64   2.0000      -0.325952        -8.8696
  65   2.0000      -0.314472        -8.5572
  66   2.0000      -0.307535        -8.3685
  67   0.0000       0.046395         1.2625
  68   0.0000       0.053634         1.4595
  69   0.0000       0.115885         3.1534
  70   0.0000       0.125760         3.4221
  71   0.0000       0.130617         3.5543

MULLIKEN ATOMIC CHARGES
-----------------------
   0 S :    0.146719
   1 C :   -0.099014
   2 C :   -0.093040
   3 C :    0.018207
   4 C :   -0.197448
   5 H :    0.035339
   6 C :    0.122626
   7 H :    0.032306
   8 H :    0.013398
   9 C :   -0.146877
  10 H :    0.041175
  11 H :    0.020886
  12 C :    0.015887
  13 H :    0.022795
  14 H :    0.008933
  15 H :    0.022546
  16 S :    0.108056
  17 C :   -0.098224
  18 C :   -0.042655
  19 C :   -0.031726
  20 C :   -0.185879
  21 H :    0.011691
  22 C :    0.085199
  23 H :    0.005734
  24 H :    0.034012
  25 C :   -0.051188
  26 H :    0.028356
  27 H :    0.023128
  28 C :   -0.076017
  29 H :    0.048108
  30 H :    0.050586
  31 H :    0.033515
  32 H :    0.021550
  33 H :    0.071318
Sum of atomic charges:   -0.0000000

LOEWDIN ATOMIC CHARGES
----------------------
   0 S :    0.463442
   1 C :   -0.216220
   2 C :   -0.065788
   3 C :   -0.059022
   4 C :   -0.228922
   5 H :    0.041018
   6 C :   -0.029932
   7 H :    0.032803
   8 H :    0.026971
   9 C :   -0.039326
  10 H :    0.024496
  11 H :    0.024951
  12 C :   -0.051725
  13 H :    0.035039
  14 H :    0.006871
  15 H :    0.018463
  16 S :    0.394403
  17 C :   -0.177465
  18 C :   -0.070016
  19 C :   -0.055537
  20 C :   -0.209628
  21 H :    0.026067
  22 C :   -0.026499
  23 H :    0.021944
  24 H :    0.034233
  25 C :   -0.039546
  26 H :    0.023984
  27 H :    0.017383
  28 C :   -0.071000
  29 H :    0.029109
  30 H :    0.031202
  31 H :    0.031619
  32 H :    0.014730
  33 H :    0.041899

  Mayer bond orders larger than 0.100000
B(  0-S ,  1-C ) :   1.1750 B(  0-S ,  4-C ) :   1.1783 B(  1-C ,  2-C ) :   1.5645
B(  1-C , 32-H ) :   0.9692 B(  2-C ,  3-C ) :   1.2762 B(  2-C ,  6-C ) :   1.0415
B(  3-C ,  4-C ) :   1.5486 B(  3-C ,  5-H ) :   0.9861 B(  4-C , 20-C ) :   1.0151
B(  6-C ,  7-H ) :   0.9312 B(  6-C ,  8-H ) :   0.9424 B(  6-C ,  9-C ) :   1.0473
B(  9-C , 10-H ) :   0.9663 B(  9-C , 11-H ) :   0.9581 B(  9-C , 12-C ) :   1.0775
B( 12-C , 13-H ) :   0.9683 B( 12-C , 14-H ) :   0.9759 B( 12-C , 15-H ) :   0.9741
B( 16-S , 17-C ) :   1.1243 B( 16-S , 20-C ) :   1.1637 B( 17-C , 18-C ) :   1.6358
B( 17-C , 20-C ) :   0.1051 B( 17-C , 33-H ) :   0.9594 B( 18-C , 19-C ) :   1.2431
B( 18-C , 21-H ) :   0.9824 B( 19-C , 20-C ) :   1.5923 B( 19-C , 22-C ) :   1.0343
B( 22-C , 23-H ) :   0.9308 B( 22-C , 24-H ) :   0.9304 B( 22-C , 25-C ) :   1.0641
B( 25-C , 26-H ) :   0.9537 B( 25-C , 27-H ) :   0.9588 B( 25-C , 28-C ) :   1.0597
B( 28-C , 29-H ) :   0.9765 B( 28-C , 30-H ) :   0.9766 B( 28-C , 31-H ) :   0.9716

Dispersion correction           -0.014275706
FINAL SINGLE POINT ENERGY     -1339.859006454232

DIPOLE MOMENT
-------------
                                X             Y             Z
Electronic contribution:     -4.67217       9.42230      19.12869
Nuclear contribution   :      4.63917      -9.47919     -19.81354
                        -----------------------------------------
Total Dipole Moment    :     -0.03300      -0.05689      -0.68484
                        -----------------------------------------
Magnitude (a.u.)       :      0.68799
Magnitude (Debye)      :      1.74874

Rotational constants in cm-1:     0.023028     0.007314     0.006548
Rotational constants in MHz :   690.354680   219.261220   196.313828

                             ****ORCA TERMINATED NORMALLY****
TOTAL RUN TIME: 0 days 0 hours 0 minutes 33 seconds 674 msec
