                         Program Version 4.2.1 -  RELEASE  -
|  1> ! wB97X-D3 SP def2-SVP
|  2> %pal
|  3> nprocs 16
|  4> end
|  5>
|  6> * xyz 0 1
|  7> S 	 -17.0093 	 48.2842 	 45.3463
|  8> C 	 -17.7862 	 48.8679 	 43.9748
|  9> C 	 -17.2785 	 48.4062 	 42.8016
| 10> C 	 -16.1199 	 47.6223 	 43.0448
| 11> C 	 -15.7739 	 47.5813 	 44.3735
| 12> H 	 -15.5112 	 47.0066 	 42.3931
| 13> C 	 -18.0659 	 48.4353 	 41.5022
| 14> H 	 -18.0291 	 49.4664 	 41.1015
| 15> H 	 -19.0505 	 48.2022 	 41.7519
| 16> C 	 -17.64 	 47.4847 	 40.3393
| 17> H 	 -16.6892 	 47.9457 	 39.9057
| 18> H 	 -17.5003 	 46.54 	 40.7952
| 19> C 	 -18.7702 	 47.4832 	 39.2791
| 20> H 	 -19.7314 	 47.2558 	 39.7292
| 21> H 	 -18.8203 	 48.355 	 38.5775
| 22> H 	 -18.4294 	 46.6945 	 38.6361
| 23> S 	 -14.6981 	 45.6157 	 45.8311
| 24> C 	 -12.9977 	 45.357 	 45.7633
| 25> C 	 -12.3538 	 46.4521 	 45.1901
| 26> C 	 -13.1991 	 47.4043 	 44.5712
| 27> C 	 -14.4943 	 47.0835 	 44.878
| 28> H 	 -11.2984 	 46.5358 	 45.0001
| 29> C 	 -12.7025 	 48.6067 	 43.7235
| 30> H 	 -11.7075 	 48.7677 	 43.9945
| 31> H 	 -13.2364 	 49.4611 	 44.062
| 32> C 	 -12.5636 	 48.4793 	 42.1904
| 33> H 	 -13.4996 	 48.0544 	 41.8121
| 34> H 	 -11.85 	 47.704 	 41.9833
| 35> C 	 -12.2283 	 49.7391 	 41.4347
| 36> H 	 -12.4976 	 50.6514 	 42.0499
| 37> H 	 -12.9046 	 49.6929 	 40.5987
| 38> H 	 -11.3008 	 49.8706 	 40.9311
| 39> H 	 -18.5976 	 49.5575 	 43.9964
| 40> H 	 -12.5253 	 44.3972 	 46.053
| 41> *
| 42>
| 43>                          ****END OF INPUT****

CARTESIAN COORDINATES (ANGSTROEM)
---------------------------------
  S    -17.009300   48.284200   45.346300
  C    -17.786200   48.867900   43.974800
  C    -17.278500   48.406200   42.801600
  C    -16.119900   47.622300   43.044800
  C    -15.773900   47.581300   44.373500
  H    -15.511200   47.006600   42.393100
  C    -18.065900   48.435300   41.502200
  H    -18.029100   49.466400   41.101500
  H    -19.050500   48.202200   41.751900
  C    -17.640000   47.484700   40.339300
  H    -16.689200   47.945700   39.905700
  H    -17.500300   46.540000   40.795200
  C    -18.770200   47.483200   39.279100
  H    -19.731400   47.255800   39.729200
  H    -18.820300   48.355000   38.577500
  H    -18.429400   46.694500   38.636100
  S    -14.698100   45.615700   45.831100
  C    -12.997700   45.357000   45.763300
  C    -12.353800   46.452100   45.190100
  C    -13.199100   47.404300   44.571200
  C    -14.494300   47.083500   44.878000
  H    -11.298400   46.535800   45.000100
  C    -12.702500   48.606700   43.723500
  H    -11.707500   48.767700   43.994500
  H    -13.236400   49.461100   44.062000
  C    -12.563600   48.479300   42.190400
  H    -13.499600   48.054400   41.812100
  H    -11.850000   47.704000   41.983300
  C    -12.228300   49.739100   41.434700
  H    -12.497600   50.651400   42.049900
  H    -12.904600   49.692900   40.598700
  H    -11.300800   49.870600   40.931100
  H    -18.597600   49.557500   43.996400
  H    -12.525300   44.397200   46.053000

 Total Charge           Charge          ....    0
 Multiplicity           Mult            ....    1
 Number of Electrons    NEL             ....  134
 Basis Dimension        Dim             ....  322

ORBITAL ENERGIES
----------------

  NO   OCC          E(Eh)            E(eV)
   0   2.0000     -88.963510     -2420.8202
   1   2.0000     -88.963027     -2420.8070
   2   2.0000     -10.320733      -280.8414
   3   2.0000     -10.318299      -280.7752
   4   2.0000     -10.316609      -280.7292
   5   2.0000     -10.301781      -280.3257
   6   2.0000     -10.299239      -280.2565
   7   2.0000     -10.292592      -280.0757
   8   2.0000     -10.291934      -280.0578
   9   2.0000     -10.291008      -280.0326
  10   2.0000     -10.287357      -279.9332
  11   2.0000     -10.286215      -279.9021
  12   2.0000     -10.284268      -279.8492
  13   2.0000     -10.284012      -279.8422
  14   2.0000     -10.282378      -279.7977
  15   2.0000     -10.276668      -279.6424
  16   2.0000      -8.079700      -219.8598
  17   2.0000      -8.078959      -219.8396
  18   2.0000      -6.037927      -164.3003
  19   2.0000      -6.037271      -164.2825
  20   2.0000      -6.033988      -164.1932
  21   2.0000      -6.033420      -164.1777
  22   2.0000      -6.030614      -164.1013
  23   2.0000      -6.029830      -164.0800
  24   2.0000      -1.013875       -27.5889
  25   2.0000      -0.990561       -26.9545
  26   2.0000      -0.910007       -24.7625
  27   2.0000      -0.909018       -24.7356
  28   2.0000      -0.868592       -23.6356
  29   2.0000      -0.857667       -23.3383
  30   2.0000      -0.849713       -23.1219
  31   2.0000      -0.810504       -22.0549
  32   2.0000      -0.788151       -21.4467
  33   2.0000      -0.771420       -20.9914
  34   2.0000      -0.707274       -19.2459
  35   2.0000      -0.699939       -19.0463
  36   2.0000      -0.683552       -18.6004
  37   2.0000      -0.663926       -18.0663
  38   2.0000      -0.645257       -17.5583
  39   2.0000      -0.613857       -16.7039
  40   2.0000      -0.598687       -16.2911
  41   2.0000      -0.577518       -15.7151
  42   2.0000      -0.565833       -15.3971
  43   2.0000      -0.558753       -15.2044
  44   2.0000      -0.529970       -14.4212
  45   2.0000      -0.524105       -14.2616
  46   2.0000      -0.513107       -13.9624
  47   2.0000      -0.510799       -13.8996
  48   2.0000      -0.499723       -13.5981
  49   2.0000      -0.497976       -13.5506
  50   2.0000      -0.490889       -13.3578
  51   2.0000      -0.486647       -13.2423
  52   2.0000      -0.471855       -12.8398
  53   2.0000      -0.467164       -12.7122
  54   2.0000      -0.464194       -12.6314
  55   2.0000      -0.454130       -12.3575
  56   2.0000      -0.443490       -12.0680
  57   2.0000      -0.437703       -11.9105
  58   2.0000      -0.434721       -11.8294
  59   2.0000      -0.430020       -11.7014
  60   2.0000      -0.423248       -11.5172
  61   2.0000      -0.410578       -11.1724
  62   2.0000      -0.402894       -10.9633
  63   2.0000      -0.339445        -9.2368
  64   2.0000      -0.332216        -9.0401
  65   2.0000      -0.328919        -8.9504
  66   2.0000      -0.289336        -7.8732
  67   0.0000       0.042469         1.1556
  68   0.0000       0.061082         1.6621
  69   0.0000       0.113346         3.0843
  70   0.0000       0.127601         3.4722
  71   0.0000       0.132434         3.6037

MULLIKEN ATOMIC CHARGES
-----------------------
   0 S :    0.135377
   1 C :   -0.121032
   2 C :   -0.045020
   3 C :    0.003886
   4 C :   -0.166821
   5 H :    0.023707
   6 C :    0.044196
   7 H :    0.033791
   8 H :    0.012490
   9 C :   -0.102780
  10 H :    0.044002
  11 H :    0.034777
  12 C :   -0.037012
  13 H :    0.038327
  14 H :    0.042847
  15 H :    0.027890
  16 S :    0.108247
  17 C :   -0.106148
  18 C :   -0.016979
  19 C :   -0.057660
  20 C :   -0.190994
  21 H :    0.006281
  22 C :    0.124977
  23 H :   -0.006311
  24 H :    0.029060
  25 C :   -0.053050
  26 H :    0.010933
  27 H :    0.016303
  28 C :   -0.032152
  29 H :    0.041177
  30 H :    0.020124
  31 H :    0.032826
  32 H :    0.032126
  33 H :    0.072614
Sum of atomic charges:    0.0000000

LOEWDIN ATOMIC CHARGES
----------------------
   0 S :    0.443030
   1 C :   -0.212647
   2 C :   -0.070069
   3 C :   -0.067398
   4 C :   -0.216701
   5 H :    0.030387
   6 C :   -0.032342
   7 H :    0.034101
   8 H :    0.018230
   9 C :   -0.035524
  10 H :    0.033442
  11 H :    0.018522
  12 C :   -0.065089
  13 H :    0.025010
  14 H :    0.032585
  15 H :    0.026724
  16 S :    0.412760
  17 C :   -0.199702
  18 C :   -0.071518
  19 C :   -0.052965
  20 C :   -0.189629
  21 H :    0.025739
  22 C :   -0.018678
  23 H :    0.022801
  24 H :    0.029509
  25 C :   -0.038829
  26 H :    0.018294
  27 H :    0.022359
  28 C :   -0.070067
  29 H :    0.035837
  30 H :    0.031473
  31 H :    0.022621
  32 H :    0.021586
  33 H :    0.036148

  Mayer bond orders larger than 0.100000
B(  0-S ,  1-C ) :   1.1622 B(  0-S ,  4-C ) :   1.1708 B(  1-C ,  2-C ) :   1.6080
B(  1-C , 32-H ) :   0.9740 B(  2-C ,  3-C ) :   1.2467 B(  2-C ,  6-C ) :   0.9945
B(  3-C ,  4-C ) :   1.5722 B(  3-C ,  5-H ) :   0.9901 B(  4-C , 20-C ) :   0.9816
B(  6-C ,  7-H ) :   0.9317 B(  6-C ,  8-H ) :   0.9536 B(  6-C ,  9-C ) :   1.0883
B(  9-C , 10-H ) :   0.9507 B(  9-C , 11-H ) :   0.9535 B(  9-C , 12-C ) :   1.0834
B( 12-C , 13-H ) :   0.9745 B( 12-C , 14-H ) :   0.9747 B( 12-C , 15-H ) :   0.9728
B( 16-S , 17-C ) :   1.1643 B( 16-S , 20-C ) :   1.1586 B( 17-C , 18-C ) :   1.5828
B( 17-C , 20-C ) :   0.1005 B( 17-C , 33-H ) :   0.9671 B( 18-C , 19-C ) :   1.2610
B( 18-C , 21-H ) :   0.9816 B( 19-C , 20-C ) :   1.6302 B( 19-C , 22-C ) :   1.0311
B( 22-C , 23-H ) :   0.9243 B( 22-C , 24-H ) :   0.9329 B( 22-C , 25-C ) :   1.0674
B( 25-C , 26-H ) :   0.9625 B( 25-C , 27-H ) :   0.9491 B( 25-C , 28-C ) :   1.0640
B( 28-C , 29-H ) :   0.9759 B( 28-C , 30-H ) :   0.9742 B( 28-C , 31-H ) :   0.9775

Dispersion correction           -0.014142321
FINAL SINGLE POINT ENERGY     -1339.853177027317

DIPOLE MOMENT
-------------
                                X             Y             Z
Electronic contribution:     -2.41615      -8.82680      29.37426
Nuclear contribution   :      2.55421       8.88398     -30.12182
                        -----------------------------------------
Total Dipole Moment    :      0.13806       0.05718      -0.74756
                        -----------------------------------------
Magnitude (a.u.)       :      0.76235
Magnitude (Debye)      :      1.93774

Rotational constants in cm-1:     0.016380     0.009166     0.007158
Rotational constants in MHz :   491.049202   274.800008   214.587647

                             ****ORCA TERMINATED NORMALLY****
TOTAL RUN TIME: 0 days 0 hours 0 minutes 33 seconds 628 msec
