                         Program Version 4.2.1 -  RELEASE  -
|  1> ! wB97X-D3 SP def2-SVP
|  2> %pal
|  3> nprocs 16
|  4> end
|  5>
|  6> * xyz 0 1
|  7> S 	 12.504 	 -8.78548 	 89.8674
|  8> C 	 12.4688 	 -7.94337 	 91.3867
|  9> C 	 11.3524 	 -7.09895 	 91.5443
| 10> C 	 10.5723 	 -7.13222 	 90.3337
| 11> C 	 11.0877 	 -7.89503 	 89.2913
| 12> H 	 9.66479 	 -6.64125 	 90.1634
| 13> C 	 10.8879 	 -6.24795 	 92.7387
| 14> H 	 10.0041 	 -6.69236 	 93.2618
| 15> H 	 10.5983 	 -5.27456 	 92.358
| 16> C 	 11.93 	 -6.02421 	 93.8174
| 17> H 	 12.3274 	 -6.96678 	 94.1353
| 18> H 	 12.7822 	 -5.51691 	 93.2759
| 19> C 	 11.4552 	 -5.26354 	 95.0129
| 20> H 	 12.066 	 -5.40099 	 95.907
| 21> H 	 11.4617 	 -4.16578 	 94.8009
| 22> H 	 10.4148 	 -5.51841 	 95.1942
| 23> S 	 10.592 	 -9.92608 	 87.4706
| 24> C 	 9.33064 	 -9.77629 	 86.2868
| 25> C 	 8.87166 	 -8.49056 	 86.2173
| 26> C 	 9.40525 	 -7.69897 	 87.2991
| 27> C 	 10.4193 	 -8.27743 	 88.0478
| 28> H 	 8.01389 	 -8.1961 	 85.4831
| 29> C 	 8.88267 	 -6.28898 	 87.4966
| 30> H 	 8.97098 	 -5.79815 	 86.5338
| 31> H 	 9.60762 	 -5.8255 	 88.1951
| 32> C 	 7.49383 	 -6.31953 	 88.3031
| 33> H 	 7.51705 	 -6.98169 	 89.1906
| 34> H 	 6.78863 	 -6.80845 	 87.5991
| 35> C 	 7.07512 	 -4.88297 	 88.7516
| 36> H 	 7.15366 	 -4.25216 	 87.8822
| 37> H 	 7.48601 	 -4.44971 	 89.6109
| 38> H 	 5.95233 	 -4.95232 	 88.9249
| 39> H 	 13.1719 	 -8.11905 	 92.1971
| 40> H 	 9.0371 	 -10.6048 	 85.6878
| 41> *
| 42>
| 43>                          ****END OF INPUT****

CARTESIAN COORDINATES (ANGSTROEM)
---------------------------------
  S     12.504000   -8.785480   89.867400
  C     12.468800   -7.943370   91.386700
  C     11.352400   -7.098950   91.544300
  C     10.572300   -7.132220   90.333700
  C     11.087700   -7.895030   89.291300
  H      9.664790   -6.641250   90.163400
  C     10.887900   -6.247950   92.738700
  H     10.004100   -6.692360   93.261800
  H     10.598300   -5.274560   92.358000
  C     11.930000   -6.024210   93.817400
  H     12.327400   -6.966780   94.135300
  H     12.782200   -5.516910   93.275900
  C     11.455200   -5.263540   95.012900
  H     12.066000   -5.400990   95.907000
  H     11.461700   -4.165780   94.800900
  H     10.414800   -5.518410   95.194200
  S     10.592000   -9.926080   87.470600
  C      9.330640   -9.776290   86.286800
  C      8.871660   -8.490560   86.217300
  C      9.405250   -7.698970   87.299100
  C     10.419300   -8.277430   88.047800
  H      8.013890   -8.196100   85.483100
  C      8.882670   -6.288980   87.496600
  H      8.970980   -5.798150   86.533800
  H      9.607620   -5.825500   88.195100
  C      7.493830   -6.319530   88.303100
  H      7.517050   -6.981690   89.190600
  H      6.788630   -6.808450   87.599100
  C      7.075120   -4.882970   88.751600
  H      7.153660   -4.252160   87.882200
  H      7.486010   -4.449710   89.610900
  H      5.952330   -4.952320   88.924900
  H     13.171900   -8.119050   92.197100
  H      9.037100  -10.604800   85.687800

 Total Charge           Charge          ....    0
 Multiplicity           Mult            ....    1
 Number of Electrons    NEL             ....  134
 Basis Dimension        Dim             ....  322

ORBITAL ENERGIES
----------------

  NO   OCC          E(Eh)            E(eV)
   0   2.0000     -88.969126     -2420.9730
   1   2.0000     -88.960512     -2420.7386
   2   2.0000     -10.334065      -281.2042
   3   2.0000     -10.327645      -281.0295
   4   2.0000     -10.319441      -280.8063
   5   2.0000     -10.316427      -280.7243
   6   2.0000     -10.309303      -280.5304
   7   2.0000     -10.302303      -280.3399
   8   2.0000     -10.302040      -280.3328
   9   2.0000     -10.300791      -280.2988
  10   2.0000     -10.299453      -280.2624
  11   2.0000     -10.293022      -280.0874
  12   2.0000     -10.292300      -280.0677
  13   2.0000     -10.285084      -279.8714
  14   2.0000     -10.281500      -279.7738
  15   2.0000     -10.281454      -279.7726
  16   2.0000      -8.083611      -219.9662
  17   2.0000      -8.075925      -219.7571
  18   2.0000      -6.042200      -164.4166
  19   2.0000      -6.038221      -164.3084
  20   2.0000      -6.034496      -164.2070
  21   2.0000      -6.034237      -164.1999
  22   2.0000      -6.030294      -164.0926
  23   2.0000      -6.026616      -163.9926
  24   2.0000      -1.006666       -27.3928
  25   2.0000      -0.983427       -26.7604
  26   2.0000      -0.917600       -24.9692
  27   2.0000      -0.900927       -24.5155
  28   2.0000      -0.870886       -23.6980
  29   2.0000      -0.853872       -23.2350
  30   2.0000      -0.844632       -22.9836
  31   2.0000      -0.814496       -22.1636
  32   2.0000      -0.781204       -21.2576
  33   2.0000      -0.769486       -20.9388
  34   2.0000      -0.709360       -19.3027
  35   2.0000      -0.703191       -19.1348
  36   2.0000      -0.690020       -18.7764
  37   2.0000      -0.664910       -18.0931
  38   2.0000      -0.638646       -17.3784
  39   2.0000      -0.616671       -16.7805
  40   2.0000      -0.591236       -16.0883
  41   2.0000      -0.575374       -15.6567
  42   2.0000      -0.568146       -15.4600
  43   2.0000      -0.561572       -15.2811
  44   2.0000      -0.526742       -14.3334
  45   2.0000      -0.523211       -14.2373
  46   2.0000      -0.520161       -14.1543
  47   2.0000      -0.508711       -13.8427
  48   2.0000      -0.507071       -13.7981
  49   2.0000      -0.496762       -13.5176
  50   2.0000      -0.495663       -13.4877
  51   2.0000      -0.484473       -13.1832
  52   2.0000      -0.481014       -13.0890
  53   2.0000      -0.467726       -12.7275
  54   2.0000      -0.460885       -12.5413
  55   2.0000      -0.449796       -12.2396
  56   2.0000      -0.441743       -12.0204
  57   2.0000      -0.439936       -11.9713
  58   2.0000      -0.429656       -11.6915
  59   2.0000      -0.426550       -11.6070
  60   2.0000      -0.421283       -11.4637
  61   2.0000      -0.417307       -11.3555
  62   2.0000      -0.401069       -10.9137
  63   2.0000      -0.361934        -9.8487
  64   2.0000      -0.333269        -9.0687
  65   2.0000      -0.324625        -8.8335
  66   2.0000      -0.284276        -7.7355
  67   0.0000       0.024806         0.6750
  68   0.0000       0.077334         2.1044
  69   0.0000       0.105125         2.8606
  70   0.0000       0.117477         3.1967
  71   0.0000       0.133124         3.6225

MULLIKEN ATOMIC CHARGES
-----------------------
   0 S :    0.105790
   1 C :   -0.125865
   2 C :   -0.072965
   3 C :    0.024005
   4 C :   -0.113678
   5 H :   -0.029885
   6 C :    0.056339
   7 H :    0.044556
   8 H :    0.029230
   9 C :   -0.114205
  10 H :    0.021234
  11 H :    0.035598
  12 C :   -0.022452
  13 H :    0.040983
  14 H :    0.033671
  15 H :    0.022676
  16 S :    0.076634
  17 C :   -0.088066
  18 C :   -0.031356
  19 C :   -0.125450
  20 C :   -0.076158
  21 H :    0.058480
  22 C :    0.034428
  23 H :    0.043048
  24 H :    0.021222
  25 C :   -0.108116
  26 H :    0.047623
  27 H :    0.032462
  28 C :   -0.024419
  29 H :    0.029057
  30 H :    0.036822
  31 H :    0.033765
  32 H :    0.052266
  33 H :    0.052729
Sum of atomic charges:    0.0000000

LOEWDIN ATOMIC CHARGES
----------------------
   0 S :    0.403903
   1 C :   -0.201181
   2 C :   -0.058566
   3 C :   -0.055371
   4 C :   -0.180808
   5 H :    0.018071
   6 C :   -0.030030
   7 H :    0.036599
   8 H :    0.030054
   9 C :   -0.052748
  10 H :    0.016271
  11 H :    0.029943
  12 C :   -0.065178
  13 H :    0.030159
  14 H :    0.031076
  15 H :    0.023813
  16 S :    0.397571
  17 C :   -0.176388
  18 C :   -0.088318
  19 C :   -0.062289
  20 C :   -0.200006
  21 H :    0.051230
  22 C :   -0.037516
  23 H :    0.033005
  24 H :    0.027128
  25 C :   -0.038301
  26 H :    0.027761
  27 H :    0.025759
  28 C :   -0.066229
  29 H :    0.024644
  30 H :    0.017141
  31 H :    0.036136
  32 H :    0.027982
  33 H :    0.024685

  Mayer bond orders larger than 0.100000
B(  0-S ,  1-C ) :   1.1457 B(  0-S ,  4-C ) :   1.1359 B(  1-C ,  2-C ) :   1.6060
B(  1-C , 32-H ) :   0.9627 B(  2-C ,  3-C ) :   1.2534 B(  2-C ,  6-C ) :   1.0117
B(  3-C ,  4-C ) :   1.5661 B(  3-C ,  5-H ) :   0.9946 B(  4-C , 20-C ) :   1.0600
B(  6-C ,  7-H ) :   0.9306 B(  6-C ,  8-H ) :   0.9451 B(  6-C ,  9-C ) :   1.0834
B(  9-C , 10-H ) :   0.9495 B(  9-C , 11-H ) :   0.9554 B(  9-C , 12-C ) :   1.0853
B( 12-C , 13-H ) :   0.9733 B( 12-C , 14-H ) :   0.9722 B( 12-C , 15-H ) :   0.9712
B( 16-S , 17-C ) :   1.1715 B( 16-S , 20-C ) :   1.1116 B( 17-C , 18-C ) :   1.5978
B( 17-C , 33-H ) :   0.9719 B( 18-C , 19-C ) :   1.2385 B( 18-C , 21-H ) :   0.9741
B( 19-C , 20-C ) :   1.6120 B( 19-C , 22-C ) :   1.0448 B( 22-C , 23-H ) :   0.9412
B( 22-C , 24-H ) :   0.9431 B( 22-C , 25-C ) :   1.0346 B( 25-C , 26-H ) :   0.9567
B( 25-C , 27-H ) :   0.9590 B( 25-C , 28-C ) :   1.0707 B( 28-C , 29-H ) :   0.9732
B( 28-C , 30-H ) :   0.9799 B( 28-C , 31-H ) :   0.9733

Dispersion correction           -0.013805973
FINAL SINGLE POINT ENERGY     -1339.875816306632

DIPOLE MOMENT
-------------
                                X             Y             Z
Electronic contribution:     13.23569     -22.99412     -17.37314
Nuclear contribution   :    -13.83228      23.41197      17.66919
                        -----------------------------------------
Total Dipole Moment    :     -0.59659       0.41785       0.29605
                        -----------------------------------------
Magnitude (a.u.)       :      0.78623
Magnitude (Debye)      :      1.99845

Rotational constants in cm-1:     0.019207     0.008284     0.005977
Rotational constants in MHz :   575.812854   248.340402   179.198164

                             ****ORCA TERMINATED NORMALLY****
TOTAL RUN TIME: 0 days 0 hours 0 minutes 33 seconds 471 msec
