                         Program Version 4.2.1 -  RELEASE  -
|  1> ! wB97X-D3 SP def2-SVP
|  2> %pal
|  3> nprocs 16
|  4> end
|  5>
|  6> * xyz 0 1
|  7> S 	 -69.9843 	 50.7327 	 126.137
|  8> C 	 -70.9459 	 51.5928 	 127.276
|  9> C 	 -70.1396 	 52.5477 	 127.94
| 10> C 	 -68.8318 	 52.5966 	 127.369
| 11> C 	 -68.6073 	 51.7566 	 126.29
| 12> H 	 -67.9997 	 53.1871 	 127.778
| 13> C 	 -70.6176 	 53.5548 	 128.967
| 14> H 	 -70.0568 	 53.4465 	 129.958
| 15> H 	 -71.6344 	 53.3861 	 129.343
| 16> C 	 -70.6615 	 54.9359 	 128.346
| 17> H 	 -69.6847 	 55.2188 	 127.905
| 18> H 	 -71.2585 	 54.9191 	 127.504
| 19> C 	 -71.1433 	 56.0523 	 129.347
| 20> H 	 -72.1358 	 55.7179 	 129.755
| 21> H 	 -70.3064 	 56.2145 	 130.067
| 22> H 	 -71.2648 	 56.9813 	 128.745
| 23> S 	 -66.364 	 50.243 	 125.81
| 24> C 	 -65.1423 	 50.7348 	 124.725
| 25> C 	 -65.4794 	 52.0165 	 124.264
| 26> C 	 -66.7073 	 52.5439 	 124.713
| 27> C 	 -67.3537 	 51.677 	 125.529
| 28> H 	 -64.8812 	 52.5028 	 123.46
| 29> C 	 -67.1839 	 53.789 	 124.16
| 30> H 	 -66.5109 	 54.6083 	 123.947
| 31> H 	 -67.8417 	 54.1968 	 125.009
| 32> C 	 -68.2499 	 53.6578 	 123.076
| 33> H 	 -69.029 	 53.1349 	 123.667
| 34> H 	 -67.906 	 52.8862 	 122.43
| 35> C 	 -68.7146 	 54.9862 	 122.458
| 36> H 	 -68.1416 	 55.3823 	 121.653
| 37> H 	 -68.8396 	 55.8082 	 123.187
| 38> H 	 -69.7453 	 54.8396 	 122.1
| 39> H 	 -71.9234 	 51.3349 	 127.589
| 40> H 	 -64.2054 	 50.235 	 124.454
| 41> *
| 42>
| 43>                          ****END OF INPUT****

CARTESIAN COORDINATES (ANGSTROEM)
---------------------------------
  S    -69.984300   50.732700  126.137000
  C    -70.945900   51.592800  127.276000
  C    -70.139600   52.547700  127.940000
  C    -68.831800   52.596600  127.369000
  C    -68.607300   51.756600  126.290000
  H    -67.999700   53.187100  127.778000
  C    -70.617600   53.554800  128.967000
  H    -70.056800   53.446500  129.958000
  H    -71.634400   53.386100  129.343000
  C    -70.661500   54.935900  128.346000
  H    -69.684700   55.218800  127.905000
  H    -71.258500   54.919100  127.504000
  C    -71.143300   56.052300  129.347000
  H    -72.135800   55.717900  129.755000
  H    -70.306400   56.214500  130.067000
  H    -71.264800   56.981300  128.745000
  S    -66.364000   50.243000  125.810000
  C    -65.142300   50.734800  124.725000
  C    -65.479400   52.016500  124.264000
  C    -66.707300   52.543900  124.713000
  C    -67.353700   51.677000  125.529000
  H    -64.881200   52.502800  123.460000
  C    -67.183900   53.789000  124.160000
  H    -66.510900   54.608300  123.947000
  H    -67.841700   54.196800  125.009000
  C    -68.249900   53.657800  123.076000
  H    -69.029000   53.134900  123.667000
  H    -67.906000   52.886200  122.430000
  C    -68.714600   54.986200  122.458000
  H    -68.141600   55.382300  121.653000
  H    -68.839600   55.808200  123.187000
  H    -69.745300   54.839600  122.100000
  H    -71.923400   51.334900  127.589000
  H    -64.205400   50.235000  124.454000

 Total Charge           Charge          ....    0
 Multiplicity           Mult            ....    1
 Number of Electrons    NEL             ....  134
 Basis Dimension        Dim             ....  322

ORBITAL ENERGIES
----------------

  NO   OCC          E(Eh)            E(eV)
   0   2.0000     -88.968289     -2420.9502
   1   2.0000     -88.964844     -2420.8565
   2   2.0000     -10.329265      -281.0736
   3   2.0000     -10.326085      -280.9870
   4   2.0000     -10.318548      -280.7820
   5   2.0000     -10.316161      -280.7170
   6   2.0000     -10.305492      -280.4267
   7   2.0000     -10.297873      -280.2194
   8   2.0000     -10.296306      -280.1767
   9   2.0000     -10.295412      -280.1524
  10   2.0000     -10.291570      -280.0479
  11   2.0000     -10.290410      -280.0163
  12   2.0000     -10.283646      -279.8322
  13   2.0000     -10.281812      -279.7823
  14   2.0000     -10.281410      -279.7714
  15   2.0000     -10.279748      -279.7262
  16   2.0000      -8.083569      -219.9651
  17   2.0000      -8.080106      -219.8709
  18   2.0000      -6.041986      -164.4108
  19   2.0000      -6.038538      -164.3170
  20   2.0000      -6.037751      -164.2956
  21   2.0000      -6.034625      -164.2105
  22   2.0000      -6.034391      -164.2041
  23   2.0000      -6.031046      -164.1131
  24   2.0000      -1.013327       -27.5740
  25   2.0000      -0.992244       -27.0003
  26   2.0000      -0.916956       -24.9516
  27   2.0000      -0.912819       -24.8391
  28   2.0000      -0.868799       -23.6412
  29   2.0000      -0.853122       -23.2146
  30   2.0000      -0.844783       -22.9877
  31   2.0000      -0.810679       -22.0597
  32   2.0000      -0.782549       -21.2942
  33   2.0000      -0.771804       -21.0019
  34   2.0000      -0.709063       -19.2946
  35   2.0000      -0.699121       -19.0241
  36   2.0000      -0.693341       -18.8668
  37   2.0000      -0.664263       -18.0755
  38   2.0000      -0.646769       -17.5995
  39   2.0000      -0.621825       -16.9207
  40   2.0000      -0.602599       -16.3975
  41   2.0000      -0.568806       -15.4780
  42   2.0000      -0.560248       -15.2451
  43   2.0000      -0.558257       -15.1909
  44   2.0000      -0.528006       -14.3678
  45   2.0000      -0.521830       -14.1997
  46   2.0000      -0.520362       -14.1598
  47   2.0000      -0.514072       -13.9886
  48   2.0000      -0.503598       -13.7036
  49   2.0000      -0.500456       -13.6181
  50   2.0000      -0.494769       -13.4634
  51   2.0000      -0.487908       -13.2767
  52   2.0000      -0.469115       -12.7653
  53   2.0000      -0.464389       -12.6367
  54   2.0000      -0.463183       -12.6039
  55   2.0000      -0.451058       -12.2739
  56   2.0000      -0.443140       -12.0584
  57   2.0000      -0.440405       -11.9840
  58   2.0000      -0.426861       -11.6155
  59   2.0000      -0.424214       -11.5434
  60   2.0000      -0.422755       -11.5038
  61   2.0000      -0.409639       -11.1468
  62   2.0000      -0.398867       -10.8537
  63   2.0000      -0.338446        -9.2096
  64   2.0000      -0.330703        -8.9989
  65   2.0000      -0.325519        -8.8578
  66   2.0000      -0.303733        -8.2650
  67   0.0000       0.037034         1.0077
  68   0.0000       0.059730         1.6253
  69   0.0000       0.118918         3.2359
  70   0.0000       0.124282         3.3819
  71   0.0000       0.132933         3.6173

MULLIKEN ATOMIC CHARGES
-----------------------
   0 S :    0.129486
   1 C :   -0.095963
   2 C :   -0.090273
   3 C :    0.037964
   4 C :   -0.187648
   5 H :    0.027594
   6 C :    0.049596
   7 H :    0.043482
   8 H :    0.005968
   9 C :   -0.081652
  10 H :    0.025383
  11 H :    0.011577
  12 C :   -0.062370
  13 H :    0.044022
  14 H :    0.049257
  15 H :    0.042383
  16 S :    0.116969
  17 C :   -0.089889
  18 C :   -0.069995
  19 C :    0.014104
  20 C :   -0.180855
  21 H :    0.027585
  22 C :    0.021359
  23 H :    0.024827
  24 H :    0.019475
  25 C :   -0.053129
  26 H :    0.024664
  27 H :    0.016275
  28 C :   -0.022807
  29 H :    0.035913
  30 H :    0.025818
  31 H :    0.034559
  32 H :    0.038624
  33 H :    0.067696
Sum of atomic charges:    0.0000000

LOEWDIN ATOMIC CHARGES
----------------------
   0 S :    0.437838
   1 C :   -0.201152
   2 C :   -0.062069
   3 C :   -0.060639
   4 C :   -0.220241
   5 H :    0.036053
   6 C :   -0.041619
   7 H :    0.038658
   8 H :    0.026195
   9 C :   -0.040546
  10 H :    0.022822
  11 H :    0.014107
  12 C :   -0.068493
  13 H :    0.029230
  14 H :    0.031301
  15 H :    0.030288
  16 S :    0.425358
  17 C :   -0.204349
  18 C :   -0.078008
  19 C :   -0.062571
  20 C :   -0.195494
  21 H :    0.033881
  22 C :   -0.044804
  23 H :    0.025434
  24 H :    0.038768
  25 C :   -0.037229
  26 H :    0.028845
  27 H :    0.016793
  28 C :   -0.066241
  29 H :    0.022724
  30 H :    0.028992
  31 H :    0.034052
  32 H :    0.023144
  33 H :    0.038973

  Mayer bond orders larger than 0.100000
B(  0-S ,  1-C ) :   1.1677 B(  0-S ,  4-C ) :   1.1643 B(  1-C ,  2-C ) :   1.5579
B(  1-C ,  4-C ) :   0.1059 B(  1-C , 32-H ) :   0.9751 B(  2-C ,  3-C ) :   1.2722
B(  2-C ,  6-C ) :   1.0375 B(  3-C ,  4-C ) :   1.5486 B(  3-C ,  5-H ) :   0.9893
B(  4-C , 20-C ) :   1.0050 B(  6-C ,  7-H ) :   0.9401 B(  6-C ,  8-H ) :   0.9396
B(  6-C ,  9-C ) :   1.0506 B(  9-C , 10-H ) :   0.9567 B(  9-C , 11-H ) :   0.9525
B(  9-C , 12-C ) :   1.0759 B( 12-C , 13-H ) :   0.9738 B( 12-C , 14-H ) :   0.9772
B( 12-C , 15-H ) :   0.9755 B( 16-S , 17-C ) :   1.1724 B( 16-S , 20-C ) :   1.1553
B( 17-C , 18-C ) :   1.5744 B( 17-C , 20-C ) :   0.1049 B( 17-C , 33-H ) :   0.9676
B( 18-C , 19-C ) :   1.2631 B( 18-C , 21-H ) :   0.9827 B( 19-C , 20-C ) :   1.5865
B( 19-C , 22-C ) :   1.0706 B( 22-C , 23-H ) :   0.9414 B( 22-C , 24-H ) :   0.9188
B( 22-C , 25-C ) :   1.0480 B( 25-C , 26-H ) :   0.9585 B( 25-C , 27-H ) :   0.9574
B( 25-C , 28-C ) :   1.0679 B( 28-C , 29-H ) :   0.9768 B( 28-C , 30-H ) :   0.9722
B( 28-C , 31-H ) :   0.9724

Dispersion correction           -0.014349961
FINAL SINGLE POINT ENERGY     -1339.868037052448

DIPOLE MOMENT
-------------
                                X             Y             Z
Electronic contribution:      9.74718     -27.45574      -0.19174
Nuclear contribution   :     -9.81715      28.02297       0.22403
                        -----------------------------------------
Total Dipole Moment    :     -0.06998       0.56723       0.03228
                        -----------------------------------------
Magnitude (a.u.)       :      0.57244
Magnitude (Debye)      :      1.45502

Rotational constants in cm-1:     0.017549     0.008749     0.007110
Rotational constants in MHz :   526.103565   262.298606   213.148065

                             ****ORCA TERMINATED NORMALLY****
TOTAL RUN TIME: 0 days 0 hours 0 minutes 34 seconds 242 msec
