                         Program Version 4.2.1 -  RELEASE  -
|  1> ! wB97X-D3 SP def2-SVP
|  2> %pal
|  3> nprocs 16
|  4> end
|  5>
|  6> * xyz 0 1
|  7> S 	 -35.1273 	 48.3875 	 93.8972
|  8> C 	 -33.8931 	 48.4214 	 95.0768
|  9> C 	 -34.4518 	 48.9281 	 96.2305
| 10> C 	 -35.7851 	 49.415 	 96.1569
| 11> C 	 -36.3887 	 49.1158 	 94.9576
| 12> H 	 -36.399 	 49.8484 	 96.9182
| 13> C 	 -33.6823 	 49.1235 	 97.5207
| 14> H 	 -34.3351 	 49.7861 	 98.1548
| 15> H 	 -32.8324 	 49.7014 	 97.2018
| 16> C 	 -33.0812 	 47.8934 	 98.3227
| 17> H 	 -32.61 	 47.2554 	 97.5437
| 18> H 	 -32.1954 	 48.2441 	 98.8758
| 19> C 	 -34.0408 	 47.0246 	 99.0518
| 20> H 	 -34.8611 	 47.6358 	 99.4447
| 21> H 	 -34.6151 	 46.36 	 98.4084
| 22> H 	 -33.5334 	 46.4613 	 99.8661
| 23> S 	 -38.5806 	 47.6532 	 94.5635
| 24> C 	 -40.0312 	 48.4401 	 94.0996
| 25> C 	 -39.9242 	 49.8159 	 94.1527
| 26> C 	 -38.6511 	 50.2793 	 94.5936
| 27> C 	 -37.7827 	 49.2312 	 94.6681
| 28> H 	 -40.7226 	 50.4985 	 93.801
| 29> C 	 -38.1845 	 51.7274 	 94.5794
| 30> H 	 -37.9277 	 51.9789 	 93.5092
| 31> H 	 -37.2589 	 51.8106 	 95.2024
| 32> C 	 -39.2878 	 52.7351 	 95.0599
| 33> H 	 -39.8277 	 52.4531 	 95.9337
| 34> H 	 -40.098 	 52.863 	 94.3736
| 35> C 	 -38.7379 	 54.1881 	 95.1878
| 36> H 	 -38.0998 	 54.3092 	 96.0747
| 37> H 	 -39.6403 	 54.8037 	 95.2538
| 38> H 	 -38.1625 	 54.5163 	 94.3575
| 39> H 	 -32.8655 	 48.003 	 94.8754
| 40> H 	 -40.9633 	 47.9566 	 93.8273
| 41> *
| 42>
| 43>                          ****END OF INPUT****

CARTESIAN COORDINATES (ANGSTROEM)
---------------------------------
  S    -35.127300   48.387500   93.897200
  C    -33.893100   48.421400   95.076800
  C    -34.451800   48.928100   96.230500
  C    -35.785100   49.415000   96.156900
  C    -36.388700   49.115800   94.957600
  H    -36.399000   49.848400   96.918200
  C    -33.682300   49.123500   97.520700
  H    -34.335100   49.786100   98.154800
  H    -32.832400   49.701400   97.201800
  C    -33.081200   47.893400   98.322700
  H    -32.610000   47.255400   97.543700
  H    -32.195400   48.244100   98.875800
  C    -34.040800   47.024600   99.051800
  H    -34.861100   47.635800   99.444700
  H    -34.615100   46.360000   98.408400
  H    -33.533400   46.461300   99.866100
  S    -38.580600   47.653200   94.563500
  C    -40.031200   48.440100   94.099600
  C    -39.924200   49.815900   94.152700
  C    -38.651100   50.279300   94.593600
  C    -37.782700   49.231200   94.668100
  H    -40.722600   50.498500   93.801000
  C    -38.184500   51.727400   94.579400
  H    -37.927700   51.978900   93.509200
  H    -37.258900   51.810600   95.202400
  C    -39.287800   52.735100   95.059900
  H    -39.827700   52.453100   95.933700
  H    -40.098000   52.863000   94.373600
  C    -38.737900   54.188100   95.187800
  H    -38.099800   54.309200   96.074700
  H    -39.640300   54.803700   95.253800
  H    -38.162500   54.516300   94.357500
  H    -32.865500   48.003000   94.875400
  H    -40.963300   47.956600   93.827300

 Total Charge           Charge          ....    0
 Multiplicity           Mult            ....    1
 Number of Electrons    NEL             ....  134
 Basis Dimension        Dim             ....  322

ORBITAL ENERGIES
----------------

  NO   OCC          E(Eh)            E(eV)
   0   2.0000     -88.963665     -2420.8244
   1   2.0000     -88.961820     -2420.7742
   2   2.0000     -10.326648      -281.0024
   3   2.0000     -10.320177      -280.8263
   4   2.0000     -10.316944      -280.7383
   5   2.0000     -10.313694      -280.6499
   6   2.0000     -10.302969      -280.3581
   7   2.0000     -10.301368      -280.3145
   8   2.0000     -10.298405      -280.2338
   9   2.0000     -10.293851      -280.1099
  10   2.0000     -10.291042      -280.0335
  11   2.0000     -10.290353      -280.0147
  12   2.0000     -10.288785      -279.9721
  13   2.0000     -10.286423      -279.9078
  14   2.0000     -10.277666      -279.6695
  15   2.0000     -10.275086      -279.5993
  16   2.0000      -8.079006      -219.8409
  17   2.0000      -8.076606      -219.7756
  18   2.0000      -6.037412      -164.2863
  19   2.0000      -6.035138      -164.2245
  20   2.0000      -6.033539      -164.1810
  21   2.0000      -6.030849      -164.1077
  22   2.0000      -6.029708      -164.0767
  23   2.0000      -6.027583      -164.0189
  24   2.0000      -1.010041       -27.4846
  25   2.0000      -0.987503       -26.8713
  26   2.0000      -0.904831       -24.6217
  27   2.0000      -0.903533       -24.5864
  28   2.0000      -0.875104       -23.8128
  29   2.0000      -0.853982       -23.2380
  30   2.0000      -0.849481       -23.1155
  31   2.0000      -0.813421       -22.1343
  32   2.0000      -0.779462       -21.2102
  33   2.0000      -0.765011       -20.8170
  34   2.0000      -0.708295       -19.2737
  35   2.0000      -0.701438       -19.0871
  36   2.0000      -0.696423       -18.9506
  37   2.0000      -0.657951       -17.9038
  38   2.0000      -0.644999       -17.5513
  39   2.0000      -0.608355       -16.5542
  40   2.0000      -0.593474       -16.1492
  41   2.0000      -0.563694       -15.3389
  42   2.0000      -0.562254       -15.2997
  43   2.0000      -0.549570       -14.9546
  44   2.0000      -0.536822       -14.6077
  45   2.0000      -0.528523       -14.3819
  46   2.0000      -0.517754       -14.0888
  47   2.0000      -0.509878       -13.8745
  48   2.0000      -0.506360       -13.7788
  49   2.0000      -0.499309       -13.5869
  50   2.0000      -0.490254       -13.3405
  51   2.0000      -0.477650       -12.9975
  52   2.0000      -0.477151       -12.9839
  53   2.0000      -0.472511       -12.8577
  54   2.0000      -0.457578       -12.4513
  55   2.0000      -0.450271       -12.2525
  56   2.0000      -0.443215       -12.0605
  57   2.0000      -0.436176       -11.8690
  58   2.0000      -0.430210       -11.7066
  59   2.0000      -0.423199       -11.5158
  60   2.0000      -0.417670       -11.3654
  61   2.0000      -0.415139       -11.2965
  62   2.0000      -0.400427       -10.8962
  63   2.0000      -0.344267        -9.3680
  64   2.0000      -0.333264        -9.0686
  65   2.0000      -0.320376        -8.7179
  66   2.0000      -0.295613        -8.0440
  67   0.0000       0.033754         0.9185
  68   0.0000       0.062958         1.7132
  69   0.0000       0.114759         3.1228
  70   0.0000       0.123735         3.3670
  71   0.0000       0.126989         3.4555

MULLIKEN ATOMIC CHARGES
-----------------------
   0 S :    0.106160
   1 C :   -0.145733
   2 C :   -0.078555
   3 C :    0.054148
   4 C :   -0.179702
   5 H :    0.011830
   6 C :    0.028126
   7 H :    0.024611
   8 H :    0.029539
   9 C :   -0.071992
  10 H :    0.016687
  11 H :    0.032117
  12 C :   -0.029262
  13 H :    0.017476
  14 H :    0.034744
  15 H :    0.046014
  16 S :    0.120008
  17 C :   -0.076231
  18 C :   -0.059834
  19 C :    0.000124
  20 C :   -0.189434
  21 H :    0.028446
  22 C :    0.042360
  23 H :    0.057179
  24 H :    0.038980
  25 C :   -0.091705
  26 H :    0.024029
  27 H :    0.018452
  28 C :   -0.037625
  29 H :    0.036172
  30 H :    0.031700
  31 H :    0.024983
  32 H :    0.082711
  33 H :    0.053478
Sum of atomic charges:   -0.0000000

LOEWDIN ATOMIC CHARGES
----------------------
   0 S :    0.402281
   1 C :   -0.219505
   2 C :   -0.075603
   3 C :   -0.059996
   4 C :   -0.190142
   5 H :    0.031734
   6 C :   -0.036032
   7 H :    0.028364
   8 H :    0.032026
   9 C :   -0.048542
  10 H :    0.025112
  11 H :    0.027174
  12 C :   -0.072103
  13 H :    0.023959
  14 H :    0.029281
  15 H :    0.034232
  16 S :    0.415767
  17 C :   -0.194915
  18 C :   -0.077395
  19 C :   -0.058831
  20 C :   -0.191333
  21 H :    0.035120
  22 C :   -0.029243
  23 H :    0.045225
  24 H :    0.035599
  25 C :   -0.041694
  26 H :    0.021014
  27 H :    0.019196
  28 C :   -0.060048
  29 H :    0.024563
  30 H :    0.028482
  31 H :    0.019382
  32 H :    0.046939
  33 H :    0.029933

  Mayer bond orders larger than 0.100000
B(  0-S ,  1-C ) :   1.1476 B(  0-S ,  4-C ) :   1.1502 B(  1-C ,  2-C ) :   1.5732
B(  1-C , 32-H ) :   0.9670 B(  2-C ,  3-C ) :   1.2537 B(  2-C ,  6-C ) :   1.0131
B(  3-C ,  4-C ) :   1.5610 B(  3-C ,  5-H ) :   0.9949 B(  4-C , 20-C ) :   1.0484
B(  6-C ,  7-H ) :   0.9500 B(  6-C ,  8-H ) :   0.9378 B(  6-C ,  9-C ) :   1.0719
B(  9-C , 10-H ) :   0.9522 B(  9-C , 11-H ) :   0.9583 B(  9-C , 12-C ) :   1.0695
B( 12-C , 13-H ) :   0.9761 B( 12-C , 14-H ) :   0.9723 B( 12-C , 15-H ) :   0.9726
B( 16-S , 17-C ) :   1.1534 B( 16-S , 20-C ) :   1.1444 B( 17-C , 18-C ) :   1.6228
B( 17-C , 33-H ) :   0.9658 B( 18-C , 19-C ) :   1.2200 B( 18-C , 21-H ) :   0.9825
B( 19-C , 20-C ) :   1.6124 B( 19-C , 22-C ) :   1.0521 B( 22-C , 23-H ) :   0.9332
B( 22-C , 24-H ) :   0.9395 B( 22-C , 25-C ) :   1.0516 B( 25-C , 26-H ) :   0.9633
B( 25-C , 27-H ) :   0.9526 B( 25-C , 28-C ) :   1.0835 B( 28-C , 29-H ) :   0.9781
B( 28-C , 30-H ) :   0.9767 B( 28-C , 31-H ) :   0.9741

Dispersion correction           -0.013692917
FINAL SINGLE POINT ENERGY     -1339.871238772679

DIPOLE MOMENT
-------------
                                X             Y             Z
Electronic contribution:     -3.97742     -15.11234     -15.88019
Nuclear contribution   :      3.95011      15.50473      16.12661
                        -----------------------------------------
Total Dipole Moment    :     -0.02731       0.39239       0.24643
                        -----------------------------------------
Magnitude (a.u.)       :      0.46416
Magnitude (Debye)      :      1.17980

Rotational constants in cm-1:     0.018438     0.007771     0.006633
Rotational constants in MHz :   552.762161   232.967245   198.850848

                             ****ORCA TERMINATED NORMALLY****
TOTAL RUN TIME: 0 days 0 hours 0 minutes 29 seconds 55 msec
