                         Program Version 4.2.1 -  RELEASE  -
|  1> ! wB97X-D3 SP def2-SVP
|  2> %pal
|  3> nprocs 16
|  4> end
|  5>
|  6> * xyz 0 1
|  7> S 	 8.37065 	 24.3583 	 67.1212
|  8> C 	 7.6186 	 23.9194 	 65.5535
|  9> C 	 7.26583 	 25.0096 	 64.8179
| 10> C 	 7.44755 	 26.2308 	 65.6116
| 11> C 	 7.95738 	 26.0002 	 66.8538
| 12> H 	 7.18047 	 27.2016 	 65.27
| 13> C 	 6.63356 	 24.9679 	 63.4042
| 14> H 	 5.74367 	 24.3021 	 63.4372
| 15> H 	 7.38212 	 24.6331 	 62.7434
| 16> C 	 6.128 	 26.2602 	 62.9279
| 17> H 	 5.38 	 26.1154 	 62.2514
| 18> H 	 5.60458 	 26.848 	 63.7371
| 19> C 	 7.17308 	 27.0457 	 62.1682
| 20> H 	 7.11971 	 26.8554 	 61.0795
| 21> H 	 6.95917 	 28.0882 	 62.3422
| 22> H 	 8.23371 	 26.826 	 62.4599
| 23> S 	 9.77235 	 27.002 	 68.7767
| 24> C 	 9.39444 	 28.476 	 69.6775
| 25> C 	 8.0699 	 28.7832 	 69.3625
| 26> C 	 7.37892 	 27.8907 	 68.4939
| 27> C 	 8.22452 	 26.9553 	 67.9479
| 28> H 	 7.65389 	 29.5502 	 69.961
| 29> C 	 5.95286 	 28.0444 	 68.0609
| 30> H 	 5.89124 	 27.8204 	 67.0026
| 31> H 	 5.59536 	 29.0628 	 68.1653
| 32> C 	 4.89829 	 27.157 	 68.7256
| 33> H 	 4.70753 	 27.4393 	 69.7492
| 34> H 	 5.17358 	 26.0998 	 68.8855
| 35> C 	 3.50253 	 27.1735 	 68.0844
| 36> H 	 2.86782 	 26.3411 	 68.4554
| 37> H 	 3.54763 	 26.9448 	 67.0254
| 38> H 	 3.05689 	 28.1254 	 68.264
| 39> H 	 7.53324 	 22.9261 	 65.11
| 40> H 	 9.9843 	 28.989 	 70.4598
| 41> *
| 42>
| 43>                          ****END OF INPUT****

CARTESIAN COORDINATES (ANGSTROEM)
---------------------------------
  S      8.370650   24.358300   67.121200
  C      7.618600   23.919400   65.553500
  C      7.265830   25.009600   64.817900
  C      7.447550   26.230800   65.611600
  C      7.957380   26.000200   66.853800
  H      7.180470   27.201600   65.270000
  C      6.633560   24.967900   63.404200
  H      5.743670   24.302100   63.437200
  H      7.382120   24.633100   62.743400
  C      6.128000   26.260200   62.927900
  H      5.380000   26.115400   62.251400
  H      5.604580   26.848000   63.737100
  C      7.173080   27.045700   62.168200
  H      7.119710   26.855400   61.079500
  H      6.959170   28.088200   62.342200
  H      8.233710   26.826000   62.459900
  S      9.772350   27.002000   68.776700
  C      9.394440   28.476000   69.677500
  C      8.069900   28.783200   69.362500
  C      7.378920   27.890700   68.493900
  C      8.224520   26.955300   67.947900
  H      7.653890   29.550200   69.961000
  C      5.952860   28.044400   68.060900
  H      5.891240   27.820400   67.002600
  H      5.595360   29.062800   68.165300
  C      4.898290   27.157000   68.725600
  H      4.707530   27.439300   69.749200
  H      5.173580   26.099800   68.885500
  C      3.502530   27.173500   68.084400
  H      2.867820   26.341100   68.455400
  H      3.547630   26.944800   67.025400
  H      3.056890   28.125400   68.264000
  H      7.533240   22.926100   65.110000
  H      9.984300   28.989000   70.459800

 Total Charge           Charge          ....    0
 Multiplicity           Mult            ....    1
 Number of Electrons    NEL             ....  134
 Basis Dimension        Dim             ....  322

ORBITAL ENERGIES
----------------

  NO   OCC          E(Eh)            E(eV)
   0   2.0000     -88.966178     -2420.8928
   1   2.0000     -88.964534     -2420.8481
   2   2.0000     -10.328893      -281.0635
   3   2.0000     -10.327278      -281.0195
   4   2.0000     -10.322624      -280.8929
   5   2.0000     -10.312893      -280.6281
   6   2.0000     -10.303840      -280.3817
   7   2.0000     -10.300817      -280.2995
   8   2.0000     -10.294486      -280.1272
   9   2.0000     -10.291638      -280.0497
  10   2.0000     -10.291567      -280.0478
  11   2.0000     -10.287840      -279.9463
  12   2.0000     -10.280066      -279.7348
  13   2.0000     -10.279282      -279.7135
  14   2.0000     -10.277632      -279.6686
  15   2.0000     -10.274149      -279.5738
  16   2.0000      -8.081000      -219.8952
  17   2.0000      -8.078764      -219.8344
  18   2.0000      -6.039636      -164.3469
  19   2.0000      -6.037364      -164.2850
  20   2.0000      -6.035596      -164.2369
  21   2.0000      -6.033236      -164.1727
  22   2.0000      -6.031519      -164.1260
  23   2.0000      -6.029541      -164.0722
  24   2.0000      -1.007808       -27.4239
  25   2.0000      -0.983426       -26.7604
  26   2.0000      -0.926511       -25.2116
  27   2.0000      -0.907088       -24.6831
  28   2.0000      -0.871094       -23.7037
  29   2.0000      -0.851431       -23.1686
  30   2.0000      -0.839851       -22.8535
  31   2.0000      -0.818061       -22.2606
  32   2.0000      -0.786671       -21.4064
  33   2.0000      -0.774881       -21.0856
  34   2.0000      -0.710819       -19.3424
  35   2.0000      -0.696237       -18.9456
  36   2.0000      -0.692166       -18.8348
  37   2.0000      -0.659340       -17.9416
  38   2.0000      -0.639070       -17.3900
  39   2.0000      -0.628501       -17.1024
  40   2.0000      -0.596196       -16.2233
  41   2.0000      -0.573239       -15.5986
  42   2.0000      -0.565795       -15.3961
  43   2.0000      -0.557766       -15.1776
  44   2.0000      -0.540388       -14.7047
  45   2.0000      -0.523426       -14.2432
  46   2.0000      -0.521059       -14.1787
  47   2.0000      -0.518578       -14.1112
  48   2.0000      -0.504944       -13.7402
  49   2.0000      -0.495770       -13.4906
  50   2.0000      -0.491370       -13.3708
  51   2.0000      -0.487655       -13.2698
  52   2.0000      -0.473037       -12.8720
  53   2.0000      -0.464155       -12.6303
  54   2.0000      -0.457260       -12.4427
  55   2.0000      -0.450568       -12.2606
  56   2.0000      -0.445044       -12.1103
  57   2.0000      -0.438008       -11.9188
  58   2.0000      -0.429276       -11.6812
  59   2.0000      -0.426863       -11.6155
  60   2.0000      -0.417528       -11.3615
  61   2.0000      -0.409730       -11.1493
  62   2.0000      -0.408689       -11.1210
  63   2.0000      -0.346495        -9.4286
  64   2.0000      -0.331779        -9.0282
  65   2.0000      -0.328593        -8.9415
  66   2.0000      -0.295560        -8.0426
  67   0.0000       0.030760         0.8370
  68   0.0000       0.069594         1.8937
  69   0.0000       0.104233         2.8363
  70   0.0000       0.118568         3.2264
  71   0.0000       0.136940         3.7263

MULLIKEN ATOMIC CHARGES
-----------------------
   0 S :    0.111027
   1 C :   -0.126043
   2 C :   -0.113854
   3 C :    0.034890
   4 C :   -0.135719
   5 H :    0.005598
   6 C :    0.102074
   7 H :    0.042232
   8 H :    0.031630
   9 C :   -0.069150
  10 H :    0.001120
  11 H :    0.032207
  12 C :   -0.079143
  13 H :    0.041418
  14 H :    0.033186
  15 H :    0.044464
  16 S :    0.097933
  17 C :   -0.111134
  18 C :   -0.032000
  19 C :   -0.009410
  20 C :   -0.146450
  21 H :    0.005560
  22 C :    0.104110
  23 H :    0.000328
  24 H :    0.014172
  25 C :   -0.078859
  26 H :    0.013591
  27 H :    0.029401
  28 C :   -0.052622
  29 H :    0.037469
  30 H :    0.023796
  31 H :    0.030039
  32 H :    0.042326
  33 H :    0.075814
Sum of atomic charges:    0.0000000

LOEWDIN ATOMIC CHARGES
----------------------
   0 S :    0.401935
   1 C :   -0.187967
   2 C :   -0.055903
   3 C :   -0.062540
   4 C :   -0.193250
   5 H :    0.023647
   6 C :   -0.023960
   7 H :    0.040617
   8 H :    0.028815
   9 C :   -0.050196
  10 H :    0.015660
  11 H :    0.029037
  12 C :   -0.068773
  13 H :    0.029945
  14 H :    0.026128
  15 H :    0.029143
  16 S :    0.393857
  17 C :   -0.189761
  18 C :   -0.068607
  19 C :   -0.059643
  20 C :   -0.193567
  21 H :    0.023394
  22 C :   -0.030817
  23 H :    0.028594
  24 H :    0.030046
  25 C :   -0.044184
  26 H :    0.019273
  27 H :    0.026266
  28 C :   -0.063881
  29 H :    0.033780
  30 H :    0.020369
  31 H :    0.018954
  32 H :    0.030268
  33 H :    0.043317

  Mayer bond orders larger than 0.100000
B(  0-S ,  1-C ) :   1.1118 B(  0-S ,  4-C ) :   1.1484 B(  1-C ,  2-C ) :   1.6862
B(  1-C , 32-H ) :   0.9673 B(  2-C ,  3-C ) :   1.2074 B(  2-C ,  6-C ) :   0.9963
B(  3-C ,  4-C ) :   1.6067 B(  3-C ,  5-H ) :   0.9906 B(  4-C , 20-C ) :   1.0080
B(  6-C ,  7-H ) :   0.9399 B(  6-C ,  8-H ) :   0.9346 B(  6-C ,  9-C ) :   1.1006
B(  9-C , 10-H ) :   0.9443 B(  9-C , 11-H ) :   0.9528 B(  9-C , 12-C ) :   1.0616
B( 12-C , 13-H ) :   0.9762 B( 12-C , 14-H ) :   0.9745 B( 12-C , 15-H ) :   0.9820
B( 16-S , 17-C ) :   1.1446 B( 16-S , 20-C ) :   1.1435 B( 17-C , 18-C ) :   1.6012
B( 17-C , 20-C ) :   0.1049 B( 17-C , 33-H ) :   0.9658 B( 18-C , 19-C ) :   1.2519
B( 18-C , 21-H ) :   0.9919 B( 19-C , 20-C ) :   1.5777 B( 19-C , 22-C ) :   1.0553
B( 22-C , 23-H ) :   0.9286 B( 22-C , 24-H ) :   0.9310 B( 22-C , 25-C ) :   1.0541
B( 25-C , 26-H ) :   0.9512 B( 25-C , 27-H ) :   0.9590 B( 25-C , 28-C ) :   1.0870
B( 28-C , 29-H ) :   0.9727 B( 28-C , 30-H ) :   0.9747 B( 28-C , 31-H ) :   0.9774

Dispersion correction           -0.014451118
FINAL SINGLE POINT ENERGY     -1339.868948492521

DIPOLE MOMENT
-------------
                                X             Y             Z
Electronic contribution:     22.41693      -7.23616      15.71320
Nuclear contribution   :    -23.02234       7.46813     -16.11202
                        -----------------------------------------
Total Dipole Moment    :     -0.60541       0.23197      -0.39883
                        -----------------------------------------
Magnitude (a.u.)       :      0.76118
Magnitude (Debye)      :      1.93476

Rotational constants in cm-1:     0.017040     0.009335     0.007792
Rotational constants in MHz :   510.848242   279.853932   233.601264

                             ****ORCA TERMINATED NORMALLY****
TOTAL RUN TIME: 0 days 0 hours 0 minutes 33 seconds 581 msec
