                         Program Version 4.2.1 -  RELEASE  -
|  1> ! wB97X-D3 SP def2-SVP
|  2> %pal
|  3> nprocs 16
|  4> end
|  5>
|  6> * xyz 0 1
|  7> S 	 -74.3098 	 47.0278 	 122.996
|  8> C 	 -74.7134 	 45.3347 	 123.238
|  9> C 	 -73.9315 	 44.7605 	 124.204
| 10> C 	 -73.1863 	 45.6743 	 124.958
| 11> C 	 -73.2681 	 46.9834 	 124.41
| 12> H 	 -72.6184 	 45.3832 	 125.834
| 13> C 	 -74.1987 	 43.2893 	 124.671
| 14> H 	 -75.2289 	 43.066 	 124.642
| 15> H 	 -73.9539 	 43.2176 	 125.712
| 16> C 	 -73.4152 	 42.0889 	 124.033
| 17> H 	 -72.3375 	 42.2419 	 124.304
| 18> H 	 -73.8853 	 41.2145 	 124.526
| 19> C 	 -73.5071 	 42.0742 	 122.518
| 20> H 	 -72.9538 	 41.3434 	 121.971
| 21> H 	 -74.55 	 41.9613 	 122.19
| 22> H 	 -73.1881 	 43.0282 	 122.172
| 23> S 	 -71.4163 	 49.0018 	 123.603
| 24> C 	 -70.8485 	 50.0388 	 124.928
| 25> C 	 -71.4457 	 49.8148 	 126.158
| 26> C 	 -72.3425 	 48.7016 	 126.053
| 27> C 	 -72.4609 	 48.1721 	 124.819
| 28> H 	 -71.1143 	 50.3104 	 127.074
| 29> C 	 -73.1518 	 48.3432 	 127.27
| 30> H 	 -72.6737 	 48.5868 	 128.187
| 31> H 	 -73.2329 	 47.263 	 127.198
| 32> C 	 -74.5047 	 49.0285 	 127.3
| 33> H 	 -74.3779 	 50.1017 	 127.319
| 34> H 	 -74.9398 	 48.8647 	 128.257
| 35> C 	 -75.5332 	 48.5016 	 126.296
| 36> H 	 -75.1429 	 48.6556 	 125.302
| 37> H 	 -76.3612 	 49.1116 	 126.425
| 38> H 	 -75.7835 	 47.4758 	 126.489
| 39> H 	 -75.4798 	 44.808 	 122.707
| 40> H 	 -70.2946 	 50.8814 	 124.751
| 41> *
| 42>
| 43>                          ****END OF INPUT****

CARTESIAN COORDINATES (ANGSTROEM)
---------------------------------
  S    -74.309800   47.027800  122.996000
  C    -74.713400   45.334700  123.238000
  C    -73.931500   44.760500  124.204000
  C    -73.186300   45.674300  124.958000
  C    -73.268100   46.983400  124.410000
  H    -72.618400   45.383200  125.834000
  C    -74.198700   43.289300  124.671000
  H    -75.228900   43.066000  124.642000
  H    -73.953900   43.217600  125.712000
  C    -73.415200   42.088900  124.033000
  H    -72.337500   42.241900  124.304000
  H    -73.885300   41.214500  124.526000
  C    -73.507100   42.074200  122.518000
  H    -72.953800   41.343400  121.971000
  H    -74.550000   41.961300  122.190000
  H    -73.188100   43.028200  122.172000
  S    -71.416300   49.001800  123.603000
  C    -70.848500   50.038800  124.928000
  C    -71.445700   49.814800  126.158000
  C    -72.342500   48.701600  126.053000
  C    -72.460900   48.172100  124.819000
  H    -71.114300   50.310400  127.074000
  C    -73.151800   48.343200  127.270000
  H    -72.673700   48.586800  128.187000
  H    -73.232900   47.263000  127.198000
  C    -74.504700   49.028500  127.300000
  H    -74.377900   50.101700  127.319000
  H    -74.939800   48.864700  128.257000
  C    -75.533200   48.501600  126.296000
  H    -75.142900   48.655600  125.302000
  H    -76.361200   49.111600  126.425000
  H    -75.783500   47.475800  126.489000
  H    -75.479800   44.808000  122.707000
  H    -70.294600   50.881400  124.751000

 Total Charge           Charge          ....    0
 Multiplicity           Mult            ....    1
 Number of Electrons    NEL             ....  134
 Basis Dimension        Dim             ....  322

ORBITAL ENERGIES
----------------

  NO   OCC          E(Eh)            E(eV)
   0   2.0000     -88.971912     -2421.0488
   1   2.0000     -88.966748     -2420.9083
   2   2.0000     -10.337057      -281.2856
   3   2.0000     -10.326523      -280.9990
   4   2.0000     -10.313698      -280.6500
   5   2.0000     -10.313113      -280.6341
   6   2.0000     -10.300345      -280.2866
   7   2.0000     -10.299060      -280.2517
   8   2.0000     -10.295500      -280.1548
   9   2.0000     -10.294854      -280.1372
  10   2.0000     -10.292725      -280.0793
  11   2.0000     -10.289602      -279.9943
  12   2.0000     -10.281049      -279.7616
  13   2.0000     -10.274024      -279.5704
  14   2.0000     -10.268752      -279.4270
  15   2.0000     -10.258307      -279.1427
  16   2.0000      -8.085871      -220.0277
  17   2.0000      -8.080379      -219.8783
  18   2.0000      -6.044275      -164.4731
  19   2.0000      -6.040434      -164.3686
  20   2.0000      -6.038935      -164.3278
  21   2.0000      -6.036841      -164.2708
  22   2.0000      -6.035314      -164.2292
  23   2.0000      -6.030891      -164.1089
  24   2.0000      -1.002770       -27.2868
  25   2.0000      -0.982236       -26.7280
  26   2.0000      -0.910031       -24.7632
  27   2.0000      -0.906202       -24.6590
  28   2.0000      -0.863315       -23.4920
  29   2.0000      -0.851946       -23.1826
  30   2.0000      -0.845679       -23.0121
  31   2.0000      -0.810826       -22.0637
  32   2.0000      -0.788035       -21.4435
  33   2.0000      -0.777894       -21.1676
  34   2.0000      -0.704867       -19.1804
  35   2.0000      -0.695384       -18.9224
  36   2.0000      -0.691944       -18.8287
  37   2.0000      -0.664682       -18.0869
  38   2.0000      -0.640222       -17.4213
  39   2.0000      -0.618391       -16.8273
  40   2.0000      -0.594165       -16.1681
  41   2.0000      -0.568954       -15.4820
  42   2.0000      -0.553861       -15.0713
  43   2.0000      -0.551780       -15.0147
  44   2.0000      -0.546658       -14.8753
  45   2.0000      -0.534621       -14.5478
  46   2.0000      -0.519266       -14.1299
  47   2.0000      -0.509743       -13.8708
  48   2.0000      -0.502792       -13.6817
  49   2.0000      -0.492558       -13.4032
  50   2.0000      -0.487167       -13.2565
  51   2.0000      -0.480578       -13.0772
  52   2.0000      -0.470726       -12.8091
  53   2.0000      -0.463191       -12.6041
  54   2.0000      -0.460461       -12.5298
  55   2.0000      -0.451647       -12.2899
  56   2.0000      -0.442868       -12.0510
  57   2.0000      -0.437165       -11.8959
  58   2.0000      -0.431532       -11.7426
  59   2.0000      -0.424038       -11.5387
  60   2.0000      -0.419594       -11.4177
  61   2.0000      -0.414897       -11.2899
  62   2.0000      -0.405474       -11.0335
  63   2.0000      -0.343417        -9.3449
  64   2.0000      -0.336662        -9.1610
  65   2.0000      -0.333023        -9.0620
  66   2.0000      -0.291308        -7.9269
  67   0.0000       0.029572         0.8047
  68   0.0000       0.061193         1.6651
  69   0.0000       0.103786         2.8242
  70   0.0000       0.115421         3.1408
  71   0.0000       0.126695         3.4475

MULLIKEN ATOMIC CHARGES
-----------------------
   0 S :    0.118583
   1 C :   -0.115300
   2 C :   -0.066436
   3 C :    0.042996
   4 C :   -0.188472
   5 H :    0.025135
   6 C :    0.034250
   7 H :    0.020592
   8 H :    0.012800
   9 C :   -0.074761
  10 H :    0.037078
  11 H :    0.039082
  12 C :   -0.029608
  13 H :    0.030434
  14 H :    0.014621
  15 H :    0.027755
  16 S :    0.097224
  17 C :   -0.056996
  18 C :   -0.032382
  19 C :   -0.067830
  20 C :   -0.140144
  21 H :    0.031401
  22 C :    0.123214
  23 H :    0.005160
  24 H :    0.000165
  25 C :   -0.070775
  26 H :    0.014587
  27 H :    0.007290
  28 C :    0.021545
  29 H :    0.028572
  30 H :    0.011549
  31 H :    0.027996
  32 H :    0.044122
  33 H :    0.026554
Sum of atomic charges:   -0.0000000

LOEWDIN ATOMIC CHARGES
----------------------
   0 S :    0.412617
   1 C :   -0.187631
   2 C :   -0.067586
   3 C :   -0.058974
   4 C :   -0.183982
   5 H :    0.033731
   6 C :   -0.025918
   7 H :    0.022128
   8 H :    0.026217
   9 C :   -0.037154
  10 H :    0.028002
  11 H :    0.027606
  12 C :   -0.068080
  13 H :    0.021881
  14 H :    0.022567
  15 H :    0.022479
  16 S :    0.366238
  17 C :   -0.154267
  18 C :   -0.064921
  19 C :   -0.056126
  20 C :   -0.189722
  21 H :    0.037766
  22 C :   -0.026458
  23 H :    0.024673
  24 H :    0.026409
  25 C :   -0.033282
  26 H :    0.021348
  27 H :    0.017171
  28 C :   -0.049846
  29 H :    0.018132
  30 H :    0.017277
  31 H :    0.025073
  32 H :    0.024706
  33 H :    0.007925

  Mayer bond orders larger than 0.100000
B(  0-S ,  1-C ) :   1.1384 B(  0-S ,  4-C ) :   1.1688 B(  1-C ,  2-C ) :   1.5881
B(  1-C ,  4-C ) :   0.1058 B(  1-C , 32-H ) :   0.9729 B(  2-C ,  3-C ) :   1.2871
B(  2-C ,  6-C ) :   1.0000 B(  3-C ,  4-C ) :   1.5382 B(  3-C ,  5-H ) :   0.9854
B(  4-C , 20-C ) :   1.0219 B(  6-C ,  7-H ) :   0.9539 B(  6-C ,  8-H ) :   0.9476
B(  6-C ,  9-C ) :   1.0643 B(  9-C , 10-H ) :   0.9577 B(  9-C , 11-H ) :   0.9564
B(  9-C , 12-C ) :   1.0803 B( 12-C , 13-H ) :   0.9758 B( 12-C , 14-H ) :   0.9738
B( 12-C , 15-H ) :   0.9695 B( 16-S , 17-C ) :   1.1446 B( 16-S , 20-C ) :   1.0992
B( 17-C , 18-C ) :   1.6454 B( 17-C , 33-H ) :   0.9697 B( 18-C , 19-C ) :   1.2065
B( 18-C , 21-H ) :   0.9863 B( 19-C , 20-C ) :   1.6692 B( 19-C , 22-C ) :   1.0432
B( 22-C , 23-H ) :   0.9273 B( 22-C , 24-H ) :   0.9206 B( 22-C , 25-C ) :   1.0884
B( 25-C , 26-H ) :   0.9499 B( 25-C , 27-H ) :   0.9504 B( 25-C , 28-C ) :   1.0877
B( 28-C , 29-H ) :   0.9695 B( 28-C , 30-H ) :   0.9673 B( 28-C , 31-H ) :   0.9725

Dispersion correction           -0.015712693
FINAL SINGLE POINT ENERGY     -1339.871659330346

DIPOLE MOMENT
-------------
                                X             Y             Z
Electronic contribution:      9.08167      16.09002     -10.57788
Nuclear contribution   :     -9.24703     -16.32893      11.13963
                        -----------------------------------------
Total Dipole Moment    :     -0.16536      -0.23891       0.56176
                        -----------------------------------------
Magnitude (a.u.)       :      0.63245
Magnitude (Debye)      :      1.60756

Rotational constants in cm-1:     0.022682     0.008204     0.007345
Rotational constants in MHz :   679.979730   245.936014   220.201861

                             ****ORCA TERMINATED NORMALLY****
TOTAL RUN TIME: 0 days 0 hours 0 minutes 34 seconds 888 msec
