                         Program Version 4.2.1 -  RELEASE  -
|  1> ! wB97X-D3 SP def2-SVP
|  2> %pal
|  3> nprocs 16
|  4> end
|  5>
|  6> * xyz 0 1
|  7> S 	 -13.4755 	 68.0935 	 53.7541
|  8> C 	 -14.0787 	 66.6776 	 54.558
|  9> C 	 -13.1288 	 65.6861 	 54.6139
| 10> C 	 -12.0374 	 65.9579 	 53.7345
| 11> C 	 -11.9742 	 67.2741 	 53.3263
| 12> H 	 -11.1774 	 65.3203 	 53.4086
| 13> C 	 -13.1501 	 64.4123 	 55.3884
| 14> H 	 -13.4033 	 64.6858 	 56.3539
| 15> H 	 -12.155 	 63.9303 	 55.4055
| 16> C 	 -14.0806 	 63.3128 	 54.7654
| 17> H 	 -15.1358 	 63.7013 	 54.671
| 18> H 	 -13.742 	 63.1314 	 53.772
| 19> C 	 -14.0016 	 61.9766 	 55.4616
| 20> H 	 -14.1775 	 61.9866 	 56.5555
| 21> H 	 -14.672 	 61.2069 	 55.0075
| 22> H 	 -12.9885 	 61.4559 	 55.4325
| 23> S 	 -11.5537 	 67.9616 	 50.7056
| 24> C 	 -10.3122 	 69.0512 	 50.3043
| 25> C 	 -9.58005 	 69.422 	 51.4155
| 26> C 	 -10.0096 	 68.8028 	 52.6071
| 27> C 	 -11.1098 	 68.025 	 52.3905
| 28> H 	 -8.77127 	 70.1451 	 51.2522
| 29> C 	 -9.23598 	 68.9527 	 53.8948
| 30> H 	 -9.93977 	 68.6929 	 54.6619
| 31> H 	 -8.99821 	 69.972 	 54.1442
| 32> C 	 -8.0532 	 67.9866 	 54.1451
| 33> H 	 -7.22965 	 68.4389 	 53.6378
| 34> H 	 -8.20626 	 66.9603 	 53.7662
| 35> C 	 -7.66585 	 67.6857 	 55.6054
| 36> H 	 -7.6617 	 68.6912 	 56.1402
| 37> H 	 -6.74613 	 67.2371 	 55.5449
| 38> H 	 -8.42383 	 67.0588 	 56.1641
| 39> H 	 -14.9066 	 66.7479 	 55.2123
| 40> H 	 -10.208 	 69.2458 	 49.3164
| 41> *
| 42>
| 43>                          ****END OF INPUT****

CARTESIAN COORDINATES (ANGSTROEM)
---------------------------------
  S    -13.475500   68.093500   53.754100
  C    -14.078700   66.677600   54.558000
  C    -13.128800   65.686100   54.613900
  C    -12.037400   65.957900   53.734500
  C    -11.974200   67.274100   53.326300
  H    -11.177400   65.320300   53.408600
  C    -13.150100   64.412300   55.388400
  H    -13.403300   64.685800   56.353900
  H    -12.155000   63.930300   55.405500
  C    -14.080600   63.312800   54.765400
  H    -15.135800   63.701300   54.671000
  H    -13.742000   63.131400   53.772000
  C    -14.001600   61.976600   55.461600
  H    -14.177500   61.986600   56.555500
  H    -14.672000   61.206900   55.007500
  H    -12.988500   61.455900   55.432500
  S    -11.553700   67.961600   50.705600
  C    -10.312200   69.051200   50.304300
  C     -9.580050   69.422000   51.415500
  C    -10.009600   68.802800   52.607100
  C    -11.109800   68.025000   52.390500
  H     -8.771270   70.145100   51.252200
  C     -9.235980   68.952700   53.894800
  H     -9.939770   68.692900   54.661900
  H     -8.998210   69.972000   54.144200
  C     -8.053200   67.986600   54.145100
  H     -7.229650   68.438900   53.637800
  H     -8.206260   66.960300   53.766200
  C     -7.665850   67.685700   55.605400
  H     -7.661700   68.691200   56.140200
  H     -6.746130   67.237100   55.544900
  H     -8.423830   67.058800   56.164100
  H    -14.906600   66.747900   55.212300
  H    -10.208000   69.245800   49.316400

 Total Charge           Charge          ....    0
 Multiplicity           Mult            ....    1
 Number of Electrons    NEL             ....  134
 Basis Dimension        Dim             ....  322

ORBITAL ENERGIES
----------------

  NO   OCC          E(Eh)            E(eV)
   0   2.0000     -88.961065     -2420.7536
   1   2.0000     -88.959446     -2420.7096
   2   2.0000     -10.326737      -281.0048
   3   2.0000     -10.321145      -280.8526
   4   2.0000     -10.308582      -280.5108
   5   2.0000     -10.305886      -280.4374
   6   2.0000     -10.300269      -280.2846
   7   2.0000     -10.299860      -280.2734
   8   2.0000     -10.297076      -280.1977
   9   2.0000     -10.290946      -280.0309
  10   2.0000     -10.290132      -280.0087
  11   2.0000     -10.288491      -279.9641
  12   2.0000     -10.286133      -279.8999
  13   2.0000     -10.285505      -279.8828
  14   2.0000     -10.283577      -279.8304
  15   2.0000     -10.280239      -279.7395
  16   2.0000      -8.077387      -219.7969
  17   2.0000      -8.074593      -219.7208
  18   2.0000      -6.035626      -164.2377
  19   2.0000      -6.033050      -164.1676
  20   2.0000      -6.031622      -164.1288
  21   2.0000      -6.029003      -164.0575
  22   2.0000      -6.028390      -164.0408
  23   2.0000      -6.025415      -163.9599
  24   2.0000      -1.010843       -27.5064
  25   2.0000      -0.989091       -26.9145
  26   2.0000      -0.911248       -24.7963
  27   2.0000      -0.908298       -24.7160
  28   2.0000      -0.867559       -23.6075
  29   2.0000      -0.855946       -23.2915
  30   2.0000      -0.846826       -23.0433
  31   2.0000      -0.814356       -22.1598
  32   2.0000      -0.786148       -21.3922
  33   2.0000      -0.771925       -21.0051
  34   2.0000      -0.702245       -19.1090
  35   2.0000      -0.698102       -18.9963
  36   2.0000      -0.694282       -18.8924
  37   2.0000      -0.664574       -18.0840
  38   2.0000      -0.648087       -17.6353
  39   2.0000      -0.616557       -16.7774
  40   2.0000      -0.602587       -16.3972
  41   2.0000      -0.570786       -15.5319
  42   2.0000      -0.565322       -15.3832
  43   2.0000      -0.554346       -15.0845
  44   2.0000      -0.534335       -14.5400
  45   2.0000      -0.526653       -14.3310
  46   2.0000      -0.518772       -14.1165
  47   2.0000      -0.512071       -13.9342
  48   2.0000      -0.506390       -13.7796
  49   2.0000      -0.503074       -13.6893
  50   2.0000      -0.484229       -13.1765
  51   2.0000      -0.480894       -13.0858
  52   2.0000      -0.475447       -12.9376
  53   2.0000      -0.462666       -12.5898
  54   2.0000      -0.455301       -12.3894
  55   2.0000      -0.450117       -12.2483
  56   2.0000      -0.446237       -12.1427
  57   2.0000      -0.434044       -11.8109
  58   2.0000      -0.431399       -11.7390
  59   2.0000      -0.424101       -11.5404
  60   2.0000      -0.416563       -11.3353
  61   2.0000      -0.414379       -11.2758
  62   2.0000      -0.410959       -11.1828
  63   2.0000      -0.337279        -9.1778
  64   2.0000      -0.327972        -8.9246
  65   2.0000      -0.315701        -8.5907
  66   2.0000      -0.314472        -8.5572
  67   0.0000       0.049406         1.3444
  68   0.0000       0.053876         1.4660
  69   0.0000       0.116600         3.1728
  70   0.0000       0.126648         3.4463
  71   0.0000       0.132598         3.6082

MULLIKEN ATOMIC CHARGES
-----------------------
   0 S :    0.099182
   1 C :   -0.100311
   2 C :   -0.096035
   3 C :    0.021315
   4 C :   -0.178206
   5 H :    0.031893
   6 C :    0.095922
   7 H :    0.012766
   8 H :    0.020362
   9 C :   -0.057931
  10 H :    0.039913
  11 H :    0.021953
  12 C :   -0.081920
  13 H :    0.030865
  14 H :    0.043182
  15 H :    0.030653
  16 S :    0.123603
  17 C :   -0.065016
  18 C :   -0.035494
  19 C :    0.000887
  20 C :   -0.200201
  21 H :    0.022488
  22 C :    0.105444
  23 H :    0.003416
  24 H :    0.021991
  25 C :   -0.073372
  26 H :    0.022499
  27 H :    0.030405
  28 C :   -0.056940
  29 H :    0.032553
  30 H :    0.028845
  31 H :    0.047353
  32 H :    0.039040
  33 H :    0.018893
Sum of atomic charges:    0.0000000

LOEWDIN ATOMIC CHARGES
----------------------
   0 S :    0.405296
   1 C :   -0.195111
   2 C :   -0.062143
   3 C :   -0.066098
   4 C :   -0.192221
   5 H :    0.041590
   6 C :   -0.024214
   7 H :    0.020481
   8 H :    0.034258
   9 C :   -0.038870
  10 H :    0.030055
  11 H :    0.023246
  12 C :   -0.082740
  13 H :    0.023865
  14 H :    0.031971
  15 H :    0.029783
  16 S :    0.434888
  17 C :   -0.177285
  18 C :   -0.073649
  19 C :   -0.052860
  20 C :   -0.215612
  21 H :    0.034709
  22 C :   -0.031956
  23 H :    0.027808
  24 H :    0.029444
  25 C :   -0.037489
  26 H :    0.017751
  27 H :    0.027730
  28 C :   -0.061044
  29 H :    0.028648
  30 H :    0.015709
  31 H :    0.031497
  32 H :    0.018628
  33 H :    0.003934

  Mayer bond orders larger than 0.100000
B(  0-S ,  1-C ) :   1.1466 B(  0-S ,  4-C ) :   1.1603 B(  1-C ,  2-C ) :   1.6177
B(  1-C , 32-H ) :   0.9686 B(  2-C ,  3-C ) :   1.2148 B(  2-C ,  6-C ) :   1.0296
B(  3-C ,  4-C ) :   1.6262 B(  3-C ,  5-H ) :   0.9827 B(  4-C , 20-C ) :   0.9700
B(  6-C ,  7-H ) :   0.9311 B(  6-C ,  8-H ) :   0.9437 B(  6-C ,  9-C ) :   1.0600
B(  9-C , 10-H ) :   0.9565 B(  9-C , 11-H ) :   0.9529 B(  9-C , 12-C ) :   1.0842
B( 12-C , 13-H ) :   0.9744 B( 12-C , 14-H ) :   0.9723 B( 12-C , 15-H ) :   0.9704
B( 16-S , 17-C ) :   1.1840 B( 16-S , 20-C ) :   1.1694 B( 17-C , 18-C ) :   1.5691
B( 17-C , 20-C ) :   0.1021 B( 17-C , 33-H ) :   0.9867 B( 18-C , 19-C ) :   1.2380
B( 18-C , 21-H ) :   0.9986 B( 19-C , 20-C ) :   1.6079 B( 19-C , 22-C ) :   1.0566
B( 22-C , 23-H ) :   0.9192 B( 22-C , 24-H ) :   0.9303 B( 22-C , 25-C ) :   1.0559
B( 25-C , 26-H ) :   0.9571 B( 25-C , 27-H ) :   0.9577 B( 25-C , 28-C ) :   1.0834
B( 28-C , 29-H ) :   0.9758 B( 28-C , 30-H ) :   0.9736 B( 28-C , 31-H ) :   0.9746

Dispersion correction           -0.013752084
FINAL SINGLE POINT ENERGY     -1339.868290518740

DIPOLE MOMENT
-------------
                                X             Y             Z
Electronic contribution:     -9.33012      17.08338     -17.88857
Nuclear contribution   :      9.70804     -17.38427      18.14129
                        -----------------------------------------
Total Dipole Moment    :      0.37792      -0.30089       0.25272
                        -----------------------------------------
Magnitude (a.u.)       :      0.54519
Magnitude (Debye)      :      1.38575

Rotational constants in cm-1:     0.018689     0.007848     0.006507
Rotational constants in MHz :   560.282857   235.284772   195.072663

                             ****ORCA TERMINATED NORMALLY****
TOTAL RUN TIME: 0 days 0 hours 0 minutes 32 seconds 662 msec
