                         Program Version 4.2.1 -  RELEASE  -
|  1> ! wB97X-D3 SP def2-SVP
|  2> %pal
|  3> nprocs 16
|  4> end
|  5>
|  6> * xyz 0 1
|  7> S 	 38.2344 	 33.683 	 54.1965
|  8> C 	 36.7715 	 34.054 	 53.3177
|  9> C 	 35.7131 	 33.3538 	 53.9108
| 10> C 	 36.0976 	 32.5982 	 55.1168
| 11> C 	 37.4362 	 32.7225 	 55.402
| 12> H 	 35.4119 	 32.0808 	 55.8051
| 13> C 	 34.2629 	 33.414 	 53.4255
| 14> H 	 34.1263 	 34.2781 	 52.7324
| 15> H 	 33.66 	 33.5745 	 54.3305
| 16> C 	 33.6845 	 32.0846 	 52.9383
| 17> H 	 34.0213 	 31.9718 	 51.9174
| 18> H 	 34.0963 	 31.3117 	 53.6278
| 19> C 	 32.1784 	 31.8865 	 52.9677
| 20> H 	 31.7025 	 31.8354 	 53.9545
| 21> H 	 31.6207 	 32.729 	 52.5826
| 22> H 	 31.7817 	 31.0798 	 52.3843
| 23> S 	 39.9325 	 32.35 	 56.4962
| 24> C 	 40.1945 	 31.1508 	 57.7609
| 25> C 	 39.0581 	 30.4132 	 57.9935
| 26> C 	 37.916 	 30.9105 	 57.2327
| 27> C 	 38.1819 	 31.9592 	 56.3807
| 28> H 	 39.1277 	 29.5725 	 58.6749
| 29> C 	 36.5462 	 30.199 	 57.2902
| 30> H 	 36.6922 	 29.1415 	 57.6365
| 31> H 	 36.1396 	 30.0881 	 56.225
| 32> C 	 35.581 	 30.9472 	 58.2433
| 33> H 	 35.6816 	 32.1303 	 58.1095
| 34> H 	 35.9425 	 30.7158 	 59.2227
| 35> C 	 34.1917 	 30.3515 	 58.2682
| 36> H 	 33.7655 	 30.7606 	 59.1352
| 37> H 	 34.3407 	 29.2998 	 58.4301
| 38> H 	 33.5823 	 30.4232 	 57.4169
| 39> H 	 36.7698 	 34.8886 	 52.5259
| 40> H 	 41.1026 	 30.8193 	 58.1566
| 41> *
| 42>
| 43>                          ****END OF INPUT****

CARTESIAN COORDINATES (ANGSTROEM)
---------------------------------
  S     38.234400   33.683000   54.196500
  C     36.771500   34.054000   53.317700
  C     35.713100   33.353800   53.910800
  C     36.097600   32.598200   55.116800
  C     37.436200   32.722500   55.402000
  H     35.411900   32.080800   55.805100
  C     34.262900   33.414000   53.425500
  H     34.126300   34.278100   52.732400
  H     33.660000   33.574500   54.330500
  C     33.684500   32.084600   52.938300
  H     34.021300   31.971800   51.917400
  H     34.096300   31.311700   53.627800
  C     32.178400   31.886500   52.967700
  H     31.702500   31.835400   53.954500
  H     31.620700   32.729000   52.582600
  H     31.781700   31.079800   52.384300
  S     39.932500   32.350000   56.496200
  C     40.194500   31.150800   57.760900
  C     39.058100   30.413200   57.993500
  C     37.916000   30.910500   57.232700
  C     38.181900   31.959200   56.380700
  H     39.127700   29.572500   58.674900
  C     36.546200   30.199000   57.290200
  H     36.692200   29.141500   57.636500
  H     36.139600   30.088100   56.225000
  C     35.581000   30.947200   58.243300
  H     35.681600   32.130300   58.109500
  H     35.942500   30.715800   59.222700
  C     34.191700   30.351500   58.268200
  H     33.765500   30.760600   59.135200
  H     34.340700   29.299800   58.430100
  H     33.582300   30.423200   57.416900
  H     36.769800   34.888600   52.525900
  H     41.102600   30.819300   58.156600

 Total Charge           Charge          ....    0
 Multiplicity           Mult            ....    1
 Number of Electrons    NEL             ....  134
 Basis Dimension        Dim             ....  322

ORBITAL ENERGIES
----------------

  NO   OCC          E(Eh)            E(eV)
   0   2.0000     -88.964182     -2420.8385
   1   2.0000     -88.963044     -2420.8075
   2   2.0000     -10.333024      -281.1759
   3   2.0000     -10.332512      -281.1619
   4   2.0000     -10.325306      -280.9659
   5   2.0000     -10.316016      -280.7131
   6   2.0000     -10.312192      -280.6090
   7   2.0000     -10.310031      -280.5502
   8   2.0000     -10.302784      -280.3530
   9   2.0000     -10.300544      -280.2921
  10   2.0000     -10.298624      -280.2398
  11   2.0000     -10.295867      -280.1648
  12   2.0000     -10.295833      -280.1639
  13   2.0000     -10.288578      -279.9664
  14   2.0000     -10.275487      -279.6102
  15   2.0000     -10.270802      -279.4827
  16   2.0000      -8.079465      -219.8534
  17   2.0000      -8.077109      -219.7893
  18   2.0000      -6.038178      -164.3072
  19   2.0000      -6.035845      -164.2437
  20   2.0000      -6.033798      -164.1880
  21   2.0000      -6.031790      -164.1334
  22   2.0000      -6.030066      -164.0864
  23   2.0000      -6.027592      -164.0191
  24   2.0000      -1.006744       -27.3949
  25   2.0000      -0.980017       -26.6676
  26   2.0000      -0.912134       -24.8204
  27   2.0000      -0.910488       -24.7757
  28   2.0000      -0.874133       -23.7864
  29   2.0000      -0.854360       -23.2483
  30   2.0000      -0.842293       -22.9200
  31   2.0000      -0.819485       -22.2993
  32   2.0000      -0.782105       -21.2822
  33   2.0000      -0.773542       -21.0492
  34   2.0000      -0.708446       -19.2778
  35   2.0000      -0.696919       -18.9641
  36   2.0000      -0.690620       -18.7927
  37   2.0000      -0.665852       -18.1187
  38   2.0000      -0.638569       -17.3763
  39   2.0000      -0.622112       -16.9285
  40   2.0000      -0.589779       -16.0487
  41   2.0000      -0.572855       -15.5882
  42   2.0000      -0.564567       -15.3626
  43   2.0000      -0.560178       -15.2432
  44   2.0000      -0.535588       -14.5741
  45   2.0000      -0.524491       -14.2721
  46   2.0000      -0.518292       -14.1034
  47   2.0000      -0.512443       -13.9443
  48   2.0000      -0.508566       -13.8388
  49   2.0000      -0.501455       -13.6453
  50   2.0000      -0.495398       -13.4805
  51   2.0000      -0.489526       -13.3207
  52   2.0000      -0.472739       -12.8639
  53   2.0000      -0.463224       -12.6050
  54   2.0000      -0.461326       -12.5533
  55   2.0000      -0.454643       -12.3715
  56   2.0000      -0.440491       -11.9864
  57   2.0000      -0.437439       -11.9033
  58   2.0000      -0.424595       -11.5538
  59   2.0000      -0.423307       -11.5188
  60   2.0000      -0.417996       -11.3742
  61   2.0000      -0.415686       -11.3114
  62   2.0000      -0.405982       -11.0473
  63   2.0000      -0.365691        -9.9510
  64   2.0000      -0.332727        -9.0540
  65   2.0000      -0.323408        -8.8004
  66   2.0000      -0.286799        -7.8042
  67   0.0000       0.018283         0.4975
  68   0.0000       0.085654         2.3308
  69   0.0000       0.095135         2.5887
  70   0.0000       0.112791         3.0692
  71   0.0000       0.122533         3.3343

MULLIKEN ATOMIC CHARGES
-----------------------
   0 S :    0.086295
   1 C :   -0.149232
   2 C :   -0.080433
   3 C :   -0.044815
   4 C :   -0.055913
   5 H :    0.027112
   6 C :    0.054389
   7 H :    0.031407
   8 H :    0.021112
   9 C :   -0.062836
  10 H :    0.031218
  11 H :    0.035924
  12 C :   -0.045714
  13 H :    0.023124
  14 H :    0.011869
  15 H :    0.032945
  16 S :    0.071579
  17 C :   -0.046282
  18 C :   -0.037694
  19 C :   -0.069824
  20 C :   -0.098521
  21 H :    0.022423
  22 C :   -0.017062
  23 H :    0.027904
  24 H :    0.050730
  25 C :   -0.131343
  26 H :    0.064463
  27 H :    0.018988
  28 C :    0.038782
  29 H :    0.025961
  30 H :    0.012788
  31 H :    0.023302
  32 H :    0.091642
  33 H :    0.035712
Sum of atomic charges:   -0.0000000

LOEWDIN ATOMIC CHARGES
----------------------
   0 S :    0.403732
   1 C :   -0.214398
   2 C :   -0.056632
   3 C :   -0.073745
   4 C :   -0.189302
   5 H :    0.036331
   6 C :   -0.037188
   7 H :    0.031605
   8 H :    0.031630
   9 C :   -0.041283
  10 H :    0.024852
  11 H :    0.030417
  12 C :   -0.075587
  13 H :    0.025164
  14 H :    0.022688
  15 H :    0.027583
  16 S :    0.369599
  17 C :   -0.166664
  18 C :   -0.070755
  19 C :   -0.054883
  20 C :   -0.173045
  21 H :    0.033793
  22 C :   -0.043689
  23 H :    0.031162
  24 H :    0.033307
  25 C :   -0.051741
  26 H :    0.037921
  27 H :    0.024140
  28 C :   -0.054486
  29 H :    0.024954
  30 H :    0.027086
  31 H :    0.015106
  32 H :    0.051291
  33 H :    0.021037

  Mayer bond orders larger than 0.100000
B(  0-S ,  1-C ) :   1.1250 B(  0-S ,  4-C ) :   1.1462 B(  1-C ,  2-C ) :   1.6089
B(  1-C , 32-H ) :   0.9604 B(  2-C ,  3-C ) :   1.2201 B(  2-C ,  6-C ) :   1.0360
B(  3-C ,  4-C ) :   1.5718 B(  3-C ,  5-H ) :   0.9845 B(  4-C , 20-C ) :   1.0895
B(  6-C ,  7-H ) :   0.9444 B(  6-C ,  8-H ) :   0.9396 B(  6-C ,  9-C ) :   1.0523
B(  9-C , 10-H ) :   0.9548 B(  9-C , 11-H ) :   0.9575 B(  9-C , 12-C ) :   1.0839
B( 12-C , 13-H ) :   0.9706 B( 12-C , 14-H ) :   0.9700 B( 12-C , 15-H ) :   0.9743
B( 16-S , 17-C ) :   1.1440 B( 16-S , 20-C ) :   1.0989 B( 17-C , 18-C ) :   1.6489
B( 17-C , 33-H ) :   0.9673 B( 18-C , 19-C ) :   1.2172 B( 18-C , 21-H ) :   0.9887
B( 19-C , 20-C ) :   1.6253 B( 19-C , 22-C ) :   1.0294 B( 22-C , 23-H ) :   0.9336
B( 22-C , 24-H ) :   0.9480 B( 22-C , 25-C ) :   1.0480 B( 25-C , 26-H ) :   0.9576
B( 25-C , 27-H ) :   0.9484 B( 25-C , 28-C ) :   1.0706 B( 28-C , 29-H ) :   0.9724
B( 28-C , 30-H ) :   0.9621 B( 28-C , 31-H ) :   0.9777

Dispersion correction           -0.014098955
FINAL SINGLE POINT ENERGY     -1339.867154782768

DIPOLE MOMENT
-------------
                                X             Y             Z
Electronic contribution:     31.94546      10.52521      -1.23344
Nuclear contribution   :    -32.59023     -10.95539       1.41574
                        -----------------------------------------
Total Dipole Moment    :     -0.64478      -0.43019       0.18230
                        -----------------------------------------
Magnitude (a.u.)       :      0.79626
Magnitude (Debye)      :      2.02393

Rotational constants in cm-1:     0.017779     0.009577     0.006511
Rotational constants in MHz :   533.000154   287.106432   195.195517

                             ****ORCA TERMINATED NORMALLY****
TOTAL RUN TIME: 0 days 0 hours 0 minutes 32 seconds 988 msec
