                         Program Version 4.2.1 -  RELEASE  -
|  1> ! wB97X-D3 SP def2-SVP
|  2> %pal
|  3> nprocs 16
|  4> end
|  5>
|  6> * xyz 0 1
|  7> S 	 49.771 	 6.4324 	 83.2921
|  8> C 	 48.1984 	 7.17853 	 83.489
|  9> C 	 47.2551 	 6.44387 	 82.7733
| 10> C 	 47.776 	 5.25188 	 82.2168
| 11> C 	 49.136 	 5.14892 	 82.2899
| 12> H 	 47.1929 	 4.54572 	 81.6132
| 13> C 	 45.7875 	 6.87397 	 82.6833
| 14> H 	 45.3825 	 6.80863 	 81.7206
| 15> H 	 45.703 	 7.93508 	 83.0556
| 16> C 	 44.8293 	 6.20365 	 83.7615
| 17> H 	 43.8235 	 6.66278 	 83.784
| 18> H 	 44.6612 	 5.16049 	 83.4618
| 19> C 	 45.4666 	 6.07083 	 85.1367
| 20> H 	 46.3518 	 5.32567 	 85.1179
| 21> H 	 45.8749 	 7.02027 	 85.3581
| 22> H 	 44.8981 	 5.62768 	 85.901
| 23> S 	 50.943 	 4.76729 	 80.189
| 24> C 	 51.6025 	 3.17261 	 79.962
| 25> C 	 51.1117 	 2.28194 	 80.9103
| 26> C 	 50.1991 	 2.83697 	 81.876
| 27> C 	 50.0242 	 4.19273 	 81.6301
| 28> H 	 51.5629 	 1.29035 	 80.9927
| 29> C 	 49.7118 	 2.08853 	 83.0984
| 30> H 	 49.4295 	 2.72197 	 83.8786
| 31> H 	 50.5046 	 1.48091 	 83.5315
| 32> C 	 48.4858 	 1.19507 	 82.8501
| 33> H 	 48.7047 	 0.409362 	 82.0536
| 34> H 	 47.7206 	 1.76564 	 82.3586
| 35> C 	 48.0255 	 0.583404 	 84.1949
| 36> H 	 47.3217 	 -0.243722 	 84.1119
| 37> H 	 47.6495 	 1.40851 	 84.7797
| 38> H 	 48.8742 	 0.211284 	 84.6749
| 39> H 	 48.0171 	 8.0946 	 84.0856
| 40> H 	 52.4352 	 2.94216 	 79.3156
| 41> *
| 42>
| 43>                          ****END OF INPUT****

CARTESIAN COORDINATES (ANGSTROEM)
---------------------------------
  S     49.771000    6.432400   83.292100
  C     48.198400    7.178530   83.489000
  C     47.255100    6.443870   82.773300
  C     47.776000    5.251880   82.216800
  C     49.136000    5.148920   82.289900
  H     47.192900    4.545720   81.613200
  C     45.787500    6.873970   82.683300
  H     45.382500    6.808630   81.720600
  H     45.703000    7.935080   83.055600
  C     44.829300    6.203650   83.761500
  H     43.823500    6.662780   83.784000
  H     44.661200    5.160490   83.461800
  C     45.466600    6.070830   85.136700
  H     46.351800    5.325670   85.117900
  H     45.874900    7.020270   85.358100
  H     44.898100    5.627680   85.901000
  S     50.943000    4.767290   80.189000
  C     51.602500    3.172610   79.962000
  C     51.111700    2.281940   80.910300
  C     50.199100    2.836970   81.876000
  C     50.024200    4.192730   81.630100
  H     51.562900    1.290350   80.992700
  C     49.711800    2.088530   83.098400
  H     49.429500    2.721970   83.878600
  H     50.504600    1.480910   83.531500
  C     48.485800    1.195070   82.850100
  H     48.704700    0.409362   82.053600
  H     47.720600    1.765640   82.358600
  C     48.025500    0.583404   84.194900
  H     47.321700   -0.243722   84.111900
  H     47.649500    1.408510   84.779700
  H     48.874200    0.211284   84.674900
  H     48.017100    8.094600   84.085600
  H     52.435200    2.942160   79.315600

 Total Charge           Charge          ....    0
 Multiplicity           Mult            ....    1
 Number of Electrons    NEL             ....  134
 Basis Dimension        Dim             ....  322

ORBITAL ENERGIES
----------------

  NO   OCC          E(Eh)            E(eV)
   0   2.0000     -88.966491     -2420.9013
   1   2.0000     -88.965095     -2420.8633
   2   2.0000     -10.329948      -281.0922
   3   2.0000     -10.327465      -281.0246
   4   2.0000     -10.319228      -280.8005
   5   2.0000     -10.318677      -280.7855
   6   2.0000     -10.307625      -280.4847
   7   2.0000     -10.303321      -280.3676
   8   2.0000     -10.296433      -280.1802
   9   2.0000     -10.296134      -280.1720
  10   2.0000     -10.294754      -280.1345
  11   2.0000     -10.289140      -279.9817
  12   2.0000     -10.288318      -279.9594
  13   2.0000     -10.287792      -279.9450
  14   2.0000     -10.274289      -279.5776
  15   2.0000     -10.272831      -279.5379
  16   2.0000      -8.080620      -219.8848
  17   2.0000      -8.079882      -219.8648
  18   2.0000      -6.039136      -164.3332
  19   2.0000      -6.038302      -164.3105
  20   2.0000      -6.035230      -164.2270
  21   2.0000      -6.034250      -164.2003
  22   2.0000      -6.031382      -164.1222
  23   2.0000      -6.030857      -164.1080
  24   2.0000      -1.005092       -27.3500
  25   2.0000      -0.981771       -26.7153
  26   2.0000      -0.911715       -24.8090
  27   2.0000      -0.906350       -24.6630
  28   2.0000      -0.865354       -23.5475
  29   2.0000      -0.850385       -23.1401
  30   2.0000      -0.845242       -23.0002
  31   2.0000      -0.811797       -22.0901
  32   2.0000      -0.784735       -21.3537
  33   2.0000      -0.772977       -21.0338
  34   2.0000      -0.706295       -19.2193
  35   2.0000      -0.699376       -19.0310
  36   2.0000      -0.689814       -18.7708
  37   2.0000      -0.657648       -17.8955
  38   2.0000      -0.642571       -17.4852
  39   2.0000      -0.620383       -16.8815
  40   2.0000      -0.601407       -16.3651
  41   2.0000      -0.567877       -15.4527
  42   2.0000      -0.565237       -15.3809
  43   2.0000      -0.556531       -15.1440
  44   2.0000      -0.536267       -14.5926
  45   2.0000      -0.525105       -14.2888
  46   2.0000      -0.518201       -14.1010
  47   2.0000      -0.513343       -13.9688
  48   2.0000      -0.508378       -13.8337
  49   2.0000      -0.496516       -13.5109
  50   2.0000      -0.486841       -13.2476
  51   2.0000      -0.477693       -12.9987
  52   2.0000      -0.469966       -12.7884
  53   2.0000      -0.465009       -12.6535
  54   2.0000      -0.455525       -12.3955
  55   2.0000      -0.449211       -12.2237
  56   2.0000      -0.446304       -12.1446
  57   2.0000      -0.441900       -12.0247
  58   2.0000      -0.433589       -11.7986
  59   2.0000      -0.425241       -11.5714
  60   2.0000      -0.417208       -11.3528
  61   2.0000      -0.416432       -11.3317
  62   2.0000      -0.405391       -11.0313
  63   2.0000      -0.339196        -9.2300
  64   2.0000      -0.330852        -9.0029
  65   2.0000      -0.325689        -8.8624
  66   2.0000      -0.305528        -8.3138
  67   0.0000       0.035835         0.9751
  68   0.0000       0.058906         1.6029
  69   0.0000       0.114670         3.1203
  70   0.0000       0.118697         3.2299
  71   0.0000       0.127702         3.4749

MULLIKEN ATOMIC CHARGES
-----------------------
   0 S :    0.111685
   1 C :   -0.138022
   2 C :   -0.100177
   3 C :    0.056366
   4 C :   -0.181030
   5 H :    0.020680
   6 C :    0.067079
   7 H :    0.029131
   8 H :    0.028519
   9 C :   -0.102561
  10 H :    0.042002
  11 H :    0.019897
  12 C :   -0.030280
  13 H :    0.040925
  14 H :    0.007847
  15 H :    0.028752
  16 S :    0.112295
  17 C :   -0.089840
  18 C :   -0.044404
  19 C :    0.014687
  20 C :   -0.185384
  21 H :    0.023419
  22 C :    0.084286
  23 H :    0.005994
  24 H :    0.024988
  25 C :   -0.110370
  26 H :    0.029061
  27 H :    0.020034
  28 C :    0.001549
  29 H :    0.038822
  30 H :    0.031901
  31 H :    0.011341
  32 H :    0.069395
  33 H :    0.061415
Sum of atomic charges:    0.0000000

LOEWDIN ATOMIC CHARGES
----------------------
   0 S :    0.409535
   1 C :   -0.198411
   2 C :   -0.065975
   3 C :   -0.062289
   4 C :   -0.200551
   5 H :    0.035869
   6 C :   -0.025017
   7 H :    0.022672
   8 H :    0.035627
   9 C :   -0.044109
  10 H :    0.025901
  11 H :    0.017555
  12 C :   -0.065322
  13 H :    0.037789
  14 H :    0.012145
  15 H :    0.019524
  16 S :    0.391219
  17 C :   -0.187095
  18 C :   -0.072833
  19 C :   -0.045836
  20 C :   -0.187910
  21 H :    0.031877
  22 C :   -0.024648
  23 H :    0.022769
  24 H :    0.032507
  25 C :   -0.038957
  26 H :    0.024901
  27 H :    0.016431
  28 C :   -0.056774
  29 H :    0.028130
  30 H :    0.027437
  31 H :    0.016608
  32 H :    0.036467
  33 H :    0.030766

  Mayer bond orders larger than 0.100000
B(  0-S ,  1-C ) :   1.1501 B(  0-S ,  4-C ) :   1.1609 B(  1-C ,  2-C ) :   1.5834
B(  1-C ,  4-C ) :   0.1024 B(  1-C , 32-H ) :   0.9644 B(  2-C ,  3-C ) :   1.2520
B(  2-C ,  6-C ) :   1.0326 B(  3-C ,  4-C ) :   1.5802 B(  3-C ,  5-H ) :   0.9926
B(  4-C , 20-C ) :   1.0088 B(  6-C ,  7-H ) :   0.9492 B(  6-C ,  8-H ) :   0.9455
B(  6-C ,  9-C ) :   1.0486 B(  9-C , 10-H ) :   0.9628 B(  9-C , 11-H ) :   0.9570
B(  9-C , 12-C ) :   1.0805 B( 12-C , 13-H ) :   0.9635 B( 12-C , 14-H ) :   0.9768
B( 12-C , 15-H ) :   0.9730 B( 16-S , 17-C ) :   1.1502 B( 16-S , 20-C ) :   1.1360
B( 17-C , 18-C ) :   1.6261 B( 17-C , 33-H ) :   0.9657 B( 18-C , 19-C ) :   1.2248
B( 18-C , 21-H ) :   0.9815 B( 19-C , 20-C ) :   1.6150 B( 19-C , 22-C ) :   1.0439
B( 22-C , 23-H ) :   0.9320 B( 22-C , 24-H ) :   0.9368 B( 22-C , 25-C ) :   1.0509
B( 25-C , 26-H ) :   0.9576 B( 25-C , 27-H ) :   0.9575 B( 25-C , 28-C ) :   1.0713
B( 28-C , 29-H ) :   0.9744 B( 28-C , 30-H ) :   0.9739 B( 28-C , 31-H ) :   0.9718

Dispersion correction           -0.014799958
FINAL SINGLE POINT ENERGY     -1339.880651747045

DIPOLE MOMENT
-------------
                                X             Y             Z
Electronic contribution:     21.35553      11.94773     -14.45724
Nuclear contribution   :    -21.69070     -12.29591      14.68324
                        -----------------------------------------
Total Dipole Moment    :     -0.33517      -0.34818       0.22600
                        -----------------------------------------
Magnitude (a.u.)       :      0.53352
Magnitude (Debye)      :      1.35611

Rotational constants in cm-1:     0.017788     0.009393     0.007016
Rotational constants in MHz :   533.266551   281.607755   210.319703

                             ****ORCA TERMINATED NORMALLY****
TOTAL RUN TIME: 0 days 0 hours 0 minutes 30 seconds 139 msec
