                         Program Version 4.2.1 -  RELEASE  -
|  1> ! wB97X-D3 SP def2-SVP
|  2> %pal
|  3> nprocs 16
|  4> end
|  5>
|  6> * xyz 0 1
|  7> S 	 -0.0182565 	 -11.0059 	 92.2772
|  8> C 	 0.464923 	 -10.8369 	 93.9295
|  9> C 	 -0.289094 	 -11.6096 	 94.8095
| 10> C 	 -1.44653 	 -12.116 	 94.0744
| 11> C 	 -1.43163 	 -11.9009 	 92.7335
| 12> H 	 -2.20655 	 -12.7247 	 94.5505
| 13> C 	 -0.0983937 	 -11.7893 	 96.3156
| 14> H 	 0.934608 	 -12.0287 	 96.5661
| 15> H 	 -0.723397 	 -12.5684 	 96.7048
| 16> C 	 -0.628807 	 -10.6593 	 97.1893
| 17> H 	 0.07325 	 -9.83325 	 96.9768
| 18> H 	 -1.56326 	 -10.2957 	 96.8072
| 19> C 	 -0.555788 	 -11.1045 	 98.6945
| 20> H 	 -0.744771 	 -10.2074 	 99.3301
| 21> H 	 -1.36081 	 -11.7635 	 99.0226
| 22> H 	 0.41862 	 -11.5637 	 99.0013
| 23> S 	 -4.09083 	 -11.6926 	 91.6949
| 24> C 	 -4.5866 	 -12.927 	 90.6161
| 25> C 	 -3.53415 	 -13.7523 	 90.2621
| 26> C 	 -2.2485 	 -13.4296 	 90.8783
| 27> C 	 -2.41438 	 -12.3658 	 91.8169
| 28> H 	 -3.75255 	 -14.3637 	 89.4165
| 29> C 	 -0.905168 	 -13.9938 	 90.4516
| 30> H 	 -0.517938 	 -14.7354 	 91.2333
| 31> H 	 -0.197209 	 -13.2428 	 90.4603
| 32> C 	 -0.885021 	 -14.645 	 89.0451
| 33> H 	 -1.51482 	 -14.109 	 88.4182
| 34> H 	 -1.32391 	 -15.6151 	 89.182
| 35> C 	 0.519026 	 -14.7673 	 88.4149
| 36> H 	 1.21301 	 -13.8877 	 88.2945
| 37> H 	 0.263399 	 -15.1596 	 87.3923
| 38> H 	 1.08723 	 -15.4987 	 88.8887
| 39> H 	 1.25671 	 -10.2343 	 94.4071
| 40> H 	 -5.52905 	 -13.0219 	 90.1485
| 41> *
| 42>
| 43>                          ****END OF INPUT****

CARTESIAN COORDINATES (ANGSTROEM)
---------------------------------
  S     -0.018256  -11.005900   92.277200
  C      0.464923  -10.836900   93.929500
  C     -0.289094  -11.609600   94.809500
  C     -1.446530  -12.116000   94.074400
  C     -1.431630  -11.900900   92.733500
  H     -2.206550  -12.724700   94.550500
  C     -0.098394  -11.789300   96.315600
  H      0.934608  -12.028700   96.566100
  H     -0.723397  -12.568400   96.704800
  C     -0.628807  -10.659300   97.189300
  H      0.073250   -9.833250   96.976800
  H     -1.563260  -10.295700   96.807200
  C     -0.555788  -11.104500   98.694500
  H     -0.744771  -10.207400   99.330100
  H     -1.360810  -11.763500   99.022600
  H      0.418620  -11.563700   99.001300
  S     -4.090830  -11.692600   91.694900
  C     -4.586600  -12.927000   90.616100
  C     -3.534150  -13.752300   90.262100
  C     -2.248500  -13.429600   90.878300
  C     -2.414380  -12.365800   91.816900
  H     -3.752550  -14.363700   89.416500
  C     -0.905168  -13.993800   90.451600
  H     -0.517938  -14.735400   91.233300
  H     -0.197209  -13.242800   90.460300
  C     -0.885021  -14.645000   89.045100
  H     -1.514820  -14.109000   88.418200
  H     -1.323910  -15.615100   89.182000
  C      0.519026  -14.767300   88.414900
  H      1.213010  -13.887700   88.294500
  H      0.263399  -15.159600   87.392300
  H      1.087230  -15.498700   88.888700
  H      1.256710  -10.234300   94.407100
  H     -5.529050  -13.021900   90.148500

 Total Charge           Charge          ....    0
 Multiplicity           Mult            ....    1
 Number of Electrons    NEL             ....  134
 Basis Dimension        Dim             ....  322

ORBITAL ENERGIES
----------------

  NO   OCC          E(Eh)            E(eV)
   0   2.0000     -88.968661     -2420.9603
   1   2.0000     -88.966349     -2420.8974
   2   2.0000     -10.326835      -281.0075
   3   2.0000     -10.320120      -280.8247
   4   2.0000     -10.314595      -280.6744
   5   2.0000     -10.311866      -280.6001
   6   2.0000     -10.310614      -280.5661
   7   2.0000     -10.302528      -280.3460
   8   2.0000     -10.291321      -280.0411
   9   2.0000     -10.291129      -280.0358
  10   2.0000     -10.289779      -279.9991
  11   2.0000     -10.289676      -279.9963
  12   2.0000     -10.289440      -279.9899
  13   2.0000     -10.288349      -279.9602
  14   2.0000     -10.281687      -279.7789
  15   2.0000     -10.280547      -279.7479
  16   2.0000      -8.083399      -219.9605
  17   2.0000      -8.080444      -219.8801
  18   2.0000      -6.041980      -164.4106
  19   2.0000      -6.039002      -164.3296
  20   2.0000      -6.037913      -164.3000
  21   2.0000      -6.034988      -164.2204
  22   2.0000      -6.034072      -164.1954
  23   2.0000      -6.031250      -164.1187
  24   2.0000      -1.004688       -27.3389
  25   2.0000      -0.978680       -26.6312
  26   2.0000      -0.913663       -24.8620
  27   2.0000      -0.907108       -24.6837
  28   2.0000      -0.871689       -23.7199
  29   2.0000      -0.845627       -23.0107
  30   2.0000      -0.843374       -22.9494
  31   2.0000      -0.810700       -22.0603
  32   2.0000      -0.782680       -21.2978
  33   2.0000      -0.771077       -20.9821
  34   2.0000      -0.709199       -19.2983
  35   2.0000      -0.704042       -19.1579
  36   2.0000      -0.701448       -19.0874
  37   2.0000      -0.646310       -17.5870
  38   2.0000      -0.635754       -17.2997
  39   2.0000      -0.619048       -16.8452
  40   2.0000      -0.596474       -16.2309
  41   2.0000      -0.573468       -15.6049
  42   2.0000      -0.568391       -15.4667
  43   2.0000      -0.561548       -15.2805
  44   2.0000      -0.526724       -14.3329
  45   2.0000      -0.523908       -14.2563
  46   2.0000      -0.511987       -13.9319
  47   2.0000      -0.510473       -13.8907
  48   2.0000      -0.499261       -13.5856
  49   2.0000      -0.490774       -13.3546
  50   2.0000      -0.489405       -13.3174
  51   2.0000      -0.485264       -13.2047
  52   2.0000      -0.469740       -12.7823
  53   2.0000      -0.462948       -12.5974
  54   2.0000      -0.455769       -12.4021
  55   2.0000      -0.453260       -12.3338
  56   2.0000      -0.446403       -12.1473
  57   2.0000      -0.443250       -12.0614
  58   2.0000      -0.431973       -11.7546
  59   2.0000      -0.428172       -11.6512
  60   2.0000      -0.426819       -11.6143
  61   2.0000      -0.412626       -11.2281
  62   2.0000      -0.408376       -11.1125
  63   2.0000      -0.334491        -9.1020
  64   2.0000      -0.327509        -8.9120
  65   2.0000      -0.325488        -8.8570
  66   2.0000      -0.296473        -8.0674
  67   0.0000       0.040493         1.1019
  68   0.0000       0.055565         1.5120
  69   0.0000       0.108950         2.9647
  70   0.0000       0.113630         3.0920
  71   0.0000       0.132866         3.6155

MULLIKEN ATOMIC CHARGES
-----------------------
   0 S :    0.133410
   1 C :   -0.119432
   2 C :   -0.103054
   3 C :    0.030534
   4 C :   -0.171253
   5 H :    0.012380
   6 C :    0.057866
   7 H :    0.032966
   8 H :    0.010489
   9 C :   -0.059206
  10 H :    0.019475
  11 H :    0.031050
  12 C :   -0.078399
  13 H :    0.039522
  14 H :    0.040748
  15 H :    0.045314
  16 S :    0.122389
  17 C :   -0.083740
  18 C :   -0.043931
  19 C :   -0.037989
  20 C :   -0.166241
  21 H :    0.012276
  22 C :    0.108322
  23 H :    0.045748
  24 H :   -0.010782
  25 C :   -0.069487
  26 H :    0.020396
  27 H :    0.030765
  28 C :   -0.051931
  29 H :    0.050527
  30 H :    0.035758
  31 H :    0.020417
  32 H :    0.049668
  33 H :    0.045425
Sum of atomic charges:   -0.0000000

LOEWDIN ATOMIC CHARGES
----------------------
   0 S :    0.426680
   1 C :   -0.210372
   2 C :   -0.061617
   3 C :   -0.050764
   4 C :   -0.211742
   5 H :    0.030825
   6 C :   -0.036038
   7 H :    0.030156
   8 H :    0.027359
   9 C :   -0.035965
  10 H :    0.021169
  11 H :    0.023816
  12 C :   -0.074497
  13 H :    0.032417
  14 H :    0.026220
  15 H :    0.032551
  16 S :    0.403049
  17 C :   -0.192517
  18 C :   -0.081063
  19 C :   -0.039180
  20 C :   -0.194685
  21 H :    0.025853
  22 C :   -0.033150
  23 H :    0.044596
  24 H :    0.008274
  25 C :   -0.030586
  26 H :    0.013644
  27 H :    0.026181
  28 C :   -0.065615
  29 H :    0.033667
  30 H :    0.035555
  31 H :    0.014654
  32 H :    0.035694
  33 H :    0.025429

  Mayer bond orders larger than 0.100000
B(  0-S ,  1-C ) :   1.1483 B(  0-S ,  4-C ) :   1.1266 B(  1-C ,  2-C ) :   1.6209
B(  1-C , 32-H ) :   0.9611 B(  2-C ,  3-C ) :   1.2308 B(  2-C ,  6-C ) :   1.0325
B(  3-C ,  4-C ) :   1.6073 B(  3-C ,  5-H ) :   0.9925 B(  4-C , 20-C ) :   1.0588
B(  6-C ,  7-H ) :   0.9404 B(  6-C ,  8-H ) :   0.9437 B(  6-C ,  9-C ) :   1.0531
B(  9-C , 10-H ) :   0.9572 B(  9-C , 11-H ) :   0.9580 B(  9-C , 12-C ) :   1.0658
B( 12-C , 13-H ) :   0.9741 B( 12-C , 14-H ) :   0.9753 B( 12-C , 15-H ) :   0.9741
B( 16-S , 17-C ) :   1.1639 B( 16-S , 20-C ) :   1.1307 B( 17-C , 18-C ) :   1.6167
B( 17-C , 33-H ) :   0.9660 B( 18-C , 19-C ) :   1.2408 B( 18-C , 21-H ) :   0.9853
B( 19-C , 20-C ) :   1.5704 B( 19-C , 22-C ) :   1.0396 B( 22-C , 23-H ) :   0.9163
B( 22-C , 24-H ) :   0.9331 B( 22-C , 25-C ) :   1.0730 B( 25-C , 26-H ) :   0.9616
B( 25-C , 27-H ) :   0.9467 B( 25-C , 28-C ) :   1.0836 B( 28-C , 29-H ) :   0.9757
B( 28-C , 30-H ) :   0.9732 B( 28-C , 31-H ) :   0.9756

Dispersion correction           -0.013570206
FINAL SINGLE POINT ENERGY     -1339.858737864622

DIPOLE MOMENT
-------------
                                X             Y             Z
Electronic contribution:    -11.03293       9.09055      -8.91946
Nuclear contribution   :     11.18501      -9.39623       9.10078
                        -----------------------------------------
Total Dipole Moment    :      0.15208      -0.30568       0.18132
                        -----------------------------------------
Magnitude (a.u.)       :      0.38658
Magnitude (Debye)      :      0.98262

Rotational constants in cm-1:     0.021305     0.007024     0.005901
Rotational constants in MHz :   638.721751   210.584888   176.902921

                             ****ORCA TERMINATED NORMALLY****
TOTAL RUN TIME: 0 days 0 hours 0 minutes 30 seconds 743 msec
