                         Program Version 4.2.1 -  RELEASE  -
|  1> ! wB97X-D3 SP def2-SVP
|  2> %pal
|  3> nprocs 16
|  4> end
|  5>
|  6> * xyz 0 1
|  7> S 	 -105.438 	 46.9446 	 121.688
|  8> C 	 -105.482 	 47.9518 	 123.13
|  9> C 	 -104.574 	 47.522 	 124.082
| 10> C 	 -103.749 	 46.4636 	 123.619
| 11> C 	 -104.049 	 46.1445 	 122.341
| 12> H 	 -102.956 	 45.9643 	 124.141
| 13> C 	 -104.575 	 47.9581 	 125.573
| 14> H 	 -105.052 	 47.1337 	 126.128
| 15> H 	 -105.258 	 48.7542 	 125.612
| 16> C 	 -103.113 	 48.3542 	 126.081
| 17> H 	 -103.294 	 48.5995 	 127.156
| 18> H 	 -102.482 	 47.4502 	 125.974
| 19> C 	 -102.536 	 49.59 	 125.393
| 20> H 	 -103.19 	 50.4823 	 125.472
| 21> H 	 -101.55 	 49.8453 	 125.73
| 22> H 	 -102.314 	 49.2787 	 124.335
| 23> S 	 -104.605 	 43.7129 	 121.348
| 24> C 	 -103.372 	 42.8662 	 120.416
| 25> C 	 -102.141 	 43.3874 	 120.624
| 26> C 	 -102.178 	 44.6551 	 121.281
| 27> C 	 -103.468 	 45.0242 	 121.631
| 28> H 	 -101.281 	 42.9662 	 120.265
| 29> C 	 -100.949 	 45.5014 	 121.464
| 30> H 	 -101.262 	 46.3594 	 122.015
| 31> H 	 -100.694 	 45.7193 	 120.445
| 32> C 	 -99.6951 	 44.9017 	 122.039
| 33> H 	 -99.3174 	 44.1223 	 121.456
| 34> H 	 -99.7736 	 44.4854 	 122.994
| 35> C 	 -98.6284 	 45.9859 	 122.12
| 36> H 	 -97.6822 	 45.6952 	 122.539
| 37> H 	 -98.8459 	 46.8738 	 122.587
| 38> H 	 -98.4624 	 46.2344 	 121.066
| 39> H 	 -106.226 	 48.6794 	 123.32
| 40> H 	 -103.468 	 41.908 	 119.988
| 41> *
| 42>
| 43>                          ****END OF INPUT****

CARTESIAN COORDINATES (ANGSTROEM)
---------------------------------
  S    -105.438000   46.944600  121.688000
  C    -105.482000   47.951800  123.130000
  C    -104.574000   47.522000  124.082000
  C    -103.749000   46.463600  123.619000
  C    -104.049000   46.144500  122.341000
  H    -102.956000   45.964300  124.141000
  C    -104.575000   47.958100  125.573000
  H    -105.052000   47.133700  126.128000
  H    -105.258000   48.754200  125.612000
  C    -103.113000   48.354200  126.081000
  H    -103.294000   48.599500  127.156000
  H    -102.482000   47.450200  125.974000
  C    -102.536000   49.590000  125.393000
  H    -103.190000   50.482300  125.472000
  H    -101.550000   49.845300  125.730000
  H    -102.314000   49.278700  124.335000
  S    -104.605000   43.712900  121.348000
  C    -103.372000   42.866200  120.416000
  C    -102.141000   43.387400  120.624000
  C    -102.178000   44.655100  121.281000
  C    -103.468000   45.024200  121.631000
  H    -101.281000   42.966200  120.265000
  C    -100.949000   45.501400  121.464000
  H    -101.262000   46.359400  122.015000
  H    -100.694000   45.719300  120.445000
  C    -99.695100   44.901700  122.039000
  H    -99.317400   44.122300  121.456000
  H    -99.773600   44.485400  122.994000
  C    -98.628400   45.985900  122.120000
  H    -97.682200   45.695200  122.539000
  H    -98.845900   46.873800  122.587000
  H    -98.462400   46.234400  121.066000
  H    -106.226000   48.679400  123.320000
  H    -103.468000   41.908000  119.988000

 Total Charge           Charge          ....    0
 Multiplicity           Mult            ....    1
 Number of Electrons    NEL             ....  134
 Basis Dimension        Dim             ....  322

ORBITAL ENERGIES
----------------

  NO   OCC          E(Eh)            E(eV)
   0   2.0000     -88.966136     -2420.8916
   1   2.0000     -88.959907     -2420.7221
   2   2.0000     -10.321457      -280.8611
   3   2.0000     -10.319201      -280.7997
   4   2.0000     -10.309594      -280.5383
   5   2.0000     -10.308770      -280.5159
   6   2.0000     -10.299231      -280.2563
   7   2.0000     -10.297883      -280.2196
   8   2.0000     -10.297836      -280.2184
   9   2.0000     -10.294414      -280.1252
  10   2.0000     -10.288027      -279.9514
  11   2.0000     -10.283807      -279.8366
  12   2.0000     -10.282243      -279.7940
  13   2.0000     -10.281979      -279.7869
  14   2.0000     -10.276956      -279.6502
  15   2.0000     -10.268603      -279.4229
  16   2.0000      -8.081162      -219.8996
  17   2.0000      -8.074675      -219.7231
  18   2.0000      -6.039591      -164.3456
  19   2.0000      -6.035761      -164.2414
  20   2.0000      -6.033247      -164.1730
  21   2.0000      -6.031841      -164.1347
  22   2.0000      -6.029371      -164.0675
  23   2.0000      -6.025171      -163.9532
  24   2.0000      -1.010467       -27.4962
  25   2.0000      -0.984484       -26.7892
  26   2.0000      -0.920050       -25.0358
  27   2.0000      -0.904490       -24.6124
  28   2.0000      -0.870495       -23.6874
  29   2.0000      -0.855079       -23.2679
  30   2.0000      -0.846825       -23.0433
  31   2.0000      -0.818031       -22.2598
  32   2.0000      -0.782995       -21.3064
  33   2.0000      -0.771352       -20.9896
  34   2.0000      -0.715700       -19.4752
  35   2.0000      -0.704294       -19.1648
  36   2.0000      -0.692004       -18.8304
  37   2.0000      -0.664290       -18.0762
  38   2.0000      -0.643848       -17.5200
  39   2.0000      -0.623519       -16.9668
  40   2.0000      -0.598630       -16.2896
  41   2.0000      -0.582366       -15.8470
  42   2.0000      -0.562998       -15.3200
  43   2.0000      -0.550903       -14.9908
  44   2.0000      -0.538855       -14.6630
  45   2.0000      -0.527745       -14.3607
  46   2.0000      -0.519780       -14.1439
  47   2.0000      -0.514573       -14.0022
  48   2.0000      -0.502362       -13.6700
  49   2.0000      -0.497852       -13.5472
  50   2.0000      -0.485915       -13.2224
  51   2.0000      -0.481576       -13.1044
  52   2.0000      -0.471887       -12.8407
  53   2.0000      -0.467835       -12.7304
  54   2.0000      -0.457829       -12.4582
  55   2.0000      -0.451600       -12.2886
  56   2.0000      -0.446984       -12.1630
  57   2.0000      -0.443857       -12.0780
  58   2.0000      -0.438495       -11.9321
  59   2.0000      -0.432295       -11.7634
  60   2.0000      -0.428886       -11.6706
  61   2.0000      -0.414969       -11.2919
  62   2.0000      -0.405123       -11.0240
  63   2.0000      -0.343781        -9.3547
  64   2.0000      -0.329654        -8.9703
  65   2.0000      -0.325085        -8.8460
  66   2.0000      -0.294889        -8.0243
  67   0.0000       0.036652         0.9973
  68   0.0000       0.069211         1.8833
  69   0.0000       0.108844         2.9618
  70   0.0000       0.119981         3.2649
  71   0.0000       0.127540         3.4705

MULLIKEN ATOMIC CHARGES
-----------------------
   0 S :    0.118756
   1 C :   -0.103938
   2 C :   -0.106495
   3 C :    0.040642
   4 C :   -0.170451
   5 H :    0.011553
   6 C :    0.091120
   7 H :    0.051293
   8 H :   -0.005141
   9 C :   -0.106870
  10 H :    0.040386
  11 H :    0.042365
  12 C :   -0.048943
  13 H :    0.045663
  14 H :    0.027782
  15 H :    0.041322
  16 S :    0.093665
  17 C :   -0.050256
  18 C :   -0.010674
  19 C :   -0.016978
  20 C :   -0.176109
  21 H :   -0.022198
  22 C :    0.081605
  23 H :    0.013218
  24 H :    0.025643
  25 C :   -0.019591
  26 H :    0.010074
  27 H :    0.009267
  28 C :   -0.016181
  29 H :    0.022742
  30 H :    0.009034
  31 H :    0.011827
  32 H :    0.028995
  33 H :    0.036873
Sum of atomic charges:   -0.0000000

LOEWDIN ATOMIC CHARGES
----------------------
   0 S :    0.411358
   1 C :   -0.193507
   2 C :   -0.059698
   3 C :   -0.061337
   4 C :   -0.200250
   5 H :    0.031508
   6 C :   -0.024179
   7 H :    0.038431
   8 H :    0.016592
   9 C :   -0.042889
  10 H :    0.027445
  11 H :    0.025183
  12 C :   -0.070315
  13 H :    0.031195
  14 H :    0.022774
  15 H :    0.033443
  16 S :    0.388151
  17 C :   -0.168315
  18 C :   -0.058920
  19 C :   -0.053524
  20 C :   -0.196119
  21 H :    0.014824
  22 C :   -0.024287
  23 H :    0.026604
  24 H :    0.036092
  25 C :   -0.029004
  26 H :    0.017458
  27 H :    0.014378
  28 C :   -0.053202
  29 H :    0.023457
  30 H :    0.012135
  31 H :    0.026464
  32 H :    0.017850
  33 H :    0.020210

  Mayer bond orders larger than 0.100000
B(  0-S ,  1-C ) :   1.1233 B(  0-S ,  4-C ) :   1.1588 B(  1-C ,  2-C ) :   1.6347
B(  1-C , 32-H ) :   0.9706 B(  2-C ,  3-C ) :   1.2105 B(  2-C ,  6-C ) :   1.0095
B(  3-C ,  4-C ) :   1.5937 B(  3-C ,  5-H ) :   0.9995 B(  4-C , 20-C ) :   1.0132
B(  6-C ,  7-H ) :   0.9457 B(  6-C ,  8-H ) :   0.9372 B(  6-C ,  9-C ) :   1.0533
B(  9-C , 10-H ) :   0.9582 B(  9-C , 11-H ) :   0.9587 B(  9-C , 12-C ) :   1.0755
B( 12-C , 13-H ) :   0.9752 B( 12-C , 14-H ) :   0.9722 B( 12-C , 15-H ) :   0.9702
B( 16-S , 17-C ) :   1.1316 B( 16-S , 20-C ) :   1.1410 B( 17-C , 18-C ) :   1.6404
B( 17-C , 33-H ) :   0.9678 B( 18-C , 19-C ) :   1.2140 B( 18-C , 21-H ) :   1.0030
B( 19-C , 20-C ) :   1.6246 B( 19-C , 22-C ) :   1.0423 B( 22-C , 23-H ) :   0.9365
B( 22-C , 24-H ) :   0.9241 B( 22-C , 25-C ) :   1.0761 B( 25-C , 26-H ) :   0.9446
B( 25-C , 27-H ) :   0.9534 B( 25-C , 28-C ) :   1.0874 B( 28-C , 29-H ) :   0.9724
B( 28-C , 30-H ) :   0.9766 B( 28-C , 31-H ) :   0.9727

Dispersion correction           -0.014118205
FINAL SINGLE POINT ENERGY     -1339.864953071422

DIPOLE MOMENT
-------------
                                X             Y             Z
Electronic contribution:    -23.65320     -11.93529     -14.09832
Nuclear contribution   :     24.19518      11.99526      14.53981
                        -----------------------------------------
Total Dipole Moment    :      0.54198       0.05997       0.44149
                        -----------------------------------------
Magnitude (a.u.)       :      0.70161
Magnitude (Debye)      :      1.78334

Rotational constants in cm-1:     0.016167     0.010068     0.006862
Rotational constants in MHz :   484.661462   301.839991   205.720273

                             ****ORCA TERMINATED NORMALLY****
TOTAL RUN TIME: 0 days 0 hours 0 minutes 34 seconds 392 msec
