                         Program Version 4.2.1 -  RELEASE  -
|  1> ! wB97X-D3 SP def2-SVP
|  2> %pal
|  3> nprocs 16
|  4> end
|  5>
|  6> * xyz 0 1
|  7> S 	 66.2219 	 26.7801 	 73.6015
|  8> C 	 65.7547 	 25.9567 	 72.1367
|  9> C 	 66.8365 	 25.5624 	 71.3964
| 10> C 	 68.0319 	 25.9426 	 72.0411
| 11> C 	 67.9122 	 26.5449 	 73.2433
| 12> H 	 69.0036 	 25.707 	 71.6046
| 13> C 	 66.7765 	 24.8852 	 70.0636
| 14> H 	 65.8185 	 24.3316 	 69.9203
| 15> H 	 67.4583 	 24.0459 	 70.2993
| 16> C 	 67.2553 	 25.7434 	 68.8002
| 17> H 	 66.5734 	 26.6252 	 68.811
| 18> H 	 68.264 	 26.0647 	 68.8981
| 19> C 	 67.2128 	 24.9002 	 67.4813
| 20> H 	 67.7499 	 23.9756 	 67.685
| 21> H 	 66.254 	 24.6792 	 67.0648
| 22> H 	 67.7841 	 25.5093 	 66.7118
| 23> S 	 69.045 	 28.8685 	 74.0032
| 24> C 	 70.4452 	 28.9372 	 75.0166
| 25> C 	 70.8881 	 27.6948 	 75.3461
| 26> C 	 69.9932 	 26.6809 	 74.8408
| 27> C 	 68.9459 	 27.156 	 74.0965
| 28> H 	 71.8093 	 27.4667 	 75.8663
| 29> C 	 70.1168 	 25.218 	 75.0752
| 30> H 	 69.5049 	 24.5883 	 74.3968
| 31> H 	 69.77 	 25.1021 	 76.0654
| 32> C 	 71.4557 	 24.5279 	 74.8757
| 33> H 	 71.6738 	 23.7886 	 75.6007
| 34> H 	 72.1846 	 25.3192 	 75.1227
| 35> C 	 71.667 	 24.3459 	 73.3781
| 36> H 	 72.7498 	 24.1122 	 73.3073
| 37> H 	 71.5795 	 25.2897 	 72.8609
| 38> H 	 70.9437 	 23.6563 	 72.8557
| 39> H 	 64.7361 	 25.9002 	 71.7429
| 40> H 	 70.9721 	 29.8718 	 75.0314
| 41> *
| 42>
| 43>                          ****END OF INPUT****

CARTESIAN COORDINATES (ANGSTROEM)
---------------------------------
  S     66.221900   26.780100   73.601500
  C     65.754700   25.956700   72.136700
  C     66.836500   25.562400   71.396400
  C     68.031900   25.942600   72.041100
  C     67.912200   26.544900   73.243300
  H     69.003600   25.707000   71.604600
  C     66.776500   24.885200   70.063600
  H     65.818500   24.331600   69.920300
  H     67.458300   24.045900   70.299300
  C     67.255300   25.743400   68.800200
  H     66.573400   26.625200   68.811000
  H     68.264000   26.064700   68.898100
  C     67.212800   24.900200   67.481300
  H     67.749900   23.975600   67.685000
  H     66.254000   24.679200   67.064800
  H     67.784100   25.509300   66.711800
  S     69.045000   28.868500   74.003200
  C     70.445200   28.937200   75.016600
  C     70.888100   27.694800   75.346100
  C     69.993200   26.680900   74.840800
  C     68.945900   27.156000   74.096500
  H     71.809300   27.466700   75.866300
  C     70.116800   25.218000   75.075200
  H     69.504900   24.588300   74.396800
  H     69.770000   25.102100   76.065400
  C     71.455700   24.527900   74.875700
  H     71.673800   23.788600   75.600700
  H     72.184600   25.319200   75.122700
  C     71.667000   24.345900   73.378100
  H     72.749800   24.112200   73.307300
  H     71.579500   25.289700   72.860900
  H     70.943700   23.656300   72.855700
  H     64.736100   25.900200   71.742900
  H     70.972100   29.871800   75.031400

 Total Charge           Charge          ....    0
 Multiplicity           Mult            ....    1
 Number of Electrons    NEL             ....  134
 Basis Dimension        Dim             ....  322

ORBITAL ENERGIES
----------------

  NO   OCC          E(Eh)            E(eV)
   0   2.0000     -88.962155     -2420.7833
   1   2.0000     -88.958314     -2420.6788
   2   2.0000     -10.326138      -280.9885
   3   2.0000     -10.320002      -280.8215
   4   2.0000     -10.315265      -280.6926
   5   2.0000     -10.309471      -280.5350
   6   2.0000     -10.300548      -280.2922
   7   2.0000     -10.298194      -280.2281
   8   2.0000     -10.297205      -280.2012
   9   2.0000     -10.297031      -280.1965
  10   2.0000     -10.294158      -280.1183
  11   2.0000     -10.288753      -279.9712
  12   2.0000     -10.285202      -279.8746
  13   2.0000     -10.282245      -279.7941
  14   2.0000     -10.280941      -279.7586
  15   2.0000     -10.278339      -279.6878
  16   2.0000      -8.077319      -219.7950
  17   2.0000      -8.074687      -219.7234
  18   2.0000      -6.035799      -164.2424
  19   2.0000      -6.033054      -164.1678
  20   2.0000      -6.031778      -164.1330
  21   2.0000      -6.028846      -164.0532
  22   2.0000      -6.028076      -164.0323
  23   2.0000      -6.025600      -163.9649
  24   2.0000      -1.013670       -27.5834
  25   2.0000      -0.991869       -26.9901
  26   2.0000      -0.917750       -24.9732
  27   2.0000      -0.905615       -24.6430
  28   2.0000      -0.870573       -23.6895
  29   2.0000      -0.850167       -23.1342
  30   2.0000      -0.847254       -23.0550
  31   2.0000      -0.819790       -22.3076
  32   2.0000      -0.779826       -21.2201
  33   2.0000      -0.770096       -20.9554
  34   2.0000      -0.709262       -19.3000
  35   2.0000      -0.703473       -19.1425
  36   2.0000      -0.695247       -18.9186
  37   2.0000      -0.659300       -17.9405
  38   2.0000      -0.639815       -17.4103
  39   2.0000      -0.623526       -16.9670
  40   2.0000      -0.607694       -16.5362
  41   2.0000      -0.568106       -15.4590
  42   2.0000      -0.563643       -15.3375
  43   2.0000      -0.559944       -15.2368
  44   2.0000      -0.539706       -14.6862
  45   2.0000      -0.524746       -14.2791
  46   2.0000      -0.517294       -14.0763
  47   2.0000      -0.509499       -13.8642
  48   2.0000      -0.502845       -13.6831
  49   2.0000      -0.499129       -13.5820
  50   2.0000      -0.493446       -13.4274
  51   2.0000      -0.479805       -13.0562
  52   2.0000      -0.473372       -12.8811
  53   2.0000      -0.466009       -12.6807
  54   2.0000      -0.460935       -12.5427
  55   2.0000      -0.448158       -12.1950
  56   2.0000      -0.446041       -12.1374
  57   2.0000      -0.436757       -11.8847
  58   2.0000      -0.429481       -11.6868
  59   2.0000      -0.427257       -11.6263
  60   2.0000      -0.416302       -11.3281
  61   2.0000      -0.414139       -11.2693
  62   2.0000      -0.406666       -11.0659
  63   2.0000      -0.342353        -9.3159
  64   2.0000      -0.327325        -8.9070
  65   2.0000      -0.324702        -8.8356
  66   2.0000      -0.306462        -8.3393
  67   0.0000       0.047166         1.2835
  68   0.0000       0.062869         1.7108
  69   0.0000       0.122289         3.3276
  70   0.0000       0.124878         3.3981
  71   0.0000       0.130830         3.5601

MULLIKEN ATOMIC CHARGES
-----------------------
   0 S :    0.108461
   1 C :   -0.123589
   2 C :   -0.090534
   3 C :    0.046809
   4 C :   -0.157351
   5 H :    0.000990
   6 C :    0.025823
   7 H :    0.027602
   8 H :    0.028096
   9 C :   -0.058743
  10 H :    0.044807
  11 H :    0.029629
  12 C :   -0.058909
  13 H :    0.033924
  14 H :    0.036356
  15 H :    0.044022
  16 S :    0.101032
  17 C :   -0.082375
  18 C :   -0.019339
  19 C :   -0.054978
  20 C :   -0.156825
  21 H :    0.025073
  22 C :    0.063205
  23 H :    0.025016
  24 H :    0.023966
  25 C :   -0.053694
  26 H :    0.025542
  27 H :    0.003838
  28 C :   -0.065573
  29 H :    0.036680
  30 H :    0.035154
  31 H :    0.046585
  32 H :    0.047289
  33 H :    0.062012
Sum of atomic charges:    0.0000000

LOEWDIN ATOMIC CHARGES
----------------------
   0 S :    0.407270
   1 C :   -0.198888
   2 C :   -0.074823
   3 C :   -0.062157
   4 C :   -0.198091
   5 H :    0.030018
   6 C :   -0.042582
   7 H :    0.033953
   8 H :    0.034195
   9 C :   -0.030824
  10 H :    0.029861
  11 H :    0.021170
  12 C :   -0.065866
  13 H :    0.026201
  14 H :    0.019697
  15 H :    0.034871
  16 S :    0.425954
  17 C :   -0.180496
  18 C :   -0.073133
  19 C :   -0.055627
  20 C :   -0.213750
  21 H :    0.032839
  22 C :   -0.034978
  23 H :    0.033038
  24 H :    0.027993
  25 C :   -0.043610
  26 H :    0.021203
  27 H :    0.022880
  28 C :   -0.068125
  29 H :    0.031866
  30 H :    0.025475
  31 H :    0.027617
  32 H :    0.030629
  33 H :    0.026221

  Mayer bond orders larger than 0.100000
B(  0-S ,  1-C ) :   1.1404 B(  0-S ,  4-C ) :   1.1520 B(  1-C ,  2-C ) :   1.6158
B(  1-C , 32-H ) :   0.9637 B(  2-C ,  3-C ) :   1.2495 B(  2-C ,  6-C ) :   1.0168
B(  3-C ,  4-C ) :   1.5980 B(  3-C ,  5-H ) :   0.9969 B(  4-C , 20-C ) :   0.9768
B(  6-C ,  7-H ) :   0.9473 B(  6-C ,  8-H ) :   0.9336 B(  6-C ,  9-C ) :   1.0437
B(  9-C , 10-H ) :   0.9603 B(  9-C , 11-H ) :   0.9577 B(  9-C , 12-C ) :   1.0719
B( 12-C , 13-H ) :   0.9747 B( 12-C , 14-H ) :   0.9798 B( 12-C , 15-H ) :   0.9773
B( 16-S , 17-C ) :   1.1788 B( 16-S , 20-C ) :   1.1561 B( 17-C , 18-C ) :   1.5812
B( 17-C , 33-H ) :   0.9690 B( 18-C , 19-C ) :   1.2354 B( 18-C , 21-H ) :   0.9932
B( 19-C , 20-C ) :   1.6196 B( 19-C , 22-C ) :   1.0502 B( 22-C , 23-H ) :   0.9416
B( 22-C , 24-H ) :   0.9231 B( 22-C , 25-C ) :   1.0655 B( 25-C , 26-H ) :   0.9568
B( 25-C , 27-H ) :   0.9562 B( 25-C , 28-C ) :   1.0627 B( 28-C , 29-H ) :   0.9719
B( 28-C , 30-H ) :   0.9720 B( 28-C , 31-H ) :   0.9732

Dispersion correction           -0.014492970
FINAL SINGLE POINT ENERGY     -1339.871631329732

DIPOLE MOMENT
-------------
                                X             Y             Z
Electronic contribution:    -10.16854      18.13517      17.26289
Nuclear contribution   :     10.61684     -18.46037     -17.65051
                        -----------------------------------------
Total Dipole Moment    :      0.44830      -0.32520      -0.38762
                        -----------------------------------------
Magnitude (a.u.)       :      0.67600
Magnitude (Debye)      :      1.71826

Rotational constants in cm-1:     0.018794     0.008254     0.006994
Rotational constants in MHz :   563.421046   247.448625   209.667691

                             ****ORCA TERMINATED NORMALLY****
TOTAL RUN TIME: 0 days 0 hours 0 minutes 30 seconds 168 msec
