                         Program Version 4.2.1 -  RELEASE  -
|  1> ! wB97X-D3 SP def2-SVP
|  2> %pal
|  3> nprocs 16
|  4> end
|  5>
|  6> * xyz 0 1
|  7> S 	 50.1776 	 6.752 	 85.0684
|  8> C 	 51.518 	 7.30231 	 84.0799
|  9> C 	 51.7273 	 6.44121 	 83.0183
| 10> C 	 50.792 	 5.38886 	 82.9557
| 11> C 	 49.8627 	 5.36547 	 83.9811
| 12> H 	 50.7212 	 4.69797 	 82.1495
| 13> C 	 52.7339 	 6.66876 	 81.908
| 14> H 	 53.2611 	 7.54276 	 82.1309
| 15> H 	 52.2718 	 6.90509 	 80.9304
| 16> C 	 53.8775 	 5.61678 	 81.9048
| 17> H 	 54.1878 	 5.29178 	 82.8773
| 18> H 	 53.3751 	 4.75841 	 81.4626
| 19> C 	 55.1785 	 6.00528 	 81.2281
| 20> H 	 55.5126 	 7.05385 	 81.522
| 21> H 	 55.9846 	 5.26869 	 81.3645
| 22> H 	 54.9854 	 6.00347 	 80.1431
| 23> S 	 47.3914 	 5.07233 	 85.1355
| 24> C 	 46.6583 	 3.45272 	 85.2844
| 25> C 	 47.441 	 2.52483 	 84.6544
| 26> C 	 48.5448 	 3.12037 	 83.9651
| 27> C 	 48.7266 	 4.48603 	 84.2091
| 28> H 	 47.1484 	 1.46362 	 84.7213
| 29> C 	 49.5626 	 2.21088 	 83.2183
| 30> H 	 49.6804 	 1.28205 	 83.7112
| 31> H 	 50.5237 	 2.58713 	 83.4284
| 32> C 	 49.3946 	 1.92727 	 81.7496
| 33> H 	 49.3617 	 2.89477 	 81.2617
| 34> H 	 48.4955 	 1.34659 	 81.5252
| 35> C 	 50.6316 	 1.22924 	 81.2289
| 36> H 	 50.555 	 0.895108 	 80.1516
| 37> H 	 50.7821 	 0.346064 	 81.8251
| 38> H 	 51.4758 	 1.8393 	 81.3186
| 39> H 	 52.1042 	 8.2322 	 84.3543
| 40> H 	 45.7131 	 3.3488 	 85.7712
| 41> *
| 42>
| 43>                          ****END OF INPUT****

CARTESIAN COORDINATES (ANGSTROEM)
---------------------------------
  S     50.177600    6.752000   85.068400
  C     51.518000    7.302310   84.079900
  C     51.727300    6.441210   83.018300
  C     50.792000    5.388860   82.955700
  C     49.862700    5.365470   83.981100
  H     50.721200    4.697970   82.149500
  C     52.733900    6.668760   81.908000
  H     53.261100    7.542760   82.130900
  H     52.271800    6.905090   80.930400
  C     53.877500    5.616780   81.904800
  H     54.187800    5.291780   82.877300
  H     53.375100    4.758410   81.462600
  C     55.178500    6.005280   81.228100
  H     55.512600    7.053850   81.522000
  H     55.984600    5.268690   81.364500
  H     54.985400    6.003470   80.143100
  S     47.391400    5.072330   85.135500
  C     46.658300    3.452720   85.284400
  C     47.441000    2.524830   84.654400
  C     48.544800    3.120370   83.965100
  C     48.726600    4.486030   84.209100
  H     47.148400    1.463620   84.721300
  C     49.562600    2.210880   83.218300
  H     49.680400    1.282050   83.711200
  H     50.523700    2.587130   83.428400
  C     49.394600    1.927270   81.749600
  H     49.361700    2.894770   81.261700
  H     48.495500    1.346590   81.525200
  C     50.631600    1.229240   81.228900
  H     50.555000    0.895108   80.151600
  H     50.782100    0.346064   81.825100
  H     51.475800    1.839300   81.318600
  H     52.104200    8.232200   84.354300
  H     45.713100    3.348800   85.771200

 Total Charge           Charge          ....    0
 Multiplicity           Mult            ....    1
 Number of Electrons    NEL             ....  134
 Basis Dimension        Dim             ....  322

ORBITAL ENERGIES
----------------

  NO   OCC          E(Eh)            E(eV)
   0   2.0000     -88.966531     -2420.9024
   1   2.0000     -88.963998     -2420.8335
   2   2.0000     -10.336303      -281.2651
   3   2.0000     -10.330906      -281.1183
   4   2.0000     -10.321296      -280.8567
   5   2.0000     -10.319538      -280.8089
   6   2.0000     -10.308076      -280.4970
   7   2.0000     -10.301806      -280.3264
   8   2.0000     -10.299494      -280.2635
   9   2.0000     -10.292811      -280.0816
  10   2.0000     -10.289923      -280.0031
  11   2.0000     -10.286407      -279.9074
  12   2.0000     -10.283889      -279.8388
  13   2.0000     -10.282784      -279.8088
  14   2.0000     -10.281709      -279.7795
  15   2.0000     -10.275299      -279.6051
  16   2.0000      -8.080665      -219.8861
  17   2.0000      -8.078916      -219.8385
  18   2.0000      -6.039265      -164.3368
  19   2.0000      -6.037427      -164.2867
  20   2.0000      -6.035224      -164.2268
  21   2.0000      -6.033342      -164.1756
  22   2.0000      -6.031382      -164.1222
  23   2.0000      -6.029708      -164.0767
  24   2.0000      -1.007002       -27.4019
  25   2.0000      -0.984052       -26.7774
  26   2.0000      -0.916318       -24.9343
  27   2.0000      -0.911750       -24.8100
  28   2.0000      -0.872931       -23.7537
  29   2.0000      -0.853206       -23.2169
  30   2.0000      -0.845625       -23.0106
  31   2.0000      -0.819173       -22.2908
  32   2.0000      -0.781675       -21.2704
  33   2.0000      -0.770894       -20.9771
  34   2.0000      -0.709230       -19.2991
  35   2.0000      -0.700284       -19.0557
  36   2.0000      -0.693508       -18.8713
  37   2.0000      -0.666282       -18.1304
  38   2.0000      -0.640883       -17.4393
  39   2.0000      -0.627782       -17.0828
  40   2.0000      -0.599779       -16.3208
  41   2.0000      -0.576333       -15.6828
  42   2.0000      -0.570793       -15.5321
  43   2.0000      -0.559114       -15.2143
  44   2.0000      -0.529077       -14.3969
  45   2.0000      -0.525556       -14.3011
  46   2.0000      -0.518106       -14.0984
  47   2.0000      -0.512554       -13.9473
  48   2.0000      -0.508654       -13.8412
  49   2.0000      -0.501440       -13.6449
  50   2.0000      -0.493652       -13.4330
  51   2.0000      -0.486539       -13.2394
  52   2.0000      -0.473930       -12.8963
  53   2.0000      -0.469909       -12.7869
  54   2.0000      -0.459691       -12.5088
  55   2.0000      -0.446968       -12.1626
  56   2.0000      -0.444526       -12.0962
  57   2.0000      -0.438419       -11.9300
  58   2.0000      -0.429223       -11.6798
  59   2.0000      -0.424996       -11.5647
  60   2.0000      -0.419869       -11.4252
  61   2.0000      -0.414769       -11.2864
  62   2.0000      -0.405775       -11.0417
  63   2.0000      -0.362043        -9.8517
  64   2.0000      -0.335811        -9.1379
  65   2.0000      -0.330869        -9.0034
  66   2.0000      -0.285005        -7.7554
  67   0.0000       0.018828         0.5123
  68   0.0000       0.078455         2.1349
  69   0.0000       0.109030         2.9668
  70   0.0000       0.121269         3.2999
  71   0.0000       0.127586         3.4718

MULLIKEN ATOMIC CHARGES
-----------------------
   0 S :    0.097712
   1 C :   -0.152844
   2 C :   -0.076943
   3 C :    0.025207
   4 C :   -0.117268
   5 H :   -0.010981
   6 C :    0.101300
   7 H :   -0.021972
   8 H :    0.047549
   9 C :   -0.080801
  10 H :    0.027561
  11 H :    0.022039
  12 C :   -0.067925
  13 H :    0.044089
  14 H :    0.044274
  15 H :    0.028379
  16 S :    0.083118
  17 C :   -0.100809
  18 C :   -0.016383
  19 C :   -0.042432
  20 C :   -0.110986
  21 H :    0.036382
  22 C :    0.046813
  23 H :   -0.004295
  24 H :    0.000134
  25 C :   -0.030603
  26 H :    0.022175
  27 H :    0.032258
  28 C :   -0.038394
  29 H :    0.042293
  30 H :    0.019206
  31 H :    0.017061
  32 H :    0.077539
  33 H :    0.057543
Sum of atomic charges:    0.0000000

LOEWDIN ATOMIC CHARGES
----------------------
   0 S :    0.386533
   1 C :   -0.201196
   2 C :   -0.064028
   3 C :   -0.063140
   4 C :   -0.169579
   5 H :    0.024854
   6 C :   -0.028167
   7 H :    0.016440
   8 H :    0.037357
   9 C :   -0.043445
  10 H :    0.023522
  11 H :    0.020021
  12 C :   -0.071570
  13 H :    0.031543
  14 H :    0.030280
  15 H :    0.025066
  16 S :    0.396606
  17 C :   -0.167106
  18 C :   -0.069884
  19 C :   -0.053582
  20 C :   -0.202237
  21 H :    0.041337
  22 C :   -0.034243
  23 H :    0.023404
  24 H :    0.023001
  25 C :   -0.037108
  26 H :    0.019678
  27 H :    0.025998
  28 C :   -0.058692
  29 H :    0.033451
  30 H :    0.020783
  31 H :    0.014975
  32 H :    0.043851
  33 H :    0.025278

  Mayer bond orders larger than 0.100000
B(  0-S ,  1-C ) :   1.1353 B(  0-S ,  4-C ) :   1.1424 B(  1-C ,  2-C ) :   1.6028
B(  1-C , 32-H ) :   0.9584 B(  2-C ,  3-C ) :   1.2490 B(  2-C ,  6-C ) :   1.0366
B(  3-C ,  4-C ) :   1.5533 B(  3-C ,  5-H ) :   1.0007 B(  4-C , 20-C ) :   1.0851
B(  6-C ,  7-H ) :   0.9298 B(  6-C ,  8-H ) :   0.9430 B(  6-C ,  9-C ) :   1.0381
B(  9-C , 10-H ) :   0.9598 B(  9-C , 11-H ) :   0.9569 B(  9-C , 12-C ) :   1.0866
B( 12-C , 13-H ) :   0.9723 B( 12-C , 14-H ) :   0.9755 B( 12-C , 15-H ) :   0.9741
B( 16-S , 17-C ) :   1.1482 B( 16-S , 20-C ) :   1.1388 B( 17-C , 18-C ) :   1.5908
B( 17-C , 33-H ) :   0.9751 B( 18-C , 19-C ) :   1.2584 B( 18-C , 21-H ) :   0.9913
B( 19-C , 20-C ) :   1.5596 B( 19-C , 22-C ) :   1.0276 B( 22-C , 23-H ) :   0.9302
B( 22-C , 24-H ) :   0.9324 B( 22-C , 25-C ) :   1.0680 B( 25-C , 26-H ) :   0.9501
B( 25-C , 27-H ) :   0.9515 B( 25-C , 28-C ) :   1.0843 B( 28-C , 29-H ) :   0.9719
B( 28-C , 30-H ) :   0.9722 B( 28-C , 31-H ) :   0.9745

Dispersion correction           -0.013898984
FINAL SINGLE POINT ENERGY     -1339.879505507222

DIPOLE MOMENT
-------------
                                X             Y             Z
Electronic contribution:    -22.36364      12.79355      21.54552
Nuclear contribution   :     22.69351     -13.19481     -21.91914
                        -----------------------------------------
Total Dipole Moment    :      0.32987      -0.40126      -0.37362
                        -----------------------------------------
Magnitude (a.u.)       :      0.63986
Magnitude (Debye)      :      1.62638

Rotational constants in cm-1:     0.017882     0.009175     0.006256
Rotational constants in MHz :   536.101234   275.072749   187.552886

                             ****ORCA TERMINATED NORMALLY****
TOTAL RUN TIME: 0 days 0 hours 0 minutes 29 seconds 983 msec
