                         Program Version 4.2.1 -  RELEASE  -
|  1> ! wB97X-D3 SP def2-SVP
|  2> %pal
|  3> nprocs 16
|  4> end
|  5>
|  6> * xyz 0 1
|  7> S 	 17.9008 	 -10.2194 	 78.9509
|  8> C 	 16.7128 	 -10.9825 	 80.1055
|  9> C 	 17.2085 	 -11.0931 	 81.4216
| 10> C 	 18.635 	 -10.828 	 81.4019
| 11> C 	 19.149 	 -10.2952 	 80.2197
| 12> H 	 19.2516 	 -10.9897 	 82.2138
| 13> C 	 16.4463 	 -11.6077 	 82.6103
| 14> H 	 15.3808 	 -11.6973 	 82.4277
| 15> H 	 16.4821 	 -10.7859 	 83.3284
| 16> C 	 17.104 	 -12.8582 	 83.2427
| 17> H 	 18.0008 	 -12.6472 	 83.7228
| 18> H 	 16.3645 	 -13.1996 	 84.0131
| 19> C 	 17.2213 	 -14.0444 	 82.2668
| 20> H 	 17.626 	 -14.8757 	 82.8387
| 21> H 	 16.2777 	 -14.4506 	 82.0199
| 22> H 	 17.7861 	 -13.9559 	 81.249
| 23> S 	 20.6945 	 -8.09093 	 79.8557
| 24> C 	 22.3811 	 -8.25534 	 80.169
| 25> C 	 22.8105 	 -9.56323 	 80.3477
| 26> C 	 21.702 	 -10.4259 	 80.181
| 27> C 	 20.4885 	 -9.76101 	 80.0797
| 28> H 	 23.7841 	 -9.91236 	 80.6608
| 29> C 	 21.8215 	 -11.9381 	 80.3087
| 30> H 	 20.8436 	 -12.4265 	 80.083
| 31> H 	 22.1142 	 -12.2715 	 81.3597
| 32> C 	 22.8148 	 -12.7616 	 79.4322
| 33> H 	 23.8151 	 -12.5601 	 79.7195
| 34> H 	 22.8322 	 -12.5433 	 78.3479
| 35> C 	 22.6564 	 -14.2483 	 79.5251
| 36> H 	 23.3851 	 -14.7297 	 78.9135
| 37> H 	 21.7356 	 -14.6356 	 79.071
| 38> H 	 22.7073 	 -14.6594 	 80.5477
| 39> H 	 15.6332 	 -11.1295 	 79.7734
| 40> H 	 23.095 	 -7.42795 	 80.0542
| 41> *
| 42>
| 43>                          ****END OF INPUT****

CARTESIAN COORDINATES (ANGSTROEM)
---------------------------------
  S     17.900800  -10.219400   78.950900
  C     16.712800  -10.982500   80.105500
  C     17.208500  -11.093100   81.421600
  C     18.635000  -10.828000   81.401900
  C     19.149000  -10.295200   80.219700
  H     19.251600  -10.989700   82.213800
  C     16.446300  -11.607700   82.610300
  H     15.380800  -11.697300   82.427700
  H     16.482100  -10.785900   83.328400
  C     17.104000  -12.858200   83.242700
  H     18.000800  -12.647200   83.722800
  H     16.364500  -13.199600   84.013100
  C     17.221300  -14.044400   82.266800
  H     17.626000  -14.875700   82.838700
  H     16.277700  -14.450600   82.019900
  H     17.786100  -13.955900   81.249000
  S     20.694500   -8.090930   79.855700
  C     22.381100   -8.255340   80.169000
  C     22.810500   -9.563230   80.347700
  C     21.702000  -10.425900   80.181000
  C     20.488500   -9.761010   80.079700
  H     23.784100   -9.912360   80.660800
  C     21.821500  -11.938100   80.308700
  H     20.843600  -12.426500   80.083000
  H     22.114200  -12.271500   81.359700
  C     22.814800  -12.761600   79.432200
  H     23.815100  -12.560100   79.719500
  H     22.832200  -12.543300   78.347900
  C     22.656400  -14.248300   79.525100
  H     23.385100  -14.729700   78.913500
  H     21.735600  -14.635600   79.071000
  H     22.707300  -14.659400   80.547700
  H     15.633200  -11.129500   79.773400
  H     23.095000   -7.427950   80.054200

 Total Charge           Charge          ....    0
 Multiplicity           Mult            ....    1
 Number of Electrons    NEL             ....  134
 Basis Dimension        Dim             ....  322

ORBITAL ENERGIES
----------------

  NO   OCC          E(Eh)            E(eV)
   0   2.0000     -88.967466     -2420.9278
   1   2.0000     -88.964861     -2420.8569
   2   2.0000     -10.330144      -281.0975
   3   2.0000     -10.325196      -280.9629
   4   2.0000     -10.318286      -280.7748
   5   2.0000     -10.316623      -280.7296
   6   2.0000     -10.307667      -280.4859
   7   2.0000     -10.299639      -280.2674
   8   2.0000     -10.295857      -280.1645
   9   2.0000     -10.295531      -280.1556
  10   2.0000     -10.293635      -280.1041
  11   2.0000     -10.292193      -280.0648
  12   2.0000     -10.292039      -280.0606
  13   2.0000     -10.281126      -279.7636
  14   2.0000     -10.278559      -279.6938
  15   2.0000     -10.273054      -279.5440
  16   2.0000      -8.083705      -219.9688
  17   2.0000      -8.078030      -219.8144
  18   2.0000      -6.041954      -164.4099
  19   2.0000      -6.038068      -164.3042
  20   2.0000      -6.036645      -164.2654
  21   2.0000      -6.034570      -164.2090
  22   2.0000      -6.032858      -164.1624
  23   2.0000      -6.028692      -164.0490
  24   2.0000      -1.010298       -27.4916
  25   2.0000      -0.974403       -26.5149
  26   2.0000      -0.911794       -24.8112
  27   2.0000      -0.905381       -24.6367
  28   2.0000      -0.865690       -23.5566
  29   2.0000      -0.857562       -23.3354
  30   2.0000      -0.840856       -22.8809
  31   2.0000      -0.810401       -22.0521
  32   2.0000      -0.783505       -21.3203
  33   2.0000      -0.768184       -20.9034
  34   2.0000      -0.707903       -19.2630
  35   2.0000      -0.695980       -18.9386
  36   2.0000      -0.689715       -18.7681
  37   2.0000      -0.661160       -17.9911
  38   2.0000      -0.637457       -17.3461
  39   2.0000      -0.621915       -16.9232
  40   2.0000      -0.600699       -16.3459
  41   2.0000      -0.563502       -15.3337
  42   2.0000      -0.558364       -15.1939
  43   2.0000      -0.553508       -15.0617
  44   2.0000      -0.536056       -14.5868
  45   2.0000      -0.520677       -14.1683
  46   2.0000      -0.518881       -14.1195
  47   2.0000      -0.506763       -13.7897
  48   2.0000      -0.505149       -13.7458
  49   2.0000      -0.492153       -13.3922
  50   2.0000      -0.485584       -13.2134
  51   2.0000      -0.473402       -12.8819
  52   2.0000      -0.469946       -12.7879
  53   2.0000      -0.463499       -12.6124
  54   2.0000      -0.457041       -12.4367
  55   2.0000      -0.450997       -12.2722
  56   2.0000      -0.444637       -12.0992
  57   2.0000      -0.433464       -11.7952
  58   2.0000      -0.431552       -11.7431
  59   2.0000      -0.428037       -11.6475
  60   2.0000      -0.424382       -11.5480
  61   2.0000      -0.416598       -11.3362
  62   2.0000      -0.409294       -11.1375
  63   2.0000      -0.338965        -9.2237
  64   2.0000      -0.327614        -8.9148
  65   2.0000      -0.326056        -8.8724
  66   2.0000      -0.294425        -8.0117
  67   0.0000       0.036906         1.0043
  68   0.0000       0.060966         1.6590
  69   0.0000       0.109830         2.9886
  70   0.0000       0.121052         3.2940
  71   0.0000       0.125374         3.4116

MULLIKEN ATOMIC CHARGES
-----------------------
   0 S :    0.092027
   1 C :   -0.162509
   2 C :   -0.082256
   3 C :    0.063484
   4 C :   -0.161775
   5 H :   -0.018618
   6 C :    0.088356
   7 H :    0.018763
   8 H :    0.033702
   9 C :   -0.069718
  10 H :    0.028513
  11 H :    0.037411
  12 C :   -0.061666
  13 H :    0.024062
  14 H :    0.010570
  15 H :    0.066641
  16 S :    0.138857
  17 C :   -0.101041
  18 C :   -0.026018
  19 C :   -0.001117
  20 C :   -0.167172
  21 H :    0.021781
  22 C :    0.010264
  23 H :    0.038036
  24 H :    0.036114
  25 C :   -0.051852
  26 H :    0.007102
  27 H :    0.027918
  28 C :   -0.055308
  29 H :    0.022693
  30 H :    0.026275
  31 H :    0.028938
  32 H :    0.074754
  33 H :    0.062787
Sum of atomic charges:   -0.0000000

LOEWDIN ATOMIC CHARGES
----------------------
   0 S :    0.355191
   1 C :   -0.188990
   2 C :   -0.055037
   3 C :   -0.043843
   4 C :   -0.184619
   5 H :    0.016737
   6 C :   -0.032947
   7 H :    0.030676
   8 H :    0.036937
   9 C :   -0.032566
  10 H :    0.014114
  11 H :    0.036627
  12 C :   -0.076972
  13 H :    0.026401
  14 H :    0.017113
  15 H :    0.041031
  16 S :    0.448582
  17 C :   -0.194930
  18 C :   -0.066149
  19 C :   -0.058183
  20 C :   -0.223822
  21 H :    0.033944
  22 C :   -0.040576
  23 H :    0.033727
  24 H :    0.036076
  25 C :   -0.044957
  26 H :    0.012881
  27 H :    0.028013
  28 C :   -0.065977
  29 H :    0.025248
  30 H :    0.024698
  31 H :    0.024124
  32 H :    0.037362
  33 H :    0.030085

  Mayer bond orders larger than 0.100000
B(  0-S ,  1-C ) :   1.1210 B(  0-S ,  4-C ) :   1.1277 B(  1-C ,  2-C ) :   1.6189
B(  1-C , 32-H ) :   0.9572 B(  2-C ,  3-C ) :   1.2066 B(  2-C ,  6-C ) :   1.0333
B(  3-C ,  4-C ) :   1.6026 B(  3-C ,  5-H ) :   1.0004 B(  4-C , 20-C ) :   1.0349
B(  6-C ,  7-H ) :   0.9435 B(  6-C ,  8-H ) :   0.9279 B(  6-C ,  9-C ) :   1.0713
B(  9-C , 10-H ) :   0.9582 B(  9-C , 11-H ) :   0.9523 B(  9-C , 12-C ) :   1.0746
B( 12-C , 13-H ) :   0.9710 B( 12-C , 14-H ) :   0.9732 B( 12-C , 15-H ) :   0.9713
B( 16-S , 17-C ) :   1.1792 B( 16-S , 20-C ) :   1.1593 B( 17-C , 18-C ) :   1.5743
B( 17-C , 33-H ) :   0.9632 B( 18-C , 19-C ) :   1.2657 B( 18-C , 21-H ) :   0.9958
B( 19-C , 20-C ) :   1.5777 B( 19-C , 22-C ) :   1.0479 B( 22-C , 23-H ) :   0.9416
B( 22-C , 24-H ) :   0.9358 B( 22-C , 25-C ) :   1.0512 B( 25-C , 26-H ) :   0.9488
B( 25-C , 27-H ) :   0.9531 B( 25-C , 28-C ) :   1.1031 B( 28-C , 29-H ) :   0.9695
B( 28-C , 30-H ) :   0.9716 B( 28-C , 31-H ) :   0.9724

Dispersion correction           -0.014382126
FINAL SINGLE POINT ENERGY     -1339.867768921600

DIPOLE MOMENT
-------------
                                X             Y             Z
Electronic contribution:     -2.78509      27.24901     -10.64352
Nuclear contribution   :      2.85514     -27.70567      11.18310
                        -----------------------------------------
Total Dipole Moment    :      0.07006      -0.45666       0.53959
                        -----------------------------------------
Magnitude (a.u.)       :      0.71036
Magnitude (Debye)      :      1.80558

Rotational constants in cm-1:     0.016127     0.009590     0.007206
Rotational constants in MHz :   483.482527   287.499425   216.037904

                             ****ORCA TERMINATED NORMALLY****
TOTAL RUN TIME: 0 days 0 hours 0 minutes 30 seconds 824 msec
