                         Program Version 4.2.1 -  RELEASE  -
|  1> ! wB97X-D3 SP def2-SVP
|  2> %pal
|  3> nprocs 16
|  4> end
|  5>
|  6> * xyz 0 1
|  7> S 	 8.98075 	 -12.8586 	 64.9978
|  8> C 	 9.07263 	 -11.4542 	 63.9249
|  9> C 	 9.54604 	 -10.3071 	 64.6108
| 10> C 	 9.99225 	 -10.6848 	 65.9496
| 11> C 	 9.63686 	 -11.9673 	 66.2994
| 12> H 	 10.372 	 -10.0157 	 66.7633
| 13> C 	 9.94557 	 -8.97508 	 63.9629
| 14> H 	 10.8583 	 -8.57218 	 64.3465
| 15> H 	 9.06082 	 -8.26445 	 64.3299
| 16> C 	 10.3364 	 -9.0597 	 62.4659
| 17> H 	 9.56029 	 -9.6605 	 61.9676
| 18> H 	 10.4698 	 -8.08482 	 62.0223
| 19> C 	 11.599 	 -9.82016 	 62.0988
| 20> H 	 11.7963 	 -9.69864 	 61.0035
| 21> H 	 12.475 	 -9.38768 	 62.6765
| 22> H 	 11.5596 	 -10.9377 	 62.25
| 23> S 	 9.33748 	 -11.5983 	 69.0004
| 24> C 	 9.57863 	 -12.8905 	 70.0479
| 25> C 	 9.87904 	 -14.0384 	 69.3665
| 26> C 	 9.97748 	 -13.9025 	 67.943
| 27> C 	 9.74423 	 -12.6016 	 67.5694
| 28> H 	 10.126 	 -14.8721 	 70.0449
| 29> C 	 10.3654 	 -15.0869 	 67.1136
| 30> H 	 9.54129 	 -15.2957 	 66.4413
| 31> H 	 10.2999 	 -15.9586 	 67.7862
| 32> C 	 11.6884 	 -15.0646 	 66.3493
| 33> H 	 12.5879 	 -15.0463 	 66.9155
| 34> H 	 11.4974 	 -14.139 	 65.8184
| 35> C 	 11.8964 	 -16.2177 	 65.3549
| 36> H 	 11.7144 	 -17.1933 	 65.8053
| 37> H 	 12.9027 	 -16.236 	 64.9559
| 38> H 	 11.3188 	 -15.9744 	 64.5441
| 39> H 	 8.62494 	 -11.4462 	 62.9243
| 40> H 	 9.69155 	 -12.8064 	 71.0821
| 41> *
| 42>
| 43>                          ****END OF INPUT****

CARTESIAN COORDINATES (ANGSTROEM)
---------------------------------
  S      8.980750  -12.858600   64.997800
  C      9.072630  -11.454200   63.924900
  C      9.546040  -10.307100   64.610800
  C      9.992250  -10.684800   65.949600
  C      9.636860  -11.967300   66.299400
  H     10.372000  -10.015700   66.763300
  C      9.945570   -8.975080   63.962900
  H     10.858300   -8.572180   64.346500
  H      9.060820   -8.264450   64.329900
  C     10.336400   -9.059700   62.465900
  H      9.560290   -9.660500   61.967600
  H     10.469800   -8.084820   62.022300
  C     11.599000   -9.820160   62.098800
  H     11.796300   -9.698640   61.003500
  H     12.475000   -9.387680   62.676500
  H     11.559600  -10.937700   62.250000
  S      9.337480  -11.598300   69.000400
  C      9.578630  -12.890500   70.047900
  C      9.879040  -14.038400   69.366500
  C      9.977480  -13.902500   67.943000
  C      9.744230  -12.601600   67.569400
  H     10.126000  -14.872100   70.044900
  C     10.365400  -15.086900   67.113600
  H      9.541290  -15.295700   66.441300
  H     10.299900  -15.958600   67.786200
  C     11.688400  -15.064600   66.349300
  H     12.587900  -15.046300   66.915500
  H     11.497400  -14.139000   65.818400
  C     11.896400  -16.217700   65.354900
  H     11.714400  -17.193300   65.805300
  H     12.902700  -16.236000   64.955900
  H     11.318800  -15.974400   64.544100
  H      8.624940  -11.446200   62.924300
  H      9.691550  -12.806400   71.082100

 Total Charge           Charge          ....    0
 Multiplicity           Mult            ....    1
 Number of Electrons    NEL             ....  134
 Basis Dimension        Dim             ....  322

ORBITAL ENERGIES
----------------

  NO   OCC          E(Eh)            E(eV)
   0   2.0000     -88.969359     -2420.9793
   1   2.0000     -88.962741     -2420.7992
   2   2.0000     -10.325256      -280.9645
   3   2.0000     -10.324934      -280.9557
   4   2.0000     -10.321521      -280.8629
   5   2.0000     -10.313401      -280.6419
   6   2.0000     -10.305596      -280.4295
   7   2.0000     -10.305171      -280.4180
   8   2.0000     -10.303639      -280.3763
   9   2.0000     -10.298733      -280.2428
  10   2.0000     -10.290611      -280.0217
  11   2.0000     -10.290074      -280.0071
  12   2.0000     -10.289460      -279.9904
  13   2.0000     -10.287626      -279.9405
  14   2.0000     -10.277280      -279.6590
  15   2.0000     -10.266769      -279.3730
  16   2.0000      -8.084090      -219.9793
  17   2.0000      -8.078328      -219.8225
  18   2.0000      -6.042581      -164.4270
  19   2.0000      -6.038573      -164.3179
  20   2.0000      -6.036763      -164.2687
  21   2.0000      -6.034911      -164.2183
  22   2.0000      -6.032713      -164.1585
  23   2.0000      -6.029120      -164.0607
  24   2.0000      -1.012662       -27.5559
  25   2.0000      -0.986012       -26.8307
  26   2.0000      -0.915002       -24.8985
  27   2.0000      -0.910510       -24.7762
  28   2.0000      -0.871064       -23.7029
  29   2.0000      -0.856584       -23.3088
  30   2.0000      -0.847571       -23.0636
  31   2.0000      -0.808468       -21.9995
  32   2.0000      -0.787736       -21.4354
  33   2.0000      -0.774726       -21.0814
  34   2.0000      -0.709585       -19.3088
  35   2.0000      -0.698304       -19.0018
  36   2.0000      -0.691026       -18.8038
  37   2.0000      -0.663664       -18.0592
  38   2.0000      -0.635198       -17.2846
  39   2.0000      -0.607899       -16.5418
  40   2.0000      -0.595307       -16.1991
  41   2.0000      -0.581528       -15.8242
  42   2.0000      -0.573093       -15.5947
  43   2.0000      -0.549438       -14.9510
  44   2.0000      -0.543792       -14.7973
  45   2.0000      -0.521439       -14.1891
  46   2.0000      -0.518087       -14.0979
  47   2.0000      -0.514171       -13.9913
  48   2.0000      -0.507255       -13.8031
  49   2.0000      -0.495561       -13.4849
  50   2.0000      -0.490033       -13.3345
  51   2.0000      -0.481968       -13.1150
  52   2.0000      -0.474407       -12.9093
  53   2.0000      -0.466007       -12.6807
  54   2.0000      -0.462583       -12.5875
  55   2.0000      -0.449843       -12.2408
  56   2.0000      -0.447568       -12.1789
  57   2.0000      -0.437902       -11.9159
  58   2.0000      -0.427645       -11.6368
  59   2.0000      -0.422150       -11.4873
  60   2.0000      -0.416336       -11.3291
  61   2.0000      -0.407605       -11.0915
  62   2.0000      -0.401559       -10.9270
  63   2.0000      -0.354011        -9.6331
  64   2.0000      -0.333286        -9.0692
  65   2.0000      -0.330036        -8.9807
  66   2.0000      -0.287384        -7.8201
  67   0.0000       0.023127         0.6293
  68   0.0000       0.080610         2.1935
  69   0.0000       0.102205         2.7811
  70   0.0000       0.115742         3.1495
  71   0.0000       0.126275         3.4361

MULLIKEN ATOMIC CHARGES
-----------------------
   0 S :    0.106983
   1 C :   -0.142123
   2 C :   -0.087321
   3 C :   -0.006853
   4 C :   -0.151605
   5 H :    0.035815
   6 C :    0.038466
   7 H :    0.024590
   8 H :    0.069831
   9 C :   -0.070578
  10 H :    0.022097
  11 H :    0.037292
  12 C :   -0.104223
  13 H :    0.044846
  14 H :    0.036374
  15 H :    0.051830
  16 S :    0.101162
  17 C :   -0.065230
  18 C :   -0.068146
  19 C :   -0.026335
  20 C :   -0.136346
  21 H :    0.025148
  22 C :    0.067978
  23 H :    0.027232
  24 H :    0.005135
  25 C :   -0.053268
  26 H :    0.027532
  27 H :    0.025703
  28 C :   -0.010630
  29 H :    0.033496
  30 H :    0.024658
  31 H :    0.011370
  32 H :    0.067085
  33 H :    0.038034
Sum of atomic charges:   -0.0000000

LOEWDIN ATOMIC CHARGES
----------------------
   0 S :    0.426311
   1 C :   -0.204569
   2 C :   -0.055385
   3 C :   -0.075282
   4 C :   -0.205387
   5 H :    0.037348
   6 C :   -0.041084
   7 H :    0.025251
   8 H :    0.053904
   9 C :   -0.046214
  10 H :    0.021329
  11 H :    0.027576
  12 C :   -0.074461
  13 H :    0.032742
  14 H :    0.026286
  15 H :    0.030030
  16 S :    0.416192
  17 C :   -0.198569
  18 C :   -0.075848
  19 C :   -0.057949
  20 C :   -0.184500
  21 H :    0.036136
  22 C :   -0.038063
  23 H :    0.027092
  24 H :    0.027399
  25 C :   -0.034465
  26 H :    0.020076
  27 H :    0.021213
  28 C :   -0.055161
  29 H :    0.025350
  30 H :    0.027695
  31 H :    0.014418
  32 H :    0.029921
  33 H :    0.020665

  Mayer bond orders larger than 0.100000
B(  0-S ,  1-C ) :   1.1317 B(  0-S ,  4-C ) :   1.1531 B(  1-C ,  2-C ) :   1.6134
B(  1-C , 32-H ) :   0.9612 B(  2-C ,  3-C ) :   1.2249 B(  2-C ,  6-C ) :   1.0071
B(  3-C ,  4-C ) :   1.5771 B(  3-C ,  5-H ) :   0.9782 B(  4-C , 20-C ) :   1.0789
B(  6-C ,  7-H ) :   0.9572 B(  6-C ,  8-H ) :   0.9326 B(  6-C ,  9-C ) :   1.0636
B(  9-C , 10-H ) :   0.9519 B(  9-C , 11-H ) :   0.9563 B(  9-C , 12-C ) :   1.0784
B( 12-C , 13-H ) :   0.9728 B( 12-C , 14-H ) :   0.9716 B( 12-C , 15-H ) :   0.9735
B( 16-S , 17-C ) :   1.1630 B( 16-S , 20-C ) :   1.1287 B( 17-C , 18-C ) :   1.6280
B( 17-C , 33-H ) :   0.9676 B( 18-C , 19-C ) :   1.2323 B( 18-C , 21-H ) :   0.9850
B( 19-C , 20-C ) :   1.5705 B( 19-C , 22-C ) :   1.0468 B( 22-C , 23-H ) :   0.9259
B( 22-C , 24-H ) :   0.9190 B( 22-C , 25-C ) :   1.0486 B( 25-C , 26-H ) :   0.9621
B( 25-C , 27-H ) :   0.9564 B( 25-C , 28-C ) :   1.0851 B( 28-C , 29-H ) :   0.9759
B( 28-C , 30-H ) :   0.9734 B( 28-C , 31-H ) :   0.9743

Dispersion correction           -0.014342885
FINAL SINGLE POINT ENERGY     -1339.860067350453

DIPOLE MOMENT
-------------
                                X             Y             Z
Electronic contribution:    -13.33177       2.35994      17.65067
Nuclear contribution   :     13.62595      -2.32293     -17.80944
                        -----------------------------------------
Total Dipole Moment    :      0.29417       0.03701      -0.15877
                        -----------------------------------------
Magnitude (a.u.)       :      0.33633
Magnitude (Debye)      :      0.85487

Rotational constants in cm-1:     0.019726     0.008810     0.006774
Rotational constants in MHz :   591.370214   264.112656   203.070375

                             ****ORCA TERMINATED NORMALLY****
TOTAL RUN TIME: 0 days 0 hours 0 minutes 33 seconds 344 msec
