                         Program Version 4.2.1 -  RELEASE  -
|  1> ! wB97X-D3 SP def2-SVP
|  2> %pal
|  3> nprocs 16
|  4> end
|  5>
|  6> * xyz 0 1
|  7> S 	 14.5648 	 -15.7348 	 79.4181
|  8> C 	 16.0418 	 -14.7635 	 79.1427
|  9> C 	 15.7823 	 -13.7034 	 78.2262
| 10> C 	 14.4011 	 -13.6007 	 77.8506
| 11> C 	 13.6126 	 -14.6188 	 78.4138
| 12> H 	 13.9776 	 -12.9575 	 77.1079
| 13> C 	 16.8496 	 -12.7725 	 77.5319
| 14> H 	 17.8129 	 -13.1468 	 77.8829
| 15> H 	 16.7726 	 -11.7349 	 77.7521
| 16> C 	 16.9237 	 -12.8023 	 76.0077
| 17> H 	 17.1009 	 -13.812 	 75.6992
| 18> H 	 15.8972 	 -12.6353 	 75.5409
| 19> C 	 18.013 	 -11.8018 	 75.4371
| 20> H 	 17.8527 	 -10.7416 	 75.6179
| 21> H 	 18.9333 	 -12.0161 	 76.0304
| 22> H 	 18.3599 	 -12.0879 	 74.444
| 23> S 	 11.864 	 -16.4414 	 77.3649
| 24> C 	 10.2166 	 -16.0468 	 77.1799
| 25> C 	 9.9623 	 -14.7337 	 77.6832
| 26> C 	 11.1437 	 -14.0423 	 78.1833
| 27> C 	 12.2405 	 -14.8505 	 78.0445
| 28> H 	 8.97124 	 -14.4015 	 77.6641
| 29> C 	 11.0368 	 -12.6796 	 78.8711
| 30> H 	 10.6962 	 -12.0055 	 78.0905
| 31> H 	 12.049 	 -12.4634 	 78.9638
| 32> C 	 10.2725 	 -12.522 	 80.1698
| 33> H 	 10.7786 	 -13.1199 	 80.8912
| 34> H 	 9.22013 	 -12.7787 	 80.1448
| 35> C 	 10.3036 	 -11.0926 	 80.7311
| 36> H 	 9.70812 	 -10.4553 	 80.0338
| 37> H 	 11.2214 	 -10.6148 	 80.8739
| 38> H 	 9.7287 	 -10.9703 	 81.6793
| 39> H 	 17.0013 	 -15.0517 	 79.5204
| 40> H 	 9.45696 	 -16.7059 	 76.8639
| 41> *
| 42>
| 43>                          ****END OF INPUT****

CARTESIAN COORDINATES (ANGSTROEM)
---------------------------------
  S     14.564800  -15.734800   79.418100
  C     16.041800  -14.763500   79.142700
  C     15.782300  -13.703400   78.226200
  C     14.401100  -13.600700   77.850600
  C     13.612600  -14.618800   78.413800
  H     13.977600  -12.957500   77.107900
  C     16.849600  -12.772500   77.531900
  H     17.812900  -13.146800   77.882900
  H     16.772600  -11.734900   77.752100
  C     16.923700  -12.802300   76.007700
  H     17.100900  -13.812000   75.699200
  H     15.897200  -12.635300   75.540900
  C     18.013000  -11.801800   75.437100
  H     17.852700  -10.741600   75.617900
  H     18.933300  -12.016100   76.030400
  H     18.359900  -12.087900   74.444000
  S     11.864000  -16.441400   77.364900
  C     10.216600  -16.046800   77.179900
  C      9.962300  -14.733700   77.683200
  C     11.143700  -14.042300   78.183300
  C     12.240500  -14.850500   78.044500
  H      8.971240  -14.401500   77.664100
  C     11.036800  -12.679600   78.871100
  H     10.696200  -12.005500   78.090500
  H     12.049000  -12.463400   78.963800
  C     10.272500  -12.522000   80.169800
  H     10.778600  -13.119900   80.891200
  H      9.220130  -12.778700   80.144800
  C     10.303600  -11.092600   80.731100
  H      9.708120  -10.455300   80.033800
  H     11.221400  -10.614800   80.873900
  H      9.728700  -10.970300   81.679300
  H     17.001300  -15.051700   79.520400
  H      9.456960  -16.705900   76.863900

 Total Charge           Charge          ....    0
 Multiplicity           Mult            ....    1
 Number of Electrons    NEL             ....  134
 Basis Dimension        Dim             ....  322

ORBITAL ENERGIES
----------------

  NO   OCC          E(Eh)            E(eV)
   0   2.0000     -88.971777     -2421.0451
   1   2.0000     -88.965005     -2420.8609
   2   2.0000     -10.332232      -281.1543
   3   2.0000     -10.324182      -280.9353
   4   2.0000     -10.323741      -280.9233
   5   2.0000     -10.315081      -280.6876
   6   2.0000     -10.313794      -280.6526
   7   2.0000     -10.305475      -280.4262
   8   2.0000     -10.296945      -280.1941
   9   2.0000     -10.294297      -280.1221
  10   2.0000     -10.292864      -280.0831
  11   2.0000     -10.292779      -280.0807
  12   2.0000     -10.287412      -279.9347
  13   2.0000     -10.286154      -279.9005
  14   2.0000     -10.284878      -279.8658
  15   2.0000     -10.277004      -279.6515
  16   2.0000      -8.085138      -220.0078
  17   2.0000      -8.080263      -219.8751
  18   2.0000      -6.043692      -164.4572
  19   2.0000      -6.039851      -164.3527
  20   2.0000      -6.038673      -164.3207
  21   2.0000      -6.035909      -164.2454
  22   2.0000      -6.034672      -164.2118
  23   2.0000      -6.031123      -164.1152
  24   2.0000      -1.002583       -27.2817
  25   2.0000      -0.974502       -26.5175
  26   2.0000      -0.911933       -24.8150
  27   2.0000      -0.905179       -24.6312
  28   2.0000      -0.867908       -23.6170
  29   2.0000      -0.852340       -23.1934
  30   2.0000      -0.842753       -22.9325
  31   2.0000      -0.806372       -21.9425
  32   2.0000      -0.785180       -21.3658
  33   2.0000      -0.772806       -21.0291
  34   2.0000      -0.709758       -19.3135
  35   2.0000      -0.702413       -19.1136
  36   2.0000      -0.696188       -18.9442
  37   2.0000      -0.663163       -18.0456
  38   2.0000      -0.644472       -17.5370
  39   2.0000      -0.617697       -16.8084
  40   2.0000      -0.592086       -16.1115
  41   2.0000      -0.572845       -15.5879
  42   2.0000      -0.570755       -15.5310
  43   2.0000      -0.552977       -15.0473
  44   2.0000      -0.531164       -14.4537
  45   2.0000      -0.518514       -14.1095
  46   2.0000      -0.514273       -13.9941
  47   2.0000      -0.511997       -13.9322
  48   2.0000      -0.505555       -13.7568
  49   2.0000      -0.498957       -13.5773
  50   2.0000      -0.495288       -13.4775
  51   2.0000      -0.475777       -12.9466
  52   2.0000      -0.469422       -12.7736
  53   2.0000      -0.463285       -12.6066
  54   2.0000      -0.458264       -12.4700
  55   2.0000      -0.449334       -12.2270
  56   2.0000      -0.447749       -12.1839
  57   2.0000      -0.436716       -11.8836
  58   2.0000      -0.431726       -11.7479
  59   2.0000      -0.424721       -11.5572
  60   2.0000      -0.422787       -11.5046
  61   2.0000      -0.417904       -11.3717
  62   2.0000      -0.412879       -11.2350
  63   2.0000      -0.343992        -9.3605
  64   2.0000      -0.335014        -9.1162
  65   2.0000      -0.326302        -8.8791
  66   2.0000      -0.291328        -7.9274
  67   0.0000       0.028234         0.7683
  68   0.0000       0.064320         1.7502
  69   0.0000       0.111913         3.0453
  70   0.0000       0.122331         3.3288
  71   0.0000       0.125784         3.4228

MULLIKEN ATOMIC CHARGES
-----------------------
   0 S :    0.111163
   1 C :   -0.119672
   2 C :   -0.074818
   3 C :    0.041457
   4 C :   -0.171703
   5 H :    0.020243
   6 C :    0.082292
   7 H :    0.011468
   8 H :    0.028591
   9 C :   -0.099740
  10 H :    0.022138
  11 H :    0.035728
  12 C :   -0.054739
  13 H :    0.046030
  14 H :    0.018291
  15 H :    0.041821
  16 S :    0.118293
  17 C :   -0.086952
  18 C :   -0.032219
  19 C :   -0.046661
  20 C :   -0.179734
  21 H :   -0.003937
  22 C :    0.134564
  23 H :    0.021264
  24 H :   -0.010812
  25 C :   -0.019561
  26 H :    0.028240
  27 H :    0.030489
  28 C :   -0.068065
  29 H :    0.020410
  30 H :    0.025712
  31 H :    0.036322
  32 H :    0.046043
  33 H :    0.048056
Sum of atomic charges:   -0.0000000

LOEWDIN ATOMIC CHARGES
----------------------
   0 S :    0.386963
   1 C :   -0.188001
   2 C :   -0.053131
   3 C :   -0.058106
   4 C :   -0.186904
   5 H :    0.030459
   6 C :   -0.028185
   7 H :    0.026494
   8 H :    0.025098
   9 C :   -0.043737
  10 H :    0.020131
  11 H :    0.024943
  12 C :   -0.070330
  13 H :    0.027110
  14 H :    0.028822
  15 H :    0.030574
  16 S :    0.417020
  17 C :   -0.195939
  18 C :   -0.062794
  19 C :   -0.048918
  20 C :   -0.199921
  21 H :    0.017492
  22 C :   -0.026610
  23 H :    0.032418
  24 H :    0.022087
  25 C :   -0.031366
  26 H :    0.025307
  27 H :    0.026770
  28 C :   -0.065181
  29 H :    0.025287
  30 H :    0.014602
  31 H :    0.032019
  32 H :    0.023373
  33 H :    0.022153

  Mayer bond orders larger than 0.100000
B(  0-S ,  1-C ) :   1.1289 B(  0-S ,  4-C ) :   1.1490 B(  1-C ,  2-C ) :   1.6029
B(  1-C ,  4-C ) :   0.1020 B(  1-C , 32-H ) :   0.9718 B(  2-C ,  3-C ) :   1.2428
B(  2-C ,  6-C ) :   1.0162 B(  3-C ,  4-C ) :   1.5602 B(  3-C ,  5-H ) :   0.9899
B(  4-C , 20-C ) :   1.0523 B(  6-C ,  7-H ) :   0.9415 B(  6-C ,  8-H ) :   0.9484
B(  6-C ,  9-C ) :   1.0593 B(  9-C , 10-H ) :   0.9558 B(  9-C , 11-H ) :   0.9555
B(  9-C , 12-C ) :   1.0669 B( 12-C , 13-H ) :   0.9772 B( 12-C , 14-H ) :   0.9719
B( 12-C , 15-H ) :   0.9752 B( 16-S , 17-C ) :   1.1654 B( 16-S , 20-C ) :   1.1383
B( 17-C , 18-C ) :   1.5982 B( 17-C , 33-H ) :   0.9742 B( 18-C , 19-C ) :   1.2178
B( 18-C , 21-H ) :   1.0003 B( 19-C , 20-C ) :   1.6080 B( 19-C , 22-C ) :   1.0311
B( 22-C , 23-H ) :   0.9238 B( 22-C , 24-H ) :   0.9143 B( 22-C , 25-C ) :   1.0748
B( 25-C , 26-H ) :   0.9514 B( 25-C , 27-H ) :   0.9541 B( 25-C , 28-C ) :   1.0848
B( 28-C , 29-H ) :   0.9743 B( 28-C , 30-H ) :   0.9785 B( 28-C , 31-H ) :   0.9739

Dispersion correction           -0.013405611
FINAL SINGLE POINT ENERGY     -1339.866660635500

DIPOLE MOMENT
-------------
                                X             Y             Z
Electronic contribution:     -5.20452     -24.99419       2.07229
Nuclear contribution   :      5.23280      25.45264      -2.20141
                        -----------------------------------------
Total Dipole Moment    :      0.02828       0.45845      -0.12912
                        -----------------------------------------
Magnitude (a.u.)       :      0.47713
Magnitude (Debye)      :      1.21277

Rotational constants in cm-1:     0.016666     0.007754     0.006674
Rotational constants in MHz :   499.634868   232.460377   200.082966

                             ****ORCA TERMINATED NORMALLY****
TOTAL RUN TIME: 0 days 0 hours 0 minutes 28 seconds 813 msec
