                         Program Version 4.2.1 -  RELEASE  -
|  1> ! wB97X-D3 SP def2-SVP
|  2> %pal
|  3> nprocs 16
|  4> end
|  5>
|  6> * xyz 0 1
|  7> S 	 0.972789 	 75.7895 	 45.3598
|  8> C 	 1.068 	 76.4745 	 46.8877
|  9> C 	 -0.0747795 	 76.3147 	 47.6455
| 10> C 	 -0.923052 	 75.3204 	 47.0292
| 11> C 	 -0.375634 	 74.7638 	 45.8791
| 12> H 	 -1.83117 	 74.7939 	 47.3389
| 13> C 	 -0.3401 	 77.0618 	 48.9128
| 14> H 	 -1.36127 	 77.3967 	 48.7272
| 15> H 	 0.300742 	 77.9335 	 48.9124
| 16> C 	 -0.329031 	 76.1997 	 50.214
| 17> H 	 -0.506412 	 76.9451 	 51.042
| 18> H 	 -1.26712 	 75.6352 	 50.12
| 19> C 	 0.816501 	 75.1926 	 50.394
| 20> H 	 0.861275 	 74.3592 	 49.6609
| 21> H 	 1.83621 	 75.641 	 50.3318
| 22> H 	 0.618252 	 74.8002 	 51.4275
| 23> S 	 -0.906222 	 73.7702 	 43.3749
| 24> C 	 -1.83357 	 72.3001 	 43.1987
| 25> C 	 -2.15416 	 71.7162 	 44.4425
| 26> C 	 -1.69065 	 72.5202 	 45.5099
| 27> C 	 -1.00948 	 73.6441 	 45.1145
| 28> H 	 -2.54247 	 70.7144 	 44.4415
| 29> C 	 -1.87862 	 72.0056 	 46.9489
| 30> H 	 -2.44886 	 71.0397 	 46.7984
| 31> H 	 -2.37583 	 72.7449 	 47.5736
| 32> C 	 -0.531749 	 71.6978 	 47.602
| 33> H 	 -0.75109 	 71.4178 	 48.6041
| 34> H 	 0.0843937 	 72.676 	 47.5883
| 35> C 	 0.318891 	 70.6326 	 46.9321
| 36> H 	 1.14178 	 70.2399 	 47.5612
| 37> H 	 0.645388 	 70.8163 	 45.9293
| 38> H 	 -0.36152 	 69.7479 	 46.8144
| 39> H 	 1.73006 	 77.2218 	 47.2943
| 40> H 	 -2.08114 	 71.8164 	 42.2073
| 41> *
| 42>
| 43>                          ****END OF INPUT****

CARTESIAN COORDINATES (ANGSTROEM)
---------------------------------
  S      0.972789   75.789500   45.359800
  C      1.068000   76.474500   46.887700
  C     -0.074779   76.314700   47.645500
  C     -0.923052   75.320400   47.029200
  C     -0.375634   74.763800   45.879100
  H     -1.831170   74.793900   47.338900
  C     -0.340100   77.061800   48.912800
  H     -1.361270   77.396700   48.727200
  H      0.300742   77.933500   48.912400
  C     -0.329031   76.199700   50.214000
  H     -0.506412   76.945100   51.042000
  H     -1.267120   75.635200   50.120000
  C      0.816501   75.192600   50.394000
  H      0.861275   74.359200   49.660900
  H      1.836210   75.641000   50.331800
  H      0.618252   74.800200   51.427500
  S     -0.906222   73.770200   43.374900
  C     -1.833570   72.300100   43.198700
  C     -2.154160   71.716200   44.442500
  C     -1.690650   72.520200   45.509900
  C     -1.009480   73.644100   45.114500
  H     -2.542470   70.714400   44.441500
  C     -1.878620   72.005600   46.948900
  H     -2.448860   71.039700   46.798400
  H     -2.375830   72.744900   47.573600
  C     -0.531749   71.697800   47.602000
  H     -0.751090   71.417800   48.604100
  H      0.084394   72.676000   47.588300
  C      0.318891   70.632600   46.932100
  H      1.141780   70.239900   47.561200
  H      0.645388   70.816300   45.929300
  H     -0.361520   69.747900   46.814400
  H      1.730060   77.221800   47.294300
  H     -2.081140   71.816400   42.207300

 Total Charge           Charge          ....    0
 Multiplicity           Mult            ....    1
 Number of Electrons    NEL             ....  134
 Basis Dimension        Dim             ....  322

ORBITAL ENERGIES
----------------

  NO   OCC          E(Eh)            E(eV)
   0   2.0000     -88.969002     -2420.9696
   1   2.0000     -88.968070     -2420.9443
   2   2.0000     -10.332703      -281.1671
   3   2.0000     -10.329640      -281.0838
   4   2.0000     -10.324632      -280.9475
   5   2.0000     -10.305286      -280.4211
   6   2.0000     -10.302866      -280.3552
   7   2.0000     -10.299295      -280.2581
   8   2.0000     -10.298275      -280.2303
   9   2.0000     -10.296452      -280.1807
  10   2.0000     -10.296031      -280.1692
  11   2.0000     -10.295785      -280.1625
  12   2.0000     -10.290599      -280.0214
  13   2.0000     -10.287144      -279.9274
  14   2.0000     -10.285039      -279.8701
  15   2.0000     -10.274896      -279.5941
  16   2.0000      -8.083818      -219.9719
  17   2.0000      -8.083503      -219.9633
  18   2.0000      -6.042245      -164.4178
  19   2.0000      -6.041987      -164.4108
  20   2.0000      -6.038324      -164.3111
  21   2.0000      -6.038210      -164.3081
  22   2.0000      -6.034675      -164.2119
  23   2.0000      -6.033949      -164.1921
  24   2.0000      -1.009750       -27.4767
  25   2.0000      -0.989685       -26.9307
  26   2.0000      -0.910925       -24.7875
  27   2.0000      -0.909140       -24.7389
  28   2.0000      -0.867739       -23.6124
  29   2.0000      -0.850807       -23.1516
  30   2.0000      -0.844030       -22.9672
  31   2.0000      -0.813936       -22.1483
  32   2.0000      -0.783484       -21.3197
  33   2.0000      -0.774297       -21.0697
  34   2.0000      -0.706775       -19.2323
  35   2.0000      -0.695847       -18.9350
  36   2.0000      -0.682068       -18.5600
  37   2.0000      -0.666427       -18.1344
  38   2.0000      -0.636763       -17.3272
  39   2.0000      -0.615196       -16.7403
  40   2.0000      -0.587584       -15.9890
  41   2.0000      -0.565982       -15.4011
  42   2.0000      -0.556241       -15.1361
  43   2.0000      -0.546732       -14.8773
  44   2.0000      -0.545027       -14.8309
  45   2.0000      -0.541831       -14.7440
  46   2.0000      -0.516877       -14.0649
  47   2.0000      -0.504681       -13.7331
  48   2.0000      -0.500392       -13.6164
  49   2.0000      -0.493515       -13.4292
  50   2.0000      -0.487193       -13.2572
  51   2.0000      -0.482073       -13.1179
  52   2.0000      -0.471511       -12.8305
  53   2.0000      -0.470137       -12.7931
  54   2.0000      -0.461725       -12.5642
  55   2.0000      -0.449760       -12.2386
  56   2.0000      -0.441763       -12.0210
  57   2.0000      -0.437267       -11.8986
  58   2.0000      -0.429890       -11.6979
  59   2.0000      -0.422542       -11.4979
  60   2.0000      -0.419227       -11.4078
  61   2.0000      -0.416359       -11.3297
  62   2.0000      -0.405784       -11.0420
  63   2.0000      -0.355317        -9.6687
  64   2.0000      -0.337150        -9.1743
  65   2.0000      -0.324645        -8.8340
  66   2.0000      -0.284284        -7.7358
  67   0.0000       0.023334         0.6349
  68   0.0000       0.072897         1.9836
  69   0.0000       0.100052         2.7226
  70   0.0000       0.121345         3.3020
  71   0.0000       0.125296         3.4095

MULLIKEN ATOMIC CHARGES
-----------------------
   0 S :    0.123480
   1 C :   -0.082293
   2 C :   -0.137132
   3 C :    0.008696
   4 C :   -0.142230
   5 H :    0.005269
   6 C :    0.088329
   7 H :    0.033253
   8 H :    0.014695
   9 C :   -0.088152
  10 H :    0.045237
  11 H :    0.027421
  12 C :   -0.066015
  13 H :    0.053578
  14 H :    0.037301
  15 H :    0.046423
  16 S :    0.107418
  17 C :   -0.121012
  18 C :   -0.046009
  19 C :   -0.060510
  20 C :   -0.151811
  21 H :    0.023588
  22 C :    0.062745
  23 H :    0.028224
  24 H :    0.037608
  25 C :   -0.092446
  26 H :    0.022789
  27 H :    0.069384
  28 C :   -0.051620
  29 H :    0.042652
  30 H :    0.043036
  31 H :    0.006905
  32 H :    0.034095
  33 H :    0.077102
Sum of atomic charges:   -0.0000000

LOEWDIN ATOMIC CHARGES
----------------------
   0 S :    0.416827
   1 C :   -0.222957
   2 C :   -0.064062
   3 C :   -0.066943
   4 C :   -0.187964
   5 H :    0.031127
   6 C :   -0.035811
   7 H :    0.038616
   8 H :    0.023770
   9 C :   -0.046649
  10 H :    0.032262
  11 H :    0.025652
  12 C :   -0.075929
  13 H :    0.032175
  14 H :    0.027589
  15 H :    0.036083
  16 S :    0.410734
  17 C :   -0.193619
  18 C :   -0.074753
  19 C :   -0.065435
  20 C :   -0.195329
  21 H :    0.033293
  22 C :   -0.026841
  23 H :    0.034488
  24 H :    0.027819
  25 C :   -0.046056
  26 H :    0.018470
  27 H :    0.035640
  28 C :   -0.069834
  29 H :    0.031865
  30 H :    0.023782
  31 H :    0.022625
  32 H :    0.029119
  33 H :    0.040247

  Mayer bond orders larger than 0.100000
B(  0-S ,  1-C ) :   1.1439 B(  0-S ,  4-C ) :   1.1369 B(  1-C ,  2-C ) :   1.6181
B(  1-C , 32-H ) :   0.9595 B(  2-C ,  3-C ) :   1.2062 B(  2-C ,  6-C ) :   1.0285
B(  3-C ,  4-C ) :   1.5760 B(  3-C ,  5-H ) :   0.9961 B(  4-C , 20-C ) :   1.0487
B(  6-C ,  7-H ) :   0.9371 B(  6-C ,  8-H ) :   0.9363 B(  6-C ,  9-C ) :   1.0563
B(  9-C , 10-H ) :   0.9591 B(  9-C , 11-H ) :   0.9540 B(  9-C , 12-C ) :   1.0709
B( 12-C , 13-H ) :   0.9667 B( 12-C , 14-H ) :   0.9771 B( 12-C , 15-H ) :   0.9716
B( 16-S , 17-C ) :   1.1723 B( 16-S , 20-C ) :   1.1384 B( 17-C , 18-C ) :   1.5964
B( 17-C , 20-C ) :   0.1026 B( 17-C , 33-H ) :   0.9585 B( 18-C , 19-C ) :   1.2547
B( 18-C , 21-H ) :   0.9898 B( 19-C , 20-C ) :   1.6005 B( 19-C , 22-C ) :   1.0271
B( 22-C , 23-H ) :   0.9350 B( 22-C , 24-H ) :   0.9316 B( 22-C , 25-C ) :   1.0791
B( 25-C , 26-H ) :   0.9545 B( 25-C , 27-H ) :   0.9447 B( 25-C , 28-C ) :   1.0730
B( 28-C , 29-H ) :   0.9736 B( 28-C , 30-H ) :   0.9742 B( 28-C , 31-H ) :   0.9710

Dispersion correction           -0.016045926
FINAL SINGLE POINT ENERGY     -1339.868327514807

DIPOLE MOMENT
-------------
                                X             Y             Z
Electronic contribution:     -0.07236       8.35879     -26.26022
Nuclear contribution   :     -0.16334      -8.55473      26.78922
                        -----------------------------------------
Total Dipole Moment    :     -0.23570      -0.19595       0.52899
                        -----------------------------------------
Magnitude (a.u.)       :      0.61138
Magnitude (Debye)      :      1.55399

Rotational constants in cm-1:     0.020443     0.009811     0.007611
Rotational constants in MHz :   612.870382   294.132312   228.163777

                             ****ORCA TERMINATED NORMALLY****
TOTAL RUN TIME: 0 days 0 hours 0 minutes 37 seconds 440 msec
