                         Program Version 4.2.1 -  RELEASE  -
|  1> ! wB97X-D3 SP def2-SVP
|  2> %pal
|  3> nprocs 16
|  4> end
|  5>
|  6> * xyz 0 1
|  7> S 	 6.01492 	 -16.4911 	 67.8176
|  8> C 	 6.54393 	 -18.0949 	 68.0122
|  9> C 	 7.76932 	 -18.0724 	 68.6038
| 10> C 	 8.1959 	 -16.7837 	 69.0906
| 11> C 	 7.40246 	 -15.7797 	 68.6078
| 12> H 	 9.06928 	 -16.5084 	 69.6502
| 13> C 	 8.66175 	 -19.2459 	 68.7194
| 14> H 	 8.14734 	 -20.1398 	 68.6143
| 15> H 	 9.14633 	 -19.2666 	 69.7007
| 16> C 	 9.78805 	 -19.3054 	 67.6979
| 17> H 	 10.4949 	 -18.4777 	 67.8892
| 18> H 	 10.343 	 -20.1792 	 67.8202
| 19> C 	 9.42553 	 -19.159 	 66.2082
| 20> H 	 8.53296 	 -19.8632 	 66.1417
| 21> H 	 9.2258 	 -18.1493 	 65.8193
| 22> H 	 10.2052 	 -19.6294 	 65.5554
| 23> S 	 6.117 	 -13.8714 	 70.0475
| 24> C 	 6.67863 	 -12.2705 	 70.1451
| 25> C 	 8.00225 	 -12.2569 	 69.7401
| 26> C 	 8.43835 	 -13.5153 	 69.119
| 27> C 	 7.40971 	 -14.3833 	 69.003
| 28> H 	 8.58176 	 -11.3923 	 69.8985
| 29> C 	 9.8492 	 -13.7004 	 68.5786
| 30> H 	 10.0128 	 -14.7688 	 68.309
| 31> H 	 10.4735 	 -13.6173 	 69.45
| 32> C 	 10.3447 	 -12.6834 	 67.5441
| 33> H 	 11.262 	 -13.0989 	 67.1612
| 34> H 	 10.6155 	 -11.7426 	 67.9927
| 35> C 	 9.40283 	 -12.357 	 66.4117
| 36> H 	 8.51723 	 -11.8627 	 66.8632
| 37> H 	 9.0345 	 -13.1281 	 65.809
| 38> H 	 9.75418 	 -11.7664 	 65.6058
| 39> H 	 6.22317 	 -19.0669 	 67.5849
| 40> H 	 6.02886 	 -11.4007 	 70.4958
| 41> *
| 42>
| 43>                          ****END OF INPUT****

CARTESIAN COORDINATES (ANGSTROEM)
---------------------------------
  S      6.014920  -16.491100   67.817600
  C      6.543930  -18.094900   68.012200
  C      7.769320  -18.072400   68.603800
  C      8.195900  -16.783700   69.090600
  C      7.402460  -15.779700   68.607800
  H      9.069280  -16.508400   69.650200
  C      8.661750  -19.245900   68.719400
  H      8.147340  -20.139800   68.614300
  H      9.146330  -19.266600   69.700700
  C      9.788050  -19.305400   67.697900
  H     10.494900  -18.477700   67.889200
  H     10.343000  -20.179200   67.820200
  C      9.425530  -19.159000   66.208200
  H      8.532960  -19.863200   66.141700
  H      9.225800  -18.149300   65.819300
  H     10.205200  -19.629400   65.555400
  S      6.117000  -13.871400   70.047500
  C      6.678630  -12.270500   70.145100
  C      8.002250  -12.256900   69.740100
  C      8.438350  -13.515300   69.119000
  C      7.409710  -14.383300   69.003000
  H      8.581760  -11.392300   69.898500
  C      9.849200  -13.700400   68.578600
  H     10.012800  -14.768800   68.309000
  H     10.473500  -13.617300   69.450000
  C     10.344700  -12.683400   67.544100
  H     11.262000  -13.098900   67.161200
  H     10.615500  -11.742600   67.992700
  C      9.402830  -12.357000   66.411700
  H      8.517230  -11.862700   66.863200
  H      9.034500  -13.128100   65.809000
  H      9.754180  -11.766400   65.605800
  H      6.223170  -19.066900   67.584900
  H      6.028860  -11.400700   70.495800

 Total Charge           Charge          ....    0
 Multiplicity           Mult            ....    1
 Number of Electrons    NEL             ....  134
 Basis Dimension        Dim             ....  322

ORBITAL ENERGIES
----------------

  NO   OCC          E(Eh)            E(eV)
   0   2.0000     -88.963553     -2420.8213
   1   2.0000     -88.956037     -2420.6168
   2   2.0000     -10.325930      -280.9828
   3   2.0000     -10.319736      -280.8143
   4   2.0000     -10.318898      -280.7915
   5   2.0000     -10.311463      -280.5892
   6   2.0000     -10.303571      -280.3744
   7   2.0000     -10.295142      -280.1451
   8   2.0000     -10.293758      -280.1074
   9   2.0000     -10.293260      -280.0939
  10   2.0000     -10.293088      -280.0892
  11   2.0000     -10.284537      -279.8565
  12   2.0000     -10.284183      -279.8469
  13   2.0000     -10.282052      -279.7888
  14   2.0000     -10.280640      -279.7504
  15   2.0000     -10.263184      -279.2754
  16   2.0000      -8.079098      -219.8434
  17   2.0000      -8.072564      -219.6656
  18   2.0000      -6.037676      -164.2935
  19   2.0000      -6.033310      -164.1747
  20   2.0000      -6.031114      -164.1150
  21   2.0000      -6.029871      -164.0811
  22   2.0000      -6.026941      -164.0014
  23   2.0000      -6.023002      -163.8942
  24   2.0000      -1.016577       -27.6625
  25   2.0000      -0.993923       -27.0460
  26   2.0000      -0.917455       -24.9652
  27   2.0000      -0.910947       -24.7881
  28   2.0000      -0.875882       -23.8340
  29   2.0000      -0.849185       -23.1075
  30   2.0000      -0.843195       -22.9445
  31   2.0000      -0.817184       -22.2367
  32   2.0000      -0.788258       -21.4496
  33   2.0000      -0.778176       -21.1753
  34   2.0000      -0.712243       -19.3811
  35   2.0000      -0.698447       -19.0057
  36   2.0000      -0.690624       -18.7928
  37   2.0000      -0.659851       -17.9555
  38   2.0000      -0.642052       -17.4711
  39   2.0000      -0.622059       -16.9271
  40   2.0000      -0.597897       -16.2696
  41   2.0000      -0.572715       -15.5844
  42   2.0000      -0.553200       -15.0533
  43   2.0000      -0.551787       -15.0149
  44   2.0000      -0.550497       -14.9798
  45   2.0000      -0.542244       -14.7552
  46   2.0000      -0.521329       -14.1861
  47   2.0000      -0.512080       -13.9344
  48   2.0000      -0.508131       -13.8269
  49   2.0000      -0.499642       -13.5959
  50   2.0000      -0.493994       -13.4422
  51   2.0000      -0.474467       -12.9109
  52   2.0000      -0.471998       -12.8437
  53   2.0000      -0.469946       -12.7879
  54   2.0000      -0.462191       -12.5769
  55   2.0000      -0.447989       -12.1904
  56   2.0000      -0.440249       -11.9798
  57   2.0000      -0.436030       -11.8650
  58   2.0000      -0.434126       -11.8132
  59   2.0000      -0.420174       -11.4335
  60   2.0000      -0.415638       -11.3101
  61   2.0000      -0.411904       -11.2085
  62   2.0000      -0.405590       -11.0367
  63   2.0000      -0.348936        -9.4950
  64   2.0000      -0.326437        -8.8828
  65   2.0000      -0.317711        -8.6453
  66   2.0000      -0.304485        -8.2855
  67   0.0000       0.032217         0.8767
  68   0.0000       0.076103         2.0709
  69   0.0000       0.106167         2.8890
  70   0.0000       0.125968         3.4278
  71   0.0000       0.129945         3.5360

MULLIKEN ATOMIC CHARGES
-----------------------
   0 S :    0.111218
   1 C :   -0.088734
   2 C :   -0.126661
   3 C :    0.045671
   4 C :   -0.176805
   5 H :    0.014692
   6 C :    0.108844
   7 H :   -0.006812
   8 H :    0.025517
   9 C :   -0.063210
  10 H :    0.017766
  11 H :    0.017762
  12 C :   -0.085511
  13 H :    0.019013
  14 H :    0.058074
  15 H :    0.040189
  16 S :    0.100668
  17 C :   -0.114165
  18 C :   -0.025552
  19 C :   -0.076190
  20 C :   -0.124051
  21 H :    0.001921
  22 C :    0.085610
  23 H :    0.022400
  24 H :    0.024129
  25 C :   -0.033294
  26 H :    0.019951
  27 H :    0.023531
  28 C :   -0.027661
  29 H :    0.037326
  30 H :    0.009290
  31 H :    0.016736
  32 H :    0.056691
  33 H :    0.091649
Sum of atomic charges:    0.0000000

LOEWDIN ATOMIC CHARGES
----------------------
   0 S :    0.427635
   1 C :   -0.217076
   2 C :   -0.067861
   3 C :   -0.053652
   4 C :   -0.196808
   5 H :    0.030268
   6 C :   -0.029956
   7 H :    0.016236
   8 H :    0.036616
   9 C :   -0.039836
  10 H :    0.020230
  11 H :    0.017211
  12 C :   -0.074214
  13 H :    0.025361
  14 H :    0.029399
  15 H :    0.031303
  16 S :    0.419510
  17 C :   -0.204574
  18 C :   -0.072635
  19 C :   -0.054979
  20 C :   -0.206208
  21 H :    0.020631
  22 C :   -0.033150
  23 H :    0.032222
  24 H :    0.034435
  25 C :   -0.035484
  26 H :    0.024604
  27 H :    0.023407
  28 C :   -0.070590
  29 H :    0.032278
  30 H :    0.019213
  31 H :    0.023591
  32 H :    0.043619
  33 H :    0.049257

  Mayer bond orders larger than 0.100000
B(  0-S ,  1-C ) :   1.1367 B(  0-S ,  4-C ) :   1.1548 B(  1-C ,  2-C ) :   1.6200
B(  1-C , 32-H ) :   0.9582 B(  2-C ,  3-C ) :   1.2165 B(  2-C ,  6-C ) :   1.0539
B(  3-C ,  4-C ) :   1.5742 B(  3-C ,  5-H ) :   0.9950 B(  4-C , 20-C ) :   1.0155
B(  6-C ,  7-H ) :   0.9310 B(  6-C ,  8-H ) :   0.9320 B(  6-C ,  9-C ) :   1.0818
B(  9-C , 10-H ) :   0.9524 B(  9-C , 11-H ) :   0.9560 B(  9-C , 12-C ) :   1.0695
B( 12-C , 13-H ) :   0.9758 B( 12-C , 14-H ) :   0.9741 B( 12-C , 15-H ) :   0.9741
B( 16-S , 17-C ) :   1.1636 B( 16-S , 20-C ) :   1.1475 B( 17-C , 18-C ) :   1.5967
B( 17-C , 33-H ) :   0.9618 B( 18-C , 19-C ) :   1.2044 B( 18-C , 21-H ) :   1.0043
B( 19-C , 20-C ) :   1.6168 B( 19-C , 22-C ) :   1.0477 B( 22-C , 23-H ) :   0.9328
B( 22-C , 24-H ) :   0.9244 B( 22-C , 25-C ) :   1.0735 B( 25-C , 26-H ) :   0.9515
B( 25-C , 27-H ) :   0.9514 B( 25-C , 28-C ) :   1.0875 B( 28-C , 29-H ) :   0.9663
B( 28-C , 30-H ) :   0.9719 B( 28-C , 31-H ) :   0.9705

Dispersion correction           -0.015106867
FINAL SINGLE POINT ENERGY     -1339.859296121027

DIPOLE MOMENT
-------------
                                X             Y             Z
Electronic contribution:    -21.79617       5.20305      11.69542
Nuclear contribution   :     22.53428      -5.30431     -11.66458
                        -----------------------------------------
Total Dipole Moment    :      0.73811      -0.10126       0.03085
                        -----------------------------------------
Magnitude (a.u.)       :      0.74566
Magnitude (Debye)      :      1.89531

Rotational constants in cm-1:     0.020182     0.009213     0.007328
Rotational constants in MHz :   605.050803   276.194974   219.680005

                             ****ORCA TERMINATED NORMALLY****
TOTAL RUN TIME: 0 days 0 hours 0 minutes 36 seconds 334 msec
