                         Program Version 4.2.1 -  RELEASE  -
|  1> ! wB97X-D3 SP def2-SVP
|  2> %pal
|  3> nprocs 16
|  4> end
|  5>
|  6> * xyz 0 1
|  7> S 	 -3.42697 	 13.5649 	 86.4249
|  8> C 	 -5.12833 	 13.1982 	 86.7417
|  9> C 	 -5.80657 	 14.2207 	 87.4003
| 10> C 	 -4.88515 	 15.1563 	 87.847
| 11> C 	 -3.55542 	 14.9148 	 87.5355
| 12> H 	 -5.15812 	 15.9958 	 88.4629
| 13> C 	 -7.29507 	 14.2237 	 87.7901
| 14> H 	 -7.93525 	 13.8365 	 87.0035
| 15> H 	 -7.61622 	 15.2247 	 88.0558
| 16> C 	 -7.58911 	 13.6152 	 89.1481
| 17> H 	 -8.66189 	 13.6165 	 89.2813
| 18> H 	 -7.39657 	 12.5474 	 89.194
| 19> C 	 -6.93801 	 14.2842 	 90.4414
| 20> H 	 -7.23502 	 13.8302 	 91.3959
| 21> H 	 -5.88786 	 14.3209 	 90.4335
| 22> H 	 -7.21203 	 15.3342 	 90.4194
| 23> S 	 -1.36486 	 16.4409 	 86.6196
| 24> C 	 -0.549065 	 17.464 	 87.7491
| 25> C 	 -0.885496 	 17.1592 	 89.022
| 26> C 	 -2.00156 	 16.2634 	 89.1323
| 27> C 	 -2.44947 	 15.7946 	 87.8895
| 28> H 	 -0.409194 	 17.6932 	 89.8158
| 29> C 	 -2.63656 	 15.9214 	 90.5053
| 30> H 	 -3.63147 	 15.6058 	 90.2922
| 31> H 	 -2.51322 	 16.805 	 91.1087
| 32> C 	 -1.92164 	 14.751 	 91.1509
| 33> H 	 -1.83959 	 13.9424 	 90.4501
| 34> H 	 -2.48614 	 14.2257 	 91.971
| 35> C 	 -0.47813 	 15.0198 	 91.5845
| 36> H 	 -0.0744632 	 14.0684 	 91.906
| 37> H 	 -0.279194 	 15.7214 	 92.4186
| 38> H 	 0.218311 	 15.2398 	 90.7198
| 39> H 	 -5.60006 	 12.2793 	 86.4094
| 40> H 	 0.375091 	 17.9293 	 87.4119
| 41> *
| 42>
| 43>                          ****END OF INPUT****

CARTESIAN COORDINATES (ANGSTROEM)
---------------------------------
  S     -3.426970   13.564900   86.424900
  C     -5.128330   13.198200   86.741700
  C     -5.806570   14.220700   87.400300
  C     -4.885150   15.156300   87.847000
  C     -3.555420   14.914800   87.535500
  H     -5.158120   15.995800   88.462900
  C     -7.295070   14.223700   87.790100
  H     -7.935250   13.836500   87.003500
  H     -7.616220   15.224700   88.055800
  C     -7.589110   13.615200   89.148100
  H     -8.661890   13.616500   89.281300
  H     -7.396570   12.547400   89.194000
  C     -6.938010   14.284200   90.441400
  H     -7.235020   13.830200   91.395900
  H     -5.887860   14.320900   90.433500
  H     -7.212030   15.334200   90.419400
  S     -1.364860   16.440900   86.619600
  C     -0.549065   17.464000   87.749100
  C     -0.885496   17.159200   89.022000
  C     -2.001560   16.263400   89.132300
  C     -2.449470   15.794600   87.889500
  H     -0.409194   17.693200   89.815800
  C     -2.636560   15.921400   90.505300
  H     -3.631470   15.605800   90.292200
  H     -2.513220   16.805000   91.108700
  C     -1.921640   14.751000   91.150900
  H     -1.839590   13.942400   90.450100
  H     -2.486140   14.225700   91.971000
  C     -0.478130   15.019800   91.584500
  H     -0.074463   14.068400   91.906000
  H     -0.279194   15.721400   92.418600
  H      0.218311   15.239800   90.719800
  H     -5.600060   12.279300   86.409400
  H      0.375091   17.929300   87.411900

 Total Charge           Charge          ....    0
 Multiplicity           Mult            ....    1
 Number of Electrons    NEL             ....  134
 Basis Dimension        Dim             ....  322

ORBITAL ENERGIES
----------------

  NO   OCC          E(Eh)            E(eV)
   0   2.0000     -88.971875     -2421.0478
   1   2.0000     -88.959268     -2420.7048
   2   2.0000     -10.329988      -281.0933
   3   2.0000     -10.329632      -281.0836
   4   2.0000     -10.318078      -280.7692
   5   2.0000     -10.312099      -280.6065
   6   2.0000     -10.305304      -280.4216
   7   2.0000     -10.302430      -280.3434
   8   2.0000     -10.298755      -280.2434
   9   2.0000     -10.291312      -280.0408
  10   2.0000     -10.290370      -280.0152
  11   2.0000     -10.289793      -279.9995
  12   2.0000     -10.288865      -279.9743
  13   2.0000     -10.284382      -279.8523
  14   2.0000     -10.281495      -279.7737
  15   2.0000     -10.277794      -279.6730
  16   2.0000      -8.086093      -220.0338
  17   2.0000      -8.074339      -219.7139
  18   2.0000      -6.044512      -164.4795
  19   2.0000      -6.040807      -164.3787
  20   2.0000      -6.036852      -164.2711
  21   2.0000      -6.032787      -164.1605
  22   2.0000      -6.028863      -164.0537
  23   2.0000      -6.025089      -163.9510
  24   2.0000      -1.006002       -27.3747
  25   2.0000      -0.985305       -26.8115
  26   2.0000      -0.913658       -24.8619
  27   2.0000      -0.909187       -24.7402
  28   2.0000      -0.868175       -23.6243
  29   2.0000      -0.849975       -23.1290
  30   2.0000      -0.840381       -22.8679
  31   2.0000      -0.813179       -22.1277
  32   2.0000      -0.791363       -21.5341
  33   2.0000      -0.776178       -21.1209
  34   2.0000      -0.706783       -19.2326
  35   2.0000      -0.706013       -19.2116
  36   2.0000      -0.688889       -18.7456
  37   2.0000      -0.660374       -17.9697
  38   2.0000      -0.640413       -17.4265
  39   2.0000      -0.620929       -16.8963
  40   2.0000      -0.592726       -16.1289
  41   2.0000      -0.576320       -15.6825
  42   2.0000      -0.562143       -15.2967
  43   2.0000      -0.554050       -15.0765
  44   2.0000      -0.541051       -14.7227
  45   2.0000      -0.534357       -14.5406
  46   2.0000      -0.515106       -14.0168
  47   2.0000      -0.505484       -13.7549
  48   2.0000      -0.502058       -13.6617
  49   2.0000      -0.494597       -13.4587
  50   2.0000      -0.490278       -13.3411
  51   2.0000      -0.477737       -12.9999
  52   2.0000      -0.470439       -12.8013
  53   2.0000      -0.466442       -12.6925
  54   2.0000      -0.465530       -12.6677
  55   2.0000      -0.452711       -12.3189
  56   2.0000      -0.443429       -12.0663
  57   2.0000      -0.436673       -11.8825
  58   2.0000      -0.431931       -11.7534
  59   2.0000      -0.428613       -11.6631
  60   2.0000      -0.426629       -11.6092
  61   2.0000      -0.414091       -11.2680
  62   2.0000      -0.404856       -11.0167
  63   2.0000      -0.346399        -9.4260
  64   2.0000      -0.338370        -9.2075
  65   2.0000      -0.328343        -8.9347
  66   2.0000      -0.288536        -7.8515
  67   0.0000       0.027254         0.7416
  68   0.0000       0.062087         1.6895
  69   0.0000       0.106671         2.9027
  70   0.0000       0.121364         3.3025
  71   0.0000       0.129086         3.5126

MULLIKEN ATOMIC CHARGES
-----------------------
   0 S :    0.122201
   1 C :   -0.137316
   2 C :   -0.046300
   3 C :    0.009781
   4 C :   -0.156013
   5 H :    0.010408
   6 C :    0.090431
   7 H :    0.038222
   8 H :    0.016183
   9 C :   -0.077759
  10 H :    0.026315
  11 H :    0.018696
  12 C :   -0.051249
  13 H :    0.043568
  14 H :    0.032115
  15 H :    0.017751
  16 S :    0.081843
  17 C :   -0.089818
  18 C :   -0.027105
  19 C :   -0.095500
  20 C :   -0.156063
  21 H :    0.015704
  22 C :    0.176588
  23 H :    0.001102
  24 H :    0.024468
  25 C :   -0.070786
  26 H :    0.018827
  27 H :    0.033128
  28 C :   -0.086166
  29 H :    0.020147
  30 H :    0.037917
  31 H :    0.046102
  32 H :    0.045630
  33 H :    0.066945
Sum of atomic charges:    0.0000000

LOEWDIN ATOMIC CHARGES
----------------------
   0 S :    0.403934
   1 C :   -0.183175
   2 C :   -0.062298
   3 C :   -0.057605
   4 C :   -0.197761
   5 H :    0.028548
   6 C :   -0.026721
   7 H :    0.035191
   8 H :    0.032960
   9 C :   -0.037570
  10 H :    0.023645
  11 H :    0.016704
  12 C :   -0.062436
  13 H :    0.032868
  14 H :    0.016048
  15 H :    0.021470
  16 S :    0.384918
  17 C :   -0.188935
  18 C :   -0.074159
  19 C :   -0.050139
  20 C :   -0.187836
  21 H :    0.029343
  22 C :   -0.019866
  23 H :    0.025014
  24 H :    0.029045
  25 C :   -0.044492
  26 H :    0.025842
  27 H :    0.028677
  28 C :   -0.079194
  29 H :    0.025381
  30 H :    0.023312
  31 H :    0.033704
  32 H :    0.024759
  33 H :    0.030826

  Mayer bond orders larger than 0.100000
B(  0-S ,  1-C ) :   1.1520 B(  0-S ,  4-C ) :   1.1440 B(  1-C ,  2-C ) :   1.5794
B(  1-C ,  4-C ) :   0.1088 B(  1-C , 32-H ) :   0.9693 B(  2-C ,  3-C ) :   1.2736
B(  2-C ,  6-C ) :   1.0291 B(  3-C ,  4-C ) :   1.5494 B(  3-C ,  5-H ) :   0.9918
B(  4-C , 20-C ) :   1.0578 B(  6-C ,  7-H ) :   0.9388 B(  6-C ,  8-H ) :   0.9390
B(  6-C ,  9-C ) :   1.0673 B(  9-C , 10-H ) :   0.9563 B(  9-C , 11-H ) :   0.9544
B(  9-C , 12-C ) :   1.0693 B( 12-C , 13-H ) :   0.9719 B( 12-C , 14-H ) :   0.9775
B( 12-C , 15-H ) :   0.9736 B( 16-S , 17-C ) :   1.1563 B( 16-S , 20-C ) :   1.1327
B( 17-C , 18-C ) :   1.6197 B( 17-C , 33-H ) :   0.9596 B( 18-C , 19-C ) :   1.2369
B( 18-C , 21-H ) :   0.9904 B( 19-C , 20-C ) :   1.6038 B( 19-C , 22-C ) :   1.0283
B( 22-C , 23-H ) :   0.9188 B( 22-C , 24-H ) :   0.9372 B( 22-C , 25-C ) :   1.0780
B( 25-C , 26-H ) :   0.9478 B( 25-C , 27-H ) :   0.9559 B( 25-C , 28-C ) :   1.0861
B( 28-C , 29-H ) :   0.9692 B( 28-C , 30-H ) :   0.9762 B( 28-C , 31-H ) :   0.9669

Dispersion correction           -0.015418620
FINAL SINGLE POINT ENERGY     -1339.875017369178

DIPOLE MOMENT
-------------
                                X             Y             Z
Electronic contribution:     10.93574       3.07400     -24.76271
Nuclear contribution   :    -11.30630      -3.16858      25.32391
                        -----------------------------------------
Total Dipole Moment    :     -0.37056      -0.09457       0.56120
                        -----------------------------------------
Magnitude (a.u.)       :      0.67912
Magnitude (Debye)      :      1.72619

Rotational constants in cm-1:     0.018786     0.009521     0.007338
Rotational constants in MHz :   563.198685   285.429340   219.994124

                             ****ORCA TERMINATED NORMALLY****
TOTAL RUN TIME: 0 days 0 hours 0 minutes 36 seconds 408 msec
