                         Program Version 4.2.1 -  RELEASE  -
|  1> ! wB97X-D3 SP def2-SVP
|  2> %pal
|  3> nprocs 16
|  4> end
|  5>
|  6> * xyz 0 1
|  7> S 	 -34.8183 	 54.7716 	 101.388
|  8> C 	 -34.4319 	 54.0556 	 99.8211
|  9> C 	 -33.8775 	 54.9538 	 98.9581
| 10> C 	 -33.6729 	 56.1836 	 99.6271
| 11> C 	 -33.8699 	 56.2071 	 100.994
| 12> H 	 -33.1947 	 57.0759 	 99.1513
| 13> C 	 -33.39 	 54.7343 	 97.5
| 14> H 	 -32.2652 	 54.8338 	 97.4522
| 15> H 	 -33.8477 	 55.385 	 96.7782
| 16> C 	 -33.6654 	 53.3469 	 96.942
| 17> H 	 -33.5009 	 52.5282 	 97.6986
| 18> H 	 -34.7051 	 53.3646 	 96.6056
| 19> C 	 -32.7374 	 52.9618 	 95.813
| 20> H 	 -33.0091 	 52.0215 	 95.3603
| 21> H 	 -32.7076 	 53.7392 	 95.0603
| 22> H 	 -31.6929 	 52.8766 	 96.1805
| 23> S 	 -32.7514 	 56.6843 	 103.37
| 24> C 	 -32.8255 	 58.2672 	 104.085
| 25> C 	 -33.2699 	 59.2259 	 103.131
| 26> C 	 -33.7547 	 58.6695 	 101.964
| 27> C 	 -33.5919 	 57.2529 	 101.966
| 28> H 	 -33.2743 	 60.2689 	 103.334
| 29> C 	 -34.5112 	 59.5514 	 100.862
| 30> H 	 -34.8465 	 58.9007 	 100.09
| 31> H 	 -33.7456 	 60.3358 	 100.53
| 32> C 	 -35.72 	 60.3686 	 101.428
| 33> H 	 -35.2828 	 61.1784 	 102.081
| 34> H 	 -36.239 	 59.7007 	 102.099
| 35> C 	 -36.5667 	 60.9586 	 100.201
| 36> H 	 -35.9002 	 61.3996 	 99.494
| 37> H 	 -37.3781 	 61.6738 	 100.434
| 38> H 	 -37.0437 	 60.0653 	 99.7795
| 39> H 	 -34.7682 	 53.0963 	 99.556
| 40> H 	 -32.2827 	 58.6278 	 104.971
| 41> *
| 42>
| 43>                          ****END OF INPUT****

CARTESIAN COORDINATES (ANGSTROEM)
---------------------------------
  S    -34.818300   54.771600  101.388000
  C    -34.431900   54.055600   99.821100
  C    -33.877500   54.953800   98.958100
  C    -33.672900   56.183600   99.627100
  C    -33.869900   56.207100  100.994000
  H    -33.194700   57.075900   99.151300
  C    -33.390000   54.734300   97.500000
  H    -32.265200   54.833800   97.452200
  H    -33.847700   55.385000   96.778200
  C    -33.665400   53.346900   96.942000
  H    -33.500900   52.528200   97.698600
  H    -34.705100   53.364600   96.605600
  C    -32.737400   52.961800   95.813000
  H    -33.009100   52.021500   95.360300
  H    -32.707600   53.739200   95.060300
  H    -31.692900   52.876600   96.180500
  S    -32.751400   56.684300  103.370000
  C    -32.825500   58.267200  104.085000
  C    -33.269900   59.225900  103.131000
  C    -33.754700   58.669500  101.964000
  C    -33.591900   57.252900  101.966000
  H    -33.274300   60.268900  103.334000
  C    -34.511200   59.551400  100.862000
  H    -34.846500   58.900700  100.090000
  H    -33.745600   60.335800  100.530000
  C    -35.720000   60.368600  101.428000
  H    -35.282800   61.178400  102.081000
  H    -36.239000   59.700700  102.099000
  C    -36.566700   60.958600  100.201000
  H    -35.900200   61.399600   99.494000
  H    -37.378100   61.673800  100.434000
  H    -37.043700   60.065300   99.779500
  H    -34.768200   53.096300   99.556000
  H    -32.282700   58.627800  104.971000

 Total Charge           Charge          ....    0
 Multiplicity           Mult            ....    1
 Number of Electrons    NEL             ....  134
 Basis Dimension        Dim             ....  322

ORBITAL ENERGIES
----------------

  NO   OCC          E(Eh)            E(eV)
   0   2.0000     -88.972452     -2421.0635
   1   2.0000     -88.962545     -2420.7939
   2   2.0000     -10.329202      -281.0719
   3   2.0000     -10.328683      -281.0577
   4   2.0000     -10.319476      -280.8072
   5   2.0000     -10.310350      -280.5589
   6   2.0000     -10.308019      -280.4955
   7   2.0000     -10.303247      -280.3656
   8   2.0000     -10.302183      -280.3367
   9   2.0000     -10.299277      -280.2576
  10   2.0000     -10.295422      -280.1527
  11   2.0000     -10.292905      -280.0842
  12   2.0000     -10.292019      -280.0601
  13   2.0000     -10.287165      -279.9280
  14   2.0000     -10.285635      -279.8864
  15   2.0000     -10.278326      -279.6875
  16   2.0000      -8.087113      -220.0615
  17   2.0000      -8.077065      -219.7881
  18   2.0000      -6.045378      -164.5031
  19   2.0000      -6.041541      -164.3987
  20   2.0000      -6.038201      -164.3078
  21   2.0000      -6.035633      -164.2379
  22   2.0000      -6.031752      -164.1323
  23   2.0000      -6.027619      -164.0198
  24   2.0000      -1.007117       -27.4050
  25   2.0000      -0.984928       -26.8012
  26   2.0000      -0.915036       -24.8994
  27   2.0000      -0.898956       -24.4618
  28   2.0000      -0.869807       -23.6686
  29   2.0000      -0.847979       -23.0747
  30   2.0000      -0.844415       -22.9777
  31   2.0000      -0.807177       -21.9644
  32   2.0000      -0.781978       -21.2787
  33   2.0000      -0.771047       -20.9813
  34   2.0000      -0.706291       -19.2192
  35   2.0000      -0.699067       -19.0226
  36   2.0000      -0.687636       -18.7115
  37   2.0000      -0.661598       -18.0030
  38   2.0000      -0.639608       -17.4046
  39   2.0000      -0.612889       -16.6775
  40   2.0000      -0.590448       -16.0669
  41   2.0000      -0.580944       -15.8083
  42   2.0000      -0.566879       -15.4256
  43   2.0000      -0.564556       -15.3624
  44   2.0000      -0.522478       -14.2173
  45   2.0000      -0.519181       -14.1276
  46   2.0000      -0.513979       -13.9861
  47   2.0000      -0.511728       -13.9248
  48   2.0000      -0.499569       -13.5940
  49   2.0000      -0.496902       -13.5214
  50   2.0000      -0.489657       -13.3243
  51   2.0000      -0.479469       -13.0470
  52   2.0000      -0.476028       -12.9534
  53   2.0000      -0.464450       -12.6383
  54   2.0000      -0.457812       -12.4577
  55   2.0000      -0.448599       -12.2070
  56   2.0000      -0.442091       -12.0299
  57   2.0000      -0.432717       -11.7748
  58   2.0000      -0.428640       -11.6639
  59   2.0000      -0.424850       -11.5608
  60   2.0000      -0.423936       -11.5359
  61   2.0000      -0.420341       -11.4381
  62   2.0000      -0.419908       -11.4263
  63   2.0000      -0.344071        -9.3627
  64   2.0000      -0.338226        -9.2036
  65   2.0000      -0.327960        -8.9243
  66   2.0000      -0.288886        -7.8610
  67   0.0000       0.024601         0.6694
  68   0.0000       0.067148         1.8272
  69   0.0000       0.112265         3.0549
  70   0.0000       0.113925         3.1001
  71   0.0000       0.136928         3.7260

MULLIKEN ATOMIC CHARGES
-----------------------
   0 S :    0.101788
   1 C :   -0.116937
   2 C :   -0.060971
   3 C :    0.008467
   4 C :   -0.149649
   5 H :    0.024669
   6 C :    0.061030
   7 H :    0.044742
   8 H :    0.036561
   9 C :   -0.124698
  10 H :    0.039859
  11 H :    0.036104
  12 C :   -0.038619
  13 H :    0.034313
  14 H :    0.019687
  15 H :    0.033860
  16 S :    0.137397
  17 C :   -0.092394
  18 C :   -0.061603
  19 C :   -0.002440
  20 C :   -0.198816
  21 H :    0.008428
  22 C :    0.050468
  23 H :    0.021511
  24 H :    0.047953
  25 C :   -0.106319
  26 H :    0.034919
  27 H :    0.042528
  28 C :   -0.049190
  29 H :    0.031661
  30 H :    0.047546
  31 H :    0.039934
  32 H :    0.030977
  33 H :    0.067233
Sum of atomic charges:   -0.0000000

LOEWDIN ATOMIC CHARGES
----------------------
   0 S :    0.386426
   1 C :   -0.179075
   2 C :   -0.067029
   3 C :   -0.069323
   4 C :   -0.196423
   5 H :    0.034709
   6 C :   -0.027888
   7 H :    0.038450
   8 H :    0.031895
   9 C :   -0.050844
  10 H :    0.027516
  11 H :    0.023746
  12 C :   -0.062420
  13 H :    0.025607
  14 H :    0.018910
  15 H :    0.028343
  16 S :    0.445604
  17 C :   -0.205407
  18 C :   -0.066926
  19 C :   -0.055501
  20 C :   -0.211601
  21 H :    0.025236
  22 C :   -0.024907
  23 H :    0.020361
  24 H :    0.040322
  25 C :   -0.041197
  26 H :    0.022763
  27 H :    0.021986
  28 C :   -0.064223
  29 H :    0.021442
  30 H :    0.030335
  31 H :    0.030050
  32 H :    0.014886
  33 H :    0.034176

  Mayer bond orders larger than 0.100000
B(  0-S ,  1-C ) :   1.1289 B(  0-S ,  4-C ) :   1.1378 B(  1-C ,  2-C ) :   1.6301
B(  1-C , 32-H ) :   0.9675 B(  2-C ,  3-C ) :   1.2493 B(  2-C ,  6-C ) :   0.9997
B(  3-C ,  4-C ) :   1.5919 B(  3-C ,  5-H ) :   0.9875 B(  4-C , 20-C ) :   1.0409
B(  6-C ,  7-H ) :   0.9514 B(  6-C ,  8-H ) :   0.9374 B(  6-C ,  9-C ) :   1.0683
B(  9-C , 10-H ) :   0.9522 B(  9-C , 11-H ) :   0.9558 B(  9-C , 12-C ) :   1.0921
B( 12-C , 13-H ) :   0.9715 B( 12-C , 14-H ) :   0.9728 B( 12-C , 15-H ) :   0.9730
B( 16-S , 17-C ) :   1.1739 B( 16-S , 20-C ) :   1.1901 B( 17-C , 18-C ) :   1.5475
B( 17-C , 20-C ) :   0.1215 B( 17-C , 33-H ) :   0.9636 B( 18-C , 19-C ) :   1.3125
B( 18-C , 21-H ) :   0.9901 B( 19-C , 20-C ) :   1.5171 B( 19-C , 22-C ) :   1.0240
B( 22-C , 23-H ) :   0.9454 B( 22-C , 24-H ) :   0.9372 B( 22-C , 25-C ) :   1.0515
B( 25-C , 26-H ) :   0.9553 B( 25-C , 27-H ) :   0.9663 B( 25-C , 28-C ) :   1.0595
B( 28-C , 29-H ) :   0.9760 B( 28-C , 30-H ) :   0.9779 B( 28-C , 31-H ) :   0.9782

Dispersion correction           -0.013118665
FINAL SINGLE POINT ENERGY     -1339.868367877585

DIPOLE MOMENT
-------------
                                X             Y             Z
Electronic contribution:      4.30679      -7.13325      24.09265
Nuclear contribution   :     -4.23942       7.50765     -24.66229
                        -----------------------------------------
Total Dipole Moment    :      0.06736       0.37440      -0.56964
                        -----------------------------------------
Magnitude (a.u.)       :      0.68498
Magnitude (Debye)      :      1.74109

Rotational constants in cm-1:     0.019299     0.007168     0.005887
Rotational constants in MHz :   578.557568   214.891943   176.498157

                             ****ORCA TERMINATED NORMALLY****
TOTAL RUN TIME: 0 days 0 hours 0 minutes 28 seconds 560 msec
