                         Program Version 4.2.1 -  RELEASE  -
|  1> ! wB97X-D3 SP def2-SVP
|  2> %pal
|  3> nprocs 16
|  4> end
|  5>
|  6> * xyz 0 1
|  7> S 	 -44.1489 	 49.7444 	 103.749
|  8> C 	 -44.7605 	 50.6808 	 105.027
|  9> C 	 -44.2312 	 50.3304 	 106.195
| 10> C 	 -43.2121 	 49.3946 	 106.023
| 11> C 	 -43.0497 	 48.8472 	 104.774
| 12> H 	 -42.5736 	 49.0975 	 106.862
| 13> C 	 -44.6793 	 50.8151 	 107.545
| 14> H 	 -45.2512 	 51.7598 	 107.267
| 15> H 	 -43.7887 	 51.1112 	 108.192
| 16> C 	 -45.6204 	 49.9767 	 108.322
| 17> H 	 -45.101 	 49.0262 	 108.464
| 18> H 	 -45.7608 	 50.4643 	 109.283
| 19> C 	 -46.9462 	 49.6069 	 107.722
| 20> H 	 -47.616 	 50.3967 	 107.57
| 21> H 	 -46.7807 	 49.1057 	 106.725
| 22> H 	 -47.3273 	 48.8146 	 108.421
| 23> S 	 -42.9572 	 46.193 	 103.736
| 24> C 	 -41.4528 	 45.5472 	 103.379
| 25> C 	 -40.4334 	 46.4622 	 103.519
| 26> C 	 -40.858 	 47.689 	 104.129
| 27> C 	 -42.1833 	 47.7392 	 104.247
| 28> H 	 -39.3754 	 46.0913 	 103.276
| 29> C 	 -39.7656 	 48.7613 	 104.302
| 30> H 	 -38.8187 	 48.2823 	 104.312
| 31> H 	 -39.8045 	 49.3649 	 105.209
| 32> C 	 -39.6814 	 49.7758 	 103.177
| 33> H 	 -40.7184 	 50.1118 	 102.878
| 34> H 	 -39.3082 	 49.1801 	 102.319
| 35> C 	 -38.7937 	 51.0492 	 103.595
| 36> H 	 -39.3637 	 51.7234 	 104.136
| 37> H 	 -38.5487 	 51.5895 	 102.719
| 38> H 	 -37.8754 	 50.8264 	 104.177
| 39> H 	 -45.4842 	 51.5107 	 104.869
| 40> H 	 -41.3364 	 44.5297 	 103.039
| 41> *
| 42>
| 43>                          ****END OF INPUT****

CARTESIAN COORDINATES (ANGSTROEM)
---------------------------------
  S    -44.148900   49.744400  103.749000
  C    -44.760500   50.680800  105.027000
  C    -44.231200   50.330400  106.195000
  C    -43.212100   49.394600  106.023000
  C    -43.049700   48.847200  104.774000
  H    -42.573600   49.097500  106.862000
  C    -44.679300   50.815100  107.545000
  H    -45.251200   51.759800  107.267000
  H    -43.788700   51.111200  108.192000
  C    -45.620400   49.976700  108.322000
  H    -45.101000   49.026200  108.464000
  H    -45.760800   50.464300  109.283000
  C    -46.946200   49.606900  107.722000
  H    -47.616000   50.396700  107.570000
  H    -46.780700   49.105700  106.725000
  H    -47.327300   48.814600  108.421000
  S    -42.957200   46.193000  103.736000
  C    -41.452800   45.547200  103.379000
  C    -40.433400   46.462200  103.519000
  C    -40.858000   47.689000  104.129000
  C    -42.183300   47.739200  104.247000
  H    -39.375400   46.091300  103.276000
  C    -39.765600   48.761300  104.302000
  H    -38.818700   48.282300  104.312000
  H    -39.804500   49.364900  105.209000
  C    -39.681400   49.775800  103.177000
  H    -40.718400   50.111800  102.878000
  H    -39.308200   49.180100  102.319000
  C    -38.793700   51.049200  103.595000
  H    -39.363700   51.723400  104.136000
  H    -38.548700   51.589500  102.719000
  H    -37.875400   50.826400  104.177000
  H    -45.484200   51.510700  104.869000
  H    -41.336400   44.529700  103.039000

 Total Charge           Charge          ....    0
 Multiplicity           Mult            ....    1
 Number of Electrons    NEL             ....  134
 Basis Dimension        Dim             ....  322

ORBITAL ENERGIES
----------------

  NO   OCC          E(Eh)            E(eV)
   0   2.0000     -88.965081     -2420.8629
   1   2.0000     -88.960770     -2420.7456
   2   2.0000     -10.329647      -281.0840
   3   2.0000     -10.329252      -281.0732
   4   2.0000     -10.312997      -280.6309
   5   2.0000     -10.308284      -280.5027
   6   2.0000     -10.303427      -280.3705
   7   2.0000     -10.296431      -280.1801
   8   2.0000     -10.294669      -280.1322
   9   2.0000     -10.290910      -280.0299
  10   2.0000     -10.289024      -279.9786
  11   2.0000     -10.287657      -279.9414
  12   2.0000     -10.287286      -279.9313
  13   2.0000     -10.279290      -279.7137
  14   2.0000     -10.275519      -279.6111
  15   2.0000     -10.275382      -279.6074
  16   2.0000      -8.080820      -219.8903
  17   2.0000      -8.076712      -219.7785
  18   2.0000      -6.039224      -164.3356
  19   2.0000      -6.035241      -164.2273
  20   2.0000      -6.035058      -164.2223
  21   2.0000      -6.031567      -164.1273
  22   2.0000      -6.030912      -164.1095
  23   2.0000      -6.027687      -164.0217
  24   2.0000      -1.014898       -27.6168
  25   2.0000      -0.998267       -27.1642
  26   2.0000      -0.919158       -25.0116
  27   2.0000      -0.907797       -24.7024
  28   2.0000      -0.869508       -23.6605
  29   2.0000      -0.851179       -23.1618
  30   2.0000      -0.845398       -23.0044
  31   2.0000      -0.813381       -22.1332
  32   2.0000      -0.788138       -21.4463
  33   2.0000      -0.780007       -21.2251
  34   2.0000      -0.706132       -19.2148
  35   2.0000      -0.692395       -18.8410
  36   2.0000      -0.685893       -18.6641
  37   2.0000      -0.659922       -17.9574
  38   2.0000      -0.639514       -17.4021
  39   2.0000      -0.624426       -16.9915
  40   2.0000      -0.602245       -16.3879
  41   2.0000      -0.572895       -15.5893
  42   2.0000      -0.558664       -15.2020
  43   2.0000      -0.551593       -15.0096
  44   2.0000      -0.544691       -14.8218
  45   2.0000      -0.522138       -14.2081
  46   2.0000      -0.515918       -14.0388
  47   2.0000      -0.507882       -13.8202
  48   2.0000      -0.501194       -13.6382
  49   2.0000      -0.498049       -13.5526
  50   2.0000      -0.489941       -13.3320
  51   2.0000      -0.483235       -13.1495
  52   2.0000      -0.475004       -12.9255
  53   2.0000      -0.473238       -12.8775
  54   2.0000      -0.461748       -12.5648
  55   2.0000      -0.440840       -11.9959
  56   2.0000      -0.437881       -11.9153
  57   2.0000      -0.435722       -11.8566
  58   2.0000      -0.433706       -11.8017
  59   2.0000      -0.422809       -11.5052
  60   2.0000      -0.415191       -11.2979
  61   2.0000      -0.414131       -11.2691
  62   2.0000      -0.409643       -11.1469
  63   2.0000      -0.343430        -9.3452
  64   2.0000      -0.335266        -9.1230
  65   2.0000      -0.327677        -8.9165
  66   2.0000      -0.305627        -8.3165
  67   0.0000       0.047132         1.2825
  68   0.0000       0.061203         1.6654
  69   0.0000       0.118931         3.2363
  70   0.0000       0.125610         3.4180
  71   0.0000       0.133469         3.6319

MULLIKEN ATOMIC CHARGES
-----------------------
   0 S :    0.104013
   1 C :   -0.144222
   2 C :   -0.088887
   3 C :    0.036448
   4 C :   -0.166884
   5 H :    0.007661
   6 C :    0.039479
   7 H :    0.011950
   8 H :    0.041755
   9 C :   -0.044608
  10 H :    0.018515
  11 H :    0.031241
  12 C :   -0.057416
  13 H :    0.022959
  14 H :    0.046469
  15 H :    0.043687
  16 S :    0.119988
  17 C :   -0.092993
  18 C :   -0.072986
  19 C :    0.012878
  20 C :   -0.185259
  21 H :    0.044628
  22 C :    0.102355
  23 H :    0.007154
  24 H :    0.019368
  25 C :   -0.107696
  26 H :    0.040497
  27 H :    0.026436
  28 C :   -0.020578
  29 H :    0.022509
  30 H :    0.025536
  31 H :    0.037780
  32 H :    0.060384
  33 H :    0.057839
Sum of atomic charges:   -0.0000000

LOEWDIN ATOMIC CHARGES
----------------------
   0 S :    0.421457
   1 C :   -0.207739
   2 C :   -0.088054
   3 C :   -0.062226
   4 C :   -0.196587
   5 H :    0.031114
   6 C :   -0.038149
   7 H :    0.030328
   8 H :    0.039038
   9 C :   -0.048957
  10 H :    0.025110
  11 H :    0.026695
  12 C :   -0.064347
  13 H :    0.012544
  14 H :    0.034303
  15 H :    0.037752
  16 S :    0.414805
  17 C :   -0.200183
  18 C :   -0.087951
  19 C :   -0.049579
  20 C :   -0.188375
  21 H :    0.043332
  22 C :   -0.027941
  23 H :    0.024145
  24 H :    0.027489
  25 C :   -0.037052
  26 H :    0.027946
  27 H :    0.022090
  28 C :   -0.059491
  29 H :    0.018329
  30 H :    0.023941
  31 H :    0.029239
  32 H :    0.037430
  33 H :    0.029544

  Mayer bond orders larger than 0.100000
B(  0-S ,  1-C ) :   1.1607 B(  0-S ,  4-C ) :   1.1595 B(  1-C ,  2-C ) :   1.6028
B(  1-C , 32-H ) :   0.9591 B(  2-C ,  3-C ) :   1.2689 B(  2-C ,  6-C ) :   1.0154
B(  3-C ,  4-C ) :   1.5791 B(  3-C ,  5-H ) :   0.9988 B(  4-C , 20-C ) :   0.9896
B(  6-C ,  7-H ) :   0.9340 B(  6-C ,  8-H ) :   0.9371 B(  6-C ,  9-C ) :   1.0881
B(  9-C , 10-H ) :   0.9491 B(  9-C , 11-H ) :   0.9487 B(  9-C , 12-C ) :   1.0849
B( 12-C , 13-H ) :   0.9760 B( 12-C , 14-H ) :   0.9702 B( 12-C , 15-H ) :   0.9717
B( 16-S , 17-C ) :   1.1773 B( 16-S , 20-C ) :   1.1265 B( 17-C , 18-C ) :   1.6245
B( 17-C , 33-H ) :   0.9652 B( 18-C , 19-C ) :   1.2097 B( 18-C , 21-H ) :   0.9765
B( 19-C , 20-C ) :   1.6640 B( 19-C , 22-C ) :   1.0407 B( 22-C , 23-H ) :   0.9281
B( 22-C , 24-H ) :   0.9385 B( 22-C , 25-C ) :   1.0597 B( 25-C , 26-H ) :   0.9599
B( 25-C , 27-H ) :   0.9595 B( 25-C , 28-C ) :   1.0605 B( 28-C , 29-H ) :   0.9746
B( 28-C , 30-H ) :   0.9742 B( 28-C , 31-H ) :   0.9781

Dispersion correction           -0.014326464
FINAL SINGLE POINT ENERGY     -1339.871041316532

DIPOLE MOMENT
-------------
                                X             Y             Z
Electronic contribution:     -4.97929     -13.36410     -12.03478
Nuclear contribution   :      5.28307      13.52109      12.37159
                        -----------------------------------------
Total Dipole Moment    :      0.30378       0.15699       0.33681
                        -----------------------------------------
Magnitude (a.u.)       :      0.47997
Magnitude (Debye)      :      1.21998

Rotational constants in cm-1:     0.019322     0.008429     0.006881
Rotational constants in MHz :   579.246746   252.689488   206.278481

                             ****ORCA TERMINATED NORMALLY****
TOTAL RUN TIME: 0 days 0 hours 0 minutes 31 seconds 358 msec
