                         Program Version 4.2.1 -  RELEASE  -
|  1> ! wB97X-D3 SP def2-SVP
|  2> %pal
|  3> nprocs 16
|  4> end
|  5>
|  6> * xyz 0 1
|  7> S 	 -60.7308 	 49.4597 	 132.804
|  8> C 	 -60.2291 	 48.0693 	 133.639
|  9> C 	 -59.5619 	 48.4806 	 134.785
| 10> C 	 -59.6381 	 49.9149 	 135.013
| 11> C 	 -60.0081 	 50.585 	 133.886
| 12> H 	 -59.4021 	 50.4904 	 135.903
| 13> C 	 -59.1254 	 47.4971 	 135.917
| 14> H 	 -59 	 46.5168 	 135.439
| 15> H 	 -59.9044 	 47.4925 	 136.674
| 16> C 	 -57.7848 	 47.7785 	 136.634
| 17> H 	 -57.8715 	 48.6579 	 137.246
| 18> H 	 -57.5944 	 47.0358 	 137.372
| 19> C 	 -56.5834 	 48.1214 	 135.764
| 20> H 	 -56.8431 	 48.8298 	 134.985
| 21> H 	 -55.8082 	 48.5128 	 136.439
| 22> H 	 -56.1363 	 47.2442 	 135.284
| 23> S 	 -61.8417 	 52.6087 	 134.001
| 24> C 	 -61.3148 	 54.2715 	 133.554
| 25> C 	 -59.9189 	 54.3334 	 133.566
| 26> C 	 -59.2825 	 53.055 	 133.713
| 27> C 	 -60.216 	 52.0279 	 133.766
| 28> H 	 -59.4047 	 55.2732 	 133.386
| 29> C 	 -57.8127 	 52.9186 	 133.534
| 30> H 	 -57.5281 	 52.0427 	 134.077
| 31> H 	 -57.2662 	 53.6585 	 134.085
| 32> C 	 -57.3279 	 53.0116 	 132.035
| 33> H 	 -56.2822 	 53.093 	 132.095
| 34> H 	 -57.7917 	 53.8903 	 131.634
| 35> C 	 -57.6984 	 51.867 	 131.114
| 36> H 	 -57.5659 	 50.9338 	 131.614
| 37> H 	 -56.9923 	 51.8753 	 130.216
| 38> H 	 -58.7398 	 51.8789 	 130.837
| 39> H 	 -60.5138 	 47.0632 	 133.493
| 40> H 	 -62.0221 	 55.1122 	 133.292
| 41> *
| 42>
| 43>                          ****END OF INPUT****

CARTESIAN COORDINATES (ANGSTROEM)
---------------------------------
  S    -60.730800   49.459700  132.804000
  C    -60.229100   48.069300  133.639000
  C    -59.561900   48.480600  134.785000
  C    -59.638100   49.914900  135.013000
  C    -60.008100   50.585000  133.886000
  H    -59.402100   50.490400  135.903000
  C    -59.125400   47.497100  135.917000
  H    -59.000000   46.516800  135.439000
  H    -59.904400   47.492500  136.674000
  C    -57.784800   47.778500  136.634000
  H    -57.871500   48.657900  137.246000
  H    -57.594400   47.035800  137.372000
  C    -56.583400   48.121400  135.764000
  H    -56.843100   48.829800  134.985000
  H    -55.808200   48.512800  136.439000
  H    -56.136300   47.244200  135.284000
  S    -61.841700   52.608700  134.001000
  C    -61.314800   54.271500  133.554000
  C    -59.918900   54.333400  133.566000
  C    -59.282500   53.055000  133.713000
  C    -60.216000   52.027900  133.766000
  H    -59.404700   55.273200  133.386000
  C    -57.812700   52.918600  133.534000
  H    -57.528100   52.042700  134.077000
  H    -57.266200   53.658500  134.085000
  C    -57.327900   53.011600  132.035000
  H    -56.282200   53.093000  132.095000
  H    -57.791700   53.890300  131.634000
  C    -57.698400   51.867000  131.114000
  H    -57.565900   50.933800  131.614000
  H    -56.992300   51.875300  130.216000
  H    -58.739800   51.878900  130.837000
  H    -60.513800   47.063200  133.493000
  H    -62.022100   55.112200  133.292000

 Total Charge           Charge          ....    0
 Multiplicity           Mult            ....    1
 Number of Electrons    NEL             ....  134
 Basis Dimension        Dim             ....  322

ORBITAL ENERGIES
----------------

  NO   OCC          E(Eh)            E(eV)
   0   2.0000     -88.965037     -2420.8617
   1   2.0000     -88.963717     -2420.8258
   2   2.0000     -10.327006      -281.0121
   3   2.0000     -10.325577      -280.9732
   4   2.0000     -10.323628      -280.9202
   5   2.0000     -10.311174      -280.5813
   6   2.0000     -10.304807      -280.4081
   7   2.0000     -10.302237      -280.3381
   8   2.0000     -10.297424      -280.2071
   9   2.0000     -10.295236      -280.1476
  10   2.0000     -10.294076      -280.1160
  11   2.0000     -10.284628      -279.8590
  12   2.0000     -10.279718      -279.7253
  13   2.0000     -10.279266      -279.7131
  14   2.0000     -10.273506      -279.5563
  15   2.0000     -10.269669      -279.4519
  16   2.0000      -8.079772      -219.8618
  17   2.0000      -8.079216      -219.8466
  18   2.0000      -6.038224      -164.3084
  19   2.0000      -6.037848      -164.2982
  20   2.0000      -6.033934      -164.1917
  21   2.0000      -6.033898      -164.1907
  22   2.0000      -6.030632      -164.1018
  23   2.0000      -6.029786      -164.0788
  24   2.0000      -1.013067       -27.5669
  25   2.0000      -0.984754       -26.7965
  26   2.0000      -0.907178       -24.6856
  27   2.0000      -0.905209       -24.6320
  28   2.0000      -0.872322       -23.7371
  29   2.0000      -0.848050       -23.0766
  30   2.0000      -0.842485       -22.9252
  31   2.0000      -0.816260       -22.2116
  32   2.0000      -0.782579       -21.2951
  33   2.0000      -0.772126       -21.0106
  34   2.0000      -0.705797       -19.2057
  35   2.0000      -0.696501       -18.9527
  36   2.0000      -0.691496       -18.8166
  37   2.0000      -0.658533       -17.9196
  38   2.0000      -0.645521       -17.5655
  39   2.0000      -0.615294       -16.7430
  40   2.0000      -0.597937       -16.2707
  41   2.0000      -0.565815       -15.3966
  42   2.0000      -0.553194       -15.0532
  43   2.0000      -0.548687       -14.9305
  44   2.0000      -0.542412       -14.7598
  45   2.0000      -0.536914       -14.6102
  46   2.0000      -0.521201       -14.1826
  47   2.0000      -0.513719       -13.9790
  48   2.0000      -0.505453       -13.7541
  49   2.0000      -0.501472       -13.6457
  50   2.0000      -0.488180       -13.2840
  51   2.0000      -0.480468       -13.0742
  52   2.0000      -0.468532       -12.7494
  53   2.0000      -0.462638       -12.5890
  54   2.0000      -0.458182       -12.4678
  55   2.0000      -0.447611       -12.1801
  56   2.0000      -0.443990       -12.0816
  57   2.0000      -0.433782       -11.8038
  58   2.0000      -0.425488       -11.5781
  59   2.0000      -0.423663       -11.5285
  60   2.0000      -0.420189       -11.4339
  61   2.0000      -0.415472       -11.3056
  62   2.0000      -0.407344       -11.0844
  63   2.0000      -0.338953        -9.2234
  64   2.0000      -0.328293        -8.9333
  65   2.0000      -0.320521        -8.7218
  66   2.0000      -0.305725        -8.3192
  67   0.0000       0.032777         0.8919
  68   0.0000       0.063605         1.7308
  69   0.0000       0.105125         2.8606
  70   0.0000       0.115627         3.1464
  71   0.0000       0.134738         3.6664

MULLIKEN ATOMIC CHARGES
-----------------------
   0 S :    0.115372
   1 C :   -0.080310
   2 C :   -0.135096
   3 C :    0.036916
   4 C :   -0.175447
   5 H :    0.027013
   6 C :    0.077645
   7 H :    0.020948
   8 H :    0.042962
   9 C :   -0.072750
  10 H :    0.009955
  11 H :    0.020499
  12 C :   -0.057259
  13 H :    0.046947
  14 H :    0.032451
  15 H :    0.026948
  16 S :    0.109008
  17 C :   -0.121957
  18 C :   -0.035964
  19 C :   -0.031223
  20 C :   -0.174241
  21 H :    0.025157
  22 C :    0.088761
  23 H :    0.007868
  24 H :    0.010625
  25 C :   -0.030673
  26 H :    0.021162
  27 H :    0.019202
  28 C :   -0.049115
  29 H :    0.021805
  30 H :    0.042626
  31 H :    0.037460
  32 H :    0.039638
  33 H :    0.083069
Sum of atomic charges:   -0.0000000

LOEWDIN ATOMIC CHARGES
----------------------
   0 S :    0.442073
   1 C :   -0.206946
   2 C :   -0.067746
   3 C :   -0.058439
   4 C :   -0.214713
   5 H :    0.034482
   6 C :   -0.028883
   7 H :    0.027840
   8 H :    0.033729
   9 C :   -0.047638
  10 H :    0.018535
  11 H :    0.022007
  12 C :   -0.064867
  13 H :    0.026303
  14 H :    0.029248
  15 H :    0.021687
  16 S :    0.387532
  17 C :   -0.179594
  18 C :   -0.067846
  19 C :   -0.056077
  20 C :   -0.204001
  21 H :    0.032299
  22 C :   -0.032912
  23 H :    0.025044
  24 H :    0.030047
  25 C :   -0.025455
  26 H :    0.018002
  27 H :    0.021763
  28 C :   -0.065775
  29 H :    0.019528
  30 H :    0.036470
  31 H :    0.024278
  32 H :    0.027334
  33 H :    0.042690

  Mayer bond orders larger than 0.100000
B(  0-S ,  1-C ) :   1.1580 B(  0-S ,  4-C ) :   1.1620 B(  1-C ,  2-C ) :   1.5944
B(  1-C , 32-H ) :   0.9768 B(  2-C ,  3-C ) :   1.2274 B(  2-C ,  6-C ) :   1.0195
B(  3-C ,  4-C ) :   1.5806 B(  3-C ,  5-H ) :   0.9929 B(  4-C , 20-C ) :   1.0106
B(  6-C ,  7-H ) :   0.9446 B(  6-C ,  8-H ) :   0.9430 B(  6-C ,  9-C ) :   1.0761
B(  9-C , 10-H ) :   0.9523 B(  9-C , 11-H ) :   0.9546 B(  9-C , 12-C ) :   1.0812
B( 12-C , 13-H ) :   0.9700 B( 12-C , 14-H ) :   0.9749 B( 12-C , 15-H ) :   0.9760
B( 16-S , 17-C ) :   1.1333 B( 16-S , 20-C ) :   1.1542 B( 17-C , 18-C ) :   1.6194
B( 17-C , 20-C ) :   0.1028 B( 17-C , 33-H ) :   0.9624 B( 18-C , 19-C ) :   1.2180
B( 18-C , 21-H ) :   0.9882 B( 19-C , 20-C ) :   1.6006 B( 19-C , 22-C ) :   1.0708
B( 22-C , 23-H ) :   0.9226 B( 22-C , 24-H ) :   0.9241 B( 22-C , 25-C ) :   1.0648
B( 25-C , 26-H ) :   0.9560 B( 25-C , 27-H ) :   0.9555 B( 25-C , 28-C ) :   1.0818
B( 28-C , 29-H ) :   0.9751 B( 28-C , 30-H ) :   0.9724 B( 28-C , 31-H ) :   0.9746

Dispersion correction           -0.015577146
FINAL SINGLE POINT ENERGY     -1339.869871328172

DIPOLE MOMENT
-------------
                                X             Y             Z
Electronic contribution:    -23.35313       5.83593      -3.33438
Nuclear contribution   :     23.73596      -5.79042       3.66937
                        -----------------------------------------
Total Dipole Moment    :      0.38282       0.04550       0.33499
                        -----------------------------------------
Magnitude (a.u.)       :      0.51073
Magnitude (Debye)      :      1.29816

Rotational constants in cm-1:     0.019352     0.009226     0.008001
Rotational constants in MHz :   580.164566   276.593866   239.864128

                             ****ORCA TERMINATED NORMALLY****
TOTAL RUN TIME: 0 days 0 hours 0 minutes 34 seconds 296 msec
