                         Program Version 4.2.1 -  RELEASE  -
|  1> ! wB97X-D3 SP def2-SVP
|  2> %pal
|  3> nprocs 16
|  4> end
|  5>
|  6> * xyz 0 1
|  7> S 	 -4.9501 	 64.6762 	 52.8992
|  8> C 	 -4.99036 	 63.8033 	 51.3968
|  9> C 	 -4.96952 	 64.5943 	 50.291
| 10> C 	 -4.88379 	 65.9865 	 50.6602
| 11> C 	 -4.85102 	 66.1815 	 52.0171
| 12> H 	 -4.80004 	 66.8132 	 49.9692
| 13> C 	 -4.85013 	 64.2285 	 48.913
| 14> H 	 -4.46544 	 65.0726 	 48.3681
| 15> H 	 -5.82696 	 63.9388 	 48.4314
| 16> C 	 -3.84614 	 63.0373 	 48.5897
| 17> H 	 -4.22679 	 62.0599 	 48.9914
| 18> H 	 -3.92087 	 62.764 	 47.5621
| 19> C 	 -2.36477 	 63.299 	 48.9181
| 20> H 	 -2.16767 	 63.6222 	 49.9539
| 21> H 	 -1.90249 	 62.2855 	 48.9014
| 22> H 	 -1.71856 	 63.9709 	 48.2941
| 23> S 	 -3.38576 	 68.4619 	 52.676
| 24> C 	 -4.13591 	 69.7984 	 53.5277
| 25> C 	 -5.47725 	 69.5832 	 53.5086
| 26> C 	 -5.89983 	 68.3781 	 52.8652
| 27> C 	 -4.85457 	 67.5009 	 52.6434
| 28> H 	 -6.13795 	 70.296 	 53.9017
| 29> C 	 -7.35128 	 68.0245 	 52.7531
| 30> H 	 -7.87763 	 68.214 	 53.6958
| 31> H 	 -7.62266 	 66.9467 	 52.5776
| 32> C 	 -8.01991 	 68.8624 	 51.6289
| 33> H 	 -7.69584 	 68.495 	 50.6365
| 34> H 	 -7.68071 	 69.9491 	 51.7492
| 35> C 	 -9.60215 	 68.7981 	 51.6358
| 36> H 	 -10.1403 	 69.6503 	 51.1823
| 37> H 	 -10.1531 	 68.693 	 52.5744
| 38> H 	 -9.9322 	 67.9227 	 51.0066
| 39> H 	 -4.90518 	 62.79 	 51.3943
| 40> H 	 -3.69717 	 70.5873 	 54.078
| 41> *
| 42>
| 43>                          ****END OF INPUT****

CARTESIAN COORDINATES (ANGSTROEM)
---------------------------------
  S     -4.950100   64.676200   52.899200
  C     -4.990360   63.803300   51.396800
  C     -4.969520   64.594300   50.291000
  C     -4.883790   65.986500   50.660200
  C     -4.851020   66.181500   52.017100
  H     -4.800040   66.813200   49.969200
  C     -4.850130   64.228500   48.913000
  H     -4.465440   65.072600   48.368100
  H     -5.826960   63.938800   48.431400
  C     -3.846140   63.037300   48.589700
  H     -4.226790   62.059900   48.991400
  H     -3.920870   62.764000   47.562100
  C     -2.364770   63.299000   48.918100
  H     -2.167670   63.622200   49.953900
  H     -1.902490   62.285500   48.901400
  H     -1.718560   63.970900   48.294100
  S     -3.385760   68.461900   52.676000
  C     -4.135910   69.798400   53.527700
  C     -5.477250   69.583200   53.508600
  C     -5.899830   68.378100   52.865200
  C     -4.854570   67.500900   52.643400
  H     -6.137950   70.296000   53.901700
  C     -7.351280   68.024500   52.753100
  H     -7.877630   68.214000   53.695800
  H     -7.622660   66.946700   52.577600
  C     -8.019910   68.862400   51.628900
  H     -7.695840   68.495000   50.636500
  H     -7.680710   69.949100   51.749200
  C     -9.602150   68.798100   51.635800
  H    -10.140300   69.650300   51.182300
  H    -10.153100   68.693000   52.574400
  H     -9.932200   67.922700   51.006600
  H     -4.905180   62.790000   51.394300
  H     -3.697170   70.587300   54.078000

 Total Charge           Charge          ....    0
 Multiplicity           Mult            ....    1
 Number of Electrons    NEL             ....  134
 Basis Dimension        Dim             ....  322

ORBITAL ENERGIES
----------------

  NO   OCC          E(Eh)            E(eV)
   0   2.0000     -88.967197     -2420.9205
   1   2.0000     -88.958094     -2420.6728
   2   2.0000     -10.325886      -280.9816
   3   2.0000     -10.323536      -280.9177
   4   2.0000     -10.312587      -280.6198
   5   2.0000     -10.305077      -280.4154
   6   2.0000     -10.300213      -280.2830
   7   2.0000     -10.298005      -280.2230
   8   2.0000     -10.294362      -280.1238
   9   2.0000     -10.294189      -280.1191
  10   2.0000     -10.292452      -280.0719
  11   2.0000     -10.292113      -280.0626
  12   2.0000     -10.291819      -280.0546
  13   2.0000     -10.286381      -279.9067
  14   2.0000     -10.283538      -279.8293
  15   2.0000     -10.283441      -279.8267
  16   2.0000      -8.082228      -219.9286
  17   2.0000      -8.073021      -219.6781
  18   2.0000      -6.040728      -164.3766
  19   2.0000      -6.036757      -164.2685
  20   2.0000      -6.032924      -164.1642
  21   2.0000      -6.031688      -164.1306
  22   2.0000      -6.027532      -164.0175
  23   2.0000      -6.023537      -163.9088
  24   2.0000      -1.009203       -27.4618
  25   2.0000      -0.989176       -26.9169
  26   2.0000      -0.912646       -24.8344
  27   2.0000      -0.900129       -24.4938
  28   2.0000      -0.870767       -23.6948
  29   2.0000      -0.851757       -23.1775
  30   2.0000      -0.838457       -22.8156
  31   2.0000      -0.815927       -22.2025
  32   2.0000      -0.781783       -21.2734
  33   2.0000      -0.769757       -20.9461
  34   2.0000      -0.713425       -19.4133
  35   2.0000      -0.703423       -19.1411
  36   2.0000      -0.692949       -18.8561
  37   2.0000      -0.659282       -17.9400
  38   2.0000      -0.651263       -17.7218
  39   2.0000      -0.610577       -16.6146
  40   2.0000      -0.598022       -16.2730
  41   2.0000      -0.577470       -15.7138
  42   2.0000      -0.553762       -15.0686
  43   2.0000      -0.549551       -14.9541
  44   2.0000      -0.537915       -14.6374
  45   2.0000      -0.523585       -14.2475
  46   2.0000      -0.515598       -14.0301
  47   2.0000      -0.511921       -13.9301
  48   2.0000      -0.503554       -13.7024
  49   2.0000      -0.496226       -13.5030
  50   2.0000      -0.492170       -13.3926
  51   2.0000      -0.479430       -13.0460
  52   2.0000      -0.471406       -12.8276
  53   2.0000      -0.463498       -12.6124
  54   2.0000      -0.458912       -12.4876
  55   2.0000      -0.443492       -12.0680
  56   2.0000      -0.441613       -12.0169
  57   2.0000      -0.440570       -11.9885
  58   2.0000      -0.433257       -11.7895
  59   2.0000      -0.422965       -11.5095
  60   2.0000      -0.414021       -11.2661
  61   2.0000      -0.411589       -11.1999
  62   2.0000      -0.407881       -11.0990
  63   2.0000      -0.335092        -9.1183
  64   2.0000      -0.327726        -8.9179
  65   2.0000      -0.320117        -8.7108
  66   2.0000      -0.310676        -8.4539
  67   0.0000       0.045659         1.2425
  68   0.0000       0.052051         1.4164
  69   0.0000       0.110452         3.0055
  70   0.0000       0.118521         3.2251
  71   0.0000       0.132142         3.5958

MULLIKEN ATOMIC CHARGES
-----------------------
   0 S :    0.118555
   1 C :   -0.085915
   2 C :   -0.046249
   3 C :    0.028882
   4 C :   -0.174869
   5 H :    0.015114
   6 C :    0.062883
   7 H :    0.020082
   8 H :    0.048956
   9 C :   -0.082271
  10 H :    0.025817
  11 H :    0.016029
  12 C :   -0.077423
  13 H :    0.040687
  14 H :    0.032734
  15 H :    0.046841
  16 S :    0.087218
  17 C :   -0.060550
  18 C :   -0.012776
  19 C :    0.002975
  20 C :   -0.160717
  21 H :   -0.000563
  22 C :    0.039439
  23 H :    0.028204
  24 H :    0.038679
  25 C :   -0.106943
  26 H :    0.040423
  27 H :    0.043753
  28 C :   -0.079723
  29 H :    0.035387
  30 H :    0.030276
  31 H :    0.035418
  32 H :    0.004796
  33 H :    0.044853
Sum of atomic charges:    0.0000000

LOEWDIN ATOMIC CHARGES
----------------------
   0 S :    0.415314
   1 C :   -0.175938
   2 C :   -0.068040
   3 C :   -0.048919
   4 C :   -0.201002
   5 H :    0.031965
   6 C :   -0.036370
   7 H :    0.029566
   8 H :    0.042762
   9 C :   -0.043370
  10 H :    0.026818
  11 H :    0.021545
  12 C :   -0.081006
  13 H :    0.027401
  14 H :    0.033333
  15 H :    0.031002
  16 S :    0.391819
  17 C :   -0.175137
  18 C :   -0.064495
  19 C :   -0.055308
  20 C :   -0.195759
  21 H :    0.021644
  22 C :   -0.039180
  23 H :    0.029882
  24 H :    0.036049
  25 C :   -0.040136
  26 H :    0.028069
  27 H :    0.028138
  28 C :   -0.085792
  29 H :    0.028423
  30 H :    0.022924
  31 H :    0.030554
  32 H :    0.004893
  33 H :    0.028347

  Mayer bond orders larger than 0.100000
B(  0-S ,  1-C ) :   1.1377 B(  0-S ,  4-C ) :   1.1463 B(  1-C ,  2-C ) :   1.6111
B(  1-C , 32-H ) :   0.9805 B(  2-C ,  3-C ) :   1.2157 B(  2-C ,  6-C ) :   1.0436
B(  3-C ,  4-C ) :   1.6100 B(  3-C ,  5-H ) :   0.9968 B(  4-C , 20-C ) :   1.0029
B(  6-C ,  7-H ) :   0.9433 B(  6-C ,  8-H ) :   0.9211 B(  6-C ,  9-C ) :   1.0774
B(  9-C , 10-H ) :   0.9548 B(  9-C , 11-H ) :   0.9515 B(  9-C , 12-C ) :   1.0639
B( 12-C , 13-H ) :   0.9765 B( 12-C , 14-H ) :   0.9717 B( 12-C , 15-H ) :   0.9771
B( 16-S , 17-C ) :   1.1430 B( 16-S , 20-C ) :   1.1324 B( 17-C , 18-C ) :   1.6197
B( 17-C , 33-H ) :   0.9736 B( 18-C , 19-C ) :   1.2247 B( 18-C , 21-H ) :   0.9937
B( 19-C , 20-C ) :   1.5969 B( 19-C , 22-C ) :   1.0525 B( 22-C , 23-H ) :   0.9479
B( 22-C , 24-H ) :   0.9415 B( 22-C , 25-C ) :   1.0359 B( 25-C , 26-H ) :   0.9576
B( 25-C , 27-H ) :   0.9670 B( 25-C , 28-C ) :   1.0555 B( 28-C , 29-H ) :   0.9784
B( 28-C , 30-H ) :   0.9791 B( 28-C , 31-H ) :   0.9777

Dispersion correction           -0.014533441
FINAL SINGLE POINT ENERGY     -1339.865185190830

DIPOLE MOMENT
-------------
                                X             Y             Z
Electronic contribution:     11.30953       3.67664      15.85391
Nuclear contribution   :    -11.65724      -3.71942     -16.24283
                        -----------------------------------------
Total Dipole Moment    :     -0.34771      -0.04278      -0.38892
                        -----------------------------------------
Magnitude (a.u.)       :      0.52344
Magnitude (Debye)      :      1.33048

Rotational constants in cm-1:     0.019601     0.008082     0.006816
Rotational constants in MHz :   587.617426   242.304206   204.332164

                             ****ORCA TERMINATED NORMALLY****
TOTAL RUN TIME: 0 days 0 hours 0 minutes 33 seconds 500 msec
