                         Program Version 4.2.1 -  RELEASE  -
|  1> ! wB97X-D3 SP def2-SVP
|  2> %pal
|  3> nprocs 16
|  4> end
|  5>
|  6> * xyz 0 1
|  7> S 	 -57.8684 	 37.4002 	 114.251
|  8> C 	 -56.3815 	 36.9045 	 113.437
|  9> C 	 -55.5215 	 37.9605 	 113.401
| 10> C 	 -55.9125 	 39.1338 	 114.099
| 11> C 	 -57.0798 	 38.8809 	 114.772
| 12> H 	 -55.4132 	 40.0731 	 114.13
| 13> C 	 -54.3386 	 38.0155 	 112.497
| 14> H 	 -54.7198 	 38.2349 	 111.504
| 15> H 	 -54.034 	 36.9758 	 112.488
| 16> C 	 -53.1171 	 38.8925 	 112.954
| 17> H 	 -52.3371 	 38.9144 	 112.174
| 18> H 	 -53.478 	 39.8541 	 113.135
| 19> C 	 -52.4499 	 38.2419 	 114.142
| 20> H 	 -52.1829 	 37.247 	 113.94
| 21> H 	 -51.581 	 38.903 	 114.532
| 22> H 	 -53.1774 	 38.1344 	 114.958
| 23> S 	 -59.5361 	 40.3474 	 115.197
| 24> C 	 -59.5504 	 41.5636 	 116.497
| 25> C 	 -58.4449 	 41.4556 	 117.28
| 26> C 	 -57.4449 	 40.6416 	 116.643
| 27> C 	 -57.8603 	 39.9107 	 115.529
| 28> H 	 -58.2841 	 42.0102 	 118.11
| 29> C 	 -56.0187 	 40.7067 	 117.195
| 30> H 	 -55.8909 	 41.6527 	 117.74
| 31> H 	 -55.3439 	 40.7619 	 116.359
| 32> C 	 -55.6442 	 39.5432 	 118.152
| 33> H 	 -55.695 	 38.5208 	 117.731
| 34> H 	 -56.368 	 39.7303 	 118.933
| 35> C 	 -54.3313 	 39.8241 	 118.797
| 36> H 	 -53.3637 	 39.4707 	 118.296
| 37> H 	 -54.1732 	 39.2243 	 119.667
| 38> H 	 -54.3017 	 40.8292 	 119.073
| 39> H 	 -56.1979 	 35.9957 	 112.864
| 40> H 	 -60.5072 	 41.9784 	 116.826
| 41> *
| 42>
| 43>                          ****END OF INPUT****

CARTESIAN COORDINATES (ANGSTROEM)
---------------------------------
  S    -57.868400   37.400200  114.251000
  C    -56.381500   36.904500  113.437000
  C    -55.521500   37.960500  113.401000
  C    -55.912500   39.133800  114.099000
  C    -57.079800   38.880900  114.772000
  H    -55.413200   40.073100  114.130000
  C    -54.338600   38.015500  112.497000
  H    -54.719800   38.234900  111.504000
  H    -54.034000   36.975800  112.488000
  C    -53.117100   38.892500  112.954000
  H    -52.337100   38.914400  112.174000
  H    -53.478000   39.854100  113.135000
  C    -52.449900   38.241900  114.142000
  H    -52.182900   37.247000  113.940000
  H    -51.581000   38.903000  114.532000
  H    -53.177400   38.134400  114.958000
  S    -59.536100   40.347400  115.197000
  C    -59.550400   41.563600  116.497000
  C    -58.444900   41.455600  117.280000
  C    -57.444900   40.641600  116.643000
  C    -57.860300   39.910700  115.529000
  H    -58.284100   42.010200  118.110000
  C    -56.018700   40.706700  117.195000
  H    -55.890900   41.652700  117.740000
  H    -55.343900   40.761900  116.359000
  C    -55.644200   39.543200  118.152000
  H    -55.695000   38.520800  117.731000
  H    -56.368000   39.730300  118.933000
  C    -54.331300   39.824100  118.797000
  H    -53.363700   39.470700  118.296000
  H    -54.173200   39.224300  119.667000
  H    -54.301700   40.829200  119.073000
  H    -56.197900   35.995700  112.864000
  H    -60.507200   41.978400  116.826000

 Total Charge           Charge          ....    0
 Multiplicity           Mult            ....    1
 Number of Electrons    NEL             ....  134
 Basis Dimension        Dim             ....  322

ORBITAL ENERGIES
----------------

  NO   OCC          E(Eh)            E(eV)
   0   2.0000     -88.968897     -2420.9668
   1   2.0000     -88.963545     -2420.8211
   2   2.0000     -10.335090      -281.2321
   3   2.0000     -10.329702      -281.0855
   4   2.0000     -10.318665      -280.7851
   5   2.0000     -10.312796      -280.6254
   6   2.0000     -10.300906      -280.3019
   7   2.0000     -10.296252      -280.1753
   8   2.0000     -10.292602      -280.0759
   9   2.0000     -10.288681      -279.9693
  10   2.0000     -10.288228      -279.9569
  11   2.0000     -10.288137      -279.9545
  12   2.0000     -10.286893      -279.9206
  13   2.0000     -10.282511      -279.8014
  14   2.0000     -10.279165      -279.7103
  15   2.0000     -10.269821      -279.4560
  16   2.0000      -8.083215      -219.9555
  17   2.0000      -8.077703      -219.8055
  18   2.0000      -6.041773      -164.4050
  19   2.0000      -6.038018      -164.3028
  20   2.0000      -6.036380      -164.2582
  21   2.0000      -6.033707      -164.1855
  22   2.0000      -6.032249      -164.1458
  23   2.0000      -6.028370      -164.0403
  24   2.0000      -1.006578       -27.3904
  25   2.0000      -0.985160       -26.8076
  26   2.0000      -0.915540       -24.9131
  27   2.0000      -0.910027       -24.7631
  28   2.0000      -0.870783       -23.6952
  29   2.0000      -0.852347       -23.1935
  30   2.0000      -0.847153       -23.0522
  31   2.0000      -0.822607       -22.3843
  32   2.0000      -0.778700       -21.1895
  33   2.0000      -0.766610       -20.8605
  34   2.0000      -0.712575       -19.3901
  35   2.0000      -0.697718       -18.9859
  36   2.0000      -0.690257       -18.7828
  37   2.0000      -0.665719       -18.1151
  38   2.0000      -0.640286       -17.4231
  39   2.0000      -0.626815       -17.0565
  40   2.0000      -0.596112       -16.2210
  41   2.0000      -0.576859       -15.6971
  42   2.0000      -0.568170       -15.4607
  43   2.0000      -0.556769       -15.1505
  44   2.0000      -0.542933       -14.7740
  45   2.0000      -0.524376       -14.2690
  46   2.0000      -0.518880       -14.1194
  47   2.0000      -0.506578       -13.7847
  48   2.0000      -0.504227       -13.7207
  49   2.0000      -0.499767       -13.5993
  50   2.0000      -0.491966       -13.3871
  51   2.0000      -0.487799       -13.2737
  52   2.0000      -0.470868       -12.8130
  53   2.0000      -0.466192       -12.6857
  54   2.0000      -0.457642       -12.4531
  55   2.0000      -0.449501       -12.2316
  56   2.0000      -0.445312       -12.1175
  57   2.0000      -0.439703       -11.9649
  58   2.0000      -0.434603       -11.8261
  59   2.0000      -0.424755       -11.5582
  60   2.0000      -0.416525       -11.3342
  61   2.0000      -0.413600       -11.2546
  62   2.0000      -0.403961       -10.9923
  63   2.0000      -0.350706        -9.5432
  64   2.0000      -0.331961        -9.0331
  65   2.0000      -0.326244        -8.8775
  66   2.0000      -0.293409        -7.9841
  67   0.0000       0.026748         0.7279
  68   0.0000       0.065506         1.7825
  69   0.0000       0.105979         2.8838
  70   0.0000       0.121134         3.2962
  71   0.0000       0.129105         3.5131

MULLIKEN ATOMIC CHARGES
-----------------------
   0 S :    0.104258
   1 C :   -0.118398
   2 C :   -0.103343
   3 C :    0.020165
   4 C :   -0.127513
   5 H :    0.023854
   6 C :    0.047536
   7 H :    0.049163
   8 H :    0.008200
   9 C :   -0.036593
  10 H :    0.034223
  11 H :    0.019036
  12 C :   -0.060921
  13 H :    0.018882
  14 H :    0.050978
  15 H :    0.028856
  16 S :    0.084569
  17 C :   -0.090281
  18 C :    0.031296
  19 C :   -0.080601
  20 C :   -0.131703
  21 H :   -0.017211
  22 C :    0.048842
  23 H :    0.016054
  24 H :    0.009083
  25 C :   -0.047101
  26 H :    0.053491
  27 H :    0.017375
  28 C :   -0.028700
  29 H :    0.033356
  30 H :    0.015006
  31 H :    0.011322
  32 H :    0.048669
  33 H :    0.068148
Sum of atomic charges:   -0.0000000

LOEWDIN ATOMIC CHARGES
----------------------
   0 S :    0.397851
   1 C :   -0.201401
   2 C :   -0.065890
   3 C :   -0.057936
   4 C :   -0.171522
   5 H :    0.030895
   6 C :   -0.031770
   7 H :    0.034885
   8 H :    0.026904
   9 C :   -0.034268
  10 H :    0.029717
  11 H :    0.011102
  12 C :   -0.065025
  13 H :    0.017324
  14 H :    0.037288
  15 H :    0.024124
  16 S :    0.379868
  17 C :   -0.172097
  18 C :   -0.054510
  19 C :   -0.055582
  20 C :   -0.199667
  21 H :    0.014737
  22 C :   -0.029652
  23 H :    0.028363
  24 H :    0.019704
  25 C :   -0.036012
  26 H :    0.033053
  27 H :    0.025732
  28 C :   -0.071328
  29 H :    0.033060
  30 H :    0.022536
  31 H :    0.014916
  32 H :    0.033472
  33 H :    0.031131

  Mayer bond orders larger than 0.100000
B(  0-S ,  1-C ) :   1.1099 B(  0-S ,  4-C ) :   1.1571 B(  1-C ,  2-C ) :   1.6385
B(  1-C , 32-H ) :   0.9679 B(  2-C ,  3-C ) :   1.2207 B(  2-C ,  6-C ) :   1.0091
B(  3-C ,  4-C ) :   1.5736 B(  3-C ,  5-H ) :   0.9946 B(  4-C , 20-C ) :   1.0306
B(  6-C ,  7-H ) :   0.9382 B(  6-C ,  8-H ) :   0.9389 B(  6-C ,  9-C ) :   1.0696
B(  9-C , 10-H ) :   0.9543 B(  9-C , 11-H ) :   0.9544 B(  9-C , 12-C ) :   1.0773
B( 12-C , 13-H ) :   0.9719 B( 12-C , 14-H ) :   0.9724 B( 12-C , 15-H ) :   0.9744
B( 16-S , 17-C ) :   1.1475 B( 16-S , 20-C ) :   1.1220 B( 17-C , 18-C ) :   1.6150
B( 17-C , 33-H ) :   0.9588 B( 18-C , 19-C ) :   1.2488 B( 18-C , 21-H ) :   1.0015
B( 19-C , 20-C ) :   1.6107 B( 19-C , 22-C ) :   1.0369 B( 22-C , 23-H ) :   0.9388
B( 22-C , 24-H ) :   0.9350 B( 22-C , 25-C ) :   1.0622 B( 25-C , 26-H ) :   0.9570
B( 25-C , 27-H ) :   0.9494 B( 25-C , 28-C ) :   1.0960 B( 28-C , 29-H ) :   0.9691
B( 28-C , 30-H ) :   0.9682 B( 28-C , 31-H ) :   0.9686

Dispersion correction           -0.014690537
FINAL SINGLE POINT ENERGY     -1339.854976477623

DIPOLE MOMENT
-------------
                                X             Y             Z
Electronic contribution:    -29.52775      -1.47137      -7.59552
Nuclear contribution   :     30.11454       1.63751       7.69610
                        -----------------------------------------
Total Dipole Moment    :      0.58679       0.16614       0.10058
                        -----------------------------------------
Magnitude (a.u.)       :      0.61809
Magnitude (Debye)      :      1.57107

Rotational constants in cm-1:     0.017088     0.010148     0.007340
Rotational constants in MHz :   512.280384   304.229063   220.043694

                             ****ORCA TERMINATED NORMALLY****
TOTAL RUN TIME: 0 days 0 hours 0 minutes 31 seconds 631 msec
