                         Program Version 4.2.1 -  RELEASE  -
|  1> ! wB97X-D3 SP def2-SVP
|  2> %pal
|  3> nprocs 16
|  4> end
|  5>
|  6> * xyz 0 1
|  7> S 	 -67.6066 	 54.3282 	 125.496
|  8> C 	 -67.7474 	 55.3188 	 127.004
|  9> C 	 -68.842 	 56.2521 	 126.934
| 10> C 	 -69.5686 	 56.083 	 125.691
| 11> C 	 -69.007 	 55.1158 	 124.861
| 12> H 	 -70.3607 	 56.7667 	 125.356
| 13> C 	 -69.2331 	 57.2647 	 128.027
| 14> H 	 -69.0513 	 58.2934 	 127.626
| 15> H 	 -68.6027 	 57.1772 	 128.912
| 16> C 	 -70.7842 	 57.3129 	 128.336
| 17> H 	 -71.2598 	 57.5284 	 127.434
| 18> H 	 -71.0451 	 56.3838 	 128.728
| 19> C 	 -71.1564 	 58.4828 	 129.333
| 20> H 	 -70.8735 	 58.1454 	 130.31
| 21> H 	 -70.7019 	 59.4615 	 129.061
| 22> H 	 -72.1922 	 58.6308 	 129.299
| 23> S 	 -68.2288 	 54.2848 	 122.343
| 24> C 	 -69.3451 	 54.4291 	 120.966
| 25> C 	 -70.6156 	 54.6283 	 121.408
| 26> C 	 -70.679 	 55.0079 	 122.781
| 27> C 	 -69.4526 	 54.8785 	 123.421
| 28> H 	 -71.4656 	 54.4672 	 120.719
| 29> C 	 -71.9894 	 55.353 	 123.42
| 30> H 	 -72.5201 	 55.769 	 122.562
| 31> H 	 -71.8034 	 56.2332 	 124.075
| 32> C 	 -72.6908 	 54.1971 	 124.155
| 33> H 	 -72.1004 	 53.8051 	 125.025
| 34> H 	 -72.8254 	 53.4069 	 123.428
| 35> C 	 -74.0471 	 54.4318 	 124.742
| 36> H 	 -74.743 	 54.8863 	 124.061
| 37> H 	 -73.9002 	 55.0734 	 125.647
| 38> H 	 -74.4109 	 53.5274 	 125.282
| 39> H 	 -66.9666 	 55.3459 	 127.806
| 40> H 	 -69.1145 	 54.0732 	 120.021
| 41> *
| 42>
| 43>                          ****END OF INPUT****

CARTESIAN COORDINATES (ANGSTROEM)
---------------------------------
  S    -67.606600   54.328200  125.496000
  C    -67.747400   55.318800  127.004000
  C    -68.842000   56.252100  126.934000
  C    -69.568600   56.083000  125.691000
  C    -69.007000   55.115800  124.861000
  H    -70.360700   56.766700  125.356000
  C    -69.233100   57.264700  128.027000
  H    -69.051300   58.293400  127.626000
  H    -68.602700   57.177200  128.912000
  C    -70.784200   57.312900  128.336000
  H    -71.259800   57.528400  127.434000
  H    -71.045100   56.383800  128.728000
  C    -71.156400   58.482800  129.333000
  H    -70.873500   58.145400  130.310000
  H    -70.701900   59.461500  129.061000
  H    -72.192200   58.630800  129.299000
  S    -68.228800   54.284800  122.343000
  C    -69.345100   54.429100  120.966000
  C    -70.615600   54.628300  121.408000
  C    -70.679000   55.007900  122.781000
  C    -69.452600   54.878500  123.421000
  H    -71.465600   54.467200  120.719000
  C    -71.989400   55.353000  123.420000
  H    -72.520100   55.769000  122.562000
  H    -71.803400   56.233200  124.075000
  C    -72.690800   54.197100  124.155000
  H    -72.100400   53.805100  125.025000
  H    -72.825400   53.406900  123.428000
  C    -74.047100   54.431800  124.742000
  H    -74.743000   54.886300  124.061000
  H    -73.900200   55.073400  125.647000
  H    -74.410900   53.527400  125.282000
  H    -66.966600   55.345900  127.806000
  H    -69.114500   54.073200  120.021000

 Total Charge           Charge          ....    0
 Multiplicity           Mult            ....    1
 Number of Electrons    NEL             ....  134
 Basis Dimension        Dim             ....  322

ORBITAL ENERGIES
----------------

  NO   OCC          E(Eh)            E(eV)
   0   2.0000     -88.973537     -2421.0930
   1   2.0000     -88.963750     -2420.8267
   2   2.0000     -10.337572      -281.2996
   3   2.0000     -10.330679      -281.1121
   4   2.0000     -10.326099      -280.9874
   5   2.0000     -10.314764      -280.6790
   6   2.0000     -10.310575      -280.5650
   7   2.0000     -10.301310      -280.3129
   8   2.0000     -10.300112      -280.2803
   9   2.0000     -10.298990      -280.2498
  10   2.0000     -10.295194      -280.1465
  11   2.0000     -10.293313      -280.0953
  12   2.0000     -10.285602      -279.8855
  13   2.0000     -10.285595      -279.8853
  14   2.0000     -10.279975      -279.7323
  15   2.0000     -10.277963      -279.6776
  16   2.0000      -8.087310      -220.0669
  17   2.0000      -8.078538      -219.8282
  18   2.0000      -6.045864      -164.5163
  19   2.0000      -6.042078      -164.4133
  20   2.0000      -6.037959      -164.3012
  21   2.0000      -6.037129      -164.2786
  22   2.0000      -6.033175      -164.1710
  23   2.0000      -6.029093      -164.0600
  24   2.0000      -1.003574       -27.3086
  25   2.0000      -0.977854       -26.6088
  26   2.0000      -0.910439       -24.7743
  27   2.0000      -0.905562       -24.6416
  28   2.0000      -0.863238       -23.4899
  29   2.0000      -0.855254       -23.2727
  30   2.0000      -0.844732       -22.9863
  31   2.0000      -0.813583       -22.1387
  32   2.0000      -0.780236       -21.2313
  33   2.0000      -0.770612       -20.9694
  34   2.0000      -0.709082       -19.2951
  35   2.0000      -0.696701       -18.9582
  36   2.0000      -0.687416       -18.7055
  37   2.0000      -0.662454       -18.0263
  38   2.0000      -0.634422       -17.2635
  39   2.0000      -0.621660       -16.9162
  40   2.0000      -0.592630       -16.1263
  41   2.0000      -0.575487       -15.6598
  42   2.0000      -0.568178       -15.4609
  43   2.0000      -0.559041       -15.2123
  44   2.0000      -0.532184       -14.4815
  45   2.0000      -0.521001       -14.1772
  46   2.0000      -0.512150       -13.9363
  47   2.0000      -0.504248       -13.7213
  48   2.0000      -0.502619       -13.6770
  49   2.0000      -0.500453       -13.6180
  50   2.0000      -0.488951       -13.3050
  51   2.0000      -0.483780       -13.1643
  52   2.0000      -0.469196       -12.7675
  53   2.0000      -0.464813       -12.6482
  54   2.0000      -0.460282       -12.5249
  55   2.0000      -0.454588       -12.3700
  56   2.0000      -0.444543       -12.0966
  57   2.0000      -0.437994       -11.9184
  58   2.0000      -0.436008       -11.8644
  59   2.0000      -0.429393       -11.6844
  60   2.0000      -0.423462       -11.5230
  61   2.0000      -0.416172       -11.3246
  62   2.0000      -0.408708       -11.1215
  63   2.0000      -0.352270        -9.5857
  64   2.0000      -0.335813        -9.1379
  65   2.0000      -0.325751        -8.8641
  66   2.0000      -0.284377        -7.7383
  67   0.0000       0.022086         0.6010
  68   0.0000       0.071244         1.9387
  69   0.0000       0.095550         2.6001
  70   0.0000       0.116420         3.1680
  71   0.0000       0.127831         3.4785

MULLIKEN ATOMIC CHARGES
-----------------------
   0 S :    0.106463
   1 C :   -0.147184
   2 C :   -0.070644
   3 C :   -0.032395
   4 C :   -0.082214
   5 H :    0.030571
   6 C :    0.040875
   7 H :    0.035588
   8 H :    0.023597
   9 C :   -0.065864
  10 H :    0.018582
  11 H :    0.028701
  12 C :   -0.034124
  13 H :    0.032811
  14 H :    0.034490
  15 H :    0.025104
  16 S :    0.078436
  17 C :   -0.059008
  18 C :   -0.047367
  19 C :   -0.085653
  20 C :   -0.124143
  21 H :    0.034309
  22 C :    0.076600
  23 H :    0.016076
  24 H :    0.012989
  25 C :   -0.057775
  26 H :    0.044209
  27 H :    0.020453
  28 C :   -0.043817
  29 H :    0.034917
  30 H :    0.020089
  31 H :    0.037934
  32 H :    0.066820
  33 H :    0.030574
Sum of atomic charges:    0.0000000

LOEWDIN ATOMIC CHARGES
----------------------
   0 S :    0.394641
   1 C :   -0.203188
   2 C :   -0.049200
   3 C :   -0.077610
   4 C :   -0.187812
   5 H :    0.032715
   6 C :   -0.032950
   7 H :    0.036234
   8 H :    0.026915
   9 C :   -0.020299
  10 H :    0.012620
  11 H :    0.016657
  12 C :   -0.056010
  13 H :    0.023132
  14 H :    0.029227
  15 H :    0.019172
  16 S :    0.390330
  17 C :   -0.167451
  18 C :   -0.066924
  19 C :   -0.068142
  20 C :   -0.188355
  21 H :    0.039474
  22 C :   -0.035780
  23 H :    0.031219
  24 H :    0.028542
  25 C :   -0.043984
  26 H :    0.037219
  27 H :    0.021559
  28 C :   -0.071267
  29 H :    0.019749
  30 H :    0.026266
  31 H :    0.034734
  32 H :    0.035374
  33 H :    0.013195

  Mayer bond orders larger than 0.100000
B(  0-S ,  1-C ) :   1.1165 B(  0-S ,  4-C ) :   1.1608 B(  1-C ,  2-C ) :   1.6103
B(  1-C , 32-H ) :   0.9610 B(  2-C ,  3-C ) :   1.2410 B(  2-C ,  6-C ) :   1.0311
B(  3-C ,  4-C ) :   1.5746 B(  3-C ,  5-H ) :   0.9790 B(  4-C , 20-C ) :   1.0258
B(  6-C ,  7-H ) :   0.9355 B(  6-C ,  8-H ) :   0.9508 B(  6-C ,  9-C ) :   1.0541
B(  9-C , 10-H ) :   0.9545 B(  9-C , 11-H ) :   0.9644 B(  9-C , 12-C ) :   1.0835
B( 12-C , 13-H ) :   0.9792 B( 12-C , 14-H ) :   0.9752 B( 12-C , 15-H ) :   0.9766
B( 16-S , 17-C ) :   1.1389 B( 16-S , 20-C ) :   1.1438 B( 17-C , 18-C ) :   1.6292
B( 17-C , 33-H ) :   0.9727 B( 18-C , 19-C ) :   1.2469 B( 18-C , 21-H ) :   0.9805
B( 19-C , 20-C ) :   1.5986 B( 19-C , 22-C ) :   1.0394 B( 22-C , 23-H ) :   0.9253
B( 22-C , 24-H ) :   0.9288 B( 22-C , 25-C ) :   1.0605 B( 25-C , 26-H ) :   0.9526
B( 25-C , 27-H ) :   0.9529 B( 25-C , 28-C ) :   1.0976 B( 28-C , 29-H ) :   0.9735
B( 28-C , 30-H ) :   0.9710 B( 28-C , 31-H ) :   0.9686

Dispersion correction           -0.013864509
FINAL SINGLE POINT ENERGY     -1339.865416438086

DIPOLE MOMENT
-------------
                                X             Y             Z
Electronic contribution:     25.17378     -12.17320     -16.98801
Nuclear contribution   :    -25.76562      12.47722      17.21055
                        -----------------------------------------
Total Dipole Moment    :     -0.59185       0.30402       0.22255
                        -----------------------------------------
Magnitude (a.u.)       :      0.70160
Magnitude (Debye)      :      1.78332

Rotational constants in cm-1:     0.017140     0.009129     0.006538
Rotational constants in MHz :   513.834719   273.682009   196.017937

                             ****ORCA TERMINATED NORMALLY****
TOTAL RUN TIME: 0 days 0 hours 0 minutes 31 seconds 834 msec
