                         Program Version 4.2.1 -  RELEASE  -
|  1> ! wB97X-D3 SP def2-SVP
|  2> %pal
|  3> nprocs 16
|  4> end
|  5>
|  6> * xyz 0 1
|  7> S 	 -69.4405 	 49.9806 	 126.009
|  8> C 	 -69.5865 	 50.8963 	 127.435
|  9> C 	 -68.8545 	 52.0979 	 127.374
| 10> C 	 -68.2002 	 52.2111 	 126.134
| 11> C 	 -68.3639 	 51.143 	 125.245
| 12> H 	 -67.6034 	 53.0699 	 125.833
| 13> C 	 -68.5351 	 52.9423 	 128.579
| 14> H 	 -67.4302 	 52.9034 	 128.846
| 15> H 	 -69.093 	 52.6099 	 129.439
| 16> C 	 -68.7772 	 54.4916 	 128.339
| 17> H 	 -68.1952 	 54.8573 	 127.571
| 18> H 	 -69.7818 	 54.6181 	 128.073
| 19> C 	 -68.431 	 55.4035 	 129.557
| 20> H 	 -69.1371 	 55.1717 	 130.348
| 21> H 	 -67.4795 	 55.266 	 130.051
| 22> H 	 -68.4972 	 56.4595 	 129.267
| 23> S 	 -66.0216 	 51.0553 	 123.732
| 24> C 	 -66.1323 	 50.8429 	 122.018
| 25> C 	 -67.426 	 51.1782 	 121.57
| 26> C 	 -68.2875 	 51.3984 	 122.65
| 27> C 	 -67.7897 	 51.1065 	 123.896
| 28> H 	 -67.6792 	 51.1922 	 120.546
| 29> C 	 -69.6598 	 51.7456 	 122.387
| 30> H 	 -69.6734 	 52.7613 	 122.098
| 31> H 	 -70.1172 	 51.8171 	 123.326
| 32> C 	 -70.4873 	 50.7687 	 121.519
| 33> H 	 -70.3195 	 49.7398 	 121.708
| 34> H 	 -70.1877 	 50.8526 	 120.443
| 35> C 	 -72.0235 	 51.1069 	 121.301
| 36> H 	 -72.1432 	 51.8406 	 120.492
| 37> H 	 -72.4728 	 51.5089 	 122.168
| 38> H 	 -72.6033 	 50.1927 	 121.044
| 39> H 	 -70.2288 	 50.6074 	 128.227
| 40> H 	 -65.2462 	 50.6411 	 121.51
| 41> *
| 42>
| 43>                          ****END OF INPUT****

CARTESIAN COORDINATES (ANGSTROEM)
---------------------------------
  S    -69.440500   49.980600  126.009000
  C    -69.586500   50.896300  127.435000
  C    -68.854500   52.097900  127.374000
  C    -68.200200   52.211100  126.134000
  C    -68.363900   51.143000  125.245000
  H    -67.603400   53.069900  125.833000
  C    -68.535100   52.942300  128.579000
  H    -67.430200   52.903400  128.846000
  H    -69.093000   52.609900  129.439000
  C    -68.777200   54.491600  128.339000
  H    -68.195200   54.857300  127.571000
  H    -69.781800   54.618100  128.073000
  C    -68.431000   55.403500  129.557000
  H    -69.137100   55.171700  130.348000
  H    -67.479500   55.266000  130.051000
  H    -68.497200   56.459500  129.267000
  S    -66.021600   51.055300  123.732000
  C    -66.132300   50.842900  122.018000
  C    -67.426000   51.178200  121.570000
  C    -68.287500   51.398400  122.650000
  C    -67.789700   51.106500  123.896000
  H    -67.679200   51.192200  120.546000
  C    -69.659800   51.745600  122.387000
  H    -69.673400   52.761300  122.098000
  H    -70.117200   51.817100  123.326000
  C    -70.487300   50.768700  121.519000
  H    -70.319500   49.739800  121.708000
  H    -70.187700   50.852600  120.443000
  C    -72.023500   51.106900  121.301000
  H    -72.143200   51.840600  120.492000
  H    -72.472800   51.508900  122.168000
  H    -72.603300   50.192700  121.044000
  H    -70.228800   50.607400  128.227000
  H    -65.246200   50.641100  121.510000

 Total Charge           Charge          ....    0
 Multiplicity           Mult            ....    1
 Number of Electrons    NEL             ....  134
 Basis Dimension        Dim             ....  322

ORBITAL ENERGIES
----------------

  NO   OCC          E(Eh)            E(eV)
   0   2.0000     -88.970295     -2421.0048
   1   2.0000     -88.959038     -2420.6985
   2   2.0000     -10.330354      -281.1032
   3   2.0000     -10.323502      -280.9168
   4   2.0000     -10.316402      -280.7236
   5   2.0000     -10.313389      -280.6416
   6   2.0000     -10.300134      -280.2809
   7   2.0000     -10.297955      -280.2216
   8   2.0000     -10.293335      -280.0959
   9   2.0000     -10.292871      -280.0833
  10   2.0000     -10.290039      -280.0062
  11   2.0000     -10.288088      -279.9531
  12   2.0000     -10.279111      -279.7088
  13   2.0000     -10.278875      -279.7024
  14   2.0000     -10.277723      -279.6711
  15   2.0000     -10.274857      -279.5931
  16   2.0000      -8.085166      -220.0085
  17   2.0000      -8.074260      -219.7118
  18   2.0000      -6.043496      -164.4519
  19   2.0000      -6.039421      -164.3410
  20   2.0000      -6.036341      -164.2572
  21   2.0000      -6.032604      -164.1555
  22   2.0000      -6.028811      -164.0523
  23   2.0000      -6.025058      -163.9502
  24   2.0000      -1.008059       -27.4307
  25   2.0000      -0.989526       -26.9264
  26   2.0000      -0.910161       -24.7667
  27   2.0000      -0.905154       -24.6305
  28   2.0000      -0.869068       -23.6485
  29   2.0000      -0.850835       -23.1524
  30   2.0000      -0.848716       -23.0947
  31   2.0000      -0.811869       -22.0921
  32   2.0000      -0.782330       -21.2883
  33   2.0000      -0.769741       -20.9457
  34   2.0000      -0.711269       -19.3546
  35   2.0000      -0.708252       -19.2725
  36   2.0000      -0.695282       -18.9196
  37   2.0000      -0.667893       -18.1743
  38   2.0000      -0.643657       -17.5148
  39   2.0000      -0.618871       -16.8403
  40   2.0000      -0.603817       -16.4307
  41   2.0000      -0.571541       -15.5524
  42   2.0000      -0.564580       -15.3630
  43   2.0000      -0.559649       -15.2288
  44   2.0000      -0.533038       -14.5047
  45   2.0000      -0.525319       -14.2947
  46   2.0000      -0.521274       -14.1846
  47   2.0000      -0.505903       -13.7663
  48   2.0000      -0.503503       -13.7010
  49   2.0000      -0.497544       -13.5389
  50   2.0000      -0.491376       -13.3710
  51   2.0000      -0.483209       -13.1488
  52   2.0000      -0.470610       -12.8059
  53   2.0000      -0.463467       -12.6116
  54   2.0000      -0.460347       -12.5267
  55   2.0000      -0.450664       -12.2632
  56   2.0000      -0.444238       -12.0883
  57   2.0000      -0.443087       -12.0570
  58   2.0000      -0.433910       -11.8073
  59   2.0000      -0.429622       -11.6906
  60   2.0000      -0.422567       -11.4986
  61   2.0000      -0.415152       -11.2969
  62   2.0000      -0.403266       -10.9734
  63   2.0000      -0.339184        -9.2297
  64   2.0000      -0.326837        -8.8937
  65   2.0000      -0.322332        -8.7711
  66   2.0000      -0.299426        -8.1478
  67   0.0000       0.038345         1.0434
  68   0.0000       0.051124         1.3911
  69   0.0000       0.102783         2.7969
  70   0.0000       0.123702         3.3661
  71   0.0000       0.137641         3.7454

MULLIKEN ATOMIC CHARGES
-----------------------
   0 S :    0.136147
   1 C :   -0.122375
   2 C :   -0.046533
   3 C :    0.022330
   4 C :   -0.185454
   5 H :    0.016627
   6 C :    0.042833
   7 H :    0.050372
   8 H :    0.014127
   9 C :   -0.060045
  10 H :    0.016823
  11 H :    0.019686
  12 C :   -0.056142
  13 H :    0.023331
  14 H :    0.026246
  15 H :    0.040446
  16 S :    0.089443
  17 C :   -0.071395
  18 C :   -0.007651
  19 C :   -0.046589
  20 C :   -0.169149
  21 H :    0.007173
  22 C :    0.162769
  23 H :    0.016228
  24 H :   -0.006735
  25 C :   -0.097673
  26 H :    0.029913
  27 H :    0.026644
  28 C :   -0.051495
  29 H :    0.034226
  30 H :    0.021349
  31 H :    0.040949
  32 H :    0.042758
  33 H :    0.040816
Sum of atomic charges:   -0.0000000

LOEWDIN ATOMIC CHARGES
----------------------
   0 S :    0.437547
   1 C :   -0.202967
   2 C :   -0.072772
   3 C :   -0.057135
   4 C :   -0.208713
   5 H :    0.030541
   6 C :   -0.027117
   7 H :    0.041424
   8 H :    0.024159
   9 C :   -0.028598
  10 H :    0.011107
  11 H :    0.017592
  12 C :   -0.067279
  13 H :    0.022477
  14 H :    0.022037
  15 H :    0.029750
  16 S :    0.400909
  17 C :   -0.163815
  18 C :   -0.063928
  19 C :   -0.054580
  20 C :   -0.195538
  21 H :    0.026201
  22 C :   -0.032610
  23 H :    0.034375
  24 H :    0.022817
  25 C :   -0.037648
  26 H :    0.020643
  27 H :    0.026800
  28 C :   -0.063621
  29 H :    0.025309
  30 H :    0.014213
  31 H :    0.033261
  32 H :    0.022122
  33 H :    0.013035

  Mayer bond orders larger than 0.100000
B(  0-S ,  1-C ) :   1.1862 B(  0-S ,  4-C ) :   1.1510 B(  1-C ,  2-C ) :   1.5378
B(  1-C ,  4-C ) :   0.1042 B(  1-C , 32-H ) :   0.9723 B(  2-C ,  3-C ) :   1.2821
B(  2-C ,  6-C ) :   1.0414 B(  3-C ,  4-C ) :   1.5504 B(  3-C ,  5-H ) :   0.9911
B(  4-C , 20-C ) :   1.0289 B(  6-C ,  7-H ) :   0.9447 B(  6-C ,  8-H ) :   0.9453
B(  6-C ,  9-C ) :   1.0462 B(  9-C , 10-H ) :   0.9617 B(  9-C , 11-H ) :   0.9587
B(  9-C , 12-C ) :   1.0814 B( 12-C , 13-H ) :   0.9765 B( 12-C , 14-H ) :   0.9756
B( 12-C , 15-H ) :   0.9762 B( 16-S , 17-C ) :   1.1919 B( 16-S , 20-C ) :   1.1248
B( 17-C , 18-C ) :   1.5367 B( 17-C , 20-C ) :   0.1104 B( 17-C , 33-H ) :   0.9819
B( 18-C , 19-C ) :   1.2450 B( 18-C , 21-H ) :   1.0112 B( 19-C , 20-C ) :   1.5750
B( 19-C , 22-C ) :   1.0758 B( 22-C , 23-H ) :   0.9070 B( 22-C , 24-H ) :   0.9099
B( 22-C , 25-C ) :   1.0483 B( 25-C , 26-H ) :   0.9670 B( 25-C , 27-H ) :   0.9579
B( 25-C , 28-C ) :   1.0642 B( 28-C , 29-H ) :   0.9829 B( 28-C , 30-H ) :   0.9799
B( 28-C , 31-H ) :   0.9764

Dispersion correction           -0.013734043
FINAL SINGLE POINT ENERGY     -1339.857441210225

DIPOLE MOMENT
-------------
                                X             Y             Z
Electronic contribution:     13.23351     -15.40701      -3.08734
Nuclear contribution   :    -13.44851      15.81034       3.03843
                        -----------------------------------------
Total Dipole Moment    :     -0.21499       0.40334      -0.04891
                        -----------------------------------------
Magnitude (a.u.)       :      0.45967
Magnitude (Debye)      :      1.16839

Rotational constants in cm-1:     0.018403     0.007457     0.006516
Rotational constants in MHz :   551.703367   223.553385   195.350310

                             ****ORCA TERMINATED NORMALLY****
TOTAL RUN TIME: 0 days 0 hours 0 minutes 32 seconds 828 msec
