                         Program Version 4.2.1 -  RELEASE  -
|  1> ! wB97X-D3 SP def2-SVP
|  2> %pal
|  3> nprocs 16
|  4> end
|  5>
|  6> * xyz 0 1
|  7> S 	 -96.3451 	 39.2919 	 121.962
|  8> C 	 -95.3198 	 38.0232 	 122.701
|  9> C 	 -95.4382 	 38.0354 	 124.105
| 10> C 	 -96.3663 	 39.0006 	 124.588
| 11> C 	 -96.8819 	 39.8228 	 123.56
| 12> H 	 -96.7376 	 39.0997 	 125.563
| 13> C 	 -94.8393 	 36.9572 	 124.992
| 14> H 	 -93.7993 	 36.6653 	 124.587
| 15> H 	 -95.4759 	 36.0742 	 124.786
| 16> C 	 -94.8029 	 37.1923 	 126.535
| 17> H 	 -93.9099 	 37.809 	 126.785
| 18> H 	 -95.6473 	 37.7962 	 126.864
| 19> C 	 -94.7918 	 36.0539 	 127.471
| 20> H 	 -94.7591 	 36.2163 	 128.57
| 21> H 	 -95.5587 	 35.3475 	 127.324
| 22> H 	 -93.8667 	 35.534 	 127.43
| 23> S 	 -97.1683 	 42.5057 	 123.731
| 24> C 	 -98.6678 	 43.2011 	 124.164
| 25> C 	 -99.6505 	 42.241 	 124.185
| 26> C 	 -99.1422 	 40.8893 	 123.999
| 27> C 	 -97.7712 	 40.894 	 123.713
| 28> H 	 -100.69 	 42.4293 	 124.502
| 29> C 	 -100.077 	 39.6925 	 124.082
| 30> H 	 -100.458 	 39.6029 	 125.045
| 31> H 	 -99.4476 	 38.8132 	 123.985
| 32> C 	 -101.285 	 39.6344 	 123.066
| 33> H 	 -100.979 	 39.7737 	 122.036
| 34> H 	 -101.848 	 40.5153 	 123.327
| 35> C 	 -102.063 	 38.2893 	 123.235
| 36> H 	 -102.76 	 38.3152 	 124.101
| 37> H 	 -101.416 	 37.3941 	 123.416
| 38> H 	 -102.646 	 37.9899 	 122.312
| 39> H 	 -94.8357 	 37.291 	 122.171
| 40> H 	 -98.8322 	 44.1519 	 124.493
| 41> *
| 42>
| 43>                          ****END OF INPUT****

CARTESIAN COORDINATES (ANGSTROEM)
---------------------------------
  S    -96.345100   39.291900  121.962000
  C    -95.319800   38.023200  122.701000
  C    -95.438200   38.035400  124.105000
  C    -96.366300   39.000600  124.588000
  C    -96.881900   39.822800  123.560000
  H    -96.737600   39.099700  125.563000
  C    -94.839300   36.957200  124.992000
  H    -93.799300   36.665300  124.587000
  H    -95.475900   36.074200  124.786000
  C    -94.802900   37.192300  126.535000
  H    -93.909900   37.809000  126.785000
  H    -95.647300   37.796200  126.864000
  C    -94.791800   36.053900  127.471000
  H    -94.759100   36.216300  128.570000
  H    -95.558700   35.347500  127.324000
  H    -93.866700   35.534000  127.430000
  S    -97.168300   42.505700  123.731000
  C    -98.667800   43.201100  124.164000
  C    -99.650500   42.241000  124.185000
  C    -99.142200   40.889300  123.999000
  C    -97.771200   40.894000  123.713000
  H    -100.690000   42.429300  124.502000
  C    -100.077000   39.692500  124.082000
  H    -100.458000   39.602900  125.045000
  H    -99.447600   38.813200  123.985000
  C    -101.285000   39.634400  123.066000
  H    -100.979000   39.773700  122.036000
  H    -101.848000   40.515300  123.327000
  C    -102.063000   38.289300  123.235000
  H    -102.760000   38.315200  124.101000
  H    -101.416000   37.394100  123.416000
  H    -102.646000   37.989900  122.312000
  H    -94.835700   37.291000  122.171000
  H    -98.832200   44.151900  124.493000

 Total Charge           Charge          ....    0
 Multiplicity           Mult            ....    1
 Number of Electrons    NEL             ....  134
 Basis Dimension        Dim             ....  322

ORBITAL ENERGIES
----------------

  NO   OCC          E(Eh)            E(eV)
   0   2.0000     -88.968105     -2420.9452
   1   2.0000     -88.962767     -2420.8000
   2   2.0000     -10.327674      -281.0303
   3   2.0000     -10.318147      -280.7711
   4   2.0000     -10.312839      -280.6266
   5   2.0000     -10.308649      -280.5126
   6   2.0000     -10.307001      -280.4678
   7   2.0000     -10.305248      -280.4201
   8   2.0000     -10.304069      -280.3880
   9   2.0000     -10.294533      -280.1285
  10   2.0000     -10.293404      -280.0978
  11   2.0000     -10.290355      -280.0148
  12   2.0000     -10.289755      -279.9985
  13   2.0000     -10.289411      -279.9891
  14   2.0000     -10.285183      -279.8741
  15   2.0000     -10.271425      -279.4997
  16   2.0000      -8.081652      -219.9129
  17   2.0000      -8.078879      -219.8375
  18   2.0000      -6.040102      -164.3595
  19   2.0000      -6.037374      -164.2853
  20   2.0000      -6.036271      -164.2553
  21   2.0000      -6.033005      -164.1664
  22   2.0000      -6.032613      -164.1557
  23   2.0000      -6.029746      -164.0777
  24   2.0000      -1.008140       -27.4329
  25   2.0000      -0.978684       -26.6313
  26   2.0000      -0.911096       -24.7922
  27   2.0000      -0.902063       -24.5464
  28   2.0000      -0.876970       -23.8636
  29   2.0000      -0.850849       -23.1528
  30   2.0000      -0.843519       -22.9533
  31   2.0000      -0.815023       -22.1779
  32   2.0000      -0.782067       -21.2811
  33   2.0000      -0.769352       -20.9351
  34   2.0000      -0.716375       -19.4936
  35   2.0000      -0.705443       -19.1961
  36   2.0000      -0.696672       -18.9574
  37   2.0000      -0.658693       -17.9240
  38   2.0000      -0.645071       -17.5533
  39   2.0000      -0.619442       -16.8559
  40   2.0000      -0.598000       -16.2724
  41   2.0000      -0.567749       -15.4492
  42   2.0000      -0.566396       -15.4124
  43   2.0000      -0.559914       -15.2360
  44   2.0000      -0.526531       -14.3276
  45   2.0000      -0.520364       -14.1598
  46   2.0000      -0.514534       -14.0012
  47   2.0000      -0.511509       -13.9189
  48   2.0000      -0.507955       -13.8222
  49   2.0000      -0.502715       -13.6796
  50   2.0000      -0.498660       -13.5692
  51   2.0000      -0.479512       -13.0482
  52   2.0000      -0.471955       -12.8426
  53   2.0000      -0.469911       -12.7869
  54   2.0000      -0.456318       -12.4171
  55   2.0000      -0.452234       -12.3059
  56   2.0000      -0.443552       -12.0697
  57   2.0000      -0.435734       -11.8569
  58   2.0000      -0.430217       -11.7068
  59   2.0000      -0.423933       -11.5358
  60   2.0000      -0.421403       -11.4669
  61   2.0000      -0.414936       -11.2910
  62   2.0000      -0.410347       -11.1661
  63   2.0000      -0.335995        -9.1429
  64   2.0000      -0.327695        -8.9170
  65   2.0000      -0.321021        -8.7354
  66   2.0000      -0.301271        -8.1980
  67   0.0000       0.039067         1.0631
  68   0.0000       0.053208         1.4479
  69   0.0000       0.114707         3.1213
  70   0.0000       0.123571         3.3625
  71   0.0000       0.128216         3.4889

MULLIKEN ATOMIC CHARGES
-----------------------
   0 S :    0.117327
   1 C :   -0.092984
   2 C :   -0.060251
   3 C :    0.058357
   4 C :   -0.197758
   5 H :   -0.001783
   6 C :    0.026022
   7 H :    0.045856
   8 H :    0.045675
   9 C :   -0.071634
  10 H :    0.037834
  11 H :    0.029253
  12 C :   -0.033737
  13 H :    0.029633
  14 H :    0.019352
  15 H :    0.009188
  16 S :    0.128417
  17 C :   -0.050830
  18 C :   -0.045925
  19 C :   -0.037770
  20 C :   -0.178794
  21 H :    0.027966
  22 C :    0.089513
  23 H :    0.010661
  24 H :    0.015060
  25 C :   -0.054181
  26 H :    0.037472
  27 H :    0.026362
  28 C :   -0.089158
  29 H :    0.038087
  30 H :    0.037871
  31 H :    0.046676
  32 H :    0.014632
  33 H :    0.023594
Sum of atomic charges:   -0.0000000

LOEWDIN ATOMIC CHARGES
----------------------
   0 S :    0.395832
   1 C :   -0.178678
   2 C :   -0.056075
   3 C :   -0.049898
   4 C :   -0.192499
   5 H :    0.023404
   6 C :   -0.038075
   7 H :    0.040814
   8 H :    0.037866
   9 C :   -0.049574
  10 H :    0.033160
  11 H :    0.024011
  12 C :   -0.070781
  13 H :    0.036689
  14 H :    0.016975
  15 H :    0.020266
  16 S :    0.442078
  17 C :   -0.184045
  18 C :   -0.075648
  19 C :   -0.047237
  20 C :   -0.229135
  21 H :    0.032009
  22 C :   -0.028901
  23 H :    0.021737
  24 H :    0.026697
  25 C :   -0.031576
  26 H :    0.025622
  27 H :    0.020848
  28 C :   -0.078128
  29 H :    0.027218
  30 H :    0.029517
  31 H :    0.033471
  32 H :    0.008547
  33 H :    0.013489

  Mayer bond orders larger than 0.100000
B(  0-S ,  1-C ) :   1.1367 B(  0-S ,  4-C ) :   1.1585 B(  1-C ,  2-C ) :   1.5912
B(  1-C ,  4-C ) :   0.1154 B(  1-C , 32-H ) :   0.9837 B(  2-C ,  3-C ) :   1.2505
B(  2-C ,  6-C ) :   1.0116 B(  3-C ,  4-C ) :   1.5612 B(  3-C ,  5-H ) :   0.9978
B(  4-C , 20-C ) :   1.0480 B(  6-C ,  7-H ) :   0.9421 B(  6-C ,  8-H ) :   0.9427
B(  6-C ,  9-C ) :   1.0513 B(  9-C , 10-H ) :   0.9525 B(  9-C , 11-H ) :   0.9544
B(  9-C , 12-C ) :   1.0986 B( 12-C , 13-H ) :   0.9679 B( 12-C , 14-H ) :   0.9727
B( 12-C , 15-H ) :   0.9681 B( 16-S , 17-C ) :   1.1724 B( 16-S , 20-C ) :   1.1515
B( 17-C , 18-C ) :   1.5898 B( 17-C , 33-H ) :   0.9798 B( 18-C , 19-C ) :   1.2519
B( 18-C , 21-H ) :   0.9815 B( 19-C , 20-C ) :   1.5802 B( 19-C , 22-C ) :   1.0506
B( 22-C , 23-H ) :   0.9315 B( 22-C , 24-H ) :   0.9285 B( 22-C , 25-C ) :   1.0505
B( 25-C , 26-H ) :   0.9631 B( 25-C , 27-H ) :   0.9580 B( 25-C , 28-C ) :   1.0659
B( 28-C , 29-H ) :   0.9767 B( 28-C , 30-H ) :   0.9770 B( 28-C , 31-H ) :   0.9777

Dispersion correction           -0.013600533
FINAL SINGLE POINT ENERGY     -1339.862882037426

DIPOLE MOMENT
-------------
                                X             Y             Z
Electronic contribution:      8.79080      20.71801     -14.26005
Nuclear contribution   :     -9.09748     -21.19463      14.80401
                        -----------------------------------------
Total Dipole Moment    :     -0.30669      -0.47662       0.54395
                        -----------------------------------------
Magnitude (a.u.)       :      0.78556
Magnitude (Debye)      :      1.99674

Rotational constants in cm-1:     0.016296     0.007915     0.006993
Rotational constants in MHz :   488.539516   237.279362   209.645626

                             ****ORCA TERMINATED NORMALLY****
TOTAL RUN TIME: 0 days 0 hours 0 minutes 32 seconds 732 msec
