                         Program Version 4.2.1 -  RELEASE  -
|  1> ! wB97X-D3 SP def2-SVP
|  2> %pal
|  3> nprocs 16
|  4> end
|  5>
|  6> * xyz 0 1
|  7> S 	 19.8331 	 3.01543 	 83.8794
|  8> C 	 21.0353 	 4.28391 	 83.8448
|  9> C 	 20.5121 	 5.47096 	 83.4551
| 10> C 	 19.0787 	 5.41129 	 83.2208
| 11> C 	 18.604 	 4.09058 	 83.306
| 12> H 	 18.4731 	 6.30756 	 83.0422
| 13> C 	 21.3248 	 6.70999 	 83.2962
| 14> H 	 22.381 	 6.58435 	 83.2791
| 15> H 	 21.0956 	 7.38024 	 84.1497
| 16> C 	 20.9787 	 7.55158 	 81.9698
| 17> H 	 20.8718 	 6.94252 	 81.059
| 18> H 	 19.9746 	 7.94498 	 82.1111
| 19> C 	 22.1089 	 8.64438 	 81.6059
| 20> H 	 21.9398 	 9.47312 	 82.3459
| 21> H 	 23.1039 	 8.2218 	 81.6044
| 22> H 	 21.8833 	 9.02947 	 80.6021
| 23> S 	 16.9507 	 1.88668 	 83.4149
| 24> C 	 15.1977 	 2.04876 	 83.2413
| 25> C 	 14.8737 	 3.3607 	 82.9924
| 26> C 	 16.0006 	 4.19568 	 82.8272
| 27> C 	 17.2095 	 3.61831 	 83.1755
| 28> H 	 13.8124 	 3.57095 	 82.7659
| 29> C 	 15.8288 	 5.6715 	 82.6546
| 30> H 	 14.9523 	 5.80915 	 82.0011
| 31> H 	 16.6229 	 6.10855 	 82.0426
| 32> C 	 15.4978 	 6.51373 	 83.9039
| 33> H 	 16.0025 	 6.01587 	 84.6974
| 34> H 	 14.4529 	 6.40821 	 84.1948
| 35> C 	 15.8707 	 8.018 	 83.8297
| 36> H 	 15.7609 	 8.55667 	 84.7815
| 37> H 	 15.125 	 8.54645 	 83.1717
| 38> H 	 16.9323 	 8.12673 	 83.4409
| 39> H 	 22.043 	 4.248 	 84.0471
| 40> H 	 14.4966 	 1.2934 	 83.3808
| 41> *
| 42>
| 43>                          ****END OF INPUT****

CARTESIAN COORDINATES (ANGSTROEM)
---------------------------------
  S     19.833100    3.015430   83.879400
  C     21.035300    4.283910   83.844800
  C     20.512100    5.470960   83.455100
  C     19.078700    5.411290   83.220800
  C     18.604000    4.090580   83.306000
  H     18.473100    6.307560   83.042200
  C     21.324800    6.709990   83.296200
  H     22.381000    6.584350   83.279100
  H     21.095600    7.380240   84.149700
  C     20.978700    7.551580   81.969800
  H     20.871800    6.942520   81.059000
  H     19.974600    7.944980   82.111100
  C     22.108900    8.644380   81.605900
  H     21.939800    9.473120   82.345900
  H     23.103900    8.221800   81.604400
  H     21.883300    9.029470   80.602100
  S     16.950700    1.886680   83.414900
  C     15.197700    2.048760   83.241300
  C     14.873700    3.360700   82.992400
  C     16.000600    4.195680   82.827200
  C     17.209500    3.618310   83.175500
  H     13.812400    3.570950   82.765900
  C     15.828800    5.671500   82.654600
  H     14.952300    5.809150   82.001100
  H     16.622900    6.108550   82.042600
  C     15.497800    6.513730   83.903900
  H     16.002500    6.015870   84.697400
  H     14.452900    6.408210   84.194800
  C     15.870700    8.018000   83.829700
  H     15.760900    8.556670   84.781500
  H     15.125000    8.546450   83.171700
  H     16.932300    8.126730   83.440900
  H     22.043000    4.248000   84.047100
  H     14.496600    1.293400   83.380800

 Total Charge           Charge          ....    0
 Multiplicity           Mult            ....    1
 Number of Electrons    NEL             ....  134
 Basis Dimension        Dim             ....  322

ORBITAL ENERGIES
----------------

  NO   OCC          E(Eh)            E(eV)
   0   2.0000     -88.969205     -2420.9751
   1   2.0000     -88.964409     -2420.8446
   2   2.0000     -10.338272      -281.3187
   3   2.0000     -10.333057      -281.1768
   4   2.0000     -10.315708      -280.7047
   5   2.0000     -10.303937      -280.3844
   6   2.0000     -10.302080      -280.3338
   7   2.0000     -10.300510      -280.2911
   8   2.0000     -10.298512      -280.2367
   9   2.0000     -10.295795      -280.1628
  10   2.0000     -10.295750      -280.1616
  11   2.0000     -10.295459      -280.1537
  12   2.0000     -10.292597      -280.0758
  13   2.0000     -10.290094      -280.0077
  14   2.0000     -10.289505      -279.9917
  15   2.0000     -10.284714      -279.8613
  16   2.0000      -8.084065      -219.9786
  17   2.0000      -8.078812      -219.8356
  18   2.0000      -6.042808      -164.4332
  19   2.0000      -6.038575      -164.3180
  20   2.0000      -6.037415      -164.2864
  21   2.0000      -6.034559      -164.2087
  22   2.0000      -6.033379      -164.1766
  23   2.0000      -6.029490      -164.0708
  24   2.0000      -1.009251       -27.4631
  25   2.0000      -0.986752       -26.8509
  26   2.0000      -0.908459       -24.7204
  27   2.0000      -0.904757       -24.6197
  28   2.0000      -0.868441       -23.6315
  29   2.0000      -0.850259       -23.1367
  30   2.0000      -0.840782       -22.8788
  31   2.0000      -0.819111       -22.2892
  32   2.0000      -0.779295       -21.2057
  33   2.0000      -0.773110       -21.0374
  34   2.0000      -0.715306       -19.4645
  35   2.0000      -0.700293       -19.0559
  36   2.0000      -0.696393       -18.9498
  37   2.0000      -0.665716       -18.1151
  38   2.0000      -0.638750       -17.3813
  39   2.0000      -0.626371       -17.0444
  40   2.0000      -0.598232       -16.2787
  41   2.0000      -0.569320       -15.4920
  42   2.0000      -0.562321       -15.3015
  43   2.0000      -0.558026       -15.1847
  44   2.0000      -0.525621       -14.3029
  45   2.0000      -0.519026       -14.1234
  46   2.0000      -0.517195       -14.0736
  47   2.0000      -0.512105       -13.9351
  48   2.0000      -0.506245       -13.7756
  49   2.0000      -0.504414       -13.7258
  50   2.0000      -0.497328       -13.5330
  51   2.0000      -0.480396       -13.0722
  52   2.0000      -0.473919       -12.8960
  53   2.0000      -0.469714       -12.7816
  54   2.0000      -0.456733       -12.4283
  55   2.0000      -0.452140       -12.3033
  56   2.0000      -0.450017       -12.2456
  57   2.0000      -0.439154       -11.9500
  58   2.0000      -0.431772       -11.7491
  59   2.0000      -0.429811       -11.6957
  60   2.0000      -0.421802       -11.4778
  61   2.0000      -0.409305       -11.1378
  62   2.0000      -0.403050       -10.9675
  63   2.0000      -0.364214        -9.9108
  64   2.0000      -0.336332        -9.1521
  65   2.0000      -0.325954        -8.8697
  66   2.0000      -0.284348        -7.7375
  67   0.0000       0.017071         0.4645
  68   0.0000       0.087157         2.3717
  69   0.0000       0.096136         2.6160
  70   0.0000       0.111359         3.0302
  71   0.0000       0.129705         3.5294

MULLIKEN ATOMIC CHARGES
-----------------------
   0 S :    0.105251
   1 C :   -0.069631
   2 C :   -0.074769
   3 C :   -0.010675
   4 C :   -0.074846
   5 H :   -0.002373
   6 C :    0.071518
   7 H :    0.009984
   8 H :    0.045099
   9 C :   -0.135418
  10 H :    0.040152
  11 H :    0.027630
  12 C :   -0.064825
  13 H :    0.045702
  14 H :    0.046427
  15 H :    0.040450
  16 S :    0.074209
  17 C :   -0.058963
  18 C :   -0.041510
  19 C :   -0.063865
  20 C :   -0.099557
  21 H :    0.034153
  22 C :    0.016269
  23 H :    0.014434
  24 H :    0.027527
  25 C :   -0.030982
  26 H :    0.022311
  27 H :    0.022665
  28 C :   -0.081868
  29 H :    0.043496
  30 H :    0.039113
  31 H :    0.043819
  32 H :    0.003886
  33 H :    0.035188
Sum of atomic charges:   -0.0000000

LOEWDIN ATOMIC CHARGES
----------------------
   0 S :    0.411866
   1 C :   -0.188353
   2 C :   -0.058757
   3 C :   -0.067906
   4 C :   -0.185685
   5 H :    0.028361
   6 C :   -0.030659
   7 H :    0.021833
   8 H :    0.039096
   9 C :   -0.041242
  10 H :    0.023462
  11 H :    0.016420
  12 C :   -0.066565
  13 H :    0.031348
  14 H :    0.024639
  15 H :    0.028568
  16 S :    0.381967
  17 C :   -0.163535
  18 C :   -0.071555
  19 C :   -0.067190
  20 C :   -0.177599
  21 H :    0.040400
  22 C :   -0.040663
  23 H :    0.031466
  24 H :    0.027064
  25 C :   -0.041246
  26 H :    0.019424
  27 H :    0.025156
  28 C :   -0.071565
  29 H :    0.030119
  30 H :    0.030346
  31 H :    0.027575
  32 H :    0.015007
  33 H :    0.018402

  Mayer bond orders larger than 0.100000
B(  0-S ,  1-C ) :   1.1088 B(  0-S ,  4-C ) :   1.1561 B(  1-C ,  2-C ) :   1.6531
B(  1-C , 32-H ) :   0.9710 B(  2-C ,  3-C ) :   1.2199 B(  2-C ,  6-C ) :   1.0411
B(  3-C ,  4-C ) :   1.5535 B(  3-C ,  5-H ) :   0.9871 B(  4-C , 20-C ) :   1.0768
B(  6-C ,  7-H ) :   0.9493 B(  6-C ,  8-H ) :   0.9314 B(  6-C ,  9-C ) :   1.0386
B(  9-C , 10-H ) :   0.9688 B(  9-C , 11-H ) :   0.9570 B(  9-C , 12-C ) :   1.0697
B( 12-C , 13-H ) :   0.9794 B( 12-C , 14-H ) :   0.9770 B( 12-C , 15-H ) :   0.9780
B( 16-S , 17-C ) :   1.1476 B( 16-S , 20-C ) :   1.1293 B( 17-C , 18-C ) :   1.6199
B( 17-C , 33-H ) :   0.9753 B( 18-C , 19-C ) :   1.2375 B( 18-C , 21-H ) :   0.9840
B( 19-C , 20-C ) :   1.5792 B( 19-C , 22-C ) :   1.0817 B( 22-C , 23-H ) :   0.9221
B( 22-C , 24-H ) :   0.9371 B( 22-C , 25-C ) :   1.0391 B( 25-C , 26-H ) :   0.9608
B( 25-C , 27-H ) :   0.9509 B( 25-C , 28-C ) :   1.0774 B( 28-C , 29-H ) :   0.9720
B( 28-C , 30-H ) :   0.9738 B( 28-C , 31-H ) :   0.9761

Dispersion correction           -0.014271625
FINAL SINGLE POINT ENERGY     -1339.874346558821

DIPOLE MOMENT
-------------
                                X             Y             Z
Electronic contribution:     -1.91143     -32.52551       4.96146
Nuclear contribution   :      1.73261      33.22714      -5.01073
                        -----------------------------------------
Total Dipole Moment    :     -0.17883       0.70163      -0.04927
                        -----------------------------------------
Magnitude (a.u.)       :      0.72574
Magnitude (Debye)      :      1.84468

Rotational constants in cm-1:     0.018339     0.009096     0.006506
Rotational constants in MHz :   549.803340   272.691511   195.047436

                             ****ORCA TERMINATED NORMALLY****
TOTAL RUN TIME: 0 days 0 hours 0 minutes 33 seconds 328 msec
