                         Program Version 4.2.1 -  RELEASE  -
|  1> ! wB97X-D3 SP def2-SVP
|  2> %pal
|  3> nprocs 16
|  4> end
|  5>
|  6> * xyz 0 1
|  7> S 	 -37.5169 	 24.0555 	 78.5287
|  8> C 	 -36.4258 	 25.0002 	 79.5625
|  9> C 	 -36.4658 	 26.334 	 79.2396
| 10> C 	 -37.3946 	 26.6431 	 78.2082
| 11> C 	 -38.0322 	 25.509 	 77.7114
| 12> H 	 -37.6025 	 27.658 	 77.9527
| 13> C 	 -35.7026 	 27.4807 	 80.0464
| 14> H 	 -36.1243 	 28.48 	 79.844
| 15> H 	 -34.6638 	 27.5891 	 79.6134
| 16> C 	 -35.8029 	 27.3952 	 81.609
| 17> H 	 -36.6961 	 27.855 	 81.9335
| 18> H 	 -35.6903 	 26.3359 	 81.8209
| 19> C 	 -34.6112 	 28.0259 	 82.2756
| 20> H 	 -34.5067 	 29.0294 	 81.8342
| 21> H 	 -34.8222 	 28.1867 	 83.3005
| 22> H 	 -33.7234 	 27.441 	 82.1384
| 23> S 	 -40.6599 	 25.9051 	 76.7931
| 24> C 	 -41.0585 	 25.4587 	 75.2205
| 25> C 	 -39.939 	 25.1218 	 74.4655
| 26> C 	 -38.7307 	 25.1052 	 75.2888
| 27> C 	 -38.9364 	 25.4685 	 76.6088
| 28> H 	 -40.0025 	 24.7914 	 73.4888
| 29> C 	 -37.3691 	 24.6825 	 74.7223
| 30> H 	 -37.4843 	 23.9659 	 73.9455
| 31> H 	 -36.7827 	 24.2203 	 75.5032
| 32> C 	 -36.5505 	 25.8161 	 74.1614
| 33> H 	 -37.168 	 26.2901 	 73.4359
| 34> H 	 -35.673 	 25.3773 	 73.6693
| 35> C 	 -36.0713 	 26.8884 	 75.205
| 36> H 	 -36.9015 	 27.4743 	 75.7582
| 37> H 	 -35.4699 	 27.6484 	 74.8367
| 38> H 	 -35.4242 	 26.5105 	 75.9879
| 39> H 	 -35.7605 	 24.6911 	 80.3152
| 40> H 	 -42.0717 	 25.3432 	 74.847
| 41> *
| 42>
| 43>                          ****END OF INPUT****

CARTESIAN COORDINATES (ANGSTROEM)
---------------------------------
  S    -37.516900   24.055500   78.528700
  C    -36.425800   25.000200   79.562500
  C    -36.465800   26.334000   79.239600
  C    -37.394600   26.643100   78.208200
  C    -38.032200   25.509000   77.711400
  H    -37.602500   27.658000   77.952700
  C    -35.702600   27.480700   80.046400
  H    -36.124300   28.480000   79.844000
  H    -34.663800   27.589100   79.613400
  C    -35.802900   27.395200   81.609000
  H    -36.696100   27.855000   81.933500
  H    -35.690300   26.335900   81.820900
  C    -34.611200   28.025900   82.275600
  H    -34.506700   29.029400   81.834200
  H    -34.822200   28.186700   83.300500
  H    -33.723400   27.441000   82.138400
  S    -40.659900   25.905100   76.793100
  C    -41.058500   25.458700   75.220500
  C    -39.939000   25.121800   74.465500
  C    -38.730700   25.105200   75.288800
  C    -38.936400   25.468500   76.608800
  H    -40.002500   24.791400   73.488800
  C    -37.369100   24.682500   74.722300
  H    -37.484300   23.965900   73.945500
  H    -36.782700   24.220300   75.503200
  C    -36.550500   25.816100   74.161400
  H    -37.168000   26.290100   73.435900
  H    -35.673000   25.377300   73.669300
  C    -36.071300   26.888400   75.205000
  H    -36.901500   27.474300   75.758200
  H    -35.469900   27.648400   74.836700
  H    -35.424200   26.510500   75.987900
  H    -35.760500   24.691100   80.315200
  H    -42.071700   25.343200   74.847000

 Total Charge           Charge          ....    0
 Multiplicity           Mult            ....    1
 Number of Electrons    NEL             ....  134
 Basis Dimension        Dim             ....  322

ORBITAL ENERGIES
----------------

  NO   OCC          E(Eh)            E(eV)
   0   2.0000     -88.971650     -2421.0417
   1   2.0000     -88.961395     -2420.7626
   2   2.0000     -10.326863      -281.0082
   3   2.0000     -10.321432      -280.8604
   4   2.0000     -10.315124      -280.6888
   5   2.0000     -10.311753      -280.5971
   6   2.0000     -10.304629      -280.4032
   7   2.0000     -10.302482      -280.3448
   8   2.0000     -10.301474      -280.3174
   9   2.0000     -10.292968      -280.0859
  10   2.0000     -10.289661      -279.9959
  11   2.0000     -10.283606      -279.8312
  12   2.0000     -10.282684      -279.8060
  13   2.0000     -10.281973      -279.7867
  14   2.0000     -10.272650      -279.5330
  15   2.0000     -10.270110      -279.4639
  16   2.0000      -8.085337      -220.0132
  17   2.0000      -8.076990      -219.7861
  18   2.0000      -6.043939      -164.4639
  19   2.0000      -6.039893      -164.3538
  20   2.0000      -6.036150      -164.2520
  21   2.0000      -6.035407      -164.2318
  22   2.0000      -6.031241      -164.1184
  23   2.0000      -6.027930      -164.0283
  24   2.0000      -1.004891       -27.3445
  25   2.0000      -0.982334       -26.7307
  26   2.0000      -0.910220       -24.7683
  27   2.0000      -0.906757       -24.6741
  28   2.0000      -0.871757       -23.7217
  29   2.0000      -0.849291       -23.1104
  30   2.0000      -0.839517       -22.8444
  31   2.0000      -0.810310       -22.0496
  32   2.0000      -0.783575       -21.3222
  33   2.0000      -0.773875       -21.0582
  34   2.0000      -0.710929       -19.3454
  35   2.0000      -0.697556       -18.9815
  36   2.0000      -0.691776       -18.8242
  37   2.0000      -0.659899       -17.9568
  38   2.0000      -0.638831       -17.3835
  39   2.0000      -0.615938       -16.7605
  40   2.0000      -0.596993       -16.2450
  41   2.0000      -0.584639       -15.9088
  42   2.0000      -0.565978       -15.4010
  43   2.0000      -0.549634       -14.9563
  44   2.0000      -0.541064       -14.7231
  45   2.0000      -0.521780       -14.1984
  46   2.0000      -0.514333       -13.9957
  47   2.0000      -0.507057       -13.7977
  48   2.0000      -0.501421       -13.6444
  49   2.0000      -0.498957       -13.5773
  50   2.0000      -0.493756       -13.4358
  51   2.0000      -0.481807       -13.1106
  52   2.0000      -0.469202       -12.7676
  53   2.0000      -0.465437       -12.6652
  54   2.0000      -0.458347       -12.4722
  55   2.0000      -0.446916       -12.1612
  56   2.0000      -0.441017       -12.0007
  57   2.0000      -0.437495       -11.9048
  58   2.0000      -0.434296       -11.8178
  59   2.0000      -0.420791       -11.4503
  60   2.0000      -0.418777       -11.3955
  61   2.0000      -0.410573       -11.1723
  62   2.0000      -0.409949       -11.1553
  63   2.0000      -0.335247        -9.1225
  64   2.0000      -0.327484        -8.9113
  65   2.0000      -0.325341        -8.8530
  66   2.0000      -0.305236        -8.3059
  67   0.0000       0.043065         1.1719
  68   0.0000       0.052577         1.4307
  69   0.0000       0.111846         3.0435
  70   0.0000       0.120509         3.2792
  71   0.0000       0.128162         3.4875

MULLIKEN ATOMIC CHARGES
-----------------------
   0 S :    0.134189
   1 C :   -0.109795
   2 C :   -0.080656
   3 C :    0.058425
   4 C :   -0.175254
   5 H :    0.010653
   6 C :    0.004448
   7 H :    0.020377
   8 H :    0.048768
   9 C :   -0.050666
  10 H :    0.035503
  11 H :    0.022004
  12 C :   -0.036190
  13 H :    0.022137
  14 H :    0.026213
  15 H :    0.034223
  16 S :    0.115022
  17 C :   -0.085395
  18 C :   -0.012155
  19 C :   -0.046182
  20 C :   -0.181012
  21 H :   -0.009103
  22 C :    0.116374
  23 H :    0.009692
  24 H :    0.012585
  25 C :   -0.037833
  26 H :    0.016057
  27 H :    0.032614
  28 C :   -0.053300
  29 H :    0.035093
  30 H :    0.008197
  31 H :    0.024893
  32 H :    0.025920
  33 H :    0.064152
Sum of atomic charges:   -0.0000000

LOEWDIN ATOMIC CHARGES
----------------------
   0 S :    0.416011
   1 C :   -0.189015
   2 C :   -0.063804
   3 C :   -0.045311
   4 C :   -0.200249
   5 H :    0.027430
   6 C :   -0.037172
   7 H :    0.027064
   8 H :    0.035780
   9 C :   -0.032135
  10 H :    0.022548
  11 H :    0.020435
  12 C :   -0.057306
  13 H :    0.024096
  14 H :    0.021507
  15 H :    0.023451
  16 S :    0.417194
  17 C :   -0.198423
  18 C :   -0.071491
  19 C :   -0.040033
  20 C :   -0.207242
  21 H :    0.017245
  22 C :   -0.027712
  23 H :    0.025500
  24 H :    0.023882
  25 C :   -0.029059
  26 H :    0.018400
  27 H :    0.027703
  28 C :   -0.073513
  29 H :    0.034346
  30 H :    0.013403
  31 H :    0.023561
  32 H :    0.019165
  33 H :    0.033745

  Mayer bond orders larger than 0.100000
B(  0-S ,  1-C ) :   1.1302 B(  0-S ,  4-C ) :   1.1529 B(  1-C ,  2-C ) :   1.6315
B(  1-C , 32-H ) :   0.9676 B(  2-C ,  3-C ) :   1.2697 B(  2-C ,  6-C ) :   0.9923
B(  3-C ,  4-C ) :   1.5580 B(  3-C ,  5-H ) :   0.9916 B(  4-C , 20-C ) :   1.0441
B(  6-C ,  7-H ) :   0.9514 B(  6-C ,  8-H ) :   0.9492 B(  6-C ,  9-C ) :   1.0445
B(  9-C , 10-H ) :   0.9620 B(  9-C , 11-H ) :   0.9636 B(  9-C , 12-C ) :   1.0850
B( 12-C , 13-H ) :   0.9731 B( 12-C , 14-H ) :   0.9717 B( 12-C , 15-H ) :   0.9791
B( 16-S , 17-C ) :   1.1883 B( 16-S , 20-C ) :   1.1226 B( 17-C , 18-C ) :   1.5817
B( 17-C , 33-H ) :   0.9653 B( 18-C , 19-C ) :   1.2403 B( 18-C , 21-H ) :   1.0020
B( 19-C , 20-C ) :   1.6052 B( 19-C , 22-C ) :   1.0454 B( 22-C , 23-H ) :   0.9295
B( 22-C , 24-H ) :   0.9252 B( 22-C , 25-C ) :   1.0857 B( 25-C , 26-H ) :   0.9535
B( 25-C , 27-H ) :   0.9537 B( 25-C , 28-C ) :   1.0775 B( 28-C , 29-H ) :   0.9674
B( 28-C , 30-H ) :   0.9702 B( 28-C , 31-H ) :   0.9718

Dispersion correction           -0.015608173
FINAL SINGLE POINT ENERGY     -1339.869163520844

DIPOLE MOMENT
-------------
                                X             Y             Z
Electronic contribution:    -21.06738     -12.94951      -4.43979
Nuclear contribution   :     21.43958      13.17991       4.39048
                        -----------------------------------------
Total Dipole Moment    :      0.37220       0.23040      -0.04931
                        -----------------------------------------
Magnitude (a.u.)       :      0.44051
Magnitude (Debye)      :      1.11968

Rotational constants in cm-1:     0.023902     0.007611     0.006892
Rotational constants in MHz :   716.578574   228.179983   206.624424

                             ****ORCA TERMINATED NORMALLY****
TOTAL RUN TIME: 0 days 0 hours 0 minutes 29 seconds 787 msec
