                         Program Version 4.2.1 -  RELEASE  -
|  1> ! wB97X-D3 SP def2-SVP
|  2> %pal
|  3> nprocs 16
|  4> end
|  5>
|  6> * xyz 0 1
|  7> S 	 -4.29341 	 13.0009 	 86.7619
|  8> C 	 -5.96565 	 12.4603 	 87.0326
|  9> C 	 -6.66094 	 13.4125 	 87.8001
| 10> C 	 -5.762 	 14.4153 	 88.3021
| 11> C 	 -4.47012 	 14.3269 	 87.8511
| 12> H 	 -5.99223 	 15.268 	 88.9347
| 13> C 	 -8.14694 	 13.2641 	 88.2034
| 14> H 	 -8.61013 	 13.0814 	 87.2269
| 15> H 	 -8.60815 	 14.1928 	 88.6898
| 16> C 	 -8.55689 	 11.9862 	 88.9681
| 17> H 	 -9.61546 	 12.1321 	 89.2484
| 18> H 	 -8.4191 	 11.0809 	 88.3513
| 19> C 	 -7.80816 	 11.6458 	 90.2687
| 20> H 	 -6.80159 	 11.4863 	 89.9355
| 21> H 	 -7.55836 	 12.3854 	 91.078
| 22> H 	 -8.2616 	 10.7872 	 90.7499
| 23> S 	 -2.57069 	 16.0425 	 86.669
| 24> C 	 -1.80059 	 17.1931 	 87.7362
| 25> C 	 -2.08852 	 16.9689 	 89.0192
| 26> C 	 -3.05181 	 15.9028 	 89.2835
| 27> C 	 -3.36906 	 15.222 	 88.0924
| 28> H 	 -1.52027 	 17.694 	 89.7072
| 29> C 	 -3.48821 	 15.5984 	 90.7206
| 30> H 	 -4.42811 	 16.0777 	 90.8463
| 31> H 	 -2.90423 	 16.121 	 91.4508
| 32> C 	 -3.62548 	 14.1045 	 91.0908
| 33> H 	 -4.45395 	 13.611 	 90.5368
| 34> H 	 -3.79306 	 14.0642 	 92.1956
| 35> C 	 -2.41328 	 13.1652 	 90.7715
| 36> H 	 -2.66987 	 12.2011 	 91.0769
| 37> H 	 -1.45524 	 13.429 	 91.2932
| 38> H 	 -2.28562 	 13.0937 	 89.6894
| 39> H 	 -6.40018 	 11.6293 	 86.5206
| 40> H 	 -1.01913 	 17.8203 	 87.3857
| 41> *
| 42>
| 43>                          ****END OF INPUT****

CARTESIAN COORDINATES (ANGSTROEM)
---------------------------------
  S     -4.293410   13.000900   86.761900
  C     -5.965650   12.460300   87.032600
  C     -6.660940   13.412500   87.800100
  C     -5.762000   14.415300   88.302100
  C     -4.470120   14.326900   87.851100
  H     -5.992230   15.268000   88.934700
  C     -8.146940   13.264100   88.203400
  H     -8.610130   13.081400   87.226900
  H     -8.608150   14.192800   88.689800
  C     -8.556890   11.986200   88.968100
  H     -9.615460   12.132100   89.248400
  H     -8.419100   11.080900   88.351300
  C     -7.808160   11.645800   90.268700
  H     -6.801590   11.486300   89.935500
  H     -7.558360   12.385400   91.078000
  H     -8.261600   10.787200   90.749900
  S     -2.570690   16.042500   86.669000
  C     -1.800590   17.193100   87.736200
  C     -2.088520   16.968900   89.019200
  C     -3.051810   15.902800   89.283500
  C     -3.369060   15.222000   88.092400
  H     -1.520270   17.694000   89.707200
  C     -3.488210   15.598400   90.720600
  H     -4.428110   16.077700   90.846300
  H     -2.904230   16.121000   91.450800
  C     -3.625480   14.104500   91.090800
  H     -4.453950   13.611000   90.536800
  H     -3.793060   14.064200   92.195600
  C     -2.413280   13.165200   90.771500
  H     -2.669870   12.201100   91.076900
  H     -1.455240   13.429000   91.293200
  H     -2.285620   13.093700   89.689400
  H     -6.400180   11.629300   86.520600
  H     -1.019130   17.820300   87.385700

 Total Charge           Charge          ....    0
 Multiplicity           Mult            ....    1
 Number of Electrons    NEL             ....  134
 Basis Dimension        Dim             ....  322

ORBITAL ENERGIES
----------------

  NO   OCC          E(Eh)            E(eV)
   0   2.0000     -88.967205     -2420.9207
   1   2.0000     -88.961846     -2420.7749
   2   2.0000     -10.333354      -281.1849
   3   2.0000     -10.326884      -281.0088
   4   2.0000     -10.319989      -280.8212
   5   2.0000     -10.315413      -280.6967
   6   2.0000     -10.312474      -280.6167
   7   2.0000     -10.311758      -280.5972
   8   2.0000     -10.304383      -280.3965
   9   2.0000     -10.297952      -280.2215
  10   2.0000     -10.295722      -280.1608
  11   2.0000     -10.294822      -280.1363
  12   2.0000     -10.292514      -280.0735
  13   2.0000     -10.289773      -279.9990
  14   2.0000     -10.273917      -279.5675
  15   2.0000     -10.269102      -279.4365
  16   2.0000      -8.081888      -219.9194
  17   2.0000      -8.076012      -219.7595
  18   2.0000      -6.040358      -164.3665
  19   2.0000      -6.036288      -164.2558
  20   2.0000      -6.034712      -164.2129
  21   2.0000      -6.032806      -164.1610
  22   2.0000      -6.030694      -164.1035
  23   2.0000      -6.026499      -163.9894
  24   2.0000      -1.005212       -27.3532
  25   2.0000      -0.979769       -26.6609
  26   2.0000      -0.909679       -24.7536
  27   2.0000      -0.902711       -24.5640
  28   2.0000      -0.869269       -23.6540
  29   2.0000      -0.846738       -23.0409
  30   2.0000      -0.838787       -22.8246
  31   2.0000      -0.815103       -22.1801
  32   2.0000      -0.788949       -21.4684
  33   2.0000      -0.777676       -21.1616
  34   2.0000      -0.709446       -19.3050
  35   2.0000      -0.698203       -18.9991
  36   2.0000      -0.683724       -18.6051
  37   2.0000      -0.655247       -17.8302
  38   2.0000      -0.640698       -17.4343
  39   2.0000      -0.611484       -16.6393
  40   2.0000      -0.589140       -16.0313
  41   2.0000      -0.574503       -15.6330
  42   2.0000      -0.556669       -15.1477
  43   2.0000      -0.546506       -14.8712
  44   2.0000      -0.544534       -14.8175
  45   2.0000      -0.541596       -14.7376
  46   2.0000      -0.512252       -13.9391
  47   2.0000      -0.508243       -13.8300
  48   2.0000      -0.501465       -13.6456
  49   2.0000      -0.498950       -13.5771
  50   2.0000      -0.488681       -13.2977
  51   2.0000      -0.477652       -12.9976
  52   2.0000      -0.473959       -12.8971
  53   2.0000      -0.464488       -12.6394
  54   2.0000      -0.456411       -12.4196
  55   2.0000      -0.441409       -12.0113
  56   2.0000      -0.436914       -11.8890
  57   2.0000      -0.434082       -11.8120
  58   2.0000      -0.430882       -11.7249
  59   2.0000      -0.426815       -11.6142
  60   2.0000      -0.417695       -11.3661
  61   2.0000      -0.411089       -11.1863
  62   2.0000      -0.407235       -11.0814
  63   2.0000      -0.349582        -9.5126
  64   2.0000      -0.331796        -9.0286
  65   2.0000      -0.328376        -8.9356
  66   2.0000      -0.293791        -7.9945
  67   0.0000       0.023459         0.6384
  68   0.0000       0.066442         1.8080
  69   0.0000       0.108211         2.9446
  70   0.0000       0.118315         3.2195
  71   0.0000       0.125572         3.4170

MULLIKEN ATOMIC CHARGES
-----------------------
   0 S :    0.108321
   1 C :   -0.123979
   2 C :   -0.088778
   3 C :    0.031832
   4 C :   -0.174388
   5 H :    0.009908
   6 C :    0.053015
   7 H :    0.038801
   8 H :    0.049218
   9 C :   -0.087649
  10 H :    0.039812
  11 H :    0.036335
  12 C :   -0.072061
  13 H :    0.028168
  14 H :    0.030891
  15 H :    0.039381
  16 S :    0.079302
  17 C :   -0.083277
  18 C :   -0.059144
  19 C :   -0.057380
  20 C :   -0.126977
  21 H :    0.046375
  22 C :    0.131067
  23 H :    0.023612
  24 H :    0.011036
  25 C :   -0.121912
  26 H :    0.052539
  27 H :    0.035097
  28 C :   -0.033990
  29 H :    0.016115
  30 H :    0.034168
  31 H :    0.036509
  32 H :    0.046608
  33 H :    0.051427
Sum of atomic charges:    0.0000000

LOEWDIN ATOMIC CHARGES
----------------------
   0 S :    0.409763
   1 C :   -0.190052
   2 C :   -0.058140
   3 C :   -0.065194
   4 C :   -0.203534
   5 H :    0.032734
   6 C :   -0.038933
   7 H :    0.039521
   8 H :    0.041095
   9 C :   -0.041177
  10 H :    0.027857
  11 H :    0.028490
  12 C :   -0.081548
  13 H :    0.021936
  14 H :    0.028614
  15 H :    0.026318
  16 S :    0.364013
  17 C :   -0.175942
  18 C :   -0.085494
  19 C :   -0.040835
  20 C :   -0.184840
  21 H :    0.048015
  22 C :   -0.031252
  23 H :    0.032055
  24 H :    0.029916
  25 C :   -0.044052
  26 H :    0.029916
  27 H :    0.027962
  28 C :   -0.063920
  29 H :    0.016928
  30 H :    0.026372
  31 H :    0.025295
  32 H :    0.022645
  33 H :    0.025470

  Mayer bond orders larger than 0.100000
B(  0-S ,  1-C ) :   1.1421 B(  0-S ,  4-C ) :   1.1538 B(  1-C ,  2-C ) :   1.5823
B(  1-C ,  4-C ) :   0.1023 B(  1-C , 32-H ) :   0.9769 B(  2-C ,  3-C ) :   1.2400
B(  2-C ,  6-C ) :   1.0092 B(  3-C ,  4-C ) :   1.5737 B(  3-C ,  5-H ) :   0.9936
B(  4-C , 20-C ) :   1.0435 B(  6-C ,  7-H ) :   0.9326 B(  6-C ,  8-H ) :   0.9511
B(  6-C ,  9-C ) :   1.0788 B(  9-C , 10-H ) :   0.9579 B(  9-C , 11-H ) :   0.9535
B(  9-C , 12-C ) :   1.0653 B( 12-C , 13-H ) :   0.9703 B( 12-C , 14-H ) :   0.9775
B( 12-C , 15-H ) :   0.9750 B( 16-S , 17-C ) :   1.1343 B( 16-S , 20-C ) :   1.1086
B( 17-C , 18-C ) :   1.6828 B( 17-C , 33-H ) :   0.9626 B( 18-C , 19-C ) :   1.1913
B( 18-C , 21-H ) :   0.9729 B( 19-C , 20-C ) :   1.6228 B( 19-C , 22-C ) :   1.0280
B( 22-C , 23-H ) :   0.9198 B( 22-C , 24-H ) :   0.9354 B( 22-C , 25-C ) :   1.0720
B( 25-C , 26-H ) :   0.9475 B( 25-C , 27-H ) :   0.9556 B( 25-C , 28-C ) :   1.0847
B( 28-C , 29-H ) :   0.9726 B( 28-C , 30-H ) :   0.9770 B( 28-C , 31-H ) :   0.9700

Dispersion correction           -0.016023343
FINAL SINGLE POINT ENERGY     -1339.869442346256

DIPOLE MOMENT
-------------
                                X             Y             Z
Electronic contribution:     12.90438      10.44277     -21.39323
Nuclear contribution   :    -13.27616     -10.32482      21.91412
                        -----------------------------------------
Total Dipole Moment    :     -0.37178       0.11795       0.52090
                        -----------------------------------------
Magnitude (a.u.)       :      0.65074
Magnitude (Debye)      :      1.65406

Rotational constants in cm-1:     0.021794     0.009108     0.007589
Rotational constants in MHz :   653.371880   273.060189   227.526070

                             ****ORCA TERMINATED NORMALLY****
TOTAL RUN TIME: 0 days 0 hours 0 minutes 37 seconds 302 msec
