                         Program Version 4.2.1 -  RELEASE  -
|  1> ! wB97X-D3 SP def2-SVP
|  2> %pal
|  3> nprocs 16
|  4> end
|  5>
|  6> * xyz 0 1
|  7> S 	 13.9616 	 38.2191 	 59.4267
|  8> C 	 15.6987 	 38.3081 	 59.5886
|  9> C 	 16.1671 	 37.7159 	 60.725
| 10> C 	 15.1292 	 37.0887 	 61.4634
| 11> C 	 13.8733 	 37.2872 	 60.8829
| 12> H 	 15.2319 	 36.5164 	 62.4405
| 13> C 	 17.685 	 37.5917 	 61.0601
| 14> H 	 17.711 	 37.0348 	 61.9732
| 15> H 	 17.9895 	 38.5575 	 61.4212
| 16> C 	 18.7037 	 37.1004 	 59.9888
| 17> H 	 18.6697 	 37.7919 	 59.1323
| 18> H 	 19.6936 	 37.1299 	 60.4138
| 19> C 	 18.3236 	 35.666 	 59.5602
| 20> H 	 17.3661 	 35.5551 	 59.1023
| 21> H 	 18.9733 	 35.3005 	 58.6883
| 22> H 	 18.5102 	 35.018 	 60.4825
| 23> S 	 11.7072 	 35.6078 	 60.4265
| 24> C 	 10.7142 	 35.1775 	 61.7957
| 25> C 	 11.0801 	 35.8621 	 62.9455
| 26> C 	 12.1764 	 36.7861 	 62.7576
| 27> C 	 12.6955 	 36.6283 	 61.4671
| 28> H 	 10.5252 	 35.6588 	 63.8935
| 29> C 	 12.6031 	 37.7806 	 63.8333
| 30> H 	 13.7062 	 37.9667 	 63.8296
| 31> H 	 12.6228 	 37.2073 	 64.8022
| 32> C 	 11.7438 	 39.1212 	 63.8822
| 33> H 	 12.0743 	 39.7918 	 64.6371
| 34> H 	 10.7299 	 38.7718 	 64.0852
| 35> C 	 11.6576 	 39.9234 	 62.5783
| 36> H 	 11.2671 	 40.9499 	 62.7063
| 37> H 	 11.1321 	 39.3898 	 61.7358
| 38> H 	 12.6164 	 40.1584 	 62.189
| 39> H 	 16.3618 	 38.8522 	 58.9133
| 40> H 	 9.79004 	 34.6118 	 61.6688
| 41> *
| 42>
| 43>                          ****END OF INPUT****

CARTESIAN COORDINATES (ANGSTROEM)
---------------------------------
  S     13.961600   38.219100   59.426700
  C     15.698700   38.308100   59.588600
  C     16.167100   37.715900   60.725000
  C     15.129200   37.088700   61.463400
  C     13.873300   37.287200   60.882900
  H     15.231900   36.516400   62.440500
  C     17.685000   37.591700   61.060100
  H     17.711000   37.034800   61.973200
  H     17.989500   38.557500   61.421200
  C     18.703700   37.100400   59.988800
  H     18.669700   37.791900   59.132300
  H     19.693600   37.129900   60.413800
  C     18.323600   35.666000   59.560200
  H     17.366100   35.555100   59.102300
  H     18.973300   35.300500   58.688300
  H     18.510200   35.018000   60.482500
  S     11.707200   35.607800   60.426500
  C     10.714200   35.177500   61.795700
  C     11.080100   35.862100   62.945500
  C     12.176400   36.786100   62.757600
  C     12.695500   36.628300   61.467100
  H     10.525200   35.658800   63.893500
  C     12.603100   37.780600   63.833300
  H     13.706200   37.966700   63.829600
  H     12.622800   37.207300   64.802200
  C     11.743800   39.121200   63.882200
  H     12.074300   39.791800   64.637100
  H     10.729900   38.771800   64.085200
  C     11.657600   39.923400   62.578300
  H     11.267100   40.949900   62.706300
  H     11.132100   39.389800   61.735800
  H     12.616400   40.158400   62.189000
  H     16.361800   38.852200   58.913300
  H      9.790040   34.611800   61.668800

 Total Charge           Charge          ....    0
 Multiplicity           Mult            ....    1
 Number of Electrons    NEL             ....  134
 Basis Dimension        Dim             ....  322

ORBITAL ENERGIES
----------------

  NO   OCC          E(Eh)            E(eV)
   0   2.0000     -88.971245     -2421.0306
   1   2.0000     -88.965477     -2420.8737
   2   2.0000     -10.328283      -281.0469
   3   2.0000     -10.326545      -280.9996
   4   2.0000     -10.316627      -280.7297
   5   2.0000     -10.310504      -280.5631
   6   2.0000     -10.307516      -280.4818
   7   2.0000     -10.301893      -280.3288
   8   2.0000     -10.299453      -280.2624
   9   2.0000     -10.299045      -280.2513
  10   2.0000     -10.297166      -280.2001
  11   2.0000     -10.293250      -280.0936
  12   2.0000     -10.290942      -280.0308
  13   2.0000     -10.288791      -279.9722
  14   2.0000     -10.283345      -279.8241
  15   2.0000     -10.271937      -279.5136
  16   2.0000      -8.085875      -220.0279
  17   2.0000      -8.080291      -219.8759
  18   2.0000      -6.044316      -164.4742
  19   2.0000      -6.040411      -164.3679
  20   2.0000      -6.038671      -164.3206
  21   2.0000      -6.036708      -164.2672
  22   2.0000      -6.034885      -164.2176
  23   2.0000      -6.031093      -164.1144
  24   2.0000      -1.005184       -27.3524
  25   2.0000      -0.982382       -26.7320
  26   2.0000      -0.905749       -24.6467
  27   2.0000      -0.897849       -24.4317
  28   2.0000      -0.863205       -23.4890
  29   2.0000      -0.849742       -23.1227
  30   2.0000      -0.843654       -22.9570
  31   2.0000      -0.805612       -21.9218
  32   2.0000      -0.781152       -21.2562
  33   2.0000      -0.771204       -20.9855
  34   2.0000      -0.705116       -19.1872
  35   2.0000      -0.701279       -19.0828
  36   2.0000      -0.689341       -18.7579
  37   2.0000      -0.654718       -17.8158
  38   2.0000      -0.633702       -17.2439
  39   2.0000      -0.607617       -16.5341
  40   2.0000      -0.591566       -16.0973
  41   2.0000      -0.572257       -15.5719
  42   2.0000      -0.550737       -14.9863
  43   2.0000      -0.546064       -14.8591
  44   2.0000      -0.538680       -14.6582
  45   2.0000      -0.531773       -14.4703
  46   2.0000      -0.510948       -13.9036
  47   2.0000      -0.500072       -13.6076
  48   2.0000      -0.495720       -13.4892
  49   2.0000      -0.488686       -13.2978
  50   2.0000      -0.483588       -13.1591
  51   2.0000      -0.473801       -12.8928
  52   2.0000      -0.468545       -12.7497
  53   2.0000      -0.465947       -12.6791
  54   2.0000      -0.459484       -12.5032
  55   2.0000      -0.447425       -12.1750
  56   2.0000      -0.442492       -12.0408
  57   2.0000      -0.432035       -11.7563
  58   2.0000      -0.429047       -11.6750
  59   2.0000      -0.425444       -11.5769
  60   2.0000      -0.422935       -11.5086
  61   2.0000      -0.421555       -11.4711
  62   2.0000      -0.407095       -11.0776
  63   2.0000      -0.340743        -9.2721
  64   2.0000      -0.334040        -9.0897
  65   2.0000      -0.331056        -9.0085
  66   2.0000      -0.292023        -7.9463
  67   0.0000       0.031755         0.8641
  68   0.0000       0.070660         1.9227
  69   0.0000       0.111846         3.0435
  70   0.0000       0.125246         3.4081
  71   0.0000       0.125487         3.4147

MULLIKEN ATOMIC CHARGES
-----------------------
   0 S :    0.130613
   1 C :   -0.144246
   2 C :   -0.088530
   3 C :   -0.004236
   4 C :   -0.150618
   5 H :    0.044046
   6 C :    0.091670
   7 H :   -0.001193
   8 H :    0.023332
   9 C :   -0.044132
  10 H :    0.028835
  11 H :    0.034841
  12 C :   -0.086130
  13 H :    0.045914
  14 H :    0.035207
  15 H :    0.046016
  16 S :    0.110068
  17 C :   -0.105736
  18 C :   -0.048638
  19 C :   -0.041478
  20 C :   -0.179477
  21 H :    0.036751
  22 C :    0.040162
  23 H :    0.022320
  24 H :    0.028931
  25 C :   -0.024061
  26 H :    0.029658
  27 H :    0.028486
  28 C :   -0.068978
  29 H :    0.033116
  30 H :    0.049835
  31 H :    0.015347
  32 H :    0.046999
  33 H :    0.065307
Sum of atomic charges:   -0.0000000

LOEWDIN ATOMIC CHARGES
----------------------
   0 S :    0.418858
   1 C :   -0.203501
   2 C :   -0.065661
   3 C :   -0.066225
   4 C :   -0.206457
   5 H :    0.043910
   6 C :   -0.029670
   7 H :    0.022653
   8 H :    0.029194
   9 C :   -0.035458
  10 H :    0.022284
  11 H :    0.026902
  12 C :   -0.074334
  13 H :    0.023550
  14 H :    0.030642
  15 H :    0.034545
  16 S :    0.400325
  17 C :   -0.194520
  18 C :   -0.074039
  19 C :   -0.059775
  20 C :   -0.190555
  21 H :    0.038939
  22 C :   -0.042804
  23 H :    0.030603
  24 H :    0.036825
  25 C :   -0.029791
  26 H :    0.022530
  27 H :    0.025038
  28 C :   -0.074509
  29 H :    0.030828
  30 H :    0.032937
  31 H :    0.017235
  32 H :    0.028385
  33 H :    0.031117

  Mayer bond orders larger than 0.100000
B(  0-S ,  1-C ) :   1.1335 B(  0-S ,  4-C ) :   1.1599 B(  1-C ,  2-C ) :   1.6168
B(  1-C , 32-H ) :   0.9663 B(  2-C ,  3-C ) :   1.2606 B(  2-C ,  6-C ) :   1.0015
B(  3-C ,  4-C ) :   1.5624 B(  3-C ,  5-H ) :   0.9776 B(  4-C , 20-C ) :   1.0413
B(  6-C ,  7-H ) :   0.9406 B(  6-C ,  8-H ) :   0.9296 B(  6-C ,  9-C ) :   1.0721
B(  9-C , 10-H ) :   0.9534 B(  9-C , 11-H ) :   0.9540 B(  9-C , 12-C ) :   1.0737
B( 12-C , 13-H ) :   0.9760 B( 12-C , 14-H ) :   0.9743 B( 12-C , 15-H ) :   0.9757
B( 16-S , 17-C ) :   1.1479 B( 16-S , 20-C ) :   1.1466 B( 17-C , 18-C ) :   1.6216
B( 17-C , 33-H ) :   0.9653 B( 18-C , 19-C ) :   1.2309 B( 18-C , 21-H ) :   0.9808
B( 19-C , 20-C ) :   1.5913 B( 19-C , 22-C ) :   1.0410 B( 22-C , 23-H ) :   0.9336
B( 22-C , 24-H ) :   0.9380 B( 22-C , 25-C ) :   1.0520 B( 25-C , 26-H ) :   0.9581
B( 25-C , 27-H ) :   0.9588 B( 25-C , 28-C ) :   1.0809 B( 28-C , 29-H ) :   0.9722
B( 28-C , 30-H ) :   0.9728 B( 28-C , 31-H ) :   0.9726

Dispersion correction           -0.015520611
FINAL SINGLE POINT ENERGY     -1339.881784793061

DIPOLE MOMENT
-------------
                                X             Y             Z
Electronic contribution:    -14.22587      -5.88746      -9.67028
Nuclear contribution   :     14.56353       6.05207      10.08936
                        -----------------------------------------
Total Dipole Moment    :      0.33766       0.16461       0.41908
                        -----------------------------------------
Magnitude (a.u.)       :      0.56280
Magnitude (Debye)      :      1.43053

Rotational constants in cm-1:     0.021516     0.008180     0.007378
Rotational constants in MHz :   645.041413   245.219550   221.181179

                             ****ORCA TERMINATED NORMALLY****
TOTAL RUN TIME: 0 days 0 hours 0 minutes 36 seconds 325 msec
