                         Program Version 4.2.1 -  RELEASE  -
|  1> ! wB97X-D3 SP def2-SVP
|  2> %pal
|  3> nprocs 16
|  4> end
|  5>
|  6> * xyz 0 1
|  7> S 	 -5.05749 	 47.0241 	 37.5493
|  8> C 	 -6.05615 	 45.6575 	 36.9479
|  9> C 	 -6.47002 	 44.8781 	 38.0215
| 10> C 	 -5.88384 	 45.3541 	 39.2958
| 11> C 	 -5.03993 	 46.4428 	 39.1702
| 12> H 	 -5.86356 	 44.9189 	 40.2889
| 13> C 	 -7.47573 	 43.793 	 37.9824
| 14> H 	 -6.97329 	 42.8708 	 37.8678
| 15> H 	 -7.98323 	 43.878 	 37.0334
| 16> C 	 -8.5876 	 43.8421 	 39.0524
| 17> H 	 -9.34713 	 43.1233 	 38.7104
| 18> H 	 -8.15054 	 43.4057 	 39.9629
| 19> C 	 -9.30964 	 45.218 	 39.4242
| 20> H 	 -9.76847 	 45.574 	 38.4968
| 21> H 	 -9.99572 	 45.0666 	 40.2378
| 22> H 	 -8.65429 	 45.9705 	 39.795
| 23> S 	 -3.05132 	 46.1198 	 41.0003
| 24> C 	 -2.55345 	 47.4585 	 41.9751
| 25> C 	 -3.33559 	 48.5958 	 41.7795
| 26> C 	 -4.26707 	 48.4277 	 40.7277
| 27> C 	 -4.23117 	 47.1627 	 40.1497
| 28> H 	 -2.99097 	 49.4321 	 42.4104
| 29> C 	 -5.23964 	 49.5113 	 40.3512
| 30> H 	 -5.64225 	 49.7064 	 41.2845
| 31> H 	 -6.08169 	 49.1749 	 39.6655
| 32> C 	 -4.51068 	 50.7564 	 39.7318
| 33> H 	 -4.02303 	 50.4273 	 38.7596
| 34> H 	 -3.66304 	 51.0281 	 40.4279
| 35> C 	 -5.45821 	 51.9473 	 39.5491
| 36> H 	 -4.95463 	 52.7377 	 38.9752
| 37> H 	 -5.6856 	 52.3334 	 40.5671
| 38> H 	 -6.41037 	 51.6628 	 39.0257
| 39> H 	 -6.48598 	 45.5364 	 35.9215
| 40> H 	 -1.7491 	 47.4516 	 42.7035
| 41> *
| 42>
| 43>                          ****END OF INPUT****

CARTESIAN COORDINATES (ANGSTROEM)
---------------------------------
  S     -5.057490   47.024100   37.549300
  C     -6.056150   45.657500   36.947900
  C     -6.470020   44.878100   38.021500
  C     -5.883840   45.354100   39.295800
  C     -5.039930   46.442800   39.170200
  H     -5.863560   44.918900   40.288900
  C     -7.475730   43.793000   37.982400
  H     -6.973290   42.870800   37.867800
  H     -7.983230   43.878000   37.033400
  C     -8.587600   43.842100   39.052400
  H     -9.347130   43.123300   38.710400
  H     -8.150540   43.405700   39.962900
  C     -9.309640   45.218000   39.424200
  H     -9.768470   45.574000   38.496800
  H     -9.995720   45.066600   40.237800
  H     -8.654290   45.970500   39.795000
  S     -3.051320   46.119800   41.000300
  C     -2.553450   47.458500   41.975100
  C     -3.335590   48.595800   41.779500
  C     -4.267070   48.427700   40.727700
  C     -4.231170   47.162700   40.149700
  H     -2.990970   49.432100   42.410400
  C     -5.239640   49.511300   40.351200
  H     -5.642250   49.706400   41.284500
  H     -6.081690   49.174900   39.665500
  C     -4.510680   50.756400   39.731800
  H     -4.023030   50.427300   38.759600
  H     -3.663040   51.028100   40.427900
  C     -5.458210   51.947300   39.549100
  H     -4.954630   52.737700   38.975200
  H     -5.685600   52.333400   40.567100
  H     -6.410370   51.662800   39.025700
  H     -6.485980   45.536400   35.921500
  H     -1.749100   47.451600   42.703500

 Total Charge           Charge          ....    0
 Multiplicity           Mult            ....    1
 Number of Electrons    NEL             ....  134
 Basis Dimension        Dim             ....  322

ORBITAL ENERGIES
----------------

  NO   OCC          E(Eh)            E(eV)
   0   2.0000     -88.965961     -2420.8869
   1   2.0000     -88.961329     -2420.7608
   2   2.0000     -10.328572      -281.0547
   3   2.0000     -10.328042      -281.0403
   4   2.0000     -10.319394      -280.8050
   5   2.0000     -10.318389      -280.7776
   6   2.0000     -10.308245      -280.5016
   7   2.0000     -10.306095      -280.4431
   8   2.0000     -10.297193      -280.2009
   9   2.0000     -10.295448      -280.1534
  10   2.0000     -10.295299      -280.1493
  11   2.0000     -10.293338      -280.0960
  12   2.0000     -10.289546      -279.9928
  13   2.0000     -10.286205      -279.9019
  14   2.0000     -10.284185      -279.8469
  15   2.0000     -10.278076      -279.6807
  16   2.0000      -8.080421      -219.8794
  17   2.0000      -8.075721      -219.7516
  18   2.0000      -6.038793      -164.3239
  19   2.0000      -6.034953      -164.2194
  20   2.0000      -6.034410      -164.2046
  21   2.0000      -6.031352      -164.1214
  22   2.0000      -6.030198      -164.0900
  23   2.0000      -6.026381      -163.9862
  24   2.0000      -1.003786       -27.3144
  25   2.0000      -0.979874       -26.6637
  26   2.0000      -0.910399       -24.7732
  27   2.0000      -0.906221       -24.6595
  28   2.0000      -0.864850       -23.5338
  29   2.0000      -0.850134       -23.1333
  30   2.0000      -0.835105       -22.7244
  31   2.0000      -0.813435       -22.1347
  32   2.0000      -0.787644       -21.4329
  33   2.0000      -0.771650       -20.9977
  34   2.0000      -0.709698       -19.3119
  35   2.0000      -0.694000       -18.8847
  36   2.0000      -0.688274       -18.7289
  37   2.0000      -0.661470       -17.9995
  38   2.0000      -0.635065       -17.2810
  39   2.0000      -0.614440       -16.7198
  40   2.0000      -0.592588       -16.1251
  41   2.0000      -0.564979       -15.3739
  42   2.0000      -0.559540       -15.2259
  43   2.0000      -0.557073       -15.1587
  44   2.0000      -0.533058       -14.5052
  45   2.0000      -0.522506       -14.2181
  46   2.0000      -0.520091       -14.1524
  47   2.0000      -0.509940       -13.8762
  48   2.0000      -0.500872       -13.6294
  49   2.0000      -0.496359       -13.5066
  50   2.0000      -0.487095       -13.2545
  51   2.0000      -0.482836       -13.1386
  52   2.0000      -0.469180       -12.7670
  53   2.0000      -0.462587       -12.5876
  54   2.0000      -0.459266       -12.4973
  55   2.0000      -0.445039       -12.1101
  56   2.0000      -0.442464       -12.0401
  57   2.0000      -0.437527       -11.9057
  58   2.0000      -0.431647       -11.7457
  59   2.0000      -0.425955       -11.5908
  60   2.0000      -0.416442       -11.3320
  61   2.0000      -0.411394       -11.1946
  62   2.0000      -0.409507       -11.1432
  63   2.0000      -0.339084        -9.2270
  64   2.0000      -0.333510        -9.0753
  65   2.0000      -0.323245        -8.7959
  66   2.0000      -0.298215        -8.1148
  67   0.0000       0.037319         1.0155
  68   0.0000       0.064627         1.7586
  69   0.0000       0.100392         2.7318
  70   0.0000       0.124692         3.3930
  71   0.0000       0.130288         3.5453

MULLIKEN ATOMIC CHARGES
-----------------------
   0 S :    0.097205
   1 C :   -0.132518
   2 C :   -0.119982
   3 C :    0.047313
   4 C :   -0.183243
   5 H :    0.009627
   6 C :    0.120409
   7 H :    0.034017
   8 H :   -0.001321
   9 C :   -0.121003
  10 H :    0.036707
  11 H :    0.031452
  12 C :   -0.024483
  13 H :    0.035887
  14 H :    0.035723
  15 H :    0.034158
  16 S :    0.107371
  17 C :   -0.094916
  18 C :   -0.070271
  19 C :    0.007762
  20 C :   -0.166817
  21 H :    0.034541
  22 C :    0.081158
  23 H :    0.010999
  24 H :    0.042193
  25 C :   -0.129108
  26 H :    0.043197
  27 H :    0.036208
  28 C :   -0.040887
  29 H :    0.042561
  30 H :    0.033579
  31 H :    0.042977
  32 H :    0.065339
  33 H :    0.054166
Sum of atomic charges:   -0.0000000

LOEWDIN ATOMIC CHARGES
----------------------
   0 S :    0.396154
   1 C :   -0.200438
   2 C :   -0.056713
   3 C :   -0.072673
   4 C :   -0.203245
   5 H :    0.029322
   6 C :   -0.036732
   7 H :    0.033760
   8 H :    0.026931
   9 C :   -0.039627
  10 H :    0.028341
  11 H :    0.020802
  12 C :   -0.058019
  13 H :    0.027652
  14 H :    0.027820
  15 H :    0.022862
  16 S :    0.403809
  17 C :   -0.184401
  18 C :   -0.083578
  19 C :   -0.047275
  20 C :   -0.195883
  21 H :    0.041002
  22 C :   -0.030996
  23 H :    0.021918
  24 H :    0.035349
  25 C :   -0.045699
  26 H :    0.029314
  27 H :    0.026474
  28 C :   -0.071872
  29 H :    0.028340
  30 H :    0.028225
  31 H :    0.030553
  32 H :    0.039935
  33 H :    0.028588

  Mayer bond orders larger than 0.100000
B(  0-S ,  1-C ) :   1.1147 B(  0-S ,  4-C ) :   1.1520 B(  1-C ,  2-C ) :   1.6472
B(  1-C , 32-H ) :   0.9597 B(  2-C ,  3-C ) :   1.1801 B(  2-C ,  6-C ) :   1.0305
B(  3-C ,  4-C ) :   1.6212 B(  3-C ,  5-H ) :   0.9885 B(  4-C , 20-C ) :   1.0021
B(  6-C ,  7-H ) :   0.9281 B(  6-C ,  8-H ) :   0.9332 B(  6-C ,  9-C ) :   1.0646
B(  9-C , 10-H ) :   0.9600 B(  9-C , 11-H ) :   0.9539 B(  9-C , 12-C ) :   1.0713
B( 12-C , 13-H ) :   0.9777 B( 12-C , 14-H ) :   0.9742 B( 12-C , 15-H ) :   0.9725
B( 16-S , 17-C ) :   1.1714 B( 16-S , 20-C ) :   1.1292 B( 17-C , 18-C ) :   1.6229
B( 17-C , 20-C ) :   0.1017 B( 17-C , 33-H ) :   0.9640 B( 18-C , 19-C ) :   1.2153
B( 18-C , 21-H ) :   0.9883 B( 19-C , 20-C ) :   1.6011 B( 19-C , 22-C ) :   1.0319
B( 22-C , 23-H ) :   0.9278 B( 22-C , 24-H ) :   0.9373 B( 22-C , 25-C ) :   1.0506
B( 25-C , 26-H ) :   0.9542 B( 25-C , 27-H ) :   0.9591 B( 25-C , 28-C ) :   1.0772
B( 28-C , 29-H ) :   0.9740 B( 28-C , 30-H ) :   0.9744 B( 28-C , 31-H ) :   0.9730

Dispersion correction           -0.014597849
FINAL SINGLE POINT ENERGY     -1339.875502680214

DIPOLE MOMENT
-------------
                                X             Y             Z
Electronic contribution:     18.22376      -8.13838      -0.75715
Nuclear contribution   :    -18.59243       8.24886       1.03531
                        -----------------------------------------
Total Dipole Moment    :     -0.36867       0.11048       0.27816
                        -----------------------------------------
Magnitude (a.u.)       :      0.47487
Magnitude (Debye)      :      1.20702

Rotational constants in cm-1:     0.018372     0.008502     0.007198
Rotational constants in MHz :   550.771117   254.887400   215.801299

                             ****ORCA TERMINATED NORMALLY****
TOTAL RUN TIME: 0 days 0 hours 0 minutes 32 seconds 817 msec
