                         Program Version 4.2.1 -  RELEASE  -
|  1> ! wB97X-D3 SP def2-SVP
|  2> %pal
|  3> nprocs 16
|  4> end
|  5>
|  6> * xyz 0 1
|  7> S 	 3.85513 	 15.8069 	 47.1929
|  8> C 	 2.84329 	 14.4119 	 47.6228
|  9> C 	 2.37636 	 14.4938 	 48.9379
| 10> C 	 2.9001 	 15.6334 	 49.6111
| 11> C 	 3.61277 	 16.4688 	 48.7771
| 12> H 	 2.74368 	 15.9062 	 50.6379
| 13> C 	 1.36685 	 13.6357 	 49.6437
| 14> H 	 1.79221 	 13.3989 	 50.6198
| 15> H 	 1.356 	 12.6194 	 49.1445
| 16> C 	 -0.026599 	 14.292 	 49.8442
| 17> H 	 0.0873758 	 15.2949 	 50.1845
| 18> H 	 -0.432304 	 14.3558 	 48.8469
| 19> C 	 -0.942404 	 13.65 	 50.9671
| 20> H 	 -0.470443 	 13.8577 	 51.94
| 21> H 	 -1.9337 	 14.0472 	 51.0804
| 22> H 	 -1.04514 	 12.5813 	 50.922
| 23> S 	 4.67967 	 18.0006 	 50.8332
| 24> C 	 5.12973 	 19.6154 	 50.4858
| 25> C 	 4.98466 	 19.9632 	 49.1601
| 26> C 	 4.52891 	 18.8601 	 48.3497
| 27> C 	 4.22483 	 17.7371 	 49.1727
| 28> H 	 5.27334 	 20.9277 	 48.8241
| 29> C 	 4.25829 	 19.0041 	 46.8675
| 30> H 	 3.17472 	 18.752 	 46.7907
| 31> H 	 4.72707 	 18.2575 	 46.1868
| 32> C 	 4.57909 	 20.3501 	 46.2954
| 33> H 	 5.60599 	 20.6112 	 46.2039
| 34> H 	 4.17286 	 21.2104 	 46.9155
| 35> C 	 4.17821 	 20.4203 	 44.8323
| 36> H 	 4.63066 	 21.331 	 44.404
| 37> H 	 3.09853 	 20.4756 	 44.5518
| 38> H 	 4.59721 	 19.6408 	 44.2024
| 39> H 	 2.5828 	 13.804 	 46.7772
| 40> H 	 5.43829 	 20.3444 	 51.1894
| 41> *
| 42>
| 43>                          ****END OF INPUT****

CARTESIAN COORDINATES (ANGSTROEM)
---------------------------------
  S      3.855130   15.806900   47.192900
  C      2.843290   14.411900   47.622800
  C      2.376360   14.493800   48.937900
  C      2.900100   15.633400   49.611100
  C      3.612770   16.468800   48.777100
  H      2.743680   15.906200   50.637900
  C      1.366850   13.635700   49.643700
  H      1.792210   13.398900   50.619800
  H      1.356000   12.619400   49.144500
  C     -0.026599   14.292000   49.844200
  H      0.087376   15.294900   50.184500
  H     -0.432304   14.355800   48.846900
  C     -0.942404   13.650000   50.967100
  H     -0.470443   13.857700   51.940000
  H     -1.933700   14.047200   51.080400
  H     -1.045140   12.581300   50.922000
  S      4.679670   18.000600   50.833200
  C      5.129730   19.615400   50.485800
  C      4.984660   19.963200   49.160100
  C      4.528910   18.860100   48.349700
  C      4.224830   17.737100   49.172700
  H      5.273340   20.927700   48.824100
  C      4.258290   19.004100   46.867500
  H      3.174720   18.752000   46.790700
  H      4.727070   18.257500   46.186800
  C      4.579090   20.350100   46.295400
  H      5.605990   20.611200   46.203900
  H      4.172860   21.210400   46.915500
  C      4.178210   20.420300   44.832300
  H      4.630660   21.331000   44.404000
  H      3.098530   20.475600   44.551800
  H      4.597210   19.640800   44.202400
  H      2.582800   13.804000   46.777200
  H      5.438290   20.344400   51.189400

 Total Charge           Charge          ....    0
 Multiplicity           Mult            ....    1
 Number of Electrons    NEL             ....  134
 Basis Dimension        Dim             ....  322

ORBITAL ENERGIES
----------------

  NO   OCC          E(Eh)            E(eV)
   0   2.0000     -88.969577     -2420.9853
   1   2.0000     -88.965481     -2420.8738
   2   2.0000     -10.327632      -281.0291
   3   2.0000     -10.326037      -280.9857
   4   2.0000     -10.315476      -280.6984
   5   2.0000     -10.310706      -280.5686
   6   2.0000     -10.306915      -280.4654
   7   2.0000     -10.305161      -280.4177
   8   2.0000     -10.295900      -280.1657
   9   2.0000     -10.295306      -280.1495
  10   2.0000     -10.291026      -280.0331
  11   2.0000     -10.289273      -279.9853
  12   2.0000     -10.288581      -279.9665
  13   2.0000     -10.287763      -279.9443
  14   2.0000     -10.280766      -279.7539
  15   2.0000     -10.279354      -279.7155
  16   2.0000      -8.084631      -219.9940
  17   2.0000      -8.079892      -219.8650
  18   2.0000      -6.043042      -164.4395
  19   2.0000      -6.039106      -164.3324
  20   2.0000      -6.038387      -164.3129
  21   2.0000      -6.035507      -164.2345
  22   2.0000      -6.034486      -164.2067
  23   2.0000      -6.030677      -164.1031
  24   2.0000      -1.006780       -27.3959
  25   2.0000      -0.983728       -26.7686
  26   2.0000      -0.917298       -24.9610
  27   2.0000      -0.906987       -24.6804
  28   2.0000      -0.865994       -23.5649
  29   2.0000      -0.855682       -23.2843
  30   2.0000      -0.845210       -22.9993
  31   2.0000      -0.812333       -22.1047
  32   2.0000      -0.783636       -21.3238
  33   2.0000      -0.770067       -20.9546
  34   2.0000      -0.710447       -19.3323
  35   2.0000      -0.707447       -19.2506
  36   2.0000      -0.693587       -18.8735
  37   2.0000      -0.661442       -17.9987
  38   2.0000      -0.638099       -17.3636
  39   2.0000      -0.618686       -16.8353
  40   2.0000      -0.605034       -16.4638
  41   2.0000      -0.566402       -15.4126
  42   2.0000      -0.562907       -15.3175
  43   2.0000      -0.555620       -15.1192
  44   2.0000      -0.531139       -14.4530
  45   2.0000      -0.522939       -14.2299
  46   2.0000      -0.515315       -14.0224
  47   2.0000      -0.509975       -13.8771
  48   2.0000      -0.507418       -13.8076
  49   2.0000      -0.498394       -13.5620
  50   2.0000      -0.482348       -13.1254
  51   2.0000      -0.475074       -12.9274
  52   2.0000      -0.471619       -12.8334
  53   2.0000      -0.465015       -12.6537
  54   2.0000      -0.459230       -12.4963
  55   2.0000      -0.455619       -12.3980
  56   2.0000      -0.450830       -12.2677
  57   2.0000      -0.440972       -11.9995
  58   2.0000      -0.435102       -11.8397
  59   2.0000      -0.424809       -11.5596
  60   2.0000      -0.423683       -11.5290
  61   2.0000      -0.418565       -11.3897
  62   2.0000      -0.411617       -11.2007
  63   2.0000      -0.353435        -9.6175
  64   2.0000      -0.331897        -9.0314
  65   2.0000      -0.330964        -9.0060
  66   2.0000      -0.279950        -7.6178
  67   0.0000       0.022890         0.6229
  68   0.0000       0.086666         2.3583
  69   0.0000       0.112631         3.0648
  70   0.0000       0.113418         3.0863
  71   0.0000       0.129693         3.5291

MULLIKEN ATOMIC CHARGES
-----------------------
   0 S :    0.081635
   1 C :   -0.139345
   2 C :   -0.047827
   3 C :   -0.028155
   4 C :   -0.118854
   5 H :    0.009795
   6 C :    0.050280
   7 H :    0.018944
   8 H :    0.031275
   9 C :   -0.043676
  10 H :    0.026201
  11 H :    0.030081
  12 C :   -0.049498
  13 H :    0.026153
  14 H :    0.034843
  15 H :    0.029250
  16 S :    0.121593
  17 C :   -0.060188
  18 C :   -0.043369
  19 C :   -0.049001
  20 C :   -0.120582
  21 H :    0.006815
  22 C :    0.035327
  23 H :    0.049146
  24 H :    0.044786
  25 C :   -0.082115
  26 H :    0.028069
  27 H :    0.040337
  28 C :   -0.059553
  29 H :    0.022702
  30 H :    0.039081
  31 H :    0.027418
  32 H :    0.049899
  33 H :    0.038532
Sum of atomic charges:    0.0000000

LOEWDIN ATOMIC CHARGES
----------------------
   0 S :    0.409945
   1 C :   -0.191742
   2 C :   -0.055542
   3 C :   -0.073774
   4 C :   -0.184489
   5 H :    0.024812
   6 C :   -0.036507
   7 H :    0.028804
   8 H :    0.035405
   9 C :   -0.031935
  10 H :    0.022860
  11 H :    0.023712
  12 C :   -0.065714
  13 H :    0.027950
  14 H :    0.026149
  15 H :    0.020347
  16 S :    0.432662
  17 C :   -0.194402
  18 C :   -0.068591
  19 C :   -0.052946
  20 C :   -0.205152
  21 H :    0.025433
  22 C :   -0.050781
  23 H :    0.042334
  24 H :    0.030805
  25 C :   -0.049136
  26 H :    0.025020
  27 H :    0.031419
  28 C :   -0.069022
  29 H :    0.027092
  30 H :    0.026413
  31 H :    0.024250
  32 H :    0.020834
  33 H :    0.023487

  Mayer bond orders larger than 0.100000
B(  0-S ,  1-C ) :   1.1253 B(  0-S ,  4-C ) :   1.1581 B(  1-C ,  2-C ) :   1.5926
B(  1-C , 32-H ) :   0.9778 B(  2-C ,  3-C ) :   1.2333 B(  2-C ,  6-C ) :   1.0372
B(  3-C ,  4-C ) :   1.5573 B(  3-C ,  5-H ) :   0.9938 B(  4-C , 20-C ) :   1.0716
B(  6-C ,  7-H ) :   0.9355 B(  6-C ,  8-H ) :   0.9395 B(  6-C ,  9-C ) :   1.0483
B(  9-C , 10-H ) :   0.9601 B(  9-C , 11-H ) :   0.9586 B(  9-C , 12-C ) :   1.0635
B( 12-C , 13-H ) :   0.9752 B( 12-C , 14-H ) :   0.9774 B( 12-C , 15-H ) :   0.9806
B( 16-S , 17-C ) :   1.1620 B( 16-S , 20-C ) :   1.1515 B( 17-C , 18-C ) :   1.5992
B( 17-C , 33-H ) :   0.9626 B( 18-C , 19-C ) :   1.2697 B( 18-C , 21-H ) :   0.9880
B( 19-C , 20-C ) :   1.5368 B( 19-C , 22-C ) :   1.0265 B( 22-C , 23-H ) :   0.9269
B( 22-C , 24-H ) :   0.9274 B( 22-C , 25-C ) :   1.0918 B( 25-C , 26-H ) :   0.9504
B( 25-C , 27-H ) :   0.9408 B( 25-C , 28-C ) :   1.0819 B( 28-C , 29-H ) :   0.9737
B( 28-C , 30-H ) :   0.9757 B( 28-C , 31-H ) :   0.9699

Dispersion correction           -0.013358433
FINAL SINGLE POINT ENERGY     -1339.884030751244

DIPOLE MOMENT
-------------
                                X             Y             Z
Electronic contribution:     14.38435      -0.98908       6.54438
Nuclear contribution   :    -14.64706       1.22029      -6.62031
                        -----------------------------------------
Total Dipole Moment    :     -0.26271       0.23120      -0.07593
                        -----------------------------------------
Magnitude (a.u.)       :      0.35810
Magnitude (Debye)      :      0.91022

Rotational constants in cm-1:     0.020327     0.007516     0.006237
Rotational constants in MHz :   609.391100   225.310440   186.976165

                             ****ORCA TERMINATED NORMALLY****
TOTAL RUN TIME: 0 days 0 hours 0 minutes 34 seconds 741 msec
