                         Program Version 4.2.1 -  RELEASE  -
|  1> ! wB97X-D3 SP def2-SVP
|  2> %pal
|  3> nprocs 16
|  4> end
|  5>
|  6> * xyz 0 1
|  7> S 	 10.3871 	 21.5034 	 53.1515
|  8> C 	 11.2746 	 22.1312 	 54.5128
|  9> C 	 12.5396 	 22.595 	 54.1927
| 10> C 	 12.6346 	 22.8149 	 52.8064
| 11> C 	 11.5311 	 22.3532 	 52.0907
| 12> H 	 13.4803 	 23.2209 	 52.2835
| 13> C 	 13.6485 	 22.8608 	 55.1814
| 14> H 	 13.9715 	 23.9361 	 55.2161
| 15> H 	 14.4737 	 22.2174 	 54.9195
| 16> C 	 13.3255 	 22.5592 	 56.6414
| 17> H 	 12.49 	 23.0969 	 56.9653
| 18> H 	 13.1285 	 21.4616 	 56.733
| 19> C 	 14.4652 	 22.7043 	 57.7157
| 20> H 	 14.0388 	 22.5558 	 58.6833
| 21> H 	 15.2164 	 21.925 	 57.6355
| 22> H 	 14.8808 	 23.652 	 57.6758
| 23> S 	 11.7502 	 20.8985 	 49.7565
| 24> C 	 11.032 	 21.4279 	 48.3068
| 25> C 	 10.435 	 22.6386 	 48.5642
| 26> C 	 10.6446 	 23.2531 	 49.8552
| 27> C 	 11.3202 	 22.3532 	 50.6525
| 28> H 	 9.7408 	 23.115 	 47.8765
| 29> C 	 10.0458 	 24.5538 	 50.3982
| 30> H 	 10.0899 	 25.249 	 49.6002
| 31> H 	 10.9007 	 25.0425 	 50.9845
| 32> C 	 8.69331 	 24.4949 	 51.1264
| 33> H 	 8.65416 	 25.2392 	 51.9078
| 34> H 	 8.53852 	 23.5291 	 51.6121
| 35> C 	 7.51044 	 24.4983 	 50.1568
| 36> H 	 6.55545 	 24.4043 	 50.7062
| 37> H 	 7.60909 	 23.6859 	 49.474
| 38> H 	 7.46602 	 25.496 	 49.5676
| 39> H 	 11.0724 	 21.9679 	 55.5864
| 40> H 	 10.9463 	 20.9175 	 47.3623
| 41> *
| 42>
| 43>                          ****END OF INPUT****

CARTESIAN COORDINATES (ANGSTROEM)
---------------------------------
  S     10.387100   21.503400   53.151500
  C     11.274600   22.131200   54.512800
  C     12.539600   22.595000   54.192700
  C     12.634600   22.814900   52.806400
  C     11.531100   22.353200   52.090700
  H     13.480300   23.220900   52.283500
  C     13.648500   22.860800   55.181400
  H     13.971500   23.936100   55.216100
  H     14.473700   22.217400   54.919500
  C     13.325500   22.559200   56.641400
  H     12.490000   23.096900   56.965300
  H     13.128500   21.461600   56.733000
  C     14.465200   22.704300   57.715700
  H     14.038800   22.555800   58.683300
  H     15.216400   21.925000   57.635500
  H     14.880800   23.652000   57.675800
  S     11.750200   20.898500   49.756500
  C     11.032000   21.427900   48.306800
  C     10.435000   22.638600   48.564200
  C     10.644600   23.253100   49.855200
  C     11.320200   22.353200   50.652500
  H      9.740800   23.115000   47.876500
  C     10.045800   24.553800   50.398200
  H     10.089900   25.249000   49.600200
  H     10.900700   25.042500   50.984500
  C      8.693310   24.494900   51.126400
  H      8.654160   25.239200   51.907800
  H      8.538520   23.529100   51.612100
  C      7.510440   24.498300   50.156800
  H      6.555450   24.404300   50.706200
  H      7.609090   23.685900   49.474000
  H      7.466020   25.496000   49.567600
  H     11.072400   21.967900   55.586400
  H     10.946300   20.917500   47.362300

 Total Charge           Charge          ....    0
 Multiplicity           Mult            ....    1
 Number of Electrons    NEL             ....  134
 Basis Dimension        Dim             ....  322

ORBITAL ENERGIES
----------------

  NO   OCC          E(Eh)            E(eV)
   0   2.0000     -88.969611     -2420.9862
   1   2.0000     -88.961017     -2420.7524
   2   2.0000     -10.327846      -281.0350
   3   2.0000     -10.320280      -280.8291
   4   2.0000     -10.313060      -280.6326
   5   2.0000     -10.312529      -280.6182
   6   2.0000     -10.301554      -280.3195
   7   2.0000     -10.298944      -280.2485
   8   2.0000     -10.296357      -280.1781
   9   2.0000     -10.293801      -280.1086
  10   2.0000     -10.292969      -280.0859
  11   2.0000     -10.290491      -280.0185
  12   2.0000     -10.286587      -279.9123
  13   2.0000     -10.283137      -279.8184
  14   2.0000     -10.280013      -279.7334
  15   2.0000     -10.275129      -279.6005
  16   2.0000      -8.083548      -219.9645
  17   2.0000      -8.076554      -219.7742
  18   2.0000      -6.042021      -164.4117
  19   2.0000      -6.038372      -164.3125
  20   2.0000      -6.035046      -164.2219
  21   2.0000      -6.034182      -164.1984
  22   2.0000      -6.030787      -164.1061
  23   2.0000      -6.027436      -164.0149
  24   2.0000      -1.006797       -27.3963
  25   2.0000      -0.985934       -26.8286
  26   2.0000      -0.912960       -24.8429
  27   2.0000      -0.905599       -24.6426
  28   2.0000      -0.866800       -23.5868
  29   2.0000      -0.852872       -23.2078
  30   2.0000      -0.845076       -22.9957
  31   2.0000      -0.812301       -22.1038
  32   2.0000      -0.784698       -21.3527
  33   2.0000      -0.771720       -20.9996
  34   2.0000      -0.711849       -19.3704
  35   2.0000      -0.701050       -19.0766
  36   2.0000      -0.689203       -18.7542
  37   2.0000      -0.656572       -17.8662
  38   2.0000      -0.635795       -17.3009
  39   2.0000      -0.612789       -16.6748
  40   2.0000      -0.596018       -16.2185
  41   2.0000      -0.581049       -15.8112
  42   2.0000      -0.567581       -15.4447
  43   2.0000      -0.550574       -14.9819
  44   2.0000      -0.536924       -14.6104
  45   2.0000      -0.520070       -14.1518
  46   2.0000      -0.518924       -14.1206
  47   2.0000      -0.510294       -13.8858
  48   2.0000      -0.508417       -13.8347
  49   2.0000      -0.496912       -13.5217
  50   2.0000      -0.483711       -13.1625
  51   2.0000      -0.479930       -13.0596
  52   2.0000      -0.472981       -12.8705
  53   2.0000      -0.467767       -12.7286
  54   2.0000      -0.458624       -12.4798
  55   2.0000      -0.450100       -12.2479
  56   2.0000      -0.440506       -11.9868
  57   2.0000      -0.439389       -11.9564
  58   2.0000      -0.432750       -11.7757
  59   2.0000      -0.424880       -11.5616
  60   2.0000      -0.419391       -11.4122
  61   2.0000      -0.412816       -11.2333
  62   2.0000      -0.406611       -11.0644
  63   2.0000      -0.335538        -9.1304
  64   2.0000      -0.328155        -8.9295
  65   2.0000      -0.320415        -8.7189
  66   2.0000      -0.305979        -8.3261
  67   0.0000       0.043597         1.1863
  68   0.0000       0.050394         1.3713
  69   0.0000       0.108398         2.9497
  70   0.0000       0.126988         3.4555
  71   0.0000       0.133965         3.6454

MULLIKEN ATOMIC CHARGES
-----------------------
   0 S :    0.129870
   1 C :   -0.114792
   2 C :   -0.102901
   3 C :    0.052516
   4 C :   -0.165921
   5 H :    0.008138
   6 C :    0.096375
   7 H :    0.042639
   8 H :    0.035353
   9 C :   -0.167976
  10 H :    0.030777
  11 H :    0.034991
  12 C :    0.009806
  13 H :    0.023543
  14 H :    0.029231
  15 H :    0.016290
  16 S :    0.113142
  17 C :   -0.073093
  18 C :   -0.058322
  19 C :   -0.051809
  20 C :   -0.201121
  21 H :    0.013099
  22 C :    0.084643
  23 H :    0.001923
  24 H :    0.033265
  25 C :   -0.014397
  26 H :    0.031338
  27 H :    0.028134
  28 C :   -0.079287
  29 H :    0.040094
  30 H :    0.030741
  31 H :    0.034226
  32 H :    0.051069
  33 H :    0.058416
Sum of atomic charges:   -0.0000000

LOEWDIN ATOMIC CHARGES
----------------------
   0 S :    0.407874
   1 C :   -0.202794
   2 C :   -0.067985
   3 C :   -0.047405
   4 C :   -0.188672
   5 H :    0.032185
   6 C :   -0.032883
   7 H :    0.037831
   8 H :    0.035234
   9 C :   -0.044228
  10 H :    0.012722
  11 H :    0.027947
  12 C :   -0.050004
  13 H :    0.026905
  14 H :    0.025159
  15 H :    0.011954
  16 S :    0.419284
  17 C :   -0.205317
  18 C :   -0.079023
  19 C :   -0.055357
  20 C :   -0.204873
  21 H :    0.024501
  22 C :   -0.037494
  23 H :    0.022677
  24 H :    0.045652
  25 C :   -0.038285
  26 H :    0.024779
  27 H :    0.024895
  28 C :   -0.066005
  29 H :    0.028282
  30 H :    0.019222
  31 H :    0.027482
  32 H :    0.030540
  33 H :    0.035200

  Mayer bond orders larger than 0.100000
B(  0-S ,  1-C ) :   1.1411 B(  0-S ,  4-C ) :   1.1370 B(  1-C ,  2-C ) :   1.6366
B(  1-C , 32-H ) :   0.9455 B(  2-C ,  3-C ) :   1.2389 B(  2-C ,  6-C ) :   1.0143
B(  3-C ,  4-C ) :   1.5955 B(  3-C ,  5-H ) :   0.9996 B(  4-C , 20-C ) :   1.0233
B(  6-C ,  7-H ) :   0.9346 B(  6-C ,  8-H ) :   0.9342 B(  6-C ,  9-C ) :   1.0836
B(  9-C , 10-H ) :   0.9529 B(  9-C , 11-H ) :   0.9542 B(  9-C , 12-C ) :   1.0826
B( 12-C , 13-H ) :   0.9719 B( 12-C , 14-H ) :   0.9775 B( 12-C , 15-H ) :   0.9749
B( 16-S , 17-C ) :   1.1515 B( 16-S , 20-C ) :   1.1661 B( 17-C , 18-C ) :   1.5905
B( 17-C , 33-H ) :   0.9719 B( 18-C , 19-C ) :   1.2615 B( 18-C , 21-H ) :   0.9823
B( 19-C , 20-C ) :   1.5878 B( 19-C , 22-C ) :   1.0502 B( 22-C , 23-H ) :   0.9259
B( 22-C , 24-H ) :   0.9264 B( 22-C , 25-C ) :   1.0393 B( 25-C , 26-H ) :   0.9567
B( 25-C , 27-H ) :   0.9563 B( 25-C , 28-C ) :   1.0720 B( 28-C , 29-H ) :   0.9743
B( 28-C , 30-H ) :   0.9765 B( 28-C , 31-H ) :   0.9765

Dispersion correction           -0.014439865
FINAL SINGLE POINT ENERGY     -1339.867974108284

DIPOLE MOMENT
-------------
                                X             Y             Z
Electronic contribution:     -0.02883     -14.02501     -15.02666
Nuclear contribution   :      0.15582      14.31377      15.34833
                        -----------------------------------------
Total Dipole Moment    :      0.12699       0.28876       0.32167
                        -----------------------------------------
Magnitude (a.u.)       :      0.45053
Magnitude (Debye)      :      1.14516

Rotational constants in cm-1:     0.024270     0.007125     0.006204
Rotational constants in MHz :   727.606173   213.599372   185.988115

                             ****ORCA TERMINATED NORMALLY****
TOTAL RUN TIME: 0 days 0 hours 0 minutes 33 seconds 909 msec
