                         Program Version 4.2.1 -  RELEASE  -
|  1> ! wB97X-D3 SP def2-SVP
|  2> %pal
|  3> nprocs 16
|  4> end
|  5>
|  6> * xyz 0 1
|  7> S 	 -101.148 	 48.6397 	 120.097
|  8> C 	 -101.824 	 49.9142 	 121.111
|  9> C 	 -102.103 	 49.4406 	 122.387
| 10> C 	 -101.943 	 48.0271 	 122.381
| 11> C 	 -101.449 	 47.4199 	 121.269
| 12> H 	 -102.303 	 47.4879 	 123.217
| 13> C 	 -102.37 	 50.2601 	 123.663
| 14> H 	 -103.26 	 49.9238 	 124.149
| 15> H 	 -102.497 	 51.245 	 123.222
| 16> C 	 -101.275 	 50.4119 	 124.74
| 17> H 	 -101.648 	 50.8921 	 125.66
| 18> H 	 -100.938 	 49.3787 	 124.899
| 19> C 	 -100.019 	 51.0318 	 124.175
| 20> H 	 -99.6603 	 50.5978 	 123.291
| 21> H 	 -100.295 	 52.0882 	 123.93
| 22> H 	 -99.2087 	 51.0693 	 124.935
| 23> S 	 -102.635 	 44.9831 	 120.869
| 24> C 	 -101.696 	 43.514 	 121.171
| 25> C 	 -100.336 	 43.8653 	 121.211
| 26> C 	 -100.056 	 45.217 	 121.141
| 27> C 	 -101.208 	 46.0083 	 121.131
| 28> H 	 -99.5401 	 43.121 	 121.43
| 29> C 	 -98.6782 	 45.6675 	 121.523
| 30> H 	 -98.4292 	 46.5861 	 120.991
| 31> H 	 -98.0589 	 45.0136 	 120.946
| 32> C 	 -98.3172 	 45.5553 	 122.979
| 33> H 	 -97.2023 	 45.6946 	 123.119
| 34> H 	 -98.479 	 44.4882 	 123.235
| 35> C 	 -99.1752 	 46.4405 	 124.002
| 36> H 	 -99.1458 	 47.4218 	 123.509
| 37> H 	 -98.7905 	 46.5372 	 124.988
| 38> H 	 -100.254 	 46.1405 	 123.858
| 39> H 	 -101.735 	 50.9282 	 120.885
| 40> H 	 -102.075 	 42.5408 	 121.093
| 41> *
| 42>
| 43>                          ****END OF INPUT****

CARTESIAN COORDINATES (ANGSTROEM)
---------------------------------
  S    -101.148000   48.639700  120.097000
  C    -101.824000   49.914200  121.111000
  C    -102.103000   49.440600  122.387000
  C    -101.943000   48.027100  122.381000
  C    -101.449000   47.419900  121.269000
  H    -102.303000   47.487900  123.217000
  C    -102.370000   50.260100  123.663000
  H    -103.260000   49.923800  124.149000
  H    -102.497000   51.245000  123.222000
  C    -101.275000   50.411900  124.740000
  H    -101.648000   50.892100  125.660000
  H    -100.938000   49.378700  124.899000
  C    -100.019000   51.031800  124.175000
  H    -99.660300   50.597800  123.291000
  H    -100.295000   52.088200  123.930000
  H    -99.208700   51.069300  124.935000
  S    -102.635000   44.983100  120.869000
  C    -101.696000   43.514000  121.171000
  C    -100.336000   43.865300  121.211000
  C    -100.056000   45.217000  121.141000
  C    -101.208000   46.008300  121.131000
  H    -99.540100   43.121000  121.430000
  C    -98.678200   45.667500  121.523000
  H    -98.429200   46.586100  120.991000
  H    -98.058900   45.013600  120.946000
  C    -98.317200   45.555300  122.979000
  H    -97.202300   45.694600  123.119000
  H    -98.479000   44.488200  123.235000
  C    -99.175200   46.440500  124.002000
  H    -99.145800   47.421800  123.509000
  H    -98.790500   46.537200  124.988000
  H    -100.254000   46.140500  123.858000
  H    -101.735000   50.928200  120.885000
  H    -102.075000   42.540800  121.093000

 Total Charge           Charge          ....    0
 Multiplicity           Mult            ....    1
 Number of Electrons    NEL             ....  134
 Basis Dimension        Dim             ....  322

ORBITAL ENERGIES
----------------

  NO   OCC          E(Eh)            E(eV)
   0   2.0000     -88.967580     -2420.9309
   1   2.0000     -88.967453     -2420.9275
   2   2.0000     -10.330256      -281.1005
   3   2.0000     -10.325154      -280.9617
   4   2.0000     -10.319353      -280.8039
   5   2.0000     -10.314603      -280.6746
   6   2.0000     -10.303351      -280.3684
   7   2.0000     -10.299730      -280.2699
   8   2.0000     -10.295271      -280.1486
   9   2.0000     -10.295136      -280.1449
  10   2.0000     -10.293795      -280.1084
  11   2.0000     -10.289426      -279.9895
  12   2.0000     -10.286638      -279.9136
  13   2.0000     -10.286329      -279.9052
  14   2.0000     -10.279737      -279.7259
  15   2.0000     -10.275282      -279.6046
  16   2.0000      -8.082526      -219.9367
  17   2.0000      -8.081342      -219.9045
  18   2.0000      -6.041088      -164.3864
  19   2.0000      -6.039783      -164.3509
  20   2.0000      -6.036899      -164.2724
  21   2.0000      -6.035865      -164.2442
  22   2.0000      -6.033304      -164.1745
  23   2.0000      -6.032319      -164.1478
  24   2.0000      -1.010978       -27.5101
  25   2.0000      -0.987482       -26.8708
  26   2.0000      -0.915691       -24.9172
  27   2.0000      -0.909907       -24.7598
  28   2.0000      -0.872808       -23.7503
  29   2.0000      -0.849055       -23.1039
  30   2.0000      -0.841937       -22.9103
  31   2.0000      -0.812219       -22.1016
  32   2.0000      -0.786198       -21.3935
  33   2.0000      -0.778674       -21.1888
  34   2.0000      -0.711973       -19.3738
  35   2.0000      -0.697980       -18.9930
  36   2.0000      -0.694671       -18.9030
  37   2.0000      -0.667004       -18.1501
  38   2.0000      -0.641646       -17.4601
  39   2.0000      -0.622524       -16.9397
  40   2.0000      -0.599280       -16.3072
  41   2.0000      -0.572467       -15.5776
  42   2.0000      -0.558298       -15.1921
  43   2.0000      -0.553873       -15.0716
  44   2.0000      -0.550862       -14.9897
  45   2.0000      -0.533039       -14.5047
  46   2.0000      -0.518336       -14.1046
  47   2.0000      -0.512818       -13.9545
  48   2.0000      -0.506647       -13.7866
  49   2.0000      -0.496981       -13.5235
  50   2.0000      -0.489313       -13.3149
  51   2.0000      -0.481317       -13.0973
  52   2.0000      -0.470085       -12.7917
  53   2.0000      -0.466513       -12.6945
  54   2.0000      -0.453019       -12.3273
  55   2.0000      -0.450777       -12.2663
  56   2.0000      -0.446788       -12.1577
  57   2.0000      -0.437633       -11.9086
  58   2.0000      -0.435985       -11.8638
  59   2.0000      -0.426636       -11.6093
  60   2.0000      -0.412210       -11.2168
  61   2.0000      -0.406925       -11.0730
  62   2.0000      -0.404325       -11.0023
  63   2.0000      -0.338519        -9.2116
  64   2.0000      -0.330765        -9.0006
  65   2.0000      -0.329706        -8.9718
  66   2.0000      -0.305934        -8.3249
  67   0.0000       0.031862         0.8670
  68   0.0000       0.054741         1.4896
  69   0.0000       0.109109         2.9690
  70   0.0000       0.114269         3.1094
  71   0.0000       0.131004         3.5648

MULLIKEN ATOMIC CHARGES
-----------------------
   0 S :    0.116775
   1 C :   -0.101514
   2 C :   -0.123786
   3 C :    0.033899
   4 C :   -0.131291
   5 H :   -0.002008
   6 C :    0.092836
   7 H :    0.032029
   8 H :    0.005292
   9 C :   -0.056376
  10 H :    0.047180
  11 H :    0.025188
  12 C :   -0.064269
  13 H :    0.037692
  14 H :    0.017647
  15 H :    0.039425
  16 S :    0.112907
  17 C :   -0.075564
  18 C :   -0.073012
  19 C :   -0.008026
  20 C :   -0.208588
  21 H :    0.035707
  22 C :    0.092884
  23 H :    0.014412
  24 H :    0.007708
  25 C :   -0.073680
  26 H :    0.040434
  27 H :    0.020818
  28 C :   -0.056980
  29 H :    0.033054
  30 H :    0.044015
  31 H :    0.050899
  32 H :    0.028856
  33 H :    0.045438
Sum of atomic charges:   -0.0000000

LOEWDIN ATOMIC CHARGES
----------------------
   0 S :    0.418344
   1 C :   -0.180653
   2 C :   -0.062308
   3 C :   -0.055026
   4 C :   -0.218641
   5 H :    0.021533
   6 C :   -0.025447
   7 H :    0.028813
   8 H :    0.025868
   9 C :   -0.040962
  10 H :    0.031920
  11 H :    0.025498
  12 C :   -0.063626
  13 H :    0.018449
  14 H :    0.022853
  15 H :    0.029582
  16 S :    0.402320
  17 C :   -0.173519
  18 C :   -0.072698
  19 C :   -0.063325
  20 C :   -0.187032
  21 H :    0.036788
  22 C :   -0.038688
  23 H :    0.028051
  24 H :    0.032701
  25 C :   -0.039865
  26 H :    0.030319
  27 H :    0.021387
  28 C :   -0.069381
  29 H :    0.025960
  30 H :    0.022318
  31 H :    0.035034
  32 H :    0.014091
  33 H :    0.019343

  Mayer bond orders larger than 0.100000
B(  0-S ,  1-C ) :   1.1565 B(  0-S ,  4-C ) :   1.1347 B(  1-C ,  2-C ) :   1.5968
B(  1-C , 32-H ) :   0.9684 B(  2-C ,  3-C ) :   1.2611 B(  2-C ,  6-C ) :   1.0196
B(  3-C ,  4-C ) :   1.5716 B(  3-C ,  5-H ) :   0.9961 B(  4-C , 20-C ) :   1.0371
B(  6-C ,  7-H ) :   0.9383 B(  6-C ,  8-H ) :   0.9363 B(  6-C ,  9-C ) :   1.0700
B(  9-C , 10-H ) :   0.9557 B(  9-C , 11-H ) :   0.9529 B(  9-C , 12-C ) :   1.0740
B( 12-C , 13-H ) :   0.9755 B( 12-C , 14-H ) :   0.9739 B( 12-C , 15-H ) :   0.9736
B( 16-S , 17-C ) :   1.1607 B( 16-S , 20-C ) :   1.1645 B( 17-C , 18-C ) :   1.5658
B( 17-C , 20-C ) :   0.1214 B( 17-C , 33-H ) :   0.9775 B( 18-C , 19-C ) :   1.2778
B( 18-C , 21-H ) :   0.9791 B( 19-C , 20-C ) :   1.5490 B( 19-C , 22-C ) :   1.0575
B( 22-C , 23-H ) :   0.9233 B( 22-C , 24-H ) :   0.9145 B( 22-C , 25-C ) :   1.0737
B( 25-C , 26-H ) :   0.9536 B( 25-C , 27-H ) :   0.9510 B( 25-C , 28-C ) :   1.0587
B( 28-C , 29-H ) :   0.9747 B( 28-C , 30-H ) :   0.9753 B( 28-C , 31-H ) :   0.9708

Dispersion correction           -0.016865143
FINAL SINGLE POINT ENERGY     -1339.862524313422

DIPOLE MOMENT
-------------
                                X             Y             Z
Electronic contribution:    -13.28039     -10.11942     -20.75012
Nuclear contribution   :     13.63143      10.16173      21.27235
                        -----------------------------------------
Total Dipole Moment    :      0.35104       0.04232       0.52223
                        -----------------------------------------
Magnitude (a.u.)       :      0.63067
Magnitude (Debye)      :      1.60303

Rotational constants in cm-1:     0.020775     0.009540     0.008039
Rotational constants in MHz :   622.815371   286.001149   241.008687

                             ****ORCA TERMINATED NORMALLY****
TOTAL RUN TIME: 0 days 0 hours 0 minutes 35 seconds 35 msec
