                         Program Version 4.2.1 -  RELEASE  -
|  1> ! wB97X-D3 SP def2-SVP
|  2> %pal
|  3> nprocs 16
|  4> end
|  5>
|  6> * xyz 0 1
|  7> S 	 -21.5657 	 -3.31046 	 86.4685
|  8> C 	 -21.9863 	 -3.7661 	 84.8124
|  9> C 	 -21.1005 	 -4.6701 	 84.3205
| 10> C 	 -20.1109 	 -5.06573 	 85.2613
| 11> C 	 -20.2289 	 -4.42914 	 86.5019
| 12> H 	 -19.2753 	 -5.77453 	 85.2861
| 13> C 	 -21.1979 	 -5.26952 	 82.9124
| 14> H 	 -20.5379 	 -6.12649 	 82.8038
| 15> H 	 -20.8545 	 -4.58761 	 82.1655
| 16> C 	 -22.6612 	 -5.6706 	 82.537
| 17> H 	 -23.3783 	 -4.89879 	 82.734
| 18> H 	 -22.5991 	 -5.71928 	 81.4691
| 19> C 	 -23.1787 	 -6.97674 	 83.2089
| 20> H 	 -22.9371 	 -6.97933 	 84.326
| 21> H 	 -24.3019 	 -7.07137 	 83.2013
| 22> H 	 -22.6679 	 -7.82375 	 82.7299
| 23> S 	 -19.9456 	 -4.30645 	 89.2036
| 24> C 	 -18.3841 	 -4.43627 	 89.9497
| 25> C 	 -17.4292 	 -4.59198 	 88.9743
| 26> C 	 -17.9282 	 -4.76417 	 87.6578
| 27> C 	 -19.2644 	 -4.46427 	 87.5744
| 28> H 	 -16.4628 	 -4.71816 	 89.3169
| 29> C 	 -16.9967 	 -5.07971 	 86.4684
| 30> H 	 -17.3036 	 -6.04223 	 86.0076
| 31> H 	 -16.012 	 -5.33746 	 86.8313
| 32> C 	 -16.7008 	 -4.02032 	 85.4165
| 33> H 	 -16.0936 	 -3.25855 	 85.9255
| 34> H 	 -17.6098 	 -3.52656 	 84.8984
| 35> C 	 -15.8696 	 -4.70582 	 84.3027
| 36> H 	 -16.565 	 -5.14131 	 83.5486
| 37> H 	 -14.9607 	 -5.16975 	 84.5873
| 38> H 	 -15.5197 	 -3.72789 	 83.8178
| 39> H 	 -22.7091 	 -3.23986 	 84.1952
| 40> H 	 -18.1852 	 -4.30844 	 90.9802
| 41> *
| 42>
| 43>                          ****END OF INPUT****

CARTESIAN COORDINATES (ANGSTROEM)
---------------------------------
  S    -21.565700   -3.310460   86.468500
  C    -21.986300   -3.766100   84.812400
  C    -21.100500   -4.670100   84.320500
  C    -20.110900   -5.065730   85.261300
  C    -20.228900   -4.429140   86.501900
  H    -19.275300   -5.774530   85.286100
  C    -21.197900   -5.269520   82.912400
  H    -20.537900   -6.126490   82.803800
  H    -20.854500   -4.587610   82.165500
  C    -22.661200   -5.670600   82.537000
  H    -23.378300   -4.898790   82.734000
  H    -22.599100   -5.719280   81.469100
  C    -23.178700   -6.976740   83.208900
  H    -22.937100   -6.979330   84.326000
  H    -24.301900   -7.071370   83.201300
  H    -22.667900   -7.823750   82.729900
  S    -19.945600   -4.306450   89.203600
  C    -18.384100   -4.436270   89.949700
  C    -17.429200   -4.591980   88.974300
  C    -17.928200   -4.764170   87.657800
  C    -19.264400   -4.464270   87.574400
  H    -16.462800   -4.718160   89.316900
  C    -16.996700   -5.079710   86.468400
  H    -17.303600   -6.042230   86.007600
  H    -16.012000   -5.337460   86.831300
  C    -16.700800   -4.020320   85.416500
  H    -16.093600   -3.258550   85.925500
  H    -17.609800   -3.526560   84.898400
  C    -15.869600   -4.705820   84.302700
  H    -16.565000   -5.141310   83.548600
  H    -14.960700   -5.169750   84.587300
  H    -15.519700   -3.727890   83.817800
  H    -22.709100   -3.239860   84.195200
  H    -18.185200   -4.308440   90.980200

 Total Charge           Charge          ....    0
 Multiplicity           Mult            ....    1
 Number of Electrons    NEL             ....  134
 Basis Dimension        Dim             ....  322

ORBITAL ENERGIES
----------------

  NO   OCC          E(Eh)            E(eV)
   0   2.0000     -88.965956     -2420.8867
   1   2.0000     -88.961727     -2420.7717
   2   2.0000     -10.328056      -281.0407
   3   2.0000     -10.327073      -281.0139
   4   2.0000     -10.313019      -280.6315
   5   2.0000     -10.312635      -280.6211
   6   2.0000     -10.304267      -280.3934
   7   2.0000     -10.301943      -280.3301
   8   2.0000     -10.294555      -280.1291
   9   2.0000     -10.294476      -280.1269
  10   2.0000     -10.293783      -280.1081
  11   2.0000     -10.292815      -280.0817
  12   2.0000     -10.287097      -279.9261
  13   2.0000     -10.286271      -279.9037
  14   2.0000     -10.285716      -279.8886
  15   2.0000     -10.284741      -279.8620
  16   2.0000      -8.080417      -219.8793
  17   2.0000      -8.076765      -219.7800
  18   2.0000      -6.038930      -164.3276
  19   2.0000      -6.035311      -164.2292
  20   2.0000      -6.034900      -164.2180
  21   2.0000      -6.031249      -164.1186
  22   2.0000      -6.031188      -164.1170
  23   2.0000      -6.027511      -164.0169
  24   2.0000      -1.009012       -27.4566
  25   2.0000      -0.985629       -26.8203
  26   2.0000      -0.910420       -24.7738
  27   2.0000      -0.908581       -24.7237
  28   2.0000      -0.870132       -23.6775
  29   2.0000      -0.852844       -23.2071
  30   2.0000      -0.840944       -22.8832
  31   2.0000      -0.813190       -22.1280
  32   2.0000      -0.781814       -21.2742
  33   2.0000      -0.774878       -21.0855
  34   2.0000      -0.709499       -19.3064
  35   2.0000      -0.700891       -19.0722
  36   2.0000      -0.687972       -18.7207
  37   2.0000      -0.670283       -18.2393
  38   2.0000      -0.640322       -17.4241
  39   2.0000      -0.608931       -16.5699
  40   2.0000      -0.596901       -16.2425
  41   2.0000      -0.578565       -15.7435
  42   2.0000      -0.573611       -15.6087
  43   2.0000      -0.547034       -14.8856
  44   2.0000      -0.536524       -14.5996
  45   2.0000      -0.522385       -14.2148
  46   2.0000      -0.520850       -14.1730
  47   2.0000      -0.513428       -13.9711
  48   2.0000      -0.501831       -13.6555
  49   2.0000      -0.495023       -13.4703
  50   2.0000      -0.492285       -13.3958
  51   2.0000      -0.484274       -13.1778
  52   2.0000      -0.476249       -12.9594
  53   2.0000      -0.466659       -12.6984
  54   2.0000      -0.457845       -12.4586
  55   2.0000      -0.444726       -12.1016
  56   2.0000      -0.442466       -12.0401
  57   2.0000      -0.431448       -11.7403
  58   2.0000      -0.428617       -11.6633
  59   2.0000      -0.424188       -11.5427
  60   2.0000      -0.415500       -11.3063
  61   2.0000      -0.414196       -11.2709
  62   2.0000      -0.406779       -11.0690
  63   2.0000      -0.356855        -9.7105
  64   2.0000      -0.332567        -9.0496
  65   2.0000      -0.331440        -9.0189
  66   2.0000      -0.285645        -7.7728
  67   0.0000       0.021139         0.5752
  68   0.0000       0.078993         2.1495
  69   0.0000       0.109337         2.9752
  70   0.0000       0.119302         3.2464
  71   0.0000       0.139051         3.7838

MULLIKEN ATOMIC CHARGES
-----------------------
   0 S :    0.107412
   1 C :   -0.133533
   2 C :   -0.056125
   3 C :   -0.005151
   4 C :   -0.130655
   5 H :    0.001694
   6 C :    0.089617
   7 H :    0.016507
   8 H :    0.029530
   9 C :   -0.074841
  10 H :    0.019692
  11 H :    0.019362
  12 C :   -0.081808
  13 H :    0.050647
  14 H :    0.045781
  15 H :    0.038631
  16 S :    0.085231
  17 C :   -0.070446
  18 C :   -0.009458
  19 C :   -0.025424
  20 C :   -0.127097
  21 H :   -0.013264
  22 C :    0.034684
  23 H :    0.035580
  24 H :    0.000577
  25 C :   -0.102951
  26 H :    0.035450
  27 H :    0.061957
  28 C :   -0.063772
  29 H :    0.052172
  30 H :    0.036807
  31 H :    0.031450
  32 H :    0.055132
  33 H :    0.046609
Sum of atomic charges:    0.0000000

LOEWDIN ATOMIC CHARGES
----------------------
   0 S :    0.402107
   1 C :   -0.194841
   2 C :   -0.064133
   3 C :   -0.073165
   4 C :   -0.193324
   5 H :    0.034145
   6 C :   -0.023393
   7 H :    0.028182
   8 H :    0.029470
   9 C :   -0.038639
  10 H :    0.017261
  11 H :    0.019713
  12 C :   -0.074875
  13 H :    0.036086
  14 H :    0.031866
  15 H :    0.024992
  16 S :    0.397181
  17 C :   -0.178067
  18 C :   -0.064435
  19 C :   -0.058745
  20 C :   -0.183025
  21 H :    0.018734
  22 C :   -0.041173
  23 H :    0.028424
  24 H :    0.027703
  25 C :   -0.043741
  26 H :    0.024630
  27 H :    0.037179
  28 C :   -0.073033
  29 H :    0.033843
  30 H :    0.019062
  31 H :    0.038386
  32 H :    0.031248
  33 H :    0.024375

  Mayer bond orders larger than 0.100000
B(  0-S ,  1-C ) :   1.1275 B(  0-S ,  4-C ) :   1.1550 B(  1-C ,  2-C ) :   1.6197
B(  1-C , 32-H ) :   0.9670 B(  2-C ,  3-C ) :   1.2174 B(  2-C ,  6-C ) :   1.0117
B(  3-C ,  4-C ) :   1.5738 B(  3-C ,  5-H ) :   0.9955 B(  4-C , 20-C ) :   1.0583
B(  6-C ,  7-H ) :   0.9484 B(  6-C ,  8-H ) :   0.9343 B(  6-C ,  9-C ) :   1.0744
B(  9-C , 10-H ) :   0.9586 B(  9-C , 11-H ) :   0.9576 B(  9-C , 12-C ) :   1.0638
B( 12-C , 13-H ) :   0.9765 B( 12-C , 14-H ) :   0.9763 B( 12-C , 15-H ) :   0.9767
B( 16-S , 17-C ) :   1.1536 B( 16-S , 20-C ) :   1.1323 B( 17-C , 18-C ) :   1.6098
B( 17-C , 20-C ) :   0.1013 B( 17-C , 33-H ) :   0.9716 B( 18-C , 19-C ) :   1.2424
B( 18-C , 21-H ) :   0.9998 B( 19-C , 20-C ) :   1.5905 B( 19-C , 22-C ) :   1.0272
B( 22-C , 23-H ) :   0.9363 B( 22-C , 24-H ) :   0.9274 B( 22-C , 25-C ) :   1.0576
B( 25-C , 26-H ) :   0.9587 B( 25-C , 27-H ) :   0.9527 B( 25-C , 28-C ) :   1.0697
B( 28-C , 29-H ) :   0.9745 B( 28-C , 30-H ) :   0.9729 B( 28-C , 31-H ) :   0.9746

Dispersion correction           -0.014468757
FINAL SINGLE POINT ENERGY     -1339.867238378300

DIPOLE MOMENT
-------------
                                X             Y             Z
Electronic contribution:     -7.60847       9.76305      24.38597
Nuclear contribution   :      8.14806      -9.89440     -24.87994
                        -----------------------------------------
Total Dipole Moment    :      0.53959      -0.13135      -0.49397
                        -----------------------------------------
Magnitude (a.u.)       :      0.74325
Magnitude (Debye)      :      1.88918

Rotational constants in cm-1:     0.018752     0.009006     0.006836
Rotational constants in MHz :   562.162917   269.995962   204.933705

                             ****ORCA TERMINATED NORMALLY****
TOTAL RUN TIME: 0 days 0 hours 0 minutes 33 seconds 979 msec
