                         Program Version 4.2.1 -  RELEASE  -
|  1> ! wB97X-D3 SP def2-SVP
|  2> %pal
|  3> nprocs 16
|  4> end
|  5>
|  6> * xyz 0 1
|  7> S 	 -62.4393 	 48.9788 	 127.346
|  8> C 	 -61.9253 	 47.7757 	 126.178
|  9> C 	 -61.7263 	 48.3359 	 124.941
| 10> C 	 -61.9649 	 49.7906 	 124.946
| 11> C 	 -62.1911 	 50.3564 	 126.189
| 12> H 	 -61.9411 	 50.4709 	 124.075
| 13> C 	 -61.5467 	 47.5253 	 123.739
| 14> H 	 -61.7804 	 46.4652 	 123.838
| 15> H 	 -60.4871 	 47.5853 	 123.406
| 16> C 	 -62.4895 	 47.9267 	 122.615
| 17> H 	 -63.5711 	 48.0605 	 122.975
| 18> H 	 -62.2236 	 48.8935 	 122.238
| 19> C 	 -62.403 	 47.0241 	 121.372
| 20> H 	 -62.8334 	 46.0316 	 121.67
| 21> H 	 -63.0258 	 47.3724 	 120.574
| 22> H 	 -61.3655 	 46.8691 	 121.017
| 23> S 	 -63.7661 	 52.17 	 127.402
| 24> C 	 -63.5038 	 53.8602 	 127.291
| 25> C 	 -62.3389 	 54.097 	 126.677
| 26> C 	 -61.6928 	 52.9132 	 126.159
| 27> C 	 -62.3864 	 51.7706 	 126.493
| 28> H 	 -61.9916 	 55.1206 	 126.552
| 29> C 	 -60.366 	 52.8955 	 125.444
| 30> H 	 -60.7133 	 52.6142 	 124.455
| 31> H 	 -59.7806 	 52.0948 	 125.953
| 32> C 	 -59.696 	 54.2551 	 125.31
| 33> H 	 -59.5423 	 54.729 	 126.219
| 34> H 	 -60.4198 	 54.9335 	 124.787
| 35> C 	 -58.3785 	 54.2863 	 124.52
| 36> H 	 -58.3991 	 53.9679 	 123.506
| 37> H 	 -57.6355 	 53.6904 	 125.003
| 38> H 	 -57.8877 	 55.287 	 124.613
| 39> H 	 -61.798 	 46.7577 	 126.325
| 40> H 	 -64.2517 	 54.5728 	 127.545
| 41> *
| 42>
| 43>                          ****END OF INPUT****

CARTESIAN COORDINATES (ANGSTROEM)
---------------------------------
  S    -62.439300   48.978800  127.346000
  C    -61.925300   47.775700  126.178000
  C    -61.726300   48.335900  124.941000
  C    -61.964900   49.790600  124.946000
  C    -62.191100   50.356400  126.189000
  H    -61.941100   50.470900  124.075000
  C    -61.546700   47.525300  123.739000
  H    -61.780400   46.465200  123.838000
  H    -60.487100   47.585300  123.406000
  C    -62.489500   47.926700  122.615000
  H    -63.571100   48.060500  122.975000
  H    -62.223600   48.893500  122.238000
  C    -62.403000   47.024100  121.372000
  H    -62.833400   46.031600  121.670000
  H    -63.025800   47.372400  120.574000
  H    -61.365500   46.869100  121.017000
  S    -63.766100   52.170000  127.402000
  C    -63.503800   53.860200  127.291000
  C    -62.338900   54.097000  126.677000
  C    -61.692800   52.913200  126.159000
  C    -62.386400   51.770600  126.493000
  H    -61.991600   55.120600  126.552000
  C    -60.366000   52.895500  125.444000
  H    -60.713300   52.614200  124.455000
  H    -59.780600   52.094800  125.953000
  C    -59.696000   54.255100  125.310000
  H    -59.542300   54.729000  126.219000
  H    -60.419800   54.933500  124.787000
  C    -58.378500   54.286300  124.520000
  H    -58.399100   53.967900  123.506000
  H    -57.635500   53.690400  125.003000
  H    -57.887700   55.287000  124.613000
  H    -61.798000   46.757700  126.325000
  H    -64.251700   54.572800  127.545000

 Total Charge           Charge          ....    0
 Multiplicity           Mult            ....    1
 Number of Electrons    NEL             ....  134
 Basis Dimension        Dim             ....  322

ORBITAL ENERGIES
----------------

  NO   OCC          E(Eh)            E(eV)
   0   2.0000     -88.963106     -2420.8092
   1   2.0000     -88.958882     -2420.6942
   2   2.0000     -10.336628      -281.2739
   3   2.0000     -10.321437      -280.8606
   4   2.0000     -10.309736      -280.5422
   5   2.0000     -10.308999      -280.5221
   6   2.0000     -10.302966      -280.3580
   7   2.0000     -10.301188      -280.3096
   8   2.0000     -10.300662      -280.2953
   9   2.0000     -10.292477      -280.0725
  10   2.0000     -10.290769      -280.0261
  11   2.0000     -10.290532      -280.0196
  12   2.0000     -10.288347      -279.9602
  13   2.0000     -10.286620      -279.9132
  14   2.0000     -10.282273      -279.7949
  15   2.0000     -10.276486      -279.6374
  16   2.0000      -8.076845      -219.7821
  17   2.0000      -8.075766      -219.7528
  18   2.0000      -6.035722      -164.2404
  19   2.0000      -6.034169      -164.1981
  20   2.0000      -6.031508      -164.1257
  21   2.0000      -6.029864      -164.0809
  22   2.0000      -6.027232      -164.0093
  23   2.0000      -6.026601      -163.9922
  24   2.0000      -1.013989       -27.5920
  25   2.0000      -0.983535       -26.7634
  26   2.0000      -0.916168       -24.9302
  27   2.0000      -0.914043       -24.8724
  28   2.0000      -0.877001       -23.8644
  29   2.0000      -0.852308       -23.1925
  30   2.0000      -0.841038       -22.8858
  31   2.0000      -0.823130       -22.3985
  32   2.0000      -0.781291       -21.2600
  33   2.0000      -0.771666       -20.9981
  34   2.0000      -0.715171       -19.4608
  35   2.0000      -0.708534       -19.2802
  36   2.0000      -0.689927       -18.7739
  37   2.0000      -0.653630       -17.7862
  38   2.0000      -0.643322       -17.5057
  39   2.0000      -0.617613       -16.8061
  40   2.0000      -0.599314       -16.3082
  41   2.0000      -0.576769       -15.6947
  42   2.0000      -0.572738       -15.5850
  43   2.0000      -0.568272       -15.4635
  44   2.0000      -0.530950       -14.4479
  45   2.0000      -0.523243       -14.2382
  46   2.0000      -0.520855       -14.1732
  47   2.0000      -0.511117       -13.9082
  48   2.0000      -0.506551       -13.7839
  49   2.0000      -0.505500       -13.7554
  50   2.0000      -0.497468       -13.5368
  51   2.0000      -0.480465       -13.0741
  52   2.0000      -0.476932       -12.9780
  53   2.0000      -0.464470       -12.6389
  54   2.0000      -0.459366       -12.5000
  55   2.0000      -0.449916       -12.2428
  56   2.0000      -0.449339       -12.2271
  57   2.0000      -0.435543       -11.8517
  58   2.0000      -0.433480       -11.7956
  59   2.0000      -0.422393       -11.4939
  60   2.0000      -0.418074       -11.3764
  61   2.0000      -0.412479       -11.2241
  62   2.0000      -0.410001       -11.1567
  63   2.0000      -0.356942        -9.7129
  64   2.0000      -0.328169        -8.9299
  65   2.0000      -0.322509        -8.7759
  66   2.0000      -0.292495        -7.9592
  67   0.0000       0.031167         0.8481
  68   0.0000       0.072760         1.9799
  69   0.0000       0.116011         3.1568
  70   0.0000       0.127684         3.4745
  71   0.0000       0.138361         3.7650

MULLIKEN ATOMIC CHARGES
-----------------------
   0 S :    0.093402
   1 C :   -0.083644
   2 C :   -0.067583
   3 C :    0.007562
   4 C :   -0.136337
   5 H :    0.027932
   6 C :    0.071469
   7 H :    0.016775
   8 H :    0.039254
   9 C :   -0.131261
  10 H :    0.050396
  11 H :    0.019642
  12 C :   -0.044372
  13 H :    0.028285
  14 H :    0.034532
  15 H :    0.036592
  16 S :    0.102338
  17 C :   -0.069878
  18 C :   -0.043594
  19 C :   -0.086593
  20 C :   -0.161507
  21 H :    0.018221
  22 C :    0.104382
  23 H :    0.026586
  24 H :    0.058903
  25 C :   -0.096857
  26 H :    0.016760
  27 H :    0.029722
  28 C :   -0.009252
  29 H :    0.029895
  30 H :    0.014432
  31 H :    0.030318
  32 H :    0.022479
  33 H :    0.050998
Sum of atomic charges:   -0.0000000

LOEWDIN ATOMIC CHARGES
----------------------
   0 S :    0.366484
   1 C :   -0.178016
   2 C :   -0.064681
   3 C :   -0.061554
   4 C :   -0.173532
   5 H :    0.033424
   6 C :   -0.038307
   7 H :    0.029525
   8 H :    0.036948
   9 C :   -0.046144
  10 H :    0.035648
  11 H :    0.013640
  12 C :   -0.065787
  13 H :    0.025709
  14 H :    0.024124
  15 H :    0.028071
  16 S :    0.437177
  17 C :   -0.187934
  18 C :   -0.079942
  19 C :   -0.055523
  20 C :   -0.219254
  21 H :    0.032651
  22 C :   -0.033039
  23 H :    0.035623
  24 H :    0.042963
  25 C :   -0.040873
  26 H :    0.014305
  27 H :    0.029417
  28 C :   -0.062914
  29 H :    0.020161
  30 H :    0.021166
  31 H :    0.034070
  32 H :    0.018490
  33 H :    0.027904

  Mayer bond orders larger than 0.100000
B(  0-S ,  1-C ) :   1.1194 B(  0-S ,  4-C ) :   1.1141 B(  1-C ,  2-C ) :   1.6437
B(  1-C , 32-H ) :   0.9761 B(  2-C ,  3-C ) :   1.1929 B(  2-C ,  6-C ) :   1.0431
B(  3-C ,  4-C ) :   1.6123 B(  3-C ,  5-H ) :   0.9848 B(  4-C , 20-C ) :   1.0503
B(  6-C ,  7-H ) :   0.9524 B(  6-C ,  8-H ) :   0.9180 B(  6-C ,  9-C ) :   1.0621
B(  9-C , 10-H ) :   0.9578 B(  9-C , 11-H ) :   0.9448 B(  9-C , 12-C ) :   1.0898
B( 12-C , 13-H ) :   0.9737 B( 12-C , 14-H ) :   0.9738 B( 12-C , 15-H ) :   0.9723
B( 16-S , 17-C ) :   1.1684 B( 16-S , 20-C ) :   1.1563 B( 17-C , 18-C ) :   1.5864
B( 17-C , 33-H ) :   0.9694 B( 18-C , 19-C ) :   1.2503 B( 18-C , 21-H ) :   0.9922
B( 19-C , 20-C ) :   1.5968 B( 19-C , 22-C ) :   1.0102 B( 22-C , 23-H ) :   0.9174
B( 22-C , 24-H ) :   0.9364 B( 22-C , 25-C ) :   1.0972 B( 25-C , 26-H ) :   0.9505
B( 25-C , 27-H ) :   0.9442 B( 25-C , 28-C ) :   1.0904 B( 28-C , 29-H ) :   0.9758
B( 28-C , 30-H ) :   0.9696 B( 28-C , 31-H ) :   0.9703

Dispersion correction           -0.013356884
FINAL SINGLE POINT ENERGY     -1339.874854583954

DIPOLE MOMENT
-------------
                                X             Y             Z
Electronic contribution:    -14.40725      -0.43993      24.48106
Nuclear contribution   :     14.69782       0.65528     -25.15335
                        -----------------------------------------
Total Dipole Moment    :      0.29057       0.21535      -0.67229
                        -----------------------------------------
Magnitude (a.u.)       :      0.76340
Magnitude (Debye)      :      1.94042

Rotational constants in cm-1:     0.016775     0.008110     0.006340
Rotational constants in MHz :   502.907377   243.145992   190.080825

                             ****ORCA TERMINATED NORMALLY****
TOTAL RUN TIME: 0 days 0 hours 0 minutes 32 seconds 771 msec
