                         Program Version 4.2.1 -  RELEASE  -
|  1> ! wB97X-D3 SP def2-SVP
|  2> %pal
|  3> nprocs 16
|  4> end
|  5>
|  6> * xyz 0 1
|  7> S 	 -39.3919 	 30.6476 	 94.2214
|  8> C 	 -39.0534 	 29.2651 	 95.3457
|  9> C 	 -39.2711 	 28.0775 	 94.7105
| 10> C 	 -39.6437 	 28.2395 	 93.3215
| 11> C 	 -39.6548 	 29.5322 	 92.8859
| 12> H 	 -39.8887 	 27.4424 	 92.6622
| 13> C 	 -39.0231 	 26.6935 	 95.3386
| 14> H 	 -38.0143 	 26.7111 	 95.8021
| 15> H 	 -38.9316 	 25.8513 	 94.6331
| 16> C 	 -40.1289 	 26.3361 	 96.3611
| 17> H 	 -39.7776 	 25.3829 	 96.7118
| 18> H 	 -40.1858 	 27.1036 	 97.1797
| 19> C 	 -41.4983 	 26.1925 	 95.6029
| 20> H 	 -41.8723 	 27.2122 	 95.4423
| 21> H 	 -41.4326 	 25.7714 	 94.5853
| 22> H 	 -42.3394 	 25.7968 	 96.2561
| 23> S 	 -41.5971 	 30.9129 	 91.3048
| 24> C 	 -41.2113 	 31.0794 	 89.697
| 25> C 	 -40.0273 	 30.6045 	 89.2846
| 26> C 	 -39.4533 	 29.7894 	 90.2869
| 27> C 	 -40.1167 	 29.9291 	 91.4739
| 28> H 	 -39.69 	 30.673 	 88.2347
| 29> C 	 -38.1472 	 28.9549 	 90.0259
| 30> H 	 -38.0658 	 28.0027 	 90.5759
| 31> H 	 -37.4054 	 29.5899 	 90.4476
| 32> C 	 -37.7558 	 28.6891 	 88.5506
| 33> H 	 -37.2923 	 29.6587 	 88.1977
| 34> H 	 -38.5449 	 28.5272 	 87.8733
| 35> C 	 -36.8899 	 27.4039 	 88.4495
| 36> H 	 -36.5956 	 27.201 	 87.4653
| 37> H 	 -37.4855 	 26.5712 	 88.7532
| 38> H 	 -35.9966 	 27.5798 	 89.0984
| 39> H 	 -38.5948 	 29.3776 	 96.2697
| 40> H 	 -41.7312 	 31.7693 	 89.0336
| 41> *
| 42>
| 43>                          ****END OF INPUT****

CARTESIAN COORDINATES (ANGSTROEM)
---------------------------------
  S    -39.391900   30.647600   94.221400
  C    -39.053400   29.265100   95.345700
  C    -39.271100   28.077500   94.710500
  C    -39.643700   28.239500   93.321500
  C    -39.654800   29.532200   92.885900
  H    -39.888700   27.442400   92.662200
  C    -39.023100   26.693500   95.338600
  H    -38.014300   26.711100   95.802100
  H    -38.931600   25.851300   94.633100
  C    -40.128900   26.336100   96.361100
  H    -39.777600   25.382900   96.711800
  H    -40.185800   27.103600   97.179700
  C    -41.498300   26.192500   95.602900
  H    -41.872300   27.212200   95.442300
  H    -41.432600   25.771400   94.585300
  H    -42.339400   25.796800   96.256100
  S    -41.597100   30.912900   91.304800
  C    -41.211300   31.079400   89.697000
  C    -40.027300   30.604500   89.284600
  C    -39.453300   29.789400   90.286900
  C    -40.116700   29.929100   91.473900
  H    -39.690000   30.673000   88.234700
  C    -38.147200   28.954900   90.025900
  H    -38.065800   28.002700   90.575900
  H    -37.405400   29.589900   90.447600
  C    -37.755800   28.689100   88.550600
  H    -37.292300   29.658700   88.197700
  H    -38.544900   28.527200   87.873300
  C    -36.889900   27.403900   88.449500
  H    -36.595600   27.201000   87.465300
  H    -37.485500   26.571200   88.753200
  H    -35.996600   27.579800   89.098400
  H    -38.594800   29.377600   96.269700
  H    -41.731200   31.769300   89.033600

 Total Charge           Charge          ....    0
 Multiplicity           Mult            ....    1
 Number of Electrons    NEL             ....  134
 Basis Dimension        Dim             ....  322

ORBITAL ENERGIES
----------------

  NO   OCC          E(Eh)            E(eV)
   0   2.0000     -88.965507     -2420.8745
   1   2.0000     -88.964114     -2420.8366
   2   2.0000     -10.330954      -281.1195
   3   2.0000     -10.325783      -280.9788
   4   2.0000     -10.311837      -280.5994
   5   2.0000     -10.305172      -280.4180
   6   2.0000     -10.303439      -280.3708
   7   2.0000     -10.301801      -280.3262
   8   2.0000     -10.297175      -280.2004
   9   2.0000     -10.293384      -280.0972
  10   2.0000     -10.292469      -280.0723
  11   2.0000     -10.288880      -279.9747
  12   2.0000     -10.288001      -279.9507
  13   2.0000     -10.286192      -279.9015
  14   2.0000     -10.282946      -279.8132
  15   2.0000     -10.278758      -279.6992
  16   2.0000      -8.081680      -219.9137
  17   2.0000      -8.077749      -219.8067
  18   2.0000      -6.039867      -164.3531
  19   2.0000      -6.036538      -164.2626
  20   2.0000      -6.036247      -164.2546
  21   2.0000      -6.032477      -164.1520
  22   2.0000      -6.032417      -164.1504
  23   2.0000      -6.028208      -164.0359
  24   2.0000      -1.008816       -27.4513
  25   2.0000      -0.983394       -26.7595
  26   2.0000      -0.907408       -24.6918
  27   2.0000      -0.905616       -24.6431
  28   2.0000      -0.860789       -23.4233
  29   2.0000      -0.854451       -23.2508
  30   2.0000      -0.835339       -22.7307
  31   2.0000      -0.813037       -22.1239
  32   2.0000      -0.783680       -21.3250
  33   2.0000      -0.772985       -21.0340
  34   2.0000      -0.703917       -19.1546
  35   2.0000      -0.699890       -19.0450
  36   2.0000      -0.689279       -18.7562
  37   2.0000      -0.648188       -17.6381
  38   2.0000      -0.642122       -17.4730
  39   2.0000      -0.614323       -16.7166
  40   2.0000      -0.600893       -16.3511
  41   2.0000      -0.575854       -15.6698
  42   2.0000      -0.566703       -15.4208
  43   2.0000      -0.544523       -14.8172
  44   2.0000      -0.534199       -14.5363
  45   2.0000      -0.529172       -14.3995
  46   2.0000      -0.514297       -13.9947
  47   2.0000      -0.506308       -13.7773
  48   2.0000      -0.501341       -13.6422
  49   2.0000      -0.490473       -13.3464
  50   2.0000      -0.483278       -13.1507
  51   2.0000      -0.472939       -12.8693
  52   2.0000      -0.466756       -12.7011
  53   2.0000      -0.464344       -12.6354
  54   2.0000      -0.460251       -12.5241
  55   2.0000      -0.456346       -12.4178
  56   2.0000      -0.442309       -12.0358
  57   2.0000      -0.438471       -11.9314
  58   2.0000      -0.432663       -11.7734
  59   2.0000      -0.430058       -11.7025
  60   2.0000      -0.423122       -11.5137
  61   2.0000      -0.411420       -11.1953
  62   2.0000      -0.408762       -11.1230
  63   2.0000      -0.337436        -9.1821
  64   2.0000      -0.336193        -9.1483
  65   2.0000      -0.327114        -8.9012
  66   2.0000      -0.300195        -8.1687
  67   0.0000       0.042343         1.1522
  68   0.0000       0.063177         1.7191
  69   0.0000       0.112754         3.0682
  70   0.0000       0.126538         3.4433
  71   0.0000       0.131778         3.5859

MULLIKEN ATOMIC CHARGES
-----------------------
   0 S :    0.089865
   1 C :   -0.112413
   2 C :   -0.057109
   3 C :    0.037129
   4 C :   -0.136545
   5 H :    0.002809
   6 C :    0.010857
   7 H :    0.038233
   8 H :    0.028418
   9 C :   -0.049810
  10 H :    0.027023
  11 H :    0.044206
  12 C :   -0.091687
  13 H :    0.039652
  14 H :    0.041128
  15 H :    0.047948
  16 S :    0.127979
  17 C :   -0.062005
  18 C :   -0.067147
  19 C :   -0.040262
  20 C :   -0.198954
  21 H :    0.031658
  22 C :    0.086133
  23 H :    0.027988
  24 H :    0.037640
  25 C :   -0.113937
  26 H :    0.037023
  27 H :    0.024743
  28 C :   -0.023922
  29 H :    0.020530
  30 H :    0.035528
  31 H :    0.041201
  32 H :    0.026785
  33 H :    0.049314
Sum of atomic charges:   -0.0000000

LOEWDIN ATOMIC CHARGES
----------------------
   0 S :    0.367327
   1 C :   -0.168209
   2 C :   -0.056918
   3 C :   -0.064479
   4 C :   -0.183870
   5 H :    0.025426
   6 C :   -0.035614
   7 H :    0.033471
   8 H :    0.028899
   9 C :   -0.034718
  10 H :    0.017917
  11 H :    0.029215
  12 C :   -0.080630
  13 H :    0.029871
  14 H :    0.027042
  15 H :    0.034360
  16 S :    0.426001
  17 C :   -0.205800
  18 C :   -0.084949
  19 C :   -0.046406
  20 C :   -0.196201
  21 H :    0.038172
  22 C :   -0.027277
  23 H :    0.030327
  24 H :    0.035950
  25 C :   -0.044949
  26 H :    0.027987
  27 H :    0.013205
  28 C :   -0.053466
  29 H :    0.017857
  30 H :    0.025039
  31 H :    0.031403
  32 H :    0.015180
  33 H :    0.028836

  Mayer bond orders larger than 0.100000
B(  0-S ,  1-C ) :   1.1092 B(  0-S ,  4-C ) :   1.1401 B(  1-C ,  2-C ) :   1.6457
B(  1-C , 32-H ) :   0.9763 B(  2-C ,  3-C ) :   1.2076 B(  2-C ,  6-C ) :   1.0032
B(  3-C ,  4-C ) :   1.6172 B(  3-C ,  5-H ) :   0.9965 B(  4-C , 20-C ) :   0.9935
B(  6-C ,  7-H ) :   0.9461 B(  6-C ,  8-H ) :   0.9530 B(  6-C ,  9-C ) :   1.0663
B(  9-C , 10-H ) :   0.9603 B(  9-C , 11-H ) :   0.9603 B(  9-C , 12-C ) :   1.0574
B( 12-C , 13-H ) :   0.9710 B( 12-C , 14-H ) :   0.9765 B( 12-C , 15-H ) :   0.9744
B( 16-S , 17-C ) :   1.1755 B( 16-S , 20-C ) :   1.1355 B( 17-C , 18-C ) :   1.6385
B( 17-C , 33-H ) :   0.9497 B( 18-C , 19-C ) :   1.2492 B( 18-C , 21-H ) :   0.9774
B( 19-C , 20-C ) :   1.6527 B( 19-C , 22-C ) :   1.0043 B( 22-C , 23-H ) :   0.9521
B( 22-C , 24-H ) :   0.9225 B( 22-C , 25-C ) :   1.0531 B( 25-C , 26-H ) :   0.9506
B( 25-C , 27-H ) :   0.9656 B( 25-C , 28-C ) :   1.0806 B( 28-C , 29-H ) :   0.9731
B( 28-C , 30-H ) :   0.9742 B( 28-C , 31-H ) :   0.9765

Dispersion correction           -0.014027038
FINAL SINGLE POINT ENERGY     -1339.859855682434

DIPOLE MOMENT
-------------
                                X             Y             Z
Electronic contribution:     -9.32444      22.04937       2.95794
Nuclear contribution   :      9.66327     -22.52254      -3.21965
                        -----------------------------------------
Total Dipole Moment    :      0.33882      -0.47317      -0.26170
                        -----------------------------------------
Magnitude (a.u.)       :      0.63810
Magnitude (Debye)      :      1.62193

Rotational constants in cm-1:     0.017858     0.008084     0.006606
Rotational constants in MHz :   535.364438   242.356815   198.049587

                             ****ORCA TERMINATED NORMALLY****
TOTAL RUN TIME: 0 days 0 hours 0 minutes 28 seconds 824 msec
