                         Program Version 4.2.1 -  RELEASE  -
|  1> ! wB97X-D3 SP def2-SVP
|  2> %pal
|  3> nprocs 16
|  4> end
|  5>
|  6> * xyz 0 1
|  7> S 	 14.9074 	 24.4689 	 63.9445
|  8> C 	 15.2791 	 22.9744 	 63.0794
|  9> C 	 14.1381 	 22.3195 	 62.6423
| 10> C 	 12.9753 	 22.9633 	 63.1071
| 11> C 	 13.1832 	 24.2182 	 63.6562
| 12> H 	 12.0316 	 22.612 	 63.0431
| 13> C 	 14.1778 	 20.9006 	 62.0497
| 14> H 	 14.9962 	 20.9458 	 61.3154
| 15> H 	 13.1945 	 20.8367 	 61.5605
| 16> C 	 14.4627 	 19.7812 	 63.0743
| 17> H 	 14.602 	 18.9356 	 62.4487
| 18> H 	 15.407 	 20.0571 	 63.5442
| 19> C 	 13.3285 	 19.4317 	 64.0466
| 20> H 	 13.2197 	 20.2056 	 64.7723
| 21> H 	 12.3495 	 19.1827 	 63.6529
| 22> H 	 13.7079 	 18.6884 	 64.724
| 23> S 	 12.0326 	 25.4821 	 65.7862
| 24> C 	 10.7913 	 26.5971 	 65.57
| 25> C 	 10.379 	 26.5996 	 64.22
| 26> C 	 11.0977 	 25.7532 	 63.3769
| 27> C 	 12.0804 	 25.0979 	 64.0736
| 28> H 	 9.49055 	 27.2066 	 64.028
| 29> C 	 10.7527 	 25.6372 	 61.8766
| 30> H 	 11.5982 	 25.2214 	 61.2908
| 31> H 	 10.7195 	 26.6678 	 61.6642
| 32> C 	 9.42995 	 24.9708 	 61.6167
| 33> H 	 9.0859 	 25.1306 	 60.5905
| 34> H 	 8.77218 	 25.4789 	 62.4353
| 35> C 	 9.37161 	 23.4404 	 61.8544
| 36> H 	 9.32998 	 23.1231 	 62.9407
| 37> H 	 10.2865 	 22.9685 	 61.5761
| 38> H 	 8.52767 	 23.0697 	 61.2666
| 39> H 	 16.3076 	 22.5532 	 63.0321
| 40> H 	 10.2461 	 27.1426 	 66.3393
| 41> *
| 42>
| 43>                          ****END OF INPUT****

CARTESIAN COORDINATES (ANGSTROEM)
---------------------------------
  S     14.907400   24.468900   63.944500
  C     15.279100   22.974400   63.079400
  C     14.138100   22.319500   62.642300
  C     12.975300   22.963300   63.107100
  C     13.183200   24.218200   63.656200
  H     12.031600   22.612000   63.043100
  C     14.177800   20.900600   62.049700
  H     14.996200   20.945800   61.315400
  H     13.194500   20.836700   61.560500
  C     14.462700   19.781200   63.074300
  H     14.602000   18.935600   62.448700
  H     15.407000   20.057100   63.544200
  C     13.328500   19.431700   64.046600
  H     13.219700   20.205600   64.772300
  H     12.349500   19.182700   63.652900
  H     13.707900   18.688400   64.724000
  S     12.032600   25.482100   65.786200
  C     10.791300   26.597100   65.570000
  C     10.379000   26.599600   64.220000
  C     11.097700   25.753200   63.376900
  C     12.080400   25.097900   64.073600
  H      9.490550   27.206600   64.028000
  C     10.752700   25.637200   61.876600
  H     11.598200   25.221400   61.290800
  H     10.719500   26.667800   61.664200
  C      9.429950   24.970800   61.616700
  H      9.085900   25.130600   60.590500
  H      8.772180   25.478900   62.435300
  C      9.371610   23.440400   61.854400
  H      9.329980   23.123100   62.940700
  H     10.286500   22.968500   61.576100
  H      8.527670   23.069700   61.266600
  H     16.307600   22.553200   63.032100
  H     10.246100   27.142600   66.339300

 Total Charge           Charge          ....    0
 Multiplicity           Mult            ....    1
 Number of Electrons    NEL             ....  134
 Basis Dimension        Dim             ....  322

ORBITAL ENERGIES
----------------

  NO   OCC          E(Eh)            E(eV)
   0   2.0000     -88.966971     -2420.9143
   1   2.0000     -88.964496     -2420.8470
   2   2.0000     -10.326854      -281.0080
   3   2.0000     -10.322950      -280.9018
   4   2.0000     -10.315236      -280.6918
   5   2.0000     -10.314618      -280.6750
   6   2.0000     -10.301706      -280.3237
   7   2.0000     -10.295866      -280.1648
   8   2.0000     -10.294431      -280.1257
   9   2.0000     -10.294106      -280.1169
  10   2.0000     -10.291150      -280.0364
  11   2.0000     -10.288411      -279.9619
  12   2.0000     -10.287006      -279.9237
  13   2.0000     -10.282592      -279.8035
  14   2.0000     -10.279416      -279.7171
  15   2.0000     -10.273412      -279.5538
  16   2.0000      -8.080918      -219.8930
  17   2.0000      -8.080387      -219.8785
  18   2.0000      -6.039431      -164.3413
  19   2.0000      -6.038578      -164.3181
  20   2.0000      -6.035557      -164.2359
  21   2.0000      -6.034608      -164.2100
  22   2.0000      -6.031708      -164.1311
  23   2.0000      -6.031538      -164.1265
  24   2.0000      -1.009276       -27.4638
  25   2.0000      -0.985337       -26.8124
  26   2.0000      -0.912847       -24.8398
  27   2.0000      -0.908956       -24.7339
  28   2.0000      -0.864449       -23.5229
  29   2.0000      -0.851935       -23.1823
  30   2.0000      -0.847243       -23.0547
  31   2.0000      -0.811491       -22.0818
  32   2.0000      -0.788319       -21.4513
  33   2.0000      -0.775567       -21.1042
  34   2.0000      -0.705186       -19.1891
  35   2.0000      -0.701136       -19.0789
  36   2.0000      -0.690404       -18.7868
  37   2.0000      -0.658176       -17.9099
  38   2.0000      -0.642746       -17.4900
  39   2.0000      -0.615062       -16.7367
  40   2.0000      -0.594398       -16.1744
  41   2.0000      -0.575050       -15.6479
  42   2.0000      -0.560458       -15.2508
  43   2.0000      -0.546481       -14.8705
  44   2.0000      -0.539745       -14.6872
  45   2.0000      -0.534319       -14.5396
  46   2.0000      -0.522717       -14.2239
  47   2.0000      -0.514767       -14.0075
  48   2.0000      -0.499901       -13.6030
  49   2.0000      -0.497050       -13.5254
  50   2.0000      -0.487333       -13.2610
  51   2.0000      -0.481188       -13.0938
  52   2.0000      -0.467881       -12.7317
  53   2.0000      -0.465301       -12.6615
  54   2.0000      -0.461408       -12.5556
  55   2.0000      -0.447661       -12.1815
  56   2.0000      -0.445438       -12.1210
  57   2.0000      -0.438575       -11.9342
  58   2.0000      -0.433420       -11.7939
  59   2.0000      -0.430075       -11.7029
  60   2.0000      -0.414616       -11.2823
  61   2.0000      -0.412186       -11.2161
  62   2.0000      -0.410791       -11.1782
  63   2.0000      -0.337001        -9.1703
  64   2.0000      -0.335302        -9.1240
  65   2.0000      -0.327033        -8.8990
  66   2.0000      -0.295063        -8.0291
  67   0.0000       0.033340         0.9072
  68   0.0000       0.065601         1.7851
  69   0.0000       0.117192         3.1890
  70   0.0000       0.126743         3.4488
  71   0.0000       0.130293         3.5455

MULLIKEN ATOMIC CHARGES
-----------------------
   0 S :    0.118032
   1 C :   -0.156506
   2 C :   -0.075629
   3 C :    0.073218
   4 C :   -0.145384
   5 H :   -0.052071
   6 C :    0.045368
   7 H :    0.032327
   8 H :    0.024098
   9 C :   -0.033714
  10 H :    0.025252
  11 H :    0.023851
  12 C :   -0.026405
  13 H :    0.021523
  14 H :    0.039939
  15 H :    0.022970
  16 S :    0.122849
  17 C :   -0.094971
  18 C :   -0.091419
  19 C :   -0.010200
  20 C :   -0.217065
  21 H :    0.025248
  22 C :    0.116691
  23 H :    0.034816
  24 H :    0.018736
  25 C :   -0.101303
  26 H :    0.040209
  27 H :    0.041777
  28 C :   -0.056329
  29 H :    0.047415
  30 H :    0.019693
  31 H :    0.042541
  32 H :    0.063610
  33 H :    0.060832
Sum of atomic charges:    0.0000000

LOEWDIN ATOMIC CHARGES
----------------------
   0 S :    0.395098
   1 C :   -0.199481
   2 C :   -0.068221
   3 C :   -0.049595
   4 C :   -0.193651
   5 H :    0.008639
   6 C :   -0.029835
   7 H :    0.033651
   8 H :    0.028676
   9 C :   -0.031244
  10 H :    0.020523
  11 H :    0.026612
  12 C :   -0.066664
  13 H :    0.024450
  14 H :    0.027161
  15 H :    0.029868
  16 S :    0.436902
  17 C :   -0.209316
  18 C :   -0.084841
  19 C :   -0.055021
  20 C :   -0.201593
  21 H :    0.031645
  22 C :   -0.027679
  23 H :    0.032138
  24 H :    0.029390
  25 C :   -0.044866
  26 H :    0.026671
  27 H :    0.037455
  28 C :   -0.071985
  29 H :    0.033609
  30 H :    0.014785
  31 H :    0.030293
  32 H :    0.033195
  33 H :    0.033229

  Mayer bond orders larger than 0.100000
B(  0-S ,  1-C ) :   1.1458 B(  0-S ,  4-C ) :   1.1462 B(  1-C ,  2-C ) :   1.5873
B(  1-C , 32-H ) :   0.9619 B(  2-C ,  3-C ) :   1.2546 B(  2-C ,  6-C ) :   1.0148
B(  3-C ,  4-C ) :   1.5597 B(  3-C ,  5-H ) :   1.0058 B(  4-C , 20-C ) :   1.0291
B(  6-C ,  7-H ) :   0.9386 B(  6-C ,  8-H ) :   0.9421 B(  6-C ,  9-C ) :   1.0722
B(  9-C , 10-H ) :   0.9552 B(  9-C , 11-H ) :   0.9513 B(  9-C , 12-C ) :   1.0837
B( 12-C , 13-H ) :   0.9694 B( 12-C , 14-H ) :   0.9760 B( 12-C , 15-H ) :   0.9663
B( 16-S , 17-C ) :   1.1860 B( 16-S , 20-C ) :   1.1662 B( 17-C , 18-C ) :   1.5768
B( 17-C , 20-C ) :   0.1060 B( 17-C , 33-H ) :   0.9661 B( 18-C , 19-C ) :   1.2637
B( 18-C , 21-H ) :   0.9846 B( 19-C , 20-C ) :   1.5810 B( 19-C , 22-C ) :   1.0112
B( 22-C , 23-H ) :   0.9351 B( 22-C , 24-H ) :   0.9273 B( 22-C , 25-C ) :   1.0791
B( 25-C , 26-H ) :   0.9579 B( 25-C , 27-H ) :   0.9536 B( 25-C , 28-C ) :   1.0666
B( 28-C , 29-H ) :   0.9735 B( 28-C , 30-H ) :   0.9708 B( 28-C , 31-H ) :   0.9731

Dispersion correction           -0.015358885
FINAL SINGLE POINT ENERGY     -1339.868000972792

DIPOLE MOMENT
-------------
                                X             Y             Z
Electronic contribution:     10.72466      18.72312      12.99898
Nuclear contribution   :    -11.05406     -19.09656     -13.24344
                        -----------------------------------------
Total Dipole Moment    :     -0.32940      -0.37345      -0.24446
                        -----------------------------------------
Magnitude (a.u.)       :      0.55473
Magnitude (Debye)      :      1.41002

Rotational constants in cm-1:     0.018993     0.009158     0.007521
Rotational constants in MHz :   569.390436   274.561927   225.474002

                             ****ORCA TERMINATED NORMALLY****
TOTAL RUN TIME: 0 days 0 hours 0 minutes 34 seconds 405 msec
