                         Program Version 4.2.1 -  RELEASE  -
|  1> ! wB97X-D3 SP def2-SVP
|  2> %pal
|  3> nprocs 16
|  4> end
|  5>
|  6> * xyz 0 1
|  7> S 	 0.84387 	 -27.2119 	 67.5552
|  8> C 	 -0.856015 	 -27.2188 	 67.8503
|  9> C 	 -1.54817 	 -27.6553 	 66.7378
| 10> C 	 -0.656867 	 -27.9493 	 65.6104
| 11> C 	 0.638614 	 -27.718 	 65.8862
| 12> H 	 -1.0473 	 -28.3615 	 64.6471
| 13> C 	 -3.00899 	 -27.8747 	 66.5968
| 14> H 	 -3.47851 	 -27.8408 	 67.6381
| 15> H 	 -3.20668 	 -28.8894 	 66.1751
| 16> C 	 -3.745 	 -26.9928 	 65.6739
| 17> H 	 -3.29266 	 -26.9825 	 64.6594
| 18> H 	 -4.73696 	 -27.3684 	 65.7709
| 19> C 	 -3.70814 	 -25.5512 	 66.11
| 20> H 	 -3.6297 	 -25.4631 	 67.2385
| 21> H 	 -2.87898 	 -25.0384 	 65.6676
| 22> H 	 -4.66878 	 -25.0617 	 65.7743
| 23> S 	 3.03136 	 -28.9386 	 65.1491
| 24> C 	 3.7808 	 -28.5389 	 63.6187
| 25> C 	 3.06174 	 -27.5246 	 62.9765
| 26> C 	 1.87686 	 -27.1205 	 63.7076
| 27> C 	 1.74057 	 -27.7747 	 64.9016
| 28> H 	 3.30989 	 -27.2015 	 62.0086
| 29> C 	 0.986764 	 -26.1108 	 63.1698
| 30> H 	 0.374963 	 -25.6101 	 63.939
| 31> H 	 0.239714 	 -26.675 	 62.5977
| 32> C 	 1.56243 	 -25.1997 	 61.9788
| 33> H 	 0.753317 	 -24.7748 	 61.3653
| 34> H 	 2.14201 	 -25.7846 	 61.3236
| 35> C 	 2.46795 	 -24.0367 	 62.4934
| 36> H 	 3.0603 	 -24.2595 	 63.4371
| 37> H 	 1.93874 	 -23.1413 	 62.7062
| 38> H 	 3.28265 	 -23.813 	 61.7473
| 39> H 	 -1.29397 	 -26.8057 	 68.7985
| 40> H 	 4.66259 	 -29.0278 	 63.2341
| 41> *
| 42>
| 43>                          ****END OF INPUT****

CARTESIAN COORDINATES (ANGSTROEM)
---------------------------------
  S      0.843870  -27.211900   67.555200
  C     -0.856015  -27.218800   67.850300
  C     -1.548170  -27.655300   66.737800
  C     -0.656867  -27.949300   65.610400
  C      0.638614  -27.718000   65.886200
  H     -1.047300  -28.361500   64.647100
  C     -3.008990  -27.874700   66.596800
  H     -3.478510  -27.840800   67.638100
  H     -3.206680  -28.889400   66.175100
  C     -3.745000  -26.992800   65.673900
  H     -3.292660  -26.982500   64.659400
  H     -4.736960  -27.368400   65.770900
  C     -3.708140  -25.551200   66.110000
  H     -3.629700  -25.463100   67.238500
  H     -2.878980  -25.038400   65.667600
  H     -4.668780  -25.061700   65.774300
  S      3.031360  -28.938600   65.149100
  C      3.780800  -28.538900   63.618700
  C      3.061740  -27.524600   62.976500
  C      1.876860  -27.120500   63.707600
  C      1.740570  -27.774700   64.901600
  H      3.309890  -27.201500   62.008600
  C      0.986764  -26.110800   63.169800
  H      0.374963  -25.610100   63.939000
  H      0.239714  -26.675000   62.597700
  C      1.562430  -25.199700   61.978800
  H      0.753317  -24.774800   61.365300
  H      2.142010  -25.784600   61.323600
  C      2.467950  -24.036700   62.493400
  H      3.060300  -24.259500   63.437100
  H      1.938740  -23.141300   62.706200
  H      3.282650  -23.813000   61.747300
  H     -1.293970  -26.805700   68.798500
  H      4.662590  -29.027800   63.234100

 Total Charge           Charge          ....    0
 Multiplicity           Mult            ....    1
 Number of Electrons    NEL             ....  134
 Basis Dimension        Dim             ....  322

ORBITAL ENERGIES
----------------

  NO   OCC          E(Eh)            E(eV)
   0   2.0000     -88.963169     -2420.8109
   1   2.0000     -88.962778     -2420.8003
   2   2.0000     -10.328046      -281.0404
   3   2.0000     -10.323073      -280.9051
   4   2.0000     -10.320604      -280.8379
   5   2.0000     -10.318034      -280.7680
   6   2.0000     -10.301311      -280.3129
   7   2.0000     -10.300359      -280.2870
   8   2.0000     -10.296810      -280.1904
   9   2.0000     -10.294507      -280.1278
  10   2.0000     -10.293273      -280.0942
  11   2.0000     -10.293164      -280.0912
  12   2.0000     -10.291763      -280.0531
  13   2.0000     -10.280163      -279.7375
  14   2.0000     -10.280148      -279.7371
  15   2.0000     -10.277814      -279.6735
  16   2.0000      -8.078559      -219.8288
  17   2.0000      -8.077580      -219.8021
  18   2.0000      -6.037177      -164.2800
  19   2.0000      -6.036148      -164.2520
  20   2.0000      -6.032960      -164.1652
  21   2.0000      -6.031963      -164.1381
  22   2.0000      -6.029172      -164.0621
  23   2.0000      -6.028402      -164.0411
  24   2.0000      -1.007102       -27.4046
  25   2.0000      -0.985413       -26.8144
  26   2.0000      -0.924707       -25.1626
  27   2.0000      -0.906603       -24.6699
  28   2.0000      -0.870261       -23.6810
  29   2.0000      -0.847680       -23.0665
  30   2.0000      -0.843204       -22.9447
  31   2.0000      -0.815554       -22.1924
  32   2.0000      -0.781135       -21.2558
  33   2.0000      -0.772218       -21.0131
  34   2.0000      -0.710981       -19.3468
  35   2.0000      -0.697950       -18.9922
  36   2.0000      -0.688552       -18.7365
  37   2.0000      -0.658864       -17.9286
  38   2.0000      -0.637233       -17.3400
  39   2.0000      -0.624462       -16.9925
  40   2.0000      -0.602795       -16.4029
  41   2.0000      -0.574146       -15.6233
  42   2.0000      -0.551551       -15.0085
  43   2.0000      -0.548837       -14.9346
  44   2.0000      -0.542634       -14.7658
  45   2.0000      -0.532123       -14.4798
  46   2.0000      -0.527284       -14.3481
  47   2.0000      -0.515392       -14.0245
  48   2.0000      -0.502896       -13.6845
  49   2.0000      -0.494285       -13.4502
  50   2.0000      -0.491588       -13.3768
  51   2.0000      -0.475650       -12.9431
  52   2.0000      -0.469009       -12.7624
  53   2.0000      -0.467356       -12.7174
  54   2.0000      -0.456314       -12.4169
  55   2.0000      -0.447496       -12.1770
  56   2.0000      -0.444357       -12.0916
  57   2.0000      -0.437328       -11.9003
  58   2.0000      -0.432163       -11.7597
  59   2.0000      -0.422758       -11.5038
  60   2.0000      -0.416708       -11.3392
  61   2.0000      -0.414252       -11.2724
  62   2.0000      -0.413666       -11.2564
  63   2.0000      -0.345234        -9.3943
  64   2.0000      -0.326205        -8.8765
  65   2.0000      -0.324498        -8.8300
  66   2.0000      -0.299807        -8.1582
  67   0.0000       0.040985         1.1153
  68   0.0000       0.066355         1.8056
  69   0.0000       0.115154         3.1335
  70   0.0000       0.124421         3.3857
  71   0.0000       0.127403         3.4668

MULLIKEN ATOMIC CHARGES
-----------------------
   0 S :    0.108742
   1 C :   -0.147678
   2 C :   -0.073909
   3 C :    0.004515
   4 C :   -0.140568
   5 H :    0.033571
   6 C :    0.011312
   7 H :    0.029613
   8 H :    0.035119
   9 C :   -0.044305
  10 H :    0.035933
  11 H :    0.027425
  12 C :   -0.076124
  13 H :    0.027713
  14 H :    0.037337
  15 H :    0.040141
  16 S :    0.103624
  17 C :   -0.083563
  18 C :   -0.026400
  19 C :   -0.005437
  20 C :   -0.170994
  21 H :   -0.002474
  22 C :    0.044874
  23 H :    0.043640
  24 H :    0.032628
  25 C :   -0.056126
  26 H :    0.035036
  27 H :    0.015526
  28 C :   -0.079776
  29 H :    0.045826
  30 H :    0.032160
  31 H :    0.033581
  32 H :    0.070961
  33 H :    0.058077
Sum of atomic charges:    0.0000000

LOEWDIN ATOMIC CHARGES
----------------------
   0 S :    0.405325
   1 C :   -0.210465
   2 C :   -0.068962
   3 C :   -0.063113
   4 C :   -0.193728
   5 H :    0.040066
   6 C :   -0.044188
   7 H :    0.034657
   8 H :    0.037026
   9 C :   -0.047507
  10 H :    0.029956
  11 H :    0.024984
  12 C :   -0.070023
  13 H :    0.025729
  14 H :    0.022208
  15 H :    0.031779
  16 S :    0.401468
  17 C :   -0.176812
  18 C :   -0.067550
  19 C :   -0.054000
  20 C :   -0.204089
  21 H :    0.020212
  22 C :   -0.037330
  23 H :    0.036599
  24 H :    0.039971
  25 C :   -0.030097
  26 H :    0.029551
  27 H :    0.014127
  28 C :   -0.077796
  29 H :    0.034316
  30 H :    0.018405
  31 H :    0.029275
  32 H :    0.040705
  33 H :    0.029302

  Mayer bond orders larger than 0.100000
B(  0-S ,  1-C ) :   1.1337 B(  0-S ,  4-C ) :   1.1454 B(  1-C ,  2-C ) :   1.6255
B(  1-C , 32-H ) :   0.9611 B(  2-C ,  3-C ) :   1.2044 B(  2-C ,  6-C ) :   1.0369
B(  3-C ,  4-C ) :   1.6111 B(  3-C ,  5-H ) :   0.9917 B(  4-C , 20-C ) :   0.9993
B(  6-C ,  7-H ) :   0.9401 B(  6-C ,  8-H ) :   0.9356 B(  6-C ,  9-C ) :   1.0907
B(  9-C , 10-H ) :   0.9512 B(  9-C , 11-H ) :   0.9529 B(  9-C , 12-C ) :   1.0697
B( 12-C , 13-H ) :   0.9766 B( 12-C , 14-H ) :   0.9749 B( 12-C , 15-H ) :   0.9749
B( 16-S , 17-C ) :   1.1650 B( 16-S , 20-C ) :   1.1316 B( 17-C , 18-C ) :   1.5979
B( 17-C , 33-H ) :   0.9679 B( 18-C , 19-C ) :   1.2273 B( 18-C , 21-H ) :   0.9951
B( 19-C , 20-C ) :   1.6142 B( 19-C , 22-C ) :   1.0616 B( 22-C , 23-H ) :   0.9369
B( 22-C , 24-H ) :   0.9115 B( 22-C , 25-C ) :   1.0721 B( 25-C , 26-H ) :   0.9583
B( 25-C , 27-H ) :   0.9563 B( 25-C , 28-C ) :   1.0620 B( 28-C , 29-H ) :   0.9783
B( 28-C , 30-H ) :   0.9801 B( 28-C , 31-H ) :   0.9783

Dispersion correction           -0.014670636
FINAL SINGLE POINT ENERGY     -1339.877787480894

DIPOLE MOMENT
-------------
                                X             Y             Z
Electronic contribution:     17.40335     -16.01310      12.97210
Nuclear contribution   :    -17.92641      16.20302     -13.54621
                        -----------------------------------------
Total Dipole Moment    :     -0.52306       0.18993      -0.57411
                        -----------------------------------------
Magnitude (a.u.)       :      0.79954
Magnitude (Debye)      :      2.03226

Rotational constants in cm-1:     0.018639     0.008933     0.006986
Rotational constants in MHz :   558.775724   267.791902   209.448667

                             ****ORCA TERMINATED NORMALLY****
TOTAL RUN TIME: 0 days 0 hours 0 minutes 35 seconds 668 msec
