                         Program Version 4.2.1 -  RELEASE  -
|  1> ! wB97X-D3 SP def2-SVP
|  2> %pal
|  3> nprocs 16
|  4> end
|  5>
|  6> * xyz 0 1
|  7> S 	 -46.3726 	 28.6674 	 85.4961
|  8> C 	 -46.6464 	 30.4306 	 85.3241
|  9> C 	 -45.7609 	 30.9674 	 84.4291
| 10> C 	 -45.0054 	 29.9992 	 83.7264
| 11> C 	 -45.2197 	 28.7051 	 84.2179
| 12> H 	 -44.2011 	 30.3211 	 83.0193
| 13> C 	 -45.7587 	 32.4969 	 84.1279
| 14> H 	 -46.184 	 32.6054 	 83.1258
| 15> H 	 -44.6753 	 32.8706 	 84.062
| 16> C 	 -46.5487 	 33.4385 	 85.1187
| 17> H 	 -47.6018 	 33.1886 	 85.0525
| 18> H 	 -46.2597 	 33.193 	 86.1779
| 19> C 	 -46.4498 	 34.9214 	 84.7554
| 20> H 	 -46.3981 	 35.049 	 83.6964
| 21> H 	 -47.2937 	 35.4989 	 85.1223
| 22> H 	 -45.4915 	 35.3119 	 85.1964
| 23> S 	 -44.8594 	 26.8399 	 82.2287
| 24> C 	 -43.4466 	 25.8363 	 82.2864
| 25> C 	 -42.9613 	 25.7331 	 83.5646
| 26> C 	 -43.5041 	 26.7727 	 84.4253
| 27> C 	 -44.4995 	 27.5139 	 83.7843
| 28> H 	 -42.1249 	 24.9961 	 83.7402
| 29> C 	 -42.9614 	 26.9888 	 85.8436
| 30> H 	 -42.8186 	 25.9379 	 86.2051
| 31> H 	 -43.8264 	 27.3782 	 86.4212
| 32> C 	 -41.6616 	 27.8076 	 85.9688
| 33> H 	 -41.4006 	 27.9092 	 87.046
| 34> H 	 -41.8071 	 28.8227 	 85.5926
| 35> C 	 -40.4558 	 27.1792 	 85.2109
| 36> H 	 -39.5326 	 27.6559 	 85.2824
| 37> H 	 -40.7162 	 26.9926 	 84.1225
| 38> H 	 -40.3317 	 26.0731 	 85.5471
| 39> H 	 -47.3565 	 31.0574 	 85.7884
| 40> H 	 -42.9512 	 25.2889 	 81.4919
| 41> *
| 42>
| 43>                          ****END OF INPUT****

CARTESIAN COORDINATES (ANGSTROEM)
---------------------------------
  S    -46.372600   28.667400   85.496100
  C    -46.646400   30.430600   85.324100
  C    -45.760900   30.967400   84.429100
  C    -45.005400   29.999200   83.726400
  C    -45.219700   28.705100   84.217900
  H    -44.201100   30.321100   83.019300
  C    -45.758700   32.496900   84.127900
  H    -46.184000   32.605400   83.125800
  H    -44.675300   32.870600   84.062000
  C    -46.548700   33.438500   85.118700
  H    -47.601800   33.188600   85.052500
  H    -46.259700   33.193000   86.177900
  C    -46.449800   34.921400   84.755400
  H    -46.398100   35.049000   83.696400
  H    -47.293700   35.498900   85.122300
  H    -45.491500   35.311900   85.196400
  S    -44.859400   26.839900   82.228700
  C    -43.446600   25.836300   82.286400
  C    -42.961300   25.733100   83.564600
  C    -43.504100   26.772700   84.425300
  C    -44.499500   27.513900   83.784300
  H    -42.124900   24.996100   83.740200
  C    -42.961400   26.988800   85.843600
  H    -42.818600   25.937900   86.205100
  H    -43.826400   27.378200   86.421200
  C    -41.661600   27.807600   85.968800
  H    -41.400600   27.909200   87.046000
  H    -41.807100   28.822700   85.592600
  C    -40.455800   27.179200   85.210900
  H    -39.532600   27.655900   85.282400
  H    -40.716200   26.992600   84.122500
  H    -40.331700   26.073100   85.547100
  H    -47.356500   31.057400   85.788400
  H    -42.951200   25.288900   81.491900

 Total Charge           Charge          ....    0
 Multiplicity           Mult            ....    1
 Number of Electrons    NEL             ....  134
 Basis Dimension        Dim             ....  322

ORBITAL ENERGIES
----------------

  NO   OCC          E(Eh)            E(eV)
   0   2.0000     -88.970707     -2421.0160
   1   2.0000     -88.963190     -2420.8115
   2   2.0000     -10.331499      -281.1344
   3   2.0000     -10.322748      -280.8962
   4   2.0000     -10.312676      -280.6222
   5   2.0000     -10.310471      -280.5622
   6   2.0000     -10.305637      -280.4306
   7   2.0000     -10.305179      -280.4182
   8   2.0000     -10.300584      -280.2931
   9   2.0000     -10.299058      -280.2516
  10   2.0000     -10.296303      -280.1766
  11   2.0000     -10.295824      -280.1636
  12   2.0000     -10.295724      -280.1609
  13   2.0000     -10.291282      -280.0400
  14   2.0000     -10.283466      -279.8273
  15   2.0000     -10.282040      -279.7885
  16   2.0000      -8.084665      -219.9949
  17   2.0000      -8.078502      -219.8272
  18   2.0000      -6.043171      -164.4431
  19   2.0000      -6.039238      -164.3360
  20   2.0000      -6.037010      -164.2754
  21   2.0000      -6.035516      -164.2347
  22   2.0000      -6.032991      -164.1660
  23   2.0000      -6.029160      -164.0618
  24   2.0000      -1.006965       -27.4009
  25   2.0000      -0.984468       -26.7887
  26   2.0000      -0.906772       -24.6745
  27   2.0000      -0.900933       -24.5156
  28   2.0000      -0.869012       -23.6470
  29   2.0000      -0.848842       -23.0982
  30   2.0000      -0.838865       -22.8267
  31   2.0000      -0.812982       -22.1224
  32   2.0000      -0.780354       -21.2345
  33   2.0000      -0.768230       -20.9046
  34   2.0000      -0.713697       -19.4207
  35   2.0000      -0.700635       -19.0653
  36   2.0000      -0.687317       -18.7028
  37   2.0000      -0.654080       -17.7984
  38   2.0000      -0.631598       -17.1866
  39   2.0000      -0.612181       -16.6583
  40   2.0000      -0.582682       -15.8556
  41   2.0000      -0.570774       -15.5315
  42   2.0000      -0.566509       -15.4155
  43   2.0000      -0.549609       -14.9556
  44   2.0000      -0.538855       -14.6630
  45   2.0000      -0.522444       -14.2164
  46   2.0000      -0.515295       -14.0219
  47   2.0000      -0.511632       -13.9222
  48   2.0000      -0.503790       -13.7088
  49   2.0000      -0.497670       -13.5423
  50   2.0000      -0.483069       -13.1450
  51   2.0000      -0.475431       -12.9371
  52   2.0000      -0.467475       -12.7206
  53   2.0000      -0.464112       -12.6291
  54   2.0000      -0.455233       -12.3875
  55   2.0000      -0.454012       -12.3543
  56   2.0000      -0.447804       -12.1854
  57   2.0000      -0.431662       -11.7461
  58   2.0000      -0.430611       -11.7175
  59   2.0000      -0.428197       -11.6518
  60   2.0000      -0.419731       -11.4215
  61   2.0000      -0.418653       -11.3921
  62   2.0000      -0.408245       -11.1089
  63   2.0000      -0.335639        -9.1332
  64   2.0000      -0.328602        -8.9417
  65   2.0000      -0.327631        -8.9153
  66   2.0000      -0.301644        -8.2082
  67   0.0000       0.035356         0.9621
  68   0.0000       0.065109         1.7717
  69   0.0000       0.106375         2.8946
  70   0.0000       0.111872         3.0442
  71   0.0000       0.131033         3.5656

MULLIKEN ATOMIC CHARGES
-----------------------
   0 S :    0.127287
   1 C :   -0.113021
   2 C :   -0.085042
   3 C :    0.030428
   4 C :   -0.163251
   5 H :    0.034885
   6 C :    0.016497
   7 H :    0.045149
   8 H :    0.043436
   9 C :   -0.129523
  10 H :    0.032845
  11 H :    0.046295
  12 C :   -0.025989
  13 H :    0.025956
  14 H :    0.040077
  15 H :    0.040302
  16 S :    0.126713
  17 C :   -0.102954
  18 C :   -0.063925
  19 C :   -0.049418
  20 C :   -0.177590
  21 H :    0.042936
  22 C :    0.059156
  23 H :    0.033366
  24 H :    0.027196
  25 C :   -0.031671
  26 H :    0.040323
  27 H :    0.034827
  28 C :   -0.091280
  29 H :    0.034583
  30 H :    0.046139
  31 H :    0.023515
  32 H :    0.027316
  33 H :    0.054437
Sum of atomic charges:   -0.0000000

LOEWDIN ATOMIC CHARGES
----------------------
   0 S :    0.412844
   1 C :   -0.187563
   2 C :   -0.064571
   3 C :   -0.063234
   4 C :   -0.204025
   5 H :    0.042917
   6 C :   -0.034565
   7 H :    0.033319
   8 H :    0.036430
   9 C :   -0.051344
  10 H :    0.019761
  11 H :    0.028664
  12 C :   -0.061993
  13 H :    0.022251
  14 H :    0.028785
  15 H :    0.032585
  16 S :    0.418217
  17 C :   -0.193993
  18 C :   -0.081900
  19 C :   -0.055994
  20 C :   -0.215009
  21 H :    0.041557
  22 C :   -0.037438
  23 H :    0.036041
  24 H :    0.028491
  25 C :   -0.038136
  26 H :    0.029379
  27 H :    0.026312
  28 C :   -0.074820
  29 H :    0.015119
  30 H :    0.031885
  31 H :    0.028151
  32 H :    0.019679
  33 H :    0.032198

  Mayer bond orders larger than 0.100000
B(  0-S ,  1-C ) :   1.1193 B(  0-S ,  4-C ) :   1.1659 B(  1-C ,  2-C ) :   1.6372
B(  1-C , 32-H ) :   0.9622 B(  2-C ,  3-C ) :   1.2645 B(  2-C ,  6-C ) :   0.9987
B(  3-C ,  4-C ) :   1.5575 B(  3-C ,  5-H ) :   0.9870 B(  4-C , 20-C ) :   1.0200
B(  6-C ,  7-H ) :   0.9371 B(  6-C ,  8-H ) :   0.9479 B(  6-C ,  9-C ) :   1.0714
B(  9-C , 10-H ) :   0.9483 B(  9-C , 11-H ) :   0.9593 B(  9-C , 12-C ) :   1.0768
B( 12-C , 13-H ) :   0.9738 B( 12-C , 14-H ) :   0.9756 B( 12-C , 15-H ) :   0.9754
B( 16-S , 17-C ) :   1.1541 B( 16-S , 20-C ) :   1.1457 B( 17-C , 18-C ) :   1.6350
B( 17-C , 33-H ) :   0.9643 B( 18-C , 19-C ) :   1.2192 B( 18-C , 21-H ) :   0.9761
B( 19-C , 20-C ) :   1.6111 B( 19-C , 22-C ) :   1.0266 B( 22-C , 23-H ) :   0.9394
B( 22-C , 24-H ) :   0.9291 B( 22-C , 25-C ) :   1.0681 B( 25-C , 26-H ) :   0.9562
B( 25-C , 27-H ) :   0.9539 B( 25-C , 28-C ) :   1.0687 B( 28-C , 29-H ) :   0.9758
B( 28-C , 30-H ) :   0.9685 B( 28-C , 31-H ) :   0.9730

Dispersion correction           -0.014332100
FINAL SINGLE POINT ENERGY     -1339.875746256075

DIPOLE MOMENT
-------------
                                X             Y             Z
Electronic contribution:    -11.55389     -18.51202      -7.86785
Nuclear contribution   :     11.89189      18.98906       7.91205
                        -----------------------------------------
Total Dipole Moment    :      0.33800       0.47704       0.04420
                        -----------------------------------------
Magnitude (a.u.)       :      0.58631
Magnitude (Debye)      :      1.49029

Rotational constants in cm-1:     0.022631     0.006985     0.006315
Rotational constants in MHz :   678.459952   209.405283   189.311249

                             ****ORCA TERMINATED NORMALLY****
TOTAL RUN TIME: 0 days 0 hours 0 minutes 30 seconds 127 msec
