                         Program Version 4.2.1 -  RELEASE  -
|  1> ! wB97X-D3 SP def2-SVP
|  2> %pal
|  3> nprocs 16
|  4> end
|  5>
|  6> * xyz 0 1
|  7> S 	 -2.47856 	 -12.1412 	 69.2175
|  8> C 	 -3.58148 	 -12.48 	 70.464
|  9> C 	 -2.87284 	 -13.2636 	 71.3887
| 10> C 	 -1.47668 	 -13.4922 	 71.1537
| 11> C 	 -1.09813 	 -12.902 	 69.9656
| 12> H 	 -0.800053 	 -13.9221 	 71.9092
| 13> C 	 -3.54458 	 -13.8166 	 72.6266
| 14> H 	 -3.30065 	 -14.8276 	 72.8443
| 15> H 	 -4.67026 	 -13.8487 	 72.4857
| 16> C 	 -3.37167 	 -12.9964 	 73.9579
| 17> H 	 -3.59804 	 -11.9542 	 73.7749
| 18> H 	 -4.02575 	 -13.4565 	 74.7705
| 19> C 	 -1.94249 	 -13.1101 	 74.3952
| 20> H 	 -1.69606 	 -12.4625 	 75.2408
| 21> H 	 -1.67079 	 -14.1001 	 74.7209
| 22> H 	 -1.24066 	 -12.7712 	 73.6563
| 23> S 	 0.725729 	 -11.0715 	 69.1319
| 24> C 	 2.18111 	 -11.6877 	 68.5236
| 25> C 	 2.4748 	 -12.9794 	 68.9188
| 26> C 	 1.30145 	 -13.6007 	 69.4651
| 27> C 	 0.236636 	 -12.6857 	 69.5453
| 28> H 	 3.35224 	 -13.5743 	 68.6046
| 29> C 	 1.21171 	 -15.0719 	 69.8376
| 30> H 	 0.148237 	 -15.3587 	 69.8343
| 31> H 	 1.61809 	 -15.2822 	 70.8245
| 32> C 	 1.93648 	 -16.0271 	 68.8513
| 33> H 	 2.92827 	 -15.7296 	 68.9827
| 34> H 	 1.74349 	 -15.8745 	 67.8236
| 35> C 	 1.96017 	 -17.5165 	 69.1198
| 36> H 	 2.25338 	 -17.7382 	 70.1387
| 37> H 	 2.4677 	 -18.0998 	 68.3802
| 38> H 	 0.964885 	 -17.9873 	 68.8945
| 39> H 	 -4.67495 	 -12.2055 	 70.4313
| 40> H 	 2.82791 	 -11.1663 	 67.8723
| 41> *
| 42>
| 43>                          ****END OF INPUT****

CARTESIAN COORDINATES (ANGSTROEM)
---------------------------------
  S     -2.478560  -12.141200   69.217500
  C     -3.581480  -12.480000   70.464000
  C     -2.872840  -13.263600   71.388700
  C     -1.476680  -13.492200   71.153700
  C     -1.098130  -12.902000   69.965600
  H     -0.800053  -13.922100   71.909200
  C     -3.544580  -13.816600   72.626600
  H     -3.300650  -14.827600   72.844300
  H     -4.670260  -13.848700   72.485700
  C     -3.371670  -12.996400   73.957900
  H     -3.598040  -11.954200   73.774900
  H     -4.025750  -13.456500   74.770500
  C     -1.942490  -13.110100   74.395200
  H     -1.696060  -12.462500   75.240800
  H     -1.670790  -14.100100   74.720900
  H     -1.240660  -12.771200   73.656300
  S      0.725729  -11.071500   69.131900
  C      2.181110  -11.687700   68.523600
  C      2.474800  -12.979400   68.918800
  C      1.301450  -13.600700   69.465100
  C      0.236636  -12.685700   69.545300
  H      3.352240  -13.574300   68.604600
  C      1.211710  -15.071900   69.837600
  H      0.148237  -15.358700   69.834300
  H      1.618090  -15.282200   70.824500
  C      1.936480  -16.027100   68.851300
  H      2.928270  -15.729600   68.982700
  H      1.743490  -15.874500   67.823600
  C      1.960170  -17.516500   69.119800
  H      2.253380  -17.738200   70.138700
  H      2.467700  -18.099800   68.380200
  H      0.964885  -17.987300   68.894500
  H     -4.674950  -12.205500   70.431300
  H      2.827910  -11.166300   67.872300

 Total Charge           Charge          ....    0
 Multiplicity           Mult            ....    1
 Number of Electrons    NEL             ....  134
 Basis Dimension        Dim             ....  322

ORBITAL ENERGIES
----------------

  NO   OCC          E(Eh)            E(eV)
   0   2.0000     -88.966932     -2420.9133
   1   2.0000     -88.964584     -2420.8494
   2   2.0000     -10.325044      -280.9587
   3   2.0000     -10.320522      -280.8357
   4   2.0000     -10.320168      -280.8260
   5   2.0000     -10.310250      -280.5562
   6   2.0000     -10.304302      -280.3943
   7   2.0000     -10.303046      -280.3601
   8   2.0000     -10.296433      -280.1802
   9   2.0000     -10.294652      -280.1317
  10   2.0000     -10.293911      -280.1116
  11   2.0000     -10.287849      -279.9466
  12   2.0000     -10.287631      -279.9407
  13   2.0000     -10.277922      -279.6765
  14   2.0000     -10.276104      -279.6270
  15   2.0000     -10.267129      -279.3828
  16   2.0000      -8.083053      -219.9511
  17   2.0000      -8.080389      -219.8786
  18   2.0000      -6.041313      -164.3925
  19   2.0000      -6.038746      -164.3226
  20   2.0000      -6.037517      -164.2892
  21   2.0000      -6.034522      -164.2077
  22   2.0000      -6.033835      -164.1890
  23   2.0000      -6.031425      -164.1234
  24   2.0000      -1.015266       -27.6268
  25   2.0000      -0.991068       -26.9683
  26   2.0000      -0.911320       -24.7983
  27   2.0000      -0.908599       -24.7242
  28   2.0000      -0.876729       -23.8570
  29   2.0000      -0.856275       -23.3004
  30   2.0000      -0.844974       -22.9929
  31   2.0000      -0.814793       -22.1716
  32   2.0000      -0.785090       -21.3634
  33   2.0000      -0.766942       -20.8695
  34   2.0000      -0.707354       -19.2481
  35   2.0000      -0.699869       -19.0444
  36   2.0000      -0.693581       -18.8733
  37   2.0000      -0.657067       -17.8797
  38   2.0000      -0.641432       -17.4542
  39   2.0000      -0.618717       -16.8361
  40   2.0000      -0.601715       -16.3735
  41   2.0000      -0.574224       -15.6254
  42   2.0000      -0.571631       -15.5549
  43   2.0000      -0.544259       -14.8100
  44   2.0000      -0.534397       -14.5417
  45   2.0000      -0.527646       -14.3580
  46   2.0000      -0.517275       -14.0758
  47   2.0000      -0.516533       -14.0556
  48   2.0000      -0.504218       -13.7205
  49   2.0000      -0.502328       -13.6690
  50   2.0000      -0.492752       -13.4085
  51   2.0000      -0.481660       -13.1066
  52   2.0000      -0.477263       -12.9870
  53   2.0000      -0.468536       -12.7495
  54   2.0000      -0.461336       -12.5536
  55   2.0000      -0.448891       -12.2149
  56   2.0000      -0.444880       -12.1058
  57   2.0000      -0.436760       -11.8848
  58   2.0000      -0.433254       -11.7894
  59   2.0000      -0.424695       -11.5565
  60   2.0000      -0.417185       -11.3522
  61   2.0000      -0.410461       -11.1692
  62   2.0000      -0.399841       -10.8802
  63   2.0000      -0.352056        -9.5799
  64   2.0000      -0.333669        -9.0796
  65   2.0000      -0.323734        -8.8093
  66   2.0000      -0.286739        -7.8026
  67   0.0000       0.023096         0.6285
  68   0.0000       0.077991         2.1222
  69   0.0000       0.109964         2.9923
  70   0.0000       0.118950         3.2368
  71   0.0000       0.138149         3.7592

MULLIKEN ATOMIC CHARGES
-----------------------
   0 S :    0.113910
   1 C :   -0.136288
   2 C :   -0.104955
   3 C :    0.031623
   4 C :   -0.163513
   5 H :    0.040262
   6 C :    0.029154
   7 H :    0.015500
   8 H :    0.021905
   9 C :   -0.053606
  10 H :    0.028634
  11 H :    0.042866
  12 C :   -0.057733
  13 H :    0.022827
  14 H :    0.017751
  15 H :    0.029780
  16 S :    0.138999
  17 C :   -0.078922
  18 C :   -0.037732
  19 C :   -0.048745
  20 C :   -0.156354
  21 H :    0.033954
  22 C :    0.081916
  23 H :    0.035072
  24 H :    0.032663
  25 C :   -0.081862
  26 H :    0.010361
  27 H :    0.022256
  28 C :   -0.030395
  29 H :    0.031626
  30 H :    0.024023
  31 H :    0.019838
  32 H :    0.085434
  33 H :    0.039751
Sum of atomic charges:   -0.0000000

LOEWDIN ATOMIC CHARGES
----------------------
   0 S :    0.432702
   1 C :   -0.223256
   2 C :   -0.068927
   3 C :   -0.061560
   4 C :   -0.203616
   5 H :    0.040428
   6 C :   -0.038522
   7 H :    0.020746
   8 H :    0.031353
   9 C :   -0.036694
  10 H :    0.022385
  11 H :    0.032364
  12 C :   -0.072701
  13 H :    0.025284
  14 H :    0.019196
  15 H :    0.022118
  16 S :    0.437275
  17 C :   -0.191600
  18 C :   -0.074452
  19 C :   -0.049213
  20 C :   -0.209203
  21 H :    0.036636
  22 C :   -0.028380
  23 H :    0.032013
  24 H :    0.031464
  25 C :   -0.041724
  26 H :    0.013187
  27 H :    0.021183
  28 C :   -0.066056
  29 H :    0.023200
  30 H :    0.027073
  31 H :    0.028386
  32 H :    0.049643
  33 H :    0.019268

  Mayer bond orders larger than 0.100000
B(  0-S ,  1-C ) :   1.1520 B(  0-S ,  4-C ) :   1.1733 B(  1-C ,  2-C ) :   1.5515
B(  1-C , 32-H ) :   0.9676 B(  2-C ,  3-C ) :   1.2781 B(  2-C ,  6-C ) :   1.0349
B(  3-C ,  4-C ) :   1.5004 B(  3-C ,  5-H ) :   0.9849 B(  4-C , 20-C ) :   1.0858
B(  6-C ,  7-H ) :   0.9457 B(  6-C ,  8-H ) :   0.9454 B(  6-C ,  9-C ) :   1.0645
B(  9-C , 10-H ) :   0.9530 B(  9-C , 11-H ) :   0.9546 B(  9-C , 12-C ) :   1.0911
B( 12-C , 13-H ) :   0.9669 B( 12-C , 14-H ) :   0.9737 B( 12-C , 15-H ) :   0.9677
B( 16-S , 17-C ) :   1.1717 B( 16-S , 20-C ) :   1.1462 B( 17-C , 18-C ) :   1.5931
B( 17-C , 33-H ) :   0.9709 B( 18-C , 19-C ) :   1.2573 B( 18-C , 21-H ) :   0.9787
B( 19-C , 20-C ) :   1.5768 B( 19-C , 22-C ) :   1.0490 B( 22-C , 23-H ) :   0.9334
B( 22-C , 24-H ) :   0.9292 B( 22-C , 25-C ) :   1.0519 B( 25-C , 26-H ) :   0.9470
B( 25-C , 27-H ) :   0.9604 B( 25-C , 28-C ) :   1.1033 B( 28-C , 29-H ) :   0.9721
B( 28-C , 30-H ) :   0.9681 B( 28-C , 31-H ) :   0.9693

Dispersion correction           -0.013989559
FINAL SINGLE POINT ENERGY     -1339.866368523111

DIPOLE MOMENT
-------------
                                X             Y             Z
Electronic contribution:     -2.61762      20.86787     -15.19392
Nuclear contribution   :      2.72545     -21.25698      15.41836
                        -----------------------------------------
Total Dipole Moment    :      0.10783      -0.38911       0.22444
                        -----------------------------------------
Magnitude (a.u.)       :      0.46196
Magnitude (Debye)      :      1.17420

Rotational constants in cm-1:     0.017130     0.008827     0.007131
Rotational constants in MHz :   513.548456   264.628700   213.788940

                             ****ORCA TERMINATED NORMALLY****
TOTAL RUN TIME: 0 days 0 hours 0 minutes 34 seconds 961 msec
