                         Program Version 4.2.1 -  RELEASE  -
|  1> ! wB97X-D3 SP def2-SVP
|  2> %pal
|  3> nprocs 16
|  4> end
|  5>
|  6> * xyz 0 1
|  7> S 	 -15.7825 	 52.7521 	 63.6952
|  8> C 	 -15.5468 	 51.4633 	 62.6035
|  9> C 	 -14.7654 	 51.8964 	 61.5445
| 10> C 	 -14.3446 	 53.2918 	 61.6667
| 11> C 	 -14.9 	 53.933 	 62.6985
| 12> H 	 -13.6346 	 53.7146 	 60.9043
| 13> C 	 -14.2182 	 51.1292 	 60.3725
| 14> H 	 -14.4336 	 51.7451 	 59.4881
| 15> H 	 -14.9946 	 50.4147 	 60.1111
| 16> C 	 -12.9362 	 50.3809 	 60.24
| 17> H 	 -12.048 	 50.9849 	 60.2619
| 18> H 	 -12.6941 	 49.6965 	 61.0609
| 19> C 	 -12.9892 	 49.5757 	 58.8796
| 20> H 	 -12.2209 	 48.753 	 58.8882
| 21> H 	 -13.9495 	 49.0527 	 58.7454
| 22> H 	 -12.928 	 50.1911 	 58.006
| 23> S 	 -14.7123 	 56.6115 	 62.2395
| 24> C 	 -14.2873 	 57.7433 	 63.4346
| 25> C 	 -13.8546 	 57.1126 	 64.5773
| 26> C 	 -13.9261 	 55.6422 	 64.4681
| 27> C 	 -14.4522 	 55.2274 	 63.2834
| 28> H 	 -13.4339 	 57.6271 	 65.4431
| 29> C 	 -13.5543 	 54.7409 	 65.6366
| 30> H 	 -14.3969 	 54.1826 	 65.9222
| 31> H 	 -13.2591 	 55.3478 	 66.4816
| 32> C 	 -12.421 	 53.7911 	 65.3605
| 33> H 	 -11.5084 	 54.4211 	 65.3385
| 34> H 	 -12.5114 	 53.2398 	 64.4581
| 35> C 	 -12.3411 	 52.8262 	 66.6279
| 36> H 	 -13.3364 	 52.4352 	 66.8667
| 37> H 	 -12.0704 	 53.2976 	 67.5423
| 38> H 	 -11.6188 	 52.0118 	 66.5745
| 39> H 	 -15.7212 	 50.4923 	 62.8803
| 40> H 	 -14.2101 	 58.7703 	 63.2074
| 41> *
| 42>
| 43>                          ****END OF INPUT****

CARTESIAN COORDINATES (ANGSTROEM)
---------------------------------
  S    -15.782500   52.752100   63.695200
  C    -15.546800   51.463300   62.603500
  C    -14.765400   51.896400   61.544500
  C    -14.344600   53.291800   61.666700
  C    -14.900000   53.933000   62.698500
  H    -13.634600   53.714600   60.904300
  C    -14.218200   51.129200   60.372500
  H    -14.433600   51.745100   59.488100
  H    -14.994600   50.414700   60.111100
  C    -12.936200   50.380900   60.240000
  H    -12.048000   50.984900   60.261900
  H    -12.694100   49.696500   61.060900
  C    -12.989200   49.575700   58.879600
  H    -12.220900   48.753000   58.888200
  H    -13.949500   49.052700   58.745400
  H    -12.928000   50.191100   58.006000
  S    -14.712300   56.611500   62.239500
  C    -14.287300   57.743300   63.434600
  C    -13.854600   57.112600   64.577300
  C    -13.926100   55.642200   64.468100
  C    -14.452200   55.227400   63.283400
  H    -13.433900   57.627100   65.443100
  C    -13.554300   54.740900   65.636600
  H    -14.396900   54.182600   65.922200
  H    -13.259100   55.347800   66.481600
  C    -12.421000   53.791100   65.360500
  H    -11.508400   54.421100   65.338500
  H    -12.511400   53.239800   64.458100
  C    -12.341100   52.826200   66.627900
  H    -13.336400   52.435200   66.866700
  H    -12.070400   53.297600   67.542300
  H    -11.618800   52.011800   66.574500
  H    -15.721200   50.492300   62.880300
  H    -14.210100   58.770300   63.207400

 Total Charge           Charge          ....    0
 Multiplicity           Mult            ....    1
 Number of Electrons    NEL             ....  134
 Basis Dimension        Dim             ....  322

ORBITAL ENERGIES
----------------

  NO   OCC          E(Eh)            E(eV)
   0   2.0000     -88.964276     -2420.8410
   1   2.0000     -88.958221     -2420.6763
   2   2.0000     -10.331524      -281.1351
   3   2.0000     -10.325314      -280.9661
   4   2.0000     -10.312440      -280.6157
   5   2.0000     -10.311919      -280.6016
   6   2.0000     -10.304324      -280.3949
   7   2.0000     -10.302728      -280.3515
   8   2.0000     -10.297738      -280.2157
   9   2.0000     -10.296699      -280.1874
  10   2.0000     -10.291516      -280.0464
  11   2.0000     -10.287848      -279.9466
  12   2.0000     -10.286152      -279.9004
  13   2.0000     -10.283405      -279.8257
  14   2.0000     -10.280793      -279.7546
  15   2.0000     -10.274031      -279.5706
  16   2.0000      -8.079441      -219.8528
  17   2.0000      -8.074421      -219.7162
  18   2.0000      -6.038111      -164.3054
  19   2.0000      -6.033751      -164.1867
  20   2.0000      -6.032944      -164.1648
  21   2.0000      -6.030134      -164.0883
  22   2.0000      -6.028604      -164.0466
  23   2.0000      -6.025199      -163.9540
  24   2.0000      -1.010002       -27.4836
  25   2.0000      -0.989588       -26.9280
  26   2.0000      -0.914391       -24.8818
  27   2.0000      -0.910173       -24.7671
  28   2.0000      -0.873888       -23.7797
  29   2.0000      -0.849543       -23.1172
  30   2.0000      -0.841861       -22.9082
  31   2.0000      -0.817069       -22.2336
  32   2.0000      -0.777977       -21.1698
  33   2.0000      -0.770632       -20.9700
  34   2.0000      -0.715203       -19.4617
  35   2.0000      -0.707110       -19.2414
  36   2.0000      -0.692627       -18.8474
  37   2.0000      -0.670363       -18.2415
  38   2.0000      -0.646633       -17.5958
  39   2.0000      -0.623998       -16.9798
  40   2.0000      -0.598633       -16.2896
  41   2.0000      -0.572567       -15.5803
  42   2.0000      -0.569209       -15.4890
  43   2.0000      -0.555139       -15.1061
  44   2.0000      -0.530679       -14.4405
  45   2.0000      -0.522301       -14.2125
  46   2.0000      -0.516007       -14.0413
  47   2.0000      -0.509050       -13.8520
  48   2.0000      -0.507784       -13.8175
  49   2.0000      -0.496250       -13.5037
  50   2.0000      -0.491601       -13.3771
  51   2.0000      -0.481085       -13.0910
  52   2.0000      -0.467634       -12.7250
  53   2.0000      -0.462272       -12.5791
  54   2.0000      -0.460158       -12.5215
  55   2.0000      -0.453593       -12.3429
  56   2.0000      -0.445251       -12.1159
  57   2.0000      -0.442558       -12.0426
  58   2.0000      -0.437756       -11.9120
  59   2.0000      -0.423561       -11.5257
  60   2.0000      -0.414775       -11.2866
  61   2.0000      -0.409923       -11.1546
  62   2.0000      -0.406307       -11.0562
  63   2.0000      -0.354281        -9.6405
  64   2.0000      -0.326269        -8.8782
  65   2.0000      -0.325057        -8.8452
  66   2.0000      -0.303620        -8.2619
  67   0.0000       0.034169         0.9298
  68   0.0000       0.073644         2.0039
  69   0.0000       0.110808         3.0152
  70   0.0000       0.119741         3.2583
  71   0.0000       0.132528         3.6063

MULLIKEN ATOMIC CHARGES
-----------------------
   0 S :    0.084130
   1 C :   -0.062433
   2 C :   -0.100922
   3 C :    0.011383
   4 C :   -0.088275
   5 H :    0.041489
   6 C :    0.027065
   7 H :    0.020120
   8 H :    0.001073
   9 C :    0.003853
  10 H :    0.018863
  11 H :    0.024717
  12 C :   -0.088145
  13 H :    0.042437
  14 H :    0.027407
  15 H :    0.035656
  16 S :    0.092398
  17 C :   -0.064681
  18 C :   -0.034858
  19 C :   -0.061186
  20 C :   -0.164987
  21 H :    0.022797
  22 C :    0.080683
  23 H :    0.017231
  24 H :    0.006798
  25 C :   -0.058636
  26 H :    0.030623
  27 H :    0.040179
  28 C :   -0.041722
  29 H :    0.021232
  30 H :    0.010953
  31 H :    0.030148
  32 H :    0.025328
  33 H :    0.049280
Sum of atomic charges:    0.0000000

LOEWDIN ATOMIC CHARGES
----------------------
   0 S :    0.411768
   1 C :   -0.186677
   2 C :   -0.065136
   3 C :   -0.059790
   4 C :   -0.191326
   5 H :    0.043802
   6 C :   -0.056536
   7 H :    0.037484
   8 H :    0.032342
   9 C :   -0.036496
  10 H :    0.020263
  11 H :    0.026848
  12 C :   -0.064123
  13 H :    0.032068
  14 H :    0.024745
  15 H :    0.021757
  16 S :    0.419919
  17 C :   -0.189617
  18 C :   -0.074188
  19 C :   -0.055467
  20 C :   -0.195639
  21 H :    0.031950
  22 C :   -0.030430
  23 H :    0.016895
  24 H :    0.028786
  25 C :   -0.026593
  26 H :    0.027803
  27 H :    0.019779
  28 C :   -0.067453
  29 H :    0.023941
  30 H :    0.018705
  31 H :    0.023420
  32 H :    0.014638
  33 H :    0.022557

  Mayer bond orders larger than 0.100000
B(  0-S ,  1-C ) :   1.1450 B(  0-S ,  4-C ) :   1.1306 B(  1-C ,  2-C ) :   1.6068
B(  1-C , 32-H ) :   0.9839 B(  2-C ,  3-C ) :   1.2437 B(  2-C ,  6-C ) :   1.0170
B(  3-C ,  4-C ) :   1.5968 B(  3-C ,  5-H ) :   0.9857 B(  4-C , 20-C ) :   0.9795
B(  6-C ,  7-H ) :   0.9352 B(  6-C ,  8-H ) :   0.9320 B(  6-C ,  9-C ) :   1.0629
B(  9-C , 10-H ) :   0.9511 B(  9-C , 11-H ) :   0.9542 B(  9-C , 12-C ) :   1.0586
B( 12-C , 13-H ) :   0.9757 B( 12-C , 14-H ) :   0.9774 B( 12-C , 15-H ) :   0.9799
B( 16-S , 17-C ) :   1.1725 B( 16-S , 20-C ) :   1.1370 B( 17-C , 18-C ) :   1.5907
B( 17-C , 33-H ) :   0.9737 B( 18-C , 19-C ) :   1.2376 B( 18-C , 21-H ) :   0.9905
B( 19-C , 20-C ) :   1.6341 B( 19-C , 22-C ) :   1.0335 B( 22-C , 23-H ) :   0.9409
B( 22-C , 24-H ) :   0.9312 B( 22-C , 25-C ) :   1.0602 B( 25-C , 26-H ) :   0.9548
B( 25-C , 27-H ) :   0.9648 B( 25-C , 28-C ) :   1.0687 B( 28-C , 29-H ) :   0.9759
B( 28-C , 30-H ) :   0.9736 B( 28-C , 31-H ) :   0.9765

Dispersion correction           -0.014316889
FINAL SINGLE POINT ENERGY     -1339.865422301634

DIPOLE MOMENT
-------------
                                X             Y             Z
Electronic contribution:    -15.11187      19.09973       0.94473
Nuclear contribution   :     15.60839     -19.43061      -0.95168
                        -----------------------------------------
Total Dipole Moment    :      0.49652      -0.33087      -0.00695
                        -----------------------------------------
Magnitude (a.u.)       :      0.59671
Magnitude (Debye)      :      1.51671

Rotational constants in cm-1:     0.018969     0.008162     0.006883
Rotational constants in MHz :   568.661939   244.681782   206.356445

                             ****ORCA TERMINATED NORMALLY****
TOTAL RUN TIME: 0 days 0 hours 0 minutes 32 seconds 784 msec
