                         Program Version 4.2.1 -  RELEASE  -
|  1> ! wB97X-D3 SP def2-SVP
|  2> %pal
|  3> nprocs 16
|  4> end
|  5>
|  6> * xyz 0 1
|  7> S 	 -10.2847 	 -10.6658 	 88.091
|  8> C 	 -11.4442 	 -9.95833 	 86.9235
|  9> C 	 -12.6985 	 -9.89 	 87.4834
| 10> C 	 -12.8361 	 -10.6174 	 88.7597
| 11> C 	 -11.6226 	 -11.0884 	 89.2001
| 12> H 	 -13.7385 	 -10.7572 	 89.4028
| 13> C 	 -13.9022 	 -9.34445 	 86.732
| 14> H 	 -14.7988 	 -9.93606 	 86.997
| 15> H 	 -13.752 	 -9.51092 	 85.6534
| 16> C 	 -13.9682 	 -7.81121 	 87.0237
| 17> H 	 -14.5986 	 -7.65766 	 87.9564
| 18> H 	 -12.9524 	 -7.34017 	 87.3806
| 19> C 	 -14.3801 	 -6.92782 	 85.85
| 20> H 	 -15.1895 	 -7.35754 	 85.2721
| 21> H 	 -14.7056 	 -5.96259 	 86.1161
| 22> H 	 -13.4894 	 -6.73027 	 85.231
| 23> S 	 -9.99969 	 -11.6569 	 91.4308
| 24> C 	 -10.3341 	 -13.0435 	 92.4306
| 25> C 	 -11.5748 	 -13.545 	 92.1308
| 26> C 	 -12.2153 	 -12.877 	 91.0071
| 27> C 	 -11.4531 	 -11.8494 	 90.4413
| 28> H 	 -11.9202 	 -14.4298 	 92.6572
| 29> C 	 -13.5635 	 -13.5436 	 90.6553
| 30> H 	 -14.277 	 -12.762 	 90.4288
| 31> H 	 -14.0527 	 -13.7842 	 91.5791
| 32> C 	 -13.5071 	 -14.5488 	 89.4853
| 33> H 	 -13.047 	 -13.9915 	 88.6563
| 34> H 	 -14.4954 	 -14.9668 	 89.1492
| 35> C 	 -12.5229 	 -15.696 	 89.7084
| 36> H 	 -12.0948 	 -16.0403 	 88.7942
| 37> H 	 -13.0699 	 -16.5537 	 90.2565
| 38> H 	 -11.6755 	 -15.3925 	 90.38
| 39> H 	 -11.0918 	 -9.39461 	 86.0999
| 40> H 	 -9.58766 	 -13.3547 	 93.1464
| 41> *
| 42>
| 43>                          ****END OF INPUT****

CARTESIAN COORDINATES (ANGSTROEM)
---------------------------------
  S    -10.284700  -10.665800   88.091000
  C    -11.444200   -9.958330   86.923500
  C    -12.698500   -9.890000   87.483400
  C    -12.836100  -10.617400   88.759700
  C    -11.622600  -11.088400   89.200100
  H    -13.738500  -10.757200   89.402800
  C    -13.902200   -9.344450   86.732000
  H    -14.798800   -9.936060   86.997000
  H    -13.752000   -9.510920   85.653400
  C    -13.968200   -7.811210   87.023700
  H    -14.598600   -7.657660   87.956400
  H    -12.952400   -7.340170   87.380600
  C    -14.380100   -6.927820   85.850000
  H    -15.189500   -7.357540   85.272100
  H    -14.705600   -5.962590   86.116100
  H    -13.489400   -6.730270   85.231000
  S     -9.999690  -11.656900   91.430800
  C    -10.334100  -13.043500   92.430600
  C    -11.574800  -13.545000   92.130800
  C    -12.215300  -12.877000   91.007100
  C    -11.453100  -11.849400   90.441300
  H    -11.920200  -14.429800   92.657200
  C    -13.563500  -13.543600   90.655300
  H    -14.277000  -12.762000   90.428800
  H    -14.052700  -13.784200   91.579100
  C    -13.507100  -14.548800   89.485300
  H    -13.047000  -13.991500   88.656300
  H    -14.495400  -14.966800   89.149200
  C    -12.522900  -15.696000   89.708400
  H    -12.094800  -16.040300   88.794200
  H    -13.069900  -16.553700   90.256500
  H    -11.675500  -15.392500   90.380000
  H    -11.091800   -9.394610   86.099900
  H     -9.587660  -13.354700   93.146400

 Total Charge           Charge          ....    0
 Multiplicity           Mult            ....    1
 Number of Electrons    NEL             ....  134
 Basis Dimension        Dim             ....  322

ORBITAL ENERGIES
----------------

  NO   OCC          E(Eh)            E(eV)
   0   2.0000     -88.965708     -2420.8800
   1   2.0000     -88.962710     -2420.7984
   2   2.0000     -10.335835      -281.2524
   3   2.0000     -10.334724      -281.2221
   4   2.0000     -10.318704      -280.7862
   5   2.0000     -10.314663      -280.6763
   6   2.0000     -10.310464      -280.5620
   7   2.0000     -10.308567      -280.5104
   8   2.0000     -10.302029      -280.3324
   9   2.0000     -10.299457      -280.2625
  10   2.0000     -10.298714      -280.2423
  11   2.0000     -10.295954      -280.1672
  12   2.0000     -10.292435      -280.0714
  13   2.0000     -10.290144      -280.0091
  14   2.0000     -10.275778      -279.6181
  15   2.0000     -10.275750      -279.6174
  16   2.0000      -8.079302      -219.8490
  17   2.0000      -8.077689      -219.8051
  18   2.0000      -6.038056      -164.3039
  19   2.0000      -6.036213      -164.2537
  20   2.0000      -6.034086      -164.1958
  21   2.0000      -6.032070      -164.1410
  22   2.0000      -6.029741      -164.0776
  23   2.0000      -6.028513      -164.0442
  24   2.0000      -1.001062       -27.2403
  25   2.0000      -0.978698       -26.6317
  26   2.0000      -0.906742       -24.6737
  27   2.0000      -0.905204       -24.6319
  28   2.0000      -0.869345       -23.6561
  29   2.0000      -0.846060       -23.0225
  30   2.0000      -0.839782       -22.8516
  31   2.0000      -0.816457       -22.2169
  32   2.0000      -0.782258       -21.2863
  33   2.0000      -0.772401       -21.0181
  34   2.0000      -0.705680       -19.2025
  35   2.0000      -0.694266       -18.8919
  36   2.0000      -0.686105       -18.6699
  37   2.0000      -0.663552       -18.0562
  38   2.0000      -0.641327       -17.4514
  39   2.0000      -0.614782       -16.7291
  40   2.0000      -0.595669       -16.2090
  41   2.0000      -0.567119       -15.4321
  42   2.0000      -0.553282       -15.0556
  43   2.0000      -0.552254       -15.0276
  44   2.0000      -0.542337       -14.7577
  45   2.0000      -0.527797       -14.3621
  46   2.0000      -0.517947       -14.0941
  47   2.0000      -0.513378       -13.9697
  48   2.0000      -0.503304       -13.6956
  49   2.0000      -0.500532       -13.6202
  50   2.0000      -0.485349       -13.2070
  51   2.0000      -0.480569       -13.0769
  52   2.0000      -0.466899       -12.7050
  53   2.0000      -0.465024       -12.6539
  54   2.0000      -0.457698       -12.4546
  55   2.0000      -0.444326       -12.0907
  56   2.0000      -0.437757       -11.9120
  57   2.0000      -0.434501       -11.8234
  58   2.0000      -0.429479       -11.6867
  59   2.0000      -0.425764       -11.5856
  60   2.0000      -0.414006       -11.2657
  61   2.0000      -0.406340       -11.0571
  62   2.0000      -0.401362       -10.9216
  63   2.0000      -0.354441        -9.6448
  64   2.0000      -0.330259        -8.9868
  65   2.0000      -0.327445        -8.9102
  66   2.0000      -0.292401        -7.9566
  67   0.0000       0.021843         0.5944
  68   0.0000       0.074375         2.0238
  69   0.0000       0.105302         2.8654
  70   0.0000       0.115806         3.1512
  71   0.0000       0.135091         3.6760

MULLIKEN ATOMIC CHARGES
-----------------------
   0 S :    0.091117
   1 C :   -0.106800
   2 C :   -0.091416
   3 C :   -0.004363
   4 C :   -0.111571
   5 H :    0.037557
   6 C :    0.058094
   7 H :    0.041169
   8 H :    0.034884
   9 C :   -0.135682
  10 H :    0.038623
  11 H :    0.054460
  12 C :   -0.026790
  13 H :    0.031658
  14 H :    0.019524
  15 H :    0.034660
  16 S :    0.086219
  17 C :   -0.099903
  18 C :   -0.029209
  19 C :   -0.082343
  20 C :   -0.146239
  21 H :    0.032046
  22 C :    0.087156
  23 H :   -0.001097
  24 H :    0.015028
  25 C :   -0.047727
  26 H :    0.039830
  27 H :    0.043293
  28 C :   -0.084479
  29 H :    0.032812
  30 H :    0.033043
  31 H :    0.044117
  32 H :    0.046329
  33 H :    0.065999
Sum of atomic charges:    0.0000000

LOEWDIN ATOMIC CHARGES
----------------------
   0 S :    0.365671
   1 C :   -0.181480
   2 C :   -0.050476
   3 C :   -0.067747
   4 C :   -0.175330
   5 H :    0.041920
   6 C :   -0.034039
   7 H :    0.035285
   8 H :    0.032280
   9 C :   -0.054100
  10 H :    0.027528
  11 H :    0.037133
  12 C :   -0.068892
  13 H :    0.023056
  14 H :    0.020638
  15 H :    0.029619
  16 S :    0.394612
  17 C :   -0.180066
  18 C :   -0.075982
  19 C :   -0.053869
  20 C :   -0.193202
  21 H :    0.033861
  22 C :   -0.037280
  23 H :    0.024959
  24 H :    0.028523
  25 C :   -0.042333
  26 H :    0.032082
  27 H :    0.030387
  28 C :   -0.075557
  29 H :    0.020336
  30 H :    0.028444
  31 H :    0.031574
  32 H :    0.022413
  33 H :    0.030030

  Mayer bond orders larger than 0.100000
B(  0-S ,  1-C ) :   1.1044 B(  0-S ,  4-C ) :   1.1280 B(  1-C ,  2-C ) :   1.6555
B(  1-C , 32-H ) :   0.9700 B(  2-C ,  3-C ) :   1.1878 B(  2-C ,  6-C ) :   1.0218
B(  3-C ,  4-C ) :   1.6083 B(  3-C ,  5-H ) :   0.9846 B(  4-C , 20-C ) :   1.0720
B(  6-C ,  7-H ) :   0.9471 B(  6-C ,  8-H ) :   0.9585 B(  6-C ,  9-C ) :   1.0115
B(  9-C , 10-H ) :   0.9567 B(  9-C , 11-H ) :   0.9691 B(  9-C , 12-C ) :   1.0733
B( 12-C , 13-H ) :   0.9759 B( 12-C , 14-H ) :   0.9717 B( 12-C , 15-H ) :   0.9767
B( 16-S , 17-C ) :   1.1600 B( 16-S , 20-C ) :   1.1315 B( 17-C , 18-C ) :   1.5861
B( 17-C , 33-H ) :   0.9718 B( 18-C , 19-C ) :   1.2402 B( 18-C , 21-H ) :   0.9908
B( 19-C , 20-C ) :   1.5912 B( 19-C , 22-C ) :   1.0246 B( 22-C , 23-H ) :   0.9302
B( 22-C , 24-H ) :   0.9368 B( 22-C , 25-C ) :   1.0532 B( 25-C , 26-H ) :   0.9570
B( 25-C , 27-H ) :   0.9587 B( 25-C , 28-C ) :   1.0723 B( 28-C , 29-H ) :   0.9767
B( 28-C , 30-H ) :   0.9757 B( 28-C , 31-H ) :   0.9712

Dispersion correction           -0.014489838
FINAL SINGLE POINT ENERGY     -1339.864396092904

DIPOLE MOMENT
-------------
                                X             Y             Z
Electronic contribution:     20.64046       0.73995      10.66073
Nuclear contribution   :    -21.25403      -0.75017     -10.75742
                        -----------------------------------------
Total Dipole Moment    :     -0.61357      -0.01022      -0.09669
                        -----------------------------------------
Magnitude (a.u.)       :      0.62123
Magnitude (Debye)      :      1.57903

Rotational constants in cm-1:     0.022457     0.007467     0.006461
Rotational constants in MHz :   673.233592   223.864207   193.704972

                             ****ORCA TERMINATED NORMALLY****
TOTAL RUN TIME: 0 days 0 hours 0 minutes 32 seconds 902 msec
