                         Program Version 4.2.1 -  RELEASE  -
|  1> ! wB97X-D3 SP def2-SVP
|  2> %pal
|  3> nprocs 16
|  4> end
|  5>
|  6> * xyz 0 1
|  7> S 	 5.18068 	 -13.1991 	 56.2186
|  8> C 	 5.72807 	 -12.0584 	 57.4252
|  9> C 	 6.18772 	 -12.7245 	 58.5795
| 10> C 	 6.10482 	 -14.1396 	 58.5272
| 11> C 	 5.50025 	 -14.5453 	 57.3604
| 12> H 	 6.42056 	 -14.8014 	 59.2978
| 13> C 	 6.58616 	 -12.0342 	 59.8944
| 14> H 	 6.40245 	 -11.0187 	 59.6448
| 15> H 	 7.66251 	 -12.0815 	 60.2195
| 16> C 	 5.57657 	 -12.2292 	 61.0272
| 17> H 	 5.79132 	 -11.3814 	 61.6648
| 18> H 	 4.49041 	 -12.3073 	 60.7115
| 19> C 	 5.65067 	 -13.5146 	 61.8193
| 20> H 	 5.55214 	 -14.4407 	 61.1459
| 21> H 	 6.46959 	 -13.5909 	 62.5037
| 22> H 	 4.78171 	 -13.5875 	 62.523
| 23> S 	 3.14071 	 -15.7481 	 57.3629
| 24> C 	 3.00554 	 -17.2965 	 56.69
| 25> C 	 4.17888 	 -17.9767 	 56.5827
| 26> C 	 5.27768 	 -17.0989 	 56.7364
| 27> C 	 4.86197 	 -15.8077 	 57.0868
| 28> H 	 4.24653 	 -18.959 	 56.236
| 29> C 	 6.62866 	 -17.6418 	 56.5065
| 30> H 	 6.71028 	 -18.5034 	 57.1329
| 31> H 	 7.35464 	 -16.9378 	 56.9944
| 32> C 	 6.99888 	 -17.7848 	 54.9641
| 33> H 	 6.46023 	 -18.6134 	 54.4156
| 34> H 	 8.0641 	 -18.1602 	 54.9543
| 35> C 	 6.99381 	 -16.3759 	 54.2846
| 36> H 	 5.96601 	 -16.07 	 54.0447
| 37> H 	 7.65202 	 -16.3224 	 53.385
| 38> H 	 7.36168 	 -15.6856 	 55.0375
| 39> H 	 5.62233 	 -10.9952 	 57.3983
| 40> H 	 1.99084 	 -17.7141 	 56.4996
| 41> *
| 42>
| 43>                          ****END OF INPUT****

CARTESIAN COORDINATES (ANGSTROEM)
---------------------------------
  S      5.180680  -13.199100   56.218600
  C      5.728070  -12.058400   57.425200
  C      6.187720  -12.724500   58.579500
  C      6.104820  -14.139600   58.527200
  C      5.500250  -14.545300   57.360400
  H      6.420560  -14.801400   59.297800
  C      6.586160  -12.034200   59.894400
  H      6.402450  -11.018700   59.644800
  H      7.662510  -12.081500   60.219500
  C      5.576570  -12.229200   61.027200
  H      5.791320  -11.381400   61.664800
  H      4.490410  -12.307300   60.711500
  C      5.650670  -13.514600   61.819300
  H      5.552140  -14.440700   61.145900
  H      6.469590  -13.590900   62.503700
  H      4.781710  -13.587500   62.523000
  S      3.140710  -15.748100   57.362900
  C      3.005540  -17.296500   56.690000
  C      4.178880  -17.976700   56.582700
  C      5.277680  -17.098900   56.736400
  C      4.861970  -15.807700   57.086800
  H      4.246530  -18.959000   56.236000
  C      6.628660  -17.641800   56.506500
  H      6.710280  -18.503400   57.132900
  H      7.354640  -16.937800   56.994400
  C      6.998880  -17.784800   54.964100
  H      6.460230  -18.613400   54.415600
  H      8.064100  -18.160200   54.954300
  C      6.993810  -16.375900   54.284600
  H      5.966010  -16.070000   54.044700
  H      7.652020  -16.322400   53.385000
  H      7.361680  -15.685600   55.037500
  H      5.622330  -10.995200   57.398300
  H      1.990840  -17.714100   56.499600

 Total Charge           Charge          ....    0
 Multiplicity           Mult            ....    1
 Number of Electrons    NEL             ....  134
 Basis Dimension        Dim             ....  322

ORBITAL ENERGIES
----------------

  NO   OCC          E(Eh)            E(eV)
   0   2.0000     -88.966860     -2420.9113
   1   2.0000     -88.960652     -2420.7424
   2   2.0000     -10.327504      -281.0257
   3   2.0000     -10.317798      -280.7615
   4   2.0000     -10.314120      -280.6615
   5   2.0000     -10.310608      -280.5659
   6   2.0000     -10.300793      -280.2988
   7   2.0000     -10.299042      -280.2512
   8   2.0000     -10.298039      -280.2239
   9   2.0000     -10.291815      -280.0545
  10   2.0000     -10.291310      -280.0408
  11   2.0000     -10.291242      -280.0389
  12   2.0000     -10.288092      -279.9532
  13   2.0000     -10.281281      -279.7679
  14   2.0000     -10.279439      -279.7178
  15   2.0000     -10.277659      -279.6693
  16   2.0000      -8.080785      -219.8893
  17   2.0000      -8.077093      -219.7889
  18   2.0000      -6.039315      -164.3381
  19   2.0000      -6.035429      -164.2324
  20   2.0000      -6.035313      -164.2292
  21   2.0000      -6.031550      -164.1268
  22   2.0000      -6.031527      -164.1262
  23   2.0000      -6.027849      -164.0261
  24   2.0000      -1.010043       -27.4847
  25   2.0000      -0.983030       -26.7496
  26   2.0000      -0.910759       -24.7830
  27   2.0000      -0.905245       -24.6330
  28   2.0000      -0.868665       -23.6376
  29   2.0000      -0.847713       -23.0674
  30   2.0000      -0.844236       -22.9728
  31   2.0000      -0.813893       -22.1472
  32   2.0000      -0.783483       -21.3196
  33   2.0000      -0.765622       -20.8336
  34   2.0000      -0.704136       -19.1605
  35   2.0000      -0.689612       -18.7653
  36   2.0000      -0.687224       -18.7003
  37   2.0000      -0.662438       -18.0258
  38   2.0000      -0.642872       -17.4934
  39   2.0000      -0.621597       -16.9145
  40   2.0000      -0.596245       -16.2246
  41   2.0000      -0.571249       -15.5445
  42   2.0000      -0.551333       -15.0025
  43   2.0000      -0.544424       -14.8145
  44   2.0000      -0.538410       -14.6509
  45   2.0000      -0.529444       -14.4069
  46   2.0000      -0.517576       -14.0839
  47   2.0000      -0.505321       -13.7505
  48   2.0000      -0.504298       -13.7226
  49   2.0000      -0.498569       -13.5668
  50   2.0000      -0.489726       -13.3261
  51   2.0000      -0.476958       -12.9787
  52   2.0000      -0.469878       -12.7860
  53   2.0000      -0.459483       -12.5032
  54   2.0000      -0.450933       -12.2705
  55   2.0000      -0.446853       -12.1595
  56   2.0000      -0.441748       -12.0206
  57   2.0000      -0.437295       -11.8994
  58   2.0000      -0.425317       -11.5735
  59   2.0000      -0.422221       -11.4892
  60   2.0000      -0.416944       -11.3456
  61   2.0000      -0.413684       -11.2569
  62   2.0000      -0.410190       -11.1618
  63   2.0000      -0.342997        -9.3334
  64   2.0000      -0.326900        -8.8954
  65   2.0000      -0.314479        -8.5574
  66   2.0000      -0.300489        -8.1767
  67   0.0000       0.034638         0.9426
  68   0.0000       0.061049         1.6612
  69   0.0000       0.107325         2.9205
  70   0.0000       0.115423         3.1408
  71   0.0000       0.134492         3.6597

MULLIKEN ATOMIC CHARGES
-----------------------
   0 S :    0.119084
   1 C :   -0.102917
   2 C :   -0.122104
   3 C :    0.075637
   4 C :   -0.183880
   5 H :    0.015351
   6 C :    0.082079
   7 H :   -0.001088
   8 H :    0.052529
   9 C :   -0.090498
  10 H :    0.031704
  11 H :    0.050013
  12 C :   -0.078197
  13 H :    0.041370
  14 H :    0.021770
  15 H :    0.030208
  16 S :    0.127431
  17 C :   -0.100065
  18 C :   -0.003738
  19 C :   -0.024299
  20 C :   -0.197600
  21 H :   -0.004367
  22 C :    0.052085
  23 H :    0.026532
  24 H :    0.025701
  25 C :   -0.100088
  26 H :    0.043809
  27 H :    0.035541
  28 C :   -0.051216
  29 H :    0.046813
  30 H :    0.046433
  31 H :    0.030278
  32 H :    0.041844
  33 H :    0.063844
Sum of atomic charges:    0.0000000

LOEWDIN ATOMIC CHARGES
----------------------
   0 S :    0.396052
   1 C :   -0.200875
   2 C :   -0.060738
   3 C :   -0.051269
   4 C :   -0.186355
   5 H :    0.030330
   6 C :   -0.038515
   7 H :    0.025547
   8 H :    0.039413
   9 C :   -0.046446
  10 H :    0.025871
  11 H :    0.040681
  12 C :   -0.079594
  13 H :    0.031740
  14 H :    0.014292
  15 H :    0.029845
  16 S :    0.433383
  17 C :   -0.193984
  18 C :   -0.069770
  19 C :   -0.052307
  20 C :   -0.218373
  21 H :    0.022966
  22 C :   -0.038119
  23 H :    0.030156
  24 H :    0.034198
  25 C :   -0.043357
  26 H :    0.025976
  27 H :    0.027597
  28 C :   -0.066578
  29 H :    0.027310
  30 H :    0.031320
  31 H :    0.024733
  32 H :    0.024119
  33 H :    0.030752

  Mayer bond orders larger than 0.100000
B(  0-S ,  1-C ) :   1.1339 B(  0-S ,  4-C ) :   1.1499 B(  1-C ,  2-C ) :   1.6232
B(  1-C , 32-H ) :   0.9640 B(  2-C ,  3-C ) :   1.2294 B(  2-C ,  6-C ) :   1.0235
B(  3-C ,  4-C ) :   1.5847 B(  3-C ,  5-H ) :   0.9955 B(  4-C , 20-C ) :   1.0169
B(  6-C ,  7-H ) :   0.9340 B(  6-C ,  8-H ) :   0.9407 B(  6-C ,  9-C ) :   1.0568
B(  9-C , 10-H ) :   0.9564 B(  9-C , 11-H ) :   0.9571 B(  9-C , 12-C ) :   1.0815
B( 12-C , 13-H ) :   0.9670 B( 12-C , 14-H ) :   0.9747 B( 12-C , 15-H ) :   0.9716
B( 16-S , 17-C ) :   1.1803 B( 16-S , 20-C ) :   1.1557 B( 17-C , 18-C ) :   1.5901
B( 17-C , 33-H ) :   0.9617 B( 18-C , 19-C ) :   1.2389 B( 18-C , 21-H ) :   1.0026
B( 19-C , 20-C ) :   1.5796 B( 19-C , 22-C ) :   1.0549 B( 22-C , 23-H ) :   0.9336
B( 22-C , 24-H ) :   0.9347 B( 22-C , 25-C ) :   1.0578 B( 25-C , 26-H ) :   0.9611
B( 25-C , 27-H ) :   0.9586 B( 25-C , 28-C ) :   1.0532 B( 28-C , 29-H ) :   0.9745
B( 28-C , 30-H ) :   0.9761 B( 28-C , 31-H ) :   0.9743

Dispersion correction           -0.015493068
FINAL SINGLE POINT ENERGY     -1339.857947330157

DIPOLE MOMENT
-------------
                                X             Y             Z
Electronic contribution:    -12.54271       2.19120      -8.42020
Nuclear contribution   :     12.71246      -2.32635       8.75994
                        -----------------------------------------
Total Dipole Moment    :      0.16975      -0.13515       0.33974
                        -----------------------------------------
Magnitude (a.u.)       :      0.40312
Magnitude (Debye)      :      1.02464

Rotational constants in cm-1:     0.020782     0.008767     0.008001
Rotational constants in MHz :   623.019498   262.837947   239.866092

                             ****ORCA TERMINATED NORMALLY****
TOTAL RUN TIME: 0 days 0 hours 0 minutes 29 seconds 978 msec
