                         Program Version 4.2.1 -  RELEASE  -
|  1> ! wB97X-D3 SP def2-SVP
|  2> %pal
|  3> nprocs 16
|  4> end
|  5>
|  6> * xyz 0 1
|  7> S 	 -51.5703 	 65.7111 	 129.452
|  8> C 	 -52.3504 	 64.5736 	 128.329
|  9> C 	 -51.6006 	 63.4368 	 128.172
| 10> C 	 -50.422 	 63.4188 	 128.959
| 11> C 	 -50.3008 	 64.5034 	 129.816
| 12> H 	 -49.5798 	 62.7675 	 128.962
| 13> C 	 -51.6745 	 62.3975 	 127.071
| 14> H 	 -50.9712 	 62.7581 	 126.349
| 15> H 	 -52.678 	 62.4638 	 126.7
| 16> C 	 -51.1527 	 60.9721 	 127.387
| 17> H 	 -50.1087 	 61.1634 	 127.692
| 18> H 	 -51.6391 	 60.4896 	 128.253
| 19> C 	 -51.2102 	 60.0148 	 126.249
| 20> H 	 -50.745 	 59.0772 	 126.672
| 21> H 	 -52.2143 	 60.0493 	 125.743
| 22> H 	 -50.5676 	 60.4153 	 125.455
| 23> S 	 -48.2522 	 66.1395 	 130.594
| 24> C 	 -47.1443 	 65.6082 	 131.872
| 25> C 	 -47.6082 	 64.4395 	 132.434
| 26> C 	 -48.6986 	 63.8489 	 131.761
| 27> C 	 -49.2081 	 64.6857 	 130.766
| 28> H 	 -47.1257 	 64.0126 	 133.28
| 29> C 	 -49.3227 	 62.6825 	 132.456
| 30> H 	 -48.5945 	 61.9064 	 132.608
| 31> H 	 -50.018 	 62.1726 	 131.766
| 32> C 	 -50.1762 	 62.9006 	 133.724
| 33> H 	 -49.5477 	 63.435 	 134.548
| 34> H 	 -50.5768 	 61.8936 	 134.079
| 35> C 	 -51.4125 	 63.8374 	 133.517
| 36> H 	 -51.0425 	 64.6778 	 133.039
| 37> H 	 -51.8987 	 64.1618 	 134.382
| 38> H 	 -52.2261 	 63.4587 	 132.844
| 39> H 	 -53.2622 	 64.6881 	 127.77
| 40> H 	 -46.3778 	 66.2558 	 132.311
| 41> *
| 42>
| 43>                          ****END OF INPUT****

CARTESIAN COORDINATES (ANGSTROEM)
---------------------------------
  S    -51.570300   65.711100  129.452000
  C    -52.350400   64.573600  128.329000
  C    -51.600600   63.436800  128.172000
  C    -50.422000   63.418800  128.959000
  C    -50.300800   64.503400  129.816000
  H    -49.579800   62.767500  128.962000
  C    -51.674500   62.397500  127.071000
  H    -50.971200   62.758100  126.349000
  H    -52.678000   62.463800  126.700000
  C    -51.152700   60.972100  127.387000
  H    -50.108700   61.163400  127.692000
  H    -51.639100   60.489600  128.253000
  C    -51.210200   60.014800  126.249000
  H    -50.745000   59.077200  126.672000
  H    -52.214300   60.049300  125.743000
  H    -50.567600   60.415300  125.455000
  S    -48.252200   66.139500  130.594000
  C    -47.144300   65.608200  131.872000
  C    -47.608200   64.439500  132.434000
  C    -48.698600   63.848900  131.761000
  C    -49.208100   64.685700  130.766000
  H    -47.125700   64.012600  133.280000
  C    -49.322700   62.682500  132.456000
  H    -48.594500   61.906400  132.608000
  H    -50.018000   62.172600  131.766000
  C    -50.176200   62.900600  133.724000
  H    -49.547700   63.435000  134.548000
  H    -50.576800   61.893600  134.079000
  C    -51.412500   63.837400  133.517000
  H    -51.042500   64.677800  133.039000
  H    -51.898700   64.161800  134.382000
  H    -52.226100   63.458700  132.844000
  H    -53.262200   64.688100  127.770000
  H    -46.377800   66.255800  132.311000

 Total Charge           Charge          ....    0
 Multiplicity           Mult            ....    1
 Number of Electrons    NEL             ....  134
 Basis Dimension        Dim             ....  322

ORBITAL ENERGIES
----------------

  NO   OCC          E(Eh)            E(eV)
   0   2.0000     -88.969646     -2420.9871
   1   2.0000     -88.967194     -2420.9204
   2   2.0000     -10.332232      -281.1543
   3   2.0000     -10.332043      -281.1492
   4   2.0000     -10.320495      -280.8349
   5   2.0000     -10.315481      -280.6985
   6   2.0000     -10.302875      -280.3555
   7   2.0000     -10.301445      -280.3166
   8   2.0000     -10.298792      -280.2444
   9   2.0000     -10.290794      -280.0267
  10   2.0000     -10.289855      -280.0012
  11   2.0000     -10.289662      -279.9959
  12   2.0000     -10.289090      -279.9804
  13   2.0000     -10.287597      -279.9397
  14   2.0000     -10.286272      -279.9037
  15   2.0000     -10.262822      -279.2656
  16   2.0000      -8.082966      -219.9487
  17   2.0000      -8.081791      -219.9167
  18   2.0000      -6.041666      -164.4021
  19   2.0000      -6.040257      -164.3638
  20   2.0000      -6.037773      -164.2962
  21   2.0000      -6.036314      -164.2565
  22   2.0000      -6.033500      -164.1799
  23   2.0000      -6.032602      -164.1554
  24   2.0000      -1.005573       -27.3630
  25   2.0000      -0.983377       -26.7590
  26   2.0000      -0.915606       -24.9149
  27   2.0000      -0.904533       -24.6136
  28   2.0000      -0.873718       -23.7751
  29   2.0000      -0.850888       -23.1538
  30   2.0000      -0.845715       -23.0131
  31   2.0000      -0.814793       -22.1717
  32   2.0000      -0.783299       -21.3146
  33   2.0000      -0.773966       -21.0607
  34   2.0000      -0.711100       -19.3500
  35   2.0000      -0.692056       -18.8318
  36   2.0000      -0.688276       -18.7289
  37   2.0000      -0.664010       -18.0686
  38   2.0000      -0.641954       -17.4685
  39   2.0000      -0.618354       -16.8263
  40   2.0000      -0.597522       -16.2594
  41   2.0000      -0.576435       -15.6856
  42   2.0000      -0.562932       -15.3182
  43   2.0000      -0.549985       -14.9659
  44   2.0000      -0.540024       -14.6948
  45   2.0000      -0.532345       -14.4858
  46   2.0000      -0.511855       -13.9283
  47   2.0000      -0.508216       -13.8293
  48   2.0000      -0.504248       -13.7213
  49   2.0000      -0.497591       -13.5401
  50   2.0000      -0.489643       -13.3239
  51   2.0000      -0.485273       -13.2050
  52   2.0000      -0.473954       -12.8969
  53   2.0000      -0.462306       -12.5800
  54   2.0000      -0.453509       -12.3406
  55   2.0000      -0.446140       -12.1401
  56   2.0000      -0.443640       -12.0721
  57   2.0000      -0.437986       -11.9182
  58   2.0000      -0.431121       -11.7314
  59   2.0000      -0.421647       -11.4736
  60   2.0000      -0.416256       -11.3269
  61   2.0000      -0.415395       -11.3035
  62   2.0000      -0.407335       -11.0842
  63   2.0000      -0.347598        -9.4586
  64   2.0000      -0.333248        -9.0681
  65   2.0000      -0.329974        -8.9791
  66   2.0000      -0.293309        -7.9814
  67   0.0000       0.024917         0.6780
  68   0.0000       0.066242         1.8025
  69   0.0000       0.105495         2.8707
  70   0.0000       0.118996         3.2380
  71   0.0000       0.128639         3.5004

MULLIKEN ATOMIC CHARGES
-----------------------
   0 S :    0.105723
   1 C :   -0.116058
   2 C :   -0.051084
   3 C :    0.012053
   4 C :   -0.144306
   5 H :    0.012926
   6 C :    0.073641
   7 H :    0.038383
   8 H :    0.010526
   9 C :   -0.124910
  10 H :    0.031052
  11 H :    0.034577
  12 C :   -0.029268
  13 H :    0.055954
  14 H :    0.042025
  15 H :    0.018357
  16 S :    0.101409
  17 C :   -0.094983
  18 C :   -0.025268
  19 C :   -0.031364
  20 C :   -0.170702
  21 H :    0.012192
  22 C :    0.069073
  23 H :    0.021994
  24 H :    0.014857
  25 C :   -0.106541
  26 H :    0.040211
  27 H :    0.045413
  28 C :   -0.022344
  29 H :    0.016164
  30 H :    0.020031
  31 H :    0.033322
  32 H :    0.038922
  33 H :    0.068024
Sum of atomic charges:   -0.0000000

LOEWDIN ATOMIC CHARGES
----------------------
   0 S :    0.376809
   1 C :   -0.191211
   2 C :   -0.062508
   3 C :   -0.060078
   4 C :   -0.178666
   5 H :    0.028222
   6 C :   -0.026865
   7 H :    0.036593
   8 H :    0.021580
   9 C :   -0.050728
  10 H :    0.024159
  11 H :    0.023551
  12 C :   -0.072032
  13 H :    0.041519
  14 H :    0.034297
  15 H :    0.022755
  16 S :    0.400898
  17 C :   -0.180892
  18 C :   -0.060765
  19 C :   -0.065694
  20 C :   -0.193686
  21 H :    0.028204
  22 C :   -0.041708
  23 H :    0.030039
  24 H :    0.031864
  25 C :   -0.039133
  26 H :    0.029380
  27 H :    0.031692
  28 C :   -0.064800
  29 H :    0.015538
  30 H :    0.017720
  31 H :    0.031118
  32 H :    0.029188
  33 H :    0.033641

  Mayer bond orders larger than 0.100000
B(  0-S ,  1-C ) :   1.1116 B(  0-S ,  4-C ) :   1.1302 B(  1-C ,  2-C ) :   1.6441
B(  1-C , 32-H ) :   0.9663 B(  2-C ,  3-C ) :   1.2018 B(  2-C ,  6-C ) :   1.0257
B(  3-C ,  4-C ) :   1.6045 B(  3-C ,  5-H ) :   0.9937 B(  4-C , 20-C ) :   1.0419
B(  6-C ,  7-H ) :   0.9388 B(  6-C ,  8-H ) :   0.9380 B(  6-C ,  9-C ) :   1.0546
B(  9-C , 10-H ) :   0.9438 B(  9-C , 11-H ) :   0.9601 B(  9-C , 12-C ) :   1.0929
B( 12-C , 13-H ) :   0.9696 B( 12-C , 14-H ) :   0.9705 B( 12-C , 15-H ) :   0.9697
B( 16-S , 17-C ) :   1.1432 B( 16-S , 20-C ) :   1.1559 B( 17-C , 18-C ) :   1.6021
B( 17-C , 20-C ) :   0.1021 B( 17-C , 33-H ) :   0.9654 B( 18-C , 19-C ) :   1.2422
B( 18-C , 21-H ) :   0.9940 B( 19-C , 20-C ) :   1.5667 B( 19-C , 22-C ) :   1.0687
B( 22-C , 23-H ) :   0.9266 B( 22-C , 24-H ) :   0.9276 B( 22-C , 25-C ) :   1.0640
B( 25-C , 26-H ) :   0.9555 B( 25-C , 27-H ) :   0.9544 B( 25-C , 28-C ) :   1.0651
B( 28-C , 29-H ) :   0.9752 B( 28-C , 30-H ) :   0.9746 B( 28-C , 31-H ) :   0.9739

Dispersion correction           -0.014786147
FINAL SINGLE POINT ENERGY     -1339.863520689330

DIPOLE MOMENT
-------------
                                X             Y             Z
Electronic contribution:      6.63081      23.64749      -0.03607
Nuclear contribution   :     -6.53082     -24.16610       0.00625
                        -----------------------------------------
Total Dipole Moment    :      0.09999      -0.51861      -0.02982
                        -----------------------------------------
Magnitude (a.u.)       :      0.52900
Magnitude (Debye)      :      1.34462

Rotational constants in cm-1:     0.018561     0.008316     0.007584
Rotational constants in MHz :   556.438987   249.295932   227.373560

                             ****ORCA TERMINATED NORMALLY****
TOTAL RUN TIME: 0 days 0 hours 0 minutes 35 seconds 965 msec
