                         Program Version 4.2.1 -  RELEASE  -
|  1> ! wB97X-D3 SP def2-SVP
|  2> %pal
|  3> nprocs 16
|  4> end
|  5>
|  6> * xyz 0 1
|  7> S 	 0.747089 	 -24.0002 	 87.611
|  8> C 	 2.4991 	 -24.3435 	 87.6054
|  9> C 	 3.16911 	 -23.3387 	 88.2734
| 10> C 	 2.34345 	 -22.2363 	 88.7057
| 11> C 	 1.03423 	 -22.3912 	 88.2951
| 12> H 	 2.62645 	 -21.3778 	 89.2885
| 13> C 	 4.61283 	 -23.3483 	 88.387
| 14> H 	 5.01756 	 -24.3503 	 88.4983
| 15> H 	 4.8098 	 -22.8877 	 89.3023
| 16> C 	 5.35326 	 -22.6127 	 87.2862
| 17> H 	 6.43707 	 -22.7476 	 87.344
| 18> H 	 5.08639 	 -23.013 	 86.3484
| 19> C 	 5.06925 	 -21.1824 	 87.1354
| 20> H 	 4.02341 	 -21.0558 	 86.7941
| 21> H 	 5.3004 	 -20.762 	 88.1184
| 22> H 	 5.70741 	 -20.7812 	 86.3941
| 23> S 	 -1.54787 	 -22.5432 	 89.3559
| 24> C 	 -2.39001 	 -21.0706 	 89.8535
| 25> C 	 -1.5775 	 -20.0307 	 89.5478
| 26> C 	 -0.349068 	 -20.3557 	 88.8731
| 27> C 	 -0.120577 	 -21.6826 	 88.7789
| 28> H 	 -2.00674 	 -19.0397 	 89.8534
| 29> C 	 0.683269 	 -19.301 	 88.5431
| 30> H 	 1.40808 	 -19.7191 	 87.8124
| 31> H 	 1.22318 	 -19.0956 	 89.415
| 32> C 	 0.103373 	 -17.9414 	 88.0567
| 33> H 	 0.962116 	 -17.3393 	 87.7211
| 34> H 	 -0.357888 	 -17.3987 	 88.8789
| 35> C 	 -0.907854 	 -18.0541 	 86.9077
| 36> H 	 -0.534566 	 -18.5548 	 86.0939
| 37> H 	 -1.28124 	 -17.1017 	 86.6151
| 38> H 	 -1.83578 	 -18.4872 	 87.2802
| 39> H 	 3.05945 	 -25.1245 	 87.1578
| 40> H 	 -3.4866 	 -20.9435 	 90.078
| 41> *
| 42>
| 43>                          ****END OF INPUT****

CARTESIAN COORDINATES (ANGSTROEM)
---------------------------------
  S      0.747089  -24.000200   87.611000
  C      2.499100  -24.343500   87.605400
  C      3.169110  -23.338700   88.273400
  C      2.343450  -22.236300   88.705700
  C      1.034230  -22.391200   88.295100
  H      2.626450  -21.377800   89.288500
  C      4.612830  -23.348300   88.387000
  H      5.017560  -24.350300   88.498300
  H      4.809800  -22.887700   89.302300
  C      5.353260  -22.612700   87.286200
  H      6.437070  -22.747600   87.344000
  H      5.086390  -23.013000   86.348400
  C      5.069250  -21.182400   87.135400
  H      4.023410  -21.055800   86.794100
  H      5.300400  -20.762000   88.118400
  H      5.707410  -20.781200   86.394100
  S     -1.547870  -22.543200   89.355900
  C     -2.390010  -21.070600   89.853500
  C     -1.577500  -20.030700   89.547800
  C     -0.349068  -20.355700   88.873100
  C     -0.120577  -21.682600   88.778900
  H     -2.006740  -19.039700   89.853400
  C      0.683269  -19.301000   88.543100
  H      1.408080  -19.719100   87.812400
  H      1.223180  -19.095600   89.415000
  C      0.103373  -17.941400   88.056700
  H      0.962116  -17.339300   87.721100
  H     -0.357888  -17.398700   88.878900
  C     -0.907854  -18.054100   86.907700
  H     -0.534566  -18.554800   86.093900
  H     -1.281240  -17.101700   86.615100
  H     -1.835780  -18.487200   87.280200
  H      3.059450  -25.124500   87.157800
  H     -3.486600  -20.943500   90.078000

 Total Charge           Charge          ....    0
 Multiplicity           Mult            ....    1
 Number of Electrons    NEL             ....  134
 Basis Dimension        Dim             ....  322

ORBITAL ENERGIES
----------------

  NO   OCC          E(Eh)            E(eV)
   0   2.0000     -88.967892     -2420.9394
   1   2.0000     -88.958714     -2420.6897
   2   2.0000     -10.333005      -281.1754
   3   2.0000     -10.322900      -280.9004
   4   2.0000     -10.318066      -280.7688
   5   2.0000     -10.315081      -280.6876
   6   2.0000     -10.300984      -280.3040
   7   2.0000     -10.299391      -280.2607
   8   2.0000     -10.297840      -280.2185
   9   2.0000     -10.294588      -280.1300
  10   2.0000     -10.287908      -279.9482
  11   2.0000     -10.286466      -279.9090
  12   2.0000     -10.280152      -279.7371
  13   2.0000     -10.274790      -279.5913
  14   2.0000     -10.270636      -279.4782
  15   2.0000     -10.262991      -279.2702
  16   2.0000      -8.081656      -219.9130
  17   2.0000      -8.073251      -219.6843
  18   2.0000      -6.040372      -164.3669
  19   2.0000      -6.036346      -164.2573
  20   2.0000      -6.032188      -164.1442
  21   2.0000      -6.032009      -164.1393
  22   2.0000      -6.027791      -164.0245
  23   2.0000      -6.023709      -163.9135
  24   2.0000      -1.009565       -27.4716
  25   2.0000      -0.984867       -26.7996
  26   2.0000      -0.928006       -25.2523
  27   2.0000      -0.906368       -24.6635
  28   2.0000      -0.878420       -23.9030
  29   2.0000      -0.854501       -23.2521
  30   2.0000      -0.838870       -22.8268
  31   2.0000      -0.824907       -22.4469
  32   2.0000      -0.786805       -21.4101
  33   2.0000      -0.777769       -21.1642
  34   2.0000      -0.711551       -19.3623
  35   2.0000      -0.702401       -19.1133
  36   2.0000      -0.695581       -18.9277
  37   2.0000      -0.653840       -17.7919
  38   2.0000      -0.640695       -17.4342
  39   2.0000      -0.617645       -16.8070
  40   2.0000      -0.594138       -16.1673
  41   2.0000      -0.582170       -15.8417
  42   2.0000      -0.562512       -15.3067
  43   2.0000      -0.560292       -15.2463
  44   2.0000      -0.549986       -14.9659
  45   2.0000      -0.528977       -14.3942
  46   2.0000      -0.524698       -14.2778
  47   2.0000      -0.520578       -14.1657
  48   2.0000      -0.515807       -14.0358
  49   2.0000      -0.497324       -13.5329
  50   2.0000      -0.491804       -13.3827
  51   2.0000      -0.486117       -13.2279
  52   2.0000      -0.473216       -12.8769
  53   2.0000      -0.463328       -12.6078
  54   2.0000      -0.460645       -12.5348
  55   2.0000      -0.442989       -12.0543
  56   2.0000      -0.440206       -11.9786
  57   2.0000      -0.436796       -11.8858
  58   2.0000      -0.430257       -11.7079
  59   2.0000      -0.425515       -11.5788
  60   2.0000      -0.424105       -11.5405
  61   2.0000      -0.412899       -11.2356
  62   2.0000      -0.403761       -10.9869
  63   2.0000      -0.356709        -9.7065
  64   2.0000      -0.330598        -8.9960
  65   2.0000      -0.325330        -8.8527
  66   2.0000      -0.293071        -7.9749
  67   0.0000       0.021924         0.5966
  68   0.0000       0.076058         2.0696
  69   0.0000       0.102858         2.7989
  70   0.0000       0.123361         3.3568
  71   0.0000       0.130770         3.5584

MULLIKEN ATOMIC CHARGES
-----------------------
   0 S :    0.093981
   1 C :   -0.079078
   2 C :   -0.119497
   3 C :    0.020415
   4 C :   -0.138515
   5 H :    0.021056
   6 C :    0.111571
   7 H :    0.018287
   8 H :   -0.001664
   9 C :   -0.046962
  10 H :    0.023835
  11 H :   -0.003062
  12 C :   -0.039520
  13 H :    0.052483
  14 H :    0.019412
  15 H :    0.025517
  16 S :    0.080350
  17 C :   -0.119377
  18 C :   -0.060107
  19 C :   -0.057574
  20 C :   -0.114057
  21 H :    0.035668
  22 C :    0.069460
  23 H :    0.034949
  24 H :    0.031755
  25 C :   -0.098179
  26 H :    0.030971
  27 H :    0.026361
  28 C :    0.009268
  29 H :    0.022060
  30 H :    0.012375
  31 H :    0.020797
  32 H :    0.031713
  33 H :    0.085310
Sum of atomic charges:    0.0000000

LOEWDIN ATOMIC CHARGES
----------------------
   0 S :    0.385426
   1 C :   -0.177366
   2 C :   -0.059594
   3 C :   -0.049832
   4 C :   -0.175285
   5 H :    0.033226
   6 C :   -0.033217
   7 H :    0.033548
   8 H :    0.022654
   9 C :   -0.038816
  10 H :    0.024053
  11 H :    0.015065
  12 C :   -0.059048
  13 H :    0.030658
  14 H :    0.021707
  15 H :    0.023117
  16 S :    0.375800
  17 C :   -0.194250
  18 C :   -0.080818
  19 C :   -0.066880
  20 C :   -0.190493
  21 H :    0.038270
  22 C :   -0.030954
  23 H :    0.033376
  24 H :    0.025799
  25 C :   -0.038640
  26 H :    0.026853
  27 H :    0.020614
  28 C :   -0.055777
  29 H :    0.014797
  30 H :    0.022521
  31 H :    0.027109
  32 H :    0.026008
  33 H :    0.050368

  Mayer bond orders larger than 0.100000
B(  0-S ,  1-C ) :   1.1135 B(  0-S ,  4-C ) :   1.1356 B(  1-C ,  2-C ) :   1.6283
B(  1-C , 32-H ) :   0.9709 B(  2-C ,  3-C ) :   1.2111 B(  2-C ,  6-C ) :   1.0470
B(  3-C ,  4-C ) :   1.5617 B(  3-C ,  5-H ) :   0.9929 B(  4-C , 20-C ) :   1.0632
B(  6-C ,  7-H ) :   0.9308 B(  6-C ,  8-H ) :   0.9251 B(  6-C ,  9-C ) :   1.0725
B(  9-C , 10-H ) :   0.9529 B(  9-C , 11-H ) :   0.9453 B(  9-C , 12-C ) :   1.1004
B( 12-C , 13-H ) :   0.9664 B( 12-C , 14-H ) :   0.9739 B( 12-C , 15-H ) :   0.9662
B( 16-S , 17-C ) :   1.1298 B( 16-S , 20-C ) :   1.1094 B( 17-C , 18-C ) :   1.6585
B( 17-C , 33-H ) :   0.9555 B( 18-C , 19-C ) :   1.2028 B( 18-C , 21-H ) :   0.9770
B( 19-C , 20-C ) :   1.6392 B( 19-C , 22-C ) :   1.0490 B( 22-C , 23-H ) :   0.9268
B( 22-C , 24-H ) :   0.9321 B( 22-C , 25-C ) :   1.0755 B( 25-C , 26-H ) :   0.9563
B( 25-C , 27-H ) :   0.9493 B( 25-C , 28-C ) :   1.0939 B( 28-C , 29-H ) :   0.9775
B( 28-C , 30-H ) :   0.9686 B( 28-C , 31-H ) :   0.9650

Dispersion correction           -0.014963210
FINAL SINGLE POINT ENERGY     -1339.867016839312

DIPOLE MOMENT
-------------
                                X             Y             Z
Electronic contribution:    -16.91367     -19.69207       6.42690
Nuclear contribution   :     17.46334      20.21542      -6.41678
                        -----------------------------------------
Total Dipole Moment    :      0.54967       0.52334       0.01012
                        -----------------------------------------
Magnitude (a.u.)       :      0.75903
Magnitude (Debye)      :      1.92931

Rotational constants in cm-1:     0.019717     0.009403     0.006977
Rotational constants in MHz :   591.100013   281.880819   209.155985

                             ****ORCA TERMINATED NORMALLY****
TOTAL RUN TIME: 0 days 0 hours 0 minutes 33 seconds 935 msec
