                         Program Version 4.2.1 -  RELEASE  -
|  1> ! wB97X-D3 SP def2-SVP
|  2> %pal
|  3> nprocs 16
|  4> end
|  5>
|  6> * xyz 0 1
|  7> S 	 -37.5125 	 68.9584 	 105.819
|  8> C 	 -36.4891 	 68.3398 	 104.55
|  9> C 	 -35.36 	 69.1438 	 104.352
| 10> C 	 -35.2062 	 70.1502 	 105.377
| 11> C 	 -36.313 	 70.1779 	 106.216
| 12> H 	 -34.3565 	 70.8769 	 105.348
| 13> C 	 -34.3393 	 68.8868 	 103.335
| 14> H 	 -34.3812 	 67.8085 	 103.345
| 15> H 	 -33.3721 	 69.1728 	 103.74
| 16> C 	 -34.6064 	 69.4714 	 101.961
| 17> H 	 -35.3064 	 68.8287 	 101.456
| 18> H 	 -35.1604 	 70.4096 	 102.082
| 19> C 	 -33.3695 	 69.7412 	 101.11
| 20> H 	 -33.3385 	 70.5128 	 100.304
| 21> H 	 -32.5787 	 70.1783 	 101.785
| 22> H 	 -32.8699 	 68.8454 	 100.563
| 23> S 	 -36.5621 	 70.7766 	 108.853
| 24> C 	 -36.6913 	 72.4536 	 109.288
| 25> C 	 -37.0163 	 73.2168 	 108.199
| 26> C 	 -36.8555 	 72.5262 	 106.974
| 27> C 	 -36.5225 	 71.1976 	 107.171
| 28> H 	 -37.3467 	 74.262 	 108.378
| 29> C 	 -36.9032 	 73.2485 	 105.59
| 30> H 	 -36.0667 	 73.0568 	 104.885
| 31> H 	 -36.7982 	 74.2937 	 105.788
| 32> C 	 -38.1223 	 73.1003 	 104.843
| 33> H 	 -38.9397 	 73.4775 	 105.404
| 34> H 	 -38.2911 	 71.974 	 104.761
| 35> C 	 -38.1091 	 73.7547 	 103.321
| 36> H 	 -37.3538 	 73.2677 	 102.802
| 37> H 	 -38.1284 	 74.8187 	 103.336
| 38> H 	 -39.0145 	 73.5031 	 102.762
| 39> H 	 -36.6156 	 67.5899 	 103.75
| 40> H 	 -36.7277 	 72.7744 	 110.362
| 41> *
| 42>
| 43>                          ****END OF INPUT****

CARTESIAN COORDINATES (ANGSTROEM)
---------------------------------
  S    -37.512500   68.958400  105.819000
  C    -36.489100   68.339800  104.550000
  C    -35.360000   69.143800  104.352000
  C    -35.206200   70.150200  105.377000
  C    -36.313000   70.177900  106.216000
  H    -34.356500   70.876900  105.348000
  C    -34.339300   68.886800  103.335000
  H    -34.381200   67.808500  103.345000
  H    -33.372100   69.172800  103.740000
  C    -34.606400   69.471400  101.961000
  H    -35.306400   68.828700  101.456000
  H    -35.160400   70.409600  102.082000
  C    -33.369500   69.741200  101.110000
  H    -33.338500   70.512800  100.304000
  H    -32.578700   70.178300  101.785000
  H    -32.869900   68.845400  100.563000
  S    -36.562100   70.776600  108.853000
  C    -36.691300   72.453600  109.288000
  C    -37.016300   73.216800  108.199000
  C    -36.855500   72.526200  106.974000
  C    -36.522500   71.197600  107.171000
  H    -37.346700   74.262000  108.378000
  C    -36.903200   73.248500  105.590000
  H    -36.066700   73.056800  104.885000
  H    -36.798200   74.293700  105.788000
  C    -38.122300   73.100300  104.843000
  H    -38.939700   73.477500  105.404000
  H    -38.291100   71.974000  104.761000
  C    -38.109100   73.754700  103.321000
  H    -37.353800   73.267700  102.802000
  H    -38.128400   74.818700  103.336000
  H    -39.014500   73.503100  102.762000
  H    -36.615600   67.589900  103.750000
  H    -36.727700   72.774400  110.362000

 Total Charge           Charge          ....    0
 Multiplicity           Mult            ....    1
 Number of Electrons    NEL             ....  134
 Basis Dimension        Dim             ....  322

ORBITAL ENERGIES
----------------

  NO   OCC          E(Eh)            E(eV)
   0   2.0000     -88.973896     -2421.1028
   1   2.0000     -88.963747     -2420.8266
   2   2.0000     -10.326511      -280.9987
   3   2.0000     -10.319228      -280.8005
   4   2.0000     -10.318633      -280.7843
   5   2.0000     -10.313965      -280.6573
   6   2.0000     -10.305738      -280.4334
   7   2.0000     -10.298292      -280.2308
   8   2.0000     -10.296154      -280.1726
   9   2.0000     -10.296140      -280.1722
  10   2.0000     -10.292806      -280.0815
  11   2.0000     -10.290259      -280.0122
  12   2.0000     -10.285288      -279.8769
  13   2.0000     -10.285226      -279.8752
  14   2.0000     -10.282255      -279.7944
  15   2.0000     -10.277058      -279.6530
  16   2.0000      -8.087745      -220.0787
  17   2.0000      -8.079395      -219.8515
  18   2.0000      -6.046359      -164.5298
  19   2.0000      -6.042388      -164.4217
  20   2.0000      -6.038411      -164.3135
  21   2.0000      -6.037719      -164.2947
  22   2.0000      -6.033890      -164.1905
  23   2.0000      -6.030170      -164.0893
  24   2.0000      -1.012010       -27.5382
  25   2.0000      -0.986336       -26.8396
  26   2.0000      -0.920468       -25.0472
  27   2.0000      -0.910444       -24.7744
  28   2.0000      -0.872912       -23.7531
  29   2.0000      -0.851170       -23.1615
  30   2.0000      -0.843877       -22.9631
  31   2.0000      -0.812481       -22.1087
  32   2.0000      -0.786538       -21.4028
  33   2.0000      -0.770287       -20.9606
  34   2.0000      -0.709399       -19.3037
  35   2.0000      -0.707969       -19.2648
  36   2.0000      -0.688656       -18.7393
  37   2.0000      -0.659940       -17.9579
  38   2.0000      -0.631119       -17.1736
  39   2.0000      -0.619413       -16.8551
  40   2.0000      -0.599844       -16.3226
  41   2.0000      -0.573163       -15.5966
  42   2.0000      -0.567338       -15.4381
  43   2.0000      -0.556740       -15.1497
  44   2.0000      -0.527674       -14.3587
  45   2.0000      -0.521448       -14.1893
  46   2.0000      -0.512920       -13.9573
  47   2.0000      -0.509519       -13.8647
  48   2.0000      -0.500204       -13.6113
  49   2.0000      -0.497719       -13.5436
  50   2.0000      -0.492329       -13.3969
  51   2.0000      -0.487619       -13.2688
  52   2.0000      -0.476635       -12.9699
  53   2.0000      -0.463057       -12.6004
  54   2.0000      -0.458234       -12.4692
  55   2.0000      -0.452494       -12.3130
  56   2.0000      -0.449124       -12.2213
  57   2.0000      -0.434671       -11.8280
  58   2.0000      -0.432465       -11.7680
  59   2.0000      -0.428197       -11.6518
  60   2.0000      -0.415000       -11.2927
  61   2.0000      -0.412590       -11.2272
  62   2.0000      -0.403265       -10.9734
  63   2.0000      -0.339619        -9.2415
  64   2.0000      -0.331224        -9.0131
  65   2.0000      -0.327606        -8.9146
  66   2.0000      -0.299646        -8.1538
  67   0.0000       0.036620         0.9965
  68   0.0000       0.055625         1.5136
  69   0.0000       0.114202         3.1076
  70   0.0000       0.118292         3.2189
  71   0.0000       0.123363         3.3569

MULLIKEN ATOMIC CHARGES
-----------------------
   0 S :    0.138995
   1 C :   -0.097884
   2 C :   -0.170106
   3 C :    0.037980
   4 C :   -0.148429
   5 H :    0.036276
   6 C :    0.077578
   7 H :    0.024894
   8 H :    0.015573
   9 C :   -0.017200
  10 H :    0.022774
  11 H :    0.032673
  12 C :   -0.107738
  13 H :    0.038326
  14 H :    0.027183
  15 H :    0.046648
  16 S :    0.114856
  17 C :   -0.112815
  18 C :   -0.055169
  19 C :    0.005660
  20 C :   -0.203013
  21 H :    0.035786
  22 C :    0.118880
  23 H :    0.020753
  24 H :   -0.003781
  25 C :   -0.109788
  26 H :    0.014300
  27 H :    0.035170
  28 C :   -0.025960
  29 H :    0.024240
  30 H :    0.034011
  31 H :    0.028584
  32 H :    0.046668
  33 H :    0.074076
Sum of atomic charges:   -0.0000000

LOEWDIN ATOMIC CHARGES
----------------------
   0 S :    0.418291
   1 C :   -0.219962
   2 C :   -0.062637
   3 C :   -0.056811
   4 C :   -0.198996
   5 H :    0.041302
   6 C :   -0.036330
   7 H :    0.034889
   8 H :    0.028969
   9 C :   -0.041772
  10 H :    0.023805
  11 H :    0.029690
  12 C :   -0.088077
  13 H :    0.029487
  14 H :    0.027753
  15 H :    0.034357
  16 S :    0.418204
  17 C :   -0.193373
  18 C :   -0.078000
  19 C :   -0.045597
  20 C :   -0.210105
  21 H :    0.040246
  22 C :   -0.036491
  23 H :    0.032030
  24 H :    0.022513
  25 C :   -0.039259
  26 H :    0.014008
  27 H :    0.026898
  28 C :   -0.056421
  29 H :    0.015684
  30 H :    0.021016
  31 H :    0.030169
  32 H :    0.036246
  33 H :    0.038273

  Mayer bond orders larger than 0.100000
B(  0-S ,  1-C ) :   1.1226 B(  0-S ,  4-C ) :   1.1479 B(  1-C ,  2-C ) :   1.6268
B(  1-C , 32-H ) :   0.9546 B(  2-C ,  3-C ) :   1.2406 B(  2-C ,  6-C ) :   1.0276
B(  3-C ,  4-C ) :   1.5642 B(  3-C ,  5-H ) :   0.9858 B(  4-C , 20-C ) :   1.0526
B(  6-C ,  7-H ) :   0.9354 B(  6-C ,  8-H ) :   0.9434 B(  6-C ,  9-C ) :   1.0449
B(  9-C , 10-H ) :   0.9502 B(  9-C , 11-H ) :   0.9600 B(  9-C , 12-C ) :   1.0667
B( 12-C , 13-H ) :   0.9774 B( 12-C , 14-H ) :   0.9748 B( 12-C , 15-H ) :   0.9752
B( 16-S , 17-C ) :   1.1635 B( 16-S , 20-C ) :   1.1530 B( 17-C , 18-C ) :   1.6066
B( 17-C , 20-C ) :   0.1051 B( 17-C , 33-H ) :   0.9621 B( 18-C , 19-C ) :   1.2509
B( 18-C , 21-H ) :   0.9838 B( 19-C , 20-C ) :   1.5869 B( 19-C , 22-C ) :   1.0221
B( 22-C , 23-H ) :   0.9378 B( 22-C , 24-H ) :   0.9224 B( 22-C , 25-C ) :   1.0725
B( 25-C , 26-H ) :   0.9521 B( 25-C , 27-H ) :   0.9580 B( 25-C , 28-C ) :   1.0653
B( 28-C , 29-H ) :   0.9770 B( 28-C , 30-H ) :   0.9792 B( 28-C , 31-H ) :   0.9765

Dispersion correction           -0.014670770
FINAL SINGLE POINT ENERGY     -1339.850605159795

DIPOLE MOMENT
-------------
                                X             Y             Z
Electronic contribution:     -7.09092     -10.04395      28.27419
Nuclear contribution   :      7.24510      10.46804     -28.71547
                        -----------------------------------------
Total Dipole Moment    :      0.15418       0.42409      -0.44128
                        -----------------------------------------
Magnitude (a.u.)       :      0.63115
Magnitude (Debye)      :      1.60425

Rotational constants in cm-1:     0.018606     0.008792     0.007167
Rotational constants in MHz :   557.779406   263.577530   214.867247

                             ****ORCA TERMINATED NORMALLY****
TOTAL RUN TIME: 0 days 0 hours 0 minutes 30 seconds 539 msec
