                         Program Version 4.2.1 -  RELEASE  -
|  1> ! wB97X-D3 SP def2-SVP
|  2> %pal
|  3> nprocs 16
|  4> end
|  5>
|  6> * xyz 0 1
|  7> S 	 -34.8729 	 58.228 	 103.132
|  8> C 	 -35.823 	 57.3124 	 102.005
|  9> C 	 -35.118 	 56.1999 	 101.543
| 10> C 	 -33.8103 	 56.1276 	 102.154
| 11> C 	 -33.6015 	 57.1122 	 103.056
| 12> H 	 -33.0999 	 55.3044 	 102.029
| 13> C 	 -35.6238 	 55.1902 	 100.514
| 14> H 	 -36.3014 	 55.8202 	 99.8342
| 15> H 	 -36.2832 	 54.3201 	 100.78
| 16> C 	 -34.4735 	 54.5479 	 99.711
| 17> H 	 -33.8175 	 54.0587 	 100.315
| 18> H 	 -34.9077 	 53.6864 	 99.1995
| 19> C 	 -33.9559 	 55.4338 	 98.6011
| 20> H 	 -34.7605 	 55.5121 	 97.9072
| 21> H 	 -33.6695 	 56.4433 	 98.8699
| 22> H 	 -33.0649 	 55.1116 	 98.1813
| 23> S 	 -32.7309 	 57.3157 	 105.61
| 24> C 	 -31.0726 	 57.6779 	 106.046
| 25> C 	 -30.3526 	 57.444 	 104.885
| 26> C 	 -31.0721 	 57.0949 	 103.655
| 27> C 	 -32.415 	 57.32 	 103.893
| 28> H 	 -29.241 	 57.5051 	 104.942
| 29> C 	 -30.3737 	 56.7475 	 102.345
| 30> H 	 -31.0996 	 56.4735 	 101.534
| 31> H 	 -29.723 	 55.8447 	 102.53
| 32> C 	 -29.4515 	 57.8127 	 101.796
| 33> H 	 -28.6204 	 57.993 	 102.455
| 34> H 	 -30.0602 	 58.6816 	 101.591
| 35> C 	 -28.8021 	 57.3794 	 100.507
| 36> H 	 -28.1476 	 56.548 	 100.8
| 37> H 	 -28.1666 	 58.209 	 100.099
| 38> H 	 -29.4647 	 57.1835 	 99.6852
| 39> H 	 -36.7916 	 57.5165 	 101.648
| 40> H 	 -30.6507 	 57.8826 	 107.019
| 41> *
| 42>
| 43>                          ****END OF INPUT****

CARTESIAN COORDINATES (ANGSTROEM)
---------------------------------
  S    -34.872900   58.228000  103.132000
  C    -35.823000   57.312400  102.005000
  C    -35.118000   56.199900  101.543000
  C    -33.810300   56.127600  102.154000
  C    -33.601500   57.112200  103.056000
  H    -33.099900   55.304400  102.029000
  C    -35.623800   55.190200  100.514000
  H    -36.301400   55.820200   99.834200
  H    -36.283200   54.320100  100.780000
  C    -34.473500   54.547900   99.711000
  H    -33.817500   54.058700  100.315000
  H    -34.907700   53.686400   99.199500
  C    -33.955900   55.433800   98.601100
  H    -34.760500   55.512100   97.907200
  H    -33.669500   56.443300   98.869900
  H    -33.064900   55.111600   98.181300
  S    -32.730900   57.315700  105.610000
  C    -31.072600   57.677900  106.046000
  C    -30.352600   57.444000  104.885000
  C    -31.072100   57.094900  103.655000
  C    -32.415000   57.320000  103.893000
  H    -29.241000   57.505100  104.942000
  C    -30.373700   56.747500  102.345000
  H    -31.099600   56.473500  101.534000
  H    -29.723000   55.844700  102.530000
  C    -29.451500   57.812700  101.796000
  H    -28.620400   57.993000  102.455000
  H    -30.060200   58.681600  101.591000
  C    -28.802100   57.379400  100.507000
  H    -28.147600   56.548000  100.800000
  H    -28.166600   58.209000  100.099000
  H    -29.464700   57.183500   99.685200
  H    -36.791600   57.516500  101.648000
  H    -30.650700   57.882600  107.019000

 Total Charge           Charge          ....    0
 Multiplicity           Mult            ....    1
 Number of Electrons    NEL             ....  134
 Basis Dimension        Dim             ....  322

ORBITAL ENERGIES
----------------

  NO   OCC          E(Eh)            E(eV)
   0   2.0000     -88.967177     -2420.9200
   1   2.0000     -88.958860     -2420.6937
   2   2.0000     -10.326283      -280.9924
   3   2.0000     -10.321716      -280.8682
   4   2.0000     -10.317366      -280.7498
   5   2.0000     -10.309718      -280.5417
   6   2.0000     -10.308454      -280.5073
   7   2.0000     -10.304065      -280.3879
   8   2.0000     -10.302329      -280.3406
   9   2.0000     -10.300312      -280.2857
  10   2.0000     -10.299068      -280.2519
  11   2.0000     -10.291523      -280.0466
  12   2.0000     -10.280081      -279.7352
  13   2.0000     -10.279161      -279.7102
  14   2.0000     -10.278168      -279.6832
  15   2.0000     -10.267237      -279.3857
  16   2.0000      -8.082992      -219.9494
  17   2.0000      -8.073872      -219.7012
  18   2.0000      -6.041404      -164.3950
  19   2.0000      -6.037184      -164.2801
  20   2.0000      -6.033947      -164.1920
  21   2.0000      -6.032577      -164.1548
  22   2.0000      -6.028408      -164.0413
  23   2.0000      -6.024297      -163.9295
  24   2.0000      -1.013557       -27.5803
  25   2.0000      -0.986211       -26.8362
  26   2.0000      -0.916658       -24.9435
  27   2.0000      -0.914689       -24.8900
  28   2.0000      -0.871114       -23.7042
  29   2.0000      -0.852754       -23.2046
  30   2.0000      -0.842974       -22.9385
  31   2.0000      -0.815111       -22.1803
  32   2.0000      -0.782676       -21.2977
  33   2.0000      -0.774722       -21.0813
  34   2.0000      -0.714891       -19.4532
  35   2.0000      -0.694969       -18.9111
  36   2.0000      -0.692916       -18.8552
  37   2.0000      -0.653980       -17.7957
  38   2.0000      -0.641453       -17.4548
  39   2.0000      -0.625677       -17.0255
  40   2.0000      -0.597966       -16.2715
  41   2.0000      -0.583148       -15.8683
  42   2.0000      -0.568544       -15.4709
  43   2.0000      -0.557539       -15.1714
  44   2.0000      -0.536345       -14.5947
  45   2.0000      -0.525567       -14.3014
  46   2.0000      -0.518133       -14.0991
  47   2.0000      -0.514290       -13.9945
  48   2.0000      -0.501004       -13.6330
  49   2.0000      -0.496099       -13.4995
  50   2.0000      -0.491807       -13.3828
  51   2.0000      -0.488027       -13.2799
  52   2.0000      -0.470784       -12.8107
  53   2.0000      -0.465860       -12.6767
  54   2.0000      -0.462329       -12.5806
  55   2.0000      -0.445545       -12.1239
  56   2.0000      -0.441755       -12.0208
  57   2.0000      -0.435227       -11.8431
  58   2.0000      -0.432632       -11.7725
  59   2.0000      -0.425972       -11.5913
  60   2.0000      -0.425413       -11.5761
  61   2.0000      -0.412372       -11.2212
  62   2.0000      -0.409819       -11.1517
  63   2.0000      -0.347340        -9.4516
  64   2.0000      -0.331086        -9.0093
  65   2.0000      -0.319539        -8.6951
  66   2.0000      -0.296956        -8.0806
  67   0.0000       0.031401         0.8545
  68   0.0000       0.075003         2.0409
  69   0.0000       0.103457         2.8152
  70   0.0000       0.123233         3.3533
  71   0.0000       0.132457         3.6043

MULLIKEN ATOMIC CHARGES
-----------------------
   0 S :    0.135651
   1 C :   -0.093292
   2 C :   -0.080106
   3 C :    0.010890
   4 C :   -0.150482
   5 H :    0.023266
   6 C :    0.008786
   7 H :    0.026315
   8 H :    0.055148
   9 C :   -0.056073
  10 H :    0.004330
  11 H :    0.013281
  12 C :    0.008613
  13 H :    0.023494
  14 H :    0.021708
  15 H :    0.012274
  16 S :    0.087859
  17 C :   -0.074896
  18 C :   -0.069494
  19 C :    0.006320
  20 C :   -0.149310
  21 H :    0.025541
  22 C :    0.025503
  23 H :    0.028076
  24 H :    0.032556
  25 C :   -0.058620
  26 H :    0.028030
  27 H :    0.033139
  28 C :   -0.057732
  29 H :    0.029947
  30 H :    0.036970
  31 H :    0.030068
  32 H :    0.022866
  33 H :    0.059373
Sum of atomic charges:   -0.0000000

LOEWDIN ATOMIC CHARGES
----------------------
   0 S :    0.446290
   1 C :   -0.198485
   2 C :   -0.059729
   3 C :   -0.068876
   4 C :   -0.216429
   5 H :    0.033569
   6 C :   -0.037801
   7 H :    0.035475
   8 H :    0.039115
   9 C :   -0.038521
  10 H :    0.007273
  11 H :    0.028478
  12 C :   -0.055247
  13 H :    0.025246
  14 H :    0.024244
  15 H :    0.017121
  16 S :    0.398850
  17 C :   -0.191495
  18 C :   -0.072745
  19 C :   -0.057657
  20 C :   -0.194467
  21 H :    0.029159
  22 C :   -0.038298
  23 H :    0.034193
  24 H :    0.037131
  25 C :   -0.040290
  26 H :    0.022998
  27 H :    0.025038
  28 C :   -0.066226
  29 H :    0.025874
  30 H :    0.032387
  31 H :    0.019700
  32 H :    0.019253
  33 H :    0.034872

  Mayer bond orders larger than 0.100000
B(  0-S ,  1-C ) :   1.1437 B(  0-S ,  4-C ) :   1.1740 B(  1-C ,  2-C ) :   1.6137
B(  1-C , 32-H ) :   0.9756 B(  2-C ,  3-C ) :   1.2444 B(  2-C ,  6-C ) :   1.0000
B(  3-C ,  4-C ) :   1.5852 B(  3-C ,  5-H ) :   0.9867 B(  4-C , 20-C ) :   0.9915
B(  6-C ,  7-H ) :   0.9467 B(  6-C ,  8-H ) :   0.9445 B(  6-C ,  9-C ) :   1.0837
B(  9-C , 10-H ) :   0.9506 B(  9-C , 11-H ) :   0.9504 B(  9-C , 12-C ) :   1.0711
B( 12-C , 13-H ) :   0.9738 B( 12-C , 14-H ) :   0.9765 B( 12-C , 15-H ) :   0.9717
B( 16-S , 17-C ) :   1.1234 B( 16-S , 20-C ) :   1.1636 B( 17-C , 18-C ) :   1.6237
B( 17-C , 33-H ) :   0.9756 B( 18-C , 19-C ) :   1.2030 B( 18-C , 21-H ) :   0.9787
B( 19-C , 20-C ) :   1.5944 B( 19-C , 22-C ) :   1.0500 B( 22-C , 23-H ) :   0.9382
B( 22-C , 24-H ) :   0.9249 B( 22-C , 25-C ) :   1.0813 B( 25-C , 26-H ) :   0.9499
B( 25-C , 27-H ) :   0.9520 B( 25-C , 28-C ) :   1.0932 B( 28-C , 29-H ) :   0.9737
B( 28-C , 30-H ) :   0.9722 B( 28-C , 31-H ) :   0.9738

Dispersion correction           -0.014035410
FINAL SINGLE POINT ENERGY     -1339.861119836416

DIPOLE MOMENT
-------------
                                X             Y             Z
Electronic contribution:    -12.29821       9.63617      26.43461
Nuclear contribution   :     12.65496     -10.02107     -26.97511
                        -----------------------------------------
Total Dipole Moment    :      0.35675      -0.38490      -0.54050
                        -----------------------------------------
Magnitude (a.u.)       :      0.75336
Magnitude (Debye)      :      1.91489

Rotational constants in cm-1:     0.016228     0.010193     0.006993
Rotational constants in MHz :   486.510649   305.579722   209.646885

                             ****ORCA TERMINATED NORMALLY****
TOTAL RUN TIME: 0 days 0 hours 0 minutes 28 seconds 887 msec
