                         Program Version 4.2.1 -  RELEASE  -
|  1> ! wB97X-D3 SP def2-SVP
|  2> %pal
|  3> nprocs 16
|  4> end
|  5>
|  6> * xyz 0 1
|  7> S 	 6.69273 	 -13.1881 	 63.7317
|  8> C 	 8.36713 	 -13.2097 	 63.9088
|  9> C 	 8.80325 	 -12.6867 	 65.1171
| 10> C 	 7.67858 	 -12.1784 	 65.9132
| 11> C 	 6.45549 	 -12.573 	 65.4094
| 12> H 	 7.78362 	 -11.6628 	 66.8309
| 13> C 	 10.2269 	 -12.4813 	 65.4772
| 14> H 	 10.4484 	 -11.7172 	 66.1668
| 15> H 	 10.5041 	 -12.1482 	 64.4935
| 16> C 	 10.9119 	 -13.7168 	 65.9239
| 17> H 	 11.022 	 -14.3501 	 65.0391
| 18> H 	 11.9454 	 -13.4837 	 66.1239
| 19> C 	 10.3557 	 -14.4682 	 67.0774
| 20> H 	 10.3072 	 -13.9488 	 68.0629
| 21> H 	 9.33788 	 -14.6856 	 66.7805
| 22> H 	 10.8324 	 -15.4666 	 67.2387
| 23> S 	 4.4005 	 -10.8086 	 65.3359
| 24> C 	 3.38029 	 -10.744 	 66.7786
| 25> C 	 3.5135 	 -11.8561 	 67.4953
| 26> C 	 4.54635 	 -12.8002 	 67.093
| 27> C 	 5.12848 	 -12.3038 	 65.9651
| 28> H 	 2.79989 	 -12.0108 	 68.3231
| 29> C 	 4.82283 	 -14.1531 	 67.771
| 30> H 	 4.35737 	 -14.1146 	 68.7676
| 31> H 	 5.87999 	 -14.4063 	 67.8006
| 32> C 	 4.18551 	 -15.3425 	 67.0375
| 33> H 	 3.29515 	 -15.0037 	 66.5424
| 34> H 	 3.87097 	 -16.0787 	 67.7859
| 35> C 	 5.07591 	 -15.9192 	 65.8755
| 36> H 	 5.2816 	 -15.0781 	 65.2115
| 37> H 	 4.42069 	 -16.6545 	 65.2983
| 38> H 	 6.03881 	 -16.5014 	 66.1833
| 39> H 	 9.136 	 -13.467 	 63.228
| 40> H 	 2.59759 	 -10.0024 	 66.912
| 41> *
| 42>
| 43>                          ****END OF INPUT****

CARTESIAN COORDINATES (ANGSTROEM)
---------------------------------
  S      6.692730  -13.188100   63.731700
  C      8.367130  -13.209700   63.908800
  C      8.803250  -12.686700   65.117100
  C      7.678580  -12.178400   65.913200
  C      6.455490  -12.573000   65.409400
  H      7.783620  -11.662800   66.830900
  C     10.226900  -12.481300   65.477200
  H     10.448400  -11.717200   66.166800
  H     10.504100  -12.148200   64.493500
  C     10.911900  -13.716800   65.923900
  H     11.022000  -14.350100   65.039100
  H     11.945400  -13.483700   66.123900
  C     10.355700  -14.468200   67.077400
  H     10.307200  -13.948800   68.062900
  H      9.337880  -14.685600   66.780500
  H     10.832400  -15.466600   67.238700
  S      4.400500  -10.808600   65.335900
  C      3.380290  -10.744000   66.778600
  C      3.513500  -11.856100   67.495300
  C      4.546350  -12.800200   67.093000
  C      5.128480  -12.303800   65.965100
  H      2.799890  -12.010800   68.323100
  C      4.822830  -14.153100   67.771000
  H      4.357370  -14.114600   68.767600
  H      5.879990  -14.406300   67.800600
  C      4.185510  -15.342500   67.037500
  H      3.295150  -15.003700   66.542400
  H      3.870970  -16.078700   67.785900
  C      5.075910  -15.919200   65.875500
  H      5.281600  -15.078100   65.211500
  H      4.420690  -16.654500   65.298300
  H      6.038810  -16.501400   66.183300
  H      9.136000  -13.467000   63.228000
  H      2.597590  -10.002400   66.912000

 Total Charge           Charge          ....    0
 Multiplicity           Mult            ....    1
 Number of Electrons    NEL             ....  134
 Basis Dimension        Dim             ....  322

ORBITAL ENERGIES
----------------

  NO   OCC          E(Eh)            E(eV)
   0   2.0000     -88.965625     -2420.8777
   1   2.0000     -88.960376     -2420.7349
   2   2.0000     -10.329967      -281.0927
   3   2.0000     -10.325166      -280.9620
   4   2.0000     -10.315656      -280.7033
   5   2.0000     -10.308999      -280.5221
   6   2.0000     -10.306180      -280.4454
   7   2.0000     -10.297642      -280.2131
   8   2.0000     -10.295548      -280.1561
   9   2.0000     -10.294391      -280.1246
  10   2.0000     -10.294041      -280.1151
  11   2.0000     -10.284874      -279.8656
  12   2.0000     -10.283986      -279.8415
  13   2.0000     -10.279925      -279.7310
  14   2.0000     -10.277342      -279.6607
  15   2.0000     -10.276448      -279.6364
  16   2.0000      -8.080090      -219.8704
  17   2.0000      -8.075163      -219.7364
  18   2.0000      -6.038603      -164.3187
  19   2.0000      -6.034647      -164.2111
  20   2.0000      -6.033783      -164.1876
  21   2.0000      -6.030835      -164.1074
  22   2.0000      -6.029835      -164.0802
  23   2.0000      -6.025591      -163.9647
  24   2.0000      -1.005660       -27.3654
  25   2.0000      -0.985458       -26.8157
  26   2.0000      -0.924485       -25.1565
  27   2.0000      -0.905126       -24.6297
  28   2.0000      -0.872390       -23.7389
  29   2.0000      -0.848593       -23.0914
  30   2.0000      -0.840045       -22.8588
  31   2.0000      -0.818772       -22.2799
  32   2.0000      -0.782938       -21.3048
  33   2.0000      -0.771372       -20.9901
  34   2.0000      -0.704455       -19.1692
  35   2.0000      -0.700401       -19.0589
  36   2.0000      -0.687883       -18.7182
  37   2.0000      -0.657955       -17.9039
  38   2.0000      -0.641536       -17.4571
  39   2.0000      -0.610821       -16.6213
  40   2.0000      -0.599268       -16.3069
  41   2.0000      -0.584494       -15.9049
  42   2.0000      -0.560848       -15.2615
  43   2.0000      -0.553762       -15.0686
  44   2.0000      -0.544739       -14.8231
  45   2.0000      -0.528712       -14.3870
  46   2.0000      -0.512569       -13.9477
  47   2.0000      -0.508863       -13.8469
  48   2.0000      -0.499580       -13.5943
  49   2.0000      -0.494721       -13.4620
  50   2.0000      -0.488178       -13.2840
  51   2.0000      -0.484142       -13.1742
  52   2.0000      -0.477145       -12.9838
  53   2.0000      -0.463397       -12.6097
  54   2.0000      -0.459414       -12.5013
  55   2.0000      -0.445191       -12.1143
  56   2.0000      -0.437606       -11.9079
  57   2.0000      -0.434400       -11.8206
  58   2.0000      -0.425712       -11.5842
  59   2.0000      -0.423309       -11.5188
  60   2.0000      -0.417448       -11.3593
  61   2.0000      -0.414407       -11.2766
  62   2.0000      -0.406455       -11.0602
  63   2.0000      -0.342643        -9.3238
  64   2.0000      -0.326406        -8.8820
  65   2.0000      -0.322650        -8.7798
  66   2.0000      -0.302901        -8.2423
  67   0.0000       0.041283         1.1234
  68   0.0000       0.055389         1.5072
  69   0.0000       0.111939         3.0460
  70   0.0000       0.115241         3.1359
  71   0.0000       0.126529         3.4430

MULLIKEN ATOMIC CHARGES
-----------------------
   0 S :    0.112673
   1 C :   -0.069782
   2 C :   -0.174510
   3 C :    0.082549
   4 C :   -0.175806
   5 H :    0.003752
   6 C :    0.107640
   7 H :    0.011072
   8 H :    0.022659
   9 C :   -0.051165
  10 H :    0.012414
  11 H :    0.014594
  12 C :   -0.054972
  13 H :    0.036358
  14 H :    0.032012
  15 H :    0.040270
  16 S :    0.094804
  17 C :   -0.087550
  18 C :   -0.039899
  19 C :   -0.025903
  20 C :   -0.181186
  21 H :    0.023859
  22 C :    0.099194
  23 H :    0.022366
  24 H :    0.037361
  25 C :   -0.068235
  26 H :    0.024591
  27 H :    0.031957
  28 C :   -0.094372
  29 H :    0.035426
  30 H :    0.039986
  31 H :    0.054530
  32 H :    0.025527
  33 H :    0.057783
Sum of atomic charges:    0.0000000

LOEWDIN ATOMIC CHARGES
----------------------
   0 S :    0.415303
   1 C :   -0.218067
   2 C :   -0.060980
   3 C :   -0.043392
   4 C :   -0.186245
   5 H :    0.026741
   6 C :   -0.032522
   7 H :    0.024583
   8 H :    0.037653
   9 C :   -0.046679
  10 H :    0.024115
  11 H :    0.019622
  12 C :   -0.070409
  13 H :    0.028175
  14 H :    0.024596
  15 H :    0.034050
  16 S :    0.375701
  17 C :   -0.172584
  18 C :   -0.076006
  19 C :   -0.045521
  20 C :   -0.194672
  21 H :    0.034167
  22 C :   -0.027269
  23 H :    0.033498
  24 H :    0.034617
  25 C :   -0.039946
  26 H :    0.022419
  27 H :    0.023426
  28 C :   -0.079067
  29 H :    0.013941
  30 H :    0.031688
  31 H :    0.033496
  32 H :    0.023504
  33 H :    0.032064

  Mayer bond orders larger than 0.100000
B(  0-S ,  1-C ) :   1.1473 B(  0-S ,  4-C ) :   1.1295 B(  1-C ,  2-C ) :   1.6270
B(  1-C , 32-H ) :   0.9604 B(  2-C ,  3-C ) :   1.2143 B(  2-C ,  6-C ) :   0.9967
B(  3-C ,  4-C ) :   1.6029 B(  3-C ,  5-H ) :   1.0021 B(  4-C , 20-C ) :   0.9920
B(  6-C ,  7-H ) :   0.9455 B(  6-C ,  8-H ) :   0.9380 B(  6-C ,  9-C ) :   1.0850
B(  9-C , 10-H ) :   0.9485 B(  9-C , 11-H ) :   0.9491 B(  9-C , 12-C ) :   1.0837
B( 12-C , 13-H ) :   0.9723 B( 12-C , 14-H ) :   0.9684 B( 12-C , 15-H ) :   0.9690
B( 16-S , 17-C ) :   1.1213 B( 16-S , 20-C ) :   1.1317 B( 17-C , 18-C ) :   1.6826
B( 17-C , 33-H ) :   0.9641 B( 18-C , 19-C ) :   1.1873 B( 18-C , 21-H ) :   0.9787
B( 19-C , 20-C ) :   1.6516 B( 19-C , 22-C ) :   1.0517 B( 22-C , 23-H ) :   0.9286
B( 22-C , 24-H ) :   0.9355 B( 22-C , 25-C ) :   1.0607 B( 25-C , 26-H ) :   0.9552
B( 25-C , 27-H ) :   0.9578 B( 25-C , 28-C ) :   1.0726 B( 28-C , 29-H ) :   0.9666
B( 28-C , 30-H ) :   0.9732 B( 28-C , 31-H ) :   0.9740

Dispersion correction           -0.015677424
FINAL SINGLE POINT ENERGY     -1339.861795780513

DIPOLE MOMENT
-------------
                                X             Y             Z
Electronic contribution:    -13.19153      16.93128     -11.25700
Nuclear contribution   :     13.37736     -17.01668      11.75838
                        -----------------------------------------
Total Dipole Moment    :      0.18583      -0.08541       0.50137
                        -----------------------------------------
Magnitude (a.u.)       :      0.54148
Magnitude (Debye)      :      1.37634

Rotational constants in cm-1:     0.019889     0.009222     0.008078
Rotational constants in MHz :   596.250072   276.457644   242.173498

                             ****ORCA TERMINATED NORMALLY****
TOTAL RUN TIME: 0 days 0 hours 0 minutes 36 seconds 445 msec
