                         Program Version 4.2.1 -  RELEASE  -
|  1> ! wB97X-D3 SP def2-SVP
|  2> %pal
|  3> nprocs 16
|  4> end
|  5>
|  6> * xyz 0 1
|  7> S 	 -32.536 	 72.2651 	 167.225
|  8> C 	 -31.9871 	 71.5034 	 165.733
|  9> C 	 -33.0956 	 70.8673 	 165.112
| 10> C 	 -34.2929 	 71.2738 	 165.768
| 11> C 	 -34.2345 	 72.0772 	 166.864
| 12> H 	 -35.2978 	 71.0946 	 165.469
| 13> C 	 -33.1173 	 69.9528 	 163.938
| 14> H 	 -33.7561 	 70.6052 	 163.324
| 15> H 	 -33.6391 	 69.0423 	 164.202
| 16> C 	 -31.7482 	 69.7234 	 163.211
| 17> H 	 -31.3709 	 70.7521 	 163.074
| 18> H 	 -31.0034 	 69.3083 	 163.899
| 19> C 	 -32.0098 	 68.949 	 161.867
| 20> H 	 -32.6531 	 68.0688 	 162.064
| 21> H 	 -32.5475 	 69.6041 	 161.121
| 22> H 	 -31.1042 	 68.5068 	 161.458
| 23> S 	 -34.8269 	 74.102 	 168.543
| 24> C 	 -36.4159 	 74.3422 	 169.154
| 25> C 	 -37.1894 	 73.2113 	 168.901
| 26> C 	 -36.5713 	 72.3351 	 167.937
| 27> C 	 -35.2768 	 72.7149 	 167.645
| 28> H 	 -38.2373 	 73.1779 	 169.31
| 29> C 	 -37.2435 	 71.0127 	 167.425
| 30> H 	 -36.6546 	 70.0895 	 167.443
| 31> H 	 -37.4294 	 71.2322 	 166.38
| 32> C 	 -38.5884 	 70.6523 	 168.159
| 33> H 	 -39.1661 	 69.7987 	 167.728
| 34> H 	 -39.2821 	 71.4394 	 168.007
| 35> C 	 -38.3537 	 70.2801 	 169.65
| 36> H 	 -39.3073 	 70.5255 	 170.243
| 37> H 	 -37.6759 	 70.9871 	 170.024
| 38> H 	 -37.9246 	 69.2853 	 169.792
| 39> H 	 -30.9282 	 71.2618 	 165.655
| 40> H 	 -36.7343 	 75.0724 	 169.931
| 41> *
| 42>
| 43>                          ****END OF INPUT****

CARTESIAN COORDINATES (ANGSTROEM)
---------------------------------
  S    -32.536000   72.265100  167.225000
  C    -31.987100   71.503400  165.733000
  C    -33.095600   70.867300  165.112000
  C    -34.292900   71.273800  165.768000
  C    -34.234500   72.077200  166.864000
  H    -35.297800   71.094600  165.469000
  C    -33.117300   69.952800  163.938000
  H    -33.756100   70.605200  163.324000
  H    -33.639100   69.042300  164.202000
  C    -31.748200   69.723400  163.211000
  H    -31.370900   70.752100  163.074000
  H    -31.003400   69.308300  163.899000
  C    -32.009800   68.949000  161.867000
  H    -32.653100   68.068800  162.064000
  H    -32.547500   69.604100  161.121000
  H    -31.104200   68.506800  161.458000
  S    -34.826900   74.102000  168.543000
  C    -36.415900   74.342200  169.154000
  C    -37.189400   73.211300  168.901000
  C    -36.571300   72.335100  167.937000
  C    -35.276800   72.714900  167.645000
  H    -38.237300   73.177900  169.310000
  C    -37.243500   71.012700  167.425000
  H    -36.654600   70.089500  167.443000
  H    -37.429400   71.232200  166.380000
  C    -38.588400   70.652300  168.159000
  H    -39.166100   69.798700  167.728000
  H    -39.282100   71.439400  168.007000
  C    -38.353700   70.280100  169.650000
  H    -39.307300   70.525500  170.243000
  H    -37.675900   70.987100  170.024000
  H    -37.924600   69.285300  169.792000
  H    -30.928200   71.261800  165.655000
  H    -36.734300   75.072400  169.931000

 Total Charge           Charge          ....    0
 Multiplicity           Mult            ....    1
 Number of Electrons    NEL             ....  134
 Basis Dimension        Dim             ....  322

ORBITAL ENERGIES
----------------

  NO   OCC          E(Eh)            E(eV)
   0   2.0000     -88.968170     -2420.9470
   1   2.0000     -88.958714     -2420.6897
   2   2.0000     -10.328237      -281.0456
   3   2.0000     -10.327530      -281.0264
   4   2.0000     -10.320099      -280.8242
   5   2.0000     -10.316845      -280.7356
   6   2.0000     -10.312189      -280.6089
   7   2.0000     -10.308099      -280.4976
   8   2.0000     -10.303317      -280.3675
   9   2.0000     -10.300912      -280.3021
  10   2.0000     -10.297200      -280.2010
  11   2.0000     -10.295170      -280.1458
  12   2.0000     -10.291117      -280.0355
  13   2.0000     -10.290169      -280.0097
  14   2.0000     -10.285748      -279.8894
  15   2.0000     -10.279073      -279.7078
  16   2.0000      -8.083966      -219.9759
  17   2.0000      -8.073632      -219.6947
  18   2.0000      -6.042389      -164.4218
  19   2.0000      -6.038287      -164.3101
  20   2.0000      -6.034758      -164.2141
  21   2.0000      -6.032222      -164.1451
  22   2.0000      -6.028130      -164.0338
  23   2.0000      -6.024275      -163.9289
  24   2.0000      -1.014953       -27.6183
  25   2.0000      -0.987790       -26.8791
  26   2.0000      -0.912318       -24.8254
  27   2.0000      -0.904590       -24.6152
  28   2.0000      -0.869886       -23.6708
  29   2.0000      -0.850670       -23.1479
  30   2.0000      -0.840895       -22.8819
  31   2.0000      -0.816457       -22.2169
  32   2.0000      -0.783434       -21.3183
  33   2.0000      -0.770413       -20.9640
  34   2.0000      -0.717079       -19.5127
  35   2.0000      -0.703916       -19.1545
  36   2.0000      -0.692466       -18.8430
  37   2.0000      -0.661229       -17.9930
  38   2.0000      -0.640591       -17.4314
  39   2.0000      -0.612790       -16.6749
  40   2.0000      -0.596711       -16.2373
  41   2.0000      -0.572732       -15.5848
  42   2.0000      -0.565356       -15.3841
  43   2.0000      -0.552606       -15.0372
  44   2.0000      -0.532921       -14.5015
  45   2.0000      -0.524030       -14.2596
  46   2.0000      -0.516958       -14.0671
  47   2.0000      -0.514924       -14.0118
  48   2.0000      -0.506715       -13.7884
  49   2.0000      -0.500791       -13.6272
  50   2.0000      -0.488268       -13.2864
  51   2.0000      -0.483149       -13.1471
  52   2.0000      -0.473282       -12.8786
  53   2.0000      -0.468079       -12.7371
  54   2.0000      -0.460943       -12.5429
  55   2.0000      -0.446322       -12.1450
  56   2.0000      -0.442628       -12.0445
  57   2.0000      -0.438373       -11.9287
  58   2.0000      -0.434149       -11.8138
  59   2.0000      -0.426110       -11.5950
  60   2.0000      -0.423067       -11.5122
  61   2.0000      -0.413251       -11.2451
  62   2.0000      -0.408374       -11.1124
  63   2.0000      -0.360782        -9.8174
  64   2.0000      -0.332887        -9.0583
  65   2.0000      -0.321961        -8.7610
  66   2.0000      -0.286983        -7.8092
  67   0.0000       0.021879         0.5954
  68   0.0000       0.078524         2.1368
  69   0.0000       0.104744         2.8502
  70   0.0000       0.127249         3.4626
  71   0.0000       0.138810         3.7772

MULLIKEN ATOMIC CHARGES
-----------------------
   0 S :    0.077916
   1 C :   -0.141194
   2 C :   -0.072286
   3 C :   -0.009289
   4 C :   -0.109680
   5 H :   -0.023524
   6 C :    0.028423
   7 H :    0.045102
   8 H :    0.044951
   9 C :   -0.089669
  10 H :    0.034235
  11 H :    0.037150
  12 C :   -0.045232
  13 H :    0.032864
  14 H :    0.050437
  15 H :    0.037930
  16 S :    0.119931
  17 C :   -0.093313
  18 C :   -0.083159
  19 C :   -0.060855
  20 C :   -0.123198
  21 H :    0.048630
  22 C :    0.038712
  23 H :    0.048584
  24 H :    0.048577
  25 C :   -0.089710
  26 H :    0.034103
  27 H :    0.018159
  28 C :   -0.053803
  29 H :    0.042260
  30 H :    0.021449
  31 H :    0.045811
  32 H :    0.065363
  33 H :    0.074324
Sum of atomic charges:    0.0000000

LOEWDIN ATOMIC CHARGES
----------------------
   0 S :    0.387152
   1 C :   -0.209519
   2 C :   -0.054916
   3 C :   -0.077649
   4 C :   -0.182726
   5 H :    0.021186
   6 C :   -0.035686
   7 H :    0.044407
   8 H :    0.032946
   9 C :   -0.043812
  10 H :    0.027866
  11 H :    0.023545
  12 C :   -0.067807
  13 H :    0.027995
  14 H :    0.035602
  15 H :    0.025840
  16 S :    0.443033
  17 C :   -0.207531
  18 C :   -0.081932
  19 C :   -0.056144
  20 C :   -0.208178
  21 H :    0.042837
  22 C :   -0.031830
  23 H :    0.033183
  24 H :    0.031546
  25 C :   -0.046535
  26 H :    0.030306
  27 H :    0.014289
  28 C :   -0.069052
  29 H :    0.038179
  30 H :    0.014626
  31 H :    0.029137
  32 H :    0.027904
  33 H :    0.041739

  Mayer bond orders larger than 0.100000
B(  0-S ,  1-C ) :   1.1332 B(  0-S ,  4-C ) :   1.1380 B(  1-C ,  2-C ) :   1.5701
B(  1-C , 32-H ) :   0.9653 B(  2-C ,  3-C ) :   1.2445 B(  2-C ,  6-C ) :   0.9990
B(  3-C ,  4-C ) :   1.5963 B(  3-C ,  5-H ) :   0.9978 B(  4-C , 20-C ) :   1.0707
B(  6-C ,  7-H ) :   0.9456 B(  6-C ,  8-H ) :   0.9388 B(  6-C ,  9-C ) :   1.0687
B(  9-C , 10-H ) :   0.9527 B(  9-C , 11-H ) :   0.9585 B(  9-C , 12-C ) :   1.0662
B( 12-C , 13-H ) :   0.9761 B( 12-C , 14-H ) :   0.9762 B( 12-C , 15-H ) :   0.9752
B( 16-S , 17-C ) :   1.1717 B( 16-S , 20-C ) :   1.1542 B( 17-C , 18-C ) :   1.5943
B( 17-C , 33-H ) :   0.9579 B( 18-C , 19-C ) :   1.2719 B( 18-C , 21-H ) :   0.9697
B( 19-C , 20-C ) :   1.5755 B( 19-C , 22-C ) :   1.0044 B( 22-C , 23-H ) :   0.9497
B( 22-C , 24-H ) :   0.9275 B( 22-C , 25-C ) :   1.0778 B( 25-C , 26-H ) :   0.9577
B( 25-C , 27-H ) :   0.9529 B( 25-C , 28-C ) :   1.0648 B( 28-C , 29-H ) :   0.9726
B( 28-C , 30-H ) :   0.9783 B( 28-C , 31-H ) :   0.9733

Dispersion correction           -0.013604190
FINAL SINGLE POINT ENERGY     -1339.862699906559

DIPOLE MOMENT
-------------
                                X             Y             Z
Electronic contribution:      9.31732      20.06409      12.95715
Nuclear contribution   :     -9.75918     -20.57963     -13.19338
                        -----------------------------------------
Total Dipole Moment    :     -0.44186      -0.51554      -0.23623
                        -----------------------------------------
Magnitude (a.u.)       :      0.71891
Magnitude (Debye)      :      1.82732

Rotational constants in cm-1:     0.022371     0.007146     0.005735
Rotational constants in MHz :   670.668141   214.218573   171.920194

                             ****ORCA TERMINATED NORMALLY****
TOTAL RUN TIME: 0 days 0 hours 0 minutes 31 seconds 458 msec
