                         Program Version 4.2.1 -  RELEASE  -
|  1> ! wB97X-D3 SP def2-SVP
|  2> %pal
|  3> nprocs 16
|  4> end
|  5>
|  6> * xyz 0 1
|  7> S 	 -46.4654 	 55.717 	 100.291
|  8> C 	 -47.7708 	 54.6952 	 100.614
|  9> C 	 -48.7469 	 54.9256 	 99.6899
| 10> C 	 -48.4127 	 55.9464 	 98.6991
| 11> C 	 -47.0737 	 56.3375 	 98.7512
| 12> H 	 -49.0932 	 56.2361 	 97.9518
| 13> C 	 -50.2197 	 54.4202 	 99.8877
| 14> H 	 -50.2319 	 54.3234 	 100.948
| 15> H 	 -50.4387 	 53.5283 	 99.4254
| 16> C 	 -51.3062 	 55.3955 	 99.3762
| 17> H 	 -51.0636 	 56.3445 	 99.7966
| 18> H 	 -51.2783 	 55.395 	 98.2461
| 19> C 	 -52.7596 	 54.9578 	 99.7396
| 20> H 	 -53.0137 	 54.0663 	 99.1456
| 21> H 	 -52.9823 	 54.6797 	 100.725
| 22> H 	 -53.4726 	 55.677 	 99.3177
| 23> S 	 -45.4214 	 58.5378 	 98.7499
| 24> C 	 -44.7742 	 59.2405 	 97.2955
| 25> C 	 -45.1089 	 58.4807 	 96.155
| 26> C 	 -45.9193 	 57.3405 	 96.5176
| 27> C 	 -46.2342 	 57.2221 	 97.8911
| 28> H 	 -44.9856 	 58.8725 	 95.0965
| 29> C 	 -46.5096 	 56.4486 	 95.4335
| 30> H 	 -46.723 	 57.0448 	 94.5349
| 31> H 	 -47.378 	 56.0843 	 95.9316
| 32> C 	 -45.7928 	 55.1731 	 94.9309
| 33> H 	 -44.8396 	 55.4535 	 94.4964
| 34> H 	 -46.2989 	 54.7275 	 94.0823
| 35> C 	 -45.5599 	 54.0836 	 95.9496
| 36> H 	 -46.2626 	 54.1228 	 96.8255
| 37> H 	 -44.5347 	 54.0898 	 96.3886
| 38> H 	 -45.7543 	 53.0826 	 95.5999
| 39> H 	 -48.084 	 54.3108 	 101.522
| 40> H 	 -44.1778 	 60.1417 	 97.2734
| 41> *
| 42>
| 43>                          ****END OF INPUT****

CARTESIAN COORDINATES (ANGSTROEM)
---------------------------------
  S    -46.465400   55.717000  100.291000
  C    -47.770800   54.695200  100.614000
  C    -48.746900   54.925600   99.689900
  C    -48.412700   55.946400   98.699100
  C    -47.073700   56.337500   98.751200
  H    -49.093200   56.236100   97.951800
  C    -50.219700   54.420200   99.887700
  H    -50.231900   54.323400  100.948000
  H    -50.438700   53.528300   99.425400
  C    -51.306200   55.395500   99.376200
  H    -51.063600   56.344500   99.796600
  H    -51.278300   55.395000   98.246100
  C    -52.759600   54.957800   99.739600
  H    -53.013700   54.066300   99.145600
  H    -52.982300   54.679700  100.725000
  H    -53.472600   55.677000   99.317700
  S    -45.421400   58.537800   98.749900
  C    -44.774200   59.240500   97.295500
  C    -45.108900   58.480700   96.155000
  C    -45.919300   57.340500   96.517600
  C    -46.234200   57.222100   97.891100
  H    -44.985600   58.872500   95.096500
  C    -46.509600   56.448600   95.433500
  H    -46.723000   57.044800   94.534900
  H    -47.378000   56.084300   95.931600
  C    -45.792800   55.173100   94.930900
  H    -44.839600   55.453500   94.496400
  H    -46.298900   54.727500   94.082300
  C    -45.559900   54.083600   95.949600
  H    -46.262600   54.122800   96.825500
  H    -44.534700   54.089800   96.388600
  H    -45.754300   53.082600   95.599900
  H    -48.084000   54.310800  101.522000
  H    -44.177800   60.141700   97.273400

 Total Charge           Charge          ....    0
 Multiplicity           Mult            ....    1
 Number of Electrons    NEL             ....  134
 Basis Dimension        Dim             ....  322

ORBITAL ENERGIES
----------------

  NO   OCC          E(Eh)            E(eV)
   0   2.0000     -88.968248     -2420.9491
   1   2.0000     -88.963285     -2420.8141
   2   2.0000     -10.341828      -281.4154
   3   2.0000     -10.337888      -281.3082
   4   2.0000     -10.325270      -280.9649
   5   2.0000     -10.313296      -280.6391
   6   2.0000     -10.305902      -280.4379
   7   2.0000     -10.304057      -280.3877
   8   2.0000     -10.301895      -280.3288
   9   2.0000     -10.297143      -280.1995
  10   2.0000     -10.293651      -280.1045
  11   2.0000     -10.288900      -279.9752
  12   2.0000     -10.286425      -279.9079
  13   2.0000     -10.280959      -279.7591
  14   2.0000     -10.279522      -279.7200
  15   2.0000     -10.270612      -279.4776
  16   2.0000      -8.082817      -219.9446
  17   2.0000      -8.078826      -219.8360
  18   2.0000      -6.041308      -164.3923
  19   2.0000      -6.037414      -164.2864
  20   2.0000      -6.037134      -164.2788
  21   2.0000      -6.033798      -164.1880
  22   2.0000      -6.033064      -164.1680
  23   2.0000      -6.029556      -164.0726
  24   2.0000      -1.006884       -27.3987
  25   2.0000      -0.985448       -26.8154
  26   2.0000      -0.908251       -24.7148
  27   2.0000      -0.905223       -24.6324
  28   2.0000      -0.871300       -23.7093
  29   2.0000      -0.848298       -23.0834
  30   2.0000      -0.841292       -22.8927
  31   2.0000      -0.819444       -22.2982
  32   2.0000      -0.781378       -21.2624
  33   2.0000      -0.772955       -21.0332
  34   2.0000      -0.714324       -19.4377
  35   2.0000      -0.696896       -18.9635
  36   2.0000      -0.690958       -18.8019
  37   2.0000      -0.659744       -17.9525
  38   2.0000      -0.643576       -17.5126
  39   2.0000      -0.621565       -16.9136
  40   2.0000      -0.590181       -16.0597
  41   2.0000      -0.582607       -15.8535
  42   2.0000      -0.563850       -15.3431
  43   2.0000      -0.549643       -14.9565
  44   2.0000      -0.542441       -14.7606
  45   2.0000      -0.523980       -14.2582
  46   2.0000      -0.520411       -14.1611
  47   2.0000      -0.509156       -13.8548
  48   2.0000      -0.503462       -13.6999
  49   2.0000      -0.499022       -13.5791
  50   2.0000      -0.491865       -13.3843
  51   2.0000      -0.483314       -13.1516
  52   2.0000      -0.472747       -12.8641
  53   2.0000      -0.463233       -12.6052
  54   2.0000      -0.457500       -12.4492
  55   2.0000      -0.450338       -12.2543
  56   2.0000      -0.443501       -12.0683
  57   2.0000      -0.434582       -11.8256
  58   2.0000      -0.432534       -11.7699
  59   2.0000      -0.423863       -11.5339
  60   2.0000      -0.419352       -11.4111
  61   2.0000      -0.408386       -11.1128
  62   2.0000      -0.405036       -11.0216
  63   2.0000      -0.349235        -9.5032
  64   2.0000      -0.331317        -9.0156
  65   2.0000      -0.325118        -8.8469
  66   2.0000      -0.296471        -8.0674
  67   0.0000       0.024566         0.6685
  68   0.0000       0.064986         1.7684
  69   0.0000       0.104273         2.8374
  70   0.0000       0.122498         3.3333
  71   0.0000       0.127063         3.4575

MULLIKEN ATOMIC CHARGES
-----------------------
   0 S :    0.100306
   1 C :   -0.054695
   2 C :   -0.158518
   3 C :    0.056789
   4 C :   -0.138437
   5 H :    0.001248
   6 C :    0.113974
   7 H :    0.010064
   8 H :    0.016213
   9 C :   -0.130799
  10 H :    0.035226
  11 H :    0.047058
  12 C :   -0.024973
  13 H :    0.017672
  14 H :    0.027472
  15 H :    0.036710
  16 S :    0.104875
  17 C :   -0.096060
  18 C :   -0.052531
  19 C :   -0.047538
  20 C :   -0.146928
  21 H :    0.053616
  22 C :    0.067778
  23 H :    0.027639
  24 H :    0.008822
  25 C :   -0.033405
  26 H :    0.015235
  27 H :    0.024802
  28 C :   -0.077641
  29 H :    0.032951
  30 H :    0.045678
  31 H :    0.023039
  32 H :    0.028736
  33 H :    0.065619
Sum of atomic charges:   -0.0000000

LOEWDIN ATOMIC CHARGES
----------------------
   0 S :    0.423045
   1 C :   -0.213658
   2 C :   -0.060494
   3 C :   -0.062887
   4 C :   -0.186687
   5 H :    0.020823
   6 C :   -0.019949
   7 H :    0.024151
   8 H :    0.017458
   9 C :   -0.037204
  10 H :    0.018584
  11 H :    0.031780
  12 C :   -0.064976
  13 H :    0.026966
  14 H :    0.016113
  15 H :    0.031647
  16 S :    0.413205
  17 C :   -0.183039
  18 C :   -0.083363
  19 C :   -0.049764
  20 C :   -0.201738
  21 H :    0.046678
  22 C :   -0.030014
  23 H :    0.033865
  24 H :    0.025211
  25 C :   -0.042925
  26 H :    0.021232
  27 H :    0.026096
  28 C :   -0.077822
  29 H :    0.031004
  30 H :    0.032680
  31 H :    0.023258
  32 H :    0.020450
  33 H :    0.030275

  Mayer bond orders larger than 0.100000
B(  0-S ,  1-C ) :   1.1510 B(  0-S ,  4-C ) :   1.1627 B(  1-C ,  2-C ) :   1.6170
B(  1-C , 32-H ) :   0.9672 B(  2-C ,  3-C ) :   1.2679 B(  2-C ,  6-C ) :   0.9958
B(  3-C ,  4-C ) :   1.5354 B(  3-C ,  5-H ) :   0.9977 B(  4-C , 20-C ) :   1.0213
B(  6-C ,  7-H ) :   0.9471 B(  6-C ,  8-H ) :   0.9354 B(  6-C ,  9-C ) :   1.0874
B(  9-C , 10-H ) :   0.9602 B(  9-C , 11-H ) :   0.9470 B(  9-C , 12-C ) :   1.0797
B( 12-C , 13-H ) :   0.9712 B( 12-C , 14-H ) :   0.9794 B( 12-C , 15-H ) :   0.9729
B( 16-S , 17-C ) :   1.1826 B( 16-S , 20-C ) :   1.1417 B( 17-C , 18-C ) :   1.5761
B( 17-C , 20-C ) :   0.1061 B( 17-C , 33-H ) :   0.9678 B( 18-C , 19-C ) :   1.2632
B( 18-C , 21-H ) :   0.9773 B( 19-C , 20-C ) :   1.5787 B( 19-C , 22-C ) :   1.0367
B( 22-C , 23-H ) :   0.9364 B( 22-C , 24-H ) :   0.9358 B( 22-C , 25-C ) :   1.0832
B( 25-C , 26-H ) :   0.9537 B( 25-C , 27-H ) :   0.9577 B( 25-C , 28-C ) :   1.0647
B( 28-C , 29-H ) :   0.9781 B( 28-C , 30-H ) :   0.9762 B( 28-C , 31-H ) :   0.9753

Dispersion correction           -0.014112001
FINAL SINGLE POINT ENERGY     -1339.852317751276

DIPOLE MOMENT
-------------
                                X             Y             Z
Electronic contribution:     18.85686      14.00918      11.20004
Nuclear contribution   :    -19.42834     -14.00921     -11.60249
                        -----------------------------------------
Total Dipole Moment    :     -0.57148      -0.00003      -0.40245
                        -----------------------------------------
Magnitude (a.u.)       :      0.69897
Magnitude (Debye)      :      1.77663

Rotational constants in cm-1:     0.019128     0.007914     0.007049
Rotational constants in MHz :   573.431599   237.256819   211.333690

                             ****ORCA TERMINATED NORMALLY****
TOTAL RUN TIME: 0 days 0 hours 0 minutes 29 seconds 413 msec
