                         Program Version 4.2.1 -  RELEASE  -
|  1> ! wB97X-D3 SP def2-SVP
|  2> %pal
|  3> nprocs 16
|  4> end
|  5>
|  6> * xyz 0 1
|  7> S 	 44.164 	 20.7121 	 48.7832
|  8> C 	 43.5302 	 19.2109 	 49.3763
|  9> C 	 42.9556 	 18.4457 	 48.4056
| 10> C 	 43.3518 	 18.8869 	 47.0942
| 11> C 	 43.7841 	 20.2026 	 47.0591
| 12> H 	 43.1409 	 18.498 	 46.0989
| 13> C 	 42.259 	 17.1008 	 48.615
| 14> H 	 41.5932 	 16.8321 	 47.7561
| 15> H 	 41.3782 	 17.2393 	 49.2221
| 16> C 	 42.9938 	 15.8613 	 49.1742
| 17> H 	 43.305 	 16.0906 	 50.2098
| 18> H 	 42.4028 	 14.9991 	 49.3415
| 19> C 	 44.2237 	 15.4596 	 48.2648
| 20> H 	 43.9757 	 15.4182 	 47.1506
| 21> H 	 44.956 	 16.1747 	 48.4645
| 22> H 	 44.5954 	 14.5175 	 48.6198
| 23> S 	 45.9148 	 21.4286 	 45.9055
| 24> C 	 45.774 	 22.1462 	 44.3823
| 25> C 	 44.5045 	 22.0073 	 43.8258
| 26> C 	 43.6204 	 21.2156 	 44.6337
| 27> C 	 44.2339 	 20.9196 	 45.839
| 28> H 	 44.2192 	 22.3004 	 42.8133
| 29> C 	 42.211 	 20.8923 	 44.2387
| 30> H 	 41.7581 	 21.8263 	 44.0577
| 31> H 	 41.7739 	 20.375 	 45.0704
| 32> C 	 42.0851 	 19.9351 	 43.0883
| 33> H 	 42.359 	 20.555 	 42.2872
| 34> H 	 41.0837 	 19.5631 	 42.9813
| 35> C 	 43.1737 	 18.8056 	 43.0404
| 36> H 	 44.0621 	 19.3041 	 42.7761
| 37> H 	 42.7824 	 18.0891 	 42.3151
| 38> H 	 43.3931 	 18.2407 	 43.998
| 39> H 	 43.3614 	 19.1178 	 50.4329
| 40> H 	 46.611 	 22.6676 	 43.8717
| 41> *
| 42>
| 43>                          ****END OF INPUT****

CARTESIAN COORDINATES (ANGSTROEM)
---------------------------------
  S     44.164000   20.712100   48.783200
  C     43.530200   19.210900   49.376300
  C     42.955600   18.445700   48.405600
  C     43.351800   18.886900   47.094200
  C     43.784100   20.202600   47.059100
  H     43.140900   18.498000   46.098900
  C     42.259000   17.100800   48.615000
  H     41.593200   16.832100   47.756100
  H     41.378200   17.239300   49.222100
  C     42.993800   15.861300   49.174200
  H     43.305000   16.090600   50.209800
  H     42.402800   14.999100   49.341500
  C     44.223700   15.459600   48.264800
  H     43.975700   15.418200   47.150600
  H     44.956000   16.174700   48.464500
  H     44.595400   14.517500   48.619800
  S     45.914800   21.428600   45.905500
  C     45.774000   22.146200   44.382300
  C     44.504500   22.007300   43.825800
  C     43.620400   21.215600   44.633700
  C     44.233900   20.919600   45.839000
  H     44.219200   22.300400   42.813300
  C     42.211000   20.892300   44.238700
  H     41.758100   21.826300   44.057700
  H     41.773900   20.375000   45.070400
  C     42.085100   19.935100   43.088300
  H     42.359000   20.555000   42.287200
  H     41.083700   19.563100   42.981300
  C     43.173700   18.805600   43.040400
  H     44.062100   19.304100   42.776100
  H     42.782400   18.089100   42.315100
  H     43.393100   18.240700   43.998000
  H     43.361400   19.117800   50.432900
  H     46.611000   22.667600   43.871700

 Total Charge           Charge          ....    0
 Multiplicity           Mult            ....    1
 Number of Electrons    NEL             ....  134
 Basis Dimension        Dim             ....  322

ORBITAL ENERGIES
----------------

  NO   OCC          E(Eh)            E(eV)
   0   2.0000     -88.966360     -2420.8977
   1   2.0000     -88.964662     -2420.8515
   2   2.0000     -10.333946      -281.2010
   3   2.0000     -10.326276      -280.9922
   4   2.0000     -10.318621      -280.7840
   5   2.0000     -10.313780      -280.6522
   6   2.0000     -10.305964      -280.4395
   7   2.0000     -10.303089      -280.3613
   8   2.0000     -10.295962      -280.1674
   9   2.0000     -10.295569      -280.1567
  10   2.0000     -10.293271      -280.0941
  11   2.0000     -10.288597      -279.9670
  12   2.0000     -10.281787      -279.7816
  13   2.0000     -10.281074      -279.7622
  14   2.0000     -10.280116      -279.7362
  15   2.0000     -10.273801      -279.5643
  16   2.0000      -8.082198      -219.9278
  17   2.0000      -8.078610      -219.8302
  18   2.0000      -6.040521      -164.3709
  19   2.0000      -6.037230      -164.2814
  20   2.0000      -6.036578      -164.2636
  21   2.0000      -6.033307      -164.1746
  22   2.0000      -6.033049      -164.1676
  23   2.0000      -6.029219      -164.0634
  24   2.0000      -1.006551       -27.3896
  25   2.0000      -0.984342       -26.7853
  26   2.0000      -0.921405       -25.0727
  27   2.0000      -0.900859       -24.5136
  28   2.0000      -0.866540       -23.5797
  29   2.0000      -0.850845       -23.1527
  30   2.0000      -0.842428       -22.9236
  31   2.0000      -0.811113       -22.0715
  32   2.0000      -0.788774       -21.4636
  33   2.0000      -0.774301       -21.0698
  34   2.0000      -0.706284       -19.2190
  35   2.0000      -0.703665       -19.1477
  36   2.0000      -0.689095       -18.7512
  37   2.0000      -0.662364       -18.0238
  38   2.0000      -0.645634       -17.5686
  39   2.0000      -0.610570       -16.6145
  40   2.0000      -0.595416       -16.2021
  41   2.0000      -0.568014       -15.4564
  42   2.0000      -0.563866       -15.3436
  43   2.0000      -0.559723       -15.2308
  44   2.0000      -0.546702       -14.8765
  45   2.0000      -0.532430       -14.4882
  46   2.0000      -0.514376       -13.9969
  47   2.0000      -0.507755       -13.8167
  48   2.0000      -0.498687       -13.5700
  49   2.0000      -0.492874       -13.4118
  50   2.0000      -0.490862       -13.3570
  51   2.0000      -0.472823       -12.8662
  52   2.0000      -0.469352       -12.7717
  53   2.0000      -0.467620       -12.7246
  54   2.0000      -0.460546       -12.5321
  55   2.0000      -0.455010       -12.3814
  56   2.0000      -0.444039       -12.0829
  57   2.0000      -0.440578       -11.9887
  58   2.0000      -0.433045       -11.7837
  59   2.0000      -0.423810       -11.5324
  60   2.0000      -0.416415       -11.3312
  61   2.0000      -0.409334       -11.1385
  62   2.0000      -0.406016       -11.0483
  63   2.0000      -0.348061        -9.4712
  64   2.0000      -0.334397        -9.0994
  65   2.0000      -0.327165        -8.9026
  66   2.0000      -0.294219        -8.0061
  67   0.0000       0.030625         0.8334
  68   0.0000       0.066829         1.8185
  69   0.0000       0.108713         2.9582
  70   0.0000       0.117829         3.2063
  71   0.0000       0.130040         3.5386

MULLIKEN ATOMIC CHARGES
-----------------------
   0 S :    0.088708
   1 C :   -0.115417
   2 C :   -0.055030
   3 C :    0.049343
   4 C :   -0.152622
   5 H :   -0.005004
   6 C :    0.036873
   7 H :    0.017464
   8 H :    0.014313
   9 C :   -0.050629
  10 H :    0.021645
  11 H :    0.018520
  12 C :   -0.047289
  13 H :    0.046591
  14 H :    0.033425
  15 H :    0.024678
  16 S :    0.126969
  17 C :   -0.098540
  18 C :   -0.036685
  19 C :   -0.095449
  20 C :   -0.185244
  21 H :    0.017609
  22 C :    0.139642
  23 H :    0.030003
  24 H :    0.010618
  25 C :   -0.072483
  26 H :    0.008995
  27 H :    0.035897
  28 C :   -0.058843
  29 H :    0.036384
  30 H :    0.042518
  31 H :    0.044986
  32 H :    0.056392
  33 H :    0.071659
Sum of atomic charges:    0.0000000

LOEWDIN ATOMIC CHARGES
----------------------
   0 S :    0.367832
   1 C :   -0.186215
   2 C :   -0.065230
   3 C :   -0.056169
   4 C :   -0.171047
   5 H :    0.027825
   6 C :   -0.050088
   7 H :    0.035346
   8 H :    0.031705
   9 C :   -0.035089
  10 H :    0.023970
  11 H :    0.018294
  12 C :   -0.061971
  13 H :    0.034073
  14 H :    0.018520
  15 H :    0.020882
  16 S :    0.434596
  17 C :   -0.206175
  18 C :   -0.080238
  19 C :   -0.050755
  20 C :   -0.199029
  21 H :    0.029429
  22 C :   -0.024339
  23 H :    0.029891
  24 H :    0.026487
  25 C :   -0.032366
  26 H :    0.016965
  27 H :    0.022511
  28 C :   -0.061556
  29 H :    0.022024
  30 H :    0.029849
  31 H :    0.026934
  32 H :    0.026287
  33 H :    0.036851

  Mayer bond orders larger than 0.100000
B(  0-S ,  1-C ) :   1.1431 B(  0-S ,  4-C ) :   1.1178 B(  1-C ,  2-C ) :   1.6278
B(  1-C , 32-H ) :   0.9638 B(  2-C ,  3-C ) :   1.1998 B(  2-C ,  6-C ) :   1.0284
B(  3-C ,  4-C ) :   1.6183 B(  3-C ,  5-H ) :   0.9753 B(  4-C , 20-C ) :   1.0222
B(  6-C ,  7-H ) :   0.9382 B(  6-C ,  8-H ) :   0.9283 B(  6-C ,  9-C ) :   1.0769
B(  9-C , 10-H ) :   0.9548 B(  9-C , 11-H ) :   0.9559 B(  9-C , 12-C ) :   1.0642
B( 12-C , 13-H ) :   0.9778 B( 12-C , 14-H ) :   0.9784 B( 12-C , 15-H ) :   0.9765
B( 16-S , 17-C ) :   1.1755 B( 16-S , 20-C ) :   1.1575 B( 17-C , 18-C ) :   1.5830
B( 17-C , 33-H ) :   0.9629 B( 18-C , 19-C ) :   1.2486 B( 18-C , 21-H ) :   0.9857
B( 19-C , 20-C ) :   1.5995 B( 19-C , 22-C ) :   1.0418 B( 22-C , 23-H ) :   0.9400
B( 22-C , 24-H ) :   0.9201 B( 22-C , 25-C ) :   1.0637 B( 25-C , 26-H ) :   0.9530
B( 25-C , 27-H ) :   0.9636 B( 25-C , 28-C ) :   1.0754 B( 28-C , 29-H ) :   0.9645
B( 28-C , 30-H ) :   0.9723 B( 28-C , 31-H ) :   0.9727

Dispersion correction           -0.015387318
FINAL SINGLE POINT ENERGY     -1339.856666233791

DIPOLE MOMENT
-------------
                                X             Y             Z
Electronic contribution:     11.52267      21.67003       8.45447
Nuclear contribution   :    -11.92040     -22.02052      -8.78658
                        -----------------------------------------
Total Dipole Moment    :     -0.39773      -0.35049      -0.33212
                        -----------------------------------------
Magnitude (a.u.)       :      0.62557
Magnitude (Debye)      :      1.59007

Rotational constants in cm-1:     0.019547     0.008961     0.007235
Rotational constants in MHz :   586.001559   268.645051   216.896712

                             ****ORCA TERMINATED NORMALLY****
TOTAL RUN TIME: 0 days 0 hours 0 minutes 36 seconds 179 msec
