                         Program Version 4.2.1 -  RELEASE  -
|  1> ! wB97X-D3 SP def2-SVP
|  2> %pal
|  3> nprocs 16
|  4> end
|  5>
|  6> * xyz 0 1
|  7> S 	 -46.6954 	 67.4254 	 128.158
|  8> C 	 -46.159 	 65.779 	 128.039
|  9> C 	 -45.7919 	 65.2404 	 129.286
| 10> C 	 -45.7392 	 66.2643 	 130.29
| 11> C 	 -46.2451 	 67.4535 	 129.857
| 12> H 	 -45.3903 	 66.1744 	 131.312
| 13> C 	 -45.3468 	 63.827 	 129.619
| 14> H 	 -45.9758 	 63.2171 	 128.957
| 15> H 	 -45.4712 	 63.6384 	 130.665
| 16> C 	 -43.9506 	 63.4608 	 129.145
| 17> H 	 -43.9571 	 62.3427 	 129.234
| 18> H 	 -43.8392 	 63.6676 	 128.048
| 19> C 	 -42.8481 	 64.0594 	 130.099
| 20> H 	 -42.7737 	 63.7753 	 131.103
| 21> H 	 -41.8648 	 63.9252 	 129.641
| 22> H 	 -43.0469 	 65.1251 	 130.248
| 23> S 	 -45.9858 	 70.1733 	 129.896
| 24> C 	 -46.1729 	 71.1271 	 131.324
| 25> C 	 -46.2771 	 70.2548 	 132.39
| 26> C 	 -46.4041 	 68.8794 	 132.062
| 27> C 	 -46.3864 	 68.66 	 130.693
| 28> H 	 -46.2456 	 70.7739 	 133.351
| 29> C 	 -46.7441 	 67.8298 	 133.07
| 30> H 	 -45.7964 	 67.5326 	 133.642
| 31> H 	 -47.1984 	 66.9347 	 132.621
| 32> C 	 -47.556 	 68.1942 	 134.299
| 33> H 	 -48.3636 	 68.6966 	 133.851
| 34> H 	 -47.0349 	 69.0139 	 134.836
| 35> C 	 -48.1816 	 67.0542 	 135.226
| 36> H 	 -48.834 	 67.4066 	 136.007
| 37> H 	 -47.4993 	 66.545 	 135.855
| 38> H 	 -48.8181 	 66.3702 	 134.62
| 39> H 	 -46.244 	 65.1986 	 127.188
| 40> H 	 -45.8203 	 72.1606 	 131.391
| 41> *
| 42>
| 43>                          ****END OF INPUT****

CARTESIAN COORDINATES (ANGSTROEM)
---------------------------------
  S    -46.695400   67.425400  128.158000
  C    -46.159000   65.779000  128.039000
  C    -45.791900   65.240400  129.286000
  C    -45.739200   66.264300  130.290000
  C    -46.245100   67.453500  129.857000
  H    -45.390300   66.174400  131.312000
  C    -45.346800   63.827000  129.619000
  H    -45.975800   63.217100  128.957000
  H    -45.471200   63.638400  130.665000
  C    -43.950600   63.460800  129.145000
  H    -43.957100   62.342700  129.234000
  H    -43.839200   63.667600  128.048000
  C    -42.848100   64.059400  130.099000
  H    -42.773700   63.775300  131.103000
  H    -41.864800   63.925200  129.641000
  H    -43.046900   65.125100  130.248000
  S    -45.985800   70.173300  129.896000
  C    -46.172900   71.127100  131.324000
  C    -46.277100   70.254800  132.390000
  C    -46.404100   68.879400  132.062000
  C    -46.386400   68.660000  130.693000
  H    -46.245600   70.773900  133.351000
  C    -46.744100   67.829800  133.070000
  H    -45.796400   67.532600  133.642000
  H    -47.198400   66.934700  132.621000
  C    -47.556000   68.194200  134.299000
  H    -48.363600   68.696600  133.851000
  H    -47.034900   69.013900  134.836000
  C    -48.181600   67.054200  135.226000
  H    -48.834000   67.406600  136.007000
  H    -47.499300   66.545000  135.855000
  H    -48.818100   66.370200  134.620000
  H    -46.244000   65.198600  127.188000
  H    -45.820300   72.160600  131.391000

 Total Charge           Charge          ....    0
 Multiplicity           Mult            ....    1
 Number of Electrons    NEL             ....  134
 Basis Dimension        Dim             ....  322

ORBITAL ENERGIES
----------------

  NO   OCC          E(Eh)            E(eV)
   0   2.0000     -88.970410     -2421.0080
   1   2.0000     -88.960827     -2420.7472
   2   2.0000     -10.330200      -281.0990
   3   2.0000     -10.329735      -281.0864
   4   2.0000     -10.315655      -280.7033
   5   2.0000     -10.310666      -280.5675
   6   2.0000     -10.307135      -280.4714
   7   2.0000     -10.303138      -280.3626
   8   2.0000     -10.296727      -280.1882
   9   2.0000     -10.295535      -280.1557
  10   2.0000     -10.295324      -280.1500
  11   2.0000     -10.290880      -280.0291
  12   2.0000     -10.290531      -280.0196
  13   2.0000     -10.286711      -279.9156
  14   2.0000     -10.285224      -279.8752
  15   2.0000     -10.274462      -279.5823
  16   2.0000      -8.084889      -220.0010
  17   2.0000      -8.076208      -219.7648
  18   2.0000      -6.043401      -164.4493
  19   2.0000      -6.039533      -164.3441
  20   2.0000      -6.035568      -164.2362
  21   2.0000      -6.034594      -164.2096
  22   2.0000      -6.030546      -164.0995
  23   2.0000      -6.027113      -164.0061
  24   2.0000      -1.010145       -27.4874
  25   2.0000      -0.987322       -26.8664
  26   2.0000      -0.912767       -24.8377
  27   2.0000      -0.909825       -24.7576
  28   2.0000      -0.870055       -23.6754
  29   2.0000      -0.850295       -23.1377
  30   2.0000      -0.842442       -22.9240
  31   2.0000      -0.815490       -22.1906
  32   2.0000      -0.786751       -21.4086
  33   2.0000      -0.778914       -21.1953
  34   2.0000      -0.708518       -19.2798
  35   2.0000      -0.707354       -19.2481
  36   2.0000      -0.696018       -18.9396
  37   2.0000      -0.656049       -17.8520
  38   2.0000      -0.641046       -17.4437
  39   2.0000      -0.618197       -16.8220
  40   2.0000      -0.598647       -16.2900
  41   2.0000      -0.574053       -15.6208
  42   2.0000      -0.569535       -15.4978
  43   2.0000      -0.550722       -14.9859
  44   2.0000      -0.537573       -14.6281
  45   2.0000      -0.523866       -14.2551
  46   2.0000      -0.519694       -14.1416
  47   2.0000      -0.507136       -13.7999
  48   2.0000      -0.503290       -13.6952
  49   2.0000      -0.498860       -13.5747
  50   2.0000      -0.488766       -13.3000
  51   2.0000      -0.482753       -13.1364
  52   2.0000      -0.475136       -12.9291
  53   2.0000      -0.470243       -12.7960
  54   2.0000      -0.462407       -12.5827
  55   2.0000      -0.453422       -12.3382
  56   2.0000      -0.447880       -12.1874
  57   2.0000      -0.442013       -12.0278
  58   2.0000      -0.431532       -11.7426
  59   2.0000      -0.427189       -11.6244
  60   2.0000      -0.418206       -11.3800
  61   2.0000      -0.404711       -11.0127
  62   2.0000      -0.402780       -10.9602
  63   2.0000      -0.357601        -9.7308
  64   2.0000      -0.330897        -9.0042
  65   2.0000      -0.327032        -8.8990
  66   2.0000      -0.286388        -7.7930
  67   0.0000       0.022468         0.6114
  68   0.0000       0.077054         2.0968
  69   0.0000       0.105354         2.8668
  70   0.0000       0.113653         3.0927
  71   0.0000       0.141216         3.8427

MULLIKEN ATOMIC CHARGES
-----------------------
   0 S :    0.125202
   1 C :   -0.087920
   2 C :   -0.103193
   3 C :   -0.006500
   4 C :   -0.123505
   5 H :    0.016561
   6 C :    0.078804
   7 H :    0.023533
   8 H :    0.023359
   9 C :   -0.080660
  10 H :    0.036258
  11 H :    0.041367
  12 C :   -0.042730
  13 H :    0.016451
  14 H :    0.038927
  15 H :    0.029244
  16 S :    0.078963
  17 C :   -0.093965
  18 C :   -0.071927
  19 C :   -0.006791
  20 C :   -0.121240
  21 H :    0.026676
  22 C :    0.010371
  23 H :    0.039342
  24 H :    0.039293
  25 C :   -0.081396
  26 H :    0.012717
  27 H :    0.030763
  28 C :   -0.028545
  29 H :    0.024759
  30 H :    0.022680
  31 H :    0.041630
  32 H :    0.017643
  33 H :    0.073830
Sum of atomic charges:   -0.0000000

LOEWDIN ATOMIC CHARGES
----------------------
   0 S :    0.412825
   1 C :   -0.195285
   2 C :   -0.053999
   3 C :   -0.067305
   4 C :   -0.189715
   5 H :    0.033043
   6 C :   -0.032042
   7 H :    0.035506
   8 H :    0.028152
   9 C :   -0.037535
  10 H :    0.026683
  11 H :    0.031163
  12 C :   -0.071743
  13 H :    0.018294
  14 H :    0.028997
  15 H :    0.028624
  16 S :    0.409050
  17 C :   -0.199345
  18 C :   -0.075759
  19 C :   -0.065997
  20 C :   -0.184048
  21 H :    0.034576
  22 C :   -0.045397
  23 H :    0.039569
  24 H :    0.032090
  25 C :   -0.045107
  26 H :    0.015617
  27 H :    0.023189
  28 C :   -0.063685
  29 H :    0.029898
  30 H :    0.018748
  31 H :    0.032902
  32 H :    0.010847
  33 H :    0.037187

  Mayer bond orders larger than 0.100000
B(  0-S ,  1-C ) :   1.1374 B(  0-S ,  4-C ) :   1.1485 B(  1-C ,  2-C ) :   1.6037
B(  1-C , 32-H ) :   0.9749 B(  2-C ,  3-C ) :   1.2254 B(  2-C ,  6-C ) :   1.0315
B(  3-C ,  4-C ) :   1.5918 B(  3-C ,  5-H ) :   0.9855 B(  4-C , 20-C ) :   1.0362
B(  6-C ,  7-H ) :   0.9291 B(  6-C ,  8-H ) :   0.9430 B(  6-C ,  9-C ) :   1.0818
B(  9-C , 10-H ) :   0.9576 B(  9-C , 11-H ) :   0.9566 B(  9-C , 12-C ) :   1.0565
B( 12-C , 13-H ) :   0.9757 B( 12-C , 14-H ) :   0.9764 B( 12-C , 15-H ) :   0.9764
B( 16-S , 17-C ) :   1.1626 B( 16-S , 20-C ) :   1.1575 B( 17-C , 18-C ) :   1.5993
B( 17-C , 20-C ) :   0.1013 B( 17-C , 33-H ) :   0.9616 B( 18-C , 19-C ) :   1.2444
B( 18-C , 21-H ) :   0.9883 B( 19-C , 20-C ) :   1.5710 B( 19-C , 22-C ) :   1.0495
B( 22-C , 23-H ) :   0.9188 B( 22-C , 24-H ) :   0.9465 B( 22-C , 25-C ) :   1.0612
B( 25-C , 26-H ) :   0.9552 B( 25-C , 27-H ) :   0.9491 B( 25-C , 28-C ) :   1.0731
B( 28-C , 29-H ) :   0.9721 B( 28-C , 30-H ) :   0.9774 B( 28-C , 31-H ) :   0.9745

Dispersion correction           -0.013798158
FINAL SINGLE POINT ENERGY     -1339.856133089335

DIPOLE MOMENT
-------------
                                X             Y             Z
Electronic contribution:     -4.48379      19.25959     -19.58421
Nuclear contribution   :      4.65895     -19.67777      20.16918
                        -----------------------------------------
Total Dipole Moment    :      0.17517      -0.41818       0.58497
                        -----------------------------------------
Magnitude (a.u.)       :      0.74010
Magnitude (Debye)      :      1.88119

Rotational constants in cm-1:     0.016527     0.008818     0.006694
Rotational constants in MHz :   495.480162   264.362820   200.685450

                             ****ORCA TERMINATED NORMALLY****
TOTAL RUN TIME: 0 days 0 hours 0 minutes 32 seconds 554 msec
