                         Program Version 4.2.1 -  RELEASE  -
|  1> ! wB97X-D3 SP def2-SVP
|  2> %pal
|  3> nprocs 16
|  4> end
|  5>
|  6> * xyz 0 1
|  7> S 	 -37.5536 	 54.1146 	 98.5328
|  8> C 	 -36.9525 	 52.9049 	 99.6779
|  9> C 	 -36.8727 	 51.6592 	 99.0768
| 10> C 	 -37.54 	 51.6991 	 97.8208
| 11> C 	 -38.0174 	 52.9414 	 97.3647
| 12> H 	 -37.6433 	 50.8503 	 97.1769
| 13> C 	 -36.1882 	 50.401 	 99.5861
| 14> H 	 -35.1588 	 50.4138 	 99.1791
| 15> H 	 -36.5156 	 49.5739 	 98.9922
| 16> C 	 -36.4574 	 50.0377 	 101.106
| 17> H 	 -36.0495 	 49.0388 	 101.202
| 18> H 	 -35.8013 	 50.5621 	 101.868
| 19> C 	 -37.9605 	 50.2089 	 101.487
| 20> H 	 -38.6447 	 49.597 	 100.834
| 21> H 	 -38.1542 	 49.8381 	 102.497
| 22> H 	 -38.1897 	 51.2553 	 101.32
| 23> S 	 -38.1282 	 52.2392 	 94.7333
| 24> C 	 -39.3194 	 52.9489 	 93.6641
| 25> C 	 -40.0983 	 53.8093 	 94.4569
| 26> C 	 -39.742 	 54.0148 	 95.8267
| 27> C 	 -38.7202 	 53.1787 	 96.1226
| 28> H 	 -40.9695 	 54.227 	 93.9905
| 29> C 	 -40.5125 	 54.9021 	 96.7901
| 30> H 	 -41.1292 	 55.6045 	 96.1794
| 31> H 	 -39.8436 	 55.5241 	 97.3983
| 32> C 	 -41.5804 	 54.2044 	 97.6162
| 33> H 	 -42.3154 	 54.9567 	 98.0358
| 34> H 	 -41.1249 	 53.5587 	 98.3517
| 35> C 	 -42.4312 	 53.2607 	 96.8219
| 36> H 	 -43.106 	 53.8942 	 96.1945
| 37> H 	 -42.9949 	 52.7146 	 97.5577
| 38> H 	 -41.8818 	 52.5154 	 96.2746
| 39> H 	 -36.4767 	 53.0135 	 100.674
| 40> H 	 -39.5492 	 52.7387 	 92.6073
| 41> *
| 42>
| 43>                          ****END OF INPUT****

CARTESIAN COORDINATES (ANGSTROEM)
---------------------------------
  S    -37.553600   54.114600   98.532800
  C    -36.952500   52.904900   99.677900
  C    -36.872700   51.659200   99.076800
  C    -37.540000   51.699100   97.820800
  C    -38.017400   52.941400   97.364700
  H    -37.643300   50.850300   97.176900
  C    -36.188200   50.401000   99.586100
  H    -35.158800   50.413800   99.179100
  H    -36.515600   49.573900   98.992200
  C    -36.457400   50.037700  101.106000
  H    -36.049500   49.038800  101.202000
  H    -35.801300   50.562100  101.868000
  C    -37.960500   50.208900  101.487000
  H    -38.644700   49.597000  100.834000
  H    -38.154200   49.838100  102.497000
  H    -38.189700   51.255300  101.320000
  S    -38.128200   52.239200   94.733300
  C    -39.319400   52.948900   93.664100
  C    -40.098300   53.809300   94.456900
  C    -39.742000   54.014800   95.826700
  C    -38.720200   53.178700   96.122600
  H    -40.969500   54.227000   93.990500
  C    -40.512500   54.902100   96.790100
  H    -41.129200   55.604500   96.179400
  H    -39.843600   55.524100   97.398300
  C    -41.580400   54.204400   97.616200
  H    -42.315400   54.956700   98.035800
  H    -41.124900   53.558700   98.351700
  C    -42.431200   53.260700   96.821900
  H    -43.106000   53.894200   96.194500
  H    -42.994900   52.714600   97.557700
  H    -41.881800   52.515400   96.274600
  H    -36.476700   53.013500  100.674000
  H    -39.549200   52.738700   92.607300

 Total Charge           Charge          ....    0
 Multiplicity           Mult            ....    1
 Number of Electrons    NEL             ....  134
 Basis Dimension        Dim             ....  322

ORBITAL ENERGIES
----------------

  NO   OCC          E(Eh)            E(eV)
   0   2.0000     -88.970793     -2421.0183
   1   2.0000     -88.967994     -2420.9422
   2   2.0000     -10.329086      -281.0687
   3   2.0000     -10.328857      -281.0625
   4   2.0000     -10.323192      -280.9083
   5   2.0000     -10.316138      -280.7164
   6   2.0000     -10.303456      -280.3713
   7   2.0000     -10.300816      -280.2995
   8   2.0000     -10.299609      -280.2666
   9   2.0000     -10.298398      -280.2336
  10   2.0000     -10.295370      -280.1513
  11   2.0000     -10.295060      -280.1428
  12   2.0000     -10.289488      -279.9912
  13   2.0000     -10.282920      -279.8125
  14   2.0000     -10.282108      -279.7904
  15   2.0000     -10.268988      -279.4334
  16   2.0000      -8.084803      -219.9987
  17   2.0000      -8.081971      -219.9216
  18   2.0000      -6.043476      -164.4513
  19   2.0000      -6.040689      -164.3755
  20   2.0000      -6.039327      -164.3384
  21   2.0000      -6.036511      -164.2618
  22   2.0000      -6.035508      -164.2345
  23   2.0000      -6.032619      -164.1559
  24   2.0000      -1.009111       -27.4593
  25   2.0000      -0.984819       -26.7983
  26   2.0000      -0.915528       -24.9128
  27   2.0000      -0.907383       -24.6912
  28   2.0000      -0.866512       -23.5790
  29   2.0000      -0.852703       -23.2032
  30   2.0000      -0.843579       -22.9549
  31   2.0000      -0.804170       -21.8826
  32   2.0000      -0.787141       -21.4192
  33   2.0000      -0.781195       -21.2574
  34   2.0000      -0.707213       -19.2442
  35   2.0000      -0.705948       -19.2098
  36   2.0000      -0.681145       -18.5349
  37   2.0000      -0.667068       -18.1518
  38   2.0000      -0.631196       -17.1757
  39   2.0000      -0.606141       -16.4939
  40   2.0000      -0.592032       -16.1100
  41   2.0000      -0.576105       -15.6766
  42   2.0000      -0.567849       -15.4520
  43   2.0000      -0.552465       -15.0333
  44   2.0000      -0.548944       -14.9375
  45   2.0000      -0.535778       -14.5793
  46   2.0000      -0.518179       -14.1004
  47   2.0000      -0.506987       -13.7958
  48   2.0000      -0.500690       -13.6245
  49   2.0000      -0.496683       -13.5154
  50   2.0000      -0.486470       -13.2375
  51   2.0000      -0.474872       -12.9219
  52   2.0000      -0.470091       -12.7918
  53   2.0000      -0.465792       -12.6748
  54   2.0000      -0.464115       -12.6292
  55   2.0000      -0.441697       -12.0192
  56   2.0000      -0.438499       -11.9322
  57   2.0000      -0.433201       -11.7880
  58   2.0000      -0.430035       -11.7018
  59   2.0000      -0.426122       -11.5954
  60   2.0000      -0.419942       -11.4272
  61   2.0000      -0.415647       -11.3103
  62   2.0000      -0.408316       -11.1109
  63   2.0000      -0.352146        -9.5824
  64   2.0000      -0.333373        -9.0715
  65   2.0000      -0.329269        -8.9599
  66   2.0000      -0.287816        -7.8319
  67   0.0000       0.021520         0.5856
  68   0.0000       0.077478         2.1083
  69   0.0000       0.108036         2.9398
  70   0.0000       0.116093         3.1591
  71   0.0000       0.125775         3.4225

MULLIKEN ATOMIC CHARGES
-----------------------
   0 S :    0.121765
   1 C :   -0.134758
   2 C :   -0.123794
   3 C :   -0.003483
   4 C :   -0.128192
   5 H :   -0.002801
   6 C :    0.093323
   7 H :    0.047889
   8 H :    0.006963
   9 C :   -0.098655
  10 H :    0.026949
  11 H :    0.037393
  12 C :   -0.046646
  13 H :    0.035025
  14 H :    0.040907
  15 H :    0.045607
  16 S :    0.105121
  17 C :   -0.095569
  18 C :   -0.053412
  19 C :   -0.052406
  20 C :   -0.146790
  21 H :    0.007192
  22 C :    0.096018
  23 H :    0.013969
  24 H :    0.038805
  25 C :   -0.079780
  26 H :    0.042855
  27 H :    0.030930
  28 C :   -0.054263
  29 H :    0.025903
  30 H :    0.025858
  31 H :    0.047349
  32 H :    0.059879
  33 H :    0.070847
Sum of atomic charges:   -0.0000000

LOEWDIN ATOMIC CHARGES
----------------------
   0 S :    0.424921
   1 C :   -0.209872
   2 C :   -0.063564
   3 C :   -0.072890
   4 C :   -0.206760
   5 H :    0.016729
   6 C :   -0.036248
   7 H :    0.043792
   8 H :    0.028339
   9 C :   -0.046004
  10 H :    0.022906
  11 H :    0.027077
  12 C :   -0.066076
  13 H :    0.030891
  14 H :    0.027511
  15 H :    0.027068
  16 S :    0.401744
  17 C :   -0.198299
  18 C :   -0.064443
  19 C :   -0.062850
  20 C :   -0.177912
  21 H :    0.022763
  22 C :   -0.034623
  23 H :    0.034073
  24 H :    0.027415
  25 C :   -0.041712
  26 H :    0.034406
  27 H :    0.021094
  28 C :   -0.062946
  29 H :    0.023819
  30 H :    0.025529
  31 H :    0.023828
  32 H :    0.038552
  33 H :    0.041740

  Mayer bond orders larger than 0.100000
B(  0-S ,  1-C ) :   1.1390 B(  0-S ,  4-C ) :   1.1524 B(  1-C ,  2-C ) :   1.5929
B(  1-C , 32-H ) :   0.9558 B(  2-C ,  3-C ) :   1.2792 B(  2-C ,  6-C ) :   1.0189
B(  3-C ,  4-C ) :   1.5279 B(  3-C ,  5-H ) :   0.9901 B(  4-C , 20-C ) :   1.0680
B(  6-C ,  7-H ) :   0.9319 B(  6-C ,  8-H ) :   0.9357 B(  6-C ,  9-C ) :   1.0483
B(  9-C , 10-H ) :   0.9598 B(  9-C , 11-H ) :   0.9573 B(  9-C , 12-C ) :   1.0664
B( 12-C , 13-H ) :   0.9767 B( 12-C , 14-H ) :   0.9739 B( 12-C , 15-H ) :   0.9679
B( 16-S , 17-C ) :   1.1321 B( 16-S , 20-C ) :   1.1403 B( 17-C , 18-C ) :   1.6213
B( 17-C , 33-H ) :   0.9661 B( 18-C , 19-C ) :   1.2262 B( 18-C , 21-H ) :   0.9841
B( 19-C , 20-C ) :   1.5852 B( 19-C , 22-C ) :   1.0443 B( 22-C , 23-H ) :   0.9262
B( 22-C , 24-H ) :   0.9336 B( 22-C , 25-C ) :   1.0694 B( 25-C , 26-H ) :   0.9591
B( 25-C , 27-H ) :   0.9548 B( 25-C , 28-C ) :   1.0844 B( 28-C , 29-H ) :   0.9775
B( 28-C , 30-H ) :   0.9721 B( 28-C , 31-H ) :   0.9662

Dispersion correction           -0.015156490
FINAL SINGLE POINT ENERGY     -1339.871078343667

DIPOLE MOMENT
-------------
                                X             Y             Z
Electronic contribution:     10.86070       8.04071     -15.03044
Nuclear contribution   :    -11.06223      -8.36087      15.18075
                        -----------------------------------------
Total Dipole Moment    :     -0.20153      -0.32016       0.15031
                        -----------------------------------------
Magnitude (a.u.)       :      0.40708
Magnitude (Debye)      :      1.03470

Rotational constants in cm-1:     0.021887     0.008303     0.007317
Rotational constants in MHz :   656.146364   248.907280   219.355484

                             ****ORCA TERMINATED NORMALLY****
TOTAL RUN TIME: 0 days 0 hours 0 minutes 30 seconds 642 msec
