                         Program Version 4.2.1 -  RELEASE  -
|  1> ! wB97X-D3 SP def2-SVP
|  2> %pal
|  3> nprocs 16
|  4> end
|  5>
|  6> * xyz 0 1
|  7> S 	 2.22188 	 9.31684 	 84.8521
|  8> C 	 1.33047 	 9.77047 	 83.4245
|  9> C 	 1.84005 	 10.9607 	 82.8323
| 10> C 	 2.75011 	 11.6146 	 83.7157
| 11> C 	 3.00791 	 10.8799 	 84.8814
| 12> H 	 3.28631 	 12.5306 	 83.5843
| 13> C 	 1.52386 	 11.5042 	 81.4639
| 14> H 	 0.834126 	 10.8226 	 80.8782
| 15> H 	 2.49468 	 11.6406 	 80.9866
| 16> C 	 1.07822 	 13.0082 	 81.5027
| 17> H 	 0.173257 	 13.0976 	 82.0819
| 18> H 	 1.78091 	 13.5952 	 82.0695
| 19> C 	 0.837551 	 13.3868 	 80.0261
| 20> H 	 0.249709 	 14.3038 	 79.9817
| 21> H 	 1.70271 	 13.5583 	 79.3528
| 22> H 	 0.133551 	 12.6174 	 79.5796
| 23> S 	 3.44938 	 12.3415 	 87.2095
| 24> C 	 4.93546 	 12.2036 	 87.9583
| 25> C 	 5.83694 	 11.6687 	 87.1028
| 26> C 	 5.34105 	 11.1088 	 85.9165
| 27> C 	 4.00987 	 11.2336 	 85.8918
| 28> H 	 6.88915 	 11.5815 	 87.3763
| 29> C 	 6.27618 	 10.4754 	 84.863
| 30> H 	 5.688 	 9.78911 	 84.2203
| 31> H 	 6.98469 	 9.80557 	 85.3277
| 32> C 	 6.84867 	 11.4746 	 83.8952
| 33> H 	 7.45006 	 12.1044 	 84.5819
| 34> H 	 6.04904 	 11.9911 	 83.3855
| 35> C 	 7.6906 	 10.994 	 82.6938
| 36> H 	 7.91487 	 11.7536 	 81.9294
| 37> H 	 7.26672 	 10.1098 	 82.2137
| 38> H 	 8.68964 	 10.725 	 83.0569
| 39> H 	 0.601362 	 9.16805 	 82.9359
| 40> H 	 5.24182 	 12.7503 	 88.8707
| 41> *
| 42>
| 43>                          ****END OF INPUT****

CARTESIAN COORDINATES (ANGSTROEM)
---------------------------------
  S      2.221880    9.316840   84.852100
  C      1.330470    9.770470   83.424500
  C      1.840050   10.960700   82.832300
  C      2.750110   11.614600   83.715700
  C      3.007910   10.879900   84.881400
  H      3.286310   12.530600   83.584300
  C      1.523860   11.504200   81.463900
  H      0.834126   10.822600   80.878200
  H      2.494680   11.640600   80.986600
  C      1.078220   13.008200   81.502700
  H      0.173257   13.097600   82.081900
  H      1.780910   13.595200   82.069500
  C      0.837551   13.386800   80.026100
  H      0.249709   14.303800   79.981700
  H      1.702710   13.558300   79.352800
  H      0.133551   12.617400   79.579600
  S      3.449380   12.341500   87.209500
  C      4.935460   12.203600   87.958300
  C      5.836940   11.668700   87.102800
  C      5.341050   11.108800   85.916500
  C      4.009870   11.233600   85.891800
  H      6.889150   11.581500   87.376300
  C      6.276180   10.475400   84.863000
  H      5.688000    9.789110   84.220300
  H      6.984690    9.805570   85.327700
  C      6.848670   11.474600   83.895200
  H      7.450060   12.104400   84.581900
  H      6.049040   11.991100   83.385500
  C      7.690600   10.994000   82.693800
  H      7.914870   11.753600   81.929400
  H      7.266720   10.109800   82.213700
  H      8.689640   10.725000   83.056900
  H      0.601362    9.168050   82.935900
  H      5.241820   12.750300   88.870700

 Total Charge           Charge          ....    0
 Multiplicity           Mult            ....    1
 Number of Electrons    NEL             ....  134
 Basis Dimension        Dim             ....  322

ORBITAL ENERGIES
----------------

  NO   OCC          E(Eh)            E(eV)
   0   2.0000     -88.968149     -2420.9464
   1   2.0000     -88.959176     -2420.7022
   2   2.0000     -10.326493      -280.9982
   3   2.0000     -10.322203      -280.8814
   4   2.0000     -10.312715      -280.6232
   5   2.0000     -10.309118      -280.5254
   6   2.0000     -10.303714      -280.3783
   7   2.0000     -10.298406      -280.2339
   8   2.0000     -10.297779      -280.2168
   9   2.0000     -10.293753      -280.1073
  10   2.0000     -10.293653      -280.1045
  11   2.0000     -10.288772      -279.9717
  12   2.0000     -10.286700      -279.9153
  13   2.0000     -10.286505      -279.9100
  14   2.0000     -10.283106      -279.8175
  15   2.0000     -10.281170      -279.7648
  16   2.0000      -8.082492      -219.9358
  17   2.0000      -8.075212      -219.7377
  18   2.0000      -6.040863      -164.3802
  19   2.0000      -6.037114      -164.2782
  20   2.0000      -6.033521      -164.1805
  21   2.0000      -6.033372      -164.1764
  22   2.0000      -6.029811      -164.0795
  23   2.0000      -6.025802      -163.9704
  24   2.0000      -1.011245       -27.5174
  25   2.0000      -0.985543       -26.8180
  26   2.0000      -0.913034       -24.8449
  27   2.0000      -0.910911       -24.7871
  28   2.0000      -0.867169       -23.5969
  29   2.0000      -0.851912       -23.1817
  30   2.0000      -0.847622       -23.0650
  31   2.0000      -0.806280       -21.9400
  32   2.0000      -0.787897       -21.4398
  33   2.0000      -0.768480       -20.9114
  34   2.0000      -0.708433       -19.2775
  35   2.0000      -0.697220       -18.9723
  36   2.0000      -0.689875       -18.7725
  37   2.0000      -0.658942       -17.9307
  38   2.0000      -0.643988       -17.5238
  39   2.0000      -0.616177       -16.7670
  40   2.0000      -0.601098       -16.3567
  41   2.0000      -0.570981       -15.5372
  42   2.0000      -0.569768       -15.5042
  43   2.0000      -0.558907       -15.2086
  44   2.0000      -0.526603       -14.3296
  45   2.0000      -0.519417       -14.1340
  46   2.0000      -0.515961       -14.0400
  47   2.0000      -0.509652       -13.8683
  48   2.0000      -0.503774       -13.7084
  49   2.0000      -0.499363       -13.5884
  50   2.0000      -0.488060       -13.2808
  51   2.0000      -0.480016       -13.0619
  52   2.0000      -0.471161       -12.8209
  53   2.0000      -0.464301       -12.6343
  54   2.0000      -0.459444       -12.5021
  55   2.0000      -0.454422       -12.3654
  56   2.0000      -0.452850       -12.3227
  57   2.0000      -0.439505       -11.9595
  58   2.0000      -0.427795       -11.6409
  59   2.0000      -0.424361       -11.5475
  60   2.0000      -0.419698       -11.4206
  61   2.0000      -0.413234       -11.2447
  62   2.0000      -0.411731       -11.2038
  63   2.0000      -0.338777        -9.2186
  64   2.0000      -0.327983        -8.9249
  65   2.0000      -0.318084        -8.6555
  66   2.0000      -0.305006        -8.2996
  67   0.0000       0.044937         1.2228
  68   0.0000       0.053678         1.4607
  69   0.0000       0.104115         2.8331
  70   0.0000       0.116078         3.1586
  71   0.0000       0.137133         3.7316

MULLIKEN ATOMIC CHARGES
-----------------------
   0 S :    0.127654
   1 C :   -0.109009
   2 C :   -0.070378
   3 C :    0.035855
   4 C :   -0.175271
   5 H :    0.012836
   6 C :    0.038208
   7 H :    0.038565
   8 H :    0.035926
   9 C :   -0.078898
  10 H :    0.029244
  11 H :    0.031911
  12 C :   -0.063064
  13 H :    0.028816
  14 H :    0.048007
  15 H :    0.035298
  16 S :    0.104000
  17 C :   -0.068648
  18 C :   -0.066917
  19 C :    0.029589
  20 C :   -0.239334
  21 H :    0.010909
  22 C :    0.097076
  23 H :    0.011369
  24 H :    0.026232
  25 C :   -0.081938
  26 H :    0.027432
  27 H :    0.030611
  28 C :   -0.042671
  29 H :    0.041201
  30 H :    0.033735
  31 H :    0.021024
  32 H :    0.033567
  33 H :    0.067060
Sum of atomic charges:    0.0000000

LOEWDIN ATOMIC CHARGES
----------------------
   0 S :    0.419540
   1 C :   -0.205181
   2 C :   -0.059474
   3 C :   -0.059406
   4 C :   -0.201261
   5 H :    0.027416
   6 C :   -0.035480
   7 H :    0.035166
   8 H :    0.037364
   9 C :   -0.035839
  10 H :    0.023480
  11 H :    0.020995
  12 C :   -0.073829
  13 H :    0.024379
  14 H :    0.029291
  15 H :    0.033476
  16 S :    0.408535
  17 C :   -0.208730
  18 C :   -0.083110
  19 C :   -0.051066
  20 C :   -0.181934
  21 H :    0.027197
  22 C :   -0.026175
  23 H :    0.029336
  24 H :    0.027668
  25 C :   -0.043079
  26 H :    0.025489
  27 H :    0.025302
  28 C :   -0.068327
  29 H :    0.030946
  30 H :    0.025554
  31 H :    0.022767
  32 H :    0.019541
  33 H :    0.039450

  Mayer bond orders larger than 0.100000
B(  0-S ,  1-C ) :   1.1488 B(  0-S ,  4-C ) :   1.1643 B(  1-C ,  2-C ) :   1.5812
B(  1-C ,  4-C ) :   0.1019 B(  1-C , 32-H ) :   0.9732 B(  2-C ,  3-C ) :   1.2366
B(  2-C ,  6-C ) :   1.0355 B(  3-C ,  4-C ) :   1.5762 B(  3-C ,  5-H ) :   0.9912
B(  4-C , 20-C ) :   1.0073 B(  6-C ,  7-H ) :   0.9481 B(  6-C ,  8-H ) :   0.9363
B(  6-C ,  9-C ) :   1.0461 B(  9-C , 10-H ) :   0.9563 B(  9-C , 11-H ) :   0.9560
B(  9-C , 12-C ) :   1.0754 B( 12-C , 13-H ) :   0.9738 B( 12-C , 14-H ) :   0.9768
B( 12-C , 15-H ) :   0.9716 B( 16-S , 17-C ) :   1.1598 B( 16-S , 20-C ) :   1.1406
B( 17-C , 18-C ) :   1.6152 B( 17-C , 33-H ) :   0.9603 B( 18-C , 19-C ) :   1.2312
B( 18-C , 21-H ) :   0.9850 B( 19-C , 20-C ) :   1.6413 B( 19-C , 22-C ) :   1.0345
B( 22-C , 23-H ) :   0.9216 B( 22-C , 24-H ) :   0.9399 B( 22-C , 25-C ) :   1.0665
B( 25-C , 26-H ) :   0.9592 B( 25-C , 27-H ) :   0.9539 B( 25-C , 28-C ) :   1.0798
B( 28-C , 29-H ) :   0.9762 B( 28-C , 30-H ) :   0.9727 B( 28-C , 31-H ) :   0.9742

Dispersion correction           -0.014187531
FINAL SINGLE POINT ENERGY     -1339.865812047150

DIPOLE MOMENT
-------------
                                X             Y             Z
Electronic contribution:     -8.13077      -7.58196      25.48046
Nuclear contribution   :      8.50396       7.81175     -26.05353
                        -----------------------------------------
Total Dipole Moment    :      0.37319       0.22978      -0.57306
                        -----------------------------------------
Magnitude (a.u.)       :      0.72144
Magnitude (Debye)      :      1.83375

Rotational constants in cm-1:     0.016598     0.008472     0.007233
Rotational constants in MHz :   497.590485   253.976853   216.841646

                             ****ORCA TERMINATED NORMALLY****
TOTAL RUN TIME: 0 days 0 hours 0 minutes 32 seconds 956 msec
