                         Program Version 4.2.1 -  RELEASE  -
|  1> ! wB97X-D3 SP def2-SVP
|  2> %pal
|  3> nprocs 16
|  4> end
|  5>
|  6> * xyz 0 1
|  7> S 	 51.6075 	 -2.74415 	 86.6834
|  8> C 	 51.9671 	 -3.18585 	 88.2844
|  9> C 	 52.4519 	 -2.09652 	 88.9763
| 10> C 	 52.3785 	 -0.873417 	 88.258
| 11> C 	 52.0726 	 -1.0329 	 86.9625
| 12> H 	 52.8015 	 0.123703 	 88.5354
| 13> C 	 52.972 	 -2.05993 	 90.3929
| 14> H 	 53.1341 	 -1.01647 	 90.5581
| 15> H 	 53.9108 	 -2.58047 	 90.434
| 16> C 	 52.1492 	 -2.51987 	 91.5923
| 17> H 	 51.321 	 -1.85226 	 91.5736
| 18> H 	 51.7332 	 -3.6052 	 91.5231
| 19> C 	 52.8677 	 -2.35554 	 92.8861
| 20> H 	 53.8679 	 -2.77704 	 92.7262
| 21> H 	 52.9595 	 -1.36536 	 93.1982
| 22> H 	 52.3513 	 -2.81968 	 93.7019
| 23> S 	 50.7268 	 0.00106956 	 84.758
| 24> C 	 51.2176 	 1.40698 	 83.8753
| 25> C 	 52.2689 	 1.90012 	 84.5824
| 26> C 	 52.785 	 1.16178 	 85.6809
| 27> C 	 52.0483 	 0.0130745 	 85.9247
| 28> H 	 52.6183 	 2.82466 	 84.2746
| 29> C 	 54.0812 	 1.58789 	 86.3308
| 30> H 	 54.8829 	 1.4385 	 85.6108
| 31> H 	 54.2427 	 0.756431 	 87.1318
| 32> C 	 54.0846 	 2.89091 	 87.1226
| 33> H 	 53.2592 	 2.9329 	 87.7716
| 34> H 	 53.8023 	 3.78015 	 86.5051
| 35> C 	 55.3657 	 3.16865 	 87.863
| 36> H 	 55.2187 	 3.959 	 88.5803
| 37> H 	 56.1783 	 3.372 	 87.212
| 38> H 	 55.6097 	 2.25496 	 88.3617
| 39> H 	 51.8804 	 -4.12298 	 88.759
| 40> H 	 50.7039 	 1.92574 	 83.088
| 41> *
| 42>
| 43>                          ****END OF INPUT****

CARTESIAN COORDINATES (ANGSTROEM)
---------------------------------
  S     51.607500   -2.744150   86.683400
  C     51.967100   -3.185850   88.284400
  C     52.451900   -2.096520   88.976300
  C     52.378500   -0.873417   88.258000
  C     52.072600   -1.032900   86.962500
  H     52.801500    0.123703   88.535400
  C     52.972000   -2.059930   90.392900
  H     53.134100   -1.016470   90.558100
  H     53.910800   -2.580470   90.434000
  C     52.149200   -2.519870   91.592300
  H     51.321000   -1.852260   91.573600
  H     51.733200   -3.605200   91.523100
  C     52.867700   -2.355540   92.886100
  H     53.867900   -2.777040   92.726200
  H     52.959500   -1.365360   93.198200
  H     52.351300   -2.819680   93.701900
  S     50.726800    0.001070   84.758000
  C     51.217600    1.406980   83.875300
  C     52.268900    1.900120   84.582400
  C     52.785000    1.161780   85.680900
  C     52.048300    0.013074   85.924700
  H     52.618300    2.824660   84.274600
  C     54.081200    1.587890   86.330800
  H     54.882900    1.438500   85.610800
  H     54.242700    0.756431   87.131800
  C     54.084600    2.890910   87.122600
  H     53.259200    2.932900   87.771600
  H     53.802300    3.780150   86.505100
  C     55.365700    3.168650   87.863000
  H     55.218700    3.959000   88.580300
  H     56.178300    3.372000   87.212000
  H     55.609700    2.254960   88.361700
  H     51.880400   -4.122980   88.759000
  H     50.703900    1.925740   83.088000

 Total Charge           Charge          ....    0
 Multiplicity           Mult            ....    1
 Number of Electrons    NEL             ....  134
 Basis Dimension        Dim             ....  322

ORBITAL ENERGIES
----------------

  NO   OCC          E(Eh)            E(eV)
   0   2.0000     -88.967320     -2420.9238
   1   2.0000     -88.959848     -2420.7205
   2   2.0000     -10.333608      -281.1918
   3   2.0000     -10.332487      -281.1613
   4   2.0000     -10.314826      -280.6807
   5   2.0000     -10.310381      -280.5597
   6   2.0000     -10.303595      -280.3751
   7   2.0000     -10.299424      -280.2616
   8   2.0000     -10.298173      -280.2275
   9   2.0000     -10.293638      -280.1041
  10   2.0000     -10.286130      -279.8998
  11   2.0000     -10.285119      -279.8723
  12   2.0000     -10.284599      -279.8582
  13   2.0000     -10.283223      -279.8207
  14   2.0000     -10.272598      -279.5316
  15   2.0000     -10.270236      -279.4673
  16   2.0000      -8.082147      -219.9264
  17   2.0000      -8.074984      -219.7315
  18   2.0000      -6.040770      -164.3777
  19   2.0000      -6.036547      -164.2628
  20   2.0000      -6.033553      -164.1813
  21   2.0000      -6.032846      -164.1621
  22   2.0000      -6.029228      -164.0636
  23   2.0000      -6.025821      -163.9709
  24   2.0000      -1.012231       -27.5442
  25   2.0000      -0.993055       -27.0224
  26   2.0000      -0.917788       -24.9743
  27   2.0000      -0.914633       -24.8884
  28   2.0000      -0.878826       -23.9141
  29   2.0000      -0.859071       -23.3765
  30   2.0000      -0.852330       -23.1931
  31   2.0000      -0.823539       -22.4096
  32   2.0000      -0.781342       -21.2614
  33   2.0000      -0.774605       -21.0781
  34   2.0000      -0.711645       -19.3648
  35   2.0000      -0.706074       -19.2132
  36   2.0000      -0.697706       -18.9855
  37   2.0000      -0.664294       -18.0764
  38   2.0000      -0.644324       -17.5330
  39   2.0000      -0.621501       -16.9119
  40   2.0000      -0.599475       -16.3125
  41   2.0000      -0.574743       -15.6396
  42   2.0000      -0.574284       -15.6270
  43   2.0000      -0.563404       -15.3310
  44   2.0000      -0.541545       -14.7362
  45   2.0000      -0.528582       -14.3834
  46   2.0000      -0.521918       -14.2021
  47   2.0000      -0.515270       -14.0212
  48   2.0000      -0.512554       -13.9473
  49   2.0000      -0.507770       -13.8171
  50   2.0000      -0.500222       -13.6117
  51   2.0000      -0.480561       -13.0767
  52   2.0000      -0.477880       -13.0038
  53   2.0000      -0.469131       -12.7657
  54   2.0000      -0.461370       -12.5545
  55   2.0000      -0.449475       -12.2308
  56   2.0000      -0.448110       -12.1937
  57   2.0000      -0.442995       -12.0545
  58   2.0000      -0.430850       -11.7240
  59   2.0000      -0.420416       -11.4401
  60   2.0000      -0.416783       -11.3412
  61   2.0000      -0.408120       -11.1055
  62   2.0000      -0.406125       -11.0512
  63   2.0000      -0.361760        -9.8440
  64   2.0000      -0.331692        -9.0258
  65   2.0000      -0.326923        -8.8960
  66   2.0000      -0.293688        -7.9916
  67   0.0000       0.025752         0.7008
  68   0.0000       0.079240         2.1562
  69   0.0000       0.111467         3.0332
  70   0.0000       0.124087         3.3766
  71   0.0000       0.130043         3.5386

MULLIKEN ATOMIC CHARGES
-----------------------
   0 S :    0.121025
   1 C :   -0.078603
   2 C :   -0.108437
   3 C :    0.006495
   4 C :   -0.138960
   5 H :    0.033185
   6 C :    0.077547
   7 H :    0.004046
   8 H :    0.026944
   9 C :   -0.086311
  10 H :    0.018002
  11 H :    0.038046
  12 C :   -0.007168
  13 H :    0.023770
  14 H :    0.014491
  15 H :    0.029082
  16 S :    0.081657
  17 C :   -0.071574
  18 C :   -0.020841
  19 C :   -0.032577
  20 C :   -0.134232
  21 H :   -0.015814
  22 C :    0.022388
  23 H :    0.045336
  24 H :    0.019621
  25 C :   -0.068555
  26 H :    0.007293
  27 H :    0.021033
  28 C :    0.011397
  29 H :    0.035212
  30 H :    0.025645
  31 H :    0.011435
  32 H :    0.029908
  33 H :    0.059513
Sum of atomic charges:   -0.0000000

LOEWDIN ATOMIC CHARGES
----------------------
   0 S :    0.411636
   1 C :   -0.199776
   2 C :   -0.066217
   3 C :   -0.070389
   4 C :   -0.177816
   5 H :    0.040995
   6 C :   -0.033111
   7 H :    0.027515
   8 H :    0.027306
   9 C :   -0.044461
  10 H :    0.018890
  11 H :    0.028847
  12 C :   -0.058598
  13 H :    0.026822
  14 H :    0.017176
  15 H :    0.027651
  16 S :    0.403468
  17 C :   -0.185383
  18 C :   -0.069016
  19 C :   -0.067169
  20 C :   -0.184821
  21 H :    0.015241
  22 C :   -0.034798
  23 H :    0.033682
  24 H :    0.035265
  25 C :   -0.046052
  26 H :    0.017638
  27 H :    0.024306
  28 C :   -0.053008
  29 H :    0.028457
  30 H :    0.022356
  31 H :    0.021286
  32 H :    0.026183
  33 H :    0.035894

  Mayer bond orders larger than 0.100000
B(  0-S ,  1-C ) :   1.1407 B(  0-S ,  4-C ) :   1.1386 B(  1-C ,  2-C ) :   1.6072
B(  1-C , 32-H ) :   0.9764 B(  2-C ,  3-C ) :   1.2468 B(  2-C ,  6-C ) :   1.0208
B(  3-C ,  4-C ) :   1.6062 B(  3-C ,  5-H ) :   0.9721 B(  4-C , 20-C ) :   1.0341
B(  6-C ,  7-H ) :   0.9414 B(  6-C ,  8-H ) :   0.9274 B(  6-C ,  9-C ) :   1.0691
B(  9-C , 10-H ) :   0.9529 B(  9-C , 11-H ) :   0.9538 B(  9-C , 12-C ) :   1.0921
B( 12-C , 13-H ) :   0.9723 B( 12-C , 14-H ) :   0.9719 B( 12-C , 15-H ) :   0.9691
B( 16-S , 17-C ) :   1.1479 B( 16-S , 20-C ) :   1.1515 B( 17-C , 18-C ) :   1.5976
B( 17-C , 33-H ) :   0.9727 B( 18-C , 19-C ) :   1.2496 B( 18-C , 21-H ) :   0.9997
B( 19-C , 20-C ) :   1.5744 B( 19-C , 22-C ) :   1.0361 B( 22-C , 23-H ) :   0.9405
B( 22-C , 24-H ) :   0.9333 B( 22-C , 25-C ) :   1.0560 B( 25-C , 26-H ) :   0.9480
B( 25-C , 27-H ) :   0.9476 B( 25-C , 28-C ) :   1.0915 B( 28-C , 29-H ) :   0.9727
B( 28-C , 30-H ) :   0.9731 B( 28-C , 31-H ) :   0.9703

Dispersion correction           -0.013375330
FINAL SINGLE POINT ENERGY     -1339.863261965909

DIPOLE MOMENT
-------------
                                X             Y             Z
Electronic contribution:    -15.89216      -9.94127     -25.63033
Nuclear contribution   :     16.29628      10.40993      26.12286
                        -----------------------------------------
Total Dipole Moment    :      0.40412       0.46865       0.49253
                        -----------------------------------------
Magnitude (a.u.)       :      0.79090
Magnitude (Debye)      :      2.01032

Rotational constants in cm-1:     0.017471     0.008344     0.005962
Rotational constants in MHz :   523.778685   250.150678   178.736794

                             ****ORCA TERMINATED NORMALLY****
TOTAL RUN TIME: 0 days 0 hours 0 minutes 29 seconds 710 msec
