                         Program Version 4.2.1 -  RELEASE  -
|  1> ! wB97X-D3 SP def2-SVP
|  2> %pal
|  3> nprocs 16
|  4> end
|  5>
|  6> * xyz 0 1
|  7> S 	 -81.8716 	 32.9074 	 135.169
|  8> C 	 -80.8239 	 31.6077 	 134.677
|  9> C 	 -80.3406 	 31.7532 	 133.375
| 10> C 	 -80.9793 	 32.8902 	 132.762
| 11> C 	 -81.8029 	 33.6202 	 133.553
| 12> H 	 -80.7835 	 33.2295 	 131.736
| 13> C 	 -79.4684 	 30.7062 	 132.616
| 14> H 	 -79.3138 	 31.1294 	 131.61
| 15> H 	 -80.0362 	 29.7736 	 132.617
| 16> C 	 -78.0301 	 30.4794 	 133.145
| 17> H 	 -78.1862 	 30.0006 	 134.122
| 18> H 	 -77.6081 	 29.6155 	 132.548
| 19> C 	 -77.074 	 31.6678 	 133.282
| 20> H 	 -76.9199 	 32.1702 	 132.285
| 21> H 	 -77.4588 	 32.5005 	 133.918
| 22> H 	 -76.0683 	 31.3983 	 133.704
| 23> S 	 -83.7802 	 34.9449 	 132.358
| 24> C 	 -84.2058 	 36.4684 	 132.909
| 25> C 	 -83.3174 	 36.9489 	 133.897
| 26> C 	 -82.2878 	 36.0712 	 134.207
| 27> C 	 -82.3535 	 34.9316 	 133.352
| 28> H 	 -83.5184 	 37.8946 	 134.334
| 29> C 	 -81.2407 	 36.4541 	 135.253
| 30> H 	 -80.8515 	 35.4782 	 135.536
| 31> H 	 -81.5848 	 36.8315 	 136.209
| 32> C 	 -80.0817 	 37.2933 	 134.735
| 33> H 	 -80.5167 	 38.1801 	 134.341
| 34> H 	 -79.6618 	 36.7718 	 133.886
| 35> C 	 -79.0218 	 37.537 	 135.808
| 36> H 	 -79.4926 	 37.2504 	 136.803
| 37> H 	 -78.8072 	 38.522 	 135.718
| 38> H 	 -78.1111 	 36.9779 	 135.685
| 39> H 	 -80.6802 	 30.7678 	 135.335
| 40> H 	 -85.041 	 37.0617 	 132.555
| 41> *
| 42>
| 43>                          ****END OF INPUT****

CARTESIAN COORDINATES (ANGSTROEM)
---------------------------------
  S    -81.871600   32.907400  135.169000
  C    -80.823900   31.607700  134.677000
  C    -80.340600   31.753200  133.375000
  C    -80.979300   32.890200  132.762000
  C    -81.802900   33.620200  133.553000
  H    -80.783500   33.229500  131.736000
  C    -79.468400   30.706200  132.616000
  H    -79.313800   31.129400  131.610000
  H    -80.036200   29.773600  132.617000
  C    -78.030100   30.479400  133.145000
  H    -78.186200   30.000600  134.122000
  H    -77.608100   29.615500  132.548000
  C    -77.074000   31.667800  133.282000
  H    -76.919900   32.170200  132.285000
  H    -77.458800   32.500500  133.918000
  H    -76.068300   31.398300  133.704000
  S    -83.780200   34.944900  132.358000
  C    -84.205800   36.468400  132.909000
  C    -83.317400   36.948900  133.897000
  C    -82.287800   36.071200  134.207000
  C    -82.353500   34.931600  133.352000
  H    -83.518400   37.894600  134.334000
  C    -81.240700   36.454100  135.253000
  H    -80.851500   35.478200  135.536000
  H    -81.584800   36.831500  136.209000
  C    -80.081700   37.293300  134.735000
  H    -80.516700   38.180100  134.341000
  H    -79.661800   36.771800  133.886000
  C    -79.021800   37.537000  135.808000
  H    -79.492600   37.250400  136.803000
  H    -78.807200   38.522000  135.718000
  H    -78.111100   36.977900  135.685000
  H    -80.680200   30.767800  135.335000
  H    -85.041000   37.061700  132.555000

 Total Charge           Charge          ....    0
 Multiplicity           Mult            ....    1
 Number of Electrons    NEL             ....  134
 Basis Dimension        Dim             ....  322

ORBITAL ENERGIES
----------------

  NO   OCC          E(Eh)            E(eV)
   0   2.0000     -88.969160     -2420.9739
   1   2.0000     -88.962610     -2420.7957
   2   2.0000     -10.322352      -280.8855
   3   2.0000     -10.321309      -280.8571
   4   2.0000     -10.313270      -280.6383
   5   2.0000     -10.311897      -280.6010
   6   2.0000     -10.304812      -280.4082
   7   2.0000     -10.304292      -280.3940
   8   2.0000     -10.299488      -280.2633
   9   2.0000     -10.293660      -280.1047
  10   2.0000     -10.292515      -280.0736
  11   2.0000     -10.288324      -279.9595
  12   2.0000     -10.286080      -279.8985
  13   2.0000     -10.284985      -279.8687
  14   2.0000     -10.274972      -279.5962
  15   2.0000     -10.270139      -279.4647
  16   2.0000      -8.085131      -220.0076
  17   2.0000      -8.077113      -219.7894
  18   2.0000      -6.043220      -164.4444
  19   2.0000      -6.039268      -164.3368
  20   2.0000      -6.036459      -164.2604
  21   2.0000      -6.035511      -164.2346
  22   2.0000      -6.031662      -164.1299
  23   2.0000      -6.027983      -164.0298
  24   2.0000      -1.010685       -27.5021
  25   2.0000      -0.984329       -26.7850
  26   2.0000      -0.912762       -24.8375
  27   2.0000      -0.903882       -24.5959
  28   2.0000      -0.866821       -23.5874
  29   2.0000      -0.857926       -23.3454
  30   2.0000      -0.842586       -22.9279
  31   2.0000      -0.808423       -21.9983
  32   2.0000      -0.785498       -21.3745
  33   2.0000      -0.770267       -20.9600
  34   2.0000      -0.702966       -19.1287
  35   2.0000      -0.697392       -18.9770
  36   2.0000      -0.691026       -18.8038
  37   2.0000      -0.662282       -18.0216
  38   2.0000      -0.640008       -17.4155
  39   2.0000      -0.613796       -16.7022
  40   2.0000      -0.597980       -16.2719
  41   2.0000      -0.568143       -15.4599
  42   2.0000      -0.563807       -15.3420
  43   2.0000      -0.551242       -15.0001
  44   2.0000      -0.535750       -14.5785
  45   2.0000      -0.527493       -14.3538
  46   2.0000      -0.514771       -14.0076
  47   2.0000      -0.505698       -13.7607
  48   2.0000      -0.504116       -13.7177
  49   2.0000      -0.495827       -13.4921
  50   2.0000      -0.489333       -13.3154
  51   2.0000      -0.477659       -12.9978
  52   2.0000      -0.470629       -12.8065
  53   2.0000      -0.466344       -12.6899
  54   2.0000      -0.460905       -12.5419
  55   2.0000      -0.447739       -12.1836
  56   2.0000      -0.439545       -11.9606
  57   2.0000      -0.438843       -11.9415
  58   2.0000      -0.431440       -11.7401
  59   2.0000      -0.426926       -11.6172
  60   2.0000      -0.420507       -11.4426
  61   2.0000      -0.410225       -11.1628
  62   2.0000      -0.405222       -11.0266
  63   2.0000      -0.341757        -9.2997
  64   2.0000      -0.336933        -9.1684
  65   2.0000      -0.325315        -8.8523
  66   2.0000      -0.291201        -7.9240
  67   0.0000       0.035536         0.9670
  68   0.0000       0.060407         1.6438
  69   0.0000       0.110245         2.9999
  70   0.0000       0.119237         3.2446
  71   0.0000       0.128648         3.5007

MULLIKEN ATOMIC CHARGES
-----------------------
   0 S :    0.109223
   1 C :   -0.141984
   2 C :   -0.079480
   3 C :    0.011865
   4 C :   -0.129983
   5 H :    0.014764
   6 C :    0.058115
   7 H :    0.023520
   8 H :    0.052355
   9 C :   -0.086834
  10 H :    0.019577
  11 H :    0.038419
  12 C :   -0.076654
  13 H :    0.033054
  14 H :    0.049256
  15 H :    0.048505
  16 S :    0.142249
  17 C :   -0.097054
  18 C :   -0.036982
  19 C :   -0.041587
  20 C :   -0.178314
  21 H :    0.002654
  22 C :    0.062211
  23 H :    0.004744
  24 H :    0.023782
  25 C :   -0.053507
  26 H :    0.011999
  27 H :    0.023758
  28 C :    0.002344
  29 H :    0.034448
  30 H :    0.014602
  31 H :    0.035720
  32 H :    0.049333
  33 H :    0.055880
Sum of atomic charges:    0.0000000

LOEWDIN ATOMIC CHARGES
----------------------
   0 S :    0.408883
   1 C :   -0.194176
   2 C :   -0.067613
   3 C :   -0.065275
   4 C :   -0.200208
   5 H :    0.033379
   6 C :   -0.028382
   7 H :    0.029060
   8 H :    0.038663
   9 C :   -0.052707
  10 H :    0.019924
  11 H :    0.031595
  12 C :   -0.078250
  13 H :    0.028035
  14 H :    0.032779
  15 H :    0.034267
  16 S :    0.467896
  17 C :   -0.213101
  18 C :   -0.069592
  19 C :   -0.048872
  20 C :   -0.219374
  21 H :    0.024548
  22 C :   -0.036347
  23 H :    0.017778
  24 H :    0.026601
  25 C :   -0.033346
  26 H :    0.015266
  27 H :    0.025776
  28 C :   -0.053803
  29 H :    0.034039
  30 H :    0.014245
  31 H :    0.027553
  32 H :    0.022114
  33 H :    0.028642

  Mayer bond orders larger than 0.100000
B(  0-S ,  1-C ) :   1.1615 B(  0-S ,  4-C ) :   1.1276 B(  1-C ,  2-C ) :   1.5886
B(  1-C , 32-H ) :   0.9735 B(  2-C ,  3-C ) :   1.2484 B(  2-C ,  6-C ) :   1.0015
B(  3-C ,  4-C ) :   1.5998 B(  3-C ,  5-H ) :   0.9884 B(  4-C , 20-C ) :   1.0136
B(  6-C ,  7-H ) :   0.9437 B(  6-C ,  8-H ) :   0.9462 B(  6-C ,  9-C ) :   1.0729
B(  9-C , 10-H ) :   0.9542 B(  9-C , 11-H ) :   0.9556 B(  9-C , 12-C ) :   1.0692
B( 12-C , 13-H ) :   0.9745 B( 12-C , 14-H ) :   0.9716 B( 12-C , 15-H ) :   0.9738
B( 16-S , 17-C ) :   1.2101 B( 16-S , 20-C ) :   1.1874 B( 17-C , 18-C ) :   1.5290
B( 17-C , 20-C ) :   0.1123 B( 17-C , 33-H ) :   0.9670 B( 18-C , 19-C ) :   1.3086
B( 18-C , 21-H ) :   1.0010 B( 19-C , 20-C ) :   1.5092 B( 19-C , 22-C ) :   1.0340
B( 22-C , 23-H ) :   0.9185 B( 22-C , 24-H ) :   0.9360 B( 22-C , 25-C ) :   1.0755
B( 25-C , 26-H ) :   0.9640 B( 25-C , 27-H ) :   0.9499 B( 25-C , 28-C ) :   1.0631
B( 28-C , 29-H ) :   0.9776 B( 28-C , 30-H ) :   0.9733 B( 28-C , 31-H ) :   0.9758

Dispersion correction           -0.014114707
FINAL SINGLE POINT ENERGY     -1339.871651006861

DIPOLE MOMENT
-------------
                                X             Y             Z
Electronic contribution:    -25.59153      -1.39922      -3.80269
Nuclear contribution   :     25.90801       1.45484       3.81344
                        -----------------------------------------
Total Dipole Moment    :      0.31649       0.05562       0.01075
                        -----------------------------------------
Magnitude (a.u.)       :      0.32152
Magnitude (Debye)      :      0.81723

Rotational constants in cm-1:     0.018283     0.008707     0.006906
Rotational constants in MHz :   548.113385   261.034863   207.040699

                             ****ORCA TERMINATED NORMALLY****
TOTAL RUN TIME: 0 days 0 hours 0 minutes 32 seconds 599 msec
