                         Program Version 4.2.1 -  RELEASE  -
|  1> ! wB97X-D3 SP def2-SVP
|  2> %pal
|  3> nprocs 16
|  4> end
|  5>
|  6> * xyz 0 1
|  7> S 	 17.5782 	 -8.87563 	 81.6481
|  8> C 	 15.8708 	 -8.50106 	 81.5397
|  9> C 	 15.0719 	 -9.61779 	 81.4588
| 10> C 	 15.8268 	 -10.7991 	 81.5767
| 11> C 	 17.1764 	 -10.5703 	 81.574
| 12> H 	 15.4543 	 -11.7741 	 81.375
| 13> C 	 13.6027 	 -9.60719 	 81.078
| 14> H 	 13.1171 	 -8.62896 	 81.27
| 15> H 	 13.0805 	 -10.2711 	 81.7448
| 16> C 	 13.2448 	 -9.97451 	 79.6699
| 17> H 	 13.7797 	 -9.31857 	 78.9714
| 18> H 	 13.4809 	 -11.0054 	 79.4741
| 19> C 	 11.814 	 -10.0108 	 79.2992
| 20> H 	 11.2915 	 -10.7867 	 79.7647
| 21> H 	 11.1651 	 -9.24759 	 79.6835
| 22> H 	 11.751 	 -9.9902 	 78.249
| 23> S 	 19.1266 	 -11.8938 	 83.1225
| 24> C 	 19.9299 	 -13.2207 	 82.3564
| 25> C 	 19.6807 	 -13.2796 	 81.023
| 26> C 	 18.7011 	 -12.3961 	 80.5362
| 27> C 	 18.2251 	 -11.6267 	 81.612
| 28> H 	 20.1816 	 -14.0943 	 80.3995
| 29> C 	 18.1708 	 -12.3047 	 79.1434
| 30> H 	 18.885 	 -12.7057 	 78.3921
| 31> H 	 18.2522 	 -11.2451 	 78.8392
| 32> C 	 16.6984 	 -12.8376 	 78.9675
| 33> H 	 16.4968 	 -12.7925 	 77.8748
| 34> H 	 15.8699 	 -12.2629 	 79.3861
| 35> C 	 16.4316 	 -14.219 	 79.5334
| 36> H 	 16.931 	 -14.8426 	 78.784
| 37> H 	 15.3961 	 -14.6149 	 79.4404
| 38> H 	 16.8653 	 -14.4471 	 80.4923
| 39> H 	 15.494 	 -7.48988 	 81.3781
| 40> H 	 20.5418 	 -13.9167 	 82.9361
| 41> *
| 42>
| 43>                          ****END OF INPUT****

CARTESIAN COORDINATES (ANGSTROEM)
---------------------------------
  S     17.578200   -8.875630   81.648100
  C     15.870800   -8.501060   81.539700
  C     15.071900   -9.617790   81.458800
  C     15.826800  -10.799100   81.576700
  C     17.176400  -10.570300   81.574000
  H     15.454300  -11.774100   81.375000
  C     13.602700   -9.607190   81.078000
  H     13.117100   -8.628960   81.270000
  H     13.080500  -10.271100   81.744800
  C     13.244800   -9.974510   79.669900
  H     13.779700   -9.318570   78.971400
  H     13.480900  -11.005400   79.474100
  C     11.814000  -10.010800   79.299200
  H     11.291500  -10.786700   79.764700
  H     11.165100   -9.247590   79.683500
  H     11.751000   -9.990200   78.249000
  S     19.126600  -11.893800   83.122500
  C     19.929900  -13.220700   82.356400
  C     19.680700  -13.279600   81.023000
  C     18.701100  -12.396100   80.536200
  C     18.225100  -11.626700   81.612000
  H     20.181600  -14.094300   80.399500
  C     18.170800  -12.304700   79.143400
  H     18.885000  -12.705700   78.392100
  H     18.252200  -11.245100   78.839200
  C     16.698400  -12.837600   78.967500
  H     16.496800  -12.792500   77.874800
  H     15.869900  -12.262900   79.386100
  C     16.431600  -14.219000   79.533400
  H     16.931000  -14.842600   78.784000
  H     15.396100  -14.614900   79.440400
  H     16.865300  -14.447100   80.492300
  H     15.494000   -7.489880   81.378100
  H     20.541800  -13.916700   82.936100

 Total Charge           Charge          ....    0
 Multiplicity           Mult            ....    1
 Number of Electrons    NEL             ....  134
 Basis Dimension        Dim             ....  322

ORBITAL ENERGIES
----------------

  NO   OCC          E(Eh)            E(eV)
   0   2.0000     -88.967143     -2420.9190
   1   2.0000     -88.965534     -2420.8753
   2   2.0000     -10.326006      -280.9849
   3   2.0000     -10.324884      -280.9544
   4   2.0000     -10.313372      -280.6411
   5   2.0000     -10.310707      -280.5686
   6   2.0000     -10.302664      -280.3497
   7   2.0000     -10.299918      -280.2750
   8   2.0000     -10.296880      -280.1923
   9   2.0000     -10.293952      -280.1127
  10   2.0000     -10.290210      -280.0109
  11   2.0000     -10.289889      -280.0021
  12   2.0000     -10.286224      -279.9024
  13   2.0000     -10.279896      -279.7302
  14   2.0000     -10.274162      -279.5742
  15   2.0000     -10.264997      -279.3248
  16   2.0000      -8.081895      -219.9195
  17   2.0000      -8.080325      -219.8768
  18   2.0000      -6.040279      -164.3644
  19   2.0000      -6.038633      -164.3196
  20   2.0000      -6.036493      -164.2613
  21   2.0000      -6.034937      -164.2190
  22   2.0000      -6.032702      -164.1582
  23   2.0000      -6.031186      -164.1169
  24   2.0000      -1.006456       -27.3870
  25   2.0000      -0.986881       -26.8544
  26   2.0000      -0.920954       -25.0604
  27   2.0000      -0.907101       -24.6835
  28   2.0000      -0.868051       -23.6209
  29   2.0000      -0.853025       -23.2120
  30   2.0000      -0.851714       -23.1763
  31   2.0000      -0.815093       -22.1798
  32   2.0000      -0.788885       -21.4666
  33   2.0000      -0.773422       -21.0459
  34   2.0000      -0.705087       -19.1864
  35   2.0000      -0.700996       -19.0751
  36   2.0000      -0.688248       -18.7282
  37   2.0000      -0.653425       -17.7806
  38   2.0000      -0.643885       -17.5210
  39   2.0000      -0.620040       -16.8721
  40   2.0000      -0.597074       -16.2472
  41   2.0000      -0.578199       -15.7336
  42   2.0000      -0.559195       -15.2165
  43   2.0000      -0.551521       -15.0076
  44   2.0000      -0.547955       -14.9106
  45   2.0000      -0.539851       -14.6901
  46   2.0000      -0.515033       -14.0148
  47   2.0000      -0.507354       -13.8058
  48   2.0000      -0.502828       -13.6826
  49   2.0000      -0.495153       -13.4738
  50   2.0000      -0.485600       -13.2139
  51   2.0000      -0.481632       -13.1059
  52   2.0000      -0.469550       -12.7771
  53   2.0000      -0.463945       -12.6246
  54   2.0000      -0.454380       -12.3643
  55   2.0000      -0.447647       -12.1811
  56   2.0000      -0.445277       -12.1166
  57   2.0000      -0.440076       -11.9751
  58   2.0000      -0.437842       -11.9143
  59   2.0000      -0.430015       -11.7013
  60   2.0000      -0.427112       -11.6223
  61   2.0000      -0.410128       -11.1601
  62   2.0000      -0.397970       -10.8293
  63   2.0000      -0.338633        -9.2147
  64   2.0000      -0.332267        -9.0414
  65   2.0000      -0.324411        -8.8277
  66   2.0000      -0.300764        -8.1842
  67   0.0000       0.044239         1.2038
  68   0.0000       0.053232         1.4485
  69   0.0000       0.113921         3.0999
  70   0.0000       0.120306         3.2737
  71   0.0000       0.132345         3.6013

MULLIKEN ATOMIC CHARGES
-----------------------
   0 S :    0.122286
   1 C :   -0.129269
   2 C :   -0.068098
   3 C :    0.074241
   4 C :   -0.191146
   5 H :    0.003804
   6 C :    0.071597
   7 H :    0.014832
   8 H :    0.012514
   9 C :   -0.065865
  10 H :    0.028479
  11 H :    0.024200
  12 C :    0.006424
  13 H :    0.005560
  14 H :    0.000447
  15 H :    0.031345
  16 S :    0.117797
  17 C :   -0.102642
  18 C :   -0.054591
  19 C :   -0.027466
  20 C :   -0.195983
  21 H :    0.037132
  22 C :    0.101718
  23 H :    0.025557
  24 H :    0.037255
  25 C :   -0.081288
  26 H :    0.028945
  27 H :    0.029527
  28 C :   -0.066266
  29 H :    0.014442
  30 H :    0.035770
  31 H :    0.053143
  32 H :    0.045599
  33 H :    0.059999
Sum of atomic charges:    0.0000000

LOEWDIN ATOMIC CHARGES
----------------------
   0 S :    0.408792
   1 C :   -0.196701
   2 C :   -0.062836
   3 C :   -0.053503
   4 C :   -0.194358
   5 H :    0.026588
   6 C :   -0.032175
   7 H :    0.030890
   8 H :    0.026896
   9 C :   -0.041792
  10 H :    0.026265
  11 H :    0.024157
  12 C :   -0.059253
  13 H :    0.019189
  14 H :    0.019777
  15 H :    0.027359
  16 S :    0.403873
  17 C :   -0.192681
  18 C :   -0.084760
  19 C :   -0.058085
  20 C :   -0.192433
  21 H :    0.042149
  22 C :   -0.034307
  23 H :    0.036479
  24 H :    0.042565
  25 C :   -0.042687
  26 H :    0.027897
  27 H :    0.019803
  28 C :   -0.077348
  29 H :    0.025311
  30 H :    0.031210
  31 H :    0.025760
  32 H :    0.027116
  33 H :    0.030843

  Mayer bond orders larger than 0.100000
B(  0-S ,  1-C ) :   1.1372 B(  0-S ,  4-C ) :   1.1617 B(  1-C ,  2-C ) :   1.6241
B(  1-C , 32-H ) :   0.9636 B(  2-C ,  3-C ) :   1.2433 B(  2-C ,  6-C ) :   1.0337
B(  3-C ,  4-C ) :   1.5995 B(  3-C ,  5-H ) :   0.9866 B(  4-C , 20-C ) :   1.0039
B(  6-C ,  7-H ) :   0.9359 B(  6-C ,  8-H ) :   0.9294 B(  6-C ,  9-C ) :   1.0843
B(  9-C , 10-H ) :   0.9560 B(  9-C , 11-H ) :   0.9446 B(  9-C , 12-C ) :   1.0870
B( 12-C , 13-H ) :   0.9672 B( 12-C , 14-H ) :   0.9653 B( 12-C , 15-H ) :   0.9721
B( 16-S , 17-C ) :   1.1556 B( 16-S , 20-C ) :   1.1601 B( 17-C , 18-C ) :   1.6104
B( 17-C , 20-C ) :   0.1013 B( 17-C , 33-H ) :   0.9664 B( 18-C , 19-C ) :   1.2482
B( 18-C , 21-H ) :   0.9770 B( 19-C , 20-C ) :   1.5809 B( 19-C , 22-C ) :   1.0480
B( 22-C , 23-H ) :   0.9367 B( 22-C , 24-H ) :   0.9184 B( 22-C , 25-C ) :   1.0529
B( 25-C , 26-H ) :   0.9559 B( 25-C , 27-H ) :   0.9585 B( 25-C , 28-C ) :   1.0653
B( 28-C , 29-H ) :   0.9751 B( 28-C , 30-H ) :   0.9735 B( 28-C , 31-H ) :   0.9723

Dispersion correction           -0.015930355
FINAL SINGLE POINT ENERGY     -1339.867828183608

DIPOLE MOMENT
-------------
                                X             Y             Z
Electronic contribution:     23.74868       8.35123      18.75651
Nuclear contribution   :    -24.15039      -8.63194     -19.32347
                        -----------------------------------------
Total Dipole Moment    :     -0.40171      -0.28071      -0.56696
                        -----------------------------------------
Magnitude (a.u.)       :      0.74941
Magnitude (Debye)      :      1.90485

Rotational constants in cm-1:     0.020558     0.009352     0.007224
Rotational constants in MHz :   616.303970   280.353812   216.563051

                             ****ORCA TERMINATED NORMALLY****
TOTAL RUN TIME: 0 days 0 hours 0 minutes 30 seconds 721 msec
