                         Program Version 4.2.1 -  RELEASE  -
|  1> ! wB97X-D3 SP def2-SVP
|  2> %pal
|  3> nprocs 16
|  4> end
|  5>
|  6> * xyz 0 1
|  7> S 	 -57.8061 	 43.7794 	 114.5
|  8> C 	 -57.8245 	 44.229 	 112.802
|  9> C 	 -56.9857 	 43.4148 	 112.112
| 10> C 	 -56.3068 	 42.4302 	 112.852
| 11> C 	 -56.7504 	 42.4886 	 114.146
| 12> H 	 -55.568 	 41.7379 	 112.48
| 13> C 	 -56.979 	 43.5199 	 110.662
| 14> H 	 -56.111 	 42.9586 	 110.284
| 15> H 	 -56.7619 	 44.5353 	 110.368
| 16> C 	 -58.2649 	 43.0581 	 109.932
| 17> H 	 -58.4705 	 42.0491 	 110.153
| 18> H 	 -59.1673 	 43.5338 	 110.199
| 19> C 	 -58.2036 	 43.1392 	 108.431
| 20> H 	 -59.0874 	 42.6624 	 107.97
| 21> H 	 -58.1079 	 44.2008 	 107.993
| 22> H 	 -57.2568 	 42.6463 	 108.043
| 23> S 	 -54.7608 	 42.5685 	 115.985
| 24> C 	 -54.4836 	 41.2348 	 117.073
| 25> C 	 -55.3698 	 40.1878 	 116.807
| 26> C 	 -56.2452 	 40.5162 	 115.707
| 27> C 	 -56.1049 	 41.8034 	 115.273
| 28> H 	 -55.3485 	 39.3064 	 117.404
| 29> C 	 -57.1912 	 39.5636 	 115.091
| 30> H 	 -56.7331 	 38.8873 	 114.398
| 31> H 	 -57.9176 	 40.2019 	 114.527
| 32> C 	 -58.0831 	 38.8505 	 116.166
| 33> H 	 -57.5294 	 38.0753 	 116.726
| 34> H 	 -58.7795 	 38.3011 	 115.555
| 35> C 	 -58.7981 	 39.8343 	 117.135
| 36> H 	 -59.1006 	 40.732 	 116.569
| 37> H 	 -58.2098 	 40.1131 	 118.071
| 38> H 	 -59.6176 	 39.2541 	 117.466
| 39> H 	 -58.4531 	 44.9965 	 112.417
| 40> H 	 -53.8831 	 41.3251 	 118.003
| 41> *
| 42>
| 43>                          ****END OF INPUT****

CARTESIAN COORDINATES (ANGSTROEM)
---------------------------------
  S    -57.806100   43.779400  114.500000
  C    -57.824500   44.229000  112.802000
  C    -56.985700   43.414800  112.112000
  C    -56.306800   42.430200  112.852000
  C    -56.750400   42.488600  114.146000
  H    -55.568000   41.737900  112.480000
  C    -56.979000   43.519900  110.662000
  H    -56.111000   42.958600  110.284000
  H    -56.761900   44.535300  110.368000
  C    -58.264900   43.058100  109.932000
  H    -58.470500   42.049100  110.153000
  H    -59.167300   43.533800  110.199000
  C    -58.203600   43.139200  108.431000
  H    -59.087400   42.662400  107.970000
  H    -58.107900   44.200800  107.993000
  H    -57.256800   42.646300  108.043000
  S    -54.760800   42.568500  115.985000
  C    -54.483600   41.234800  117.073000
  C    -55.369800   40.187800  116.807000
  C    -56.245200   40.516200  115.707000
  C    -56.104900   41.803400  115.273000
  H    -55.348500   39.306400  117.404000
  C    -57.191200   39.563600  115.091000
  H    -56.733100   38.887300  114.398000
  H    -57.917600   40.201900  114.527000
  C    -58.083100   38.850500  116.166000
  H    -57.529400   38.075300  116.726000
  H    -58.779500   38.301100  115.555000
  C    -58.798100   39.834300  117.135000
  H    -59.100600   40.732000  116.569000
  H    -58.209800   40.113100  118.071000
  H    -59.617600   39.254100  117.466000
  H    -58.453100   44.996500  112.417000
  H    -53.883100   41.325100  118.003000

 Total Charge           Charge          ....    0
 Multiplicity           Mult            ....    1
 Number of Electrons    NEL             ....  134
 Basis Dimension        Dim             ....  322

ORBITAL ENERGIES
----------------

  NO   OCC          E(Eh)            E(eV)
   0   2.0000     -88.966366     -2420.8979
   1   2.0000     -88.959117     -2420.7006
   2   2.0000     -10.323098      -280.9058
   3   2.0000     -10.316334      -280.7217
   4   2.0000     -10.312948      -280.6296
   5   2.0000     -10.307025      -280.4684
   6   2.0000     -10.293176      -280.0916
   7   2.0000     -10.292633      -280.0768
   8   2.0000     -10.291767      -280.0532
   9   2.0000     -10.290797      -280.0268
  10   2.0000     -10.286893      -279.9206
  11   2.0000     -10.285873      -279.8928
  12   2.0000     -10.285257      -279.8761
  13   2.0000     -10.284564      -279.8572
  14   2.0000     -10.278408      -279.6897
  15   2.0000     -10.277637      -279.6687
  16   2.0000      -8.081914      -219.9200
  17   2.0000      -8.075051      -219.7333
  18   2.0000      -6.040167      -164.3613
  19   2.0000      -6.036289      -164.2558
  20   2.0000      -6.033461      -164.1788
  21   2.0000      -6.032910      -164.1638
  22   2.0000      -6.029327      -164.0663
  23   2.0000      -6.025901      -163.9731
  24   2.0000      -1.016474       -27.6597
  25   2.0000      -0.990352       -26.9488
  26   2.0000      -0.918046       -24.9813
  27   2.0000      -0.905462       -24.6389
  28   2.0000      -0.870235       -23.6803
  29   2.0000      -0.855965       -23.2920
  30   2.0000      -0.841315       -22.8933
  31   2.0000      -0.818616       -22.2757
  32   2.0000      -0.779762       -21.2184
  33   2.0000      -0.766637       -20.8613
  34   2.0000      -0.704761       -19.1775
  35   2.0000      -0.700563       -19.0633
  36   2.0000      -0.691622       -18.8200
  37   2.0000      -0.655536       -17.8380
  38   2.0000      -0.650243       -17.6940
  39   2.0000      -0.620326       -16.8799
  40   2.0000      -0.593156       -16.1406
  41   2.0000      -0.572425       -15.5765
  42   2.0000      -0.558754       -15.2045
  43   2.0000      -0.557792       -15.1783
  44   2.0000      -0.535495       -14.5716
  45   2.0000      -0.528460       -14.3801
  46   2.0000      -0.520146       -14.1539
  47   2.0000      -0.516575       -14.0567
  48   2.0000      -0.508138       -13.8271
  49   2.0000      -0.497875       -13.5479
  50   2.0000      -0.489360       -13.3162
  51   2.0000      -0.478755       -13.0276
  52   2.0000      -0.467383       -12.7181
  53   2.0000      -0.459644       -12.5075
  54   2.0000      -0.453570       -12.3423
  55   2.0000      -0.445559       -12.1243
  56   2.0000      -0.444810       -12.1039
  57   2.0000      -0.440308       -11.9814
  58   2.0000      -0.431937       -11.7536
  59   2.0000      -0.425832       -11.5875
  60   2.0000      -0.416241       -11.3265
  61   2.0000      -0.413937       -11.2638
  62   2.0000      -0.410462       -11.1692
  63   2.0000      -0.341195        -9.2844
  64   2.0000      -0.324574        -8.8321
  65   2.0000      -0.317086        -8.6283
  66   2.0000      -0.312418        -8.5013
  67   0.0000       0.045041         1.2256
  68   0.0000       0.060930         1.6580
  69   0.0000       0.117621         3.2006
  70   0.0000       0.123481         3.3601
  71   0.0000       0.134651         3.6640

MULLIKEN ATOMIC CHARGES
-----------------------
   0 S :    0.121659
   1 C :   -0.125750
   2 C :   -0.061380
   3 C :    0.055194
   4 C :   -0.182232
   5 H :    0.018077
   6 C :    0.071387
   7 H :    0.007994
   8 H :    0.020269
   9 C :   -0.006679
  10 H :    0.010901
  11 H :    0.011597
  12 C :   -0.102306
  13 H :    0.044050
  14 H :    0.036181
  15 H :    0.030152
  16 S :    0.118401
  17 C :   -0.116369
  18 C :   -0.025141
  19 C :   -0.036596
  20 C :   -0.167945
  21 H :    0.010134
  22 C :    0.065404
  23 H :    0.037269
  24 H :    0.031001
  25 C :   -0.106494
  26 H :    0.028789
  27 H :    0.022994
  28 C :   -0.040322
  29 H :    0.037319
  30 H :    0.050362
  31 H :    0.028604
  32 H :    0.039267
  33 H :    0.074212
Sum of atomic charges:   -0.0000000

LOEWDIN ATOMIC CHARGES
----------------------
   0 S :    0.429631
   1 C :   -0.186228
   2 C :   -0.068460
   3 C :   -0.054051
   4 C :   -0.205971
   5 H :    0.037722
   6 C :   -0.032105
   7 H :    0.029128
   8 H :    0.029695
   9 C :   -0.036736
  10 H :    0.021420
  11 H :    0.018744
  12 C :   -0.075209
  13 H :    0.029272
  14 H :    0.027961
  15 H :    0.025944
  16 S :    0.425378
  17 C :   -0.196526
  18 C :   -0.065951
  19 C :   -0.062366
  20 C :   -0.225155
  21 H :    0.026644
  22 C :   -0.033814
  23 H :    0.028635
  24 H :    0.033878
  25 C :   -0.040961
  26 H :    0.019455
  27 H :    0.020150
  28 C :   -0.066359
  29 H :    0.028591
  30 H :    0.036330
  31 H :    0.021972
  32 H :    0.022763
  33 H :    0.036578

  Mayer bond orders larger than 0.100000
B(  0-S ,  1-C ) :   1.1304 B(  0-S ,  4-C ) :   1.1956 B(  1-C ,  2-C ) :   1.5847
B(  1-C , 32-H ) :   0.9837 B(  2-C ,  3-C ) :   1.2462 B(  2-C ,  6-C ) :   1.0460
B(  3-C ,  4-C ) :   1.5517 B(  3-C ,  5-H ) :   1.0049 B(  4-C , 20-C ) :   0.9676
B(  6-C ,  7-H ) :   0.9336 B(  6-C ,  8-H ) :   0.9301 B(  6-C ,  9-C ) :   1.0618
B(  9-C , 10-H ) :   0.9485 B(  9-C , 11-H ) :   0.9505 B(  9-C , 12-C ) :   1.0897
B( 12-C , 13-H ) :   0.9728 B( 12-C , 14-H ) :   0.9738 B( 12-C , 15-H ) :   0.9730
B( 16-S , 17-C ) :   1.1640 B( 16-S , 20-C ) :   1.1583 B( 17-C , 18-C ) :   1.6028
B( 17-C , 33-H ) :   0.9603 B( 18-C , 19-C ) :   1.2213 B( 18-C , 21-H ) :   0.9997
B( 19-C , 20-C ) :   1.6193 B( 19-C , 22-C ) :   1.0521 B( 22-C , 23-H ) :   0.9346
B( 22-C , 24-H ) :   0.9297 B( 22-C , 25-C ) :   1.0710 B( 25-C , 26-H ) :   0.9523
B( 25-C , 27-H ) :   0.9625 B( 25-C , 28-C ) :   1.0673 B( 28-C , 29-H ) :   0.9757
B( 28-C , 30-H ) :   0.9711 B( 28-C , 31-H ) :   0.9741

Dispersion correction           -0.014702718
FINAL SINGLE POINT ENERGY     -1339.879038202478

DIPOLE MOMENT
-------------
                                X             Y             Z
Electronic contribution:     12.07089      10.90565      15.27336
Nuclear contribution   :    -12.25361     -11.24096     -15.60543
                        -----------------------------------------
Total Dipole Moment    :     -0.18272      -0.33531      -0.33207
                        -----------------------------------------
Magnitude (a.u.)       :      0.50605
Magnitude (Debye)      :      1.28629

Rotational constants in cm-1:     0.022932     0.007592     0.006796
Rotational constants in MHz :   687.496784   227.592098   203.745350

                             ****ORCA TERMINATED NORMALLY****
TOTAL RUN TIME: 0 days 0 hours 0 minutes 30 seconds 156 msec
