                         Program Version 4.2.1 -  RELEASE  -
|  1> ! wB97X-D3 SP def2-SVP
|  2> %pal
|  3> nprocs 16
|  4> end
|  5>
|  6> * xyz 0 1
|  7> S 	 47.5296 	 16.8276 	 79.6762
|  8> C 	 47.6704 	 16.8889 	 81.4182
|  9> C 	 48.8196 	 16.2713 	 81.841
| 10> C 	 49.6249 	 15.9286 	 80.751
| 11> C 	 49.0775 	 16.1594 	 79.5089
| 12> H 	 50.5221 	 15.4054 	 80.7496
| 13> C 	 49.2821 	 16.0448 	 83.3036
| 14> H 	 50.2745 	 15.509 	 83.2053
| 15> H 	 48.6261 	 15.3367 	 83.7843
| 16> C 	 49.3646 	 17.3013 	 84.1714
| 17> H 	 48.4337 	 17.8184 	 84.149
| 18> H 	 49.4602 	 17.0257 	 85.2093
| 19> C 	 50.4945 	 18.2709 	 83.7223
| 20> H 	 51.4576 	 17.7654 	 83.8708
| 21> H 	 50.4543 	 18.3603 	 82.6309
| 22> H 	 50.6175 	 19.3042 	 84.0926
| 23> S 	 48.82 	 13.958 	 77.7884
| 24> C 	 49.8276 	 13.9115 	 76.3319
| 25> C 	 50.6772 	 15.0126 	 76.2464
| 26> C 	 50.4417 	 15.9687 	 77.3077
| 27> C 	 49.508 	 15.5284 	 78.234
| 28> H 	 51.3756 	 15.127 	 75.3843
| 29> C 	 51.2706 	 17.2503 	 77.4444
| 30> H 	 51.1233 	 17.8642 	 78.3148
| 31> H 	 51.0303 	 17.8698 	 76.5558
| 32> C 	 52.8362 	 17.0623 	 77.5597
| 33> H 	 53.3851 	 17.9611 	 77.4137
| 34> H 	 53.1812 	 16.2719 	 76.8622
| 35> C 	 53.2057 	 16.4843 	 78.926
| 36> H 	 52.9446 	 15.4278 	 78.8899
| 37> H 	 52.7232 	 17.0018 	 79.7411
| 38> H 	 54.2501 	 16.334 	 79.1463
| 39> H 	 46.9259 	 17.3316 	 82.1436
| 40> H 	 49.7305 	 13.0626 	 75.6957
| 41> *
| 42>
| 43>                          ****END OF INPUT****

CARTESIAN COORDINATES (ANGSTROEM)
---------------------------------
  S     47.529600   16.827600   79.676200
  C     47.670400   16.888900   81.418200
  C     48.819600   16.271300   81.841000
  C     49.624900   15.928600   80.751000
  C     49.077500   16.159400   79.508900
  H     50.522100   15.405400   80.749600
  C     49.282100   16.044800   83.303600
  H     50.274500   15.509000   83.205300
  H     48.626100   15.336700   83.784300
  C     49.364600   17.301300   84.171400
  H     48.433700   17.818400   84.149000
  H     49.460200   17.025700   85.209300
  C     50.494500   18.270900   83.722300
  H     51.457600   17.765400   83.870800
  H     50.454300   18.360300   82.630900
  H     50.617500   19.304200   84.092600
  S     48.820000   13.958000   77.788400
  C     49.827600   13.911500   76.331900
  C     50.677200   15.012600   76.246400
  C     50.441700   15.968700   77.307700
  C     49.508000   15.528400   78.234000
  H     51.375600   15.127000   75.384300
  C     51.270600   17.250300   77.444400
  H     51.123300   17.864200   78.314800
  H     51.030300   17.869800   76.555800
  C     52.836200   17.062300   77.559700
  H     53.385100   17.961100   77.413700
  H     53.181200   16.271900   76.862200
  C     53.205700   16.484300   78.926000
  H     52.944600   15.427800   78.889900
  H     52.723200   17.001800   79.741100
  H     54.250100   16.334000   79.146300
  H     46.925900   17.331600   82.143600
  H     49.730500   13.062600   75.695700

 Total Charge           Charge          ....    0
 Multiplicity           Mult            ....    1
 Number of Electrons    NEL             ....  134
 Basis Dimension        Dim             ....  322

ORBITAL ENERGIES
----------------

  NO   OCC          E(Eh)            E(eV)
   0   2.0000     -88.966320     -2420.8966
   1   2.0000     -88.965166     -2420.8652
   2   2.0000     -10.328899      -281.0636
   3   2.0000     -10.322659      -280.8938
   4   2.0000     -10.321415      -280.8600
   5   2.0000     -10.316437      -280.7245
   6   2.0000     -10.309249      -280.5289
   7   2.0000     -10.304606      -280.4026
   8   2.0000     -10.299080      -280.2522
   9   2.0000     -10.298047      -280.2241
  10   2.0000     -10.295123      -280.1445
  11   2.0000     -10.287450      -279.9357
  12   2.0000     -10.286843      -279.9192
  13   2.0000     -10.283095      -279.8172
  14   2.0000     -10.277961      -279.6775
  15   2.0000     -10.269408      -279.4448
  16   2.0000      -8.081921      -219.9202
  17   2.0000      -8.079463      -219.8534
  18   2.0000      -6.040248      -164.3635
  19   2.0000      -6.037923      -164.3002
  20   2.0000      -6.036186      -164.2530
  21   2.0000      -6.034075      -164.1955
  22   2.0000      -6.032921      -164.1641
  23   2.0000      -6.030259      -164.0917
  24   2.0000      -1.010407       -27.4946
  25   2.0000      -0.982698       -26.7406
  26   2.0000      -0.910271       -24.7697
  27   2.0000      -0.904002       -24.5991
  28   2.0000      -0.864013       -23.5110
  29   2.0000      -0.847871       -23.0717
  30   2.0000      -0.845997       -23.0208
  31   2.0000      -0.810395       -22.0520
  32   2.0000      -0.782821       -21.3016
  33   2.0000      -0.773167       -21.0389
  34   2.0000      -0.709248       -19.2996
  35   2.0000      -0.699025       -19.0214
  36   2.0000      -0.692255       -18.8372
  37   2.0000      -0.655950       -17.8493
  38   2.0000      -0.643973       -17.5234
  39   2.0000      -0.614204       -16.7133
  40   2.0000      -0.602102       -16.3840
  41   2.0000      -0.573122       -15.5954
  42   2.0000      -0.553011       -15.0482
  43   2.0000      -0.551120       -14.9967
  44   2.0000      -0.546496       -14.8709
  45   2.0000      -0.535388       -14.5687
  46   2.0000      -0.517946       -14.0940
  47   2.0000      -0.505971       -13.7682
  48   2.0000      -0.496331       -13.5058
  49   2.0000      -0.486191       -13.2299
  50   2.0000      -0.484077       -13.1724
  51   2.0000      -0.473646       -12.8886
  52   2.0000      -0.470541       -12.8041
  53   2.0000      -0.464855       -12.6493
  54   2.0000      -0.461557       -12.5596
  55   2.0000      -0.445351       -12.1186
  56   2.0000      -0.439652       -11.9635
  57   2.0000      -0.437400       -11.9023
  58   2.0000      -0.435292       -11.8449
  59   2.0000      -0.428724       -11.6662
  60   2.0000      -0.422472       -11.4960
  61   2.0000      -0.416281       -11.3276
  62   2.0000      -0.411727       -11.2037
  63   2.0000      -0.339807        -9.2466
  64   2.0000      -0.329242        -8.9591
  65   2.0000      -0.324066        -8.8183
  66   2.0000      -0.310588        -8.4515
  67   0.0000       0.045102         1.2273
  68   0.0000       0.052943         1.4406
  69   0.0000       0.115573         3.1449
  70   0.0000       0.123955         3.3730
  71   0.0000       0.128370         3.4931

MULLIKEN ATOMIC CHARGES
-----------------------
   0 S :    0.127990
   1 C :   -0.154265
   2 C :   -0.079749
   3 C :    0.057176
   4 C :   -0.176687
   5 H :   -0.019918
   6 C :    0.058204
   7 H :    0.030336
   8 H :    0.036081
   9 C :   -0.031285
  10 H :    0.016676
  11 H :    0.025936
  12 C :   -0.069560
  13 H :    0.019423
  14 H :    0.031060
  15 H :    0.045415
  16 S :    0.106418
  17 C :   -0.102597
  18 C :   -0.032826
  19 C :   -0.023022
  20 C :   -0.172915
  21 H :    0.043979
  22 C :    0.061219
  23 H :    0.028506
  24 H :    0.042411
  25 C :   -0.072367
  26 H :    0.031931
  27 H :    0.027403
  28 C :   -0.065614
  29 H :    0.028634
  30 H :    0.032030
  31 H :    0.025540
  32 H :    0.067782
  33 H :    0.056655
Sum of atomic charges:    0.0000000

LOEWDIN ATOMIC CHARGES
----------------------
   0 S :    0.441453
   1 C :   -0.206749
   2 C :   -0.070739
   3 C :   -0.058522
   4 C :   -0.219520
   5 H :    0.020000
   6 C :   -0.024788
   7 H :    0.035417
   8 H :    0.032133
   9 C :   -0.036398
  10 H :    0.018309
  11 H :    0.023074
  12 C :   -0.075433
  13 H :    0.023935
  14 H :    0.027077
  15 H :    0.029294
  16 S :    0.387418
  17 C :   -0.167260
  18 C :   -0.074352
  19 C :   -0.053913
  20 C :   -0.197291
  21 H :    0.041021
  22 C :   -0.028584
  23 H :    0.028667
  24 H :    0.036711
  25 C :   -0.035233
  26 H :    0.018800
  27 H :    0.023637
  28 C :   -0.072560
  29 H :    0.027805
  30 H :    0.019276
  31 H :    0.024811
  32 H :    0.040498
  33 H :    0.022004

  Mayer bond orders larger than 0.100000
B(  0-S ,  1-C ) :   1.1623 B(  0-S ,  4-C ) :   1.1825 B(  1-C ,  2-C ) :   1.5844
B(  1-C , 32-H ) :   0.9605 B(  2-C ,  3-C ) :   1.2709 B(  2-C ,  6-C ) :   1.0000
B(  3-C ,  4-C ) :   1.5633 B(  3-C ,  5-H ) :   1.0047 B(  4-C , 20-C ) :   0.9929
B(  6-C ,  7-H ) :   0.9492 B(  6-C ,  8-H ) :   0.9359 B(  6-C ,  9-C ) :   1.0774
B(  9-C , 10-H ) :   0.9560 B(  9-C , 11-H ) :   0.9559 B(  9-C , 12-C ) :   1.0554
B( 12-C , 13-H ) :   0.9752 B( 12-C , 14-H ) :   0.9777 B( 12-C , 15-H ) :   0.9782
B( 16-S , 17-C ) :   1.1572 B( 16-S , 20-C ) :   1.1373 B( 17-C , 18-C ) :   1.6104
B( 17-C , 33-H ) :   0.9742 B( 18-C , 19-C ) :   1.2205 B( 18-C , 21-H ) :   0.9823
B( 19-C , 20-C ) :   1.6295 B( 19-C , 22-C ) :   1.0428 B( 22-C , 23-H ) :   0.9441
B( 22-C , 24-H ) :   0.9342 B( 22-C , 25-C ) :   1.0573 B( 25-C , 26-H ) :   0.9604
B( 25-C , 27-H ) :   0.9606 B( 25-C , 28-C ) :   1.0691 B( 28-C , 29-H ) :   0.9748
B( 28-C , 30-H ) :   0.9751 B( 28-C , 31-H ) :   0.9706

Dispersion correction           -0.015262148
FINAL SINGLE POINT ENERGY     -1339.881007377811

DIPOLE MOMENT
-------------
                                X             Y             Z
Electronic contribution:    -20.22340     -10.48042     -14.76584
Nuclear contribution   :     20.65109      10.47711      14.96971
                        -----------------------------------------
Total Dipole Moment    :      0.42769      -0.00331       0.20387
                        -----------------------------------------
Magnitude (a.u.)       :      0.47381
Magnitude (Debye)      :      1.20432

Rotational constants in cm-1:     0.019951     0.008945     0.007119
Rotational constants in MHz :   598.119881   268.177358   213.420827

                             ****ORCA TERMINATED NORMALLY****
TOTAL RUN TIME: 0 days 0 hours 0 minutes 31 seconds 134 msec
