                         Program Version 4.2.1 -  RELEASE  -
|  1> ! wB97X-D3 SP def2-SVP
|  2> %pal
|  3> nprocs 16
|  4> end
|  5>
|  6> * xyz 0 1
|  7> S 	 -34.2155 	 57.932 	 108.279
|  8> C 	 -32.494 	 57.3655 	 107.961
|  9> C 	 -32.1344 	 56.4318 	 108.926
| 10> C 	 -33.0607 	 56.4059 	 110.007
| 11> C 	 -34.2889 	 57.044 	 109.767
| 12> H 	 -33.0456 	 55.8251 	 110.925
| 13> C 	 -30.8257 	 55.7016 	 108.95
| 14> H 	 -30.4059 	 55.9473 	 107.971
| 15> H 	 -31.0504 	 54.6179 	 108.835
| 16> C 	 -29.8787 	 55.9223 	 110.115
| 17> H 	 -29.9554 	 56.9535 	 110.327
| 18> H 	 -30.1802 	 55.2911 	 110.95
| 19> C 	 -28.4132 	 55.5558 	 109.778
| 20> H 	 -28.0258 	 56.1779 	 108.997
| 21> H 	 -27.8692 	 55.6899 	 110.677
| 22> H 	 -28.2378 	 54.531 	 109.572
| 23> S 	 -36.0151 	 58.6841 	 111.004
| 24> C 	 -37.0302 	 58.1427 	 112.294
| 25> C 	 -36.8602 	 56.7915 	 112.462
| 26> C 	 -36.0135 	 56.1709 	 111.533
| 27> C 	 -35.3854 	 57.1232 	 110.722
| 28> H 	 -37.3294 	 56.23 	 113.214
| 29> C 	 -35.7333 	 54.6692 	 111.593
| 30> H 	 -36.5221 	 54.0954 	 112.13
| 31> H 	 -34.837 	 54.4533 	 112.171
| 32> C 	 -35.4489 	 53.8606 	 110.278
| 33> H 	 -34.6876 	 54.3988 	 109.733
| 34> H 	 -36.3458 	 53.8951 	 109.707
| 35> C 	 -35.0643 	 52.3697 	 110.449
| 36> H 	 -35.1321 	 51.7117 	 109.537
| 37> H 	 -35.7591 	 51.9205 	 111.21
| 38> H 	 -34.0709 	 52.2879 	 110.747
| 39> H 	 -31.7799 	 57.6535 	 107.158
| 40> H 	 -37.7871 	 58.7077 	 112.866
| 41> *
| 42>
| 43>                          ****END OF INPUT****

CARTESIAN COORDINATES (ANGSTROEM)
---------------------------------
  S    -34.215500   57.932000  108.279000
  C    -32.494000   57.365500  107.961000
  C    -32.134400   56.431800  108.926000
  C    -33.060700   56.405900  110.007000
  C    -34.288900   57.044000  109.767000
  H    -33.045600   55.825100  110.925000
  C    -30.825700   55.701600  108.950000
  H    -30.405900   55.947300  107.971000
  H    -31.050400   54.617900  108.835000
  C    -29.878700   55.922300  110.115000
  H    -29.955400   56.953500  110.327000
  H    -30.180200   55.291100  110.950000
  C    -28.413200   55.555800  109.778000
  H    -28.025800   56.177900  108.997000
  H    -27.869200   55.689900  110.677000
  H    -28.237800   54.531000  109.572000
  S    -36.015100   58.684100  111.004000
  C    -37.030200   58.142700  112.294000
  C    -36.860200   56.791500  112.462000
  C    -36.013500   56.170900  111.533000
  C    -35.385400   57.123200  110.722000
  H    -37.329400   56.230000  113.214000
  C    -35.733300   54.669200  111.593000
  H    -36.522100   54.095400  112.130000
  H    -34.837000   54.453300  112.171000
  C    -35.448900   53.860600  110.278000
  H    -34.687600   54.398800  109.733000
  H    -36.345800   53.895100  109.707000
  C    -35.064300   52.369700  110.449000
  H    -35.132100   51.711700  109.537000
  H    -35.759100   51.920500  111.210000
  H    -34.070900   52.287900  110.747000
  H    -31.779900   57.653500  107.158000
  H    -37.787100   58.707700  112.866000

 Total Charge           Charge          ....    0
 Multiplicity           Mult            ....    1
 Number of Electrons    NEL             ....  134
 Basis Dimension        Dim             ....  322

ORBITAL ENERGIES
----------------

  NO   OCC          E(Eh)            E(eV)
   0   2.0000     -88.969583     -2420.9854
   1   2.0000     -88.968228     -2420.9486
   2   2.0000     -10.331452      -281.1331
   3   2.0000     -10.326851      -281.0079
   4   2.0000     -10.323615      -280.9199
   5   2.0000     -10.317138      -280.7436
   6   2.0000     -10.305717      -280.4328
   7   2.0000     -10.303342      -280.3682
   8   2.0000     -10.297260      -280.2027
   9   2.0000     -10.293088      -280.0892
  10   2.0000     -10.291107      -280.0353
  11   2.0000     -10.287261      -279.9306
  12   2.0000     -10.285804      -279.8910
  13   2.0000     -10.280760      -279.7537
  14   2.0000     -10.278333      -279.6877
  15   2.0000     -10.272748      -279.5357
  16   2.0000      -8.083921      -219.9747
  17   2.0000      -8.082874      -219.9462
  18   2.0000      -6.042287      -164.4190
  19   2.0000      -6.041564      -164.3993
  20   2.0000      -6.038126      -164.3058
  21   2.0000      -6.037575      -164.2908
  22   2.0000      -6.034920      -164.2185
  23   2.0000      -6.033513      -164.1802
  24   2.0000      -1.013431       -27.5769
  25   2.0000      -0.982849       -26.7447
  26   2.0000      -0.916522       -24.9398
  27   2.0000      -0.902846       -24.5677
  28   2.0000      -0.873706       -23.7747
  29   2.0000      -0.852417       -23.1955
  30   2.0000      -0.845136       -22.9973
  31   2.0000      -0.813294       -22.1309
  32   2.0000      -0.784705       -21.3529
  33   2.0000      -0.774414       -21.0729
  34   2.0000      -0.714111       -19.4320
  35   2.0000      -0.702693       -19.1212
  36   2.0000      -0.689180       -18.7535
  37   2.0000      -0.666595       -18.1390
  38   2.0000      -0.637795       -17.3553
  39   2.0000      -0.614137       -16.7115
  40   2.0000      -0.599273       -16.3070
  41   2.0000      -0.579903       -15.7800
  42   2.0000      -0.566431       -15.4134
  43   2.0000      -0.562436       -15.3047
  44   2.0000      -0.526710       -14.3325
  45   2.0000      -0.516774       -14.0621
  46   2.0000      -0.513741       -13.9796
  47   2.0000      -0.509462       -13.8632
  48   2.0000      -0.506012       -13.7693
  49   2.0000      -0.502993       -13.6871
  50   2.0000      -0.495326       -13.4785
  51   2.0000      -0.483551       -13.1581
  52   2.0000      -0.473286       -12.8788
  53   2.0000      -0.471221       -12.8226
  54   2.0000      -0.459932       -12.5154
  55   2.0000      -0.450160       -12.2495
  56   2.0000      -0.446265       -12.1435
  57   2.0000      -0.436050       -11.8655
  58   2.0000      -0.432206       -11.7609
  59   2.0000      -0.425219       -11.5708
  60   2.0000      -0.422744       -11.5034
  61   2.0000      -0.419469       -11.4143
  62   2.0000      -0.412333       -11.2201
  63   2.0000      -0.346031        -9.4160
  64   2.0000      -0.332703        -9.0533
  65   2.0000      -0.330304        -8.9880
  66   2.0000      -0.290504        -7.9050
  67   0.0000       0.023349         0.6354
  68   0.0000       0.076577         2.0838
  69   0.0000       0.101684         2.7670
  70   0.0000       0.117661         3.2017
  71   0.0000       0.138386         3.7657

MULLIKEN ATOMIC CHARGES
-----------------------
   0 S :    0.104727
   1 C :   -0.141810
   2 C :   -0.090912
   3 C :    0.020446
   4 C :   -0.150276
   5 H :    0.010304
   6 C :    0.070395
   7 H :   -0.001896
   8 H :    0.034912
   9 C :   -0.053153
  10 H :    0.030033
  11 H :    0.033722
  12 C :   -0.016912
  13 H :    0.032313
  14 H :    0.021368
  15 H :    0.020179
  16 S :    0.125298
  17 C :   -0.087425
  18 C :   -0.032876
  19 C :    0.017643
  20 C :   -0.169037
  21 H :   -0.005454
  22 C :    0.012028
  23 H :    0.021348
  24 H :    0.032065
  25 C :   -0.072679
  26 H :    0.040727
  27 H :    0.024027
  28 C :   -0.053440
  29 H :    0.044937
  30 H :    0.031708
  31 H :    0.016989
  32 H :    0.062815
  33 H :    0.067888
Sum of atomic charges:    0.0000000

LOEWDIN ATOMIC CHARGES
----------------------
   0 S :    0.380168
   1 C :   -0.186699
   2 C :   -0.062117
   3 C :   -0.068208
   4 C :   -0.197669
   5 H :    0.029147
   6 C :   -0.038605
   7 H :    0.025612
   8 H :    0.036565
   9 C :   -0.031245
  10 H :    0.022882
  11 H :    0.027480
  12 C :   -0.054042
  13 H :    0.023317
  14 H :    0.024627
  15 H :    0.021050
  16 S :    0.445741
  17 C :   -0.200732
  18 C :   -0.065110
  19 C :   -0.057294
  20 C :   -0.211081
  21 H :    0.022774
  22 C :   -0.036263
  23 H :    0.030930
  24 H :    0.028466
  25 C :   -0.040442
  26 H :    0.021346
  27 H :    0.018667
  28 C :   -0.065995
  29 H :    0.036192
  30 H :    0.028560
  31 H :    0.012330
  32 H :    0.039408
  33 H :    0.040238

  Mayer bond orders larger than 0.100000
B(  0-S ,  1-C ) :   1.1116 B(  0-S ,  4-C ) :   1.1494 B(  1-C ,  2-C ) :   1.6151
B(  1-C , 32-H ) :   0.9583 B(  2-C ,  3-C ) :   1.2194 B(  2-C ,  6-C ) :   1.0427
B(  3-C ,  4-C ) :   1.5670 B(  3-C ,  5-H ) :   0.9887 B(  4-C , 20-C ) :   1.0498
B(  6-C ,  7-H ) :   0.9352 B(  6-C ,  8-H ) :   0.9242 B(  6-C ,  9-C ) :   1.0583
B(  9-C , 10-H ) :   0.9605 B(  9-C , 11-H ) :   0.9467 B(  9-C , 12-C ) :   1.0968
B( 12-C , 13-H ) :   0.9763 B( 12-C , 14-H ) :   0.9723 B( 12-C , 15-H ) :   0.9738
B( 16-S , 17-C ) :   1.1633 B( 16-S , 20-C ) :   1.1750 B( 17-C , 18-C ) :   1.5674
B( 17-C , 20-C ) :   0.1008 B( 17-C , 33-H ) :   0.9662 B( 18-C , 19-C ) :   1.2984
B( 18-C , 21-H ) :   0.9962 B( 19-C , 20-C ) :   1.5296 B( 19-C , 22-C ) :   1.0380
B( 22-C , 23-H ) :   0.9377 B( 22-C , 24-H ) :   0.9362 B( 22-C , 25-C ) :   1.0493
B( 25-C , 26-H ) :   0.9533 B( 25-C , 27-H ) :   0.9581 B( 25-C , 28-C ) :   1.0801
B( 28-C , 29-H ) :   0.9748 B( 28-C , 30-H ) :   0.9747 B( 28-C , 31-H ) :   0.9754

Dispersion correction           -0.014233547
FINAL SINGLE POINT ENERGY     -1339.871565885389

DIPOLE MOMENT
-------------
                                X             Y             Z
Electronic contribution:    -18.28297      24.51141      -3.18877
Nuclear contribution   :     18.67117     -25.05040       3.51821
                        -----------------------------------------
Total Dipole Moment    :      0.38821      -0.53898       0.32944
                        -----------------------------------------
Magnitude (a.u.)       :      0.74144
Magnitude (Debye)      :      1.88460

Rotational constants in cm-1:     0.017540     0.008730     0.007004
Rotational constants in MHz :   525.848132   261.710701   209.987232

                             ****ORCA TERMINATED NORMALLY****
TOTAL RUN TIME: 0 days 0 hours 0 minutes 28 seconds 501 msec
