                         Program Version 4.2.1 -  RELEASE  -
|  1> ! wB97X-D3 SP def2-SVP
|  2> %pal
|  3> nprocs 16
|  4> end
|  5>
|  6> * xyz 0 1
|  7> S 	 -37.9068 	 53.4267 	 107.092
|  8> C 	 -38.0365 	 54.863 	 108.026
|  9> C 	 -37.8682 	 54.6109 	 109.398
| 10> C 	 -37.6738 	 53.2082 	 109.671
| 11> C 	 -37.7793 	 52.4057 	 108.508
| 12> H 	 -37.5261 	 52.6999 	 110.602
| 13> C 	 -38.0343 	 55.6017 	 110.508
| 14> H 	 -37.4573 	 56.4197 	 110.207
| 15> H 	 -37.6782 	 55.1541 	 111.432
| 16> C 	 -39.4935 	 56.0068 	 110.877
| 17> H 	 -40.111 	 56.1315 	 110.01
| 18> H 	 -40.0122 	 55.1412 	 111.357
| 19> C 	 -39.4439 	 57.1638 	 111.769
| 20> H 	 -38.9162 	 56.9753 	 112.726
| 21> H 	 -39.1534 	 58.0591 	 111.242
| 22> H 	 -40.4707 	 57.4203 	 112.131
| 23> S 	 -36.7202 	 50.0193 	 107.678
| 24> C 	 -37.52 	 48.5046 	 108.139
| 25> C 	 -38.7774 	 48.7405 	 108.748
| 26> C 	 -38.9517 	 50.1515 	 108.995
| 27> C 	 -37.9565 	 50.9236 	 108.436
| 28> H 	 -39.4671 	 47.9402 	 109.006
| 29> C 	 -40.2914 	 50.7048 	 109.59
| 30> H 	 -39.9286 	 51.4916 	 110.227
| 31> H 	 -40.8808 	 50.0013 	 110.16
| 32> C 	 -41.1756 	 51.481 	 108.518
| 33> H 	 -41.474 	 50.7947 	 107.722
| 34> H 	 -40.5275 	 52.1454 	 108.019
| 35> C 	 -42.4314 	 52.1511 	 109.03
| 36> H 	 -43.0158 	 51.4285 	 109.587
| 37> H 	 -43.0912 	 52.6033 	 108.231
| 38> H 	 -42.2901 	 52.8309 	 109.879
| 39> H 	 -38.1657 	 55.8582 	 107.573
| 40> H 	 -37.1863 	 47.5514 	 107.774
| 41> *
| 42>
| 43>                          ****END OF INPUT****

CARTESIAN COORDINATES (ANGSTROEM)
---------------------------------
  S    -37.906800   53.426700  107.092000
  C    -38.036500   54.863000  108.026000
  C    -37.868200   54.610900  109.398000
  C    -37.673800   53.208200  109.671000
  C    -37.779300   52.405700  108.508000
  H    -37.526100   52.699900  110.602000
  C    -38.034300   55.601700  110.508000
  H    -37.457300   56.419700  110.207000
  H    -37.678200   55.154100  111.432000
  C    -39.493500   56.006800  110.877000
  H    -40.111000   56.131500  110.010000
  H    -40.012200   55.141200  111.357000
  C    -39.443900   57.163800  111.769000
  H    -38.916200   56.975300  112.726000
  H    -39.153400   58.059100  111.242000
  H    -40.470700   57.420300  112.131000
  S    -36.720200   50.019300  107.678000
  C    -37.520000   48.504600  108.139000
  C    -38.777400   48.740500  108.748000
  C    -38.951700   50.151500  108.995000
  C    -37.956500   50.923600  108.436000
  H    -39.467100   47.940200  109.006000
  C    -40.291400   50.704800  109.590000
  H    -39.928600   51.491600  110.227000
  H    -40.880800   50.001300  110.160000
  C    -41.175600   51.481000  108.518000
  H    -41.474000   50.794700  107.722000
  H    -40.527500   52.145400  108.019000
  C    -42.431400   52.151100  109.030000
  H    -43.015800   51.428500  109.587000
  H    -43.091200   52.603300  108.231000
  H    -42.290100   52.830900  109.879000
  H    -38.165700   55.858200  107.573000
  H    -37.186300   47.551400  107.774000

 Total Charge           Charge          ....    0
 Multiplicity           Mult            ....    1
 Number of Electrons    NEL             ....  134
 Basis Dimension        Dim             ....  322

ORBITAL ENERGIES
----------------

  NO   OCC          E(Eh)            E(eV)
   0   2.0000     -88.968782     -2420.9637
   1   2.0000     -88.968030     -2420.9432
   2   2.0000     -10.332340      -281.1573
   3   2.0000     -10.325171      -280.9622
   4   2.0000     -10.321408      -280.8598
   5   2.0000     -10.316665      -280.7307
   6   2.0000     -10.307060      -280.4694
   7   2.0000     -10.303804      -280.3808
   8   2.0000     -10.301735      -280.3244
   9   2.0000     -10.297983      -280.2224
  10   2.0000     -10.293328      -280.0957
  11   2.0000     -10.285689      -279.8878
  12   2.0000     -10.284435      -279.8537
  13   2.0000     -10.278913      -279.7034
  14   2.0000     -10.278192      -279.6838
  15   2.0000     -10.277468      -279.6641
  16   2.0000      -8.083431      -219.9613
  17   2.0000      -8.083022      -219.9502
  18   2.0000      -6.041833      -164.4066
  19   2.0000      -6.041452      -164.3963
  20   2.0000      -6.037750      -164.2955
  21   2.0000      -6.037443      -164.2872
  22   2.0000      -6.034509      -164.2073
  23   2.0000      -6.033909      -164.1910
  24   2.0000      -1.004512       -27.3341
  25   2.0000      -0.982772       -26.7426
  26   2.0000      -0.917748       -24.9732
  27   2.0000      -0.898162       -24.4402
  28   2.0000      -0.866001       -23.5651
  29   2.0000      -0.853220       -23.2173
  30   2.0000      -0.848128       -23.0787
  31   2.0000      -0.811974       -22.0949
  32   2.0000      -0.778813       -21.1926
  33   2.0000      -0.767194       -20.8764
  34   2.0000      -0.703372       -19.1397
  35   2.0000      -0.700786       -19.0694
  36   2.0000      -0.688701       -18.7405
  37   2.0000      -0.666276       -18.1303
  38   2.0000      -0.646582       -17.5944
  39   2.0000      -0.613877       -16.7044
  40   2.0000      -0.589463       -16.0401
  41   2.0000      -0.579613       -15.7721
  42   2.0000      -0.562163       -15.2972
  43   2.0000      -0.555729       -15.1221
  44   2.0000      -0.522819       -14.2266
  45   2.0000      -0.520190       -14.1551
  46   2.0000      -0.518331       -14.1045
  47   2.0000      -0.512175       -13.9370
  48   2.0000      -0.503585       -13.7032
  49   2.0000      -0.494891       -13.4667
  50   2.0000      -0.494169       -13.4470
  51   2.0000      -0.485667       -13.2157
  52   2.0000      -0.476590       -12.9687
  53   2.0000      -0.465958       -12.6794
  54   2.0000      -0.460867       -12.5408
  55   2.0000      -0.450664       -12.2632
  56   2.0000      -0.444275       -12.0893
  57   2.0000      -0.431311       -11.7366
  58   2.0000      -0.427829       -11.6418
  59   2.0000      -0.425068       -11.5667
  60   2.0000      -0.421939       -11.4815
  61   2.0000      -0.414705       -11.2847
  62   2.0000      -0.408131       -11.1058
  63   2.0000      -0.339062        -9.2263
  64   2.0000      -0.330784        -9.0011
  65   2.0000      -0.325432        -8.8554
  66   2.0000      -0.297704        -8.1009
  67   0.0000       0.035380         0.9627
  68   0.0000       0.058681         1.5968
  69   0.0000       0.113469         3.0876
  70   0.0000       0.121677         3.3110
  71   0.0000       0.123665         3.3651

MULLIKEN ATOMIC CHARGES
-----------------------
   0 S :    0.123247
   1 C :   -0.132179
   2 C :   -0.101294
   3 C :    0.065860
   4 C :   -0.196659
   5 H :    0.013074
   6 C :    0.082383
   7 H :    0.018252
   8 H :    0.018050
   9 C :   -0.062386
  10 H :    0.019056
  11 H :    0.024322
  12 C :   -0.035988
  13 H :    0.037527
  14 H :    0.032735
  15 H :    0.023887
  16 S :    0.119697
  17 C :   -0.097968
  18 C :   -0.036631
  19 C :   -0.037330
  20 C :   -0.173209
  21 H :    0.030169
  22 C :    0.087307
  23 H :    0.012597
  24 H :    0.019786
  25 C :   -0.042158
  26 H :    0.021826
  27 H :    0.014546
  28 C :   -0.044896
  29 H :    0.009192
  30 H :    0.054122
  31 H :    0.018483
  32 H :    0.059893
  33 H :    0.054688
Sum of atomic charges:    0.0000000

LOEWDIN ATOMIC CHARGES
----------------------
   0 S :    0.427831
   1 C :   -0.216261
   2 C :   -0.062699
   3 C :   -0.056222
   4 C :   -0.202434
   5 H :    0.030326
   6 C :   -0.026527
   7 H :    0.023561
   8 H :    0.031759
   9 C :   -0.041639
  10 H :    0.019177
  11 H :    0.027702
  12 C :   -0.068865
  13 H :    0.030824
  14 H :    0.025056
  15 H :    0.029557
  16 S :    0.422389
  17 C :   -0.179186
  18 C :   -0.063973
  19 C :   -0.053147
  20 C :   -0.223017
  21 H :    0.035385
  22 C :   -0.022653
  23 H :    0.027351
  24 H :    0.023369
  25 C :   -0.036464
  26 H :    0.023801
  27 H :    0.012667
  28 C :   -0.076009
  29 H :    0.021393
  30 H :    0.037842
  31 H :    0.023343
  32 H :    0.033522
  33 H :    0.022241

  Mayer bond orders larger than 0.100000
B(  0-S ,  1-C ) :   1.1581 B(  0-S ,  4-C ) :   1.1764 B(  1-C ,  2-C ) :   1.5695
B(  1-C ,  4-C ) :   0.1034 B(  1-C , 32-H ) :   0.9698 B(  2-C ,  3-C ) :   1.2538
B(  2-C ,  6-C ) :   1.0319 B(  3-C ,  4-C ) :   1.5583 B(  3-C ,  5-H ) :   0.9958
B(  4-C , 20-C ) :   0.9794 B(  6-C ,  7-H ) :   0.9395 B(  6-C ,  8-H ) :   0.9402
B(  6-C ,  9-C ) :   1.0549 B(  9-C , 10-H ) :   0.9557 B(  9-C , 11-H ) :   0.9497
B(  9-C , 12-C ) :   1.0987 B( 12-C , 13-H ) :   0.9686 B( 12-C , 14-H ) :   0.9727
B( 12-C , 15-H ) :   0.9666 B( 16-S , 17-C ) :   1.1634 B( 16-S , 20-C ) :   1.1642
B( 17-C , 18-C ) :   1.5888 B( 17-C , 20-C ) :   0.1015 B( 17-C , 33-H ) :   0.9703
B( 18-C , 19-C ) :   1.2473 B( 18-C , 21-H ) :   0.9896 B( 19-C , 20-C ) :   1.5993
B( 19-C , 22-C ) :   1.0388 B( 22-C , 23-H ) :   0.9230 B( 22-C , 24-H ) :   0.9468
B( 22-C , 25-C ) :   1.0575 B( 25-C , 26-H ) :   0.9542 B( 25-C , 27-H ) :   0.9531
B( 25-C , 28-C ) :   1.0847 B( 28-C , 29-H ) :   0.9680 B( 28-C , 30-H ) :   0.9722
B( 28-C , 31-H ) :   0.9715

Dispersion correction           -0.015052393
FINAL SINGLE POINT ENERGY     -1339.876300521030

DIPOLE MOMENT
-------------
                                X             Y             Z
Electronic contribution:     20.72042     -15.60225     -17.06659
Nuclear contribution   :    -21.18541      15.78787      17.47894
                        -----------------------------------------
Total Dipole Moment    :     -0.46499       0.18562       0.41235
                        -----------------------------------------
Magnitude (a.u.)       :      0.64862
Magnitude (Debye)      :      1.64865

Rotational constants in cm-1:     0.020394     0.008561     0.007142
Rotational constants in MHz :   611.383066   256.657192   214.118504

                             ****ORCA TERMINATED NORMALLY****
TOTAL RUN TIME: 0 days 0 hours 0 minutes 31 seconds 434 msec
