                         Program Version 4.2.1 -  RELEASE  -
|  1> ! wB97X-D3 SP def2-SVP
|  2> %pal
|  3> nprocs 16
|  4> end
|  5>
|  6> * xyz 0 1
|  7> S 	 11.2838 	 13.8734 	 81.5211
|  8> C 	 12.8218 	 13.7717 	 80.7013
|  9> C 	 12.7215 	 12.7675 	 79.7339
| 10> C 	 11.4689 	 12.0068 	 79.8555
| 11> C 	 10.6757 	 12.3991 	 80.9259
| 12> H 	 11.0532 	 11.2613 	 79.1461
| 13> C 	 13.6988 	 12.5617 	 78.5844
| 14> H 	 13.4867 	 11.6008 	 78.2059
| 15> H 	 14.7161 	 12.4439 	 78.9786
| 16> C 	 13.7096 	 13.6441 	 77.5325
| 17> H 	 14.0291 	 14.5942 	 77.9551
| 18> H 	 14.5339 	 13.4321 	 76.8605
| 19> C 	 12.3487 	 13.6484 	 76.7194
| 20> H 	 12.0203 	 12.6337 	 76.2585
| 21> H 	 11.6399 	 14.0649 	 77.4337
| 22> H 	 12.2601 	 14.4312 	 75.9485
| 23> S 	 8.04317 	 12.7855 	 81.6486
| 24> C 	 7.25672 	 11.5991 	 82.5607
| 25> C 	 7.92844 	 10.4195 	 82.57
| 26> C 	 9.17003 	 10.4854 	 81.7945
| 27> C 	 9.45791 	 11.8026 	 81.382
| 28> H 	 7.67861 	 9.54395 	 83.1449
| 29> C 	 10.2044 	 9.32168 	 81.8829
| 30> H 	 10.5011 	 9.31782 	 82.9148
| 31> H 	 11.043 	 9.74173 	 81.3021
| 32> C 	 9.71853 	 8.06142 	 81.1827
| 33> H 	 8.74185 	 7.79523 	 81.4744
| 34> H 	 10.3921 	 7.16987 	 81.3564
| 35> C 	 9.85695 	 8.12738 	 79.5809
| 36> H 	 10.9092 	 8.22847 	 79.3843
| 37> H 	 9.31209 	 8.89138 	 79.1835
| 38> H 	 9.63263 	 7.20893 	 79.1821
| 39> H 	 13.4776 	 14.5481 	 80.6748
| 40> H 	 6.37547 	 11.763 	 83.227
| 41> *
| 42>
| 43>                          ****END OF INPUT****

CARTESIAN COORDINATES (ANGSTROEM)
---------------------------------
  S     11.283800   13.873400   81.521100
  C     12.821800   13.771700   80.701300
  C     12.721500   12.767500   79.733900
  C     11.468900   12.006800   79.855500
  C     10.675700   12.399100   80.925900
  H     11.053200   11.261300   79.146100
  C     13.698800   12.561700   78.584400
  H     13.486700   11.600800   78.205900
  H     14.716100   12.443900   78.978600
  C     13.709600   13.644100   77.532500
  H     14.029100   14.594200   77.955100
  H     14.533900   13.432100   76.860500
  C     12.348700   13.648400   76.719400
  H     12.020300   12.633700   76.258500
  H     11.639900   14.064900   77.433700
  H     12.260100   14.431200   75.948500
  S      8.043170   12.785500   81.648600
  C      7.256720   11.599100   82.560700
  C      7.928440   10.419500   82.570000
  C      9.170030   10.485400   81.794500
  C      9.457910   11.802600   81.382000
  H      7.678610    9.543950   83.144900
  C     10.204400    9.321680   81.882900
  H     10.501100    9.317820   82.914800
  H     11.043000    9.741730   81.302100
  C      9.718530    8.061420   81.182700
  H      8.741850    7.795230   81.474400
  H     10.392100    7.169870   81.356400
  C      9.856950    8.127380   79.580900
  H     10.909200    8.228470   79.384300
  H      9.312090    8.891380   79.183500
  H      9.632630    7.208930   79.182100
  H     13.477600   14.548100   80.674800
  H      6.375470   11.763000   83.227000

 Total Charge           Charge          ....    0
 Multiplicity           Mult            ....    1
 Number of Electrons    NEL             ....  134
 Basis Dimension        Dim             ....  322

ORBITAL ENERGIES
----------------

  NO   OCC          E(Eh)            E(eV)
   0   2.0000     -88.963725     -2420.8260
   1   2.0000     -88.962629     -2420.7962
   2   2.0000     -10.327243      -281.0186
   3   2.0000     -10.326613      -281.0014
   4   2.0000     -10.315200      -280.6909
   5   2.0000     -10.309738      -280.5422
   6   2.0000     -10.307586      -280.4837
   7   2.0000     -10.307522      -280.4819
   8   2.0000     -10.298829      -280.2454
   9   2.0000     -10.292513      -280.0735
  10   2.0000     -10.290698      -280.0241
  11   2.0000     -10.290314      -280.0137
  12   2.0000     -10.290116      -280.0083
  13   2.0000     -10.287826      -279.9460
  14   2.0000     -10.287636      -279.9408
  15   2.0000     -10.266048      -279.3534
  16   2.0000      -8.079906      -219.8654
  17   2.0000      -8.078456      -219.8260
  18   2.0000      -6.038398      -164.3132
  19   2.0000      -6.036939      -164.2735
  20   2.0000      -6.034154      -164.1977
  21   2.0000      -6.032804      -164.1609
  22   2.0000      -6.030648      -164.1023
  23   2.0000      -6.029153      -164.0616
  24   2.0000      -1.012472       -27.5508
  25   2.0000      -0.988596       -26.9011
  26   2.0000      -0.913729       -24.8638
  27   2.0000      -0.904607       -24.6156
  28   2.0000      -0.872705       -23.7475
  29   2.0000      -0.846184       -23.0258
  30   2.0000      -0.836517       -22.7628
  31   2.0000      -0.815199       -22.1827
  32   2.0000      -0.784346       -21.3431
  33   2.0000      -0.776120       -21.1193
  34   2.0000      -0.709848       -19.3160
  35   2.0000      -0.709063       -19.2946
  36   2.0000      -0.696150       -18.9432
  37   2.0000      -0.656170       -17.8553
  38   2.0000      -0.644422       -17.5356
  39   2.0000      -0.609803       -16.5936
  40   2.0000      -0.591897       -16.1063
  41   2.0000      -0.574789       -15.6408
  42   2.0000      -0.560378       -15.2487
  43   2.0000      -0.551034       -14.9944
  44   2.0000      -0.546216       -14.8633
  45   2.0000      -0.538575       -14.6554
  46   2.0000      -0.518224       -14.1016
  47   2.0000      -0.514240       -13.9932
  48   2.0000      -0.505250       -13.7486
  49   2.0000      -0.500110       -13.6087
  50   2.0000      -0.487096       -13.2546
  51   2.0000      -0.476262       -12.9597
  52   2.0000      -0.471083       -12.8188
  53   2.0000      -0.463469       -12.6116
  54   2.0000      -0.459702       -12.5091
  55   2.0000      -0.456069       -12.4103
  56   2.0000      -0.444150       -12.0859
  57   2.0000      -0.439427       -11.9574
  58   2.0000      -0.435960       -11.8631
  59   2.0000      -0.421398       -11.4668
  60   2.0000      -0.417771       -11.3681
  61   2.0000      -0.409883       -11.1535
  62   2.0000      -0.405106       -11.0235
  63   2.0000      -0.349077        -9.4989
  64   2.0000      -0.329255        -8.9595
  65   2.0000      -0.322854        -8.7853
  66   2.0000      -0.293827        -7.9954
  67   0.0000       0.024167         0.6576
  68   0.0000       0.072092         1.9617
  69   0.0000       0.115919         3.1543
  70   0.0000       0.117206         3.1893
  71   0.0000       0.129747         3.5306

MULLIKEN ATOMIC CHARGES
-----------------------
   0 S :    0.104179
   1 C :   -0.068249
   2 C :   -0.134941
   3 C :    0.019069
   4 C :   -0.156969
   5 H :    0.032144
   6 C :    0.092137
   7 H :    0.002046
   8 H :    0.030127
   9 C :   -0.044517
  10 H :    0.023294
  11 H :    0.023609
  12 C :   -0.090616
  13 H :    0.056825
  14 H :    0.043758
  15 H :    0.032023
  16 S :    0.114735
  17 C :   -0.087550
  18 C :   -0.034169
  19 C :   -0.081688
  20 C :   -0.163063
  21 H :    0.020737
  22 C :    0.082287
  23 H :    0.046237
  24 H :    0.016686
  25 C :   -0.083670
  26 H :    0.021056
  27 H :    0.034578
  28 C :   -0.004320
  29 H :    0.019663
  30 H :    0.028324
  31 H :    0.013419
  32 H :    0.017696
  33 H :    0.075122
Sum of atomic charges:   -0.0000000

LOEWDIN ATOMIC CHARGES
----------------------
   0 S :    0.429832
   1 C :   -0.187277
   2 C :   -0.054368
   3 C :   -0.073762
   4 C :   -0.212444
   5 H :    0.037070
   6 C :   -0.033293
   7 H :    0.021949
   8 H :    0.036117
   9 C :   -0.037101
  10 H :    0.023622
  11 H :    0.022011
  12 C :   -0.079688
  13 H :    0.038778
  14 H :    0.029369
  15 H :    0.025507
  16 S :    0.424770
  17 C :   -0.207546
  18 C :   -0.075851
  19 C :   -0.048113
  20 C :   -0.210186
  21 H :    0.029909
  22 C :   -0.031616
  23 H :    0.033253
  24 H :    0.031577
  25 C :   -0.033297
  26 H :    0.010758
  27 H :    0.031053
  28 C :   -0.041567
  29 H :    0.024497
  30 H :    0.009575
  31 H :    0.016043
  32 H :    0.007370
  33 H :    0.043052

  Mayer bond orders larger than 0.100000
B(  0-S ,  1-C ) :   1.1452 B(  0-S ,  4-C ) :   1.1734 B(  1-C ,  2-C ) :   1.5759
B(  1-C , 32-H ) :   0.9860 B(  2-C ,  3-C ) :   1.2544 B(  2-C ,  6-C ) :   1.0204
B(  3-C ,  4-C ) :   1.5318 B(  3-C ,  5-H ) :   0.9868 B(  4-C , 20-C ) :   1.0672
B(  6-C ,  7-H ) :   0.9391 B(  6-C ,  8-H ) :   0.9356 B(  6-C ,  9-C ) :   1.0796
B(  9-C , 10-H ) :   0.9564 B(  9-C , 11-H ) :   0.9539 B(  9-C , 12-C ) :   1.0547
B( 12-C , 13-H ) :   0.9749 B( 12-C , 14-H ) :   0.9753 B( 12-C , 15-H ) :   0.9749
B( 16-S , 17-C ) :   1.1567 B( 16-S , 20-C ) :   1.1438 B( 17-C , 18-C ) :   1.6167
B( 17-C , 33-H ) :   0.9586 B( 18-C , 19-C ) :   1.2353 B( 18-C , 21-H ) :   0.9902
B( 19-C , 20-C ) :   1.5765 B( 19-C , 22-C ) :   1.0272 B( 22-C , 23-H ) :   0.9459
B( 22-C , 24-H ) :   0.9368 B( 22-C , 25-C ) :   1.0478 B( 25-C , 26-H ) :   0.9665
B( 25-C , 27-H ) :   0.9605 B( 25-C , 28-C ) :   1.0698 B( 28-C , 29-H ) :   0.9747
B( 28-C , 30-H ) :   0.9805 B( 28-C , 31-H ) :   0.9741

Dispersion correction           -0.014968336
FINAL SINGLE POINT ENERGY     -1339.849945463225

DIPOLE MOMENT
-------------
                                X             Y             Z
Electronic contribution:    -11.27149      14.57784      17.16181
Nuclear contribution   :     11.53780     -14.92988     -17.37651
                        -----------------------------------------
Total Dipole Moment    :      0.26631      -0.35204      -0.21470
                        -----------------------------------------
Magnitude (a.u.)       :      0.49087
Magnitude (Debye)      :      1.24768

Rotational constants in cm-1:     0.019546     0.008867     0.007095
Rotational constants in MHz :   585.961024   265.812104   212.691312

                             ****ORCA TERMINATED NORMALLY****
TOTAL RUN TIME: 0 days 0 hours 0 minutes 35 seconds 586 msec
