                         Program Version 4.2.1 -  RELEASE  -
|  1> ! wB97X-D3 SP def2-SVP
|  2> %pal
|  3> nprocs 16
|  4> end
|  5>
|  6> * xyz 0 1
|  7> S 	 -38.023 	 28.4455 	 82.5534
|  8> C 	 -38.7763 	 27.314 	 81.4548
|  9> C 	 -37.9575 	 26.1695 	 81.2929
| 10> C 	 -36.7969 	 26.2146 	 82.1434
| 11> C 	 -36.7397 	 27.266 	 83.0068
| 12> H 	 -36.0126 	 25.4453 	 82.207
| 13> C 	 -38.3539 	 25.0384 	 80.4705
| 14> H 	 -37.6439 	 24.904 	 79.6227
| 15> H 	 -39.3176 	 25.3702 	 79.9888
| 16> C 	 -38.6048 	 23.78 	 81.3314
| 17> H 	 -37.95 	 23.0289 	 80.9794
| 18> H 	 -38.3724 	 24.1012 	 82.3294
| 19> C 	 -40.0246 	 23.3028 	 81.2467
| 20> H 	 -40.6606 	 24.1031 	 81.4946
| 21> H 	 -40.2511 	 22.9161 	 80.2258
| 22> H 	 -40.3027 	 22.4749 	 81.9081
| 23> S 	 -36.5611 	 27.6636 	 85.5814
| 24> C 	 -34.967 	 27.8817 	 86.2833
| 25> C 	 -33.9398 	 28.0157 	 85.336
| 26> C 	 -34.446 	 27.8103 	 84.0255
| 27> C 	 -35.7932 	 27.5433 	 84.0173
| 28> H 	 -32.9093 	 28.2407 	 85.721
| 29> C 	 -33.6217 	 27.852 	 82.7858
| 30> H 	 -33.801 	 26.9373 	 82.2716
| 31> H 	 -32.578 	 27.9826 	 83.0877
| 32> C 	 -34.1106 	 28.9353 	 81.7861
| 33> H 	 -35.1763 	 28.6806 	 81.5233
| 34> H 	 -33.5055 	 28.703 	 80.8769
| 35> C 	 -33.8525 	 30.4081 	 82.1396
| 36> H 	 -34.5385 	 31.0916 	 81.6753
| 37> H 	 -32.8147 	 30.6782 	 82.0434
| 38> H 	 -34.0899 	 30.5965 	 83.1355
| 39> H 	 -39.6236 	 27.7037 	 80.9119
| 40> H 	 -34.8213 	 28.0923 	 87.3155
| 41> *
| 42>
| 43>                          ****END OF INPUT****

CARTESIAN COORDINATES (ANGSTROEM)
---------------------------------
  S    -38.023000   28.445500   82.553400
  C    -38.776300   27.314000   81.454800
  C    -37.957500   26.169500   81.292900
  C    -36.796900   26.214600   82.143400
  C    -36.739700   27.266000   83.006800
  H    -36.012600   25.445300   82.207000
  C    -38.353900   25.038400   80.470500
  H    -37.643900   24.904000   79.622700
  H    -39.317600   25.370200   79.988800
  C    -38.604800   23.780000   81.331400
  H    -37.950000   23.028900   80.979400
  H    -38.372400   24.101200   82.329400
  C    -40.024600   23.302800   81.246700
  H    -40.660600   24.103100   81.494600
  H    -40.251100   22.916100   80.225800
  H    -40.302700   22.474900   81.908100
  S    -36.561100   27.663600   85.581400
  C    -34.967000   27.881700   86.283300
  C    -33.939800   28.015700   85.336000
  C    -34.446000   27.810300   84.025500
  C    -35.793200   27.543300   84.017300
  H    -32.909300   28.240700   85.721000
  C    -33.621700   27.852000   82.785800
  H    -33.801000   26.937300   82.271600
  H    -32.578000   27.982600   83.087700
  C    -34.110600   28.935300   81.786100
  H    -35.176300   28.680600   81.523300
  H    -33.505500   28.703000   80.876900
  C    -33.852500   30.408100   82.139600
  H    -34.538500   31.091600   81.675300
  H    -32.814700   30.678200   82.043400
  H    -34.089900   30.596500   83.135500
  H    -39.623600   27.703700   80.911900
  H    -34.821300   28.092300   87.315500

 Total Charge           Charge          ....    0
 Multiplicity           Mult            ....    1
 Number of Electrons    NEL             ....  134
 Basis Dimension        Dim             ....  322

ORBITAL ENERGIES
----------------

  NO   OCC          E(Eh)            E(eV)
   0   2.0000     -88.966192     -2420.8932
   1   2.0000     -88.960147     -2420.7287
   2   2.0000     -10.326828      -281.0073
   3   2.0000     -10.317202      -280.7453
   4   2.0000     -10.316300      -280.7208
   5   2.0000     -10.316270      -280.7200
   6   2.0000     -10.303955      -280.3849
   7   2.0000     -10.301255      -280.3114
   8   2.0000     -10.300623      -280.2942
   9   2.0000     -10.295876      -280.1650
  10   2.0000     -10.290135      -280.0088
  11   2.0000     -10.286722      -279.9159
  12   2.0000     -10.286188      -279.9014
  13   2.0000     -10.277704      -279.6705
  14   2.0000     -10.273679      -279.5610
  15   2.0000     -10.264067      -279.2995
  16   2.0000      -8.081081      -219.8974
  17   2.0000      -8.074456      -219.7171
  18   2.0000      -6.039437      -164.3414
  19   2.0000      -6.035665      -164.2388
  20   2.0000      -6.032932      -164.1644
  21   2.0000      -6.031879      -164.1358
  22   2.0000      -6.029037      -164.0584
  23   2.0000      -6.025251      -163.9554
  24   2.0000      -1.008970       -27.4555
  25   2.0000      -0.981409       -26.7055
  26   2.0000      -0.918275       -24.9875
  27   2.0000      -0.907938       -24.7062
  28   2.0000      -0.873356       -23.7652
  29   2.0000      -0.849897       -23.1269
  30   2.0000      -0.846354       -23.0305
  31   2.0000      -0.816899       -22.2290
  32   2.0000      -0.785738       -21.3810
  33   2.0000      -0.765119       -20.8199
  34   2.0000      -0.714407       -19.4400
  35   2.0000      -0.696939       -18.9647
  36   2.0000      -0.685815       -18.6620
  37   2.0000      -0.665901       -18.1201
  38   2.0000      -0.647446       -17.6179
  39   2.0000      -0.619569       -16.8593
  40   2.0000      -0.588274       -16.0078
  41   2.0000      -0.580480       -15.7957
  42   2.0000      -0.560825       -15.2608
  43   2.0000      -0.548874       -14.9356
  44   2.0000      -0.536725       -14.6050
  45   2.0000      -0.526601       -14.3295
  46   2.0000      -0.522012       -14.2047
  47   2.0000      -0.512645       -13.9498
  48   2.0000      -0.503365       -13.6972
  49   2.0000      -0.496652       -13.5146
  50   2.0000      -0.488283       -13.2869
  51   2.0000      -0.479867       -13.0579
  52   2.0000      -0.475408       -12.9365
  53   2.0000      -0.465478       -12.6663
  54   2.0000      -0.452823       -12.3219
  55   2.0000      -0.448125       -12.1941
  56   2.0000      -0.442140       -12.0312
  57   2.0000      -0.436920       -11.8892
  58   2.0000      -0.432725       -11.7751
  59   2.0000      -0.424226       -11.5438
  60   2.0000      -0.421110       -11.4590
  61   2.0000      -0.413293       -11.2463
  62   2.0000      -0.408112       -11.1053
  63   2.0000      -0.342762        -9.3270
  64   2.0000      -0.331560        -9.0222
  65   2.0000      -0.321705        -8.7540
  66   2.0000      -0.293459        -7.9854
  67   0.0000       0.031973         0.8700
  68   0.0000       0.057170         1.5557
  69   0.0000       0.109553         2.9811
  70   0.0000       0.113799         3.0966
  71   0.0000       0.128360         3.4929

MULLIKEN ATOMIC CHARGES
-----------------------
   0 S :    0.089688
   1 C :   -0.128950
   2 C :   -0.110375
   3 C :    0.045796
   4 C :   -0.181573
   5 H :    0.022898
   6 C :    0.037621
   7 H :    0.044038
   8 H :    0.019582
   9 C :   -0.023549
  10 H :    0.021070
  11 H :    0.039250
  12 C :   -0.056131
  13 H :    0.023183
  14 H :    0.032318
  15 H :    0.033271
  16 S :    0.119567
  17 C :   -0.080573
  18 C :   -0.078899
  19 C :   -0.003045
  20 C :   -0.193675
  21 H :    0.040302
  22 C :    0.120005
  23 H :    0.017807
  24 H :    0.016721
  25 C :   -0.126469
  26 H :    0.054722
  27 H :    0.028548
  28 C :    0.015386
  29 H :    0.027946
  30 H :    0.026045
  31 H :    0.003430
  32 H :    0.060154
  33 H :    0.043893
Sum of atomic charges:    0.0000000

LOEWDIN ATOMIC CHARGES
----------------------
   0 S :    0.373815
   1 C :   -0.197225
   2 C :   -0.065051
   3 C :   -0.065879
   4 C :   -0.185285
   5 H :    0.035739
   6 C :   -0.039036
   7 H :    0.036369
   8 H :    0.034386
   9 C :   -0.032678
  10 H :    0.020372
  11 H :    0.025653
  12 C :   -0.061701
  13 H :    0.017860
  14 H :    0.028022
  15 H :    0.027061
  16 S :    0.418473
  17 C :   -0.176161
  18 C :   -0.077018
  19 C :   -0.051491
  20 C :   -0.208970
  21 H :    0.043765
  22 C :   -0.027596
  23 H :    0.031713
  24 H :    0.028938
  25 C :   -0.041191
  26 H :    0.029445
  27 H :    0.025234
  28 C :   -0.064621
  29 H :    0.030067
  30 H :    0.025080
  31 H :    0.017167
  32 H :    0.026192
  33 H :    0.018551

  Mayer bond orders larger than 0.100000
B(  0-S ,  1-C ) :   1.1359 B(  0-S ,  4-C ) :   1.1293 B(  1-C ,  2-C ) :   1.5868
B(  1-C ,  4-C ) :   0.1004 B(  1-C , 32-H ) :   0.9717 B(  2-C ,  3-C ) :   1.2099
B(  2-C ,  6-C ) :   1.0601 B(  3-C ,  4-C ) :   1.6109 B(  3-C ,  5-H ) :   0.9894
B(  4-C , 20-C ) :   1.0496 B(  6-C ,  7-H ) :   0.9307 B(  6-C ,  8-H ) :   0.9430
B(  6-C ,  9-C ) :   1.0240 B(  9-C , 10-H ) :   0.9498 B(  9-C , 11-H ) :   0.9650
B(  9-C , 12-C ) :   1.0983 B( 12-C , 13-H ) :   0.9716 B( 12-C , 14-H ) :   0.9754
B( 12-C , 15-H ) :   0.9732 B( 16-S , 17-C ) :   1.1661 B( 16-S , 20-C ) :   1.1440
B( 17-C , 18-C ) :   1.6106 B( 17-C , 20-C ) :   0.1127 B( 17-C , 33-H ) :   0.9685
B( 18-C , 19-C ) :   1.2210 B( 18-C , 21-H ) :   0.9860 B( 19-C , 20-C ) :   1.5855
B( 19-C , 22-C ) :   1.0501 B( 22-C , 23-H ) :   0.9215 B( 22-C , 24-H ) :   0.9331
B( 22-C , 25-C ) :   1.0732 B( 25-C , 26-H ) :   0.9540 B( 25-C , 27-H ) :   0.9575
B( 25-C , 28-C ) :   1.0667 B( 28-C , 29-H ) :   0.9701 B( 28-C , 30-H ) :   0.9741
B( 28-C , 31-H ) :   0.9729

Dispersion correction           -0.015227733
FINAL SINGLE POINT ENERGY     -1339.869939003710

DIPOLE MOMENT
-------------
                                X             Y             Z
Electronic contribution:     -3.02166       8.28664      15.15825
Nuclear contribution   :      3.31495      -8.53575     -15.40448
                        -----------------------------------------
Total Dipole Moment    :      0.29328      -0.24912      -0.24623
                        -----------------------------------------
Magnitude (a.u.)       :      0.45684
Magnitude (Debye)      :      1.16119

Rotational constants in cm-1:     0.021834     0.008389     0.007515
Rotational constants in MHz :   654.558575   251.507182   225.301233

                             ****ORCA TERMINATED NORMALLY****
TOTAL RUN TIME: 0 days 0 hours 0 minutes 31 seconds 122 msec
