                         Program Version 4.2.1 -  RELEASE  -
|  1> ! wB97X-D3 SP def2-SVP
|  2> %pal
|  3> nprocs 16
|  4> end
|  5>
|  6> * xyz 0 1
|  7> S 	 -113.241 	 55.4516 	 107.372
|  8> C 	 -113 	 53.9182 	 106.488
|  9> C 	 -112.396 	 52.964 	 107.261
| 10> C 	 -112.097 	 53.4663 	 108.579
| 11> C 	 -112.364 	 54.7784 	 108.775
| 12> H 	 -111.573 	 52.9297 	 109.368
| 13> C 	 -111.884 	 51.5848 	 106.855
| 14> H 	 -112.621 	 51.2042 	 106.232
| 15> H 	 -111.749 	 51.0153 	 107.826
| 16> C 	 -110.462 	 51.4938 	 106.216
| 17> H 	 -110.419 	 50.5552 	 105.764
| 18> H 	 -110.404 	 52.1106 	 105.336
| 19> C 	 -109.294 	 51.8124 	 107.16
| 20> H 	 -109.37 	 51.3315 	 108.175
| 21> H 	 -108.291 	 51.4316 	 106.593
| 22> H 	 -109.235 	 52.8808 	 107.378
| 23> S 	 -110.681 	 55.9674 	 110.455
| 24> C 	 -111.305 	 56.5703 	 112.025
| 25> C 	 -112.671 	 56.2781 	 112.173
| 26> C 	 -113.214 	 55.6586 	 111.004
| 27> C 	 -112.294 	 55.5184 	 110.005
| 28> H 	 -113.263 	 56.3506 	 113.05
| 29> C 	 -114.693 	 55.2955 	 110.876
| 30> H 	 -114.954 	 55.2394 	 109.807
| 31> H 	 -115.171 	 56.1826 	 111.226
| 32> C 	 -115.124 	 53.9951 	 111.598
| 33> H 	 -114.426 	 53.2799 	 111.212
| 34> H 	 -116.122 	 53.6204 	 111.278
| 35> C 	 -115.115 	 54.0884 	 113.148
| 36> H 	 -114.108 	 54.1077 	 113.466
| 37> H 	 -115.574 	 53.1522 	 113.457
| 38> H 	 -115.533 	 55.0244 	 113.583
| 39> H 	 -113.358 	 53.7397 	 105.479
| 40> H 	 -110.689 	 56.7783 	 112.825
| 41> *
| 42>
| 43>                          ****END OF INPUT****

CARTESIAN COORDINATES (ANGSTROEM)
---------------------------------
  S    -113.241000   55.451600  107.372000
  C    -113.000000   53.918200  106.488000
  C    -112.396000   52.964000  107.261000
  C    -112.097000   53.466300  108.579000
  C    -112.364000   54.778400  108.775000
  H    -111.573000   52.929700  109.368000
  C    -111.884000   51.584800  106.855000
  H    -112.621000   51.204200  106.232000
  H    -111.749000   51.015300  107.826000
  C    -110.462000   51.493800  106.216000
  H    -110.419000   50.555200  105.764000
  H    -110.404000   52.110600  105.336000
  C    -109.294000   51.812400  107.160000
  H    -109.370000   51.331500  108.175000
  H    -108.291000   51.431600  106.593000
  H    -109.235000   52.880800  107.378000
  S    -110.681000   55.967400  110.455000
  C    -111.305000   56.570300  112.025000
  C    -112.671000   56.278100  112.173000
  C    -113.214000   55.658600  111.004000
  C    -112.294000   55.518400  110.005000
  H    -113.263000   56.350600  113.050000
  C    -114.693000   55.295500  110.876000
  H    -114.954000   55.239400  109.807000
  H    -115.171000   56.182600  111.226000
  C    -115.124000   53.995100  111.598000
  H    -114.426000   53.279900  111.212000
  H    -116.122000   53.620400  111.278000
  C    -115.115000   54.088400  113.148000
  H    -114.108000   54.107700  113.466000
  H    -115.574000   53.152200  113.457000
  H    -115.533000   55.024400  113.583000
  H    -113.358000   53.739700  105.479000
  H    -110.689000   56.778300  112.825000

 Total Charge           Charge          ....    0
 Multiplicity           Mult            ....    1
 Number of Electrons    NEL             ....  134
 Basis Dimension        Dim             ....  322

ORBITAL ENERGIES
----------------

  NO   OCC          E(Eh)            E(eV)
   0   2.0000     -88.966983     -2420.9147
   1   2.0000     -88.964689     -2420.8523
   2   2.0000     -10.325269      -280.9649
   3   2.0000     -10.318912      -280.7919
   4   2.0000     -10.318161      -280.7714
   5   2.0000     -10.316783      -280.7339
   6   2.0000     -10.301066      -280.3063
   7   2.0000     -10.299092      -280.2525
   8   2.0000     -10.296607      -280.1849
   9   2.0000     -10.294745      -280.1342
  10   2.0000     -10.294719      -280.1335
  11   2.0000     -10.292760      -280.0802
  12   2.0000     -10.287247      -279.9302
  13   2.0000     -10.286460      -279.9088
  14   2.0000     -10.283897      -279.8391
  15   2.0000     -10.277985      -279.6782
  16   2.0000      -8.081334      -219.9043
  17   2.0000      -8.078201      -219.8190
  18   2.0000      -6.039805      -164.3514
  19   2.0000      -6.036831      -164.2705
  20   2.0000      -6.035939      -164.2463
  21   2.0000      -6.032948      -164.1649
  22   2.0000      -6.032110      -164.1420
  23   2.0000      -6.028837      -164.0530
  24   2.0000      -1.006385       -27.3851
  25   2.0000      -0.979560       -26.6552
  26   2.0000      -0.908435       -24.7198
  27   2.0000      -0.904472       -24.6119
  28   2.0000      -0.870846       -23.6969
  29   2.0000      -0.848040       -23.0763
  30   2.0000      -0.842121       -22.9153
  31   2.0000      -0.815044       -22.1785
  32   2.0000      -0.783237       -21.3129
  33   2.0000      -0.771600       -20.9963
  34   2.0000      -0.707377       -19.2487
  35   2.0000      -0.706561       -19.2265
  36   2.0000      -0.693239       -18.8640
  37   2.0000      -0.674122       -18.3438
  38   2.0000      -0.642067       -17.4715
  39   2.0000      -0.611485       -16.6393
  40   2.0000      -0.591978       -16.1085
  41   2.0000      -0.568008       -15.4563
  42   2.0000      -0.552907       -15.0454
  43   2.0000      -0.549804       -14.9609
  44   2.0000      -0.543516       -14.7898
  45   2.0000      -0.538961       -14.6659
  46   2.0000      -0.522798       -14.2261
  47   2.0000      -0.507730       -13.8160
  48   2.0000      -0.499918       -13.6034
  49   2.0000      -0.493932       -13.4406
  50   2.0000      -0.482848       -13.1390
  51   2.0000      -0.478747       -13.0274
  52   2.0000      -0.474844       -12.9212
  53   2.0000      -0.464517       -12.6401
  54   2.0000      -0.459656       -12.5079
  55   2.0000      -0.446885       -12.1604
  56   2.0000      -0.440219       -11.9790
  57   2.0000      -0.437493       -11.9048
  58   2.0000      -0.433983       -11.8093
  59   2.0000      -0.428469       -11.6592
  60   2.0000      -0.421309       -11.4644
  61   2.0000      -0.413382       -11.2487
  62   2.0000      -0.410217       -11.1626
  63   2.0000      -0.337557        -9.1854
  64   2.0000      -0.333182        -9.0663
  65   2.0000      -0.322978        -8.7887
  66   2.0000      -0.307890        -8.3781
  67   0.0000       0.039186         1.0663
  68   0.0000       0.054872         1.4931
  69   0.0000       0.105533         2.8717
  70   0.0000       0.109952         2.9920
  71   0.0000       0.125467         3.4141

MULLIKEN ATOMIC CHARGES
-----------------------
   0 S :    0.092509
   1 C :   -0.127922
   2 C :   -0.075855
   3 C :    0.044675
   4 C :   -0.173322
   5 H :    0.012912
   6 C :    0.060884
   7 H :    0.013111
   8 H :    0.032981
   9 C :   -0.008007
  10 H :    0.014659
  11 H :    0.015822
  12 C :   -0.112990
  13 H :    0.038185
  14 H :    0.056966
  15 H :    0.054611
  16 S :    0.102172
  17 C :   -0.059536
  18 C :   -0.015144
  19 C :   -0.042720
  20 C :   -0.188395
  21 H :    0.004886
  22 C :    0.083727
  23 H :    0.023529
  24 H :    0.019006
  25 C :   -0.065952
  26 H :    0.025240
  27 H :    0.034594
  28 C :   -0.049044
  29 H :    0.024924
  30 H :    0.040874
  31 H :    0.039970
  32 H :    0.045617
  33 H :    0.037032
Sum of atomic charges:   -0.0000000

LOEWDIN ATOMIC CHARGES
----------------------
   0 S :    0.373108
   1 C :   -0.181852
   2 C :   -0.066214
   3 C :   -0.060921
   4 C :   -0.186881
   5 H :    0.031981
   6 C :   -0.024347
   7 H :    0.020428
   8 H :    0.037638
   9 C :   -0.038762
  10 H :    0.017795
  11 H :    0.023262
  12 C :   -0.077790
  13 H :    0.025986
  14 H :    0.045738
  15 H :    0.028018
  16 S :    0.404101
  17 C :   -0.163478
  18 C :   -0.056875
  19 C :   -0.053327
  20 C :   -0.209941
  21 H :    0.025432
  22 C :   -0.030463
  23 H :    0.028851
  24 H :    0.024162
  25 C :   -0.035607
  26 H :    0.024327
  27 H :    0.026019
  28 C :   -0.066920
  29 H :    0.017596
  30 H :    0.030827
  31 H :    0.028609
  32 H :    0.027858
  33 H :    0.011642

  Mayer bond orders larger than 0.100000
B(  0-S ,  1-C ) :   1.1229 B(  0-S ,  4-C ) :   1.1183 B(  1-C ,  2-C ) :   1.6509
B(  1-C , 32-H ) :   0.9683 B(  2-C ,  3-C ) :   1.1992 B(  2-C ,  6-C ) :   1.0172
B(  3-C ,  4-C ) :   1.6498 B(  3-C ,  5-H ) :   0.9866 B(  4-C , 20-C ) :   0.9896
B(  6-C ,  7-H ) :   0.9332 B(  6-C ,  8-H ) :   0.9450 B(  6-C ,  9-C ) :   1.0739
B(  9-C , 10-H ) :   0.9550 B(  9-C , 11-H ) :   0.9486 B(  9-C , 12-C ) :   1.0670
B( 12-C , 13-H ) :   0.9749 B( 12-C , 14-H ) :   0.9709 B( 12-C , 15-H ) :   0.9738
B( 16-S , 17-C ) :   1.1495 B( 16-S , 20-C ) :   1.1471 B( 17-C , 18-C ) :   1.5935
B( 17-C , 33-H ) :   0.9754 B( 18-C , 19-C ) :   1.2556 B( 18-C , 21-H ) :   0.9846
B( 19-C , 20-C ) :   1.6257 B( 19-C , 22-C ) :   1.0197 B( 22-C , 23-H ) :   0.9309
B( 22-C , 24-H ) :   0.9413 B( 22-C , 25-C ) :   1.0628 B( 25-C , 26-H ) :   0.9523
B( 25-C , 27-H ) :   0.9628 B( 25-C , 28-C ) :   1.0711 B( 28-C , 29-H ) :   0.9718
B( 28-C , 30-H ) :   0.9725 B( 28-C , 31-H ) :   0.9766

Dispersion correction           -0.015367656
FINAL SINGLE POINT ENERGY     -1339.865610134344

DIPOLE MOMENT
-------------
                                X             Y             Z
Electronic contribution:      3.12113      17.59204      -4.01906
Nuclear contribution   :     -3.23589     -18.24571       4.15522
                        -----------------------------------------
Total Dipole Moment    :     -0.11476      -0.65367       0.13616
                        -----------------------------------------
Magnitude (a.u.)       :      0.67749
Magnitude (Debye)      :      1.72205

Rotational constants in cm-1:     0.019803     0.008422     0.007624
Rotational constants in MHz :   593.680701   252.499823   228.567018

                             ****ORCA TERMINATED NORMALLY****
TOTAL RUN TIME: 0 days 0 hours 0 minutes 33 seconds 629 msec
