                         Program Version 4.2.1 -  RELEASE  -
|  1> ! wB97X-D3 SP def2-SVP
|  2> %pal
|  3> nprocs 16
|  4> end
|  5>
|  6> * xyz 0 1
|  7> S 	 -31.004 	 60.306 	 108.176
|  8> C 	 -30.5041 	 60.848 	 106.574
|  9> C 	 -31.6357 	 60.8681 	 105.715
| 10> C 	 -32.8568 	 60.699 	 106.422
| 11> C 	 -32.6777 	 60.2489 	 107.704
| 12> H 	 -33.8031 	 60.8601 	 105.952
| 13> C 	 -31.445 	 61.293 	 104.261
| 14> H 	 -30.991 	 62.316 	 104.229
| 15> H 	 -32.4011 	 61.416 	 103.745
| 16> C 	 -30.5732 	 60.3505 	 103.438
| 17> H 	 -29.5191 	 60.5955 	 103.661
| 18> H 	 -30.6442 	 59.3413 	 103.744
| 19> C 	 -30.8718 	 60.3841 	 101.951
| 20> H 	 -30.0657 	 59.7855 	 101.483
| 21> H 	 -31.8844 	 59.9953 	 101.739
| 22> H 	 -30.7738 	 61.3761 	 101.462
| 23> S 	 -33.4215 	 61.0878 	 110.221
| 24> C 	 -35.0178 	 60.5577 	 110.859
| 25> C 	 -35.5707 	 59.5762 	 110.059
| 26> C 	 -34.992 	 59.5702 	 108.76
| 27> C 	 -33.7524 	 60.2045 	 108.73
| 28> H 	 -36.4154 	 59.1383 	 110.494
| 29> C 	 -35.5905 	 58.7156 	 107.654
| 30> H 	 -35.8234 	 57.7492 	 108.141
| 31> H 	 -34.6642 	 58.4756 	 107.167
| 32> C 	 -36.8033 	 59.3355 	 106.945
| 33> H 	 -36.4755 	 60.161 	 106.356
| 34> H 	 -37.4577 	 59.7141 	 107.738
| 35> C 	 -37.565 	 58.3838 	 105.986
| 36> H 	 -38.4313 	 58.9577 	 105.58
| 37> H 	 -38.0628 	 57.5897 	 106.573
| 38> H 	 -37.0051 	 58.0051 	 105.187
| 39> H 	 -29.5193 	 60.8972 	 106.143
| 40> H 	 -35.5364 	 60.8117 	 111.792
| 41> *
| 42>
| 43>                          ****END OF INPUT****

CARTESIAN COORDINATES (ANGSTROEM)
---------------------------------
  S    -31.004000   60.306000  108.176000
  C    -30.504100   60.848000  106.574000
  C    -31.635700   60.868100  105.715000
  C    -32.856800   60.699000  106.422000
  C    -32.677700   60.248900  107.704000
  H    -33.803100   60.860100  105.952000
  C    -31.445000   61.293000  104.261000
  H    -30.991000   62.316000  104.229000
  H    -32.401100   61.416000  103.745000
  C    -30.573200   60.350500  103.438000
  H    -29.519100   60.595500  103.661000
  H    -30.644200   59.341300  103.744000
  C    -30.871800   60.384100  101.951000
  H    -30.065700   59.785500  101.483000
  H    -31.884400   59.995300  101.739000
  H    -30.773800   61.376100  101.462000
  S    -33.421500   61.087800  110.221000
  C    -35.017800   60.557700  110.859000
  C    -35.570700   59.576200  110.059000
  C    -34.992000   59.570200  108.760000
  C    -33.752400   60.204500  108.730000
  H    -36.415400   59.138300  110.494000
  C    -35.590500   58.715600  107.654000
  H    -35.823400   57.749200  108.141000
  H    -34.664200   58.475600  107.167000
  C    -36.803300   59.335500  106.945000
  H    -36.475500   60.161000  106.356000
  H    -37.457700   59.714100  107.738000
  C    -37.565000   58.383800  105.986000
  H    -38.431300   58.957700  105.580000
  H    -38.062800   57.589700  106.573000
  H    -37.005100   58.005100  105.187000
  H    -29.519300   60.897200  106.143000
  H    -35.536400   60.811700  111.792000

 Total Charge           Charge          ....    0
 Multiplicity           Mult            ....    1
 Number of Electrons    NEL             ....  134
 Basis Dimension        Dim             ....  322

ORBITAL ENERGIES
----------------

  NO   OCC          E(Eh)            E(eV)
   0   2.0000     -88.971410     -2421.0352
   1   2.0000     -88.965338     -2420.8699
   2   2.0000     -10.331009      -281.1211
   3   2.0000     -10.329033      -281.0673
   4   2.0000     -10.317409      -280.7510
   5   2.0000     -10.315763      -280.7062
   6   2.0000     -10.303632      -280.3761
   7   2.0000     -10.302227      -280.3379
   8   2.0000     -10.293867      -280.1104
   9   2.0000     -10.293531      -280.1012
  10   2.0000     -10.289530      -279.9924
  11   2.0000     -10.288001      -279.9507
  12   2.0000     -10.286972      -279.9227
  13   2.0000     -10.284353      -279.8515
  14   2.0000     -10.283522      -279.8289
  15   2.0000     -10.279953      -279.7317
  16   2.0000      -8.085534      -220.0186
  17   2.0000      -8.078879      -219.8375
  18   2.0000      -6.044119      -164.4688
  19   2.0000      -6.040028      -164.3575
  20   2.0000      -6.037569      -164.2906
  21   2.0000      -6.036341      -164.2572
  22   2.0000      -6.033652      -164.1840
  23   2.0000      -6.029402      -164.0684
  24   2.0000      -1.004989       -27.3471
  25   2.0000      -0.980172       -26.6718
  26   2.0000      -0.913788       -24.8654
  27   2.0000      -0.905113       -24.6294
  28   2.0000      -0.867023       -23.5929
  29   2.0000      -0.852747       -23.2044
  30   2.0000      -0.846247       -23.0275
  31   2.0000      -0.818384       -22.2694
  32   2.0000      -0.779787       -21.2191
  33   2.0000      -0.767232       -20.8775
  34   2.0000      -0.707601       -19.2548
  35   2.0000      -0.703381       -19.1400
  36   2.0000      -0.694373       -18.8949
  37   2.0000      -0.660056       -17.9610
  38   2.0000      -0.638017       -17.3613
  39   2.0000      -0.621905       -16.9229
  40   2.0000      -0.581396       -15.8206
  41   2.0000      -0.572630       -15.5821
  42   2.0000      -0.566888       -15.4258
  43   2.0000      -0.563059       -15.3216
  44   2.0000      -0.532517       -14.4905
  45   2.0000      -0.523629       -14.2487
  46   2.0000      -0.519589       -14.1387
  47   2.0000      -0.512102       -13.9350
  48   2.0000      -0.504474       -13.7274
  49   2.0000      -0.497008       -13.5243
  50   2.0000      -0.494309       -13.4508
  51   2.0000      -0.476257       -12.9596
  52   2.0000      -0.470579       -12.8051
  53   2.0000      -0.463258       -12.6059
  54   2.0000      -0.458469       -12.4756
  55   2.0000      -0.452890       -12.3238
  56   2.0000      -0.443129       -12.0582
  57   2.0000      -0.437487       -11.9046
  58   2.0000      -0.433722       -11.8022
  59   2.0000      -0.421034       -11.4569
  60   2.0000      -0.418796       -11.3960
  61   2.0000      -0.415224       -11.2988
  62   2.0000      -0.414761       -11.2862
  63   2.0000      -0.349642        -9.5142
  64   2.0000      -0.331384        -9.0174
  65   2.0000      -0.327986        -8.9249
  66   2.0000      -0.285758        -7.7759
  67   0.0000       0.027406         0.7458
  68   0.0000       0.063771         1.7353
  69   0.0000       0.107986         2.9385
  70   0.0000       0.120163         3.2698
  71   0.0000       0.130545         3.5523

MULLIKEN ATOMIC CHARGES
-----------------------
   0 S :    0.111901
   1 C :   -0.113406
   2 C :   -0.108469
   3 C :    0.038508
   4 C :   -0.126625
   5 H :    0.006400
   6 C :    0.049172
   7 H :    0.049508
   8 H :    0.011501
   9 C :   -0.074557
  10 H :    0.024256
  11 H :    0.025861
  12 C :   -0.069283
  13 H :    0.037554
  14 H :    0.044998
  15 H :    0.032830
  16 S :    0.102015
  17 C :   -0.114729
  18 C :   -0.006971
  19 C :   -0.077633
  20 C :   -0.134381
  21 H :    0.003437
  22 C :    0.068798
  23 H :    0.019734
  24 H :    0.017120
  25 C :   -0.044878
  26 H :    0.023221
  27 H :    0.031522
  28 C :   -0.035343
  29 H :    0.033119
  30 H :    0.030777
  31 H :    0.033936
  32 H :    0.051867
  33 H :    0.058241
Sum of atomic charges:   -0.0000000

LOEWDIN ATOMIC CHARGES
----------------------
   0 S :    0.413294
   1 C :   -0.200118
   2 C :   -0.056256
   3 C :   -0.059159
   4 C :   -0.198165
   5 H :    0.029327
   6 C :   -0.037922
   7 H :    0.040747
   8 H :    0.024452
   9 C :   -0.045235
  10 H :    0.023019
  11 H :    0.020888
  12 C :   -0.068738
  13 H :    0.032075
  14 H :    0.028140
  15 H :    0.025686
  16 S :    0.376501
  17 C :   -0.175082
  18 C :   -0.063899
  19 C :   -0.057614
  20 C :   -0.190321
  21 H :    0.024751
  22 C :   -0.038760
  23 H :    0.033084
  24 H :    0.027860
  25 C :   -0.034045
  26 H :    0.019970
  27 H :    0.029291
  28 C :   -0.061505
  29 H :    0.031972
  30 H :    0.026941
  31 H :    0.017947
  32 H :    0.027166
  33 H :    0.033707

  Mayer bond orders larger than 0.100000
B(  0-S ,  1-C ) :   1.1396 B(  0-S ,  4-C ) :   1.1615 B(  1-C ,  2-C ) :   1.5718
B(  1-C ,  4-C ) :   0.1004 B(  1-C , 32-H ) :   0.9697 B(  2-C ,  3-C ) :   1.2833
B(  2-C ,  6-C ) :   1.0244 B(  3-C ,  4-C ) :   1.5361 B(  3-C ,  5-H ) :   0.9941
B(  4-C , 20-C ) :   1.0208 B(  6-C ,  7-H ) :   0.9401 B(  6-C ,  8-H ) :   0.9511
B(  6-C ,  9-C ) :   1.0458 B(  9-C , 10-H ) :   0.9502 B(  9-C , 11-H ) :   0.9622
B(  9-C , 12-C ) :   1.0945 B( 12-C , 13-H ) :   0.9725 B( 12-C , 14-H ) :   0.9738
B( 12-C , 15-H ) :   0.9736 B( 16-S , 17-C ) :   1.1289 B( 16-S , 20-C ) :   1.1275
B( 17-C , 18-C ) :   1.6581 B( 17-C , 33-H ) :   0.9628 B( 18-C , 19-C ) :   1.2035
B( 18-C , 21-H ) :   0.9924 B( 19-C , 20-C ) :   1.6202 B( 19-C , 22-C ) :   1.0293
B( 22-C , 23-H ) :   0.9396 B( 22-C , 24-H ) :   0.9340 B( 22-C , 25-C ) :   1.0409
B( 25-C , 26-H ) :   0.9535 B( 25-C , 27-H ) :   0.9560 B( 25-C , 28-C ) :   1.0883
B( 28-C , 29-H ) :   0.9741 B( 28-C , 30-H ) :   0.9752 B( 28-C , 31-H ) :   0.9771

Dispersion correction           -0.013526302
FINAL SINGLE POINT ENERGY     -1339.860444391235

DIPOLE MOMENT
-------------
                                X             Y             Z
Electronic contribution:     10.19326       6.21274      28.25800
Nuclear contribution   :    -10.56530      -6.32886     -28.82517
                        -----------------------------------------
Total Dipole Moment    :     -0.37205      -0.11612      -0.56717
                        -----------------------------------------
Magnitude (a.u.)       :      0.68818
Magnitude (Debye)      :      1.74921

Rotational constants in cm-1:     0.017655     0.008358     0.005941
Rotational constants in MHz :   529.287212   250.565460   178.095811

                             ****ORCA TERMINATED NORMALLY****
TOTAL RUN TIME: 0 days 0 hours 0 minutes 28 seconds 591 msec
