                         Program Version 4.2.1 -  RELEASE  -
|  1> ! wB97X-D3 SP def2-SVP
|  2> %pal
|  3> nprocs 16
|  4> end
|  5>
|  6> * xyz 0 1
|  7> S 	 -1.81769 	 -12.4351 	 69.3269
|  8> C 	 -0.620297 	 -13.0995 	 68.2162
|  9> C 	 -0.0153206 	 -14.1939 	 68.7363
| 10> C 	 -0.392226 	 -14.3909 	 70.0799
| 11> C 	 -1.27118 	 -13.4832 	 70.6203
| 12> H 	 -0.104852 	 -15.2655 	 70.7283
| 13> C 	 0.865395 	 -15.1409 	 68.0048
| 14> H 	 0.252627 	 -15.4787 	 67.1415
| 15> H 	 1.06531 	 -16.0165 	 68.5563
| 16> C 	 2.27122 	 -14.5721 	 67.624
| 17> H 	 2.19606 	 -13.8084 	 66.82
| 18> H 	 2.60243 	 -14.099 	 68.5234
| 19> C 	 3.25851 	 -15.6031 	 67.1186
| 20> H 	 3.20981 	 -16.5355 	 67.5656
| 21> H 	 2.95172 	 -15.8188 	 66.11
| 22> H 	 4.23969 	 -15.1881 	 67.1353
| 23> S 	 -3.50388 	 -13.5569 	 72.1252
| 24> C 	 -3.32324 	 -13.7469 	 73.9321
| 25> C 	 -2.0421 	 -13.8913 	 74.2634
| 26> C 	 -1.14363 	 -13.735 	 73.1436
| 27> C 	 -1.77106 	 -13.4215 	 71.9709
| 28> H 	 -1.75745 	 -14.2505 	 75.2672
| 29> C 	 0.325 	 -13.8318 	 73.3806
| 30> H 	 0.67754 	 -14.8324 	 73.0846
| 31> H 	 0.488192 	 -13.7323 	 74.484
| 32> C 	 1.13857 	 -12.7235 	 72.7333
| 33> H 	 0.887753 	 -11.7538 	 73.1813
| 34> H 	 0.884352 	 -12.5621 	 71.7088
| 35> C 	 2.67514 	 -13.0613 	 72.7925
| 36> H 	 2.81205 	 -14.0383 	 72.3511
| 37> H 	 3.01203 	 -13.2063 	 73.8263
| 38> H 	 3.30355 	 -12.3076 	 72.368
| 39> H 	 -0.64561 	 -12.9002 	 67.1621
| 40> H 	 -4.06278 	 -13.9316 	 74.6898
| 41> *
| 42>
| 43>                          ****END OF INPUT****

CARTESIAN COORDINATES (ANGSTROEM)
---------------------------------
  S     -1.817690  -12.435100   69.326900
  C     -0.620297  -13.099500   68.216200
  C     -0.015321  -14.193900   68.736300
  C     -0.392226  -14.390900   70.079900
  C     -1.271180  -13.483200   70.620300
  H     -0.104852  -15.265500   70.728300
  C      0.865395  -15.140900   68.004800
  H      0.252627  -15.478700   67.141500
  H      1.065310  -16.016500   68.556300
  C      2.271220  -14.572100   67.624000
  H      2.196060  -13.808400   66.820000
  H      2.602430  -14.099000   68.523400
  C      3.258510  -15.603100   67.118600
  H      3.209810  -16.535500   67.565600
  H      2.951720  -15.818800   66.110000
  H      4.239690  -15.188100   67.135300
  S     -3.503880  -13.556900   72.125200
  C     -3.323240  -13.746900   73.932100
  C     -2.042100  -13.891300   74.263400
  C     -1.143630  -13.735000   73.143600
  C     -1.771060  -13.421500   71.970900
  H     -1.757450  -14.250500   75.267200
  C      0.325000  -13.831800   73.380600
  H      0.677540  -14.832400   73.084600
  H      0.488192  -13.732300   74.484000
  C      1.138570  -12.723500   72.733300
  H      0.887753  -11.753800   73.181300
  H      0.884352  -12.562100   71.708800
  C      2.675140  -13.061300   72.792500
  H      2.812050  -14.038300   72.351100
  H      3.012030  -13.206300   73.826300
  H      3.303550  -12.307600   72.368000
  H     -0.645610  -12.900200   67.162100
  H     -4.062780  -13.931600   74.689800

 Total Charge           Charge          ....    0
 Multiplicity           Mult            ....    1
 Number of Electrons    NEL             ....  134
 Basis Dimension        Dim             ....  322

ORBITAL ENERGIES
----------------

  NO   OCC          E(Eh)            E(eV)
   0   2.0000     -88.964260     -2420.8406
   1   2.0000     -88.964213     -2420.8393
   2   2.0000     -10.327252      -281.0188
   3   2.0000     -10.323767      -280.9240
   4   2.0000     -10.317649      -280.7575
   5   2.0000     -10.309983      -280.5489
   6   2.0000     -10.300558      -280.2924
   7   2.0000     -10.296126      -280.1718
   8   2.0000     -10.293411      -280.0980
   9   2.0000     -10.293116      -280.0899
  10   2.0000     -10.292433      -280.0713
  11   2.0000     -10.290243      -280.0117
  12   2.0000     -10.287272      -279.9309
  13   2.0000     -10.279222      -279.7118
  14   2.0000     -10.274445      -279.5819
  15   2.0000     -10.268926      -279.4317
  16   2.0000      -8.078894      -219.8379
  17   2.0000      -8.078231      -219.8198
  18   2.0000      -6.037442      -164.2872
  19   2.0000      -6.037098      -164.2778
  20   2.0000      -6.033451      -164.1786
  21   2.0000      -6.033059      -164.1679
  22   2.0000      -6.029585      -164.0733
  23   2.0000      -6.028403      -164.0412
  24   2.0000      -1.011153       -27.5149
  25   2.0000      -0.987206       -26.8632
  26   2.0000      -0.915660       -24.9164
  27   2.0000      -0.907229       -24.6870
  28   2.0000      -0.879062       -23.9205
  29   2.0000      -0.851926       -23.1821
  30   2.0000      -0.843344       -22.9486
  31   2.0000      -0.820110       -22.3163
  32   2.0000      -0.784456       -21.3461
  33   2.0000      -0.768989       -20.9253
  34   2.0000      -0.715762       -19.4769
  35   2.0000      -0.705766       -19.2049
  36   2.0000      -0.693268       -18.8648
  37   2.0000      -0.662902       -18.0385
  38   2.0000      -0.641279       -17.4501
  39   2.0000      -0.615666       -16.7531
  40   2.0000      -0.593544       -16.1511
  41   2.0000      -0.576404       -15.6848
  42   2.0000      -0.565170       -15.3790
  43   2.0000      -0.562292       -15.3007
  44   2.0000      -0.534097       -14.5335
  45   2.0000      -0.525864       -14.3095
  46   2.0000      -0.521162       -14.1815
  47   2.0000      -0.511984       -13.9318
  48   2.0000      -0.503037       -13.6883
  49   2.0000      -0.499386       -13.5890
  50   2.0000      -0.492076       -13.3901
  51   2.0000      -0.484115       -13.1734
  52   2.0000      -0.473120       -12.8743
  53   2.0000      -0.465671       -12.6715
  54   2.0000      -0.456105       -12.4113
  55   2.0000      -0.446678       -12.1547
  56   2.0000      -0.445213       -12.1149
  57   2.0000      -0.437782       -11.9127
  58   2.0000      -0.433374       -11.7927
  59   2.0000      -0.425141       -11.5687
  60   2.0000      -0.421085       -11.4583
  61   2.0000      -0.417662       -11.3652
  62   2.0000      -0.412934       -11.2365
  63   2.0000      -0.353907        -9.6303
  64   2.0000      -0.330941        -9.0054
  65   2.0000      -0.325951        -8.8696
  66   2.0000      -0.295729        -8.0472
  67   0.0000       0.025194         0.6856
  68   0.0000       0.071318         1.9407
  69   0.0000       0.095135         2.5888
  70   0.0000       0.122263         3.3269
  71   0.0000       0.136412         3.7119

MULLIKEN ATOMIC CHARGES
-----------------------
   0 S :    0.101213
   1 C :   -0.112030
   2 C :   -0.083084
   3 C :   -0.001447
   4 C :   -0.182674
   5 H :    0.025832
   6 C :    0.082985
   7 H :    0.036169
   8 H :   -0.001132
   9 C :   -0.091602
  10 H :    0.033188
  11 H :    0.027092
  12 C :    0.010433
  13 H :    0.009468
  14 H :    0.015432
  15 H :    0.037572
  16 S :    0.082948
  17 C :   -0.062733
  18 C :   -0.037943
  19 C :   -0.064403
  20 C :   -0.091372
  21 H :    0.030358
  22 C :    0.048384
  23 H :    0.031021
  24 H :    0.026983
  25 C :   -0.077304
  26 H :    0.028524
  27 H :    0.044206
  28 C :   -0.029848
  29 H :    0.019814
  30 H :    0.018078
  31 H :    0.035935
  32 H :    0.043752
  33 H :    0.046184
Sum of atomic charges:    0.0000000

LOEWDIN ATOMIC CHARGES
----------------------
   0 S :    0.397462
   1 C :   -0.186883
   2 C :   -0.068541
   3 C :   -0.069321
   4 C :   -0.198271
   5 H :    0.037984
   6 C :   -0.029412
   7 H :    0.036054
   8 H :    0.021428
   9 C :   -0.032382
  10 H :    0.026493
  11 H :    0.019506
  12 C :   -0.056536
  13 H :    0.013643
  14 H :    0.026498
  15 H :    0.028213
  16 S :    0.373449
  17 C :   -0.155713
  18 C :   -0.071031
  19 C :   -0.055788
  20 C :   -0.198181
  21 H :    0.038991
  22 C :   -0.035285
  23 H :    0.029228
  24 H :    0.035343
  25 C :   -0.037116
  26 H :    0.026283
  27 H :    0.021243
  28 C :   -0.060611
  29 H :    0.021628
  30 H :    0.022206
  31 H :    0.022819
  32 H :    0.025248
  33 H :    0.031352

  Mayer bond orders larger than 0.100000
B(  0-S ,  1-C ) :   1.1341 B(  0-S ,  4-C ) :   1.1463 B(  1-C ,  2-C ) :   1.6111
B(  1-C ,  4-C ) :   0.1005 B(  1-C , 32-H ) :   0.9683 B(  2-C ,  3-C ) :   1.2573
B(  2-C ,  6-C ) :   1.0283 B(  3-C ,  4-C ) :   1.5722 B(  3-C ,  5-H ) :   0.9845
B(  4-C , 20-C ) :   1.0319 B(  6-C ,  7-H ) :   0.9307 B(  6-C ,  8-H ) :   0.9389
B(  6-C ,  9-C ) :   1.0557 B(  9-C , 10-H ) :   0.9569 B(  9-C , 11-H ) :   0.9599
B(  9-C , 12-C ) :   1.0879 B( 12-C , 13-H ) :   0.9737 B( 12-C , 14-H ) :   0.9711
B( 12-C , 15-H ) :   0.9736 B( 16-S , 17-C ) :   1.1132 B( 16-S , 20-C ) :   1.1178
B( 17-C , 18-C ) :   1.6830 B( 17-C , 33-H ) :   0.9613 B( 18-C , 19-C ) :   1.2131
B( 18-C , 21-H ) :   0.9801 B( 19-C , 20-C ) :   1.6343 B( 19-C , 22-C ) :   1.0392
B( 22-C , 23-H ) :   0.9243 B( 22-C , 24-H ) :   0.9395 B( 22-C , 25-C ) :   1.0663
B( 25-C , 26-H ) :   0.9534 B( 25-C , 27-H ) :   0.9562 B( 25-C , 28-C ) :   1.0755
B( 28-C , 29-H ) :   0.9754 B( 28-C , 30-H ) :   0.9755 B( 28-C , 31-H ) :   0.9757

Dispersion correction           -0.014655946
FINAL SINGLE POINT ENERGY     -1339.873914364327

DIPOLE MOMENT
-------------
                                X             Y             Z
Electronic contribution:    -30.25296       7.92713       4.14050
Nuclear contribution   :     30.81669      -8.51946      -4.03792
                        -----------------------------------------
Total Dipole Moment    :      0.56373      -0.59233       0.10258
                        -----------------------------------------
Magnitude (a.u.)       :      0.82411
Magnitude (Debye)      :      2.09473

Rotational constants in cm-1:     0.020311     0.008751     0.006873
Rotational constants in MHz :   608.919283   262.354031   206.061375

                             ****ORCA TERMINATED NORMALLY****
TOTAL RUN TIME: 0 days 0 hours 0 minutes 37 seconds 470 msec
