                         Program Version 4.2.1 -  RELEASE  -
|  1> ! wB97X-D3 SP def2-SVP
|  2> %pal
|  3> nprocs 16
|  4> end
|  5>
|  6> * xyz 0 1
|  7> S 	 -65.8857 	 40.3691 	 122.232
|  8> C 	 -67.1594 	 40.4507 	 120.943
|  9> C 	 -68.4098 	 40.591 	 121.529
| 10> C 	 -68.3548 	 40.717 	 122.959
| 11> C 	 -67.0425 	 40.7419 	 123.478
| 12> H 	 -69.1646 	 40.9078 	 123.666
| 13> C 	 -69.755 	 40.6908 	 120.782
| 14> H 	 -69.9534 	 41.6416 	 120.319
| 15> H 	 -70.5243 	 40.5418 	 121.576
| 16> C 	 -69.8319 	 39.71 	 119.602
| 17> H 	 -69.4121 	 40.1056 	 118.701
| 18> H 	 -69.1434 	 38.8666 	 119.756
| 19> C 	 -71.2863 	 39.2034 	 119.425
| 20> H 	 -71.4234 	 38.4757 	 118.649
| 21> H 	 -71.642 	 38.7479 	 120.32
| 22> H 	 -71.9279 	 40.0298 	 119.275
| 23> S 	 -65.6594 	 39.7692 	 125.624
| 24> C 	 -65.7335 	 40.6049 	 127.198
| 25> C 	 -66.3487 	 41.8264 	 127.022
| 26> C 	 -67.0286 	 41.9011 	 125.754
| 27> C 	 -66.6507 	 41.004 	 124.836
| 28> H 	 -66.4466 	 42.4234 	 127.866
| 29> C 	 -68.0966 	 42.9805 	 125.466
| 30> H 	 -68.2845 	 43.0548 	 124.426
| 31> H 	 -67.6265 	 43.9377 	 125.787
| 32> C 	 -69.4304 	 42.8121 	 126.258
| 33> H 	 -69.1726 	 42.7112 	 127.288
| 34> H 	 -69.9115 	 41.9094 	 125.895
| 35> C 	 -70.3894 	 43.9576 	 126.109
| 36> H 	 -69.801 	 44.8214 	 126.336
| 37> H 	 -71.218 	 43.9377 	 126.857
| 38> H 	 -70.6808 	 43.9477 	 125.03
| 39> H 	 -67.1438 	 40.4793 	 119.882
| 40> H 	 -65.3593 	 40.2457 	 128.153
| 41> *
| 42>
| 43>                          ****END OF INPUT****

CARTESIAN COORDINATES (ANGSTROEM)
---------------------------------
  S    -65.885700   40.369100  122.232000
  C    -67.159400   40.450700  120.943000
  C    -68.409800   40.591000  121.529000
  C    -68.354800   40.717000  122.959000
  C    -67.042500   40.741900  123.478000
  H    -69.164600   40.907800  123.666000
  C    -69.755000   40.690800  120.782000
  H    -69.953400   41.641600  120.319000
  H    -70.524300   40.541800  121.576000
  C    -69.831900   39.710000  119.602000
  H    -69.412100   40.105600  118.701000
  H    -69.143400   38.866600  119.756000
  C    -71.286300   39.203400  119.425000
  H    -71.423400   38.475700  118.649000
  H    -71.642000   38.747900  120.320000
  H    -71.927900   40.029800  119.275000
  S    -65.659400   39.769200  125.624000
  C    -65.733500   40.604900  127.198000
  C    -66.348700   41.826400  127.022000
  C    -67.028600   41.901100  125.754000
  C    -66.650700   41.004000  124.836000
  H    -66.446600   42.423400  127.866000
  C    -68.096600   42.980500  125.466000
  H    -68.284500   43.054800  124.426000
  H    -67.626500   43.937700  125.787000
  C    -69.430400   42.812100  126.258000
  H    -69.172600   42.711200  127.288000
  H    -69.911500   41.909400  125.895000
  C    -70.389400   43.957600  126.109000
  H    -69.801000   44.821400  126.336000
  H    -71.218000   43.937700  126.857000
  H    -70.680800   43.947700  125.030000
  H    -67.143800   40.479300  119.882000
  H    -65.359300   40.245700  128.153000

 Total Charge           Charge          ....    0
 Multiplicity           Mult            ....    1
 Number of Electrons    NEL             ....  134
 Basis Dimension        Dim             ....  322

ORBITAL ENERGIES
----------------

  NO   OCC          E(Eh)            E(eV)
   0   2.0000     -88.971492     -2421.0374
   1   2.0000     -88.960610     -2420.7413
   2   2.0000     -10.333205      -281.1808
   3   2.0000     -10.324636      -280.9476
   4   2.0000     -10.323462      -280.9157
   5   2.0000     -10.316431      -280.7243
   6   2.0000     -10.305343      -280.4226
   7   2.0000     -10.304629      -280.4032
   8   2.0000     -10.298374      -280.2330
   9   2.0000     -10.296990      -280.1953
  10   2.0000     -10.294162      -280.1184
  11   2.0000     -10.291799      -280.0541
  12   2.0000     -10.285849      -279.8922
  13   2.0000     -10.282721      -279.8071
  14   2.0000     -10.281183      -279.7652
  15   2.0000     -10.272404      -279.5263
  16   2.0000      -8.084932      -220.0022
  17   2.0000      -8.075142      -219.7358
  18   2.0000      -6.043744      -164.4586
  19   2.0000      -6.039549      -164.3445
  20   2.0000      -6.035490      -164.2340
  21   2.0000      -6.033887      -164.1904
  22   2.0000      -6.029716      -164.0769
  23   2.0000      -6.025586      -163.9645
  24   2.0000      -1.007103       -27.4047
  25   2.0000      -0.979815       -26.6621
  26   2.0000      -0.912830       -24.8394
  27   2.0000      -0.909750       -24.7556
  28   2.0000      -0.873087       -23.7579
  29   2.0000      -0.852825       -23.2066
  30   2.0000      -0.842860       -22.9354
  31   2.0000      -0.815165       -22.1818
  32   2.0000      -0.782677       -21.2977
  33   2.0000      -0.772782       -21.0285
  34   2.0000      -0.717753       -19.5311
  35   2.0000      -0.703096       -19.1322
  36   2.0000      -0.694426       -18.8963
  37   2.0000      -0.668330       -18.1862
  38   2.0000      -0.637632       -17.3508
  39   2.0000      -0.614342       -16.7171
  40   2.0000      -0.594513       -16.1775
  41   2.0000      -0.577342       -15.7103
  42   2.0000      -0.571835       -15.5604
  43   2.0000      -0.560717       -15.2579
  44   2.0000      -0.531192       -14.4545
  45   2.0000      -0.527335       -14.3495
  46   2.0000      -0.521232       -14.1835
  47   2.0000      -0.517824       -14.0907
  48   2.0000      -0.509522       -13.8648
  49   2.0000      -0.503318       -13.6960
  50   2.0000      -0.492699       -13.4070
  51   2.0000      -0.479341       -13.0435
  52   2.0000      -0.470101       -12.7921
  53   2.0000      -0.464390       -12.6367
  54   2.0000      -0.460042       -12.5184
  55   2.0000      -0.451914       -12.2972
  56   2.0000      -0.446905       -12.1609
  57   2.0000      -0.438725       -11.9383
  58   2.0000      -0.429959       -11.6998
  59   2.0000      -0.425341       -11.5741
  60   2.0000      -0.420701       -11.4478
  61   2.0000      -0.418131       -11.3779
  62   2.0000      -0.410900       -11.1811
  63   2.0000      -0.349316        -9.5054
  64   2.0000      -0.332174        -9.0389
  65   2.0000      -0.326866        -8.8945
  66   2.0000      -0.293158        -7.9772
  67   0.0000       0.028611         0.7786
  68   0.0000       0.062109         1.6901
  69   0.0000       0.103855         2.8260
  70   0.0000       0.117532         3.1982
  71   0.0000       0.126199         3.4340

MULLIKEN ATOMIC CHARGES
-----------------------
   0 S :    0.120454
   1 C :   -0.088817
   2 C :   -0.106289
   3 C :    0.028241
   4 C :   -0.158046
   5 H :    0.009450
   6 C :    0.071883
   7 H :    0.043616
   8 H :    0.030675
   9 C :   -0.101456
  10 H :    0.023403
  11 H :    0.032553
  12 C :   -0.017076
  13 H :    0.029955
  14 H :    0.022693
  15 H :    0.018702
  16 S :    0.078569
  17 C :   -0.098029
  18 C :    0.010113
  19 C :   -0.060684
  20 C :   -0.110380
  21 H :    0.000255
  22 C :    0.039484
  23 H :    0.018972
  24 H :    0.022970
  25 C :   -0.070506
  26 H :    0.016174
  27 H :    0.024663
  28 C :   -0.026051
  29 H :    0.016179
  30 H :    0.047633
  31 H :    0.038018
  32 H :    0.028524
  33 H :    0.064154
Sum of atomic charges:   -0.0000000

LOEWDIN ATOMIC CHARGES
----------------------
   0 S :    0.397383
   1 C :   -0.186888
   2 C :   -0.055871
   3 C :   -0.068484
   4 C :   -0.190871
   5 H :    0.030327
   6 C :   -0.028366
   7 H :    0.034316
   8 H :    0.033889
   9 C :   -0.042952
  10 H :    0.018024
  11 H :    0.023309
  12 C :   -0.054558
  13 H :    0.023545
  14 H :    0.022520
  15 H :    0.019050
  16 S :    0.371980
  17 C :   -0.159682
  18 C :   -0.063287
  19 C :   -0.051559
  20 C :   -0.194127
  21 H :    0.021286
  22 C :   -0.025519
  23 H :    0.019600
  24 H :    0.031110
  25 C :   -0.039318
  26 H :    0.017016
  27 H :    0.017833
  28 C :   -0.063766
  29 H :    0.019412
  30 H :    0.033336
  31 H :    0.031523
  32 H :    0.025999
  33 H :    0.033792

  Mayer bond orders larger than 0.100000
B(  0-S ,  1-C ) :   1.1106 B(  0-S ,  4-C ) :   1.1522 B(  1-C ,  2-C ) :   1.6366
B(  1-C ,  4-C ) :   0.1025 B(  1-C , 32-H ) :   0.9681 B(  2-C ,  3-C ) :   1.2343
B(  2-C ,  6-C ) :   1.0134 B(  3-C ,  4-C ) :   1.5643 B(  3-C ,  5-H ) :   0.9883
B(  4-C , 20-C ) :   1.0377 B(  6-C ,  7-H ) :   0.9351 B(  6-C ,  8-H ) :   0.9534
B(  6-C ,  9-C ) :   1.0403 B(  9-C , 10-H ) :   0.9528 B(  9-C , 11-H ) :   0.9674
B(  9-C , 12-C ) :   1.0791 B( 12-C , 13-H ) :   0.9750 B( 12-C , 14-H ) :   0.9778
B( 12-C , 15-H ) :   0.9748 B( 16-S , 17-C ) :   1.1434 B( 16-S , 20-C ) :   1.0970
B( 17-C , 18-C ) :   1.6419 B( 17-C , 33-H ) :   0.9672 B( 18-C , 19-C ) :   1.1889
B( 18-C , 21-H ) :   0.9962 B( 19-C , 20-C ) :   1.6745 B( 19-C , 22-C ) :   1.0467
B( 22-C , 23-H ) :   0.9382 B( 22-C , 24-H ) :   0.9330 B( 22-C , 25-C ) :   1.0598
B( 25-C , 26-H ) :   0.9528 B( 25-C , 27-H ) :   0.9523 B( 25-C , 28-C ) :   1.0884
B( 28-C , 29-H ) :   0.9723 B( 28-C , 30-H ) :   0.9726 B( 28-C , 31-H ) :   0.9736

Dispersion correction           -0.013784748
FINAL SINGLE POINT ENERGY     -1339.862947648278

DIPOLE MOMENT
-------------
                                X             Y             Z
Electronic contribution:     27.80803      -8.75189       6.72075
Nuclear contribution   :    -28.50587       9.13585      -6.57595
                        -----------------------------------------
Total Dipole Moment    :     -0.69783       0.38396       0.14480
                        -----------------------------------------
Magnitude (a.u.)       :      0.80955
Magnitude (Debye)      :      2.05770

Rotational constants in cm-1:     0.018295     0.008210     0.006165
Rotational constants in MHz :   548.472974   246.134192   184.831071

                             ****ORCA TERMINATED NORMALLY****
TOTAL RUN TIME: 0 days 0 hours 0 minutes 33 seconds 312 msec
