                         Program Version 4.2.1 -  RELEASE  -
|  1> ! wB97X-D3 SP def2-SVP
|  2> %pal
|  3> nprocs 16
|  4> end
|  5>
|  6> * xyz 0 1
|  7> S 	 -35.4468 	 30.4534 	 41.6827
|  8> C 	 -36.9273 	 29.6167 	 41.8082
|  9> C 	 -37.1633 	 29.1113 	 43.0684
| 10> C 	 -36.1385 	 29.5304 	 44.0049
| 11> C 	 -35.0607 	 30.2445 	 43.3844
| 12> H 	 -36.2749 	 29.4047 	 45.0667
| 13> C 	 -38.3182 	 28.2311 	 43.5044
| 14> H 	 -38.7969 	 27.9256 	 42.5603
| 15> H 	 -39.1317 	 28.6738 	 44.0346
| 16> C 	 -37.8514 	 27.0398 	 44.306
| 17> H 	 -36.8179 	 26.7398 	 44.1542
| 18> H 	 -37.7211 	 27.4145 	 45.3642
| 19> C 	 -38.8119 	 25.8364 	 44.2683
| 20> H 	 -39.8945 	 26.0389 	 44.2741
| 21> H 	 -38.6797 	 25.3073 	 43.294
| 22> H 	 -38.4884 	 25.0311 	 44.8683
| 23> S 	 -32.979 	 30.1674 	 45.2194
| 24> C 	 -32.2299 	 31.6005 	 45.7913
| 25> C 	 -32.5598 	 32.7108 	 45.0473
| 26> C 	 -33.7084 	 32.427 	 44.2545
| 27> C 	 -34.0875 	 31.0675 	 44.105
| 28> H 	 -32.0035 	 33.5853 	 45.3369
| 29> C 	 -34.4534 	 33.5592 	 43.6153
| 30> H 	 -35.4941 	 33.3184 	 43.6786
| 31> H 	 -34.3616 	 33.6534 	 42.4579
| 32> C 	 -34.3386 	 34.9114 	 44.278
| 33> H 	 -34.0992 	 34.8236 	 45.3511
| 34> H 	 -35.2644 	 35.4946 	 44.2681
| 35> C 	 -33.163 	 35.7497 	 43.714
| 36> H 	 -33.3717 	 35.8938 	 42.6834
| 37> H 	 -32.1587 	 35.321 	 43.7649
| 38> H 	 -32.9973 	 36.6681 	 44.2451
| 39> H 	 -37.6083 	 29.3622 	 41.0143
| 40> H 	 -31.4831 	 31.7104 	 46.5343
| 41> *
| 42>
| 43>                          ****END OF INPUT****

CARTESIAN COORDINATES (ANGSTROEM)
---------------------------------
  S    -35.446800   30.453400   41.682700
  C    -36.927300   29.616700   41.808200
  C    -37.163300   29.111300   43.068400
  C    -36.138500   29.530400   44.004900
  C    -35.060700   30.244500   43.384400
  H    -36.274900   29.404700   45.066700
  C    -38.318200   28.231100   43.504400
  H    -38.796900   27.925600   42.560300
  H    -39.131700   28.673800   44.034600
  C    -37.851400   27.039800   44.306000
  H    -36.817900   26.739800   44.154200
  H    -37.721100   27.414500   45.364200
  C    -38.811900   25.836400   44.268300
  H    -39.894500   26.038900   44.274100
  H    -38.679700   25.307300   43.294000
  H    -38.488400   25.031100   44.868300
  S    -32.979000   30.167400   45.219400
  C    -32.229900   31.600500   45.791300
  C    -32.559800   32.710800   45.047300
  C    -33.708400   32.427000   44.254500
  C    -34.087500   31.067500   44.105000
  H    -32.003500   33.585300   45.336900
  C    -34.453400   33.559200   43.615300
  H    -35.494100   33.318400   43.678600
  H    -34.361600   33.653400   42.457900
  C    -34.338600   34.911400   44.278000
  H    -34.099200   34.823600   45.351100
  H    -35.264400   35.494600   44.268100
  C    -33.163000   35.749700   43.714000
  H    -33.371700   35.893800   42.683400
  H    -32.158700   35.321000   43.764900
  H    -32.997300   36.668100   44.245100
  H    -37.608300   29.362200   41.014300
  H    -31.483100   31.710400   46.534300

 Total Charge           Charge          ....    0
 Multiplicity           Mult            ....    1
 Number of Electrons    NEL             ....  134
 Basis Dimension        Dim             ....  322

ORBITAL ENERGIES
----------------

  NO   OCC          E(Eh)            E(eV)
   0   2.0000     -88.972448     -2421.0634
   1   2.0000     -88.960245     -2420.7313
   2   2.0000     -10.339100      -281.3412
   3   2.0000     -10.333445      -281.1873
   4   2.0000     -10.315102      -280.6882
   5   2.0000     -10.310420      -280.5608
   6   2.0000     -10.309686      -280.5408
   7   2.0000     -10.303338      -280.3681
   8   2.0000     -10.303114      -280.3620
   9   2.0000     -10.292581      -280.0754
  10   2.0000     -10.290565      -280.0205
  11   2.0000     -10.289909      -280.0027
  12   2.0000     -10.286977      -279.9229
  13   2.0000     -10.283819      -279.8370
  14   2.0000     -10.280972      -279.7595
  15   2.0000     -10.269246      -279.4404
  16   2.0000      -8.087272      -220.0659
  17   2.0000      -8.074787      -219.7261
  18   2.0000      -6.045777      -164.5139
  19   2.0000      -6.041593      -164.4001
  20   2.0000      -6.038188      -164.3075
  21   2.0000      -6.033272      -164.1737
  22   2.0000      -6.029184      -164.0624
  23   2.0000      -6.025713      -163.9680
  24   2.0000      -1.003359       -27.3028
  25   2.0000      -0.985068       -26.8051
  26   2.0000      -0.915740       -24.9186
  27   2.0000      -0.907873       -24.7045
  28   2.0000      -0.871611       -23.7177
  29   2.0000      -0.848957       -23.1013
  30   2.0000      -0.841703       -22.9039
  31   2.0000      -0.815037       -22.1783
  32   2.0000      -0.786011       -21.3885
  33   2.0000      -0.773120       -21.0377
  34   2.0000      -0.717265       -19.5178
  35   2.0000      -0.699189       -19.0259
  36   2.0000      -0.691570       -18.8186
  37   2.0000      -0.654902       -17.8208
  38   2.0000      -0.640035       -17.4162
  39   2.0000      -0.621834       -16.9210
  40   2.0000      -0.600441       -16.3388
  41   2.0000      -0.583538       -15.8789
  42   2.0000      -0.556274       -15.1370
  43   2.0000      -0.548023       -14.9125
  44   2.0000      -0.532902       -14.5010
  45   2.0000      -0.530164       -14.4265
  46   2.0000      -0.517359       -14.0780
  47   2.0000      -0.513450       -13.9717
  48   2.0000      -0.504255       -13.7215
  49   2.0000      -0.502525       -13.6744
  50   2.0000      -0.489725       -13.3261
  51   2.0000      -0.475670       -12.9436
  52   2.0000      -0.473771       -12.8920
  53   2.0000      -0.469035       -12.7631
  54   2.0000      -0.459582       -12.5059
  55   2.0000      -0.449954       -12.2439
  56   2.0000      -0.445083       -12.1113
  57   2.0000      -0.436094       -11.8667
  58   2.0000      -0.429444       -11.6858
  59   2.0000      -0.423982       -11.5371
  60   2.0000      -0.419819       -11.4238
  61   2.0000      -0.405058       -11.0222
  62   2.0000      -0.401404       -10.9227
  63   2.0000      -0.345139        -9.3917
  64   2.0000      -0.330530        -8.9942
  65   2.0000      -0.325066        -8.8455
  66   2.0000      -0.291783        -7.9398
  67   0.0000       0.023894         0.6502
  68   0.0000       0.069652         1.8953
  69   0.0000       0.113735         3.0949
  70   0.0000       0.116086         3.1589
  71   0.0000       0.131864         3.5882

MULLIKEN ATOMIC CHARGES
-----------------------
   0 S :    0.132490
   1 C :   -0.104373
   2 C :   -0.114926
   3 C :    0.032548
   4 C :   -0.143686
   5 H :    0.022996
   6 C :    0.104995
   7 H :    0.007257
   8 H :    0.036855
   9 C :   -0.117194
  10 H :    0.034556
  11 H :    0.030026
  12 C :   -0.033144
  13 H :    0.041951
  14 H :    0.021671
  15 H :    0.024595
  16 S :    0.091093
  17 C :   -0.072098
  18 C :   -0.043707
  19 C :   -0.033471
  20 C :   -0.136294
  21 H :    0.023053
  22 C :    0.050782
  23 H :    0.020715
  24 H :    0.048591
  25 C :   -0.093229
  26 H :    0.026955
  27 H :    0.035573
  28 C :   -0.046010
  29 H :    0.020754
  30 H :    0.025838
  31 H :    0.025254
  32 H :    0.042368
  33 H :    0.037218
Sum of atomic charges:   -0.0000000

LOEWDIN ATOMIC CHARGES
----------------------
   0 S :    0.436111
   1 C :   -0.206554
   2 C :   -0.064841
   3 C :   -0.042673
   4 C :   -0.212373
   5 H :    0.029969
   6 C :   -0.031891
   7 H :    0.027677
   8 H :    0.031254
   9 C :   -0.047756
  10 H :    0.026353
  11 H :    0.026257
  12 C :   -0.071557
  13 H :    0.029258
  14 H :    0.031527
  15 H :    0.023463
  16 S :    0.395999
  17 C :   -0.182774
  18 C :   -0.079402
  19 C :   -0.049050
  20 C :   -0.187615
  21 H :    0.035499
  22 C :   -0.048149
  23 H :    0.031468
  24 H :    0.041612
  25 C :   -0.043526
  26 H :    0.024731
  27 H :    0.028335
  28 C :   -0.067156
  29 H :    0.017896
  30 H :    0.023293
  31 H :    0.022140
  32 H :    0.029499
  33 H :    0.022975

  Mayer bond orders larger than 0.100000
B(  0-S ,  1-C ) :   1.1614 B(  0-S ,  4-C ) :   1.1502 B(  1-C ,  2-C ) :   1.6082
B(  1-C , 32-H ) :   0.9590 B(  2-C ,  3-C ) :   1.2700 B(  2-C ,  6-C ) :   1.0226
B(  3-C ,  4-C ) :   1.5241 B(  3-C ,  5-H ) :   0.9888 B(  4-C , 20-C ) :   1.0428
B(  6-C ,  7-H ) :   0.9452 B(  6-C ,  8-H ) :   0.9336 B(  6-C ,  9-C ) :   1.0455
B(  9-C , 10-H ) :   0.9627 B(  9-C , 11-H ) :   0.9473 B(  9-C , 12-C ) :   1.0848
B( 12-C , 13-H ) :   0.9760 B( 12-C , 14-H ) :   0.9680 B( 12-C , 15-H ) :   0.9703
B( 16-S , 17-C ) :   1.1822 B( 16-S , 20-C ) :   1.1125 B( 17-C , 18-C ) :   1.6109
B( 17-C , 20-C ) :   0.1000 B( 17-C , 33-H ) :   0.9623 B( 18-C , 19-C ) :   1.2302
B( 18-C , 21-H ) :   0.9883 B( 19-C , 20-C ) :   1.5790 B( 19-C , 22-C ) :   1.0440
B( 22-C , 23-H ) :   0.9303 B( 22-C , 24-H ) :   0.9301 B( 22-C , 25-C ) :   1.0695
B( 25-C , 26-H ) :   0.9553 B( 25-C , 27-H ) :   0.9595 B( 25-C , 28-C ) :   1.0675
B( 28-C , 29-H ) :   0.9756 B( 28-C , 30-H ) :   0.9743 B( 28-C , 31-H ) :   0.9730

Dispersion correction           -0.013861424
FINAL SINGLE POINT ENERGY     -1339.851453567472

DIPOLE MOMENT
-------------
                                X             Y             Z
Electronic contribution:     11.82970      -3.39216      -3.74043
Nuclear contribution   :    -12.30242       3.49764       3.91120
                        -----------------------------------------
Total Dipole Moment    :     -0.47272       0.10548       0.17077
                        -----------------------------------------
Magnitude (a.u.)       :      0.51357
Magnitude (Debye)      :      1.30540

Rotational constants in cm-1:     0.024559     0.006838     0.005935
Rotational constants in MHz :   736.262415   205.011803   177.939727

                             ****ORCA TERMINATED NORMALLY****
TOTAL RUN TIME: 0 days 0 hours 0 minutes 32 seconds 444 msec
