                         Program Version 4.2.1 -  RELEASE  -
|  1> ! wB97X-D3 SP def2-SVP
|  2> %pal
|  3> nprocs 16
|  4> end
|  5>
|  6> * xyz 0 1
|  7> S 	 -40.4037 	 48.3505 	 104.452
|  8> C 	 -38.7426 	 48.1098 	 104.673
|  9> C 	 -37.9206 	 48.8884 	 103.889
| 10> C 	 -38.7326 	 49.9359 	 103.267
| 11> C 	 -40.1174 	 49.8308 	 103.549
| 12> H 	 -38.3252 	 50.6296 	 102.629
| 13> C 	 -36.4314 	 48.649 	 103.525
| 14> H 	 -35.7174 	 48.5115 	 104.33
| 15> H 	 -36.1299 	 49.6144 	 103.067
| 16> C 	 -36.1989 	 47.4862 	 102.642
| 17> H 	 -35.1254 	 47.3853 	 102.404
| 18> H 	 -36.5359 	 46.5308 	 103.11
| 19> C 	 -36.922 	 47.529 	 101.291
| 20> H 	 -36.6509 	 46.7939 	 100.555
| 21> H 	 -37.9685 	 47.549 	 101.478
| 22> H 	 -36.7621 	 48.4425 	 100.693
| 23> S 	 -41.188 	 52.4341 	 103.811
| 24> C 	 -42.4741 	 52.9119 	 102.729
| 25> C 	 -42.8548 	 51.8923 	 101.874
| 26> C 	 -41.9426 	 50.7973 	 101.99
| 27> C 	 -41.0492 	 50.8541 	 103.066
| 28> H 	 -43.6705 	 51.9641 	 101.157
| 29> C 	 -41.9354 	 49.6517 	 100.912
| 30> H 	 -41.2054 	 48.9108 	 101.247
| 31> H 	 -41.3437 	 50.1114 	 100.11
| 32> C 	 -43.2669 	 49.0084 	 100.486
| 33> H 	 -43.761 	 49.9056 	 100.065
| 34> H 	 -43.7957 	 48.5259 	 101.314
| 35> C 	 -42.9793 	 47.7943 	 99.5068
| 36> H 	 -42.425 	 48.0154 	 98.6073
| 37> H 	 -43.8755 	 47.2239 	 99.2372
| 38> H 	 -42.2868 	 47.1197 	 100.002
| 39> H 	 -38.2776 	 47.2657 	 105.185
| 40> H 	 -43.0714 	 53.7867 	 102.838
| 41> *
| 42>
| 43>                          ****END OF INPUT****

CARTESIAN COORDINATES (ANGSTROEM)
---------------------------------
  S    -40.403700   48.350500  104.452000
  C    -38.742600   48.109800  104.673000
  C    -37.920600   48.888400  103.889000
  C    -38.732600   49.935900  103.267000
  C    -40.117400   49.830800  103.549000
  H    -38.325200   50.629600  102.629000
  C    -36.431400   48.649000  103.525000
  H    -35.717400   48.511500  104.330000
  H    -36.129900   49.614400  103.067000
  C    -36.198900   47.486200  102.642000
  H    -35.125400   47.385300  102.404000
  H    -36.535900   46.530800  103.110000
  C    -36.922000   47.529000  101.291000
  H    -36.650900   46.793900  100.555000
  H    -37.968500   47.549000  101.478000
  H    -36.762100   48.442500  100.693000
  S    -41.188000   52.434100  103.811000
  C    -42.474100   52.911900  102.729000
  C    -42.854800   51.892300  101.874000
  C    -41.942600   50.797300  101.990000
  C    -41.049200   50.854100  103.066000
  H    -43.670500   51.964100  101.157000
  C    -41.935400   49.651700  100.912000
  H    -41.205400   48.910800  101.247000
  H    -41.343700   50.111400  100.110000
  C    -43.266900   49.008400  100.486000
  H    -43.761000   49.905600  100.065000
  H    -43.795700   48.525900  101.314000
  C    -42.979300   47.794300   99.506800
  H    -42.425000   48.015400   98.607300
  H    -43.875500   47.223900   99.237200
  H    -42.286800   47.119700  100.002000
  H    -38.277600   47.265700  105.185000
  H    -43.071400   53.786700  102.838000

 Total Charge           Charge          ....    0
 Multiplicity           Mult            ....    1
 Number of Electrons    NEL             ....  134
 Basis Dimension        Dim             ....  322

ORBITAL ENERGIES
----------------

  NO   OCC          E(Eh)            E(eV)
   0   2.0000     -88.973537     -2421.0930
   1   2.0000     -88.965550     -2420.8757
   2   2.0000     -10.332337      -281.1572
   3   2.0000     -10.325444      -280.9696
   4   2.0000     -10.316204      -280.7182
   5   2.0000     -10.312195      -280.6091
   6   2.0000     -10.303840      -280.3817
   7   2.0000     -10.303616      -280.3756
   8   2.0000     -10.297289      -280.2035
   9   2.0000     -10.296015      -280.1688
  10   2.0000     -10.294667      -280.1321
  11   2.0000     -10.294582      -280.1298
  12   2.0000     -10.290063      -280.0069
  13   2.0000     -10.289170      -279.9825
  14   2.0000     -10.280567      -279.7485
  15   2.0000     -10.269300      -279.4419
  16   2.0000      -8.088479      -220.0987
  17   2.0000      -8.080141      -219.8718
  18   2.0000      -6.046929      -164.5453
  19   2.0000      -6.043018      -164.4389
  20   2.0000      -6.039222      -164.3356
  21   2.0000      -6.038685      -164.3210
  22   2.0000      -6.034589      -164.2095
  23   2.0000      -6.030936      -164.1101
  24   2.0000      -1.004198       -27.3256
  25   2.0000      -0.985109       -26.8062
  26   2.0000      -0.916743       -24.9459
  27   2.0000      -0.899343       -24.4724
  28   2.0000      -0.869277       -23.6542
  29   2.0000      -0.847262       -23.0552
  30   2.0000      -0.842764       -22.9328
  31   2.0000      -0.811073       -22.0704
  32   2.0000      -0.787251       -21.4222
  33   2.0000      -0.770536       -20.9673
  34   2.0000      -0.706026       -19.2119
  35   2.0000      -0.700876       -19.0718
  36   2.0000      -0.696191       -18.9443
  37   2.0000      -0.654148       -17.8003
  38   2.0000      -0.646454       -17.5909
  39   2.0000      -0.610474       -16.6118
  40   2.0000      -0.592092       -16.1117
  41   2.0000      -0.578370       -15.7382
  42   2.0000      -0.562543       -15.3076
  43   2.0000      -0.554393       -15.0858
  44   2.0000      -0.545032       -14.8311
  45   2.0000      -0.523790       -14.2531
  46   2.0000      -0.517320       -14.0770
  47   2.0000      -0.508798       -13.8451
  48   2.0000      -0.498298       -13.5594
  49   2.0000      -0.497249       -13.5308
  50   2.0000      -0.485468       -13.2103
  51   2.0000      -0.474646       -12.9158
  52   2.0000      -0.468254       -12.7418
  53   2.0000      -0.467941       -12.7333
  54   2.0000      -0.460596       -12.5335
  55   2.0000      -0.453153       -12.3309
  56   2.0000      -0.444460       -12.0944
  57   2.0000      -0.440274       -11.9805
  58   2.0000      -0.434884       -11.8338
  59   2.0000      -0.420542       -11.4435
  60   2.0000      -0.418275       -11.3818
  61   2.0000      -0.415253       -11.2996
  62   2.0000      -0.406894       -11.0721
  63   2.0000      -0.334462        -9.1012
  64   2.0000      -0.332261        -9.0413
  65   2.0000      -0.324272        -8.8239
  66   2.0000      -0.302963        -8.2440
  67   0.0000       0.040800         1.1102
  68   0.0000       0.051979         1.4144
  69   0.0000       0.104793         2.8516
  70   0.0000       0.124562         3.3895
  71   0.0000       0.132579         3.6077

MULLIKEN ATOMIC CHARGES
-----------------------
   0 S :    0.150986
   1 C :   -0.114094
   2 C :   -0.111628
   3 C :    0.052323
   4 C :   -0.176511
   5 H :   -0.016121
   6 C :    0.091716
   7 H :    0.031746
   8 H :    0.022526
   9 C :   -0.076136
  10 H :    0.033970
  11 H :    0.033786
  12 C :   -0.059569
  13 H :    0.030808
  14 H :    0.035287
  15 H :    0.012280
  16 S :    0.118524
  17 C :   -0.085138
  18 C :   -0.030921
  19 C :   -0.050215
  20 C :   -0.168130
  21 H :    0.027871
  22 C :    0.031711
  23 H :    0.010145
  24 H :    0.038672
  25 C :   -0.062126
  26 H :    0.042218
  27 H :    0.047544
  28 C :   -0.050586
  29 H :    0.023916
  30 H :    0.041889
  31 H :    0.024088
  32 H :    0.048656
  33 H :    0.050511
Sum of atomic charges:   -0.0000000

LOEWDIN ATOMIC CHARGES
----------------------
   0 S :    0.437903
   1 C :   -0.212882
   2 C :   -0.066054
   3 C :   -0.038329
   4 C :   -0.206660
   5 H :    0.014104
   6 C :   -0.032522
   7 H :    0.034143
   8 H :    0.033701
   9 C :   -0.044143
  10 H :    0.027582
  11 H :    0.028540
  12 C :   -0.072282
  13 H :    0.024437
  14 H :    0.021207
  15 H :    0.023195
  16 S :    0.412427
  17 C :   -0.179815
  18 C :   -0.075147
  19 C :   -0.051226
  20 C :   -0.213681
  21 H :    0.032985
  22 C :   -0.040002
  23 H :    0.020909
  24 H :    0.036662
  25 C :   -0.037773
  26 H :    0.026605
  27 H :    0.032333
  28 C :   -0.067332
  29 H :    0.021852
  30 H :    0.027255
  31 H :    0.026198
  32 H :    0.030987
  33 H :    0.024826

  Mayer bond orders larger than 0.100000
B(  0-S ,  1-C ) :   1.1692 B(  0-S ,  4-C ) :   1.1377 B(  1-C ,  2-C ) :   1.6056
B(  1-C , 32-H ) :   0.9580 B(  2-C ,  3-C ) :   1.2581 B(  2-C ,  6-C ) :   1.0099
B(  3-C ,  4-C ) :   1.5505 B(  3-C ,  5-H ) :   1.0016 B(  4-C , 20-C ) :   1.0543
B(  6-C ,  7-H ) :   0.9392 B(  6-C ,  8-H ) :   0.9396 B(  6-C ,  9-C ) :   1.0833
B(  9-C , 10-H ) :   0.9540 B(  9-C , 11-H ) :   0.9533 B(  9-C , 12-C ) :   1.0719
B( 12-C , 13-H ) :   0.9747 B( 12-C , 14-H ) :   0.9747 B( 12-C , 15-H ) :   0.9722
B( 16-S , 17-C ) :   1.1726 B( 16-S , 20-C ) :   1.1276 B( 17-C , 18-C ) :   1.5989
B( 17-C , 33-H ) :   0.9649 B( 18-C , 19-C ) :   1.2552 B( 18-C , 21-H ) :   0.9864
B( 19-C , 20-C ) :   1.5998 B( 19-C , 22-C ) :   1.0209 B( 22-C , 23-H ) :   0.9335
B( 22-C , 24-H ) :   0.9392 B( 22-C , 25-C ) :   1.0456 B( 25-C , 26-H ) :   0.9558
B( 25-C , 27-H ) :   0.9596 B( 25-C , 28-C ) :   1.0698 B( 28-C , 29-H ) :   0.9770
B( 28-C , 30-H ) :   0.9779 B( 28-C , 31-H ) :   0.9738

Dispersion correction           -0.014750219
FINAL SINGLE POINT ENERGY     -1339.864562643772

DIPOLE MOMENT
-------------
                                X             Y             Z
Electronic contribution:     -7.18574      14.95248      20.11201
Nuclear contribution   :      7.41511     -15.23698     -20.60577
                        -----------------------------------------
Total Dipole Moment    :      0.22937      -0.28450      -0.49375
                        -----------------------------------------
Magnitude (a.u.)       :      0.61428
Magnitude (Debye)      :      1.56138

Rotational constants in cm-1:     0.017204     0.008976     0.007084
Rotational constants in MHz :   515.757755   269.105623   212.386995

                             ****ORCA TERMINATED NORMALLY****
TOTAL RUN TIME: 0 days 0 hours 0 minutes 29 seconds 891 msec
