                         Program Version 4.2.1 -  RELEASE  -
|  1> ! wB97X-D3 SP def2-SVP
|  2> %pal
|  3> nprocs 16
|  4> end
|  5>
|  6> * xyz 0 1
|  7> S 	 -8.32015 	 39.7638 	 37.4868
|  8> C 	 -7.71386 	 38.2976 	 36.6665
|  9> C 	 -7.16764 	 38.5568 	 35.4704
| 10> C 	 -7.05223 	 39.9534 	 35.2361
| 11> C 	 -7.47302 	 40.7411 	 36.2797
| 12> H 	 -6.53259 	 40.2281 	 34.3194
| 13> C 	 -6.71925 	 37.5912 	 34.3925
| 14> H 	 -6.54991 	 38.0761 	 33.3914
| 15> H 	 -7.43675 	 36.7848 	 34.102
| 16> C 	 -5.37028 	 36.9407 	 34.6928
| 17> H 	 -4.65704 	 37.7044 	 34.6525
| 18> H 	 -5.31875 	 36.4906 	 35.6995
| 19> C 	 -4.90276 	 35.9005 	 33.6516
| 20> H 	 -5.70606 	 35.1189 	 33.5017
| 21> H 	 -4.73607 	 36.2253 	 32.6373
| 22> H 	 -3.92907 	 35.4843 	 34.0391
| 23> S 	 -8.98364 	 43.0639 	 36.451
| 24> C 	 -8.17619 	 44.6309 	 36.5188
| 25> C 	 -6.85009 	 44.4371 	 36.2808
| 26> C 	 -6.44177 	 43.0491 	 36.1995
| 27> C 	 -7.50692 	 42.1711 	 36.3485
| 28> H 	 -6.22079 	 45.3282 	 36.172
| 29> C 	 -5.00952 	 42.7872 	 36.122
| 30> H 	 -4.51238 	 43.6913 	 35.7666
| 31> H 	 -4.7726 	 42.0839 	 35.3536
| 32> C 	 -4.35697 	 42.3831 	 37.4341
| 33> H 	 -4.52196 	 41.3052 	 37.5787
| 34> H 	 -4.80088 	 42.869 	 38.3708
| 35> C 	 -2.81209 	 42.6451 	 37.4685
| 36> H 	 -2.49149 	 42.0475 	 38.3125
| 37> H 	 -2.53043 	 43.7265 	 37.6018
| 38> H 	 -2.28633 	 42.3154 	 36.5807
| 39> H 	 -8.01596 	 37.3044 	 37.0132
| 40> H 	 -8.64451 	 45.6374 	 36.5678
| 41> *
| 42>
| 43>                          ****END OF INPUT****

CARTESIAN COORDINATES (ANGSTROEM)
---------------------------------
  S     -8.320150   39.763800   37.486800
  C     -7.713860   38.297600   36.666500
  C     -7.167640   38.556800   35.470400
  C     -7.052230   39.953400   35.236100
  C     -7.473020   40.741100   36.279700
  H     -6.532590   40.228100   34.319400
  C     -6.719250   37.591200   34.392500
  H     -6.549910   38.076100   33.391400
  H     -7.436750   36.784800   34.102000
  C     -5.370280   36.940700   34.692800
  H     -4.657040   37.704400   34.652500
  H     -5.318750   36.490600   35.699500
  C     -4.902760   35.900500   33.651600
  H     -5.706060   35.118900   33.501700
  H     -4.736070   36.225300   32.637300
  H     -3.929070   35.484300   34.039100
  S     -8.983640   43.063900   36.451000
  C     -8.176190   44.630900   36.518800
  C     -6.850090   44.437100   36.280800
  C     -6.441770   43.049100   36.199500
  C     -7.506920   42.171100   36.348500
  H     -6.220790   45.328200   36.172000
  C     -5.009520   42.787200   36.122000
  H     -4.512380   43.691300   35.766600
  H     -4.772600   42.083900   35.353600
  C     -4.356970   42.383100   37.434100
  H     -4.521960   41.305200   37.578700
  H     -4.800880   42.869000   38.370800
  C     -2.812090   42.645100   37.468500
  H     -2.491490   42.047500   38.312500
  H     -2.530430   43.726500   37.601800
  H     -2.286330   42.315400   36.580700
  H     -8.015960   37.304400   37.013200
  H     -8.644510   45.637400   36.567800

 Total Charge           Charge          ....    0
 Multiplicity           Mult            ....    1
 Number of Electrons    NEL             ....  134
 Basis Dimension        Dim             ....  322

ORBITAL ENERGIES
----------------

  NO   OCC          E(Eh)            E(eV)
   0   2.0000     -88.966672     -2420.9062
   1   2.0000     -88.962523     -2420.7933
   2   2.0000     -10.331064      -281.1225
   3   2.0000     -10.322257      -280.8829
   4   2.0000     -10.317674      -280.7582
   5   2.0000     -10.315292      -280.6934
   6   2.0000     -10.299922      -280.2751
   7   2.0000     -10.297996      -280.2227
   8   2.0000     -10.297744      -280.2159
   9   2.0000     -10.294789      -280.1355
  10   2.0000     -10.291077      -280.0344
  11   2.0000     -10.288706      -279.9699
  12   2.0000     -10.286915      -279.9212
  13   2.0000     -10.284784      -279.8632
  14   2.0000     -10.280953      -279.7589
  15   2.0000     -10.279291      -279.7137
  16   2.0000      -8.080871      -219.8917
  17   2.0000      -8.077482      -219.7995
  18   2.0000      -6.039475      -164.3425
  19   2.0000      -6.036186      -164.2530
  20   2.0000      -6.035647      -164.2383
  21   2.0000      -6.031901      -164.1364
  22   2.0000      -6.031363      -164.1217
  23   2.0000      -6.028054      -164.0317
  24   2.0000      -1.009357       -27.4660
  25   2.0000      -0.986343       -26.8398
  26   2.0000      -0.913952       -24.8699
  27   2.0000      -0.909425       -24.7467
  28   2.0000      -0.874025       -23.7834
  29   2.0000      -0.849341       -23.1118
  30   2.0000      -0.843697       -22.9582
  31   2.0000      -0.814838       -22.1729
  32   2.0000      -0.781600       -21.2684
  33   2.0000      -0.770594       -20.9689
  34   2.0000      -0.710083       -19.3223
  35   2.0000      -0.700607       -19.0645
  36   2.0000      -0.689947       -18.7744
  37   2.0000      -0.659663       -17.9503
  38   2.0000      -0.638249       -17.3676
  39   2.0000      -0.628571       -17.1043
  40   2.0000      -0.597913       -16.2700
  41   2.0000      -0.571350       -15.5472
  42   2.0000      -0.561229       -15.2718
  43   2.0000      -0.554444       -15.0872
  44   2.0000      -0.527870       -14.3641
  45   2.0000      -0.523798       -14.2533
  46   2.0000      -0.521518       -14.1912
  47   2.0000      -0.512842       -13.9551
  48   2.0000      -0.503392       -13.6980
  49   2.0000      -0.499173       -13.5832
  50   2.0000      -0.490165       -13.3381
  51   2.0000      -0.482017       -13.1164
  52   2.0000      -0.471848       -12.8396
  53   2.0000      -0.458018       -12.4633
  54   2.0000      -0.454948       -12.3798
  55   2.0000      -0.448773       -12.2117
  56   2.0000      -0.441439       -12.0122
  57   2.0000      -0.437593       -11.9075
  58   2.0000      -0.435264       -11.8441
  59   2.0000      -0.428381       -11.6568
  60   2.0000      -0.416350       -11.3295
  61   2.0000      -0.414569       -11.2810
  62   2.0000      -0.408183       -11.1072
  63   2.0000      -0.347299        -9.4505
  64   2.0000      -0.334316        -9.0972
  65   2.0000      -0.325598        -8.8600
  66   2.0000      -0.296163        -8.0590
  67   0.0000       0.029254         0.7961
  68   0.0000       0.068009         1.8506
  69   0.0000       0.102788         2.7970
  70   0.0000       0.121426         3.3042
  71   0.0000       0.135498         3.6871

MULLIKEN ATOMIC CHARGES
-----------------------
   0 S :    0.099667
   1 C :   -0.132058
   2 C :   -0.039421
   3 C :    0.048362
   4 C :   -0.170055
   5 H :    0.012685
   6 C :    0.014001
   7 H :    0.023614
   8 H :    0.034991
   9 C :   -0.057175
  10 H :    0.010746
  11 H :    0.037195
  12 C :   -0.070320
  13 H :    0.032001
  14 H :    0.026913
  15 H :    0.047674
  16 S :    0.102814
  17 C :   -0.106263
  18 C :   -0.045880
  19 C :   -0.046870
  20 C :   -0.123911
  21 H :    0.026254
  22 C :    0.117227
  23 H :    0.005962
  24 H :    0.009592
  25 C :   -0.104461
  26 H :    0.038476
  27 H :    0.045121
  28 C :   -0.062938
  29 H :    0.035845
  30 H :    0.043044
  31 H :    0.027426
  32 H :    0.048306
  33 H :    0.071434
Sum of atomic charges:    0.0000000

LOEWDIN ATOMIC CHARGES
----------------------
   0 S :    0.382643
   1 C :   -0.175568
   2 C :   -0.067875
   3 C :   -0.051727
   4 C :   -0.183471
   5 H :    0.032438
   6 C :   -0.037875
   7 H :    0.034193
   8 H :    0.031554
   9 C :   -0.039368
  10 H :    0.015590
  11 H :    0.026922
  12 C :   -0.072335
  13 H :    0.027120
  14 H :    0.019176
  15 H :    0.035734
  16 S :    0.404010
  17 C :   -0.189412
  18 C :   -0.073852
  19 C :   -0.055389
  20 C :   -0.211637
  21 H :    0.034073
  22 C :   -0.040058
  23 H :    0.029749
  24 H :    0.026855
  25 C :   -0.039615
  26 H :    0.026488
  27 H :    0.033900
  28 C :   -0.069648
  29 H :    0.027713
  30 H :    0.028873
  31 H :    0.020068
  32 H :    0.028210
  33 H :    0.042523

  Mayer bond orders larger than 0.100000
B(  0-S ,  1-C ) :   1.1206 B(  0-S ,  4-C ) :   1.1348 B(  1-C ,  2-C ) :   1.6490
B(  1-C , 32-H ) :   0.9643 B(  2-C ,  3-C ) :   1.2461 B(  2-C ,  6-C ) :   1.0128
B(  3-C ,  4-C ) :   1.5751 B(  3-C ,  5-H ) :   0.9910 B(  4-C , 20-C ) :   1.0570
B(  6-C ,  7-H ) :   0.9456 B(  6-C ,  8-H ) :   0.9445 B(  6-C ,  9-C ) :   1.0600
B(  9-C , 10-H ) :   0.9517 B(  9-C , 11-H ) :   0.9597 B(  9-C , 12-C ) :   1.0795
B( 12-C , 13-H ) :   0.9744 B( 12-C , 14-H ) :   0.9753 B( 12-C , 15-H ) :   0.9737
B( 16-S , 17-C ) :   1.1404 B( 16-S , 20-C ) :   1.1393 B( 17-C , 18-C ) :   1.6290
B( 17-C , 33-H ) :   0.9621 B( 18-C , 19-C ) :   1.2369 B( 18-C , 21-H ) :   0.9850
B( 19-C , 20-C ) :   1.5759 B( 19-C , 22-C ) :   1.0780 B( 22-C , 23-H ) :   0.9302
B( 22-C , 24-H ) :   0.9064 B( 22-C , 25-C ) :   1.0549 B( 25-C , 26-H ) :   0.9551
B( 25-C , 27-H ) :   0.9593 B( 25-C , 28-C ) :   1.0766 B( 28-C , 29-H ) :   0.9761
B( 28-C , 30-H ) :   0.9766 B( 28-C , 31-H ) :   0.9753

Dispersion correction           -0.013885080
FINAL SINGLE POINT ENERGY     -1339.879048384227

DIPOLE MOMENT
-------------
                                X             Y             Z
Electronic contribution:    -26.34961      12.10665       8.33495
Nuclear contribution   :     26.92756     -12.20729      -8.74981
                        -----------------------------------------
Total Dipole Moment    :      0.57795      -0.10063      -0.41486
                        -----------------------------------------
Magnitude (a.u.)       :      0.71851
Magnitude (Debye)      :      1.82632

Rotational constants in cm-1:     0.018360     0.008317     0.006585
Rotational constants in MHz :   550.419951   249.349061   197.398479

                             ****ORCA TERMINATED NORMALLY****
TOTAL RUN TIME: 0 days 0 hours 0 minutes 33 seconds 314 msec
