                         Program Version 4.2.1 -  RELEASE  -
|  1> ! wB97X-D3 SP def2-SVP
|  2> %pal
|  3> nprocs 16
|  4> end
|  5>
|  6> * xyz 0 1
|  7> S 	 49.3396 	 6.66664 	 89.058
|  8> C 	 49.2076 	 5.65477 	 87.6321
|  9> C 	 49.4726 	 4.3006 	 87.8092
| 10> C 	 49.9128 	 4.11648 	 89.166
| 11> C 	 49.995 	 5.34104 	 89.925
| 12> H 	 49.9738 	 3.17391 	 89.6897
| 13> C 	 49.3798 	 3.2349 	 86.7368
| 14> H 	 48.4474 	 3.31264 	 86.1041
| 15> H 	 49.2025 	 2.25214 	 87.1805
| 16> C 	 50.6433 	 2.91453 	 85.9909
| 17> H 	 50.7802 	 3.66738 	 85.1838
| 18> H 	 51.4854 	 3.15097 	 86.6751
| 19> C 	 50.5754 	 1.49585 	 85.4375
| 20> H 	 51.208 	 1.32458 	 84.5316
| 21> H 	 51.1093 	 0.80903 	 86.1138
| 22> H 	 49.637 	 1.06012 	 85.1776
| 23> S 	 49.6325 	 6.66192 	 92.2349
| 24> C 	 50.2343 	 5.96825 	 93.6478
| 25> C 	 51.2236 	 5.02091 	 93.4359
| 26> C 	 51.2093 	 4.56996 	 92.0739
| 27> C 	 50.3481 	 5.378 	 91.2889
| 28> H 	 51.8105 	 4.75771 	 94.3194
| 29> C 	 51.9643 	 3.31529 	 91.6345
| 30> H 	 51.2952 	 2.46544 	 91.4057
| 31> H 	 52.4291 	 3.0155 	 92.5221
| 32> C 	 52.9563 	 3.53173 	 90.4623
| 33> H 	 52.5053 	 4.12808 	 89.6566
| 34> H 	 53.04 	 2.54372 	 90.035
| 35> C 	 54.179 	 4.33229 	 90.9774
| 36> H 	 54.0608 	 5.00602 	 91.8573
| 37> H 	 54.7834 	 4.76045 	 90.0731
| 38> H 	 54.8081 	 3.53825 	 91.3405
| 39> H 	 48.7579 	 5.93423 	 86.725
| 40> H 	 49.9586 	 6.37791 	 94.6051
| 41> *
| 42>
| 43>                          ****END OF INPUT****

CARTESIAN COORDINATES (ANGSTROEM)
---------------------------------
  S     49.339600    6.666640   89.058000
  C     49.207600    5.654770   87.632100
  C     49.472600    4.300600   87.809200
  C     49.912800    4.116480   89.166000
  C     49.995000    5.341040   89.925000
  H     49.973800    3.173910   89.689700
  C     49.379800    3.234900   86.736800
  H     48.447400    3.312640   86.104100
  H     49.202500    2.252140   87.180500
  C     50.643300    2.914530   85.990900
  H     50.780200    3.667380   85.183800
  H     51.485400    3.150970   86.675100
  C     50.575400    1.495850   85.437500
  H     51.208000    1.324580   84.531600
  H     51.109300    0.809030   86.113800
  H     49.637000    1.060120   85.177600
  S     49.632500    6.661920   92.234900
  C     50.234300    5.968250   93.647800
  C     51.223600    5.020910   93.435900
  C     51.209300    4.569960   92.073900
  C     50.348100    5.378000   91.288900
  H     51.810500    4.757710   94.319400
  C     51.964300    3.315290   91.634500
  H     51.295200    2.465440   91.405700
  H     52.429100    3.015500   92.522100
  C     52.956300    3.531730   90.462300
  H     52.505300    4.128080   89.656600
  H     53.040000    2.543720   90.035000
  C     54.179000    4.332290   90.977400
  H     54.060800    5.006020   91.857300
  H     54.783400    4.760450   90.073100
  H     54.808100    3.538250   91.340500
  H     48.757900    5.934230   86.725000
  H     49.958600    6.377910   94.605100

 Total Charge           Charge          ....    0
 Multiplicity           Mult            ....    1
 Number of Electrons    NEL             ....  134
 Basis Dimension        Dim             ....  322

ORBITAL ENERGIES
----------------

  NO   OCC          E(Eh)            E(eV)
   0   2.0000     -88.972235     -2421.0576
   1   2.0000     -88.964494     -2420.8470
   2   2.0000     -10.326558      -280.9999
   3   2.0000     -10.322918      -280.9009
   4   2.0000     -10.311672      -280.5949
   5   2.0000     -10.308306      -280.5033
   6   2.0000     -10.307005      -280.4679
   7   2.0000     -10.303114      -280.3620
   8   2.0000     -10.296504      -280.1821
   9   2.0000     -10.294600      -280.1303
  10   2.0000     -10.294048      -280.1153
  11   2.0000     -10.290340      -280.0144
  12   2.0000     -10.290033      -280.0060
  13   2.0000     -10.283287      -279.8225
  14   2.0000     -10.283214      -279.8205
  15   2.0000     -10.282130      -279.7910
  16   2.0000      -8.087078      -220.0606
  17   2.0000      -8.081057      -219.8967
  18   2.0000      -6.045574      -164.5084
  19   2.0000      -6.041725      -164.4037
  20   2.0000      -6.039279      -164.3371
  21   2.0000      -6.037728      -164.2949
  22   2.0000      -6.035501      -164.2343
  23   2.0000      -6.031840      -164.1347
  24   2.0000      -1.011812       -27.5328
  25   2.0000      -0.984274       -26.7834
  26   2.0000      -0.919049       -25.0086
  27   2.0000      -0.908296       -24.7160
  28   2.0000      -0.873333       -23.7646
  29   2.0000      -0.850174       -23.1344
  30   2.0000      -0.845283       -23.0013
  31   2.0000      -0.804706       -21.8972
  32   2.0000      -0.784568       -21.3492
  33   2.0000      -0.772958       -21.0332
  34   2.0000      -0.710894       -19.3444
  35   2.0000      -0.703643       -19.1471
  36   2.0000      -0.691419       -18.8145
  37   2.0000      -0.666728       -18.1426
  38   2.0000      -0.633841       -17.2477
  39   2.0000      -0.615482       -16.7481
  40   2.0000      -0.595108       -16.1937
  41   2.0000      -0.571818       -15.5599
  42   2.0000      -0.557224       -15.1628
  43   2.0000      -0.543856       -14.7991
  44   2.0000      -0.536519       -14.5994
  45   2.0000      -0.527209       -14.3461
  46   2.0000      -0.521234       -14.1835
  47   2.0000      -0.511155       -13.9092
  48   2.0000      -0.501097       -13.6355
  49   2.0000      -0.494065       -13.4442
  50   2.0000      -0.488158       -13.2835
  51   2.0000      -0.483814       -13.1653
  52   2.0000      -0.470573       -12.8049
  53   2.0000      -0.467187       -12.7128
  54   2.0000      -0.458171       -12.4675
  55   2.0000      -0.451198       -12.2777
  56   2.0000      -0.445615       -12.1258
  57   2.0000      -0.438556       -11.9337
  58   2.0000      -0.435173       -11.8417
  59   2.0000      -0.428026       -11.6472
  60   2.0000      -0.425633       -11.5821
  61   2.0000      -0.402644       -10.9565
  62   2.0000      -0.400716       -10.9040
  63   2.0000      -0.356333        -9.6963
  64   2.0000      -0.334499        -9.1022
  65   2.0000      -0.328254        -8.9323
  66   2.0000      -0.269293        -7.3278
  67   0.0000       0.016508         0.4492
  68   0.0000       0.074175         2.0184
  69   0.0000       0.101909         2.7731
  70   0.0000       0.115439         3.1412
  71   0.0000       0.129983         3.5370

MULLIKEN ATOMIC CHARGES
-----------------------
   0 S :    0.122047
   1 C :   -0.086165
   2 C :   -0.080947
   3 C :   -0.022876
   4 C :   -0.128460
   5 H :    0.010697
   6 C :    0.041990
   7 H :    0.039769
   8 H :    0.011220
   9 C :   -0.050859
  10 H :    0.028846
  11 H :    0.041964
  12 C :   -0.066038
  13 H :    0.029248
  14 H :    0.033700
  15 H :    0.037688
  16 S :    0.106891
  17 C :   -0.093721
  18 C :   -0.045443
  19 C :   -0.054984
  20 C :   -0.137780
  21 H :    0.028994
  22 C :    0.064979
  23 H :    0.039040
  24 H :   -0.006781
  25 C :   -0.064059
  26 H :    0.058578
  27 H :    0.022399
  28 C :   -0.075792
  29 H :    0.057913
  30 H :    0.051460
  31 H :    0.019145
  32 H :    0.017422
  33 H :    0.049916
Sum of atomic charges:    0.0000000

LOEWDIN ATOMIC CHARGES
----------------------
   0 S :    0.422225
   1 C :   -0.195985
   2 C :   -0.056370
   3 C :   -0.066131
   4 C :   -0.205953
   5 H :    0.026556
   6 C :   -0.042132
   7 H :    0.036499
   8 H :    0.030805
   9 C :   -0.043965
  10 H :    0.023345
  11 H :    0.033417
  12 C :   -0.076216
  13 H :    0.032853
  14 H :    0.031729
  15 H :    0.023196
  16 S :    0.426415
  17 C :   -0.197260
  18 C :   -0.077940
  19 C :   -0.049119
  20 C :   -0.198018
  21 H :    0.037398
  22 C :   -0.028500
  23 H :    0.031906
  24 H :    0.020048
  25 C :   -0.043066
  26 H :    0.026647
  27 H :    0.022624
  28 C :   -0.077698
  29 H :    0.035095
  30 H :    0.038729
  31 H :    0.021634
  32 H :    0.014629
  33 H :    0.022606

  Mayer bond orders larger than 0.100000
B(  0-S ,  1-C ) :   1.1349 B(  0-S ,  4-C ) :   1.1564 B(  1-C ,  2-C ) :   1.6066
B(  1-C , 32-H ) :   0.9662 B(  2-C ,  3-C ) :   1.2637 B(  2-C ,  6-C ) :   1.0339
B(  3-C ,  4-C ) :   1.4968 B(  3-C ,  5-H ) :   0.9910 B(  4-C , 20-C ) :   1.1526
B(  6-C ,  7-H ) :   0.9333 B(  6-C ,  8-H ) :   0.9422 B(  6-C ,  9-C ) :   1.0478
B(  9-C , 10-H ) :   0.9552 B(  9-C , 11-H ) :   0.9573 B(  9-C , 12-C ) :   1.0654
B( 12-C , 13-H ) :   0.9715 B( 12-C , 14-H ) :   0.9712 B( 12-C , 15-H ) :   0.9791
B( 16-S , 17-C ) :   1.1857 B( 16-S , 20-C ) :   1.1403 B( 17-C , 18-C ) :   1.5892
B( 17-C , 33-H ) :   0.9684 B( 18-C , 19-C ) :   1.2410 B( 18-C , 21-H ) :   0.9903
B( 19-C , 20-C ) :   1.5362 B( 19-C , 22-C ) :   1.0366 B( 22-C , 23-H ) :   0.9349
B( 22-C , 24-H ) :   0.9280 B( 22-C , 25-C ) :   1.0571 B( 25-C , 26-H ) :   0.9605
B( 25-C , 27-H ) :   0.9612 B( 25-C , 28-C ) :   1.0364 B( 28-C , 29-H ) :   0.9785
B( 28-C , 30-H ) :   0.9749 B( 28-C , 31-H ) :   0.9753

Dispersion correction           -0.014768177
FINAL SINGLE POINT ENERGY     -1339.845891860654

DIPOLE MOMENT
-------------
                                X             Y             Z
Electronic contribution:    -14.97799      22.90044      14.39456
Nuclear contribution   :     15.13746     -23.53034     -14.39721
                        -----------------------------------------
Total Dipole Moment    :      0.15947      -0.62990      -0.00265
                        -----------------------------------------
Magnitude (a.u.)       :      0.64978
Magnitude (Debye)      :      1.65160

Rotational constants in cm-1:     0.020127     0.009061     0.006889
Rotational constants in MHz :   603.396770   271.643762   206.533011

                             ****ORCA TERMINATED NORMALLY****
TOTAL RUN TIME: 0 days 0 hours 0 minutes 31 seconds 171 msec
