                         Program Version 4.2.1 -  RELEASE  -
|  1> ! wB97X-D3 SP def2-SVP
|  2> %pal
|  3> nprocs 16
|  4> end
|  5>
|  6> * xyz 0 1
|  7> S 	 43.7445 	 11.0671 	 80.7745
|  8> C 	 42.2782 	 10.1002 	 80.85
|  9> C 	 42.1622 	 9.51924 	 82.0666
| 10> C 	 43.2341 	 9.89679 	 82.997
| 11> C 	 44.1011 	 10.8715 	 82.4565
| 12> H 	 43.36 	 9.55941 	 83.9949
| 13> C 	 41.0965 	 8.56643 	 82.434
| 14> H 	 41.5477 	 7.5931 	 82.3998
| 15> H 	 40.3544 	 8.66217 	 81.7197
| 16> C 	 40.4853 	 8.79914 	 83.8691
| 17> H 	 41.2673 	 8.8197 	 84.6466
| 18> H 	 39.9638 	 9.82662 	 83.8885
| 19> C 	 39.3454 	 7.84475 	 84.2333
| 20> H 	 38.8226 	 7.59975 	 83.3159
| 21> H 	 39.7222 	 6.86895 	 84.6345
| 22> H 	 38.6457 	 8.20501 	 85.0183
| 23> S 	 46.7932 	 11.2027 	 82.3615
| 24> C 	 47.5713 	 12.0883 	 83.651
| 25> C 	 46.6288 	 12.5084 	 84.5454
| 26> C 	 45.2948 	 12.0782 	 84.269
| 27> C 	 45.2023 	 11.508 	 83.0602
| 28> H 	 46.869 	 13.0715 	 85.3897
| 29> C 	 44.1462 	 12.5649 	 85.1389
| 30> H 	 44.6096 	 12.7178 	 86.081
| 31> H 	 43.4591 	 11.7777 	 85.2973
| 32> C 	 43.5171 	 13.8852 	 84.7558
| 33> H 	 44.3201 	 14.6952 	 84.7015
| 34> H 	 42.9153 	 14.2118 	 85.6005
| 35> C 	 42.6781 	 13.7792 	 83.4576
| 36> H 	 42.0805 	 14.6974 	 83.1829
| 37> H 	 41.8963 	 12.9918 	 83.5673
| 38> H 	 43.354 	 13.6261 	 82.6144
| 39> H 	 41.6093 	 9.99439 	 79.9722
| 40> H 	 48.6111 	 12.238 	 83.6604
| 41> *
| 42>
| 43>                          ****END OF INPUT****

CARTESIAN COORDINATES (ANGSTROEM)
---------------------------------
  S     43.744500   11.067100   80.774500
  C     42.278200   10.100200   80.850000
  C     42.162200    9.519240   82.066600
  C     43.234100    9.896790   82.997000
  C     44.101100   10.871500   82.456500
  H     43.360000    9.559410   83.994900
  C     41.096500    8.566430   82.434000
  H     41.547700    7.593100   82.399800
  H     40.354400    8.662170   81.719700
  C     40.485300    8.799140   83.869100
  H     41.267300    8.819700   84.646600
  H     39.963800    9.826620   83.888500
  C     39.345400    7.844750   84.233300
  H     38.822600    7.599750   83.315900
  H     39.722200    6.868950   84.634500
  H     38.645700    8.205010   85.018300
  S     46.793200   11.202700   82.361500
  C     47.571300   12.088300   83.651000
  C     46.628800   12.508400   84.545400
  C     45.294800   12.078200   84.269000
  C     45.202300   11.508000   83.060200
  H     46.869000   13.071500   85.389700
  C     44.146200   12.564900   85.138900
  H     44.609600   12.717800   86.081000
  H     43.459100   11.777700   85.297300
  C     43.517100   13.885200   84.755800
  H     44.320100   14.695200   84.701500
  H     42.915300   14.211800   85.600500
  C     42.678100   13.779200   83.457600
  H     42.080500   14.697400   83.182900
  H     41.896300   12.991800   83.567300
  H     43.354000   13.626100   82.614400
  H     41.609300    9.994390   79.972200
  H     48.611100   12.238000   83.660400

 Total Charge           Charge          ....    0
 Multiplicity           Mult            ....    1
 Number of Electrons    NEL             ....  134
 Basis Dimension        Dim             ....  322

ORBITAL ENERGIES
----------------

  NO   OCC          E(Eh)            E(eV)
   0   2.0000     -88.960636     -2420.7420
   1   2.0000     -88.960085     -2420.7270
   2   2.0000     -10.326324      -280.9936
   3   2.0000     -10.317562      -280.7551
   4   2.0000     -10.314484      -280.6714
   5   2.0000     -10.313252      -280.6379
   6   2.0000     -10.299734      -280.2700
   7   2.0000     -10.297667      -280.2138
   8   2.0000     -10.295597      -280.1574
   9   2.0000     -10.295403      -280.1522
  10   2.0000     -10.289575      -279.9936
  11   2.0000     -10.287915      -279.9484
  12   2.0000     -10.287050      -279.9249
  13   2.0000     -10.283512      -279.8286
  14   2.0000     -10.283304      -279.8229
  15   2.0000     -10.276436      -279.6361
  16   2.0000      -8.075835      -219.7546
  17   2.0000      -8.075268      -219.7392
  18   2.0000      -6.034411      -164.2047
  19   2.0000      -6.033825      -164.1887
  20   2.0000      -6.030280      -164.0923
  21   2.0000      -6.029648      -164.0751
  22   2.0000      -6.026483      -163.9889
  23   2.0000      -6.026004      -163.9759
  24   2.0000      -1.011904       -27.5353
  25   2.0000      -0.985388       -26.8138
  26   2.0000      -0.914038       -24.8723
  27   2.0000      -0.910372       -24.7725
  28   2.0000      -0.875355       -23.8196
  29   2.0000      -0.847205       -23.0536
  30   2.0000      -0.841670       -22.9030
  31   2.0000      -0.813498       -22.1364
  32   2.0000      -0.783873       -21.3303
  33   2.0000      -0.774487       -21.0748
  34   2.0000      -0.712934       -19.3999
  35   2.0000      -0.695261       -18.9190
  36   2.0000      -0.692070       -18.8322
  37   2.0000      -0.668893       -18.2015
  38   2.0000      -0.642630       -17.4868
  39   2.0000      -0.618732       -16.8365
  40   2.0000      -0.601314       -16.3626
  41   2.0000      -0.568970       -15.4825
  42   2.0000      -0.563392       -15.3307
  43   2.0000      -0.551031       -14.9943
  44   2.0000      -0.542579       -14.7643
  45   2.0000      -0.524805       -14.2807
  46   2.0000      -0.515360       -14.0237
  47   2.0000      -0.513912       -13.9843
  48   2.0000      -0.509765       -13.8714
  49   2.0000      -0.501116       -13.6360
  50   2.0000      -0.495525       -13.4839
  51   2.0000      -0.480663       -13.0795
  52   2.0000      -0.475925       -12.9506
  53   2.0000      -0.465704       -12.6725
  54   2.0000      -0.457727       -12.4554
  55   2.0000      -0.445504       -12.1228
  56   2.0000      -0.438504       -11.9323
  57   2.0000      -0.432977       -11.7819
  58   2.0000      -0.427595       -11.6355
  59   2.0000      -0.424590       -11.5537
  60   2.0000      -0.419964       -11.4278
  61   2.0000      -0.413190       -11.2435
  62   2.0000      -0.410012       -11.1570
  63   2.0000      -0.348604        -9.4860
  64   2.0000      -0.331791        -9.0285
  65   2.0000      -0.323433        -8.8011
  66   2.0000      -0.295310        -8.0358
  67   0.0000       0.031629         0.8607
  68   0.0000       0.072295         1.9672
  69   0.0000       0.114850         3.1252
  70   0.0000       0.124350         3.3837
  71   0.0000       0.129028         3.5110

MULLIKEN ATOMIC CHARGES
-----------------------
   0 S :    0.094523
   1 C :   -0.144352
   2 C :   -0.091171
   3 C :    0.050090
   4 C :   -0.169112
   5 H :    0.002648
   6 C :    0.137529
   7 H :    0.040047
   8 H :   -0.003056
   9 C :   -0.143241
  10 H :    0.036664
  11 H :    0.043001
  12 C :   -0.051383
  13 H :    0.027623
  14 H :    0.029435
  15 H :    0.046568
  16 S :    0.094941
  17 C :   -0.066684
  18 C :   -0.001855
  19 C :   -0.069300
  20 C :   -0.135300
  21 H :   -0.008954
  22 C :    0.123045
  23 H :   -0.002227
  24 H :    0.006474
  25 C :   -0.063059
  26 H :    0.029531
  27 H :    0.026952
  28 C :   -0.062368
  29 H :    0.034379
  30 H :    0.038829
  31 H :    0.044594
  32 H :    0.061910
  33 H :    0.043283
Sum of atomic charges:    0.0000000

LOEWDIN ATOMIC CHARGES
----------------------
   0 S :    0.404099
   1 C :   -0.201650
   2 C :   -0.060997
   3 C :   -0.057036
   4 C :   -0.191997
   5 H :    0.021454
   6 C :   -0.022641
   7 H :    0.036078
   8 H :    0.019727
   9 C :   -0.046059
  10 H :    0.020183
  11 H :    0.033956
  12 C :   -0.074222
  13 H :    0.023769
  14 H :    0.025610
  15 H :    0.031411
  16 S :    0.394991
  17 C :   -0.167981
  18 C :   -0.060913
  19 C :   -0.054758
  20 C :   -0.198718
  21 H :    0.019763
  22 C :   -0.024348
  23 H :    0.026841
  24 H :    0.022705
  25 C :   -0.038919
  26 H :    0.029741
  27 H :    0.022700
  28 C :   -0.073385
  29 H :    0.029128
  30 H :    0.029558
  31 H :    0.024334
  32 H :    0.036809
  33 H :    0.020767

  Mayer bond orders larger than 0.100000
B(  0-S ,  1-C ) :   1.1169 B(  0-S ,  4-C ) :   1.1566 B(  1-C ,  2-C ) :   1.6323
B(  1-C , 32-H ) :   0.9683 B(  2-C ,  3-C ) :   1.2034 B(  2-C ,  6-C ) :   1.0397
B(  3-C ,  4-C ) :   1.5717 B(  3-C ,  5-H ) :   0.9958 B(  4-C , 20-C ) :   1.0479
B(  6-C ,  7-H ) :   0.9276 B(  6-C ,  8-H ) :   0.9316 B(  6-C ,  9-C ) :   1.0595
B(  9-C , 10-H ) :   0.9571 B(  9-C , 11-H ) :   0.9597 B(  9-C , 12-C ) :   1.0774
B( 12-C , 13-H ) :   0.9725 B( 12-C , 14-H ) :   0.9741 B( 12-C , 15-H ) :   0.9770
B( 16-S , 17-C ) :   1.1459 B( 16-S , 20-C ) :   1.1287 B( 17-C , 18-C ) :   1.6034
B( 17-C , 33-H ) :   0.9790 B( 18-C , 19-C ) :   1.2230 B( 18-C , 21-H ) :   0.9991
B( 19-C , 20-C ) :   1.6326 B( 19-C , 22-C ) :   1.0505 B( 22-C , 23-H ) :   0.9154
B( 22-C , 24-H ) :   0.9253 B( 22-C , 25-C ) :   1.0828 B( 25-C , 26-H ) :   0.9511
B( 25-C , 27-H ) :   0.9522 B( 25-C , 28-C ) :   1.0754 B( 28-C , 29-H ) :   0.9733
B( 28-C , 30-H ) :   0.9730 B( 28-C , 31-H ) :   0.9699

Dispersion correction           -0.015573995
FINAL SINGLE POINT ENERGY     -1339.884567458590

DIPOLE MOMENT
-------------
                                X             Y             Z
Electronic contribution:     23.37721       1.24048     -14.68517
Nuclear contribution   :    -23.76229      -1.33169      15.23760
                        -----------------------------------------
Total Dipole Moment    :     -0.38508      -0.09121       0.55243
                        -----------------------------------------
Magnitude (a.u.)       :      0.67955
Magnitude (Debye)      :      1.72727

Rotational constants in cm-1:     0.020542     0.008775     0.007626
Rotational constants in MHz :   615.844419   263.066524   228.629081

                             ****ORCA TERMINATED NORMALLY****
TOTAL RUN TIME: 0 days 0 hours 0 minutes 31 seconds 922 msec
