                         Program Version 4.2.1 -  RELEASE  -
|  1> ! wB97X-D3 SP def2-SVP
|  2> %pal
|  3> nprocs 16
|  4> end
|  5>
|  6> * xyz 0 1
|  7> S 	 5.92738 	 -6.26073 	 80.3587
|  8> C 	 6.33518 	 -6.29299 	 81.9583
|  9> C 	 5.39947 	 -6.89467 	 82.7934
| 10> C 	 4.20719 	 -7.09292 	 82.0766
| 11> C 	 4.36574 	 -6.99067 	 80.7165
| 12> H 	 3.2793 	 -7.46046 	 82.4436
| 13> C 	 5.53247 	 -6.94357 	 84.3309
| 14> H 	 6.34744 	 -7.66239 	 84.6615
| 15> H 	 4.58362 	 -7.36465 	 84.7217
| 16> C 	 5.83083 	 -5.63201 	 85.0926
| 17> H 	 6.02672 	 -5.89123 	 86.1463
| 18> H 	 6.7745 	 -5.09899 	 84.8581
| 19> C 	 4.71941 	 -4.64109 	 84.8193
| 20> H 	 4.82021 	 -3.79269 	 85.4482
| 21> H 	 4.88603 	 -4.24299 	 83.7914
| 22> H 	 3.75213 	 -5.1096 	 84.8791
| 23> S 	 3.18754 	 -5.72923 	 78.5564
| 24> C 	 1.57528 	 -6.16649 	 78.1633
| 25> C 	 1.14647 	 -7.31984 	 78.7777
| 26> C 	 2.14853 	 -7.8529 	 79.6887
| 27> C 	 3.28867 	 -7.08803 	 79.7117
| 28> H 	 0.183652 	 -7.76109 	 78.5827
| 29> C 	 1.92933 	 -9.15763 	 80.3897
| 30> H 	 0.885602 	 -9.23431 	 80.6781
| 31> H 	 2.62255 	 -9.13329 	 81.247
| 32> C 	 2.2824 	 -10.4295 	 79.5825
| 33> H 	 1.6984 	 -10.5258 	 78.6389
| 34> H 	 2.13965 	 -11.372 	 80.1942
| 35> C 	 3.80261 	 -10.6156 	 79.2184
| 36> H 	 4.40748 	 -10.816 	 80.1357
| 37> H 	 4.26285 	 -9.95196 	 78.5598
| 38> H 	 3.84147 	 -11.5599 	 78.7175
| 39> H 	 7.36863 	 -6.16409 	 82.3003
| 40> H 	 1.07782 	 -5.54419 	 77.3621
| 41> *
| 42>
| 43>                          ****END OF INPUT****

CARTESIAN COORDINATES (ANGSTROEM)
---------------------------------
  S      5.927380   -6.260730   80.358700
  C      6.335180   -6.292990   81.958300
  C      5.399470   -6.894670   82.793400
  C      4.207190   -7.092920   82.076600
  C      4.365740   -6.990670   80.716500
  H      3.279300   -7.460460   82.443600
  C      5.532470   -6.943570   84.330900
  H      6.347440   -7.662390   84.661500
  H      4.583620   -7.364650   84.721700
  C      5.830830   -5.632010   85.092600
  H      6.026720   -5.891230   86.146300
  H      6.774500   -5.098990   84.858100
  C      4.719410   -4.641090   84.819300
  H      4.820210   -3.792690   85.448200
  H      4.886030   -4.242990   83.791400
  H      3.752130   -5.109600   84.879100
  S      3.187540   -5.729230   78.556400
  C      1.575280   -6.166490   78.163300
  C      1.146470   -7.319840   78.777700
  C      2.148530   -7.852900   79.688700
  C      3.288670   -7.088030   79.711700
  H      0.183652   -7.761090   78.582700
  C      1.929330   -9.157630   80.389700
  H      0.885602   -9.234310   80.678100
  H      2.622550   -9.133290   81.247000
  C      2.282400  -10.429500   79.582500
  H      1.698400  -10.525800   78.638900
  H      2.139650  -11.372000   80.194200
  C      3.802610  -10.615600   79.218400
  H      4.407480  -10.816000   80.135700
  H      4.262850   -9.951960   78.559800
  H      3.841470  -11.559900   78.717500
  H      7.368630   -6.164090   82.300300
  H      1.077820   -5.544190   77.362100

 Total Charge           Charge          ....    0
 Multiplicity           Mult            ....    1
 Number of Electrons    NEL             ....  134
 Basis Dimension        Dim             ....  322

ORBITAL ENERGIES
----------------

  NO   OCC          E(Eh)            E(eV)
   0   2.0000     -88.968010     -2420.9426
   1   2.0000     -88.961178     -2420.7567
   2   2.0000     -10.326866      -281.0083
   3   2.0000     -10.326616      -281.0015
   4   2.0000     -10.320707      -280.8407
   5   2.0000     -10.306370      -280.4506
   6   2.0000     -10.302707      -280.3509
   7   2.0000     -10.300589      -280.2933
   8   2.0000     -10.298932      -280.2482
   9   2.0000     -10.295773      -280.1622
  10   2.0000     -10.295386      -280.1517
  11   2.0000     -10.292903      -280.0841
  12   2.0000     -10.289391      -279.9886
  13   2.0000     -10.287038      -279.9245
  14   2.0000     -10.268575      -279.4221
  15   2.0000     -10.268225      -279.4126
  16   2.0000      -8.084439      -219.9888
  17   2.0000      -8.076663      -219.7772
  18   2.0000      -6.042674      -164.4295
  19   2.0000      -6.038668      -164.3205
  20   2.0000      -6.035450      -164.2329
  21   2.0000      -6.035098      -164.2234
  22   2.0000      -6.031151      -164.1160
  23   2.0000      -6.027375      -164.0132
  24   2.0000      -1.013802       -27.5869
  25   2.0000      -0.989061       -26.9137
  26   2.0000      -0.908295       -24.7160
  27   2.0000      -0.905436       -24.6382
  28   2.0000      -0.868910       -23.6443
  29   2.0000      -0.855547       -23.2806
  30   2.0000      -0.845371       -23.0037
  31   2.0000      -0.809869       -22.0376
  32   2.0000      -0.784391       -21.3444
  33   2.0000      -0.770188       -20.9579
  34   2.0000      -0.700224       -19.0541
  35   2.0000      -0.698635       -19.0108
  36   2.0000      -0.684804       -18.6345
  37   2.0000      -0.665315       -18.1042
  38   2.0000      -0.642256       -17.4767
  39   2.0000      -0.612850       -16.6765
  40   2.0000      -0.592219       -16.1151
  41   2.0000      -0.569647       -15.5009
  42   2.0000      -0.554750       -15.0955
  43   2.0000      -0.550566       -14.9817
  44   2.0000      -0.545755       -14.8507
  45   2.0000      -0.532576       -14.4921
  46   2.0000      -0.513227       -13.9656
  47   2.0000      -0.506478       -13.7820
  48   2.0000      -0.503800       -13.7091
  49   2.0000      -0.491719       -13.3804
  50   2.0000      -0.486689       -13.2435
  51   2.0000      -0.475874       -12.9492
  52   2.0000      -0.472006       -12.8439
  53   2.0000      -0.464124       -12.6295
  54   2.0000      -0.456301       -12.4166
  55   2.0000      -0.447512       -12.1774
  56   2.0000      -0.442663       -12.0455
  57   2.0000      -0.434898       -11.8342
  58   2.0000      -0.430400       -11.7118
  59   2.0000      -0.425517       -11.5789
  60   2.0000      -0.421538       -11.4706
  61   2.0000      -0.415017       -11.2932
  62   2.0000      -0.408654       -11.1200
  63   2.0000      -0.359258        -9.7759
  64   2.0000      -0.334277        -9.0961
  65   2.0000      -0.328002        -8.9254
  66   2.0000      -0.283141        -7.7047
  67   0.0000       0.028290         0.7698
  68   0.0000       0.073697         2.0054
  69   0.0000       0.105936         2.8827
  70   0.0000       0.115834         3.1520
  71   0.0000       0.137498         3.7415

MULLIKEN ATOMIC CHARGES
-----------------------
   0 S :    0.125324
   1 C :   -0.113996
   2 C :   -0.091940
   3 C :    0.024075
   4 C :   -0.154997
   5 H :    0.009328
   6 C :    0.023698
   7 H :    0.042713
   8 H :    0.026671
   9 C :   -0.081592
  10 H :    0.027776
  11 H :    0.023531
  12 C :   -0.028362
  13 H :    0.023651
  14 H :    0.045965
  15 H :    0.025590
  16 S :    0.085083
  17 C :   -0.113306
  18 C :   -0.010132
  19 C :   -0.095532
  20 C :   -0.107495
  21 H :    0.015027
  22 C :    0.111262
  23 H :    0.025881
  24 H :    0.012409
  25 C :   -0.106167
  26 H :    0.036307
  27 H :    0.040495
  28 C :   -0.048299
  29 H :    0.034653
  30 H :    0.036608
  31 H :    0.015780
  32 H :    0.058774
  33 H :    0.081216
Sum of atomic charges:   -0.0000000

LOEWDIN ATOMIC CHARGES
----------------------
   0 S :    0.445399
   1 C :   -0.227843
   2 C :   -0.070926
   3 C :   -0.056824
   4 C :   -0.192613
   5 H :    0.026065
   6 C :   -0.035994
   7 H :    0.037356
   8 H :    0.030380
   9 C :   -0.048518
  10 H :    0.023711
  11 H :    0.024560
  12 C :   -0.062397
  13 H :    0.019500
  14 H :    0.035736
  15 H :    0.019922
  16 S :    0.391546
  17 C :   -0.192743
  18 C :   -0.072347
  19 C :   -0.057763
  20 C :   -0.185539
  21 H :    0.030328
  22 C :   -0.034897
  23 H :    0.031481
  24 H :    0.031464
  25 C :   -0.039642
  26 H :    0.024324
  27 H :    0.033659
  28 C :   -0.066321
  29 H :    0.030085
  30 H :    0.014834
  31 H :    0.024189
  32 H :    0.031014
  33 H :    0.038815

  Mayer bond orders larger than 0.100000
B(  0-S ,  1-C ) :   1.1908 B(  0-S ,  4-C ) :   1.1593 B(  1-C ,  2-C ) :   1.5702
B(  1-C , 32-H ) :   0.9574 B(  2-C ,  3-C ) :   1.2721 B(  2-C ,  6-C ) :   1.0238
B(  3-C ,  4-C ) :   1.5672 B(  3-C ,  5-H ) :   0.9804 B(  4-C , 20-C ) :   1.0234
B(  6-C ,  7-H ) :   0.9368 B(  6-C ,  8-H ) :   0.9488 B(  6-C ,  9-C ) :   1.0758
B(  9-C , 10-H ) :   0.9545 B(  9-C , 11-H ) :   0.9516 B(  9-C , 12-C ) :   1.0726
B( 12-C , 13-H ) :   0.9725 B( 12-C , 14-H ) :   0.9701 B( 12-C , 15-H ) :   0.9797
B( 16-S , 17-C ) :   1.1695 B( 16-S , 20-C ) :   1.1171 B( 17-C , 18-C ) :   1.6024
B( 17-C , 33-H ) :   0.9595 B( 18-C , 19-C ) :   1.2134 B( 18-C , 21-H ) :   0.9984
B( 19-C , 20-C ) :   1.6359 B( 19-C , 22-C ) :   1.0529 B( 22-C , 23-H ) :   0.9274
B( 22-C , 24-H ) :   0.9254 B( 22-C , 25-C ) :   1.0737 B( 25-C , 26-H ) :   0.9578
B( 25-C , 27-H ) :   0.9574 B( 25-C , 28-C ) :   1.0746 B( 28-C , 29-H ) :   0.9749
B( 28-C , 30-H ) :   0.9784 B( 28-C , 31-H ) :   0.9714

Dispersion correction           -0.014914192
FINAL SINGLE POINT ENERGY     -1339.877496143149

DIPOLE MOMENT
-------------
                                X             Y             Z
Electronic contribution:      2.09733      11.02139     -17.09102
Nuclear contribution   :     -2.30841     -11.29984      17.43168
                        -----------------------------------------
Total Dipole Moment    :     -0.21108      -0.27845       0.34065
                        -----------------------------------------
Magnitude (a.u.)       :      0.48799
Magnitude (Debye)      :      1.24037

Rotational constants in cm-1:     0.020614     0.008444     0.007532
Rotational constants in MHz :   618.001409   253.156066   225.816843

                             ****ORCA TERMINATED NORMALLY****
TOTAL RUN TIME: 0 days 0 hours 0 minutes 35 seconds 951 msec
