                         Program Version 4.2.1 -  RELEASE  -
|  1> ! wB97X-D3 SP def2-SVP
|  2> %pal
|  3> nprocs 16
|  4> end
|  5>
|  6> * xyz 0 1
|  7> S 	 -57.345 	 43.1404 	 115.967
|  8> C 	 -58.1796 	 43.6082 	 114.494
|  9> C 	 -58.0576 	 42.7278 	 113.487
| 10> C 	 -57.1484 	 41.7137 	 113.835
| 11> C 	 -56.6607 	 41.6955 	 115.157
| 12> H 	 -56.7524 	 40.9549 	 113.08
| 13> C 	 -58.5495 	 42.9373 	 112.074
| 14> H 	 -57.7595 	 42.6241 	 111.364
| 15> H 	 -58.8805 	 43.8985 	 111.945
| 16> C 	 -59.7665 	 42.0959 	 111.669
| 17> H 	 -59.5231 	 41.1638 	 111.166
| 18> H 	 -60.3963 	 41.8635 	 112.586
| 19> C 	 -60.6909 	 42.8359 	 110.702
| 20> H 	 -60.9721 	 43.8328 	 111.014
| 21> H 	 -60.154 	 43.0385 	 109.789
| 22> H 	 -61.4979 	 42.1819 	 110.431
| 23> S 	 -54.5362 	 41.3807 	 116.835
| 24> C 	 -53.9987 	 39.7817 	 117.274
| 25> C 	 -54.6874 	 38.7931 	 116.593
| 26> C 	 -55.6946 	 39.3334 	 115.8
| 27> C 	 -55.788 	 40.7449 	 115.839
| 28> H 	 -54.7332 	 37.8403 	 116.963
| 29> C 	 -56.5814 	 38.5136 	 114.936
| 30> H 	 -56.0549 	 37.6789 	 114.501
| 31> H 	 -56.7705 	 39.0497 	 113.986
| 32> C 	 -57.8834 	 37.9952 	 115.551
| 33> H 	 -57.7722 	 37.4678 	 116.481
| 34> H 	 -58.3813 	 37.2318 	 114.883
| 35> C 	 -58.8635 	 39.1382 	 115.813
| 36> H 	 -59.803 	 38.7426 	 116.045
| 37> H 	 -58.8499 	 39.7015 	 114.905
| 38> H 	 -58.4014 	 39.7119 	 116.619
| 39> H 	 -58.8783 	 44.4489 	 114.385
| 40> H 	 -53.3962 	 39.5756 	 118.133
| 41> *
| 42>
| 43>                          ****END OF INPUT****

CARTESIAN COORDINATES (ANGSTROEM)
---------------------------------
  S    -57.345000   43.140400  115.967000
  C    -58.179600   43.608200  114.494000
  C    -58.057600   42.727800  113.487000
  C    -57.148400   41.713700  113.835000
  C    -56.660700   41.695500  115.157000
  H    -56.752400   40.954900  113.080000
  C    -58.549500   42.937300  112.074000
  H    -57.759500   42.624100  111.364000
  H    -58.880500   43.898500  111.945000
  C    -59.766500   42.095900  111.669000
  H    -59.523100   41.163800  111.166000
  H    -60.396300   41.863500  112.586000
  C    -60.690900   42.835900  110.702000
  H    -60.972100   43.832800  111.014000
  H    -60.154000   43.038500  109.789000
  H    -61.497900   42.181900  110.431000
  S    -54.536200   41.380700  116.835000
  C    -53.998700   39.781700  117.274000
  C    -54.687400   38.793100  116.593000
  C    -55.694600   39.333400  115.800000
  C    -55.788000   40.744900  115.839000
  H    -54.733200   37.840300  116.963000
  C    -56.581400   38.513600  114.936000
  H    -56.054900   37.678900  114.501000
  H    -56.770500   39.049700  113.986000
  C    -57.883400   37.995200  115.551000
  H    -57.772200   37.467800  116.481000
  H    -58.381300   37.231800  114.883000
  C    -58.863500   39.138200  115.813000
  H    -59.803000   38.742600  116.045000
  H    -58.849900   39.701500  114.905000
  H    -58.401400   39.711900  116.619000
  H    -58.878300   44.448900  114.385000
  H    -53.396200   39.575600  118.133000

 Total Charge           Charge          ....    0
 Multiplicity           Mult            ....    1
 Number of Electrons    NEL             ....  134
 Basis Dimension        Dim             ....  322

ORBITAL ENERGIES
----------------

  NO   OCC          E(Eh)            E(eV)
   0   2.0000     -88.969012     -2420.9699
   1   2.0000     -88.968734     -2420.9623
   2   2.0000     -10.337229      -281.2903
   3   2.0000     -10.328516      -281.0532
   4   2.0000     -10.316684      -280.7312
   5   2.0000     -10.313890      -280.6552
   6   2.0000     -10.301169      -280.3091
   7   2.0000     -10.300666      -280.2954
   8   2.0000     -10.295501      -280.1548
   9   2.0000     -10.290184      -280.0101
  10   2.0000     -10.288450      -279.9630
  11   2.0000     -10.285941      -279.8947
  12   2.0000     -10.284182      -279.8468
  13   2.0000     -10.280420      -279.7445
  14   2.0000     -10.275054      -279.5984
  15   2.0000     -10.257773      -279.1282
  16   2.0000      -8.083977      -219.9762
  17   2.0000      -8.082790      -219.9439
  18   2.0000      -6.042309      -164.4196
  19   2.0000      -6.041361      -164.3938
  20   2.0000      -6.038255      -164.3093
  21   2.0000      -6.037463      -164.2877
  22   2.0000      -6.035057      -164.2223
  23   2.0000      -6.033495      -164.1798
  24   2.0000      -1.009864       -27.4798
  25   2.0000      -0.989180       -26.9170
  26   2.0000      -0.917087       -24.9552
  27   2.0000      -0.910922       -24.7874
  28   2.0000      -0.876093       -23.8397
  29   2.0000      -0.851631       -23.1741
  30   2.0000      -0.848192       -23.0805
  31   2.0000      -0.815055       -22.1788
  32   2.0000      -0.786513       -21.4021
  33   2.0000      -0.772730       -21.0270
  34   2.0000      -0.708955       -19.2916
  35   2.0000      -0.695273       -18.9194
  36   2.0000      -0.692269       -18.8376
  37   2.0000      -0.665459       -18.1081
  38   2.0000      -0.638794       -17.3825
  39   2.0000      -0.623097       -16.9553
  40   2.0000      -0.602656       -16.3991
  41   2.0000      -0.577453       -15.7133
  42   2.0000      -0.569594       -15.4994
  43   2.0000      -0.556088       -15.1319
  44   2.0000      -0.538488       -14.6530
  45   2.0000      -0.528380       -14.3780
  46   2.0000      -0.516630       -14.0582
  47   2.0000      -0.512888       -13.9564
  48   2.0000      -0.508205       -13.8290
  49   2.0000      -0.497938       -13.5496
  50   2.0000      -0.490019       -13.3341
  51   2.0000      -0.480635       -13.0788
  52   2.0000      -0.472579       -12.8595
  53   2.0000      -0.471194       -12.8218
  54   2.0000      -0.460271       -12.5246
  55   2.0000      -0.444936       -12.1073
  56   2.0000      -0.441466       -12.0129
  57   2.0000      -0.438338       -11.9278
  58   2.0000      -0.433930       -11.8078
  59   2.0000      -0.427349       -11.6288
  60   2.0000      -0.414432       -11.2773
  61   2.0000      -0.412758       -11.2317
  62   2.0000      -0.405969       -11.0470
  63   2.0000      -0.353083        -9.6079
  64   2.0000      -0.334344        -9.0980
  65   2.0000      -0.333253        -9.0683
  66   2.0000      -0.287077        -7.8118
  67   0.0000       0.018816         0.5120
  68   0.0000       0.074109         2.0166
  69   0.0000       0.107565         2.9270
  70   0.0000       0.117240         3.1903
  71   0.0000       0.125663         3.4195

MULLIKEN ATOMIC CHARGES
-----------------------
   0 S :    0.107282
   1 C :   -0.122580
   2 C :   -0.079457
   3 C :   -0.009681
   4 C :   -0.141912
   5 H :    0.042568
   6 C :    0.132295
   7 H :    0.040184
   8 H :   -0.012759
   9 C :   -0.115852
  10 H :    0.029743
  11 H :    0.045143
  12 C :   -0.043474
  13 H :    0.027927
  14 H :    0.014700
  15 H :    0.036182
  16 S :    0.115979
  17 C :   -0.093922
  18 C :    0.015404
  19 C :   -0.054354
  20 C :   -0.157449
  21 H :    0.003781
  22 C :    0.063179
  23 H :    0.010781
  24 H :    0.004527
  25 C :   -0.087484
  26 H :    0.015343
  27 H :    0.025481
  28 C :    0.002192
  29 H :    0.020926
  30 H :    0.021147
  31 H :    0.039291
  32 H :    0.048568
  33 H :    0.056300
Sum of atomic charges:   -0.0000000

LOEWDIN ATOMIC CHARGES
----------------------
   0 S :    0.386831
   1 C :   -0.188788
   2 C :   -0.074176
   3 C :   -0.066323
   4 C :   -0.183645
   5 H :    0.037943
   6 C :   -0.018670
   7 H :    0.041566
   8 H :    0.016808
   9 C :   -0.043251
  10 H :    0.021566
  11 H :    0.029218
  12 C :   -0.064054
  13 H :    0.020298
  14 H :    0.020838
  15 H :    0.026864
  16 S :    0.431662
  17 C :   -0.178555
  18 C :   -0.062141
  19 C :   -0.054227
  20 C :   -0.213647
  21 H :    0.023195
  22 C :   -0.041315
  23 H :    0.030096
  24 H :    0.031164
  25 C :   -0.038176
  26 H :    0.015614
  27 H :    0.024230
  28 C :   -0.053603
  29 H :    0.015630
  30 H :    0.020213
  31 H :    0.028239
  32 H :    0.033084
  33 H :    0.025512

  Mayer bond orders larger than 0.100000
B(  0-S ,  1-C ) :   1.1343 B(  0-S ,  4-C ) :   1.1334 B(  1-C ,  2-C ) :   1.6356
B(  1-C ,  4-C ) :   0.1008 B(  1-C , 32-H ) :   0.9529 B(  2-C ,  3-C ) :   1.2470
B(  2-C ,  6-C ) :   1.0421 B(  3-C ,  4-C ) :   1.5749 B(  3-C ,  5-H ) :   0.9715
B(  4-C , 20-C ) :   1.0607 B(  6-C ,  7-H ) :   0.9368 B(  6-C ,  8-H ) :   0.9396
B(  6-C ,  9-C ) :   1.0418 B(  9-C , 10-H ) :   0.9546 B(  9-C , 11-H ) :   0.9619
B(  9-C , 12-C ) :   1.0934 B( 12-C , 13-H ) :   0.9744 B( 12-C , 14-H ) :   0.9707
B( 12-C , 15-H ) :   0.9736 B( 16-S , 17-C ) :   1.1785 B( 16-S , 20-C ) :   1.1606
B( 17-C , 18-C ) :   1.5706 B( 17-C , 20-C ) :   0.1077 B( 17-C , 33-H ) :   0.9657
B( 18-C , 19-C ) :   1.3152 B( 18-C , 21-H ) :   0.9843 B( 19-C , 20-C ) :   1.5351
B( 19-C , 22-C ) :   1.0407 B( 22-C , 23-H ) :   0.9245 B( 22-C , 24-H ) :   0.9363
B( 22-C , 25-C ) :   1.0729 B( 25-C , 26-H ) :   0.9577 B( 25-C , 27-H ) :   0.9542
B( 25-C , 28-C ) :   1.0753 B( 28-C , 29-H ) :   0.9717 B( 28-C , 30-H ) :   0.9752
B( 28-C , 31-H ) :   0.9732

Dispersion correction           -0.015354908
FINAL SINGLE POINT ENERGY     -1339.865650767483

DIPOLE MOMENT
-------------
                                X             Y             Z
Electronic contribution:     20.62490       9.57059      19.12761
Nuclear contribution   :    -20.95327      -9.90836     -19.55801
                        -----------------------------------------
Total Dipole Moment    :     -0.32837      -0.33777      -0.43040
                        -----------------------------------------
Magnitude (a.u.)       :      0.63809
Magnitude (Debye)      :      1.62190

Rotational constants in cm-1:     0.022774     0.008427     0.006926
Rotational constants in MHz :   682.734134   252.643961   207.639407

                             ****ORCA TERMINATED NORMALLY****
TOTAL RUN TIME: 0 days 0 hours 0 minutes 32 seconds 92 msec
