                         Program Version 4.2.1 -  RELEASE  -
|  1> ! wB97X-D3 SP def2-SVP
|  2> %pal
|  3> nprocs 16
|  4> end
|  5>
|  6> * xyz 0 1
|  7> S 	 -48.9947 	 49.2287 	 99.7273
|  8> C 	 -48.42 	 49.4384 	 101.378
|  9> C 	 -47.6275 	 50.5255 	 101.447
| 10> C 	 -47.2797 	 51.0872 	 100.218
| 11> C 	 -48.0007 	 50.6064 	 99.141
| 12> H 	 -46.6128 	 51.9411 	 99.9847
| 13> C 	 -47.0563 	 50.9344 	 102.776
| 14> H 	 -45.9552 	 50.8239 	 102.785
| 15> H 	 -47.4627 	 50.2989 	 103.578
| 16> C 	 -47.3463 	 52.3962 	 103.16
| 17> H 	 -47.0814 	 52.5907 	 104.168
| 18> H 	 -46.8809 	 53.0236 	 102.46
| 19> C 	 -48.8874 	 52.7454 	 103.014
| 20> H 	 -49.2293 	 52.9955 	 102.005
| 21> H 	 -49.4745 	 51.96 	 103.415
| 22> H 	 -49.3058 	 53.6125 	 103.548
| 23> S 	 -49.6392 	 50.6443 	 97.0419
| 24> C 	 -49.4397 	 51.7253 	 95.7114
| 25> C 	 -48.4342 	 52.7177 	 95.9803
| 26> C 	 -47.7335 	 52.3644 	 97.2175
| 27> C 	 -48.2626 	 51.2756 	 97.8515
| 28> H 	 -48.3769 	 53.5742 	 95.3481
| 29> C 	 -46.4062 	 53.012 	 97.5864
| 30> H 	 -45.8311 	 53.0597 	 96.6588
| 31> H 	 -45.7936 	 52.4006 	 98.1887
| 32> C 	 -46.5192 	 54.4062 	 98.2397
| 33> H 	 -47.0863 	 54.3322 	 99.1784
| 34> H 	 -47.2913 	 54.918 	 97.7004
| 35> C 	 -45.3414 	 55.3579 	 98.3229
| 36> H 	 -44.7158 	 55.4774 	 97.4404
| 37> H 	 -44.7103 	 54.9993 	 99.1667
| 38> H 	 -45.6331 	 56.4155 	 98.5655
| 39> H 	 -48.9247 	 48.9003 	 102.175
| 40> H 	 -50.0597 	 51.7982 	 94.8364
| 41> *
| 42>
| 43>                          ****END OF INPUT****

CARTESIAN COORDINATES (ANGSTROEM)
---------------------------------
  S    -48.994700   49.228700   99.727300
  C    -48.420000   49.438400  101.378000
  C    -47.627500   50.525500  101.447000
  C    -47.279700   51.087200  100.218000
  C    -48.000700   50.606400   99.141000
  H    -46.612800   51.941100   99.984700
  C    -47.056300   50.934400  102.776000
  H    -45.955200   50.823900  102.785000
  H    -47.462700   50.298900  103.578000
  C    -47.346300   52.396200  103.160000
  H    -47.081400   52.590700  104.168000
  H    -46.880900   53.023600  102.460000
  C    -48.887400   52.745400  103.014000
  H    -49.229300   52.995500  102.005000
  H    -49.474500   51.960000  103.415000
  H    -49.305800   53.612500  103.548000
  S    -49.639200   50.644300   97.041900
  C    -49.439700   51.725300   95.711400
  C    -48.434200   52.717700   95.980300
  C    -47.733500   52.364400   97.217500
  C    -48.262600   51.275600   97.851500
  H    -48.376900   53.574200   95.348100
  C    -46.406200   53.012000   97.586400
  H    -45.831100   53.059700   96.658800
  H    -45.793600   52.400600   98.188700
  C    -46.519200   54.406200   98.239700
  H    -47.086300   54.332200   99.178400
  H    -47.291300   54.918000   97.700400
  C    -45.341400   55.357900   98.322900
  H    -44.715800   55.477400   97.440400
  H    -44.710300   54.999300   99.166700
  H    -45.633100   56.415500   98.565500
  H    -48.924700   48.900300  102.175000
  H    -50.059700   51.798200   94.836400

 Total Charge           Charge          ....    0
 Multiplicity           Mult            ....    1
 Number of Electrons    NEL             ....  134
 Basis Dimension        Dim             ....  322

ORBITAL ENERGIES
----------------

  NO   OCC          E(Eh)            E(eV)
   0   2.0000     -88.967836     -2420.9379
   1   2.0000     -88.962421     -2420.7905
   2   2.0000     -10.336865      -281.2804
   3   2.0000     -10.328722      -281.0588
   4   2.0000     -10.321909      -280.8734
   5   2.0000     -10.312225      -280.6099
   6   2.0000     -10.309181      -280.5271
   7   2.0000     -10.304194      -280.3914
   8   2.0000     -10.297339      -280.2048
   9   2.0000     -10.294823      -280.1364
  10   2.0000     -10.293281      -280.0944
  11   2.0000     -10.293022      -280.0874
  12   2.0000     -10.287106      -279.9264
  13   2.0000     -10.286309      -279.9047
  14   2.0000     -10.283482      -279.8278
  15   2.0000     -10.271495      -279.5016
  16   2.0000      -8.083656      -219.9675
  17   2.0000      -8.076695      -219.7780
  18   2.0000      -6.042185      -164.4162
  19   2.0000      -6.037926      -164.3003
  20   2.0000      -6.035338      -164.2299
  21   2.0000      -6.034390      -164.2041
  22   2.0000      -6.031280      -164.1195
  23   2.0000      -6.027325      -164.0119
  24   2.0000      -1.011770       -27.5317
  25   2.0000      -0.988118       -26.8881
  26   2.0000      -0.912033       -24.8177
  27   2.0000      -0.909157       -24.7394
  28   2.0000      -0.868642       -23.6370
  29   2.0000      -0.856072       -23.2949
  30   2.0000      -0.839594       -22.8465
  31   2.0000      -0.817389       -22.2423
  32   2.0000      -0.785674       -21.3793
  33   2.0000      -0.774916       -21.0865
  34   2.0000      -0.712003       -19.3746
  35   2.0000      -0.702977       -19.1290
  36   2.0000      -0.695266       -18.9191
  37   2.0000      -0.669729       -18.2243
  38   2.0000      -0.641655       -17.4603
  39   2.0000      -0.625726       -17.0269
  40   2.0000      -0.598571       -16.2880
  41   2.0000      -0.569586       -15.4992
  42   2.0000      -0.559404       -15.2222
  43   2.0000      -0.553166       -15.0524
  44   2.0000      -0.539237       -14.6734
  45   2.0000      -0.525698       -14.3050
  46   2.0000      -0.523765       -14.2524
  47   2.0000      -0.516528       -14.0554
  48   2.0000      -0.503959       -13.7134
  49   2.0000      -0.503652       -13.7051
  50   2.0000      -0.494469       -13.4552
  51   2.0000      -0.479402       -13.0452
  52   2.0000      -0.474675       -12.9166
  53   2.0000      -0.463552       -12.6139
  54   2.0000      -0.457560       -12.4508
  55   2.0000      -0.453425       -12.3383
  56   2.0000      -0.441084       -12.0025
  57   2.0000      -0.438443       -11.9307
  58   2.0000      -0.434784       -11.8311
  59   2.0000      -0.429217       -11.6796
  60   2.0000      -0.419694       -11.4205
  61   2.0000      -0.407661       -11.0930
  62   2.0000      -0.405945       -11.0463
  63   2.0000      -0.363550        -9.8927
  64   2.0000      -0.335945        -9.1415
  65   2.0000      -0.326864        -8.8944
  66   2.0000      -0.284132        -7.7316
  67   0.0000       0.017218         0.4685
  68   0.0000       0.081652         2.2219
  69   0.0000       0.093939         2.5562
  70   0.0000       0.115109         3.1323
  71   0.0000       0.124281         3.3818

MULLIKEN ATOMIC CHARGES
-----------------------
   0 S :    0.067473
   1 C :   -0.121558
   2 C :   -0.060367
   3 C :   -0.008044
   4 C :   -0.095714
   5 H :    0.015286
   6 C :    0.053619
   7 H :    0.043854
   8 H :    0.018582
   9 C :   -0.034677
  10 H :    0.030677
  11 H :    0.021398
  12 C :   -0.075433
  13 H :    0.035926
  14 H :    0.012861
  15 H :    0.024739
  16 S :    0.107814
  17 C :   -0.090420
  18 C :   -0.033959
  19 C :   -0.070645
  20 C :   -0.101879
  21 H :    0.022562
  22 C :    0.061458
  23 H :    0.025886
  24 H :    0.012716
  25 C :   -0.067944
  26 H :    0.020036
  27 H :    0.005192
  28 C :   -0.047013
  29 H :    0.035353
  30 H :    0.034701
  31 H :    0.040840
  32 H :    0.061112
  33 H :    0.055569
Sum of atomic charges:   -0.0000000

LOEWDIN ATOMIC CHARGES
----------------------
   0 S :    0.365332
   1 C :   -0.184309
   2 C :   -0.068359
   3 C :   -0.072089
   4 C :   -0.165616
   5 H :    0.036723
   6 C :   -0.026664
   7 H :    0.035718
   8 H :    0.028859
   9 C :   -0.027521
  10 H :    0.022085
  11 H :    0.015282
  12 C :   -0.075172
  13 H :    0.027182
  14 H :    0.015626
  15 H :    0.026641
  16 S :    0.432485
  17 C :   -0.190903
  18 C :   -0.060923
  19 C :   -0.059319
  20 C :   -0.198012
  21 H :    0.029169
  22 C :   -0.027361
  23 H :    0.035493
  24 H :    0.017166
  25 C :   -0.054371
  26 H :    0.027148
  27 H :    0.019863
  28 C :   -0.071209
  29 H :    0.025224
  30 H :    0.027872
  31 H :    0.035446
  32 H :    0.032008
  33 H :    0.026506

  Mayer bond orders larger than 0.100000
B(  0-S ,  1-C ) :   1.1191 B(  0-S ,  4-C ) :   1.1410 B(  1-C ,  2-C ) :   1.6197
B(  1-C , 32-H ) :   0.9657 B(  2-C ,  3-C ) :   1.2342 B(  2-C ,  6-C ) :   1.0307
B(  3-C ,  4-C ) :   1.5834 B(  3-C ,  5-H ) :   0.9819 B(  4-C , 20-C ) :   1.0624
B(  6-C ,  7-H ) :   0.9439 B(  6-C ,  8-H ) :   0.9436 B(  6-C ,  9-C ) :   1.0728
B(  9-C , 10-H ) :   0.9608 B(  9-C , 11-H ) :   0.9598 B(  9-C , 12-C ) :   1.0630
B( 12-C , 13-H ) :   0.9737 B( 12-C , 14-H ) :   0.9790 B( 12-C , 15-H ) :   0.9772
B( 16-S , 17-C ) :   1.1713 B( 16-S , 20-C ) :   1.1337 B( 17-C , 18-C ) :   1.6018
B( 17-C , 33-H ) :   0.9704 B( 18-C , 19-C ) :   1.2268 B( 18-C , 21-H ) :   0.9941
B( 19-C , 20-C ) :   1.6134 B( 19-C , 22-C ) :   1.0316 B( 22-C , 23-H ) :   0.9342
B( 22-C , 24-H ) :   0.9444 B( 22-C , 25-C ) :   1.0490 B( 25-C , 26-H ) :   0.9458
B( 25-C , 27-H ) :   0.9532 B( 25-C , 28-C ) :   1.0796 B( 28-C , 29-H ) :   0.9744
B( 28-C , 30-H ) :   0.9749 B( 28-C , 31-H ) :   0.9726

Dispersion correction           -0.014760223
FINAL SINGLE POINT ENERGY     -1339.863115646630

DIPOLE MOMENT
-------------
                                X             Y             Z
Electronic contribution:    -13.13246     -22.76936     -14.34864
Nuclear contribution   :     13.33302      23.43632      14.52320
                        -----------------------------------------
Total Dipole Moment    :      0.20056       0.66696       0.17456
                        -----------------------------------------
Magnitude (a.u.)       :      0.71801
Magnitude (Debye)      :      1.82503

Rotational constants in cm-1:     0.015914     0.010893     0.007185
Rotational constants in MHz :   477.079913   326.573631   215.408034

                             ****ORCA TERMINATED NORMALLY****
TOTAL RUN TIME: 0 days 0 hours 0 minutes 31 seconds 496 msec
