                         Program Version 4.2.1 -  RELEASE  -
|  1> ! wB97X-D3 SP def2-SVP
|  2> %pal
|  3> nprocs 16
|  4> end
|  5>
|  6> * xyz 0 1
|  7> S 	 -40.9072 	 24.0221 	 81.0928
|  8> C 	 -40.0114 	 25.539 	 81.2796
|  9> C 	 -39.231 	 25.7771 	 80.1568
| 10> C 	 -39.4153 	 24.7267 	 79.1687
| 11> C 	 -40.3203 	 23.6992 	 79.4593
| 12> H 	 -38.8233 	 24.6785 	 78.3042
| 13> C 	 -38.3554 	 26.9862 	 79.8769
| 14> H 	 -38.8188 	 27.5341 	 79.0334
| 15> H 	 -37.4172 	 26.7386 	 79.4187
| 16> C 	 -38.1586 	 28.0163 	 81.0006
| 17> H 	 -39.1281 	 28.4369 	 81.2439
| 18> H 	 -37.7472 	 27.5001 	 81.8596
| 19> C 	 -37.1808 	 29.1082 	 80.6565
| 20> H 	 -37.137 	 29.954 	 81.3021
| 21> H 	 -36.2238 	 28.6345 	 80.6141
| 22> H 	 -37.4581 	 29.4589 	 79.6832
| 23> S 	 -40.3084 	 20.7894 	 79.234
| 24> C 	 -40.2673 	 20.1237 	 77.6305
| 25> C 	 -40.516 	 21.1385 	 76.7061
| 26> C 	 -40.7308 	 22.4512 	 77.2729
| 27> C 	 -40.5945 	 22.4806 	 78.6251
| 28> H 	 -40.5041 	 20.8411 	 75.6505
| 29> C 	 -40.7674 	 23.6943 	 76.3166
| 30> H 	 -39.8314 	 23.8346 	 75.9113
| 31> H 	 -40.9759 	 24.4868 	 76.9586
| 32> C 	 -41.7054 	 23.6027 	 75.1256
| 33> H 	 -41.4269 	 22.8244 	 74.3868
| 34> H 	 -41.6488 	 24.6007 	 74.6505
| 35> C 	 -43.1847 	 23.3932 	 75.5233
| 36> H 	 -43.4816 	 23.9495 	 76.4542
| 37> H 	 -43.3689 	 22.3563 	 75.6519
| 38> H 	 -43.7233 	 23.7134 	 74.5973
| 39> H 	 -40.0633 	 26.0977 	 82.2214
| 40> H 	 -40.0612 	 19.0644 	 77.4043
| 41> *
| 42>
| 43>                          ****END OF INPUT****

CARTESIAN COORDINATES (ANGSTROEM)
---------------------------------
  S    -40.907200   24.022100   81.092800
  C    -40.011400   25.539000   81.279600
  C    -39.231000   25.777100   80.156800
  C    -39.415300   24.726700   79.168700
  C    -40.320300   23.699200   79.459300
  H    -38.823300   24.678500   78.304200
  C    -38.355400   26.986200   79.876900
  H    -38.818800   27.534100   79.033400
  H    -37.417200   26.738600   79.418700
  C    -38.158600   28.016300   81.000600
  H    -39.128100   28.436900   81.243900
  H    -37.747200   27.500100   81.859600
  C    -37.180800   29.108200   80.656500
  H    -37.137000   29.954000   81.302100
  H    -36.223800   28.634500   80.614100
  H    -37.458100   29.458900   79.683200
  S    -40.308400   20.789400   79.234000
  C    -40.267300   20.123700   77.630500
  C    -40.516000   21.138500   76.706100
  C    -40.730800   22.451200   77.272900
  C    -40.594500   22.480600   78.625100
  H    -40.504100   20.841100   75.650500
  C    -40.767400   23.694300   76.316600
  H    -39.831400   23.834600   75.911300
  H    -40.975900   24.486800   76.958600
  C    -41.705400   23.602700   75.125600
  H    -41.426900   22.824400   74.386800
  H    -41.648800   24.600700   74.650500
  C    -43.184700   23.393200   75.523300
  H    -43.481600   23.949500   76.454200
  H    -43.368900   22.356300   75.651900
  H    -43.723300   23.713400   74.597300
  H    -40.063300   26.097700   82.221400
  H    -40.061200   19.064400   77.404300

 Total Charge           Charge          ....    0
 Multiplicity           Mult            ....    1
 Number of Electrons    NEL             ....  134
 Basis Dimension        Dim             ....  322

ORBITAL ENERGIES
----------------

  NO   OCC          E(Eh)            E(eV)
   0   2.0000     -88.964579     -2420.8493
   1   2.0000     -88.963269     -2420.8136
   2   2.0000     -10.339130      -281.3420
   3   2.0000     -10.335607      -281.2462
   4   2.0000     -10.324814      -280.9525
   5   2.0000     -10.321310      -280.8571
   6   2.0000     -10.309497      -280.5357
   7   2.0000     -10.307017      -280.4682
   8   2.0000     -10.298104      -280.2257
   9   2.0000     -10.296205      -280.1740
  10   2.0000     -10.295317      -280.1498
  11   2.0000     -10.288537      -279.9653
  12   2.0000     -10.285205      -279.8747
  13   2.0000     -10.282257      -279.7944
  14   2.0000     -10.275620      -279.6138
  15   2.0000     -10.272785      -279.5367
  16   2.0000      -8.078710      -219.8329
  17   2.0000      -8.077472      -219.7992
  18   2.0000      -6.037423      -164.2866
  19   2.0000      -6.036116      -164.2511
  20   2.0000      -6.033302      -164.1745
  21   2.0000      -6.031928      -164.1371
  22   2.0000      -6.029256      -164.0644
  23   2.0000      -6.028233      -164.0366
  24   2.0000      -0.998465       -27.1696
  25   2.0000      -0.979576       -26.6556
  26   2.0000      -0.916489       -24.9389
  27   2.0000      -0.909031       -24.7360
  28   2.0000      -0.868939       -23.6450
  29   2.0000      -0.851162       -23.1613
  30   2.0000      -0.838119       -22.8064
  31   2.0000      -0.811349       -22.0779
  32   2.0000      -0.787195       -21.4207
  33   2.0000      -0.777418       -21.1546
  34   2.0000      -0.710781       -19.3413
  35   2.0000      -0.696087       -18.9415
  36   2.0000      -0.690273       -18.7833
  37   2.0000      -0.653508       -17.7829
  38   2.0000      -0.642077       -17.4718
  39   2.0000      -0.614680       -16.7263
  40   2.0000      -0.595694       -16.2096
  41   2.0000      -0.579697       -15.7744
  42   2.0000      -0.571785       -15.5591
  43   2.0000      -0.558301       -15.1921
  44   2.0000      -0.539157       -14.6712
  45   2.0000      -0.527019       -14.3409
  46   2.0000      -0.524927       -14.2840
  47   2.0000      -0.512437       -13.9441
  48   2.0000      -0.507239       -13.8027
  49   2.0000      -0.503858       -13.7107
  50   2.0000      -0.489581       -13.3222
  51   2.0000      -0.483136       -13.1468
  52   2.0000      -0.468190       -12.7401
  53   2.0000      -0.462917       -12.5966
  54   2.0000      -0.457722       -12.4552
  55   2.0000      -0.449968       -12.2442
  56   2.0000      -0.439828       -11.9683
  57   2.0000      -0.434059       -11.8113
  58   2.0000      -0.430510       -11.7148
  59   2.0000      -0.425657       -11.5827
  60   2.0000      -0.422630       -11.5004
  61   2.0000      -0.418252       -11.3812
  62   2.0000      -0.406511       -11.0617
  63   2.0000      -0.349284        -9.5045
  64   2.0000      -0.330503        -8.9934
  65   2.0000      -0.325117        -8.8469
  66   2.0000      -0.298004        -8.1091
  67   0.0000       0.029698         0.8081
  68   0.0000       0.067160         1.8275
  69   0.0000       0.118491         3.2243
  70   0.0000       0.119382         3.2485
  71   0.0000       0.125531         3.4159

MULLIKEN ATOMIC CHARGES
-----------------------
   0 S :    0.090207
   1 C :   -0.150498
   2 C :   -0.048297
   3 C :    0.023005
   4 C :   -0.150158
   5 H :   -0.005370
   6 C :    0.032817
   7 H :    0.033350
   8 H :    0.016811
   9 C :   -0.083499
  10 H :    0.029623
  11 H :    0.029107
  12 C :    0.001613
  13 H :    0.031802
  14 H :    0.025022
  15 H :    0.012316
  16 S :    0.092097
  17 C :   -0.108494
  18 C :   -0.054136
  19 C :   -0.059201
  20 C :   -0.118612
  21 H :    0.027616
  22 C :    0.131942
  23 H :    0.020551
  24 H :    0.014269
  25 C :   -0.110677
  26 H :    0.037328
  27 H :    0.033919
  28 C :   -0.058002
  29 H :    0.050401
  30 H :    0.030935
  31 H :    0.037833
  32 H :    0.068102
  33 H :    0.076276
Sum of atomic charges:    0.0000000

LOEWDIN ATOMIC CHARGES
----------------------
   0 S :    0.387214
   1 C :   -0.191579
   2 C :   -0.061179
   3 C :   -0.056469
   4 C :   -0.186785
   5 H :    0.019781
   6 C :   -0.035369
   7 H :    0.037930
   8 H :    0.026712
   9 C :   -0.040012
  10 H :    0.021495
  11 H :    0.021544
  12 C :   -0.052825
  13 H :    0.024623
  14 H :    0.024593
  15 H :    0.020184
  16 S :    0.378847
  17 C :   -0.184440
  18 C :   -0.081239
  19 C :   -0.049774
  20 C :   -0.182486
  21 H :    0.032175
  22 C :   -0.017563
  23 H :    0.022629
  24 H :    0.021354
  25 C :   -0.043603
  26 H :    0.025347
  27 H :    0.028650
  28 C :   -0.067997
  29 H :    0.033670
  30 H :    0.018881
  31 H :    0.031644
  32 H :    0.034250
  33 H :    0.039796

  Mayer bond orders larger than 0.100000
B(  0-S ,  1-C ) :   1.1377 B(  0-S ,  4-C ) :   1.1419 B(  1-C ,  2-C ) :   1.5997
B(  1-C , 32-H ) :   0.9647 B(  2-C ,  3-C ) :   1.2520 B(  2-C ,  6-C ) :   1.0160
B(  3-C ,  4-C ) :   1.5634 B(  3-C ,  5-H ) :   0.9998 B(  4-C , 20-C ) :   1.0303
B(  6-C ,  7-H ) :   0.9309 B(  6-C ,  8-H ) :   0.9409 B(  6-C ,  9-C ) :   1.0751
B(  9-C , 10-H ) :   0.9484 B(  9-C , 11-H ) :   0.9581 B(  9-C , 12-C ) :   1.0882
B( 12-C , 13-H ) :   0.9725 B( 12-C , 14-H ) :   0.9750 B( 12-C , 15-H ) :   0.9729
B( 16-S , 17-C ) :   1.1577 B( 16-S , 20-C ) :   1.1111 B( 17-C , 18-C ) :   1.6222
B( 17-C , 33-H ) :   0.9645 B( 18-C , 19-C ) :   1.2065 B( 18-C , 21-H ) :   0.9906
B( 19-C , 20-C ) :   1.6371 B( 19-C , 22-C ) :   1.0198 B( 22-C , 23-H ) :   0.9346
B( 22-C , 24-H ) :   0.9261 B( 22-C , 25-C ) :   1.0850 B( 25-C , 26-H ) :   0.9519
B( 25-C , 27-H ) :   0.9567 B( 25-C , 28-C ) :   1.0716 B( 28-C , 29-H ) :   0.9769
B( 28-C , 30-H ) :   0.9746 B( 28-C , 31-H ) :   0.9767

Dispersion correction           -0.013733257
FINAL SINGLE POINT ENERGY     -1339.874992978415

DIPOLE MOMENT
-------------
                                X             Y             Z
Electronic contribution:     -4.41449     -22.42976      13.15584
Nuclear contribution   :      4.88968      22.90136     -13.76383
                        -----------------------------------------
Total Dipole Moment    :      0.47519       0.47160      -0.60799
                        -----------------------------------------
Magnitude (a.u.)       :      0.90436
Magnitude (Debye)      :      2.29870

Rotational constants in cm-1:     0.020654     0.007090     0.006016
Rotational constants in MHz :   619.176925   212.551076   180.367290

                             ****ORCA TERMINATED NORMALLY****
TOTAL RUN TIME: 0 days 0 hours 0 minutes 28 seconds 964 msec
