                         Program Version 4.2.1 -  RELEASE  -
|  1> ! wB97X-D3 SP def2-SVP
|  2> %pal
|  3> nprocs 16
|  4> end
|  5>
|  6> * xyz 0 1
|  7> S 	 52.35 	 3.87034 	 93.3045
|  8> C 	 53.6107 	 4.98195 	 93.6492
|  9> C 	 53.2276 	 6.22372 	 93.1516
| 10> C 	 51.8454 	 6.30354 	 92.7411
| 11> C 	 51.1483 	 5.12405 	 92.8906
| 12> H 	 51.446 	 7.1673 	 92.3057
| 13> C 	 54.1608 	 7.40813 	 93.13
| 14> H 	 53.8832 	 7.87262 	 92.2116
| 15> H 	 55.1907 	 7.1607 	 92.9606
| 16> C 	 53.953 	 8.37058 	 94.2903
| 17> H 	 54.692 	 9.19975 	 94.1529
| 18> H 	 52.9044 	 8.78414 	 94.3332
| 19> C 	 54.3398 	 7.72508 	 95.6943
| 20> H 	 54.0349 	 8.50853 	 96.4543
| 21> H 	 53.7615 	 6.85031 	 96.0404
| 22> H 	 55.3991 	 7.53987 	 95.7598
| 23> S 	 49.5432 	 3.34072 	 91.5605
| 24> C 	 47.8185 	 3.29452 	 91.8818
| 25> C 	 47.4286 	 4.42502 	 92.6091
| 26> C 	 48.5105 	 5.21775 	 93.0168
| 27> C 	 49.7613 	 4.76696 	 92.6347
| 28> H 	 46.3709 	 4.57207 	 92.8457
| 29> C 	 48.3199 	 6.58893 	 93.6826
| 30> H 	 47.6671 	 7.11664 	 93.0426
| 31> H 	 49.174 	 7.23033 	 93.7736
| 32> C 	 47.7654 	 6.55656 	 95.1798
| 33> H 	 46.9021 	 5.93319 	 95.054
| 34> H 	 47.4569 	 7.61419 	 95.4098
| 35> C 	 48.6069 	 5.97084 	 96.3219
| 36> H 	 48.5905 	 4.88109 	 96.4035
| 37> H 	 48.1962 	 6.40118 	 97.2388
| 38> H 	 49.6318 	 6.29764 	 96.2322
| 39> H 	 54.5927 	 4.65653 	 93.8982
| 40> H 	 47.0987 	 2.57508 	 91.4653
| 41> *
| 42>
| 43>                          ****END OF INPUT****

CARTESIAN COORDINATES (ANGSTROEM)
---------------------------------
  S     52.350000    3.870340   93.304500
  C     53.610700    4.981950   93.649200
  C     53.227600    6.223720   93.151600
  C     51.845400    6.303540   92.741100
  C     51.148300    5.124050   92.890600
  H     51.446000    7.167300   92.305700
  C     54.160800    7.408130   93.130000
  H     53.883200    7.872620   92.211600
  H     55.190700    7.160700   92.960600
  C     53.953000    8.370580   94.290300
  H     54.692000    9.199750   94.152900
  H     52.904400    8.784140   94.333200
  C     54.339800    7.725080   95.694300
  H     54.034900    8.508530   96.454300
  H     53.761500    6.850310   96.040400
  H     55.399100    7.539870   95.759800
  S     49.543200    3.340720   91.560500
  C     47.818500    3.294520   91.881800
  C     47.428600    4.425020   92.609100
  C     48.510500    5.217750   93.016800
  C     49.761300    4.766960   92.634700
  H     46.370900    4.572070   92.845700
  C     48.319900    6.588930   93.682600
  H     47.667100    7.116640   93.042600
  H     49.174000    7.230330   93.773600
  C     47.765400    6.556560   95.179800
  H     46.902100    5.933190   95.054000
  H     47.456900    7.614190   95.409800
  C     48.606900    5.970840   96.321900
  H     48.590500    4.881090   96.403500
  H     48.196200    6.401180   97.238800
  H     49.631800    6.297640   96.232200
  H     54.592700    4.656530   93.898200
  H     47.098700    2.575080   91.465300

 Total Charge           Charge          ....    0
 Multiplicity           Mult            ....    1
 Number of Electrons    NEL             ....  134
 Basis Dimension        Dim             ....  322

ORBITAL ENERGIES
----------------

  NO   OCC          E(Eh)            E(eV)
   0   2.0000     -88.965023     -2420.8613
   1   2.0000     -88.959912     -2420.7223
   2   2.0000     -10.335049      -281.2310
   3   2.0000     -10.331233      -281.1272
   4   2.0000     -10.323631      -280.9203
   5   2.0000     -10.311246      -280.5833
   6   2.0000     -10.306147      -280.4445
   7   2.0000     -10.300613      -280.2939
   8   2.0000     -10.298080      -280.2250
   9   2.0000     -10.297332      -280.2046
  10   2.0000     -10.294575      -280.1296
  11   2.0000     -10.288538      -279.9654
  12   2.0000     -10.287736      -279.9435
  13   2.0000     -10.284908      -279.8666
  14   2.0000     -10.282234      -279.7938
  15   2.0000     -10.274117      -279.5729
  16   2.0000      -8.079014      -219.8412
  17   2.0000      -8.075061      -219.7336
  18   2.0000      -6.037525      -164.2894
  19   2.0000      -6.033661      -164.1843
  20   2.0000      -6.033602      -164.1827
  21   2.0000      -6.029821      -164.0798
  22   2.0000      -6.029434      -164.0692
  23   2.0000      -6.025724      -163.9683
  24   2.0000      -1.004650       -27.3379
  25   2.0000      -0.983656       -26.7666
  26   2.0000      -0.909017       -24.7356
  27   2.0000      -0.898735       -24.4558
  28   2.0000      -0.868822       -23.6418
  29   2.0000      -0.847845       -23.0710
  30   2.0000      -0.839833       -22.8530
  31   2.0000      -0.814287       -22.1579
  32   2.0000      -0.784130       -21.3373
  33   2.0000      -0.772998       -21.0343
  34   2.0000      -0.708044       -19.2669
  35   2.0000      -0.692459       -18.8428
  36   2.0000      -0.689637       -18.7660
  37   2.0000      -0.659267       -17.9396
  38   2.0000      -0.647172       -17.6104
  39   2.0000      -0.625324       -17.0159
  40   2.0000      -0.598859       -16.2958
  41   2.0000      -0.568547       -15.4710
  42   2.0000      -0.546953       -14.8833
  43   2.0000      -0.546472       -14.8703
  44   2.0000      -0.542260       -14.7556
  45   2.0000      -0.535522       -14.5723
  46   2.0000      -0.519284       -14.1304
  47   2.0000      -0.511884       -13.9291
  48   2.0000      -0.508028       -13.8241
  49   2.0000      -0.495614       -13.4863
  50   2.0000      -0.487571       -13.2675
  51   2.0000      -0.478295       -13.0151
  52   2.0000      -0.471505       -12.8303
  53   2.0000      -0.467038       -12.7088
  54   2.0000      -0.459619       -12.5069
  55   2.0000      -0.447218       -12.1694
  56   2.0000      -0.440299       -11.9811
  57   2.0000      -0.437795       -11.9130
  58   2.0000      -0.434708       -11.8290
  59   2.0000      -0.422194       -11.4885
  60   2.0000      -0.418438       -11.3863
  61   2.0000      -0.403056       -10.9677
  62   2.0000      -0.401472       -10.9246
  63   2.0000      -0.349547        -9.5117
  64   2.0000      -0.332317        -9.0428
  65   2.0000      -0.323453        -8.8016
  66   2.0000      -0.290439        -7.9032
  67   0.0000       0.023952         0.6518
  68   0.0000       0.064125         1.7449
  69   0.0000       0.104571         2.8455
  70   0.0000       0.122010         3.3201
  71   0.0000       0.129969         3.5366

MULLIKEN ATOMIC CHARGES
-----------------------
   0 S :    0.097002
   1 C :   -0.095547
   2 C :   -0.131129
   3 C :    0.059410
   4 C :   -0.125378
   5 H :   -0.005289
   6 C :    0.103748
   7 H :    0.010197
   8 H :    0.015892
   9 C :   -0.087328
  10 H :    0.039267
  11 H :    0.042591
  12 C :   -0.091108
  13 H :    0.036836
  14 H :    0.052119
  15 H :    0.033820
  16 S :    0.092520
  17 C :   -0.098923
  18 C :   -0.055744
  19 C :    0.003862
  20 C :   -0.169951
  21 H :    0.031602
  22 C :    0.072784
  23 H :    0.023152
  24 H :    0.011018
  25 C :   -0.112585
  26 H :    0.016634
  27 H :    0.035957
  28 C :   -0.028268
  29 H :    0.045468
  30 H :    0.033248
  31 H :    0.029021
  32 H :    0.045447
  33 H :    0.069655
Sum of atomic charges:    0.0000000

LOEWDIN ATOMIC CHARGES
----------------------
   0 S :    0.403690
   1 C :   -0.199554
   2 C :   -0.061196
   3 C :   -0.056168
   4 C :   -0.181568
   5 H :    0.022390
   6 C :   -0.038389
   7 H :    0.028325
   8 H :    0.027078
   9 C :   -0.039066
  10 H :    0.029302
  11 H :    0.029241
  12 C :   -0.076146
  13 H :    0.032549
  14 H :    0.027719
  15 H :    0.020278
  16 S :    0.385989
  17 C :   -0.182429
  18 C :   -0.077819
  19 C :   -0.056314
  20 C :   -0.181782
  21 H :    0.036310
  22 C :   -0.025333
  23 H :    0.027889
  24 H :    0.021766
  25 C :   -0.040939
  26 H :    0.015029
  27 H :    0.027581
  28 C :   -0.064222
  29 H :    0.029978
  30 H :    0.030846
  31 H :    0.023770
  32 H :    0.024839
  33 H :    0.036355

  Mayer bond orders larger than 0.100000
B(  0-S ,  1-C ) :   1.1487 B(  0-S ,  4-C ) :   1.1495 B(  1-C ,  2-C ) :   1.5745
B(  1-C ,  4-C ) :   0.1009 B(  1-C , 32-H ) :   0.9785 B(  2-C ,  3-C ) :   1.2498
B(  2-C ,  6-C ) :   1.0262 B(  3-C ,  4-C ) :   1.5467 B(  3-C ,  5-H ) :   1.0056
B(  4-C , 20-C ) :   1.0520 B(  6-C ,  7-H ) :   0.9282 B(  6-C ,  8-H ) :   0.9434
B(  6-C ,  9-C ) :   1.0759 B(  9-C , 10-H ) :   0.9548 B(  9-C , 11-H ) :   0.9576
B(  9-C , 12-C ) :   1.0658 B( 12-C , 13-H ) :   0.9757 B( 12-C , 14-H ) :   0.9755
B( 12-C , 15-H ) :   0.9776 B( 16-S , 17-C ) :   1.1614 B( 16-S , 20-C ) :   1.1309
B( 17-C , 18-C ) :   1.5909 B( 17-C , 20-C ) :   0.1091 B( 17-C , 33-H ) :   0.9644
B( 18-C , 19-C ) :   1.2511 B( 18-C , 21-H ) :   0.9863 B( 19-C , 20-C ) :   1.5910
B( 19-C , 22-C ) :   1.0255 B( 22-C , 23-H ) :   0.9381 B( 22-C , 24-H ) :   0.9458
B( 22-C , 25-C ) :   1.0627 B( 25-C , 26-H ) :   0.9620 B( 25-C , 27-H ) :   0.9602
B( 25-C , 28-C ) :   1.0707 B( 28-C , 29-H ) :   0.9758 B( 28-C , 30-H ) :   0.9731
B( 28-C , 31-H ) :   0.9764

Dispersion correction           -0.014571062
FINAL SINGLE POINT ENERGY     -1339.871173592652

DIPOLE MOMENT
-------------
                                X             Y             Z
Electronic contribution:     -2.26148     -21.44207     -17.50682
Nuclear contribution   :      2.18426      22.05778      17.58303
                        -----------------------------------------
Total Dipole Moment    :     -0.07722       0.61572       0.07621
                        -----------------------------------------
Magnitude (a.u.)       :      0.62520
Magnitude (Debye)      :      1.58913

Rotational constants in cm-1:     0.019654     0.009068     0.007081
Rotational constants in MHz :   589.197511   271.864701   212.286882

                             ****ORCA TERMINATED NORMALLY****
TOTAL RUN TIME: 0 days 0 hours 0 minutes 32 seconds 635 msec
