                         Program Version 4.2.1 -  RELEASE  -
|  1> ! wB97X-D3 SP def2-SVP
|  2> %pal
|  3> nprocs 16
|  4> end
|  5>
|  6> * xyz 0 1
|  7> S 	 -16.7305 	 40.8874 	 34.9994
|  8> C 	 -15.2525 	 40.1527 	 35.6598
|  9> C 	 -14.4355 	 39.7912 	 34.6645
| 10> C 	 -14.8109 	 40.3291 	 33.4261
| 11> C 	 -16.0362 	 41.0047 	 33.4409
| 12> H 	 -14.2121 	 40.302 	 32.4709
| 13> C 	 -13.1333 	 38.9594 	 34.9404
| 14> H 	 -12.7362 	 39.0636 	 35.9669
| 15> H 	 -12.275 	 39.3446 	 34.4304
| 16> C 	 -13.273 	 37.4816 	 34.4873
| 17> H 	 -13.4668 	 37.5584 	 33.3554
| 18> H 	 -12.3396 	 36.9804 	 34.6335
| 19> C 	 -14.3693 	 36.5836 	 35.2292
| 20> H 	 -14.2219 	 35.5161 	 34.8839
| 21> H 	 -14.2348 	 36.7483 	 36.312
| 22> H 	 -15.3614 	 36.9012 	 35.028
| 23> S 	 -18.0255 	 40.7249 	 31.5698
| 24> C 	 -18.3606 	 42.0462 	 30.4458
| 25> C 	 -17.5456 	 43.0953 	 30.6966
| 26> C 	 -16.6079 	 42.9012 	 31.759
| 27> C 	 -16.7128 	 41.6511 	 32.3407
| 28> H 	 -17.7323 	 43.976 	 30.0333
| 29> C 	 -15.586 	 43.9318 	 32.1003
| 30> H 	 -15.5114 	 43.8174 	 33.1658
| 31> H 	 -16.0675 	 44.8711 	 31.8877
| 32> C 	 -14.1776 	 43.6962 	 31.5193
| 33> H 	 -14.0947 	 43.888 	 30.4609
| 34> H 	 -13.9571 	 42.6566 	 31.6471
| 35> C 	 -13.1001 	 44.553 	 32.2341
| 36> H 	 -13.3769 	 45.6444 	 32.3365
| 37> H 	 -12.1206 	 44.4435 	 31.761
| 38> H 	 -12.8673 	 44.2445 	 33.2524
| 39> H 	 -15.0169 	 39.9618 	 36.6958
| 40> H 	 -19.2433 	 42.1799 	 29.8406
| 41> *
| 42>
| 43>                          ****END OF INPUT****

CARTESIAN COORDINATES (ANGSTROEM)
---------------------------------
  S    -16.730500   40.887400   34.999400
  C    -15.252500   40.152700   35.659800
  C    -14.435500   39.791200   34.664500
  C    -14.810900   40.329100   33.426100
  C    -16.036200   41.004700   33.440900
  H    -14.212100   40.302000   32.470900
  C    -13.133300   38.959400   34.940400
  H    -12.736200   39.063600   35.966900
  H    -12.275000   39.344600   34.430400
  C    -13.273000   37.481600   34.487300
  H    -13.466800   37.558400   33.355400
  H    -12.339600   36.980400   34.633500
  C    -14.369300   36.583600   35.229200
  H    -14.221900   35.516100   34.883900
  H    -14.234800   36.748300   36.312000
  H    -15.361400   36.901200   35.028000
  S    -18.025500   40.724900   31.569800
  C    -18.360600   42.046200   30.445800
  C    -17.545600   43.095300   30.696600
  C    -16.607900   42.901200   31.759000
  C    -16.712800   41.651100   32.340700
  H    -17.732300   43.976000   30.033300
  C    -15.586000   43.931800   32.100300
  H    -15.511400   43.817400   33.165800
  H    -16.067500   44.871100   31.887700
  C    -14.177600   43.696200   31.519300
  H    -14.094700   43.888000   30.460900
  H    -13.957100   42.656600   31.647100
  C    -13.100100   44.553000   32.234100
  H    -13.376900   45.644400   32.336500
  H    -12.120600   44.443500   31.761000
  H    -12.867300   44.244500   33.252400
  H    -15.016900   39.961800   36.695800
  H    -19.243300   42.179900   29.840600

 Total Charge           Charge          ....    0
 Multiplicity           Mult            ....    1
 Number of Electrons    NEL             ....  134
 Basis Dimension        Dim             ....  322

ORBITAL ENERGIES
----------------

  NO   OCC          E(Eh)            E(eV)
   0   2.0000     -88.967467     -2420.9279
   1   2.0000     -88.960931     -2420.7500
   2   2.0000     -10.328718      -281.0587
   3   2.0000     -10.326122      -280.9881
   4   2.0000     -10.313132      -280.6346
   5   2.0000     -10.312910      -280.6285
   6   2.0000     -10.302030      -280.3325
   7   2.0000     -10.300445      -280.2894
   8   2.0000     -10.299904      -280.2746
   9   2.0000     -10.297903      -280.2202
  10   2.0000     -10.295158      -280.1455
  11   2.0000     -10.291925      -280.0575
  12   2.0000     -10.285911      -279.8939
  13   2.0000     -10.284482      -279.8550
  14   2.0000     -10.282445      -279.7996
  15   2.0000     -10.280327      -279.7419
  16   2.0000      -8.082502      -219.9361
  17   2.0000      -8.075213      -219.7377
  18   2.0000      -6.040976      -164.3833
  19   2.0000      -6.036950      -164.2738
  20   2.0000      -6.033806      -164.1882
  21   2.0000      -6.033257      -164.1733
  22   2.0000      -6.029771      -164.0784
  23   2.0000      -6.025907      -163.9733
  24   2.0000      -1.011294       -27.5187
  25   2.0000      -0.986558       -26.8456
  26   2.0000      -0.907749       -24.7011
  27   2.0000      -0.904911       -24.6239
  28   2.0000      -0.869584       -23.6626
  29   2.0000      -0.846389       -23.0314
  30   2.0000      -0.841551       -22.8998
  31   2.0000      -0.814992       -22.1771
  32   2.0000      -0.785908       -21.3856
  33   2.0000      -0.771949       -21.0058
  34   2.0000      -0.714441       -19.4409
  35   2.0000      -0.700975       -19.0745
  36   2.0000      -0.689478       -18.7616
  37   2.0000      -0.657377       -17.8881
  38   2.0000      -0.642441       -17.4817
  39   2.0000      -0.617235       -16.7958
  40   2.0000      -0.589471       -16.0403
  41   2.0000      -0.572059       -15.5665
  42   2.0000      -0.562126       -15.2962
  43   2.0000      -0.546817       -14.8796
  44   2.0000      -0.537658       -14.6304
  45   2.0000      -0.521461       -14.1897
  46   2.0000      -0.517992       -14.0953
  47   2.0000      -0.511298       -13.9131
  48   2.0000      -0.506907       -13.7936
  49   2.0000      -0.499253       -13.5854
  50   2.0000      -0.483273       -13.1505
  51   2.0000      -0.481200       -13.0941
  52   2.0000      -0.471854       -12.8398
  53   2.0000      -0.462918       -12.5966
  54   2.0000      -0.458935       -12.4882
  55   2.0000      -0.444883       -12.1059
  56   2.0000      -0.439687       -11.9645
  57   2.0000      -0.435398       -11.8478
  58   2.0000      -0.433939       -11.8081
  59   2.0000      -0.423150       -11.5145
  60   2.0000      -0.421144       -11.4599
  61   2.0000      -0.416630       -11.3371
  62   2.0000      -0.412608       -11.2276
  63   2.0000      -0.338396        -9.2082
  64   2.0000      -0.333196        -9.0667
  65   2.0000      -0.322303        -8.7703
  66   2.0000      -0.311498        -8.4763
  67   0.0000       0.041126         1.1191
  68   0.0000       0.051706         1.4070
  69   0.0000       0.119004         3.2383
  70   0.0000       0.123752         3.3675
  71   0.0000       0.127407         3.4669

MULLIKEN ATOMIC CHARGES
-----------------------
   0 S :    0.125881
   1 C :   -0.129745
   2 C :   -0.045089
   3 C :    0.025342
   4 C :   -0.187203
   5 H :    0.039384
   6 C :    0.060805
   7 H :    0.019808
   8 H :    0.016977
   9 C :   -0.108289
  10 H :    0.042720
  11 H :    0.030384
  12 C :   -0.059229
  13 H :    0.053305
  14 H :    0.031107
  15 H :    0.037901
  16 S :    0.093322
  17 C :   -0.083105
  18 C :   -0.069486
  19 C :   -0.026424
  20 C :   -0.193496
  21 H :    0.033183
  22 C :    0.113464
  23 H :    0.018464
  24 H :    0.016285
  25 C :   -0.018077
  26 H :    0.027660
  27 H :    0.010120
  28 C :   -0.075209
  29 H :    0.040639
  30 H :    0.031493
  31 H :    0.027105
  32 H :    0.043423
  33 H :    0.056577
Sum of atomic charges:   -0.0000000

LOEWDIN ATOMIC CHARGES
----------------------
   0 S :    0.417608
   1 C :   -0.181259
   2 C :   -0.068396
   3 C :   -0.065264
   4 C :   -0.216596
   5 H :    0.040298
   6 C :   -0.031966
   7 H :    0.028507
   8 H :    0.026871
   9 C :   -0.042045
  10 H :    0.030839
  11 H :    0.018710
  12 C :   -0.068057
  13 H :    0.036358
  14 H :    0.026086
  15 H :    0.019119
  16 S :    0.380752
  17 C :   -0.180665
  18 C :   -0.082118
  19 C :   -0.051191
  20 C :   -0.195872
  21 H :    0.041059
  22 C :   -0.028033
  23 H :    0.033014
  24 H :    0.028301
  25 C :   -0.029519
  26 H :    0.023384
  27 H :    0.021473
  28 C :   -0.073503
  29 H :    0.030855
  30 H :    0.026106
  31 H :    0.022934
  32 H :    0.029872
  33 H :    0.032340

  Mayer bond orders larger than 0.100000
B(  0-S ,  1-C ) :   1.1339 B(  0-S ,  4-C ) :   1.1652 B(  1-C ,  2-C ) :   1.6231
B(  1-C ,  4-C ) :   0.1023 B(  1-C , 32-H ) :   0.9708 B(  2-C ,  3-C ) :   1.2484
B(  2-C ,  6-C ) :   1.0052 B(  3-C ,  4-C ) :   1.5692 B(  3-C ,  5-H ) :   0.9819
B(  4-C , 20-C ) :   1.0267 B(  6-C ,  7-H ) :   0.9473 B(  6-C ,  8-H ) :   0.9427
B(  6-C ,  9-C ) :   1.0714 B(  9-C , 10-H ) :   0.9588 B(  9-C , 11-H ) :   0.9595
B(  9-C , 12-C ) :   1.0589 B( 12-C , 13-H ) :   0.9769 B( 12-C , 14-H ) :   0.9761
B( 12-C , 15-H ) :   0.9783 B( 16-S , 17-C ) :   1.1369 B( 16-S , 20-C ) :   1.1339
B( 17-C , 18-C ) :   1.6627 B( 17-C , 33-H ) :   0.9598 B( 18-C , 19-C ) :   1.2125
B( 18-C , 21-H ) :   0.9813 B( 19-C , 20-C ) :   1.6158 B( 19-C , 22-C ) :   1.0493
B( 22-C , 23-H ) :   0.9204 B( 22-C , 24-H ) :   0.9264 B( 22-C , 25-C ) :   1.0652
B( 25-C , 26-H ) :   0.9557 B( 25-C , 27-H ) :   0.9510 B( 25-C , 28-C ) :   1.0810
B( 28-C , 29-H ) :   0.9760 B( 28-C , 30-H ) :   0.9744 B( 28-C , 31-H ) :   0.9749

Dispersion correction           -0.014747261
FINAL SINGLE POINT ENERGY     -1339.876178238313

DIPOLE MOMENT
-------------
                                X             Y             Z
Electronic contribution:    -22.29846       0.99151      -1.63305
Nuclear contribution   :     22.84810      -0.82566       1.61797
                        -----------------------------------------
Total Dipole Moment    :      0.54964       0.16585      -0.01508
                        -----------------------------------------
Magnitude (a.u.)       :      0.57432
Magnitude (Debye)      :      1.45980

Rotational constants in cm-1:     0.018807     0.008723     0.007080
Rotational constants in MHz :   563.831704   261.495551   212.254888

                             ****ORCA TERMINATED NORMALLY****
TOTAL RUN TIME: 0 days 0 hours 0 minutes 34 seconds 338 msec
