                         Program Version 4.2.1 -  RELEASE  -
|  1> ! wB97X-D3 SP def2-SVP
|  2> %pal
|  3> nprocs 16
|  4> end
|  5>
|  6> * xyz 0 1
|  7> S 	 17.4165 	 10.7605 	 88.8977
|  8> C 	 17.6613 	 10.4869 	 87.1356
|  9> C 	 16.761 	 11.257 	 86.3584
| 10> C 	 16.064 	 12.1348 	 87.2177
| 11> C 	 16.2277 	 11.9654 	 88.5975
| 12> H 	 15.2906 	 12.8662 	 86.8468
| 13> C 	 16.5476 	 11.1572 	 84.8295
| 14> H 	 15.9911 	 12.052 	 84.4283
| 15> H 	 15.9638 	 10.3424 	 84.6058
| 16> C 	 17.8049 	 10.9895 	 84.0495
| 17> H 	 18.5547 	 10.2487 	 84.383
| 18> H 	 17.5072 	 10.7015 	 83.0643
| 19> C 	 18.6053 	 12.2953 	 84.149
| 20> H 	 19.5831 	 12.1407 	 83.6642
| 21> H 	 18.0807 	 13.1055 	 83.647
| 22> H 	 18.8384 	 12.6307 	 85.1462
| 23> S 	 15.431 	 14.2774 	 89.8125
| 24> C 	 14.4755 	 14.1572 	 91.2948
| 25> C 	 14.4348 	 12.8861 	 91.7769
| 26> C 	 14.9521 	 11.9614 	 90.849
| 27> C 	 15.5148 	 12.5638 	 89.7253
| 28> H 	 13.9962 	 12.6843 	 92.7268
| 29> C 	 14.9754 	 10.3984 	 91.1699
| 30> H 	 15.701 	 10.1822 	 91.9302
| 31> H 	 15.3931 	 9.90326 	 90.2906
| 32> C 	 13.6264 	 9.83078 	 91.5122
| 33> H 	 13.3511 	 10.3571 	 92.4181
| 34> H 	 13.6971 	 8.7415 	 91.6493
| 35> C 	 12.7164 	 10.075 	 90.2699
| 36> H 	 11.6816 	 9.69754 	 90.4477
| 37> H 	 13.1124 	 9.56304 	 89.3851
| 38> H 	 12.5485 	 11.0889 	 90.0286
| 39> H 	 18.4281 	 9.81635 	 86.7542
| 40> H 	 14.3218 	 15.0569 	 91.905
| 41> *
| 42>
| 43>                          ****END OF INPUT****

CARTESIAN COORDINATES (ANGSTROEM)
---------------------------------
  S     17.416500   10.760500   88.897700
  C     17.661300   10.486900   87.135600
  C     16.761000   11.257000   86.358400
  C     16.064000   12.134800   87.217700
  C     16.227700   11.965400   88.597500
  H     15.290600   12.866200   86.846800
  C     16.547600   11.157200   84.829500
  H     15.991100   12.052000   84.428300
  H     15.963800   10.342400   84.605800
  C     17.804900   10.989500   84.049500
  H     18.554700   10.248700   84.383000
  H     17.507200   10.701500   83.064300
  C     18.605300   12.295300   84.149000
  H     19.583100   12.140700   83.664200
  H     18.080700   13.105500   83.647000
  H     18.838400   12.630700   85.146200
  S     15.431000   14.277400   89.812500
  C     14.475500   14.157200   91.294800
  C     14.434800   12.886100   91.776900
  C     14.952100   11.961400   90.849000
  C     15.514800   12.563800   89.725300
  H     13.996200   12.684300   92.726800
  C     14.975400   10.398400   91.169900
  H     15.701000   10.182200   91.930200
  H     15.393100    9.903260   90.290600
  C     13.626400    9.830780   91.512200
  H     13.351100   10.357100   92.418100
  H     13.697100    8.741500   91.649300
  C     12.716400   10.075000   90.269900
  H     11.681600    9.697540   90.447700
  H     13.112400    9.563040   89.385100
  H     12.548500   11.088900   90.028600
  H     18.428100    9.816350   86.754200
  H     14.321800   15.056900   91.905000

 Total Charge           Charge          ....    0
 Multiplicity           Mult            ....    1
 Number of Electrons    NEL             ....  134
 Basis Dimension        Dim             ....  322

ORBITAL ENERGIES
----------------

  NO   OCC          E(Eh)            E(eV)
   0   2.0000     -88.969284     -2420.9773
   1   2.0000     -88.965754     -2420.8812
   2   2.0000     -10.329380      -281.0767
   3   2.0000     -10.326406      -280.9958
   4   2.0000     -10.320909      -280.8462
   5   2.0000     -10.315701      -280.7045
   6   2.0000     -10.308676      -280.5133
   7   2.0000     -10.303796      -280.3805
   8   2.0000     -10.297512      -280.2096
   9   2.0000     -10.293041      -280.0879
  10   2.0000     -10.291465      -280.0450
  11   2.0000     -10.285519      -279.8832
  12   2.0000     -10.284532      -279.8563
  13   2.0000     -10.284450      -279.8541
  14   2.0000     -10.271633      -279.5053
  15   2.0000     -10.270368      -279.4709
  16   2.0000      -8.083103      -219.9524
  17   2.0000      -8.080903      -219.8926
  18   2.0000      -6.041492      -164.3973
  19   2.0000      -6.039268      -164.3368
  20   2.0000      -6.037641      -164.2926
  21   2.0000      -6.035453      -164.2330
  22   2.0000      -6.034119      -164.1967
  23   2.0000      -6.031693      -164.1307
  24   2.0000      -1.008448       -27.4413
  25   2.0000      -0.983433       -26.7606
  26   2.0000      -0.921098       -25.0644
  27   2.0000      -0.907076       -24.6828
  28   2.0000      -0.869173       -23.6514
  29   2.0000      -0.848790       -23.0967
  30   2.0000      -0.835448       -22.7337
  31   2.0000      -0.807567       -21.9750
  32   2.0000      -0.785832       -21.3836
  33   2.0000      -0.773342       -21.0437
  34   2.0000      -0.706078       -19.2133
  35   2.0000      -0.699584       -19.0367
  36   2.0000      -0.690542       -18.7906
  37   2.0000      -0.660608       -17.9761
  38   2.0000      -0.634776       -17.2731
  39   2.0000      -0.613576       -16.6962
  40   2.0000      -0.597924       -16.2703
  41   2.0000      -0.580211       -15.7883
  42   2.0000      -0.561714       -15.2850
  43   2.0000      -0.551662       -15.0115
  44   2.0000      -0.545113       -14.8333
  45   2.0000      -0.536067       -14.5871
  46   2.0000      -0.514510       -14.0005
  47   2.0000      -0.511020       -13.9055
  48   2.0000      -0.502686       -13.6788
  49   2.0000      -0.488962       -13.3053
  50   2.0000      -0.486519       -13.2389
  51   2.0000      -0.471905       -12.8412
  52   2.0000      -0.469221       -12.7682
  53   2.0000      -0.462406       -12.5827
  54   2.0000      -0.452520       -12.3137
  55   2.0000      -0.449176       -12.2227
  56   2.0000      -0.443160       -12.0590
  57   2.0000      -0.437722       -11.9110
  58   2.0000      -0.432715       -11.7748
  59   2.0000      -0.424030       -11.5384
  60   2.0000      -0.420467       -11.4415
  61   2.0000      -0.415291       -11.3006
  62   2.0000      -0.411438       -11.1958
  63   2.0000      -0.348773        -9.4906
  64   2.0000      -0.334374        -9.0988
  65   2.0000      -0.331147        -9.0110
  66   2.0000      -0.288514        -7.8509
  67   0.0000       0.028236         0.7683
  68   0.0000       0.069629         1.8947
  69   0.0000       0.110289         3.0011
  70   0.0000       0.115548         3.1442
  71   0.0000       0.130016         3.5379

MULLIKEN ATOMIC CHARGES
-----------------------
   0 S :    0.113013
   1 C :   -0.150421
   2 C :   -0.090524
   3 C :    0.009748
   4 C :   -0.162430
   5 H :    0.025085
   6 C :    0.116309
   7 H :    0.031740
   8 H :    0.021587
   9 C :   -0.083324
  10 H :    0.032138
  11 H :    0.021942
  12 C :   -0.059306
  13 H :    0.028483
  14 H :    0.023195
  15 H :    0.042715
  16 S :    0.111039
  17 C :   -0.102932
  18 C :   -0.027435
  19 C :   -0.063146
  20 C :   -0.139782
  21 H :    0.017600
  22 C :    0.065259
  23 H :    0.031940
  24 H :    0.014477
  25 C :   -0.054411
  26 H :    0.027172
  27 H :    0.039486
  28 C :   -0.056995
  29 H :    0.027231
  30 H :    0.034563
  31 H :    0.035828
  32 H :    0.054377
  33 H :    0.065777
Sum of atomic charges:   -0.0000000

LOEWDIN ATOMIC CHARGES
----------------------
   0 S :    0.427441
   1 C :   -0.191888
   2 C :   -0.055379
   3 C :   -0.076377
   4 C :   -0.205844
   5 H :    0.036484
   6 C :   -0.022044
   7 H :    0.039086
   8 H :    0.022954
   9 C :   -0.041882
  10 H :    0.027110
  11 H :    0.022308
  12 C :   -0.063692
  13 H :    0.024929
  14 H :    0.020537
  15 H :    0.025791
  16 S :    0.416611
  17 C :   -0.183055
  18 C :   -0.065569
  19 C :   -0.058122
  20 C :   -0.210683
  21 H :    0.030902
  22 C :   -0.034953
  23 H :    0.025037
  24 H :    0.012391
  25 C :   -0.038644
  26 H :    0.019886
  27 H :    0.030622
  28 C :   -0.063152
  29 H :    0.025364
  30 H :    0.028923
  31 H :    0.019818
  32 H :    0.024329
  33 H :    0.030761

  Mayer bond orders larger than 0.100000
B(  0-S ,  1-C ) :   1.1510 B(  0-S ,  4-C ) :   1.1689 B(  1-C ,  2-C ) :   1.5638
B(  1-C ,  4-C ) :   0.1100 B(  1-C , 32-H ) :   0.9704 B(  2-C ,  3-C ) :   1.2885
B(  2-C ,  6-C ) :   1.0006 B(  3-C ,  4-C ) :   1.5474 B(  3-C ,  5-H ) :   0.9805
B(  4-C , 20-C ) :   1.0187 B(  6-C ,  7-H ) :   0.9457 B(  6-C ,  8-H ) :   0.9296
B(  6-C ,  9-C ) :   1.0850 B(  9-C , 10-H ) :   0.9553 B(  9-C , 11-H ) :   0.9521
B(  9-C , 12-C ) :   1.0705 B( 12-C , 13-H ) :   0.9760 B( 12-C , 14-H ) :   0.9755
B( 12-C , 15-H ) :   0.9754 B( 16-S , 17-C ) :   1.1509 B( 16-S , 20-C ) :   1.1652
B( 17-C , 18-C ) :   1.6123 B( 17-C , 33-H ) :   0.9613 B( 18-C , 19-C ) :   1.2464
B( 18-C , 21-H ) :   0.9932 B( 19-C , 20-C ) :   1.5838 B( 19-C , 22-C ) :   1.0114
B( 22-C , 23-H ) :   0.9431 B( 22-C , 24-H ) :   0.9281 B( 22-C , 25-C ) :   1.0767
B( 25-C , 26-H ) :   0.9563 B( 25-C , 27-H ) :   0.9538 B( 25-C , 28-C ) :   1.0716
B( 28-C , 29-H ) :   0.9750 B( 28-C , 30-H ) :   0.9748 B( 28-C , 31-H ) :   0.9742

Dispersion correction           -0.014818743
FINAL SINGLE POINT ENERGY     -1339.876690072811

DIPOLE MOMENT
-------------
                                X             Y             Z
Electronic contribution:      4.00837      10.19355      11.94188
Nuclear contribution   :     -4.10551     -10.45216     -12.10673
                        -----------------------------------------
Total Dipole Moment    :     -0.09714      -0.25861      -0.16485
                        -----------------------------------------
Magnitude (a.u.)       :      0.32170
Magnitude (Debye)      :      0.81771

Rotational constants in cm-1:     0.024005     0.007777     0.006784
Rotational constants in MHz :   719.648944   233.151888   203.377538

                             ****ORCA TERMINATED NORMALLY****
TOTAL RUN TIME: 0 days 0 hours 0 minutes 35 seconds 769 msec
