                         Program Version 4.2.1 -  RELEASE  -
|  1> ! wB97X-D3 SP def2-SVP
|  2> %pal
|  3> nprocs 16
|  4> end
|  5>
|  6> * xyz 0 1
|  7> S 	 53.5137 	 24.2347 	 42.329
|  8> C 	 54.3459 	 25.1097 	 41.0103
|  9> C 	 53.5052 	 26.0836 	 40.416
| 10> C 	 52.245 	 26.1323 	 41.068
| 11> C 	 52.0836 	 25.207 	 42.0639
| 12> H 	 51.4536 	 26.7894 	 40.9144
| 13> C 	 53.8535 	 26.9681 	 39.2585
| 14> H 	 54.7792 	 26.5927 	 38.8084
| 15> H 	 54.1519 	 27.9638 	 39.664
| 16> C 	 52.6974 	 27.0819 	 38.226
| 17> H 	 52.4951 	 26.0281 	 38.1291
| 18> H 	 51.9051 	 27.6692 	 38.6943
| 19> C 	 53.2204 	 27.7718 	 36.9492
| 20> H 	 53.7418 	 27.0204 	 36.2984
| 21> H 	 52.2877 	 28.104 	 36.5043
| 22> H 	 53.8627 	 28.6385 	 37.1511
| 23> S 	 50.8944 	 25.6059 	 44.4951
| 24> C 	 49.2689 	 25.0313 	 44.7578
| 25> C 	 48.6651 	 24.6352 	 43.5893
| 26> C 	 49.5772 	 24.5892 	 42.4494
| 27> C 	 50.8493 	 25.0395 	 42.8513
| 28> H 	 47.5845 	 24.3813 	 43.5676
| 29> C 	 49.1183 	 24.1346 	 41.0586
| 30> H 	 49.6367 	 24.7893 	 40.4166
| 31> H 	 48.0795 	 24.3321 	 40.8647
| 32> C 	 49.4709 	 22.6772 	 40.6725
| 33> H 	 48.9161 	 22.0771 	 41.3945
| 34> H 	 50.5299 	 22.5012 	 40.9986
| 35> C 	 49.2586 	 22.2031 	 39.2402
| 36> H 	 49.9299 	 22.7802 	 38.5862
| 37> H 	 48.1878 	 22.3488 	 39.0307
| 38> H 	 49.5424 	 21.1128 	 39.072
| 39> H 	 55.2996 	 24.8981 	 40.6787
| 40> H 	 48.5592 	 25.271 	 45.5405
| 41> *
| 42>
| 43>                          ****END OF INPUT****

CARTESIAN COORDINATES (ANGSTROEM)
---------------------------------
  S     53.513700   24.234700   42.329000
  C     54.345900   25.109700   41.010300
  C     53.505200   26.083600   40.416000
  C     52.245000   26.132300   41.068000
  C     52.083600   25.207000   42.063900
  H     51.453600   26.789400   40.914400
  C     53.853500   26.968100   39.258500
  H     54.779200   26.592700   38.808400
  H     54.151900   27.963800   39.664000
  C     52.697400   27.081900   38.226000
  H     52.495100   26.028100   38.129100
  H     51.905100   27.669200   38.694300
  C     53.220400   27.771800   36.949200
  H     53.741800   27.020400   36.298400
  H     52.287700   28.104000   36.504300
  H     53.862700   28.638500   37.151100
  S     50.894400   25.605900   44.495100
  C     49.268900   25.031300   44.757800
  C     48.665100   24.635200   43.589300
  C     49.577200   24.589200   42.449400
  C     50.849300   25.039500   42.851300
  H     47.584500   24.381300   43.567600
  C     49.118300   24.134600   41.058600
  H     49.636700   24.789300   40.416600
  H     48.079500   24.332100   40.864700
  C     49.470900   22.677200   40.672500
  H     48.916100   22.077100   41.394500
  H     50.529900   22.501200   40.998600
  C     49.258600   22.203100   39.240200
  H     49.929900   22.780200   38.586200
  H     48.187800   22.348800   39.030700
  H     49.542400   21.112800   39.072000
  H     55.299600   24.898100   40.678700
  H     48.559200   25.271000   45.540500

 Total Charge           Charge          ....    0
 Multiplicity           Mult            ....    1
 Number of Electrons    NEL             ....  134
 Basis Dimension        Dim             ....  322

ORBITAL ENERGIES
----------------

  NO   OCC          E(Eh)            E(eV)
   0   2.0000     -88.968523     -2420.9566
   1   2.0000     -88.968485     -2420.9556
   2   2.0000     -10.328125      -281.0426
   3   2.0000     -10.326419      -280.9961
   4   2.0000     -10.314090      -280.6606
   5   2.0000     -10.311985      -280.6034
   6   2.0000     -10.310045      -280.5506
   7   2.0000     -10.302660      -280.3496
   8   2.0000     -10.295696      -280.1601
   9   2.0000     -10.292363      -280.0694
  10   2.0000     -10.289827      -280.0004
  11   2.0000     -10.288012      -279.9510
  12   2.0000     -10.286722      -279.9159
  13   2.0000     -10.285713      -279.8885
  14   2.0000     -10.285286      -279.8769
  15   2.0000     -10.283728      -279.8345
  16   2.0000      -8.083194      -219.9549
  17   2.0000      -8.082347      -219.9319
  18   2.0000      -6.041729      -164.4038
  19   2.0000      -6.040829      -164.3793
  20   2.0000      -6.037760      -164.2958
  21   2.0000      -6.036973      -164.2744
  22   2.0000      -6.033867      -164.1899
  23   2.0000      -6.033198      -164.1717
  24   2.0000      -1.003442       -27.3051
  25   2.0000      -0.980038       -26.6682
  26   2.0000      -0.913885       -24.8681
  27   2.0000      -0.904275       -24.6066
  28   2.0000      -0.866508       -23.5789
  29   2.0000      -0.849654       -23.1203
  30   2.0000      -0.846240       -23.0274
  31   2.0000      -0.815764       -22.1981
  32   2.0000      -0.781939       -21.2776
  33   2.0000      -0.769246       -20.9323
  34   2.0000      -0.708554       -19.2807
  35   2.0000      -0.694134       -18.8883
  36   2.0000      -0.688651       -18.7392
  37   2.0000      -0.653778       -17.7902
  38   2.0000      -0.647591       -17.6219
  39   2.0000      -0.620799       -16.8928
  40   2.0000      -0.590163       -16.0592
  41   2.0000      -0.578040       -15.7293
  42   2.0000      -0.565122       -15.3778
  43   2.0000      -0.557565       -15.1721
  44   2.0000      -0.528393       -14.3783
  45   2.0000      -0.517658       -14.0862
  46   2.0000      -0.510266       -13.8850
  47   2.0000      -0.508052       -13.8248
  48   2.0000      -0.504712       -13.7339
  49   2.0000      -0.493764       -13.4360
  50   2.0000      -0.492824       -13.4104
  51   2.0000      -0.489596       -13.3226
  52   2.0000      -0.472112       -12.8468
  53   2.0000      -0.464114       -12.6292
  54   2.0000      -0.459485       -12.5032
  55   2.0000      -0.448051       -12.1921
  56   2.0000      -0.443039       -12.0557
  57   2.0000      -0.435840       -11.8598
  58   2.0000      -0.432511       -11.7692
  59   2.0000      -0.429318       -11.6823
  60   2.0000      -0.418845       -11.3973
  61   2.0000      -0.414182       -11.2705
  62   2.0000      -0.411659       -11.2018
  63   2.0000      -0.338955        -9.2234
  64   2.0000      -0.329088        -8.9549
  65   2.0000      -0.326001        -8.8709
  66   2.0000      -0.301107        -8.1935
  67   0.0000       0.038817         1.0563
  68   0.0000       0.058389         1.5888
  69   0.0000       0.110807         3.0152
  70   0.0000       0.118905         3.2356
  71   0.0000       0.126077         3.4307

MULLIKEN ATOMIC CHARGES
-----------------------
   0 S :    0.117960
   1 C :   -0.096945
   2 C :   -0.084110
   3 C :    0.065135
   4 C :   -0.174106
   5 H :   -0.009461
   6 C :    0.054862
   7 H :    0.011243
   8 H :    0.039705
   9 C :   -0.114403
  10 H :    0.043847
  11 H :    0.044616
  12 C :   -0.032820
  13 H :    0.047832
  14 H :    0.034442
  15 H :    0.040254
  16 S :    0.127018
  17 C :   -0.069239
  18 C :   -0.080345
  19 C :   -0.040901
  20 C :   -0.202284
  21 H :    0.034256
  22 C :    0.139674
  23 H :   -0.007276
  24 H :    0.012034
  25 C :   -0.097799
  26 H :    0.018469
  27 H :    0.030469
  28 C :   -0.046832
  29 H :    0.037629
  30 H :    0.036730
  31 H :    0.050934
  32 H :    0.013404
  33 H :    0.056007
Sum of atomic charges:   -0.0000000

LOEWDIN ATOMIC CHARGES
----------------------
   0 S :    0.396435
   1 C :   -0.178982
   2 C :   -0.057366
   3 C :   -0.056708
   4 C :   -0.196906
   5 H :    0.022180
   6 C :   -0.038387
   7 H :    0.026311
   8 H :    0.033175
   9 C :   -0.038057
  10 H :    0.028459
  11 H :    0.024800
  12 C :   -0.065157
  13 H :    0.033890
  14 H :    0.027561
  15 H :    0.027770
  16 S :    0.420806
  17 C :   -0.202903
  18 C :   -0.072933
  19 C :   -0.046526
  20 C :   -0.206481
  21 H :    0.036521
  22 C :   -0.027337
  23 H :    0.020771
  24 H :    0.026118
  25 C :   -0.048440
  26 H :    0.019514
  27 H :    0.027071
  28 C :   -0.069626
  29 H :    0.027080
  30 H :    0.026429
  31 H :    0.038347
  32 H :    0.008736
  33 H :    0.033835

  Mayer bond orders larger than 0.100000
B(  0-S ,  1-C ) :   1.1336 B(  0-S ,  4-C ) :   1.1485 B(  1-C ,  2-C ) :   1.6012
B(  1-C , 32-H ) :   0.9781 B(  2-C ,  3-C ) :   1.2174 B(  2-C ,  6-C ) :   1.0318
B(  3-C ,  4-C ) :   1.6052 B(  3-C ,  5-H ) :   0.9976 B(  4-C , 20-C ) :   1.0033
B(  6-C ,  7-H ) :   0.9433 B(  6-C ,  8-H ) :   0.9260 B(  6-C ,  9-C ) :   1.0509
B(  9-C , 10-H ) :   0.9649 B(  9-C , 11-H ) :   0.9513 B(  9-C , 12-C ) :   1.0779
B( 12-C , 13-H ) :   0.9749 B( 12-C , 14-H ) :   0.9762 B( 12-C , 15-H ) :   0.9734
B( 16-S , 17-C ) :   1.1371 B( 16-S , 20-C ) :   1.1680 B( 17-C , 18-C ) :   1.6448
B( 17-C , 33-H ) :   0.9578 B( 18-C , 19-C ) :   1.2365 B( 18-C , 21-H ) :   0.9779
B( 19-C , 20-C ) :   1.5960 B( 19-C , 22-C ) :   1.0387 B( 22-C , 23-H ) :   0.9177
B( 22-C , 24-H ) :   0.9337 B( 22-C , 25-C ) :   1.0578 B( 25-C , 26-H ) :   0.9543
B( 25-C , 27-H ) :   0.9552 B( 25-C , 28-C ) :   1.0789 B( 28-C , 29-H ) :   0.9747
B( 28-C , 30-H ) :   0.9740 B( 28-C , 31-H ) :   0.9721

Dispersion correction           -0.014287436
FINAL SINGLE POINT ENERGY     -1339.875452112187

DIPOLE MOMENT
-------------
                                X             Y             Z
Electronic contribution:      5.76670      -0.78821      28.44823
Nuclear contribution   :     -6.05411       1.06797     -29.09573
                        -----------------------------------------
Total Dipole Moment    :     -0.28742       0.27977      -0.64750
                        -----------------------------------------
Magnitude (a.u.)       :      0.76166
Magnitude (Debye)      :      1.93599

Rotational constants in cm-1:     0.016704     0.008824     0.007240
Rotational constants in MHz :   500.785957   264.542728   217.042171

                             ****ORCA TERMINATED NORMALLY****
TOTAL RUN TIME: 0 days 0 hours 0 minutes 30 seconds 498 msec
