                         Program Version 4.2.1 -  RELEASE  -
|  1> ! wB97X-D3 SP def2-SVP
|  2> %pal
|  3> nprocs 16
|  4> end
|  5>
|  6> * xyz 0 1
|  7> S 	 6.72309 	 21.8958 	 58.4314
|  8> C 	 7.35286 	 21.5836 	 56.8398
|  9> C 	 6.84794 	 20.4567 	 56.3275
| 10> C 	 5.82759 	 19.9178 	 57.169
| 11> C 	 5.54803 	 20.6538 	 58.3154
| 12> H 	 5.34597 	 19.0426 	 56.9252
| 13> C 	 7.24683 	 19.8465 	 55.0631
| 14> H 	 7.45699 	 20.6938 	 54.3682
| 15> H 	 6.46714 	 19.254 	 54.5714
| 16> C 	 8.52602 	 19.0395 	 55.0719
| 17> H 	 8.90431 	 18.9316 	 53.9919
| 18> H 	 9.28563 	 19.5504 	 55.5583
| 19> C 	 8.4014 	 17.6816 	 55.8421
| 20> H 	 7.59464 	 17.0453 	 55.3362
| 21> H 	 9.29603 	 17.1288 	 55.9046
| 22> H 	 8.15324 	 17.8917 	 56.8534
| 23> S 	 5.23657 	 20.4133 	 61.0066
| 24> C 	 3.69429 	 20.0427 	 61.6323
| 25> C 	 2.7474 	 19.8312 	 60.6635
| 26> C 	 3.32378 	 19.8313 	 59.3528
| 27> C 	 4.60487 	 20.3324 	 59.3593
| 28> H 	 1.72759 	 19.6711 	 60.9203
| 29> C 	 2.46788 	 19.7129 	 58.1067
| 30> H 	 3.0277 	 19.8021 	 57.1909
| 31> H 	 1.88563 	 20.6303 	 58.1319
| 32> C 	 1.48752 	 18.5288 	 57.9381
| 33> H 	 0.712846 	 18.7383 	 57.1842
| 34> H 	 0.946171 	 18.3926 	 58.902
| 35> C 	 2.24931 	 17.3304 	 57.533
| 36> H 	 1.63854 	 16.4654 	 57.2869
| 37> H 	 2.9074 	 17.0807 	 58.3996
| 38> H 	 2.93406 	 17.4267 	 56.6399
| 39> H 	 8.18518 	 22.0698 	 56.333
| 40> H 	 3.38539 	 20.2414 	 62.6237
| 41> *
| 42>
| 43>                          ****END OF INPUT****

CARTESIAN COORDINATES (ANGSTROEM)
---------------------------------
  S      6.723090   21.895800   58.431400
  C      7.352860   21.583600   56.839800
  C      6.847940   20.456700   56.327500
  C      5.827590   19.917800   57.169000
  C      5.548030   20.653800   58.315400
  H      5.345970   19.042600   56.925200
  C      7.246830   19.846500   55.063100
  H      7.456990   20.693800   54.368200
  H      6.467140   19.254000   54.571400
  C      8.526020   19.039500   55.071900
  H      8.904310   18.931600   53.991900
  H      9.285630   19.550400   55.558300
  C      8.401400   17.681600   55.842100
  H      7.594640   17.045300   55.336200
  H      9.296030   17.128800   55.904600
  H      8.153240   17.891700   56.853400
  S      5.236570   20.413300   61.006600
  C      3.694290   20.042700   61.632300
  C      2.747400   19.831200   60.663500
  C      3.323780   19.831300   59.352800
  C      4.604870   20.332400   59.359300
  H      1.727590   19.671100   60.920300
  C      2.467880   19.712900   58.106700
  H      3.027700   19.802100   57.190900
  H      1.885630   20.630300   58.131900
  C      1.487520   18.528800   57.938100
  H      0.712846   18.738300   57.184200
  H      0.946171   18.392600   58.902000
  C      2.249310   17.330400   57.533000
  H      1.638540   16.465400   57.286900
  H      2.907400   17.080700   58.399600
  H      2.934060   17.426700   56.639900
  H      8.185180   22.069800   56.333000
  H      3.385390   20.241400   62.623700

 Total Charge           Charge          ....    0
 Multiplicity           Mult            ....    1
 Number of Electrons    NEL             ....  134
 Basis Dimension        Dim             ....  322

ORBITAL ENERGIES
----------------

  NO   OCC          E(Eh)            E(eV)
   0   2.0000     -88.966269     -2420.8953
   1   2.0000     -88.963931     -2420.8316
   2   2.0000     -10.327177      -281.0168
   3   2.0000     -10.325689      -280.9763
   4   2.0000     -10.309312      -280.5306
   5   2.0000     -10.308002      -280.4950
   6   2.0000     -10.305136      -280.4170
   7   2.0000     -10.291637      -280.0497
   8   2.0000     -10.290439      -280.0171
   9   2.0000     -10.290056      -280.0067
  10   2.0000     -10.289199      -279.9833
  11   2.0000     -10.287452      -279.9358
  12   2.0000     -10.286859      -279.9197
  13   2.0000     -10.285077      -279.8712
  14   2.0000     -10.278242      -279.6852
  15   2.0000     -10.276270      -279.6315
  16   2.0000      -8.081747      -219.9155
  17   2.0000      -8.079583      -219.8566
  18   2.0000      -6.040291      -164.3647
  19   2.0000      -6.038107      -164.3052
  20   2.0000      -6.036099      -164.2506
  21   2.0000      -6.034012      -164.1938
  22   2.0000      -6.032471      -164.1519
  23   2.0000      -6.030229      -164.0909
  24   2.0000      -1.015935       -27.6450
  25   2.0000      -0.993830       -27.0435
  26   2.0000      -0.920484       -25.0476
  27   2.0000      -0.914475       -24.8841
  28   2.0000      -0.873645       -23.7731
  29   2.0000      -0.856531       -23.3074
  30   2.0000      -0.844665       -22.9845
  31   2.0000      -0.817297       -22.2398
  32   2.0000      -0.786152       -21.3923
  33   2.0000      -0.775836       -21.1116
  34   2.0000      -0.709853       -19.3161
  35   2.0000      -0.704928       -19.1821
  36   2.0000      -0.695518       -18.9260
  37   2.0000      -0.661829       -18.0093
  38   2.0000      -0.639206       -17.3937
  39   2.0000      -0.622768       -16.9464
  40   2.0000      -0.601535       -16.3686
  41   2.0000      -0.583344       -15.8736
  42   2.0000      -0.561666       -15.2837
  43   2.0000      -0.551052       -14.9949
  44   2.0000      -0.546702       -14.8765
  45   2.0000      -0.533951       -14.5295
  46   2.0000      -0.516129       -14.0446
  47   2.0000      -0.511193       -13.9103
  48   2.0000      -0.507028       -13.7969
  49   2.0000      -0.501485       -13.6461
  50   2.0000      -0.493350       -13.4247
  51   2.0000      -0.478935       -13.0325
  52   2.0000      -0.471249       -12.8233
  53   2.0000      -0.469368       -12.7721
  54   2.0000      -0.461673       -12.5628
  55   2.0000      -0.449307       -12.2263
  56   2.0000      -0.445615       -12.1258
  57   2.0000      -0.439383       -11.9562
  58   2.0000      -0.436710       -11.8835
  59   2.0000      -0.423445       -11.5225
  60   2.0000      -0.420158       -11.4331
  61   2.0000      -0.415493       -11.3061
  62   2.0000      -0.413243       -11.2449
  63   2.0000      -0.353166        -9.6101
  64   2.0000      -0.330625        -8.9968
  65   2.0000      -0.329360        -8.9623
  66   2.0000      -0.290081        -7.8935
  67   0.0000       0.026045         0.7087
  68   0.0000       0.076226         2.0742
  69   0.0000       0.110755         3.0138
  70   0.0000       0.117463         3.1963
  71   0.0000       0.128990         3.5100

MULLIKEN ATOMIC CHARGES
-----------------------
   0 S :    0.113216
   1 C :   -0.110844
   2 C :   -0.084561
   3 C :    0.060699
   4 C :   -0.132655
   5 H :   -0.038943
   6 C :    0.053474
   7 H :    0.028424
   8 H :    0.024544
   9 C :   -0.058741
  10 H :    0.037190
  11 H :    0.003734
  12 C :   -0.052203
  13 H :    0.034646
  14 H :    0.028250
  15 H :    0.034361
  16 S :    0.103459
  17 C :   -0.056046
  18 C :   -0.043981
  19 C :   -0.019824
  20 C :   -0.141678
  21 H :    0.013245
  22 C :    0.030131
  23 H :    0.011374
  24 H :    0.038244
  25 C :   -0.055832
  26 H :    0.031434
  27 H :    0.030356
  28 C :   -0.074883
  29 H :    0.033198
  30 H :    0.041774
  31 H :    0.033528
  32 H :    0.040831
  33 H :    0.044079
Sum of atomic charges:   -0.0000000

LOEWDIN ATOMIC CHARGES
----------------------
   0 S :    0.424771
   1 C :   -0.197767
   2 C :   -0.071596
   3 C :   -0.052360
   4 C :   -0.205065
   5 H :    0.011489
   6 C :   -0.037447
   7 H :    0.040052
   8 H :    0.030616
   9 C :   -0.036094
  10 H :    0.030652
  11 H :    0.010594
  12 C :   -0.063748
  13 H :    0.030157
  14 H :    0.019697
  15 H :    0.023076
  16 S :    0.410452
  17 C :   -0.190875
  18 C :   -0.064321
  19 C :   -0.054560
  20 C :   -0.187831
  21 H :    0.027380
  22 C :   -0.031562
  23 H :    0.025175
  24 H :    0.037566
  25 C :   -0.044446
  26 H :    0.026591
  27 H :    0.026483
  28 C :   -0.075738
  29 H :    0.023080
  30 H :    0.032694
  31 H :    0.027759
  32 H :    0.032539
  33 H :    0.022588

  Mayer bond orders larger than 0.100000
B(  0-S ,  1-C ) :   1.1323 B(  0-S ,  4-C ) :   1.1611 B(  1-C ,  2-C ) :   1.6186
B(  1-C , 32-H ) :   0.9608 B(  2-C ,  3-C ) :   1.2584 B(  2-C ,  6-C ) :   1.0315
B(  3-C ,  4-C ) :   1.5207 B(  3-C ,  5-H ) :   1.0122 B(  4-C , 20-C ) :   1.0584
B(  6-C ,  7-H ) :   0.9296 B(  6-C ,  8-H ) :   0.9433 B(  6-C ,  9-C ) :   1.0777
B(  9-C , 10-H ) :   0.9559 B(  9-C , 11-H ) :   0.9530 B(  9-C , 12-C ) :   1.0694
B( 12-C , 13-H ) :   0.9774 B( 12-C , 14-H ) :   0.9751 B( 12-C , 15-H ) :   0.9743
B( 16-S , 17-C ) :   1.1546 B( 16-S , 20-C ) :   1.1345 B( 17-C , 18-C ) :   1.6361
B( 17-C , 33-H ) :   0.9636 B( 18-C , 19-C ) :   1.2043 B( 18-C , 21-H ) :   0.9933
B( 19-C , 20-C ) :   1.6076 B( 19-C , 22-C ) :   1.0416 B( 22-C , 23-H ) :   0.9404
B( 22-C , 24-H ) :   0.9348 B( 22-C , 25-C ) :   1.0711 B( 25-C , 26-H ) :   0.9525
B( 25-C , 27-H ) :   0.9527 B( 25-C , 28-C ) :   1.0805 B( 28-C , 29-H ) :   0.9713
B( 28-C , 30-H ) :   0.9742 B( 28-C , 31-H ) :   0.9710

Dispersion correction           -0.014565334
FINAL SINGLE POINT ENERGY     -1339.876733534714

DIPOLE MOMENT
-------------
                                X             Y             Z
Electronic contribution:      4.41575      17.95531      19.53537
Nuclear contribution   :     -4.66859     -18.19527     -19.95008
                        -----------------------------------------
Total Dipole Moment    :     -0.25284      -0.23996      -0.41470
                        -----------------------------------------
Magnitude (a.u.)       :      0.54174
Magnitude (Debye)      :      1.37700

Rotational constants in cm-1:     0.018447     0.009231     0.007115
Rotational constants in MHz :   553.031893   276.750943   213.312386

                             ****ORCA TERMINATED NORMALLY****
TOTAL RUN TIME: 0 days 0 hours 0 minutes 35 seconds 917 msec
