                         Program Version 4.2.1 -  RELEASE  -
|  1> ! wB97X-D3 SP def2-SVP
|  2> %pal
|  3> nprocs 16
|  4> end
|  5>
|  6> * xyz 0 1
|  7> S 	 46.6381 	 6.35045 	 90.396
|  8> C 	 47.4025 	 7.73999 	 89.7849
|  9> C 	 48.4329 	 7.44627 	 89.0021
| 10> C 	 48.5754 	 6.01001 	 88.8944
| 11> C 	 47.7181 	 5.26256 	 89.6608
| 12> H 	 49.2725 	 5.41505 	 88.4114
| 13> C 	 49.3355 	 8.41999 	 88.2341
| 14> H 	 50.3914 	 8.3123 	 88.4789
| 15> H 	 48.956 	 9.39173 	 88.539
| 16> C 	 49.2904 	 8.4806 	 86.7027
| 17> H 	 50.092 	 9.20655 	 86.4742
| 18> H 	 49.4591 	 7.47355 	 86.3614
| 19> C 	 47.9167 	 8.86367 	 86.0485
| 20> H 	 47.6375 	 9.77909 	 86.4484
| 21> H 	 48.0604 	 9.04209 	 85.0283
| 22> H 	 47.1255 	 8.23564 	 86.3039
| 23> S 	 48.1189 	 2.72447 	 90.8734
| 24> C 	 47.3215 	 1.37918 	 90.1269
| 25> C 	 46.6505 	 1.66802 	 88.9966
| 26> C 	 46.7081 	 3.07978 	 88.6908
| 27> C 	 47.4639 	 3.80349 	 89.5866
| 28> H 	 46.1511 	 0.873037 	 88.3471
| 29> C 	 45.9665 	 3.77178 	 87.5051
| 30> H 	 45.5111 	 4.66388 	 87.9157
| 31> H 	 45.2069 	 2.95797 	 87.2714
| 32> C 	 46.7932 	 3.97028 	 86.2217
| 33> H 	 47.0256 	 2.87613 	 85.8413
| 34> H 	 47.735 	 4.49958 	 86.3656
| 35> C 	 46.1184 	 4.81209 	 85.0138
| 36> H 	 45.137 	 4.31703 	 84.6715
| 37> H 	 46.7945 	 4.67835 	 84.2236
| 38> H 	 46.0529 	 5.85407 	 85.2339
| 39> H 	 47.0123 	 8.76902 	 90.0088
| 40> H 	 47.296 	 0.411556 	 90.6316
| 41> *
| 42>
| 43>                          ****END OF INPUT****

CARTESIAN COORDINATES (ANGSTROEM)
---------------------------------
  S     46.638100    6.350450   90.396000
  C     47.402500    7.739990   89.784900
  C     48.432900    7.446270   89.002100
  C     48.575400    6.010010   88.894400
  C     47.718100    5.262560   89.660800
  H     49.272500    5.415050   88.411400
  C     49.335500    8.419990   88.234100
  H     50.391400    8.312300   88.478900
  H     48.956000    9.391730   88.539000
  C     49.290400    8.480600   86.702700
  H     50.092000    9.206550   86.474200
  H     49.459100    7.473550   86.361400
  C     47.916700    8.863670   86.048500
  H     47.637500    9.779090   86.448400
  H     48.060400    9.042090   85.028300
  H     47.125500    8.235640   86.303900
  S     48.118900    2.724470   90.873400
  C     47.321500    1.379180   90.126900
  C     46.650500    1.668020   88.996600
  C     46.708100    3.079780   88.690800
  C     47.463900    3.803490   89.586600
  H     46.151100    0.873037   88.347100
  C     45.966500    3.771780   87.505100
  H     45.511100    4.663880   87.915700
  H     45.206900    2.957970   87.271400
  C     46.793200    3.970280   86.221700
  H     47.025600    2.876130   85.841300
  H     47.735000    4.499580   86.365600
  C     46.118400    4.812090   85.013800
  H     45.137000    4.317030   84.671500
  H     46.794500    4.678350   84.223600
  H     46.052900    5.854070   85.233900
  H     47.012300    8.769020   90.008800
  H     47.296000    0.411556   90.631600

 Total Charge           Charge          ....    0
 Multiplicity           Mult            ....    1
 Number of Electrons    NEL             ....  134
 Basis Dimension        Dim             ....  322

ORBITAL ENERGIES
----------------

  NO   OCC          E(Eh)            E(eV)
   0   2.0000     -88.962999     -2420.8063
   1   2.0000     -88.960766     -2420.7455
   2   2.0000     -10.328266      -281.0464
   3   2.0000     -10.323109      -280.9061
   4   2.0000     -10.316251      -280.7195
   5   2.0000     -10.312898      -280.6282
   6   2.0000     -10.307054      -280.4692
   7   2.0000     -10.299984      -280.2768
   8   2.0000     -10.299894      -280.2744
   9   2.0000     -10.299339      -280.2593
  10   2.0000     -10.297983      -280.2224
  11   2.0000     -10.292887      -280.0837
  12   2.0000     -10.289564      -279.9933
  13   2.0000     -10.287396      -279.9343
  14   2.0000     -10.282414      -279.7987
  15   2.0000     -10.265089      -279.3273
  16   2.0000      -8.077700      -219.8054
  17   2.0000      -8.077617      -219.8031
  18   2.0000      -6.036180      -164.2528
  19   2.0000      -6.036003      -164.2480
  20   2.0000      -6.032332      -164.1481
  21   2.0000      -6.031654      -164.1297
  22   2.0000      -6.028523      -164.0445
  23   2.0000      -6.028383      -164.0406
  24   2.0000      -1.015895       -27.6439
  25   2.0000      -0.989004       -26.9122
  26   2.0000      -0.912339       -24.8260
  27   2.0000      -0.895763       -24.3749
  28   2.0000      -0.872176       -23.7331
  29   2.0000      -0.847070       -23.0499
  30   2.0000      -0.842782       -22.9333
  31   2.0000      -0.818583       -22.2748
  32   2.0000      -0.791977       -21.5508
  33   2.0000      -0.776459       -21.1285
  34   2.0000      -0.707238       -19.2449
  35   2.0000      -0.693836       -18.8802
  36   2.0000      -0.683723       -18.6051
  37   2.0000      -0.655700       -17.8425
  38   2.0000      -0.652838       -17.7646
  39   2.0000      -0.616648       -16.7799
  40   2.0000      -0.590322       -16.0635
  41   2.0000      -0.572981       -15.5916
  42   2.0000      -0.561028       -15.2664
  43   2.0000      -0.549854       -14.9623
  44   2.0000      -0.549376       -14.9493
  45   2.0000      -0.520801       -14.1717
  46   2.0000      -0.516415       -14.0524
  47   2.0000      -0.512121       -13.9355
  48   2.0000      -0.505706       -13.7610
  49   2.0000      -0.499267       -13.5857
  50   2.0000      -0.493272       -13.4226
  51   2.0000      -0.481834       -13.1114
  52   2.0000      -0.471783       -12.8379
  53   2.0000      -0.464932       -12.6515
  54   2.0000      -0.462394       -12.5824
  55   2.0000      -0.447810       -12.1855
  56   2.0000      -0.441820       -12.0225
  57   2.0000      -0.438185       -11.9236
  58   2.0000      -0.435503       -11.8506
  59   2.0000      -0.423332       -11.5195
  60   2.0000      -0.418978       -11.4010
  61   2.0000      -0.414091       -11.2680
  62   2.0000      -0.403403       -10.9772
  63   2.0000      -0.334134        -9.0923
  64   2.0000      -0.329824        -8.9750
  65   2.0000      -0.328959        -8.9514
  66   2.0000      -0.319124        -8.6838
  67   0.0000       0.050674         1.3789
  68   0.0000       0.058931         1.6036
  69   0.0000       0.113090         3.0773
  70   0.0000       0.122028         3.3206
  71   0.0000       0.129052         3.5117

MULLIKEN ATOMIC CHARGES
-----------------------
   0 S :    0.111574
   1 C :   -0.149457
   2 C :   -0.060107
   3 C :    0.049219
   4 C :   -0.162555
   5 H :   -0.016247
   6 C :    0.085599
   7 H :    0.040495
   8 H :    0.000108
   9 C :   -0.096137
  10 H :    0.042127
  11 H :    0.026917
  12 C :    0.009118
  13 H :   -0.007987
  14 H :    0.027758
  15 H :    0.032851
  16 S :    0.098284
  17 C :   -0.091869
  18 C :   -0.049209
  19 C :   -0.044415
  20 C :   -0.197840
  21 H :    0.047742
  22 C :    0.104304
  23 H :    0.032853
  24 H :    0.026578
  25 C :   -0.126240
  26 H :    0.037871
  27 H :    0.034586
  28 C :   -0.043825
  29 H :    0.041423
  30 H :    0.024849
  31 H :    0.043136
  32 H :    0.064989
  33 H :    0.063507
Sum of atomic charges:    0.0000000

LOEWDIN ATOMIC CHARGES
----------------------
   0 S :    0.441085
   1 C :   -0.208949
   2 C :   -0.075528
   3 C :   -0.053406
   4 C :   -0.216001
   5 H :    0.017542
   6 C :   -0.028952
   7 H :    0.034624
   8 H :    0.023651
   9 C :   -0.032982
  10 H :    0.031591
  11 H :    0.017951
  12 C :   -0.052507
  13 H :    0.014456
  14 H :    0.023541
  15 H :    0.020643
  16 S :    0.383711
  17 C :   -0.181147
  18 C :   -0.089021
  19 C :   -0.047471
  20 C :   -0.192838
  21 H :    0.047178
  22 C :   -0.032618
  23 H :    0.026803
  24 H :    0.037056
  25 C :   -0.044217
  26 H :    0.033418
  27 H :    0.019553
  28 C :   -0.063213
  29 H :    0.032844
  30 H :    0.019367
  31 H :    0.021355
  32 H :    0.040596
  33 H :    0.031884

  Mayer bond orders larger than 0.100000
B(  0-S ,  1-C ) :   1.1608 B(  0-S ,  4-C ) :   1.1646 B(  1-C ,  2-C ) :   1.6242
B(  1-C , 32-H ) :   0.9572 B(  2-C ,  3-C ) :   1.2068 B(  2-C ,  6-C ) :   1.0187
B(  3-C ,  4-C ) :   1.6111 B(  3-C ,  5-H ) :   1.0059 B(  4-C , 20-C ) :   0.9920
B(  6-C ,  7-H ) :   0.9418 B(  6-C ,  8-H ) :   0.9368 B(  6-C ,  9-C ) :   1.0742
B(  9-C , 10-H ) :   0.9564 B(  9-C , 11-H ) :   0.9583 B(  9-C , 12-C ) :   1.0732
B( 12-C , 13-H ) :   0.9676 B( 12-C , 14-H ) :   0.9739 B( 12-C , 15-H ) :   0.9743
B( 16-S , 17-C ) :   1.1601 B( 16-S , 20-C ) :   1.1193 B( 17-C , 18-C ) :   1.6403
B( 17-C , 33-H ) :   0.9600 B( 18-C , 19-C ) :   1.2271 B( 18-C , 21-H ) :   0.9755
B( 19-C , 20-C ) :   1.6537 B( 19-C , 22-C ) :   1.0192 B( 22-C , 23-H ) :   0.9317
B( 22-C , 24-H ) :   0.9358 B( 22-C , 25-C ) :   1.0631 B( 25-C , 26-H ) :   0.9565
B( 25-C , 27-H ) :   0.9571 B( 25-C , 28-C ) :   1.0710 B( 28-C , 29-H ) :   0.9756
B( 28-C , 30-H ) :   0.9754 B( 28-C , 31-H ) :   0.9770

Dispersion correction           -0.015545774
FINAL SINGLE POINT ENERGY     -1339.862544528559

DIPOLE MOMENT
-------------
                                X             Y             Z
Electronic contribution:      0.11077     -12.62355      28.08056
Nuclear contribution   :     -0.10169      12.80543     -28.68273
                        -----------------------------------------
Total Dipole Moment    :      0.00908       0.18188      -0.60217
                        -----------------------------------------
Magnitude (a.u.)       :      0.62911
Magnitude (Debye)      :      1.59906

Rotational constants in cm-1:     0.019258     0.009513     0.007356
Rotational constants in MHz :   577.348512   285.195200   220.516671

                             ****ORCA TERMINATED NORMALLY****
TOTAL RUN TIME: 0 days 0 hours 0 minutes 31 seconds 316 msec
