                         Program Version 4.2.1 -  RELEASE  -
|  1> ! wB97X-D3 SP def2-SVP
|  2> %pal
|  3> nprocs 16
|  4> end
|  5>
|  6> * xyz 0 1
|  7> S 	 52.4969 	 18.0739 	 79.9873
|  8> C 	 52.8289 	 19.07 	 81.3833
|  9> C 	 51.6817 	 19.5643 	 81.9393
| 10> C 	 50.5169 	 19.1473 	 81.3177
| 11> C 	 50.7741 	 18.3943 	 80.1321
| 12> H 	 49.4843 	 19.509 	 81.5267
| 13> C 	 51.6904 	 20.6959 	 82.9637
| 14> H 	 51.4341 	 21.6771 	 82.4178
| 15> H 	 52.7466 	 20.7947 	 83.2279
| 16> C 	 50.7837 	 20.4784 	 84.1755
| 17> H 	 50.9903 	 21.4271 	 84.8061
| 18> H 	 49.8201 	 20.4549 	 83.5996
| 19> C 	 51.1091 	 19.2276 	 85.088
| 20> H 	 50.254 	 18.8976 	 85.6428
| 21> H 	 51.3898 	 18.3569 	 84.4571
| 22> H 	 51.9383 	 19.5376 	 85.6688
| 23> S 	 49.6373 	 16.0369 	 79.4431
| 24> C 	 48.3027 	 16.0582 	 78.2759
| 25> C 	 48.072 	 17.3314 	 77.8064
| 26> C 	 48.8806 	 18.336 	 78.3559
| 27> C 	 49.8455 	 17.7701 	 79.2523
| 28> H 	 47.2073 	 17.5586 	 77.1834
| 29> C 	 48.7943 	 19.811 	 77.9863
| 30> H 	 48.4994 	 19.8983 	 76.9541
| 31> H 	 49.8273 	 20.1635 	 78.0129
| 32> C 	 47.8336 	 20.6337 	 78.8066
| 33> H 	 48.1426 	 21.674 	 78.7525
| 34> H 	 47.8531 	 20.4186 	 79.8667
| 35> C 	 46.3388 	 20.4437 	 78.4384
| 36> H 	 46.2113 	 20.8419 	 77.4476
| 37> H 	 45.6194 	 20.9246 	 79.1348
| 38> H 	 46.0994 	 19.4083 	 78.3331
| 39> H 	 53.8648 	 19.349 	 81.7983
| 40> H 	 47.6079 	 15.2381 	 77.981
| 41> *
| 42>
| 43>                          ****END OF INPUT****

CARTESIAN COORDINATES (ANGSTROEM)
---------------------------------
  S     52.496900   18.073900   79.987300
  C     52.828900   19.070000   81.383300
  C     51.681700   19.564300   81.939300
  C     50.516900   19.147300   81.317700
  C     50.774100   18.394300   80.132100
  H     49.484300   19.509000   81.526700
  C     51.690400   20.695900   82.963700
  H     51.434100   21.677100   82.417800
  H     52.746600   20.794700   83.227900
  C     50.783700   20.478400   84.175500
  H     50.990300   21.427100   84.806100
  H     49.820100   20.454900   83.599600
  C     51.109100   19.227600   85.088000
  H     50.254000   18.897600   85.642800
  H     51.389800   18.356900   84.457100
  H     51.938300   19.537600   85.668800
  S     49.637300   16.036900   79.443100
  C     48.302700   16.058200   78.275900
  C     48.072000   17.331400   77.806400
  C     48.880600   18.336000   78.355900
  C     49.845500   17.770100   79.252300
  H     47.207300   17.558600   77.183400
  C     48.794300   19.811000   77.986300
  H     48.499400   19.898300   76.954100
  H     49.827300   20.163500   78.012900
  C     47.833600   20.633700   78.806600
  H     48.142600   21.674000   78.752500
  H     47.853100   20.418600   79.866700
  C     46.338800   20.443700   78.438400
  H     46.211300   20.841900   77.447600
  H     45.619400   20.924600   79.134800
  H     46.099400   19.408300   78.333100
  H     53.864800   19.349000   81.798300
  H     47.607900   15.238100   77.981000

 Total Charge           Charge          ....    0
 Multiplicity           Mult            ....    1
 Number of Electrons    NEL             ....  134
 Basis Dimension        Dim             ....  322

ORBITAL ENERGIES
----------------

  NO   OCC          E(Eh)            E(eV)
   0   2.0000     -88.969703     -2420.9887
   1   2.0000     -88.969208     -2420.9752
   2   2.0000     -10.330230      -281.0998
   3   2.0000     -10.325624      -280.9745
   4   2.0000     -10.320539      -280.8361
   5   2.0000     -10.317379      -280.7502
   6   2.0000     -10.304935      -280.4115
   7   2.0000     -10.298774      -280.2439
   8   2.0000     -10.297974      -280.2221
   9   2.0000     -10.295617      -280.1580
  10   2.0000     -10.292966      -280.0858
  11   2.0000     -10.290788      -280.0266
  12   2.0000     -10.290741      -280.0253
  13   2.0000     -10.284831      -279.8645
  14   2.0000     -10.278315      -279.6872
  15   2.0000     -10.277481      -279.6645
  16   2.0000      -8.083661      -219.9676
  17   2.0000      -8.083636      -219.9669
  18   2.0000      -6.042132      -164.4148
  19   2.0000      -6.042010      -164.4115
  20   2.0000      -6.038195      -164.3076
  21   2.0000      -6.038102      -164.3051
  22   2.0000      -6.034667      -164.2116
  23   2.0000      -6.034543      -164.2083
  24   2.0000      -1.005958       -27.3735
  25   2.0000      -0.982698       -26.7406
  26   2.0000      -0.912396       -24.8275
  27   2.0000      -0.908351       -24.7175
  28   2.0000      -0.868802       -23.6413
  29   2.0000      -0.847806       -23.0700
  30   2.0000      -0.844157       -22.9707
  31   2.0000      -0.810651       -22.0589
  32   2.0000      -0.786434       -21.4000
  33   2.0000      -0.771627       -20.9970
  34   2.0000      -0.714809       -19.4509
  35   2.0000      -0.697251       -18.9732
  36   2.0000      -0.681788       -18.5524
  37   2.0000      -0.657573       -17.8935
  38   2.0000      -0.632297       -17.2057
  39   2.0000      -0.619940       -16.8694
  40   2.0000      -0.595417       -16.2021
  41   2.0000      -0.563595       -15.3362
  42   2.0000      -0.553128       -15.0514
  43   2.0000      -0.550125       -14.9697
  44   2.0000      -0.541293       -14.7293
  45   2.0000      -0.534783       -14.5522
  46   2.0000      -0.517739       -14.0884
  47   2.0000      -0.509647       -13.8682
  48   2.0000      -0.496006       -13.4970
  49   2.0000      -0.492277       -13.3955
  50   2.0000      -0.484744       -13.1906
  51   2.0000      -0.483490       -13.1564
  52   2.0000      -0.478600       -13.0234
  53   2.0000      -0.463965       -12.6251
  54   2.0000      -0.462523       -12.5859
  55   2.0000      -0.449434       -12.2297
  56   2.0000      -0.444233       -12.0882
  57   2.0000      -0.439122       -11.9491
  58   2.0000      -0.434532       -11.8242
  59   2.0000      -0.424051       -11.5390
  60   2.0000      -0.419693       -11.4204
  61   2.0000      -0.414594       -11.2817
  62   2.0000      -0.404935       -11.0188
  63   2.0000      -0.343534        -9.3480
  64   2.0000      -0.332549        -9.0491
  65   2.0000      -0.324082        -8.8187
  66   2.0000      -0.295569        -8.0428
  67   0.0000       0.031629         0.8607
  68   0.0000       0.052071         1.4169
  69   0.0000       0.115375         3.1395
  70   0.0000       0.116908         3.1812
  71   0.0000       0.129096         3.5129

MULLIKEN ATOMIC CHARGES
-----------------------
   0 S :    0.123556
   1 C :   -0.149120
   2 C :   -0.086740
   3 C :    0.036091
   4 C :   -0.210496
   5 H :    0.034733
   6 C :    0.039202
   7 H :    0.058739
   8 H :   -0.001425
   9 C :   -0.123132
  10 H :    0.050570
  11 H :    0.040077
  12 C :   -0.032393
  13 H :    0.042234
  14 H :    0.043789
  15 H :    0.033014
  16 S :    0.128581
  17 C :   -0.102707
  18 C :   -0.045459
  19 C :   -0.028952
  20 C :   -0.184015
  21 H :    0.020953
  22 C :    0.085632
  23 H :    0.015071
  24 H :    0.036063
  25 C :   -0.046609
  26 H :    0.028915
  27 H :    0.018095
  28 C :   -0.051074
  29 H :    0.017455
  30 H :    0.046400
  31 H :    0.021073
  32 H :    0.073384
  33 H :    0.068497
Sum of atomic charges:    0.0000000

LOEWDIN ATOMIC CHARGES
----------------------
   0 S :    0.414873
   1 C :   -0.213630
   2 C :   -0.082762
   3 C :   -0.061246
   4 C :   -0.201617
   5 H :    0.036781
   6 C :   -0.037512
   7 H :    0.043370
   8 H :    0.017825
   9 C :   -0.052499
  10 H :    0.036560
  11 H :    0.026927
  12 C :   -0.061921
  13 H :    0.027027
  14 H :    0.032184
  15 H :    0.023344
  16 S :    0.411330
  17 C :   -0.191461
  18 C :   -0.079849
  19 C :   -0.047173
  20 C :   -0.211730
  21 H :    0.031075
  22 C :   -0.028706
  23 H :    0.029519
  24 H :    0.038028
  25 C :   -0.039116
  26 H :    0.025291
  27 H :    0.019389
  28 C :   -0.063125
  29 H :    0.019667
  30 H :    0.032375
  31 H :    0.019615
  32 H :    0.045856
  33 H :    0.041313

  Mayer bond orders larger than 0.100000
B(  0-S ,  1-C ) :   1.1471 B(  0-S ,  4-C ) :   1.1690 B(  1-C ,  2-C ) :   1.6004
B(  1-C ,  4-C ) :   0.1093 B(  1-C , 32-H ) :   0.9493 B(  2-C ,  3-C ) :   1.2698
B(  2-C ,  6-C ) :   1.0117 B(  3-C ,  4-C ) :   1.5423 B(  3-C ,  5-H ) :   0.9803
B(  4-C , 20-C ) :   1.0487 B(  6-C ,  7-H ) :   0.9461 B(  6-C ,  8-H ) :   0.9368
B(  6-C ,  9-C ) :   1.0460 B(  9-C , 10-H ) :   0.9594 B(  9-C , 11-H ) :   0.9584
B(  9-C , 12-C ) :   1.0595 B( 12-C , 13-H ) :   0.9770 B( 12-C , 14-H ) :   0.9764
B( 12-C , 15-H ) :   0.9764 B( 16-S , 17-C ) :   1.1501 B( 16-S , 20-C ) :   1.1620
B( 17-C , 18-C ) :   1.6015 B( 17-C , 20-C ) :   0.1108 B( 17-C , 33-H ) :   0.9592
B( 18-C , 19-C ) :   1.2823 B( 18-C , 21-H ) :   0.9760 B( 19-C , 20-C ) :   1.5518
B( 19-C , 22-C ) :   1.0396 B( 22-C , 23-H ) :   0.9384 B( 22-C , 24-H ) :   0.9278
B( 22-C , 25-C ) :   1.0640 B( 25-C , 26-H ) :   0.9548 B( 25-C , 27-H ) :   0.9554
B( 25-C , 28-C ) :   1.0668 B( 28-C , 29-H ) :   0.9754 B( 28-C , 30-H ) :   0.9745
B( 28-C , 31-H ) :   0.9759

Dispersion correction           -0.014798044
FINAL SINGLE POINT ENERGY     -1339.870788133777

DIPOLE MOMENT
-------------
                                X             Y             Z
Electronic contribution:     11.85242     -19.48997     -10.98367
Nuclear contribution   :    -12.18708      20.01481      11.09705
                        -----------------------------------------
Total Dipole Moment    :     -0.33466       0.52485       0.11338
                        -----------------------------------------
Magnitude (a.u.)       :      0.63271
Magnitude (Debye)      :      1.60821

Rotational constants in cm-1:     0.018308     0.008847     0.007308
Rotational constants in MHz :   548.854309   265.213978   219.100541

                             ****ORCA TERMINATED NORMALLY****
TOTAL RUN TIME: 0 days 0 hours 0 minutes 30 seconds 698 msec
