                         Program Version 4.2.1 -  RELEASE  -
|  1> ! wB97X-D3 SP def2-SVP
|  2> %pal
|  3> nprocs 16
|  4> end
|  5>
|  6> * xyz 0 1
|  7> S 	 -2.78439 	 -10.887 	 73.0515
|  8> C 	 -3.38317 	 -12.4949 	 73.4648
|  9> C 	 -2.97605 	 -13.3943 	 72.4823
| 10> C 	 -2.18883 	 -12.695 	 71.4847
| 11> C 	 -1.94122 	 -11.3599 	 71.6091
| 12> H 	 -1.75177 	 -13.0573 	 70.6315
| 13> C 	 -3.04153 	 -14.9113 	 72.622
| 14> H 	 -2.2839 	 -15.2768 	 71.9196
| 15> H 	 -4.08514 	 -15.2394 	 72.1536
| 16> C 	 -2.86359 	 -15.4536 	 73.9713
| 17> H 	 -1.89351 	 -15.2323 	 74.4468
| 18> H 	 -3.6111 	 -15.1162 	 74.7029
| 19> C 	 -3.01704 	 -17.006 	 73.8936
| 20> H 	 -4.08703 	 -17.2797 	 73.9573
| 21> H 	 -2.60224 	 -17.5404 	 73.0264
| 22> H 	 -2.74219 	 -17.51 	 74.8621
| 23> S 	 0.480981 	 -10.0216 	 71.7126
| 24> C 	 1.22406 	 -9.40325 	 70.2602
| 25> C 	 0.361107 	 -9.56268 	 69.179
| 26> C 	 -0.84983 	 -10.2642 	 69.4978
| 27> C 	 -0.999607 	 -10.5179 	 70.8399
| 28> H 	 0.77576 	 -9.19401 	 68.2459
| 29> C 	 -1.70289 	 -10.7586 	 68.4137
| 30> H 	 -1.72264 	 -10.0672 	 67.6064
| 31> H 	 -2.66223 	 -10.7869 	 68.8314
| 32> C 	 -1.20598 	 -11.9656 	 67.5758
| 33> H 	 -0.929502 	 -12.6801 	 68.3023
| 34> H 	 -0.2654 	 -11.7515 	 66.9897
| 35> C 	 -2.23788 	 -12.5815 	 66.5527
| 36> H 	 -3.16711 	 -12.8521 	 66.994
| 37> H 	 -1.87736 	 -13.5095 	 66.2032
| 38> H 	 -2.4376 	 -11.8932 	 65.7247
| 39> H 	 -3.87453 	 -12.7143 	 74.4174
| 40> H 	 2.18038 	 -8.83263 	 70.2188
| 41> *
| 42>
| 43>                          ****END OF INPUT****

CARTESIAN COORDINATES (ANGSTROEM)
---------------------------------
  S     -2.784390  -10.887000   73.051500
  C     -3.383170  -12.494900   73.464800
  C     -2.976050  -13.394300   72.482300
  C     -2.188830  -12.695000   71.484700
  C     -1.941220  -11.359900   71.609100
  H     -1.751770  -13.057300   70.631500
  C     -3.041530  -14.911300   72.622000
  H     -2.283900  -15.276800   71.919600
  H     -4.085140  -15.239400   72.153600
  C     -2.863590  -15.453600   73.971300
  H     -1.893510  -15.232300   74.446800
  H     -3.611100  -15.116200   74.702900
  C     -3.017040  -17.006000   73.893600
  H     -4.087030  -17.279700   73.957300
  H     -2.602240  -17.540400   73.026400
  H     -2.742190  -17.510000   74.862100
  S      0.480981  -10.021600   71.712600
  C      1.224060   -9.403250   70.260200
  C      0.361107   -9.562680   69.179000
  C     -0.849830  -10.264200   69.497800
  C     -0.999607  -10.517900   70.839900
  H      0.775760   -9.194010   68.245900
  C     -1.702890  -10.758600   68.413700
  H     -1.722640  -10.067200   67.606400
  H     -2.662230  -10.786900   68.831400
  C     -1.205980  -11.965600   67.575800
  H     -0.929502  -12.680100   68.302300
  H     -0.265400  -11.751500   66.989700
  C     -2.237880  -12.581500   66.552700
  H     -3.167110  -12.852100   66.994000
  H     -1.877360  -13.509500   66.203200
  H     -2.437600  -11.893200   65.724700
  H     -3.874530  -12.714300   74.417400
  H      2.180380   -8.832630   70.218800

 Total Charge           Charge          ....    0
 Multiplicity           Mult            ....    1
 Number of Electrons    NEL             ....  134
 Basis Dimension        Dim             ....  322

ORBITAL ENERGIES
----------------

  NO   OCC          E(Eh)            E(eV)
   0   2.0000     -88.963734     -2420.8263
   1   2.0000     -88.959659     -2420.7154
   2   2.0000     -10.332921      -281.1731
   3   2.0000     -10.328423      -281.0507
   4   2.0000     -10.323232      -280.9094
   5   2.0000     -10.319305      -280.8026
   6   2.0000     -10.306082      -280.4428
   7   2.0000     -10.305522      -280.4275
   8   2.0000     -10.302939      -280.3572
   9   2.0000     -10.295379      -280.1515
  10   2.0000     -10.293085      -280.0891
  11   2.0000     -10.292770      -280.0805
  12   2.0000     -10.287377      -279.9338
  13   2.0000     -10.285517      -279.8832
  14   2.0000     -10.280469      -279.7458
  15   2.0000     -10.277839      -279.6742
  16   2.0000      -8.078186      -219.8186
  17   2.0000      -8.074541      -219.7194
  18   2.0000      -6.036809      -164.2699
  19   2.0000      -6.033076      -164.1683
  20   2.0000      -6.032663      -164.1571
  21   2.0000      -6.028885      -164.0543
  22   2.0000      -6.028810      -164.0523
  23   2.0000      -6.025448      -163.9608
  24   2.0000      -1.005802       -27.3693
  25   2.0000      -0.984491       -26.7894
  26   2.0000      -0.918181       -24.9850
  27   2.0000      -0.910883       -24.7864
  28   2.0000      -0.869455       -23.6591
  29   2.0000      -0.851019       -23.1574
  30   2.0000      -0.841803       -22.9066
  31   2.0000      -0.816786       -22.2259
  32   2.0000      -0.784773       -21.3548
  33   2.0000      -0.772437       -21.0191
  34   2.0000      -0.710780       -19.3413
  35   2.0000      -0.707431       -19.2502
  36   2.0000      -0.693628       -18.8746
  37   2.0000      -0.662640       -18.0314
  38   2.0000      -0.648445       -17.6451
  39   2.0000      -0.612651       -16.6711
  40   2.0000      -0.594031       -16.1644
  41   2.0000      -0.577607       -15.7175
  42   2.0000      -0.569739       -15.5034
  43   2.0000      -0.560525       -15.2527
  44   2.0000      -0.530665       -14.4401
  45   2.0000      -0.524401       -14.2697
  46   2.0000      -0.521742       -14.1973
  47   2.0000      -0.515003       -14.0139
  48   2.0000      -0.511436       -13.9169
  49   2.0000      -0.501743       -13.6531
  50   2.0000      -0.490371       -13.3437
  51   2.0000      -0.482422       -13.1274
  52   2.0000      -0.473177       -12.8758
  53   2.0000      -0.465850       -12.6764
  54   2.0000      -0.455027       -12.3819
  55   2.0000      -0.447871       -12.1872
  56   2.0000      -0.444533       -12.0964
  57   2.0000      -0.436708       -11.8834
  58   2.0000      -0.433430       -11.7942
  59   2.0000      -0.422530       -11.4976
  60   2.0000      -0.416220       -11.3259
  61   2.0000      -0.413635       -11.2556
  62   2.0000      -0.407078       -11.0772
  63   2.0000      -0.342599        -9.3226
  64   2.0000      -0.327500        -8.9117
  65   2.0000      -0.323125        -8.7927
  66   2.0000      -0.304815        -8.2944
  67   0.0000       0.033657         0.9159
  68   0.0000       0.064969         1.7679
  69   0.0000       0.118623         3.2279
  70   0.0000       0.124580         3.3900
  71   0.0000       0.127454         3.4682

MULLIKEN ATOMIC CHARGES
-----------------------
   0 S :    0.090815
   1 C :   -0.144434
   2 C :   -0.043828
   3 C :    0.065916
   4 C :   -0.170100
   5 H :   -0.049524
   6 C :    0.035197
   7 H :    0.031017
   8 H :    0.056604
   9 C :   -0.066589
  10 H :    0.045496
  11 H :    0.032545
  12 C :   -0.085820
  13 H :    0.025550
  14 H :    0.045827
  15 H :    0.031339
  16 S :    0.099964
  17 C :   -0.117776
  18 C :   -0.042272
  19 C :   -0.031370
  20 C :   -0.132021
  21 H :    0.021116
  22 C :    0.107656
  23 H :    0.004032
  24 H :    0.019399
  25 C :   -0.092718
  26 H :    0.016406
  27 H :    0.039311
  28 C :   -0.016139
  29 H :    0.021220
  30 H :    0.023249
  31 H :    0.037473
  32 H :    0.064363
  33 H :    0.078100
Sum of atomic charges:    0.0000000

LOEWDIN ATOMIC CHARGES
----------------------
   0 S :    0.399489
   1 C :   -0.189917
   2 C :   -0.067330
   3 C :   -0.058913
   4 C :   -0.205681
   5 H :    0.011352
   6 C :   -0.040708
   7 H :    0.033537
   8 H :    0.047970
   9 C :   -0.045695
  10 H :    0.030744
  11 H :    0.027704
  12 C :   -0.077048
  13 H :    0.026522
  14 H :    0.026676
  15 H :    0.030708
  16 S :    0.395343
  17 C :   -0.187351
  18 C :   -0.075360
  19 C :   -0.050862
  20 C :   -0.186818
  21 H :    0.033031
  22 C :   -0.034872
  23 H :    0.029651
  24 H :    0.027150
  25 C :   -0.030766
  26 H :    0.010180
  27 H :    0.031729
  28 C :   -0.056662
  29 H :    0.021491
  30 H :    0.023236
  31 H :    0.027211
  32 H :    0.032948
  33 H :    0.041309

  Mayer bond orders larger than 0.100000
B(  0-S ,  1-C ) :   1.1555 B(  0-S ,  4-C ) :   1.1415 B(  1-C ,  2-C ) :   1.5791
B(  1-C , 32-H ) :   0.9698 B(  2-C ,  3-C ) :   1.2361 B(  2-C ,  6-C ) :   1.0082
B(  3-C ,  4-C ) :   1.6002 B(  3-C ,  5-H ) :   1.0065 B(  4-C , 20-C ) :   1.0064
B(  6-C ,  7-H ) :   0.9475 B(  6-C ,  8-H ) :   0.9292 B(  6-C ,  9-C ) :   1.0830
B(  9-C , 10-H ) :   0.9573 B(  9-C , 11-H ) :   0.9451 B(  9-C , 12-C ) :   1.0724
B( 12-C , 13-H ) :   0.9749 B( 12-C , 14-H ) :   0.9776 B( 12-C , 15-H ) :   0.9722
B( 16-S , 17-C ) :   1.1627 B( 16-S , 20-C ) :   1.1271 B( 17-C , 18-C ) :   1.6223
B( 17-C , 33-H ) :   0.9590 B( 18-C , 19-C ) :   1.2011 B( 18-C , 21-H ) :   0.9945
B( 19-C , 20-C ) :   1.6112 B( 19-C , 22-C ) :   1.0890 B( 22-C , 23-H ) :   0.9210
B( 22-C , 24-H ) :   0.9271 B( 22-C , 25-C ) :   1.0393 B( 25-C , 26-H ) :   0.9586
B( 25-C , 27-H ) :   0.9533 B( 25-C , 28-C ) :   1.0831 B( 28-C , 29-H ) :   0.9755
B( 28-C , 30-H ) :   0.9729 B( 28-C , 31-H ) :   0.9773

Dispersion correction           -0.013726441
FINAL SINGLE POINT ENERGY     -1339.853527533935

DIPOLE MOMENT
-------------
                                X             Y             Z
Electronic contribution:      7.25550      23.99710      11.49786
Nuclear contribution   :     -7.17221     -24.57858     -11.92776
                        -----------------------------------------
Total Dipole Moment    :      0.08330      -0.58149      -0.42990
                        -----------------------------------------
Magnitude (a.u.)       :      0.72792
Magnitude (Debye)      :      1.85024

Rotational constants in cm-1:     0.018020     0.007875     0.006310
Rotational constants in MHz :   540.213463   236.091629   189.173792

                             ****ORCA TERMINATED NORMALLY****
TOTAL RUN TIME: 0 days 0 hours 0 minutes 34 seconds 266 msec
