                         Program Version 4.2.1 -  RELEASE  -
|  1> ! wB97X-D3 SP def2-SVP
|  2> %pal
|  3> nprocs 16
|  4> end
|  5>
|  6> * xyz 0 1
|  7> S 	 7.54295 	 -10.3157 	 64.7637
|  8> C 	 7.36476 	 -11.8602 	 65.5639
|  9> C 	 6.10815 	 -11.958 	 66.1669
| 10> C 	 5.21281 	 -10.9713 	 65.7034
| 11> C 	 5.84003 	 -10.0426 	 64.8665
| 12> H 	 4.15123 	 -10.9741 	 65.927
| 13> C 	 5.67134 	 -13.0764 	 67.0844
| 14> H 	 4.68542 	 -12.8063 	 67.511
| 15> H 	 6.30864 	 -13.0665 	 67.927
| 16> C 	 5.41324 	 -14.4505 	 66.4801
| 17> H 	 6.21747 	 -14.7804 	 65.7982
| 18> H 	 5.39224 	 -15.2383 	 67.2327
| 19> C 	 4.07289 	 -14.4609 	 65.6828
| 20> H 	 4.19795 	 -13.9139 	 64.7919
| 21> H 	 3.85598 	 -15.4856 	 65.3294
| 22> H 	 3.20379 	 -14.0217 	 66.2127
| 23> S 	 5.85499 	 -7.4011 	 64.1388
| 24> C 	 4.57843 	 -6.75288 	 63.0948
| 25> C 	 3.61815 	 -7.71781 	 62.9301
| 26> C 	 3.94313 	 -9.01345 	 63.4553
| 27> C 	 5.22047 	 -9.05579 	 63.9951
| 28> H 	 2.66593 	 -7.35874 	 62.4442
| 29> C 	 3.10653 	 -10.1601 	 63.3347
| 30> H 	 2.28488 	 -9.95191 	 64.0105
| 31> H 	 3.6552 	 -10.9913 	 63.8344
| 32> C 	 2.54474 	 -10.6027 	 61.9701
| 33> H 	 3.35328 	 -10.8962 	 61.3289
| 34> H 	 2.03308 	 -9.73945 	 61.7273
| 35> C 	 1.5522 	 -11.7591 	 62.1073
| 36> H 	 0.917253 	 -11.9308 	 61.2471
| 37> H 	 0.907838 	 -11.4596 	 62.9499
| 38> H 	 1.97962 	 -12.7426 	 62.4023
| 39> H 	 8.20436 	 -12.5637 	 65.7551
| 40> H 	 4.49053 	 -5.66325 	 62.8023
| 41> *
| 42>
| 43>                          ****END OF INPUT****

CARTESIAN COORDINATES (ANGSTROEM)
---------------------------------
  S      7.542950  -10.315700   64.763700
  C      7.364760  -11.860200   65.563900
  C      6.108150  -11.958000   66.166900
  C      5.212810  -10.971300   65.703400
  C      5.840030  -10.042600   64.866500
  H      4.151230  -10.974100   65.927000
  C      5.671340  -13.076400   67.084400
  H      4.685420  -12.806300   67.511000
  H      6.308640  -13.066500   67.927000
  C      5.413240  -14.450500   66.480100
  H      6.217470  -14.780400   65.798200
  H      5.392240  -15.238300   67.232700
  C      4.072890  -14.460900   65.682800
  H      4.197950  -13.913900   64.791900
  H      3.855980  -15.485600   65.329400
  H      3.203790  -14.021700   66.212700
  S      5.854990   -7.401100   64.138800
  C      4.578430   -6.752880   63.094800
  C      3.618150   -7.717810   62.930100
  C      3.943130   -9.013450   63.455300
  C      5.220470   -9.055790   63.995100
  H      2.665930   -7.358740   62.444200
  C      3.106530  -10.160100   63.334700
  H      2.284880   -9.951910   64.010500
  H      3.655200  -10.991300   63.834400
  C      2.544740  -10.602700   61.970100
  H      3.353280  -10.896200   61.328900
  H      2.033080   -9.739450   61.727300
  C      1.552200  -11.759100   62.107300
  H      0.917253  -11.930800   61.247100
  H      0.907838  -11.459600   62.949900
  H      1.979620  -12.742600   62.402300
  H      8.204360  -12.563700   65.755100
  H      4.490530   -5.663250   62.802300

 Total Charge           Charge          ....    0
 Multiplicity           Mult            ....    1
 Number of Electrons    NEL             ....  134
 Basis Dimension        Dim             ....  322

ORBITAL ENERGIES
----------------

  NO   OCC          E(Eh)            E(eV)
   0   2.0000     -88.968509     -2420.9562
   1   2.0000     -88.959260     -2420.7045
   2   2.0000     -10.328899      -281.0636
   3   2.0000     -10.325436      -280.9694
   4   2.0000     -10.323280      -280.9107
   5   2.0000     -10.317736      -280.7599
   6   2.0000     -10.301616      -280.3212
   7   2.0000     -10.300468      -280.2900
   8   2.0000     -10.298193      -280.2281
   9   2.0000     -10.296220      -280.1744
  10   2.0000     -10.291581      -280.0481
  11   2.0000     -10.289814      -280.0001
  12   2.0000     -10.282354      -279.7971
  13   2.0000     -10.280474      -279.7459
  14   2.0000     -10.280394      -279.7438
  15   2.0000     -10.278986      -279.7054
  16   2.0000      -8.083624      -219.9666
  17   2.0000      -8.073704      -219.6966
  18   2.0000      -6.042022      -164.4118
  19   2.0000      -6.038118      -164.3055
  20   2.0000      -6.034429      -164.2052
  21   2.0000      -6.032352      -164.1487
  22   2.0000      -6.028362      -164.0401
  23   2.0000      -6.024220      -163.9274
  24   2.0000      -1.009244       -27.4629
  25   2.0000      -0.984930       -26.8013
  26   2.0000      -0.917861       -24.9763
  27   2.0000      -0.913528       -24.8584
  28   2.0000      -0.868712       -23.6388
  29   2.0000      -0.856112       -23.2960
  30   2.0000      -0.846105       -23.0237
  31   2.0000      -0.812641       -22.1131
  32   2.0000      -0.783114       -21.3096
  33   2.0000      -0.769068       -20.9274
  34   2.0000      -0.710491       -19.3334
  35   2.0000      -0.706677       -19.2296
  36   2.0000      -0.696516       -18.9532
  37   2.0000      -0.656751       -17.8711
  38   2.0000      -0.636519       -17.3206
  39   2.0000      -0.619533       -16.8583
  40   2.0000      -0.593307       -16.1447
  41   2.0000      -0.577760       -15.7217
  42   2.0000      -0.570995       -15.5376
  43   2.0000      -0.557640       -15.1741
  44   2.0000      -0.540120       -14.6974
  45   2.0000      -0.523940       -14.2571
  46   2.0000      -0.517993       -14.0953
  47   2.0000      -0.510184       -13.8828
  48   2.0000      -0.503631       -13.7045
  49   2.0000      -0.497950       -13.5499
  50   2.0000      -0.491824       -13.3832
  51   2.0000      -0.478674       -13.0254
  52   2.0000      -0.472039       -12.8448
  53   2.0000      -0.462809       -12.5937
  54   2.0000      -0.457366       -12.4455
  55   2.0000      -0.452850       -12.3227
  56   2.0000      -0.445999       -12.1362
  57   2.0000      -0.438664       -11.9367
  58   2.0000      -0.432880       -11.7793
  59   2.0000      -0.426362       -11.6019
  60   2.0000      -0.420298       -11.4369
  61   2.0000      -0.416385       -11.3304
  62   2.0000      -0.413354       -11.2479
  63   2.0000      -0.349592        -9.5129
  64   2.0000      -0.335344        -9.1252
  65   2.0000      -0.323931        -8.8146
  66   2.0000      -0.286055        -7.7840
  67   0.0000       0.022331         0.6077
  68   0.0000       0.067933         1.8485
  69   0.0000       0.100283         2.7288
  70   0.0000       0.117438         3.1956
  71   0.0000       0.129800         3.5320

MULLIKEN ATOMIC CHARGES
-----------------------
   0 S :    0.129014
   1 C :   -0.143258
   2 C :   -0.097203
   3 C :    0.014749
   4 C :   -0.156639
   5 H :    0.019488
   6 C :    0.076775
   7 H :    0.011588
   8 H :    0.025447
   9 C :   -0.052117
  10 H :    0.028119
  11 H :    0.028024
  12 C :   -0.068574
  13 H :    0.029731
  14 H :    0.034091
  15 H :    0.034323
  16 S :    0.068422
  17 C :   -0.112288
  18 C :   -0.057748
  19 C :   -0.047629
  20 C :   -0.085391
  21 H :    0.039585
  22 C :   -0.007271
  23 H :    0.023460
  24 H :    0.027837
  25 C :    0.013420
  26 H :    0.037935
  27 H :    0.008533
  28 C :   -0.059686
  29 H :    0.038378
  30 H :    0.015811
  31 H :    0.036808
  32 H :    0.062955
  33 H :    0.083309
Sum of atomic charges:   -0.0000000

LOEWDIN ATOMIC CHARGES
----------------------
   0 S :    0.427064
   1 C :   -0.203411
   2 C :   -0.063378
   3 C :   -0.064007
   4 C :   -0.202687
   5 H :    0.033018
   6 C :   -0.033588
   7 H :    0.031949
   8 H :    0.026591
   9 C :   -0.036548
  10 H :    0.025645
  11 H :    0.022842
  12 C :   -0.066469
  13 H :    0.018426
  14 H :    0.029424
  15 H :    0.025588
  16 S :    0.371784
  17 C :   -0.183756
  18 C :   -0.082333
  19 C :   -0.060207
  20 C :   -0.187756
  21 H :    0.040941
  22 C :   -0.045596
  23 H :    0.032903
  24 H :    0.033925
  25 C :   -0.023253
  26 H :    0.026837
  27 H :    0.015058
  28 C :   -0.066838
  29 H :    0.025209
  30 H :    0.024799
  31 H :    0.027859
  32 H :    0.034304
  33 H :    0.045660

  Mayer bond orders larger than 0.100000
B(  0-S ,  1-C ) :   1.1510 B(  0-S ,  4-C ) :   1.1714 B(  1-C ,  2-C ) :   1.5775
B(  1-C ,  4-C ) :   0.1051 B(  1-C , 32-H ) :   0.9669 B(  2-C ,  3-C ) :   1.2748
B(  2-C ,  6-C ) :   1.0222 B(  3-C ,  4-C ) :   1.5276 B(  3-C ,  5-H ) :   0.9902
B(  4-C , 20-C ) :   1.0180 B(  6-C ,  7-H ) :   0.9439 B(  6-C ,  8-H ) :   0.9332
B(  6-C ,  9-C ) :   1.0682 B(  9-C , 10-H ) :   0.9566 B(  9-C , 11-H ) :   0.9569
B(  9-C , 12-C ) :   1.0712 B( 12-C , 13-H ) :   0.9781 B( 12-C , 14-H ) :   0.9724
B( 12-C , 15-H ) :   0.9763 B( 16-S , 17-C ) :   1.1415 B( 16-S , 20-C ) :   1.1221
B( 17-C , 18-C ) :   1.6294 B( 17-C , 33-H ) :   0.9593 B( 18-C , 19-C ) :   1.2020
B( 18-C , 21-H ) :   0.9830 B( 19-C , 20-C ) :   1.6015 B( 19-C , 22-C ) :   1.0832
B( 22-C , 23-H ) :   0.9052 B( 22-C , 24-H ) :   0.9261 B( 22-C , 25-C ) :   1.0607
B( 25-C , 26-H ) :   0.9559 B( 25-C , 27-H ) :   0.9478 B( 25-C , 28-C ) :   1.0876
B( 28-C , 29-H ) :   0.9749 B( 28-C , 30-H ) :   0.9718 B( 28-C , 31-H ) :   0.9758

Dispersion correction           -0.014602231
FINAL SINGLE POINT ENERGY     -1339.868415621776

DIPOLE MOMENT
-------------
                                X             Y             Z
Electronic contribution:     20.87618      24.17910       0.98488
Nuclear contribution   :    -21.48586     -24.62752      -0.87038
                        -----------------------------------------
Total Dipole Moment    :     -0.60968      -0.44841       0.11450
                        -----------------------------------------
Magnitude (a.u.)       :      0.76544
Magnitude (Debye)      :      1.94559

Rotational constants in cm-1:     0.016958     0.010207     0.006856
Rotational constants in MHz :   508.396449   306.003556   205.546938

                             ****ORCA TERMINATED NORMALLY****
TOTAL RUN TIME: 0 days 0 hours 0 minutes 31 seconds 19 msec
