                         Program Version 4.2.1 -  RELEASE  -
|  1> ! wB97X-D3 SP def2-SVP
|  2> %pal
|  3> nprocs 16
|  4> end
|  5>
|  6> * xyz 0 1
|  7> S 	 -73.757 	 39.2215 	 121.915
|  8> C 	 -75.4074 	 39.5774 	 122.422
|  9> C 	 -76.329 	 38.6976 	 121.934
| 10> C 	 -75.7288 	 37.616 	 121.179
| 11> C 	 -74.3733 	 37.6785 	 121.214
| 12> H 	 -76.3195 	 36.7255 	 120.99
| 13> C 	 -77.756 	 38.6812 	 122.24
| 14> H 	 -77.8901 	 39.2398 	 123.097
| 15> H 	 -78.0247 	 37.7327 	 122.455
| 16> C 	 -78.5728 	 39.3338 	 121.084
| 17> H 	 -78.2347 	 40.3344 	 120.942
| 18> H 	 -78.4502 	 38.8089 	 120.115
| 19> C 	 -80.0768 	 39.3839 	 121.319
| 20> H 	 -80.2349 	 39.8251 	 122.33
| 21> H 	 -80.4167 	 40.1608 	 120.605
| 22> H 	 -80.6023 	 38.4597 	 121.29
| 23> S 	 -72.4312 	 37.6314 	 119.206
| 24> C 	 -71.5996 	 36.1395 	 118.837
| 25> C 	 -72.178 	 35.073 	 119.49
| 26> C 	 -73.2748 	 35.4024 	 120.374
| 27> C 	 -73.4661 	 36.7965 	 120.408
| 28> H 	 -71.8131 	 34.0594 	 119.289
| 29> C 	 -74.0209 	 34.4508 	 121.246
| 30> H 	 -74.7334 	 33.9493 	 120.54
| 31> H 	 -74.5818 	 34.9894 	 122.013
| 32> C 	 -73.0457 	 33.3879 	 121.828
| 33> H 	 -72.1782 	 33.822 	 122.321
| 34> H 	 -72.6103 	 32.8953 	 121.008
| 35> C 	 -73.8197 	 32.4416 	 122.813
| 36> H 	 -74.3425 	 32.9196 	 123.621
| 37> H 	 -73.2209 	 31.6121 	 123.29
| 38> H 	 -74.6624 	 32.0288 	 122.253
| 39> H 	 -75.6623 	 40.4048 	 122.965
| 40> H 	 -70.7883 	 36.055 	 118.178
| 41> *
| 42>
| 43>                          ****END OF INPUT****

CARTESIAN COORDINATES (ANGSTROEM)
---------------------------------
  S    -73.757000   39.221500  121.915000
  C    -75.407400   39.577400  122.422000
  C    -76.329000   38.697600  121.934000
  C    -75.728800   37.616000  121.179000
  C    -74.373300   37.678500  121.214000
  H    -76.319500   36.725500  120.990000
  C    -77.756000   38.681200  122.240000
  H    -77.890100   39.239800  123.097000
  H    -78.024700   37.732700  122.455000
  C    -78.572800   39.333800  121.084000
  H    -78.234700   40.334400  120.942000
  H    -78.450200   38.808900  120.115000
  C    -80.076800   39.383900  121.319000
  H    -80.234900   39.825100  122.330000
  H    -80.416700   40.160800  120.605000
  H    -80.602300   38.459700  121.290000
  S    -72.431200   37.631400  119.206000
  C    -71.599600   36.139500  118.837000
  C    -72.178000   35.073000  119.490000
  C    -73.274800   35.402400  120.374000
  C    -73.466100   36.796500  120.408000
  H    -71.813100   34.059400  119.289000
  C    -74.020900   34.450800  121.246000
  H    -74.733400   33.949300  120.540000
  H    -74.581800   34.989400  122.013000
  C    -73.045700   33.387900  121.828000
  H    -72.178200   33.822000  122.321000
  H    -72.610300   32.895300  121.008000
  C    -73.819700   32.441600  122.813000
  H    -74.342500   32.919600  123.621000
  H    -73.220900   31.612100  123.290000
  H    -74.662400   32.028800  122.253000
  H    -75.662300   40.404800  122.965000
  H    -70.788300   36.055000  118.178000

 Total Charge           Charge          ....    0
 Multiplicity           Mult            ....    1
 Number of Electrons    NEL             ....  134
 Basis Dimension        Dim             ....  322

ORBITAL ENERGIES
----------------

  NO   OCC          E(Eh)            E(eV)
   0   2.0000     -88.966233     -2420.8943
   1   2.0000     -88.961512     -2420.7658
   2   2.0000     -10.334324      -281.2112
   3   2.0000     -10.328965      -281.0654
   4   2.0000     -10.312215      -280.6096
   5   2.0000     -10.306195      -280.4458
   6   2.0000     -10.304478      -280.3991
   7   2.0000     -10.296649      -280.1861
   8   2.0000     -10.295121      -280.1445
   9   2.0000     -10.293615      -280.1035
  10   2.0000     -10.293229      -280.0930
  11   2.0000     -10.287312      -279.9320
  12   2.0000     -10.285949      -279.8949
  13   2.0000     -10.282002      -279.7875
  14   2.0000     -10.278408      -279.6897
  15   2.0000     -10.275620      -279.6138
  16   2.0000      -8.080054      -219.8694
  17   2.0000      -8.075695      -219.7508
  18   2.0000      -6.038694      -164.3212
  19   2.0000      -6.034887      -164.2176
  20   2.0000      -6.034272      -164.2009
  21   2.0000      -6.030525      -164.0989
  22   2.0000      -6.030275      -164.0921
  23   2.0000      -6.026430      -163.9875
  24   2.0000      -0.999303       -27.1924
  25   2.0000      -0.979190       -26.6451
  26   2.0000      -0.917087       -24.9552
  27   2.0000      -0.908254       -24.7148
  28   2.0000      -0.865681       -23.5564
  29   2.0000      -0.852871       -23.2078
  30   2.0000      -0.842014       -22.9124
  31   2.0000      -0.817365       -22.2416
  32   2.0000      -0.780763       -21.2456
  33   2.0000      -0.769030       -20.9264
  34   2.0000      -0.713119       -19.4049
  35   2.0000      -0.702034       -19.1033
  36   2.0000      -0.701087       -19.0775
  37   2.0000      -0.652846       -17.7648
  38   2.0000      -0.643720       -17.5165
  39   2.0000      -0.623469       -16.9654
  40   2.0000      -0.596186       -16.2230
  41   2.0000      -0.574446       -15.6315
  42   2.0000      -0.562891       -15.3171
  43   2.0000      -0.557490       -15.1701
  44   2.0000      -0.536165       -14.5898
  45   2.0000      -0.525578       -14.3017
  46   2.0000      -0.516491       -14.0544
  47   2.0000      -0.513740       -13.9796
  48   2.0000      -0.506466       -13.7816
  49   2.0000      -0.494722       -13.4621
  50   2.0000      -0.490736       -13.3536
  51   2.0000      -0.475887       -12.9495
  52   2.0000      -0.470555       -12.8045
  53   2.0000      -0.459038       -12.4911
  54   2.0000      -0.456013       -12.4088
  55   2.0000      -0.454471       -12.3668
  56   2.0000      -0.449526       -12.2322
  57   2.0000      -0.441964       -12.0265
  58   2.0000      -0.438085       -11.9209
  59   2.0000      -0.427464       -11.6319
  60   2.0000      -0.423177       -11.5152
  61   2.0000      -0.418328       -11.3833
  62   2.0000      -0.410448       -11.1689
  63   2.0000      -0.347016        -9.4428
  64   2.0000      -0.327240        -8.9047
  65   2.0000      -0.324096        -8.8191
  66   2.0000      -0.292992        -7.9727
  67   0.0000       0.032568         0.8862
  68   0.0000       0.067605         1.8396
  69   0.0000       0.107163         2.9161
  70   0.0000       0.120377         3.2756
  71   0.0000       0.133203         3.6246

MULLIKEN ATOMIC CHARGES
-----------------------
   0 S :    0.097503
   1 C :   -0.073159
   2 C :   -0.130165
   3 C :    0.052467
   4 C :   -0.145790
   5 H :    0.025959
   6 C :    0.176818
   7 H :   -0.012483
   8 H :   -0.009114
   9 C :   -0.105805
  10 H :    0.021303
  11 H :    0.034150
  12 C :   -0.029338
  13 H :    0.018693
  14 H :    0.039927
  15 H :    0.037168
  16 S :    0.093804
  17 C :   -0.068540
  18 C :   -0.051259
  19 C :   -0.035808
  20 C :   -0.170453
  21 H :    0.022522
  22 C :    0.062509
  23 H :    0.045455
  24 H :    0.034777
  25 C :   -0.079015
  26 H :    0.038077
  27 H :    0.021899
  28 C :   -0.041996
  29 H :    0.024493
  30 H :    0.046762
  31 H :    0.017265
  32 H :    0.003546
  33 H :    0.037828
Sum of atomic charges:    0.0000000

LOEWDIN ATOMIC CHARGES
----------------------
   0 S :    0.372529
   1 C :   -0.175748
   2 C :   -0.054424
   3 C :   -0.056119
   4 C :   -0.171111
   5 H :    0.034807
   6 C :   -0.018043
   7 H :    0.022086
   8 H :    0.015641
   9 C :   -0.032807
  10 H :    0.021484
  11 H :    0.026903
  12 C :   -0.066618
  13 H :    0.024167
  14 H :    0.034111
  15 H :    0.019267
  16 S :    0.383058
  17 C :   -0.177160
  18 C :   -0.075896
  19 C :   -0.057722
  20 C :   -0.184136
  21 H :    0.031343
  22 C :   -0.029663
  23 H :    0.040759
  24 H :    0.030582
  25 C :   -0.033010
  26 H :    0.026554
  27 H :    0.015878
  28 C :   -0.072433
  29 H :    0.022139
  30 H :    0.032266
  31 H :    0.023979
  32 H :    0.007536
  33 H :    0.019803

  Mayer bond orders larger than 0.100000
B(  0-S ,  1-C ) :   1.1093 B(  0-S ,  4-C ) :   1.1322 B(  1-C ,  2-C ) :   1.6591
B(  1-C , 32-H ) :   0.9730 B(  2-C ,  3-C ) :   1.2096 B(  2-C ,  6-C ) :   1.0418
B(  3-C ,  4-C ) :   1.6162 B(  3-C ,  5-H ) :   0.9802 B(  4-C , 20-C ) :   1.0143
B(  6-C ,  7-H ) :   0.9230 B(  6-C ,  8-H ) :   0.9289 B(  6-C ,  9-C ) :   1.0546
B(  9-C , 10-H ) :   0.9575 B(  9-C , 11-H ) :   0.9583 B(  9-C , 12-C ) :   1.0877
B( 12-C , 13-H ) :   0.9709 B( 12-C , 14-H ) :   0.9742 B( 12-C , 15-H ) :   0.9765
B( 16-S , 17-C ) :   1.1420 B( 16-S , 20-C ) :   1.1378 B( 17-C , 18-C ) :   1.6276
B( 17-C , 33-H ) :   0.9731 B( 18-C , 19-C ) :   1.2178 B( 18-C , 21-H ) :   0.9845
B( 19-C , 20-C ) :   1.6133 B( 19-C , 22-C ) :   1.0451 B( 22-C , 23-H ) :   0.9212
B( 22-C , 24-H ) :   0.9400 B( 22-C , 25-C ) :   1.0583 B( 25-C , 26-H ) :   0.9637
B( 25-C , 27-H ) :   0.9503 B( 25-C , 28-C ) :   1.0731 B( 28-C , 29-H ) :   0.9771
B( 28-C , 30-H ) :   0.9763 B( 28-C , 31-H ) :   0.9716

Dispersion correction           -0.013387066
FINAL SINGLE POINT ENERGY     -1339.866810891896

DIPOLE MOMENT
-------------
                                X             Y             Z
Electronic contribution:     20.91258      13.55438      -7.92526
Nuclear contribution   :    -21.45969     -13.95898       8.08852
                        -----------------------------------------
Total Dipole Moment    :     -0.54711      -0.40460       0.16326
                        -----------------------------------------
Magnitude (a.u.)       :      0.69978
Magnitude (Debye)      :      1.77869

Rotational constants in cm-1:     0.018020     0.007639     0.006267
Rotational constants in MHz :   540.239946   229.025434   187.886354

                             ****ORCA TERMINATED NORMALLY****
TOTAL RUN TIME: 0 days 0 hours 0 minutes 33 seconds 82 msec
