                         Program Version 4.2.1 -  RELEASE  -
|  1> ! wB97X-D3 SP def2-SVP
|  2> %pal
|  3> nprocs 16
|  4> end
|  5>
|  6> * xyz 0 1
|  7> S 	 -12.2559 	 -5.6786 	 80.1959
|  8> C 	 -13.1877 	 -7.00101 	 80.8591
|  9> C 	 -13.2145 	 -7.05647 	 82.2546
| 10> C 	 -12.1301 	 -6.18298 	 82.7024
| 11> C 	 -11.5449 	 -5.41599 	 81.7173
| 12> H 	 -11.7288 	 -6.03866 	 83.6991
| 13> C 	 -14.0001 	 -7.96513 	 83.168
| 14> H 	 -14.2084 	 -8.82298 	 82.4854
| 15> H 	 -14.9394 	 -7.46642 	 83.3725
| 16> C 	 -13.347 	 -8.5591 	 84.4171
| 17> H 	 -12.3767 	 -8.96839 	 84.1964
| 18> H 	 -13.081 	 -7.80313 	 85.1476
| 19> C 	 -14.1326 	 -9.64496 	 85.1945
| 20> H 	 -13.7707 	 -9.9196 	 86.205
| 21> H 	 -15.203 	 -9.31694 	 85.2641
| 22> H 	 -14.049 	 -10.5455 	 84.5543
| 23> S 	 -11.4575 	 -2.67705 	 81.6958
| 24> C 	 -9.93801 	 -1.93989 	 82.1501
| 25> C 	 -8.99314 	 -2.82929 	 82.6516
| 26> C 	 -9.52344 	 -4.13949 	 82.6904
| 27> C 	 -10.7301 	 -4.23671 	 82.027
| 28> H 	 -8.0855 	 -2.38977 	 83.0343
| 29> C 	 -8.69094 	 -5.28014 	 83.2715
| 30> H 	 -9.01227 	 -5.48954 	 84.2935
| 31> H 	 -7.68451 	 -4.93206 	 83.3762
| 32> C 	 -8.57796 	 -6.6442 	 82.5056
| 33> H 	 -9.48234 	 -7.23189 	 82.6623
| 34> H 	 -7.86487 	 -7.25029 	 83.0581
| 35> C 	 -8.08508 	 -6.55721 	 81.0574
| 36> H 	 -7.92036 	 -7.56464 	 80.5873
| 37> H 	 -7.1159 	 -6.0431 	 80.9728
| 38> H 	 -8.65907 	 -5.91483 	 80.3462
| 39> H 	 -13.9287 	 -7.61235 	 80.3261
| 40> H 	 -9.74301 	 -0.905985 	 82.2599
| 41> *
| 42>
| 43>                          ****END OF INPUT****

CARTESIAN COORDINATES (ANGSTROEM)
---------------------------------
  S    -12.255900   -5.678600   80.195900
  C    -13.187700   -7.001010   80.859100
  C    -13.214500   -7.056470   82.254600
  C    -12.130100   -6.182980   82.702400
  C    -11.544900   -5.415990   81.717300
  H    -11.728800   -6.038660   83.699100
  C    -14.000100   -7.965130   83.168000
  H    -14.208400   -8.822980   82.485400
  H    -14.939400   -7.466420   83.372500
  C    -13.347000   -8.559100   84.417100
  H    -12.376700   -8.968390   84.196400
  H    -13.081000   -7.803130   85.147600
  C    -14.132600   -9.644960   85.194500
  H    -13.770700   -9.919600   86.205000
  H    -15.203000   -9.316940   85.264100
  H    -14.049000  -10.545500   84.554300
  S    -11.457500   -2.677050   81.695800
  C     -9.938010   -1.939890   82.150100
  C     -8.993140   -2.829290   82.651600
  C     -9.523440   -4.139490   82.690400
  C    -10.730100   -4.236710   82.027000
  H     -8.085500   -2.389770   83.034300
  C     -8.690940   -5.280140   83.271500
  H     -9.012270   -5.489540   84.293500
  H     -7.684510   -4.932060   83.376200
  C     -8.577960   -6.644200   82.505600
  H     -9.482340   -7.231890   82.662300
  H     -7.864870   -7.250290   83.058100
  C     -8.085080   -6.557210   81.057400
  H     -7.920360   -7.564640   80.587300
  H     -7.115900   -6.043100   80.972800
  H     -8.659070   -5.914830   80.346200
  H    -13.928700   -7.612350   80.326100
  H     -9.743010   -0.905985   82.259900

 Total Charge           Charge          ....    0
 Multiplicity           Mult            ....    1
 Number of Electrons    NEL             ....  134
 Basis Dimension        Dim             ....  322

ORBITAL ENERGIES
----------------

  NO   OCC          E(Eh)            E(eV)
   0   2.0000     -88.969978     -2420.9962
   1   2.0000     -88.967597     -2420.9314
   2   2.0000     -10.322774      -280.8970
   3   2.0000     -10.319866      -280.8178
   4   2.0000     -10.315369      -280.6954
   5   2.0000     -10.309530      -280.5366
   6   2.0000     -10.308424      -280.5065
   7   2.0000     -10.301276      -280.3120
   8   2.0000     -10.300285      -280.2850
   9   2.0000     -10.290893      -280.0294
  10   2.0000     -10.290452      -280.0174
  11   2.0000     -10.290197      -280.0105
  12   2.0000     -10.289714      -279.9974
  13   2.0000     -10.288962      -279.9769
  14   2.0000     -10.283654      -279.8324
  15   2.0000     -10.277038      -279.6524
  16   2.0000      -8.085146      -220.0080
  17   2.0000      -8.082114      -219.9255
  18   2.0000      -6.043570      -164.4539
  19   2.0000      -6.040550      -164.3717
  20   2.0000      -6.039658      -164.3474
  21   2.0000      -6.036827      -164.2704
  22   2.0000      -6.035901      -164.2452
  23   2.0000      -6.032815      -164.1612
  24   2.0000      -1.009383       -27.4667
  25   2.0000      -0.984428       -26.7877
  26   2.0000      -0.913939       -24.8695
  27   2.0000      -0.899419       -24.4744
  28   2.0000      -0.868599       -23.6358
  29   2.0000      -0.848508       -23.0891
  30   2.0000      -0.845542       -23.0084
  31   2.0000      -0.810201       -22.0467
  32   2.0000      -0.784519       -21.3478
  33   2.0000      -0.772746       -21.0275
  34   2.0000      -0.711130       -19.3508
  35   2.0000      -0.700840       -19.0708
  36   2.0000      -0.683241       -18.5919
  37   2.0000      -0.660198       -17.9649
  38   2.0000      -0.639952       -17.4140
  39   2.0000      -0.613633       -16.6978
  40   2.0000      -0.585764       -15.9394
  41   2.0000      -0.574057       -15.6209
  42   2.0000      -0.564867       -15.3708
  43   2.0000      -0.548101       -14.9146
  44   2.0000      -0.536198       -14.5907
  45   2.0000      -0.528296       -14.3757
  46   2.0000      -0.511804       -13.9269
  47   2.0000      -0.501623       -13.6499
  48   2.0000      -0.497973       -13.5505
  49   2.0000      -0.490493       -13.3470
  50   2.0000      -0.487822       -13.2743
  51   2.0000      -0.478421       -13.0185
  52   2.0000      -0.470455       -12.8017
  53   2.0000      -0.466015       -12.6809
  54   2.0000      -0.455601       -12.3975
  55   2.0000      -0.453519       -12.3409
  56   2.0000      -0.445827       -12.1316
  57   2.0000      -0.436147       -11.8682
  58   2.0000      -0.435532       -11.8514
  59   2.0000      -0.428829       -11.6690
  60   2.0000      -0.421410       -11.4672
  61   2.0000      -0.413333       -11.2474
  62   2.0000      -0.405434       -11.0324
  63   2.0000      -0.341184        -9.2841
  64   2.0000      -0.332966        -9.0605
  65   2.0000      -0.327774        -8.9192
  66   2.0000      -0.289838        -7.8869
  67   0.0000       0.037650         1.0245
  68   0.0000       0.062545         1.7019
  69   0.0000       0.113698         3.0939
  70   0.0000       0.119482         3.2513
  71   0.0000       0.126617         3.4454

MULLIKEN ATOMIC CHARGES
-----------------------
   0 S :    0.131336
   1 C :   -0.118640
   2 C :   -0.106389
   3 C :    0.023065
   4 C :   -0.154306
   5 H :    0.008643
   6 C :    0.081846
   7 H :    0.026709
   8 H :    0.047168
   9 C :   -0.078572
  10 H :    0.022828
  11 H :    0.027060
  12 C :   -0.076429
  13 H :    0.047262
  14 H :    0.040842
  15 H :    0.037838
  16 S :    0.122603
  17 C :   -0.078827
  18 C :   -0.050087
  19 C :   -0.014321
  20 C :   -0.179319
  21 H :    0.018225
  22 C :    0.061483
  23 H :    0.034274
  24 H :    0.008278
  25 C :   -0.044011
  26 H :    0.030670
  27 H :    0.017358
  28 C :   -0.067387
  29 H :    0.042513
  30 H :    0.018207
  31 H :    0.038576
  32 H :    0.045593
  33 H :    0.035908
Sum of atomic charges:   -0.0000000

LOEWDIN ATOMIC CHARGES
----------------------
   0 S :    0.433818
   1 C :   -0.206602
   2 C :   -0.055335
   3 C :   -0.059904
   4 C :   -0.219327
   5 H :    0.027050
   6 C :   -0.034050
   7 H :    0.039133
   8 H :    0.036964
   9 C :   -0.047674
  10 H :    0.022890
  11 H :    0.020597
  12 C :   -0.068345
  13 H :    0.031616
  14 H :    0.029403
  15 H :    0.027243
  16 S :    0.407866
  17 C :   -0.184312
  18 C :   -0.067411
  19 C :   -0.060695
  20 C :   -0.195349
  21 H :    0.033513
  22 C :   -0.028589
  23 H :    0.033414
  24 H :    0.025505
  25 C :   -0.043674
  26 H :    0.022625
  27 H :    0.025194
  28 C :   -0.077346
  29 H :    0.032691
  30 H :    0.024234
  31 H :    0.027744
  32 H :    0.028012
  33 H :    0.019102

  Mayer bond orders larger than 0.100000
B(  0-S ,  1-C ) :   1.1451 B(  0-S ,  4-C ) :   1.1496 B(  1-C ,  2-C ) :   1.6302
B(  1-C , 32-H ) :   0.9589 B(  2-C ,  3-C ) :   1.2268 B(  2-C ,  6-C ) :   1.0155
B(  3-C ,  4-C ) :   1.5892 B(  3-C ,  5-H ) :   0.9869 B(  4-C , 20-C ) :   1.0218
B(  6-C ,  7-H ) :   0.9434 B(  6-C ,  8-H ) :   0.9226 B(  6-C ,  9-C ) :   1.0701
B(  9-C , 10-H ) :   0.9587 B(  9-C , 11-H ) :   0.9468 B(  9-C , 12-C ) :   1.0775
B( 12-C , 13-H ) :   0.9748 B( 12-C , 14-H ) :   0.9763 B( 12-C , 15-H ) :   0.9786
B( 16-S , 17-C ) :   1.1482 B( 16-S , 20-C ) :   1.1473 B( 17-C , 18-C ) :   1.6333
B( 17-C , 33-H ) :   0.9661 B( 18-C , 19-C ) :   1.2308 B( 18-C , 21-H ) :   0.9910
B( 19-C , 20-C ) :   1.6114 B( 19-C , 22-C ) :   1.0301 B( 22-C , 23-H ) :   0.9270
B( 22-C , 24-H ) :   0.9396 B( 22-C , 25-C ) :   1.0831 B( 25-C , 26-H ) :   0.9492
B( 25-C , 27-H ) :   0.9480 B( 25-C , 28-C ) :   1.0728 B( 28-C , 29-H ) :   0.9750
B( 28-C , 30-H ) :   0.9722 B( 28-C , 31-H ) :   0.9735

Dispersion correction           -0.015228080
FINAL SINGLE POINT ENERGY     -1339.870552242998

DIPOLE MOMENT
-------------
                                X             Y             Z
Electronic contribution:     -4.64349      22.18100     -14.27230
Nuclear contribution   :      4.68986     -22.51447      14.87827
                        -----------------------------------------
Total Dipole Moment    :      0.04637      -0.33346       0.60597
                        -----------------------------------------
Magnitude (a.u.)       :      0.69321
Magnitude (Debye)      :      1.76201

Rotational constants in cm-1:     0.019403     0.008496     0.007635
Rotational constants in MHz :   581.697700   254.716143   228.884199

                             ****ORCA TERMINATED NORMALLY****
TOTAL RUN TIME: 0 days 0 hours 0 minutes 32 seconds 867 msec
