                         Program Version 4.2.1 -  RELEASE  -
|  1> ! wB97X-D3 SP def2-SVP
|  2> %pal
|  3> nprocs 16
|  4> end
|  5>
|  6> * xyz 0 1
|  7> S 	 29.6672 	 -9.51236 	 80.0099
|  8> C 	 30.4568 	 -8.01722 	 79.3437
|  9> C 	 29.6854 	 -6.917 	 79.7423
| 10> C 	 28.5494 	 -7.3121 	 80.5188
| 11> C 	 28.4301 	 -8.6526 	 80.8581
| 12> H 	 27.6659 	 -6.7616 	 80.8073
| 13> C 	 29.785 	 -5.51018 	 79.3397
| 14> H 	 30.6334 	 -5.52325 	 78.6569
| 15> H 	 30.2398 	 -4.90045 	 80.1756
| 16> C 	 28.5997 	 -4.91189 	 78.5179
| 17> H 	 27.6748 	 -4.90425 	 79.1869
| 18> H 	 28.8866 	 -3.91814 	 78.1538
| 19> C 	 28.3338 	 -5.88526 	 77.3363
| 20> H 	 29.174 	 -5.93422 	 76.634
| 21> H 	 28.1192 	 -6.89434 	 77.747
| 22> H 	 27.4258 	 -5.6695 	 76.817
| 23> S 	 26.4458 	 -10.4922 	 80.9089
| 24> C 	 25.3504 	 -10.5939 	 82.2632
| 25> C 	 25.6588 	 -9.67223 	 83.2625
| 26> C 	 26.8051 	 -8.91075 	 82.8904
| 27> C 	 27.4028 	 -9.30277 	 81.7011
| 28> H 	 25.0555 	 -9.5968 	 84.1545
| 29> C 	 27.2947 	 -7.76799 	 83.7994
| 30> H 	 26.5659 	 -7.74312 	 84.6421
| 31> H 	 27.1818 	 -6.93827 	 83.0319
| 32> C 	 28.69 	 -7.90839 	 84.415
| 33> H 	 28.9862 	 -7.07348 	 85.0156
| 34> H 	 29.3555 	 -7.88171 	 83.4951
| 35> C 	 28.828 	 -9.16951 	 85.2462
| 36> H 	 28.1478 	 -9.15083 	 86.0819
| 37> H 	 29.8295 	 -9.24379 	 85.4823
| 38> H 	 28.6997 	 -10.1149 	 84.6956
| 39> H 	 31.3502 	 -8.01967 	 78.713
| 40> H 	 24.5898 	 -11.3637 	 82.388
| 41> *
| 42>
| 43>                          ****END OF INPUT****

CARTESIAN COORDINATES (ANGSTROEM)
---------------------------------
  S     29.667200   -9.512360   80.009900
  C     30.456800   -8.017220   79.343700
  C     29.685400   -6.917000   79.742300
  C     28.549400   -7.312100   80.518800
  C     28.430100   -8.652600   80.858100
  H     27.665900   -6.761600   80.807300
  C     29.785000   -5.510180   79.339700
  H     30.633400   -5.523250   78.656900
  H     30.239800   -4.900450   80.175600
  C     28.599700   -4.911890   78.517900
  H     27.674800   -4.904250   79.186900
  H     28.886600   -3.918140   78.153800
  C     28.333800   -5.885260   77.336300
  H     29.174000   -5.934220   76.634000
  H     28.119200   -6.894340   77.747000
  H     27.425800   -5.669500   76.817000
  S     26.445800  -10.492200   80.908900
  C     25.350400  -10.593900   82.263200
  C     25.658800   -9.672230   83.262500
  C     26.805100   -8.910750   82.890400
  C     27.402800   -9.302770   81.701100
  H     25.055500   -9.596800   84.154500
  C     27.294700   -7.767990   83.799400
  H     26.565900   -7.743120   84.642100
  H     27.181800   -6.938270   83.031900
  C     28.690000   -7.908390   84.415000
  H     28.986200   -7.073480   85.015600
  H     29.355500   -7.881710   83.495100
  C     28.828000   -9.169510   85.246200
  H     28.147800   -9.150830   86.081900
  H     29.829500   -9.243790   85.482300
  H     28.699700  -10.114900   84.695600
  H     31.350200   -8.019670   78.713000
  H     24.589800  -11.363700   82.388000

 Total Charge           Charge          ....    0
 Multiplicity           Mult            ....    1
 Number of Electrons    NEL             ....  134
 Basis Dimension        Dim             ....  322

ORBITAL ENERGIES
----------------

  NO   OCC          E(Eh)            E(eV)
   0   2.0000     -88.967804     -2420.9370
   1   2.0000     -88.964933     -2420.8589
   2   2.0000     -10.332245      -281.1547
   3   2.0000     -10.326068      -280.9866
   4   2.0000     -10.325502      -280.9712
   5   2.0000     -10.320745      -280.8418
   6   2.0000     -10.306062      -280.4422
   7   2.0000     -10.305478      -280.4263
   8   2.0000     -10.300542      -280.2920
   9   2.0000     -10.297183      -280.2006
  10   2.0000     -10.296051      -280.1698
  11   2.0000     -10.292838      -280.0824
  12   2.0000     -10.290319      -280.0138
  13   2.0000     -10.283266      -279.8219
  14   2.0000     -10.275420      -279.6084
  15   2.0000     -10.265773      -279.3459
  16   2.0000      -8.083105      -219.9525
  17   2.0000      -8.078979      -219.8402
  18   2.0000      -6.041547      -164.3989
  19   2.0000      -6.037581      -164.2909
  20   2.0000      -6.037376      -164.2854
  21   2.0000      -6.034060      -164.1951
  22   2.0000      -6.033416      -164.1776
  23   2.0000      -6.029825      -164.0799
  24   2.0000      -1.008930       -27.4544
  25   2.0000      -0.984060       -26.7776
  26   2.0000      -0.914457       -24.8836
  27   2.0000      -0.907682       -24.6993
  28   2.0000      -0.867043       -23.5935
  29   2.0000      -0.850493       -23.1431
  30   2.0000      -0.839155       -22.8346
  31   2.0000      -0.814045       -22.1513
  32   2.0000      -0.780953       -21.2508
  33   2.0000      -0.772315       -21.0157
  34   2.0000      -0.709440       -19.3048
  35   2.0000      -0.699722       -19.0404
  36   2.0000      -0.685768       -18.6607
  37   2.0000      -0.666328       -18.1317
  38   2.0000      -0.641256       -17.4495
  39   2.0000      -0.619124       -16.8472
  40   2.0000      -0.579968       -15.7817
  41   2.0000      -0.569431       -15.4950
  42   2.0000      -0.559009       -15.2114
  43   2.0000      -0.552430       -15.0324
  44   2.0000      -0.547525       -14.8989
  45   2.0000      -0.537863       -14.6360
  46   2.0000      -0.520385       -14.1604
  47   2.0000      -0.513932       -13.9848
  48   2.0000      -0.505256       -13.7487
  49   2.0000      -0.493487       -13.4285
  50   2.0000      -0.488411       -13.2904
  51   2.0000      -0.476340       -12.9619
  52   2.0000      -0.470595       -12.8056
  53   2.0000      -0.465610       -12.6699
  54   2.0000      -0.457409       -12.4467
  55   2.0000      -0.444537       -12.0965
  56   2.0000      -0.436890       -11.8884
  57   2.0000      -0.436335       -11.8733
  58   2.0000      -0.429256       -11.6807
  59   2.0000      -0.421053       -11.4574
  60   2.0000      -0.416008       -11.3202
  61   2.0000      -0.413641       -11.2557
  62   2.0000      -0.406380       -11.0582
  63   2.0000      -0.346352        -9.4247
  64   2.0000      -0.330678        -8.9982
  65   2.0000      -0.327204        -8.9037
  66   2.0000      -0.295683        -8.0460
  67   0.0000       0.027141         0.7386
  68   0.0000       0.067462         1.8357
  69   0.0000       0.107990         2.9386
  70   0.0000       0.120512         3.2793
  71   0.0000       0.129737         3.5303

MULLIKEN ATOMIC CHARGES
-----------------------
   0 S :    0.089120
   1 C :   -0.126356
   2 C :   -0.105223
   3 C :    0.007439
   4 C :   -0.163544
   5 H :    0.017799
   6 C :    0.065689
   7 H :   -0.003845
   8 H :    0.053098
   9 C :   -0.075333
  10 H :    0.049456
  11 H :    0.043803
  12 C :   -0.060133
  13 H :    0.034296
  14 H :    0.050644
  15 H :    0.026702
  16 S :    0.115246
  17 C :   -0.093761
  18 C :   -0.038501
  19 C :   -0.080023
  20 C :   -0.130366
  21 H :    0.022942
  22 C :    0.055037
  23 H :    0.014232
  24 H :    0.043428
  25 C :   -0.069342
  26 H :    0.029691
  27 H :    0.042960
  28 C :   -0.013753
  29 H :    0.027721
  30 H :    0.014838
  31 H :    0.036727
  32 H :    0.059443
  33 H :    0.059871
Sum of atomic charges:   -0.0000000

LOEWDIN ATOMIC CHARGES
----------------------
   0 S :    0.387397
   1 C :   -0.182719
   2 C :   -0.065559
   3 C :   -0.077132
   4 C :   -0.200164
   5 H :    0.028133
   6 C :   -0.048438
   7 H :    0.025359
   8 H :    0.041543
   9 C :   -0.033206
  10 H :    0.030085
  11 H :    0.027737
  12 C :   -0.066192
  13 H :    0.024716
  14 H :    0.034363
  15 H :    0.020990
  16 S :    0.429818
  17 C :   -0.183286
  18 C :   -0.072832
  19 C :   -0.052419
  20 C :   -0.222726
  21 H :    0.034204
  22 C :   -0.036723
  23 H :    0.025871
  24 H :    0.039345
  25 C :   -0.042670
  26 H :    0.022224
  27 H :    0.033185
  28 C :   -0.059608
  29 H :    0.022819
  30 H :    0.019529
  31 H :    0.032258
  32 H :    0.034172
  33 H :    0.029927

  Mayer bond orders larger than 0.100000
B(  0-S ,  1-C ) :   1.1279 B(  0-S ,  4-C ) :   1.1585 B(  1-C ,  2-C ) :   1.5852
B(  1-C ,  4-C ) :   0.1033 B(  1-C , 32-H ) :   0.9707 B(  2-C ,  3-C ) :   1.2242
B(  2-C ,  6-C ) :   1.0380 B(  3-C ,  4-C ) :   1.5842 B(  3-C ,  5-H ) :   0.9880
B(  4-C , 20-C ) :   1.0039 B(  6-C ,  7-H ) :   0.9318 B(  6-C ,  8-H ) :   0.9299
B(  6-C ,  9-C ) :   1.0504 B(  9-C , 10-H ) :   0.9559 B(  9-C , 11-H ) :   0.9584
B(  9-C , 12-C ) :   1.0690 B( 12-C , 13-H ) :   0.9775 B( 12-C , 14-H ) :   0.9690
B( 12-C , 15-H ) :   0.9735 B( 16-S , 17-C ) :   1.1811 B( 16-S , 20-C ) :   1.1537
B( 17-C , 18-C ) :   1.5798 B( 17-C , 20-C ) :   0.1026 B( 17-C , 33-H ) :   0.9643
B( 18-C , 19-C ) :   1.2646 B( 18-C , 21-H ) :   0.9937 B( 19-C , 20-C ) :   1.5809
B( 19-C , 22-C ) :   1.0114 B( 22-C , 23-H ) :   0.9364 B( 22-C , 24-H ) :   0.9329
B( 22-C , 25-C ) :   1.0745 B( 25-C , 26-H ) :   0.9563 B( 25-C , 27-H ) :   0.9492
B( 25-C , 28-C ) :   1.0795 B( 28-C , 29-H ) :   0.9748 B( 28-C , 30-H ) :   0.9686
B( 28-C , 31-H ) :   0.9690

Dispersion correction           -0.015620864
FINAL SINGLE POINT ENERGY     -1339.866982715700

DIPOLE MOMENT
-------------
                                X             Y             Z
Electronic contribution:     -3.23620     -17.84402      -4.82776
Nuclear contribution   :      3.10204      18.32447       4.99320
                        -----------------------------------------
Total Dipole Moment    :     -0.13415       0.48044       0.16544
                        -----------------------------------------
Magnitude (a.u.)       :      0.52554
Magnitude (Debye)      :      1.33582

Rotational constants in cm-1:     0.020046     0.008912     0.007993
Rotational constants in MHz :   600.956467   267.163414   239.617560

                             ****ORCA TERMINATED NORMALLY****
TOTAL RUN TIME: 0 days 0 hours 0 minutes 31 seconds 729 msec
