                         Program Version 4.2.1 -  RELEASE  -
|  1> ! wB97X-D3 SP def2-SVP
|  2> %pal
|  3> nprocs 16
|  4> end
|  5>
|  6> * xyz 0 1
|  7> S 	 10.3713 	 -12.2292 	 93.1528
|  8> C 	 11.3852 	 -11.9674 	 91.7814
|  9> C 	 11.0411 	 -10.8077 	 91.121
| 10> C 	 9.8366 	 -10.2596 	 91.6788
| 11> C 	 9.26831 	 -10.9918 	 92.672
| 12> H 	 9.31702 	 -9.34782 	 91.3761
| 13> C 	 11.8219 	 -10.2393 	 89.9689
| 14> H 	 12.8101 	 -10.3188 	 90.2944
| 15> H 	 11.6305 	 -9.12506 	 89.9633
| 16> C 	 11.6784 	 -10.9111 	 88.5935
| 17> H 	 12.3003 	 -10.4063 	 87.8073
| 18> H 	 11.9856 	 -11.9405 	 88.674
| 19> C 	 10.2006 	 -11.1142 	 88.1908
| 20> H 	 9.67539 	 -11.4714 	 89.0442
| 21> H 	 9.70398 	 -10.159 	 87.8902
| 22> H 	 9.9908 	 -11.8299 	 87.4269
| 23> S 	 7.70715 	 -9.01165 	 93.6349
| 24> C 	 6.24417 	 -9.40294 	 94.5139
| 25> C 	 6.10748 	 -10.7373 	 94.7954
| 26> C 	 7.21024 	 -11.4667 	 94.3014
| 27> C 	 8.09238 	 -10.6745 	 93.4818
| 28> H 	 5.20217 	 -11.2393 	 95.2325
| 29> C 	 7.33884 	 -12.9394 	 94.4331
| 30> H 	 8.27998 	 -13.0875 	 94.978
| 31> H 	 7.457 	 -13.4469 	 93.4848
| 32> C 	 6.17865 	 -13.7296 	 95.0944
| 33> H 	 5.26676 	 -13.7749 	 94.4859
| 34> H 	 5.98156 	 -13.268 	 96.056
| 35> C 	 6.56679 	 -15.1508 	 95.3759
| 36> H 	 6.5191 	 -15.6977 	 94.4859
| 37> H 	 5.91089 	 -15.7856 	 95.9444
| 38> H 	 7.55334 	 -15.3065 	 95.7746
| 39> H 	 12.2461 	 -12.6222 	 91.4883
| 40> H 	 5.50719 	 -8.66631 	 94.7343
| 41> *
| 42>
| 43>                          ****END OF INPUT****

CARTESIAN COORDINATES (ANGSTROEM)
---------------------------------
  S     10.371300  -12.229200   93.152800
  C     11.385200  -11.967400   91.781400
  C     11.041100  -10.807700   91.121000
  C      9.836600  -10.259600   91.678800
  C      9.268310  -10.991800   92.672000
  H      9.317020   -9.347820   91.376100
  C     11.821900  -10.239300   89.968900
  H     12.810100  -10.318800   90.294400
  H     11.630500   -9.125060   89.963300
  C     11.678400  -10.911100   88.593500
  H     12.300300  -10.406300   87.807300
  H     11.985600  -11.940500   88.674000
  C     10.200600  -11.114200   88.190800
  H      9.675390  -11.471400   89.044200
  H      9.703980  -10.159000   87.890200
  H      9.990800  -11.829900   87.426900
  S      7.707150   -9.011650   93.634900
  C      6.244170   -9.402940   94.513900
  C      6.107480  -10.737300   94.795400
  C      7.210240  -11.466700   94.301400
  C      8.092380  -10.674500   93.481800
  H      5.202170  -11.239300   95.232500
  C      7.338840  -12.939400   94.433100
  H      8.279980  -13.087500   94.978000
  H      7.457000  -13.446900   93.484800
  C      6.178650  -13.729600   95.094400
  H      5.266760  -13.774900   94.485900
  H      5.981560  -13.268000   96.056000
  C      6.566790  -15.150800   95.375900
  H      6.519100  -15.697700   94.485900
  H      5.910890  -15.785600   95.944400
  H      7.553340  -15.306500   95.774600
  H     12.246100  -12.622200   91.488300
  H      5.507190   -8.666310   94.734300

 Total Charge           Charge          ....    0
 Multiplicity           Mult            ....    1
 Number of Electrons    NEL             ....  134
 Basis Dimension        Dim             ....  322

ORBITAL ENERGIES
----------------

  NO   OCC          E(Eh)            E(eV)
   0   2.0000     -88.968446     -2420.9545
   1   2.0000     -88.963858     -2420.8297
   2   2.0000     -10.327102      -281.0147
   3   2.0000     -10.325924      -280.9827
   4   2.0000     -10.314214      -280.6640
   5   2.0000     -10.313956      -280.6570
   6   2.0000     -10.304761      -280.4068
   7   2.0000     -10.300896      -280.3016
   8   2.0000     -10.296871      -280.1921
   9   2.0000     -10.291218      -280.0383
  10   2.0000     -10.290562      -280.0204
  11   2.0000     -10.290502      -280.0188
  12   2.0000     -10.288104      -279.9535
  13   2.0000     -10.287700      -279.9425
  14   2.0000     -10.268869      -279.4301
  15   2.0000     -10.266331      -279.3611
  16   2.0000      -8.083497      -219.9631
  17   2.0000      -8.079236      -219.8472
  18   2.0000      -6.041838      -164.4068
  19   2.0000      -6.037948      -164.3009
  20   2.0000      -6.037690      -164.2939
  21   2.0000      -6.034459      -164.2060
  22   2.0000      -6.033732      -164.1862
  23   2.0000      -6.029946      -164.0832
  24   2.0000      -1.013250       -27.5719
  25   2.0000      -0.989937       -26.9375
  26   2.0000      -0.914927       -24.8964
  27   2.0000      -0.912799       -24.8385
  28   2.0000      -0.872053       -23.7298
  29   2.0000      -0.857626       -23.3372
  30   2.0000      -0.843531       -22.9537
  31   2.0000      -0.817964       -22.2579
  32   2.0000      -0.785636       -21.3782
  33   2.0000      -0.769563       -20.9409
  34   2.0000      -0.711224       -19.3534
  35   2.0000      -0.703425       -19.1412
  36   2.0000      -0.694557       -18.8999
  37   2.0000      -0.658646       -17.9227
  38   2.0000      -0.633308       -17.2332
  39   2.0000      -0.612924       -16.6785
  40   2.0000      -0.602554       -16.3963
  41   2.0000      -0.577447       -15.7131
  42   2.0000      -0.573033       -15.5930
  43   2.0000      -0.551503       -15.0072
  44   2.0000      -0.542365       -14.7585
  45   2.0000      -0.525987       -14.3128
  46   2.0000      -0.515889       -14.0381
  47   2.0000      -0.509482       -13.8637
  48   2.0000      -0.507968       -13.8225
  49   2.0000      -0.493713       -13.4346
  50   2.0000      -0.485889       -13.2217
  51   2.0000      -0.480933       -13.0869
  52   2.0000      -0.467189       -12.7128
  53   2.0000      -0.465318       -12.6620
  54   2.0000      -0.461387       -12.5550
  55   2.0000      -0.459845       -12.5130
  56   2.0000      -0.446156       -12.1405
  57   2.0000      -0.442959       -12.0535
  58   2.0000      -0.434635       -11.8270
  59   2.0000      -0.425576       -11.5805
  60   2.0000      -0.422922       -11.5083
  61   2.0000      -0.412105       -11.2139
  62   2.0000      -0.407308       -11.0834
  63   2.0000      -0.357070        -9.7164
  64   2.0000      -0.332454        -9.0465
  65   2.0000      -0.328599        -8.9416
  66   2.0000      -0.282348        -7.6831
  67   0.0000       0.020541         0.5589
  68   0.0000       0.084113         2.2888
  69   0.0000       0.110386         3.0038
  70   0.0000       0.122460         3.3323
  71   0.0000       0.130164         3.5419

MULLIKEN ATOMIC CHARGES
-----------------------
   0 S :    0.096225
   1 C :   -0.134102
   2 C :   -0.121879
   3 C :   -0.018523
   4 C :   -0.109593
   5 H :    0.013840
   6 C :    0.092229
   7 H :    0.015234
   8 H :    0.033406
   9 C :   -0.052195
  10 H :    0.045806
  11 H :    0.019446
  12 C :   -0.060156
  13 H :    0.035019
  14 H :    0.027346
  15 H :    0.027382
  16 S :    0.109039
  17 C :   -0.073598
  18 C :   -0.050476
  19 C :   -0.040788
  20 C :   -0.138036
  21 H :    0.048976
  22 C :    0.017510
  23 H :    0.042756
  24 H :    0.037734
  25 C :   -0.080885
  26 H :    0.041099
  27 H :    0.029533
  28 C :   -0.004213
  29 H :    0.001887
  30 H :    0.017721
  31 H :    0.022509
  32 H :    0.065590
  33 H :    0.044157
Sum of atomic charges:    0.0000000

LOEWDIN ATOMIC CHARGES
----------------------
   0 S :    0.427602
   1 C :   -0.210980
   2 C :   -0.066291
   3 C :   -0.078060
   4 C :   -0.198332
   5 H :    0.026575
   6 C :   -0.033133
   7 H :    0.025462
   8 H :    0.038054
   9 C :   -0.037355
  10 H :    0.030905
  11 H :    0.022665
  12 C :   -0.067645
  13 H :    0.023944
  14 H :    0.024735
  15 H :    0.020797
  16 S :    0.434527
  17 C :   -0.181705
  18 C :   -0.076481
  19 C :   -0.055894
  20 C :   -0.212108
  21 H :    0.047470
  22 C :   -0.043528
  23 H :    0.032511
  24 H :    0.032795
  25 C :   -0.039494
  26 H :    0.029217
  27 H :    0.019855
  28 C :   -0.064697
  29 H :    0.018962
  30 H :    0.026065
  31 H :    0.023749
  32 H :    0.038580
  33 H :    0.021235

  Mayer bond orders larger than 0.100000
B(  0-S ,  1-C ) :   1.1480 B(  0-S ,  4-C ) :   1.1496 B(  1-C ,  2-C ) :   1.6028
B(  1-C , 32-H ) :   0.9628 B(  2-C ,  3-C ) :   1.2368 B(  2-C ,  6-C ) :   1.0112
B(  3-C ,  4-C ) :   1.5719 B(  3-C ,  5-H ) :   0.9929 B(  4-C , 20-C ) :   1.0622
B(  6-C ,  7-H ) :   0.9337 B(  6-C ,  8-H ) :   0.9420 B(  6-C ,  9-C ) :   1.0719
B(  9-C , 10-H ) :   0.9579 B(  9-C , 11-H ) :   0.9538 B(  9-C , 12-C ) :   1.0704
B( 12-C , 13-H ) :   0.9698 B( 12-C , 14-H ) :   0.9767 B( 12-C , 15-H ) :   0.9774
B( 16-S , 17-C ) :   1.1708 B( 16-S , 20-C ) :   1.1619 B( 17-C , 18-C ) :   1.5653
B( 17-C , 20-C ) :   0.1030 B( 17-C , 33-H ) :   0.9667 B( 18-C , 19-C ) :   1.3086
B( 18-C , 21-H ) :   0.9729 B( 19-C , 20-C ) :   1.5145 B( 19-C , 22-C ) :   1.0325
B( 22-C , 23-H ) :   0.9215 B( 22-C , 24-H ) :   0.9359 B( 22-C , 25-C ) :   1.0869
B( 25-C , 26-H ) :   0.9525 B( 25-C , 27-H ) :   0.9473 B( 25-C , 28-C ) :   1.0909
B( 28-C , 29-H ) :   0.9662 B( 28-C , 30-H ) :   0.9688 B( 28-C , 31-H ) :   0.9731

Dispersion correction           -0.013920647
FINAL SINGLE POINT ENERGY     -1339.876745163691

DIPOLE MOMENT
-------------
                                X             Y             Z
Electronic contribution:      1.68097      13.21815       9.65831
Nuclear contribution   :     -1.78418     -13.46573      -9.81234
                        -----------------------------------------
Total Dipole Moment    :     -0.10321      -0.24758      -0.15403
                        -----------------------------------------
Magnitude (a.u.)       :      0.30931
Magnitude (Debye)      :      0.78621

Rotational constants in cm-1:     0.021051     0.007829     0.006457
Rotational constants in MHz :   631.087189   234.699752   193.575374

                             ****ORCA TERMINATED NORMALLY****
TOTAL RUN TIME: 0 days 0 hours 0 minutes 33 seconds 17 msec
