                         Program Version 4.2.1 -  RELEASE  -
|  1> ! wB97X-D3 SP def2-SVP
|  2> %pal
|  3> nprocs 16
|  4> end
|  5>
|  6> * xyz 0 1
|  7> S 	 -42.666 	 33.1919 	 82.9199
|  8> C 	 -44.2401 	 33.8303 	 82.2845
|  9> C 	 -44.9413 	 32.8635 	 81.5715
| 10> C 	 -44.1284 	 31.6886 	 81.4153
| 11> C 	 -42.9125 	 31.6784 	 82.0403
| 12> H 	 -44.3964 	 30.8077 	 80.7769
| 13> C 	 -46.2327 	 33.0359 	 80.7378
| 14> H 	 -46.2951 	 32.2241 	 80.0591
| 15> H 	 -46.3733 	 33.9797 	 80.1792
| 16> C 	 -47.5648 	 32.7688 	 81.4237
| 17> H 	 -47.3992 	 31.6915 	 81.6868
| 18> H 	 -47.6089 	 33.2311 	 82.4346
| 19> C 	 -48.8184 	 33.0797 	 80.634
| 20> H 	 -48.9913 	 32.4993 	 79.7049
| 21> H 	 -49.727 	 32.931 	 81.2436
| 22> H 	 -48.8131 	 34.0785 	 80.3469
| 23> S 	 -40.9723 	 30.2709 	 80.4382
| 24> C 	 -40.1992 	 28.867 	 81.2529
| 25> C 	 -40.6508 	 28.6398 	 82.531
| 26> C 	 -41.7553 	 29.4775 	 82.8573
| 27> C 	 -41.8991 	 30.562 	 81.9493
| 28> H 	 -40.2483 	 27.8107 	 83.0721
| 29> C 	 -42.5649 	 29.3832 	 84.0917
| 30> H 	 -43.2946 	 30.2339 	 84.1658
| 31> H 	 -41.8813 	 29.5748 	 84.9222
| 32> C 	 -43.2635 	 28.0082 	 84.102
| 33> H 	 -43.5861 	 27.602 	 85.072
| 34> H 	 -42.485 	 27.3205 	 83.7609
| 35> C 	 -44.4598 	 27.7824 	 83.2046
| 36> H 	 -44.1777 	 27.8835 	 82.1525
| 37> H 	 -45.1963 	 28.5844 	 83.5195
| 38> H 	 -44.7919 	 26.7787 	 83.2038
| 39> H 	 -44.5877 	 34.8495 	 82.4847
| 40> H 	 -39.6281 	 28.0782 	 80.8399
| 41> *
| 42>
| 43>                          ****END OF INPUT****

CARTESIAN COORDINATES (ANGSTROEM)
---------------------------------
  S    -42.666000   33.191900   82.919900
  C    -44.240100   33.830300   82.284500
  C    -44.941300   32.863500   81.571500
  C    -44.128400   31.688600   81.415300
  C    -42.912500   31.678400   82.040300
  H    -44.396400   30.807700   80.776900
  C    -46.232700   33.035900   80.737800
  H    -46.295100   32.224100   80.059100
  H    -46.373300   33.979700   80.179200
  C    -47.564800   32.768800   81.423700
  H    -47.399200   31.691500   81.686800
  H    -47.608900   33.231100   82.434600
  C    -48.818400   33.079700   80.634000
  H    -48.991300   32.499300   79.704900
  H    -49.727000   32.931000   81.243600
  H    -48.813100   34.078500   80.346900
  S    -40.972300   30.270900   80.438200
  C    -40.199200   28.867000   81.252900
  C    -40.650800   28.639800   82.531000
  C    -41.755300   29.477500   82.857300
  C    -41.899100   30.562000   81.949300
  H    -40.248300   27.810700   83.072100
  C    -42.564900   29.383200   84.091700
  H    -43.294600   30.233900   84.165800
  H    -41.881300   29.574800   84.922200
  C    -43.263500   28.008200   84.102000
  H    -43.586100   27.602000   85.072000
  H    -42.485000   27.320500   83.760900
  C    -44.459800   27.782400   83.204600
  H    -44.177700   27.883500   82.152500
  H    -45.196300   28.584400   83.519500
  H    -44.791900   26.778700   83.203800
  H    -44.587700   34.849500   82.484700
  H    -39.628100   28.078200   80.839900

 Total Charge           Charge          ....    0
 Multiplicity           Mult            ....    1
 Number of Electrons    NEL             ....  134
 Basis Dimension        Dim             ....  322

ORBITAL ENERGIES
----------------

  NO   OCC          E(Eh)            E(eV)
   0   2.0000     -88.970808     -2421.0188
   1   2.0000     -88.968946     -2420.9681
   2   2.0000     -10.333281      -281.1829
   3   2.0000     -10.332130      -281.1516
   4   2.0000     -10.326222      -280.9908
   5   2.0000     -10.318585      -280.7830
   6   2.0000     -10.310382      -280.5598
   7   2.0000     -10.306029      -280.4413
   8   2.0000     -10.297967      -280.2219
   9   2.0000     -10.294574      -280.1296
  10   2.0000     -10.292915      -280.0844
  11   2.0000     -10.291642      -280.0498
  12   2.0000     -10.287640      -279.9409
  13   2.0000     -10.284291      -279.8498
  14   2.0000     -10.279646      -279.7234
  15   2.0000     -10.275049      -279.5983
  16   2.0000      -8.083613      -219.9663
  17   2.0000      -8.082230      -219.9287
  18   2.0000      -6.042224      -164.4173
  19   2.0000      -6.040870      -164.3804
  20   2.0000      -6.038562      -164.3176
  21   2.0000      -6.036959      -164.2740
  22   2.0000      -6.034194      -164.1988
  23   2.0000      -6.032900      -164.1635
  24   2.0000      -0.996076       -27.1046
  25   2.0000      -0.977289       -26.5934
  26   2.0000      -0.913564       -24.8593
  27   2.0000      -0.910303       -24.7706
  28   2.0000      -0.865314       -23.5464
  29   2.0000      -0.848873       -23.0990
  30   2.0000      -0.844774       -22.9875
  31   2.0000      -0.815427       -22.1889
  32   2.0000      -0.788198       -21.4480
  33   2.0000      -0.770852       -20.9760
  34   2.0000      -0.699415       -19.0321
  35   2.0000      -0.694511       -18.8986
  36   2.0000      -0.693880       -18.8814
  37   2.0000      -0.653824       -17.7915
  38   2.0000      -0.638932       -17.3862
  39   2.0000      -0.616536       -16.7768
  40   2.0000      -0.596710       -16.2373
  41   2.0000      -0.573178       -15.5970
  42   2.0000      -0.564150       -15.3513
  43   2.0000      -0.556820       -15.1518
  44   2.0000      -0.544825       -14.8254
  45   2.0000      -0.522050       -14.2057
  46   2.0000      -0.516516       -14.0551
  47   2.0000      -0.510551       -13.8928
  48   2.0000      -0.504177       -13.7194
  49   2.0000      -0.487929       -13.2772
  50   2.0000      -0.482343       -13.1252
  51   2.0000      -0.477429       -12.9915
  52   2.0000      -0.467609       -12.7243
  53   2.0000      -0.463925       -12.6241
  54   2.0000      -0.460391       -12.5279
  55   2.0000      -0.455438       -12.3931
  56   2.0000      -0.446247       -12.1430
  57   2.0000      -0.442461       -12.0400
  58   2.0000      -0.428067       -11.6483
  59   2.0000      -0.424205       -11.5432
  60   2.0000      -0.413318       -11.2470
  61   2.0000      -0.409298       -11.1376
  62   2.0000      -0.406840       -11.0707
  63   2.0000      -0.337288        -9.1781
  64   2.0000      -0.332474        -9.0471
  65   2.0000      -0.321975        -8.7614
  66   2.0000      -0.307060        -8.3555
  67   0.0000       0.038480         1.0471
  68   0.0000       0.047961         1.3051
  69   0.0000       0.104292         2.8379
  70   0.0000       0.109360         2.9758
  71   0.0000       0.120974         3.2919

MULLIKEN ATOMIC CHARGES
-----------------------
   0 S :    0.100972
   1 C :   -0.143155
   2 C :   -0.036984
   3 C :    0.016470
   4 C :   -0.186291
   5 H :    0.034544
   6 C :    0.067840
   7 H :    0.008561
   8 H :    0.033438
   9 C :   -0.115330
  10 H :    0.021216
  11 H :    0.029115
  12 C :   -0.016887
  13 H :    0.033285
  14 H :    0.040184
  15 H :    0.016594
  16 S :    0.109688
  17 C :   -0.074284
  18 C :   -0.022894
  19 C :   -0.064067
  20 C :   -0.152497
  21 H :    0.022983
  22 C :    0.092678
  23 H :    0.036383
  24 H :    0.040270
  25 C :   -0.098809
  26 H :    0.027648
  27 H :    0.011387
  28 C :   -0.033381
  29 H :    0.024958
  30 H :    0.045766
  31 H :    0.027751
  32 H :    0.059522
  33 H :    0.043326
Sum of atomic charges:   -0.0000000

LOEWDIN ATOMIC CHARGES
----------------------
   0 S :    0.374278
   1 C :   -0.167716
   2 C :   -0.062592
   3 C :   -0.064275
   4 C :   -0.196929
   5 H :    0.039851
   6 C :   -0.031650
   7 H :    0.026646
   8 H :    0.029470
   9 C :   -0.051358
  10 H :    0.024606
  11 H :    0.022018
  12 C :   -0.064096
  13 H :    0.029476
  14 H :    0.035321
  15 H :    0.016951
  16 S :    0.372435
  17 C :   -0.164218
  18 C :   -0.067289
  19 C :   -0.045674
  20 C :   -0.193388
  21 H :    0.031474
  22 C :   -0.034929
  23 H :    0.033674
  24 H :    0.038270
  25 C :   -0.046098
  26 H :    0.023105
  27 H :    0.019809
  28 C :   -0.064750
  29 H :    0.023662
  30 H :    0.034444
  31 H :    0.022881
  32 H :    0.031384
  33 H :    0.025209

  Mayer bond orders larger than 0.100000
B(  0-S ,  1-C ) :   1.1364 B(  0-S ,  4-C ) :   1.1220 B(  1-C ,  2-C ) :   1.6190
B(  1-C , 32-H ) :   0.9689 B(  2-C ,  3-C ) :   1.2213 B(  2-C ,  6-C ) :   1.0153
B(  3-C ,  4-C ) :   1.6325 B(  3-C ,  5-H ) :   0.9789 B(  4-C , 20-C ) :   1.0082
B(  6-C ,  7-H ) :   0.9478 B(  6-C ,  8-H ) :   0.9539 B(  6-C ,  9-C ) :   1.0350
B(  9-C , 10-H ) :   0.9597 B(  9-C , 11-H ) :   0.9583 B(  9-C , 12-C ) :   1.0816
B( 12-C , 13-H ) :   0.9734 B( 12-C , 14-H ) :   0.9714 B( 12-C , 15-H ) :   0.9702
B( 16-S , 17-C ) :   1.1397 B( 16-S , 20-C ) :   1.1180 B( 17-C , 18-C ) :   1.6470
B( 17-C , 33-H ) :   0.9623 B( 18-C , 19-C ) :   1.2233 B( 18-C , 21-H ) :   0.9824
B( 19-C , 20-C ) :   1.5962 B( 19-C , 22-C ) :   1.0449 B( 22-C , 23-H ) :   0.9341
B( 22-C , 24-H ) :   0.9348 B( 22-C , 25-C ) :   1.0427 B( 25-C , 26-H ) :   0.9580
B( 25-C , 27-H ) :   0.9578 B( 25-C , 28-C ) :   1.0860 B( 28-C , 29-H ) :   0.9716
B( 28-C , 30-H ) :   0.9733 B( 28-C , 31-H ) :   0.9686

Dispersion correction           -0.014665529
FINAL SINGLE POINT ENERGY     -1339.854287944719

DIPOLE MOMENT
-------------
                                X             Y             Z
Electronic contribution:     26.15371       7.75579      -2.83720
Nuclear contribution   :    -26.65264      -8.13450       2.86548
                        -----------------------------------------
Total Dipole Moment    :     -0.49894      -0.37871       0.02828
                        -----------------------------------------
Magnitude (a.u.)       :      0.62702
Magnitude (Debye)      :      1.59377

Rotational constants in cm-1:     0.019513     0.007774     0.006861
Rotational constants in MHz :   584.971057   233.050907   205.683260

                             ****ORCA TERMINATED NORMALLY****
TOTAL RUN TIME: 0 days 0 hours 0 minutes 30 seconds 211 msec
