                         Program Version 4.2.1 -  RELEASE  -
|  1> ! wB97X-D3 SP def2-SVP
|  2> %pal
|  3> nprocs 16
|  4> end
|  5>
|  6> * xyz 0 1
|  7> S 	 -101.858 	 58.3169 	 114.453
|  8> C 	 -100.885 	 57.0934 	 113.708
|  9> C 	 -100.559 	 56.14 	 114.659
| 10> C 	 -101.085 	 56.3749 	 115.953
| 11> C 	 -101.94 	 57.463 	 115.992
| 12> H 	 -101.018 	 55.7171 	 116.803
| 13> C 	 -99.6274 	 54.9325 	 114.47
| 14> H 	 -99.1524 	 54.793 	 115.453
| 15> H 	 -98.799 	 55.2346 	 113.862
| 16> C 	 -100.271 	 53.6356 	 113.955
| 17> H 	 -101.21 	 53.4213 	 114.469
| 18> H 	 -100.474 	 53.8038 	 112.871
| 19> C 	 -99.3454 	 52.4115 	 114.191
| 20> H 	 -98.4027 	 52.8165 	 114.267
| 21> H 	 -99.7683 	 51.9053 	 115.009
| 22> H 	 -99.3775 	 51.7857 	 113.316
| 23> S 	 -104.619 	 57.7442 	 116.33
| 24> C 	 -105.238 	 58.3754 	 117.841
| 25> C 	 -104.255 	 58.5263 	 118.76
| 26> C 	 -102.926 	 58.3058 	 118.265
| 27> C 	 -102.975 	 57.8275 	 116.928
| 28> H 	 -104.632 	 58.838 	 119.786
| 29> C 	 -101.71 	 58.4777 	 119.066
| 30> H 	 -101.855 	 59.4944 	 119.441
| 31> H 	 -100.776 	 58.4009 	 118.49
| 32> C 	 -101.678 	 57.6651 	 120.37
| 33> H 	 -102.576 	 57.8757 	 120.918
| 34> H 	 -100.8 	 58.0553 	 120.981
| 35> C 	 -101.629 	 56.1264 	 120.282
| 36> H 	 -102.484 	 55.6309 	 119.815
| 37> H 	 -101.581 	 55.7536 	 121.329
| 38> H 	 -100.63 	 55.9875 	 119.791
| 39> H 	 -100.579 	 57.0607 	 112.701
| 40> H 	 -106.234 	 58.5584 	 117.992
| 41> *
| 42>
| 43>                          ****END OF INPUT****

CARTESIAN COORDINATES (ANGSTROEM)
---------------------------------
  S    -101.858000   58.316900  114.453000
  C    -100.885000   57.093400  113.708000
  C    -100.559000   56.140000  114.659000
  C    -101.085000   56.374900  115.953000
  C    -101.940000   57.463000  115.992000
  H    -101.018000   55.717100  116.803000
  C    -99.627400   54.932500  114.470000
  H    -99.152400   54.793000  115.453000
  H    -98.799000   55.234600  113.862000
  C    -100.271000   53.635600  113.955000
  H    -101.210000   53.421300  114.469000
  H    -100.474000   53.803800  112.871000
  C    -99.345400   52.411500  114.191000
  H    -98.402700   52.816500  114.267000
  H    -99.768300   51.905300  115.009000
  H    -99.377500   51.785700  113.316000
  S    -104.619000   57.744200  116.330000
  C    -105.238000   58.375400  117.841000
  C    -104.255000   58.526300  118.760000
  C    -102.926000   58.305800  118.265000
  C    -102.975000   57.827500  116.928000
  H    -104.632000   58.838000  119.786000
  C    -101.710000   58.477700  119.066000
  H    -101.855000   59.494400  119.441000
  H    -100.776000   58.400900  118.490000
  C    -101.678000   57.665100  120.370000
  H    -102.576000   57.875700  120.918000
  H    -100.800000   58.055300  120.981000
  C    -101.629000   56.126400  120.282000
  H    -102.484000   55.630900  119.815000
  H    -101.581000   55.753600  121.329000
  H    -100.630000   55.987500  119.791000
  H    -100.579000   57.060700  112.701000
  H    -106.234000   58.558400  117.992000

 Total Charge           Charge          ....    0
 Multiplicity           Mult            ....    1
 Number of Electrons    NEL             ....  134
 Basis Dimension        Dim             ....  322

ORBITAL ENERGIES
----------------

  NO   OCC          E(Eh)            E(eV)
   0   2.0000     -88.962115     -2420.7822
   1   2.0000     -88.962009     -2420.7793
   2   2.0000     -10.326221      -280.9908
   3   2.0000     -10.325299      -280.9657
   4   2.0000     -10.309717      -280.5417
   5   2.0000     -10.309198      -280.5275
   6   2.0000     -10.306401      -280.4514
   7   2.0000     -10.297407      -280.2067
   8   2.0000     -10.297258      -280.2026
   9   2.0000     -10.291471      -280.0452
  10   2.0000     -10.289690      -279.9967
  11   2.0000     -10.289348      -279.9874
  12   2.0000     -10.287946      -279.9492
  13   2.0000     -10.285030      -279.8699
  14   2.0000     -10.282638      -279.8048
  15   2.0000     -10.266209      -279.3578
  16   2.0000      -8.077075      -219.7884
  17   2.0000      -8.076971      -219.7856
  18   2.0000      -6.035540      -164.2354
  19   2.0000      -6.035444      -164.2328
  20   2.0000      -6.031437      -164.1237
  21   2.0000      -6.031400      -164.1227
  22   2.0000      -6.027991      -164.0300
  23   2.0000      -6.027755      -164.0236
  24   2.0000      -1.006522       -27.3889
  25   2.0000      -0.983961       -26.7749
  26   2.0000      -0.913261       -24.8511
  27   2.0000      -0.908020       -24.7085
  28   2.0000      -0.872011       -23.7286
  29   2.0000      -0.849732       -23.1224
  30   2.0000      -0.845930       -23.0189
  31   2.0000      -0.817152       -22.2358
  32   2.0000      -0.783276       -21.3140
  33   2.0000      -0.770869       -20.9764
  34   2.0000      -0.706667       -19.2294
  35   2.0000      -0.697739       -18.9864
  36   2.0000      -0.693109       -18.8605
  37   2.0000      -0.651441       -17.7266
  38   2.0000      -0.644774       -17.5452
  39   2.0000      -0.620164       -16.8755
  40   2.0000      -0.603179       -16.4133
  41   2.0000      -0.567522       -15.4431
  42   2.0000      -0.562768       -15.3137
  43   2.0000      -0.550665       -14.9844
  44   2.0000      -0.542895       -14.7729
  45   2.0000      -0.533085       -14.5060
  46   2.0000      -0.523520       -14.2457
  47   2.0000      -0.512800       -13.9540
  48   2.0000      -0.503529       -13.7017
  49   2.0000      -0.501550       -13.6479
  50   2.0000      -0.492124       -13.3914
  51   2.0000      -0.477778       -13.0010
  52   2.0000      -0.473552       -12.8860
  53   2.0000      -0.468004       -12.7350
  54   2.0000      -0.458568       -12.4783
  55   2.0000      -0.446328       -12.1452
  56   2.0000      -0.441189       -12.0054
  57   2.0000      -0.435814       -11.8591
  58   2.0000      -0.434016       -11.8102
  59   2.0000      -0.420564       -11.4441
  60   2.0000      -0.415848       -11.3158
  61   2.0000      -0.411738       -11.2040
  62   2.0000      -0.409567       -11.1449
  63   2.0000      -0.344230        -9.3670
  64   2.0000      -0.325991        -8.8707
  65   2.0000      -0.323936        -8.8148
  66   2.0000      -0.294924        -8.0253
  67   0.0000       0.032487         0.8840
  68   0.0000       0.066366         1.8059
  69   0.0000       0.117328         3.1927
  70   0.0000       0.121289         3.3004
  71   0.0000       0.128378         3.4933

MULLIKEN ATOMIC CHARGES
-----------------------
   0 S :    0.111056
   1 C :   -0.096806
   2 C :   -0.102590
   3 C :    0.062482
   4 C :   -0.183043
   5 H :    0.009571
   6 C :    0.037811
   7 H :    0.018736
   8 H :    0.020683
   9 C :   -0.095168
  10 H :    0.030043
  11 H :    0.031858
  12 C :    0.017010
  13 H :    0.016053
  14 H :    0.034658
  15 H :    0.025361
  16 S :    0.111262
  17 C :   -0.064139
  18 C :   -0.064122
  19 C :   -0.014209
  20 C :   -0.175287
  21 H :    0.041811
  22 C :    0.100378
  23 H :    0.029757
  24 H :    0.035370
  25 C :   -0.118237
  26 H :    0.018254
  27 H :    0.041444
  28 C :   -0.064123
  29 H :    0.054147
  30 H :    0.038989
  31 H :    0.036957
  32 H :    0.031009
  33 H :    0.023023
Sum of atomic charges:   -0.0000000

LOEWDIN ATOMIC CHARGES
----------------------
   0 S :    0.412122
   1 C :   -0.196952
   2 C :   -0.065418
   3 C :   -0.058903
   4 C :   -0.195015
   5 H :    0.031245
   6 C :   -0.036998
   7 H :    0.028515
   8 H :    0.024574
   9 C :   -0.037970
  10 H :    0.022535
  11 H :    0.024759
  12 C :   -0.049006
  13 H :    0.014330
  14 H :    0.024452
  15 H :    0.027404
  16 S :    0.405679
  17 C :   -0.167418
  18 C :   -0.081690
  19 C :   -0.051038
  20 C :   -0.208911
  21 H :    0.043655
  22 C :   -0.037529
  23 H :    0.042598
  24 H :    0.033590
  25 C :   -0.043856
  26 H :    0.014814
  27 H :    0.032307
  28 C :   -0.073635
  29 H :    0.028141
  30 H :    0.031381
  31 H :    0.028893
  32 H :    0.022057
  33 H :    0.011289

  Mayer bond orders larger than 0.100000
B(  0-S ,  1-C ) :   1.1412 B(  0-S ,  4-C ) :   1.1647 B(  1-C ,  2-C ) :   1.5935
B(  1-C , 32-H ) :   0.9801 B(  2-C ,  3-C ) :   1.2616 B(  2-C ,  6-C ) :   1.0121
B(  3-C ,  4-C ) :   1.5558 B(  3-C ,  5-H ) :   0.9949 B(  4-C , 20-C ) :   1.0398
B(  6-C ,  7-H ) :   0.9476 B(  6-C ,  8-H ) :   0.9375 B(  6-C ,  9-C ) :   1.0632
B(  9-C , 10-H ) :   0.9672 B(  9-C , 11-H ) :   0.9577 B(  9-C , 12-C ) :   1.0625
B( 12-C , 13-H ) :   0.9785 B( 12-C , 14-H ) :   0.9813 B( 12-C , 15-H ) :   0.9744
B( 16-S , 17-C ) :   1.1495 B( 16-S , 20-C ) :   1.1485 B( 17-C , 18-C ) :   1.6368
B( 17-C , 33-H ) :   0.9771 B( 18-C , 19-C ) :   1.2094 B( 18-C , 21-H ) :   0.9767
B( 19-C , 20-C ) :   1.5657 B( 19-C , 22-C ) :   1.0631 B( 22-C , 23-H ) :   0.9120
B( 22-C , 24-H ) :   0.9361 B( 22-C , 25-C ) :   1.0731 B( 25-C , 26-H ) :   0.9533
B( 25-C , 27-H ) :   0.9568 B( 25-C , 28-C ) :   1.0686 B( 28-C , 29-H ) :   0.9739
B( 28-C , 30-H ) :   0.9720 B( 28-C , 31-H ) :   0.9758

Dispersion correction           -0.014127072
FINAL SINGLE POINT ENERGY     -1339.869979999996

DIPOLE MOMENT
-------------
                                X             Y             Z
Electronic contribution:    -15.70506      18.61629     -10.61993
Nuclear contribution   :     15.90301     -18.91474      11.02439
                        -----------------------------------------
Total Dipole Moment    :      0.19795      -0.29845       0.40446
                        -----------------------------------------
Magnitude (a.u.)       :      0.54023
Magnitude (Debye)      :      1.37316

Rotational constants in cm-1:     0.018935     0.008241     0.006771
Rotational constants in MHz :   567.642360   247.070305   202.985761

                             ****ORCA TERMINATED NORMALLY****
TOTAL RUN TIME: 0 days 0 hours 0 minutes 34 seconds 186 msec
