                         Program Version 4.2.1 -  RELEASE  -
|  1> ! wB97X-D3 SP def2-SVP
|  2> %pal
|  3> nprocs 16
|  4> end
|  5>
|  6> * xyz 0 1
|  7> S 	 38.5774 	 10.7358 	 80.2195
|  8> C 	 39.6833 	 9.6023 	 79.4983
|  9> C 	 40.47 	 10.1567 	 78.4428
| 10> C 	 40.0928 	 11.5265 	 78.2183
| 11> C 	 39.1269 	 11.9739 	 79.0716
| 12> H 	 40.5432 	 12.098 	 77.3673
| 13> C 	 41.2707 	 9.38337 	 77.4778
| 14> H 	 42.1498 	 9.99125 	 77.422
| 15> H 	 40.8863 	 9.36373 	 76.4934
| 16> C 	 41.6433 	 7.9223 	 77.8316
| 17> H 	 42.6131 	 7.65732 	 77.3647
| 18> H 	 41.8112 	 7.76766 	 78.9765
| 19> C 	 40.5149 	 6.9365 	 77.4662
| 20> H 	 40.6274 	 6.86037 	 76.3991
| 21> H 	 40.5168 	 5.93596 	 77.9333
| 22> H 	 39.54 	 7.35151 	 77.7357
| 23> S 	 37.9708 	 13.9704 	 77.7067
| 24> C 	 37.6266 	 15.5098 	 78.4117
| 25> C 	 38.1564 	 15.5553 	 79.7405
| 26> C 	 38.5386 	 14.2333 	 80.1713
| 27> C 	 38.6428 	 13.349 	 79.1354
| 28> H 	 38.0788 	 16.4884 	 80.3106
| 29> C 	 38.9808 	 14.0037 	 81.5886
| 30> H 	 38.8456 	 12.9315 	 81.9189
| 31> H 	 38.3492 	 14.6947 	 82.1476
| 32> C 	 40.4749 	 14.3713 	 81.8854
| 33> H 	 40.615 	 14.3903 	 83.0039
| 34> H 	 40.6833 	 15.3474 	 81.4818
| 35> C 	 41.5232 	 13.419 	 81.2879
| 36> H 	 42.4627 	 13.8339 	 81.656
| 37> H 	 41.5698 	 13.3415 	 80.1907
| 38> H 	 41.4177 	 12.4161 	 81.6963
| 39> H 	 39.7067 	 8.55356 	 79.6948
| 40> H 	 37.193 	 16.335 	 77.8974
| 41> *
| 42>
| 43>                          ****END OF INPUT****

CARTESIAN COORDINATES (ANGSTROEM)
---------------------------------
  S     38.577400   10.735800   80.219500
  C     39.683300    9.602300   79.498300
  C     40.470000   10.156700   78.442800
  C     40.092800   11.526500   78.218300
  C     39.126900   11.973900   79.071600
  H     40.543200   12.098000   77.367300
  C     41.270700    9.383370   77.477800
  H     42.149800    9.991250   77.422000
  H     40.886300    9.363730   76.493400
  C     41.643300    7.922300   77.831600
  H     42.613100    7.657320   77.364700
  H     41.811200    7.767660   78.976500
  C     40.514900    6.936500   77.466200
  H     40.627400    6.860370   76.399100
  H     40.516800    5.935960   77.933300
  H     39.540000    7.351510   77.735700
  S     37.970800   13.970400   77.706700
  C     37.626600   15.509800   78.411700
  C     38.156400   15.555300   79.740500
  C     38.538600   14.233300   80.171300
  C     38.642800   13.349000   79.135400
  H     38.078800   16.488400   80.310600
  C     38.980800   14.003700   81.588600
  H     38.845600   12.931500   81.918900
  H     38.349200   14.694700   82.147600
  C     40.474900   14.371300   81.885400
  H     40.615000   14.390300   83.003900
  H     40.683300   15.347400   81.481800
  C     41.523200   13.419000   81.287900
  H     42.462700   13.833900   81.656000
  H     41.569800   13.341500   80.190700
  H     41.417700   12.416100   81.696300
  H     39.706700    8.553560   79.694800
  H     37.193000   16.335000   77.897400

 Total Charge           Charge          ....    0
 Multiplicity           Mult            ....    1
 Number of Electrons    NEL             ....  134
 Basis Dimension        Dim             ....  322

ORBITAL ENERGIES
----------------

  NO   OCC          E(Eh)            E(eV)
   0   2.0000     -88.972423     -2421.0627
   1   2.0000     -88.964000     -2420.8335
   2   2.0000     -10.331277      -281.1283
   3   2.0000     -10.317752      -280.7603
   4   2.0000     -10.316549      -280.7276
   5   2.0000     -10.314911      -280.6830
   6   2.0000     -10.304007      -280.3863
   7   2.0000     -10.300215      -280.2831
   8   2.0000     -10.298983      -280.2496
   9   2.0000     -10.298895      -280.2472
  10   2.0000     -10.298417      -280.2342
  11   2.0000     -10.289393      -279.9886
  12   2.0000     -10.289015      -279.9783
  13   2.0000     -10.285720      -279.8887
  14   2.0000     -10.279927      -279.7310
  15   2.0000     -10.269105      -279.4366
  16   2.0000      -8.086199      -220.0367
  17   2.0000      -8.079929      -219.8660
  18   2.0000      -6.044762      -164.4863
  19   2.0000      -6.040882      -164.3807
  20   2.0000      -6.038282      -164.3100
  21   2.0000      -6.036938      -164.2734
  22   2.0000      -6.034109      -164.1965
  23   2.0000      -6.030953      -164.1106
  24   2.0000      -1.010707       -27.5027
  25   2.0000      -0.984289       -26.7839
  26   2.0000      -0.915580       -24.9142
  27   2.0000      -0.902417       -24.5560
  28   2.0000      -0.865410       -23.5490
  29   2.0000      -0.855205       -23.2713
  30   2.0000      -0.845160       -22.9980
  31   2.0000      -0.810547       -22.0561
  32   2.0000      -0.782195       -21.2846
  33   2.0000      -0.770556       -20.9679
  34   2.0000      -0.706001       -19.2113
  35   2.0000      -0.695555       -18.9270
  36   2.0000      -0.687028       -18.6950
  37   2.0000      -0.665388       -18.1061
  38   2.0000      -0.636365       -17.3164
  39   2.0000      -0.615044       -16.7362
  40   2.0000      -0.592594       -16.1253
  41   2.0000      -0.577724       -15.7207
  42   2.0000      -0.556654       -15.1473
  43   2.0000      -0.545988       -14.8571
  44   2.0000      -0.537697       -14.6315
  45   2.0000      -0.536032       -14.5862
  46   2.0000      -0.518110       -14.0985
  47   2.0000      -0.511614       -13.9217
  48   2.0000      -0.500114       -13.6088
  49   2.0000      -0.496386       -13.5073
  50   2.0000      -0.491026       -13.3615
  51   2.0000      -0.480879       -13.0854
  52   2.0000      -0.472020       -12.8443
  53   2.0000      -0.466541       -12.6952
  54   2.0000      -0.455871       -12.4049
  55   2.0000      -0.453349       -12.3363
  56   2.0000      -0.441095       -12.0028
  57   2.0000      -0.428662       -11.6645
  58   2.0000      -0.428199       -11.6519
  59   2.0000      -0.424054       -11.5391
  60   2.0000      -0.419137       -11.4053
  61   2.0000      -0.415313       -11.3013
  62   2.0000      -0.413350       -11.2478
  63   2.0000      -0.347576        -9.4580
  64   2.0000      -0.328982        -8.9521
  65   2.0000      -0.325184        -8.8487
  66   2.0000      -0.289554        -7.8792
  67   0.0000       0.035454         0.9648
  68   0.0000       0.067863         1.8466
  69   0.0000       0.104611         2.8466
  70   0.0000       0.113632         3.0921
  71   0.0000       0.123811         3.3691

MULLIKEN ATOMIC CHARGES
-----------------------
   0 S :    0.127863
   1 C :   -0.117260
   2 C :   -0.092669
   3 C :   -0.003108
   4 C :   -0.126238
   5 H :    0.034940
   6 C :    0.087384
   7 H :    0.024792
   8 H :    0.031729
   9 C :   -0.129966
  10 H :    0.039588
  11 H :    0.038370
  12 C :   -0.059275
  13 H :    0.032115
  14 H :    0.043119
  15 H :    0.036063
  16 S :    0.121521
  17 C :   -0.101276
  18 C :   -0.053664
  19 C :   -0.056997
  20 C :   -0.147796
  21 H :    0.033702
  22 C :    0.061202
  23 H :    0.031375
  24 H :    0.021146
  25 C :   -0.075162
  26 H :    0.038663
  27 H :    0.016858
  28 C :   -0.047039
  29 H :    0.025990
  30 H :    0.044727
  31 H :    0.028074
  32 H :    0.039134
  33 H :    0.052094
Sum of atomic charges:   -0.0000000

LOEWDIN ATOMIC CHARGES
----------------------
   0 S :    0.414029
   1 C :   -0.203305
   2 C :   -0.056364
   3 C :   -0.066642
   4 C :   -0.182581
   5 H :    0.041234
   6 C :   -0.034147
   7 H :    0.035324
   8 H :    0.031422
   9 C :   -0.047187
  10 H :    0.027295
  11 H :    0.028559
  12 C :   -0.071671
  13 H :    0.023499
  14 H :    0.029625
  15 H :    0.024727
  16 S :    0.445357
  17 C :   -0.195855
  18 C :   -0.067898
  19 C :   -0.065707
  20 C :   -0.220439
  21 H :    0.034678
  22 C :   -0.040359
  23 H :    0.025130
  24 H :    0.030339
  25 C :   -0.036324
  26 H :    0.029568
  27 H :    0.017679
  28 C :   -0.067354
  29 H :    0.026259
  30 H :    0.027049
  31 H :    0.022631
  32 H :    0.018595
  33 H :    0.022836

  Mayer bond orders larger than 0.100000
B(  0-S ,  1-C ) :   1.1372 B(  0-S ,  4-C ) :   1.1368 B(  1-C ,  2-C ) :   1.6071
B(  1-C , 32-H ) :   0.9596 B(  2-C ,  3-C ) :   1.2454 B(  2-C ,  6-C ) :   1.0238
B(  3-C ,  4-C ) :   1.5841 B(  3-C ,  5-H ) :   0.9856 B(  4-C , 20-C ) :   1.0147
B(  6-C ,  7-H ) :   0.9215 B(  6-C ,  8-H ) :   0.9405 B(  6-C ,  9-C ) :   1.0659
B(  9-C , 10-H ) :   0.9619 B(  9-C , 11-H ) :   0.9602 B(  9-C , 12-C ) :   1.0507
B( 12-C , 13-H ) :   0.9769 B( 12-C , 14-H ) :   0.9767 B( 12-C , 15-H ) :   0.9756
B( 16-S , 17-C ) :   1.1785 B( 16-S , 20-C ) :   1.1633 B( 17-C , 18-C ) :   1.5757
B( 17-C , 20-C ) :   0.1005 B( 17-C , 33-H ) :   0.9746 B( 18-C , 19-C ) :   1.2461
B( 18-C , 21-H ) :   0.9858 B( 19-C , 20-C ) :   1.5751 B( 19-C , 22-C ) :   1.0560
B( 22-C , 23-H ) :   0.9341 B( 22-C , 24-H ) :   0.9223 B( 22-C , 25-C ) :   1.0742
B( 25-C , 26-H ) :   0.9560 B( 25-C , 27-H ) :   0.9537 B( 25-C , 28-C ) :   1.0817
B( 28-C , 29-H ) :   0.9716 B( 28-C , 30-H ) :   0.9731 B( 28-C , 31-H ) :   0.9743

Dispersion correction           -0.015681227
FINAL SINGLE POINT ENERGY     -1339.879710060648

DIPOLE MOMENT
-------------
                                X             Y             Z
Electronic contribution:    -16.45191      10.73066      -3.56784
Nuclear contribution   :     16.78804     -10.75900       3.44244
                        -----------------------------------------
Total Dipole Moment    :      0.33612      -0.02834      -0.12540
                        -----------------------------------------
Magnitude (a.u.)       :      0.35987
Magnitude (Debye)      :      0.91472

Rotational constants in cm-1:     0.024323     0.008124     0.007092
Rotational constants in MHz :   729.193721   243.548480   212.599571

                             ****ORCA TERMINATED NORMALLY****
TOTAL RUN TIME: 0 days 0 hours 0 minutes 31 seconds 48 msec
