                         Program Version 4.2.1 -  RELEASE  -
|  1> ! wB97X-D3 SP def2-SVP
|  2> %pal
|  3> nprocs 16
|  4> end
|  5>
|  6> * xyz 0 1
|  7> S 	 12.7326 	 25.2288 	 46.7635
|  8> C 	 12.9307 	 24.2482 	 48.2638
|  9> C 	 13.4121 	 22.9912 	 47.8279
| 10> C 	 13.2444 	 22.765 	 46.4081
| 11> C 	 12.8944 	 23.8795 	 45.7507
| 12> H 	 13.4294 	 21.8042 	 45.8598
| 13> C 	 13.9477 	 21.9636 	 48.7174
| 14> H 	 13.8095 	 21.0184 	 48.1361
| 15> H 	 13.2957 	 21.893 	 49.5699
| 16> C 	 15.4103 	 22.1209 	 49.2278
| 17> H 	 15.4136 	 22.9414 	 49.8973
| 18> H 	 15.7221 	 21.2162 	 49.7852
| 19> C 	 16.4165 	 22.3495 	 48.1174
| 20> H 	 16.4201 	 23.4206 	 47.9656
| 21> H 	 17.4715 	 22.1658 	 48.337
| 22> H 	 16.1747 	 21.8805 	 47.2012
| 23> S 	 14.1601 	 24.1687 	 43.4302
| 24> C 	 13.3057 	 24.0802 	 41.9359
| 25> C 	 11.9296 	 24.1495 	 42.15
| 26> C 	 11.6255 	 24.034 	 43.5091
| 27> C 	 12.7287 	 23.9764 	 44.3461
| 28> H 	 11.2517 	 24.1393 	 41.2918
| 29> C 	 10.2247 	 23.9373 	 43.9477
| 30> H 	 10.1701 	 23.2778 	 44.8074
| 31> H 	 9.65186 	 23.3504 	 43.2061
| 32> C 	 9.57999 	 25.276 	 44.2038
| 33> H 	 9.74472 	 25.945 	 43.3599
| 34> H 	 10.107 	 25.7328 	 45.0772
| 35> C 	 8.09513 	 25.0884 	 44.4094
| 36> H 	 7.56448 	 26.0844 	 44.4083
| 37> H 	 7.87181 	 24.6536 	 45.3318
| 38> H 	 7.49395 	 24.6384 	 43.6407
| 39> H 	 12.9898 	 24.6469 	 49.2969
| 40> H 	 13.6543 	 24.1892 	 40.867
| 41> *
| 42>
| 43>                          ****END OF INPUT****

CARTESIAN COORDINATES (ANGSTROEM)
---------------------------------
  S     12.732600   25.228800   46.763500
  C     12.930700   24.248200   48.263800
  C     13.412100   22.991200   47.827900
  C     13.244400   22.765000   46.408100
  C     12.894400   23.879500   45.750700
  H     13.429400   21.804200   45.859800
  C     13.947700   21.963600   48.717400
  H     13.809500   21.018400   48.136100
  H     13.295700   21.893000   49.569900
  C     15.410300   22.120900   49.227800
  H     15.413600   22.941400   49.897300
  H     15.722100   21.216200   49.785200
  C     16.416500   22.349500   48.117400
  H     16.420100   23.420600   47.965600
  H     17.471500   22.165800   48.337000
  H     16.174700   21.880500   47.201200
  S     14.160100   24.168700   43.430200
  C     13.305700   24.080200   41.935900
  C     11.929600   24.149500   42.150000
  C     11.625500   24.034000   43.509100
  C     12.728700   23.976400   44.346100
  H     11.251700   24.139300   41.291800
  C     10.224700   23.937300   43.947700
  H     10.170100   23.277800   44.807400
  H      9.651860   23.350400   43.206100
  C      9.579990   25.276000   44.203800
  H      9.744720   25.945000   43.359900
  H     10.107000   25.732800   45.077200
  C      8.095130   25.088400   44.409400
  H      7.564480   26.084400   44.408300
  H      7.871810   24.653600   45.331800
  H      7.493950   24.638400   43.640700
  H     12.989800   24.646900   49.296900
  H     13.654300   24.189200   40.867000

 Total Charge           Charge          ....    0
 Multiplicity           Mult            ....    1
 Number of Electrons    NEL             ....  134
 Basis Dimension        Dim             ....  322

ORBITAL ENERGIES
----------------

  NO   OCC          E(Eh)            E(eV)
   0   2.0000     -88.965813     -2420.8828
   1   2.0000     -88.965664     -2420.8788
   2   2.0000     -10.323088      -280.9055
   3   2.0000     -10.319448      -280.8064
   4   2.0000     -10.317229      -280.7461
   5   2.0000     -10.314804      -280.6801
   6   2.0000     -10.304659      -280.4040
   7   2.0000     -10.294203      -280.1195
   8   2.0000     -10.293348      -280.0963
   9   2.0000     -10.289028      -279.9787
  10   2.0000     -10.288394      -279.9614
  11   2.0000     -10.286393      -279.9070
  12   2.0000     -10.281327      -279.7691
  13   2.0000     -10.278437      -279.6905
  14   2.0000     -10.268785      -279.4278
  15   2.0000     -10.267643      -279.3968
  16   2.0000      -8.081481      -219.9083
  17   2.0000      -8.080371      -219.8781
  18   2.0000      -6.039885      -164.3536
  19   2.0000      -6.038934      -164.3277
  20   2.0000      -6.035740      -164.2408
  21   2.0000      -6.034846      -164.2165
  22   2.0000      -6.032403      -164.1500
  23   2.0000      -6.031075      -164.1139
  24   2.0000      -1.017915       -27.6989
  25   2.0000      -0.989528       -26.9264
  26   2.0000      -0.917095       -24.9554
  27   2.0000      -0.914468       -24.8839
  28   2.0000      -0.872212       -23.7341
  29   2.0000      -0.852747       -23.2044
  30   2.0000      -0.847609       -23.0646
  31   2.0000      -0.816400       -22.2154
  32   2.0000      -0.783276       -21.3140
  33   2.0000      -0.768022       -20.8990
  34   2.0000      -0.708263       -19.2728
  35   2.0000      -0.705475       -19.1970
  36   2.0000      -0.693596       -18.8737
  37   2.0000      -0.662419       -18.0253
  38   2.0000      -0.638253       -17.3678
  39   2.0000      -0.613397       -16.6914
  40   2.0000      -0.594719       -16.1831
  41   2.0000      -0.572008       -15.5651
  42   2.0000      -0.561787       -15.2870
  43   2.0000      -0.552732       -15.0406
  44   2.0000      -0.547186       -14.8897
  45   2.0000      -0.523400       -14.2424
  46   2.0000      -0.518186       -14.1006
  47   2.0000      -0.511920       -13.9301
  48   2.0000      -0.509457       -13.8630
  49   2.0000      -0.503666       -13.7054
  50   2.0000      -0.491181       -13.3657
  51   2.0000      -0.475016       -12.9258
  52   2.0000      -0.470907       -12.8140
  53   2.0000      -0.464806       -12.6480
  54   2.0000      -0.460747       -12.5376
  55   2.0000      -0.448899       -12.2152
  56   2.0000      -0.443050       -12.0560
  57   2.0000      -0.435046       -11.8382
  58   2.0000      -0.431773       -11.7491
  59   2.0000      -0.425408       -11.5759
  60   2.0000      -0.413086       -11.2407
  61   2.0000      -0.411923       -11.2090
  62   2.0000      -0.408585       -11.1182
  63   2.0000      -0.336218        -9.1490
  64   2.0000      -0.328764        -8.9461
  65   2.0000      -0.317776        -8.6471
  66   2.0000      -0.310669        -8.4537
  67   0.0000       0.039120         1.0645
  68   0.0000       0.057748         1.5714
  69   0.0000       0.110997         3.0204
  70   0.0000       0.120972         3.2918
  71   0.0000       0.127388         3.4664

MULLIKEN ATOMIC CHARGES
-----------------------
   0 S :    0.115539
   1 C :   -0.136140
   2 C :   -0.109327
   3 C :    0.021340
   4 C :   -0.146800
   5 H :    0.036798
   6 C :    0.049469
   7 H :    0.023409
   8 H :    0.027556
   9 C :   -0.045935
  10 H :    0.016415
  11 H :    0.036508
  12 C :   -0.038198
  13 H :    0.027205
  14 H :    0.031054
  15 H :    0.023403
  16 S :    0.134222
  17 C :   -0.105980
  18 C :   -0.063365
  19 C :    0.002971
  20 C :   -0.197261
  21 H :    0.024188
  22 C :    0.055741
  23 H :    0.018110
  24 H :    0.011848
  25 C :   -0.051115
  26 H :    0.021636
  27 H :    0.032031
  28 C :   -0.020532
  29 H :    0.022036
  30 H :    0.020445
  31 H :    0.022180
  32 H :    0.069094
  33 H :    0.071454
Sum of atomic charges:   -0.0000000

LOEWDIN ATOMIC CHARGES
----------------------
   0 S :    0.414749
   1 C :   -0.197368
   2 C :   -0.057349
   3 C :   -0.069365
   4 C :   -0.218940
   5 H :    0.044031
   6 C :   -0.038869
   7 H :    0.032930
   8 H :    0.032052
   9 C :   -0.031447
  10 H :    0.016648
  11 H :    0.027595
  12 C :   -0.067631
  13 H :    0.029196
  14 H :    0.028024
  15 H :    0.018547
  16 S :    0.446279
  17 C :   -0.208720
  18 C :   -0.075672
  19 C :   -0.055760
  20 C :   -0.223579
  21 H :    0.034791
  22 C :   -0.037829
  23 H :    0.029394
  24 H :    0.028916
  25 C :   -0.036970
  26 H :    0.022948
  27 H :    0.027078
  28 C :   -0.067360
  29 H :    0.031869
  30 H :    0.017482
  31 H :    0.023050
  32 H :    0.037228
  33 H :    0.044054

  Mayer bond orders larger than 0.100000
B(  0-S ,  1-C ) :   1.1184 B(  0-S ,  4-C ) :   1.1649 B(  1-C ,  2-C ) :   1.5932
B(  1-C , 32-H ) :   0.9697 B(  2-C ,  3-C ) :   1.2181 B(  2-C ,  6-C ) :   1.0360
B(  3-C ,  4-C ) :   1.6012 B(  3-C ,  5-H ) :   0.9835 B(  4-C , 20-C ) :   1.0095
B(  6-C ,  7-H ) :   0.9409 B(  6-C ,  8-H ) :   0.9367 B(  6-C ,  9-C ) :   1.0664
B(  9-C , 10-H ) :   0.9599 B(  9-C , 11-H ) :   0.9594 B(  9-C , 12-C ) :   1.0722
B( 12-C , 13-H ) :   0.9699 B( 12-C , 14-H ) :   0.9746 B( 12-C , 15-H ) :   0.9797
B( 16-S , 17-C ) :   1.1786 B( 16-S , 20-C ) :   1.1640 B( 17-C , 18-C ) :   1.5817
B( 17-C , 20-C ) :   0.1108 B( 17-C , 33-H ) :   0.9572 B( 18-C , 19-C ) :   1.2757
B( 18-C , 21-H ) :   0.9881 B( 19-C , 20-C ) :   1.5655 B( 19-C , 22-C ) :   1.0579
B( 22-C , 23-H ) :   0.9221 B( 22-C , 24-H ) :   0.9361 B( 22-C , 25-C ) :   1.0632
B( 25-C , 26-H ) :   0.9570 B( 25-C , 27-H ) :   0.9440 B( 25-C , 28-C ) :   1.0874
B( 28-C , 29-H ) :   0.9694 B( 28-C , 30-H ) :   0.9729 B( 28-C , 31-H ) :   0.9726

Dispersion correction           -0.014930203
FINAL SINGLE POINT ENERGY     -1339.869605147332

DIPOLE MOMENT
-------------
                                X             Y             Z
Electronic contribution:      7.04740       6.47222      -8.08261
Nuclear contribution   :     -7.14007      -6.73799       8.16347
                        -----------------------------------------
Total Dipole Moment    :     -0.09267      -0.26577       0.08086
                        -----------------------------------------
Magnitude (a.u.)       :      0.29285
Magnitude (Debye)      :      0.74437

Rotational constants in cm-1:     0.021709     0.008672     0.006913
Rotational constants in MHz :   650.814618   259.979413   207.240657

                             ****ORCA TERMINATED NORMALLY****
TOTAL RUN TIME: 0 days 0 hours 0 minutes 35 seconds 602 msec
