                         Program Version 4.2.1 -  RELEASE  -
|  1> ! wB97X-D3 SP def2-SVP
|  2> %pal
|  3> nprocs 16
|  4> end
|  5>
|  6> * xyz 0 1
|  7> S 	 54.7235 	 2.47375 	 77.4615
|  8> C 	 53.1535 	 2.50498 	 78.2924
|  9> C 	 53.3706 	 2.76656 	 79.6251
| 10> C 	 54.732 	 3.02858 	 79.9353
| 11> C 	 55.6069 	 2.88462 	 78.8517
| 12> H 	 55.1392 	 3.49229 	 80.8304
| 13> C 	 52.2513 	 3.01552 	 80.6415
| 14> H 	 51.1965 	 3.07439 	 80.2732
| 15> H 	 52.483 	 3.92394 	 81.2343
| 16> C 	 52.1408 	 1.82428 	 81.6405
| 17> H 	 52.1061 	 1.00883 	 80.9584
| 18> H 	 53.105 	 1.60206 	 82.1145
| 19> C 	 50.9493 	 1.89631 	 82.5661
| 20> H 	 49.9344 	 1.94668 	 82.1142
| 21> H 	 50.9976 	 1.07549 	 83.2835
| 22> H 	 50.923 	 2.85592 	 83.1557
| 23> S 	 57.4868 	 4.88195 	 78.768
| 24> C 	 59.1688 	 4.48446 	 78.5672
| 25> C 	 59.2706 	 3.08454 	 78.4361
| 26> C 	 58.0549 	 2.32 	 78.6068
| 27> C 	 57.0035 	 3.16597 	 78.8032
| 28> H 	 60.2485 	 2.68309 	 78.194
| 29> C 	 58.1243 	 0.842718 	 78.2437
| 30> H 	 59.1579 	 0.681254 	 77.8293
| 31> H 	 57.519 	 0.623382 	 77.3276
| 32> C 	 57.7287 	 -0.0860645 	 79.4668
| 33> H 	 56.6874 	 -0.29203 	 79.5981
| 34> H 	 58.0812 	 0.329813 	 80.3699
| 35> C 	 58.2884 	 -1.50673 	 79.3792
| 36> H 	 58.0961 	 -1.97532 	 78.3553
| 37> H 	 57.9618 	 -2.11929 	 80.1869
| 38> H 	 59.4233 	 -1.51366 	 79.372
| 39> H 	 52.1962 	 2.25362 	 77.9074
| 40> H 	 60.0485 	 5.18037 	 78.4926
| 41> *
| 42>
| 43>                          ****END OF INPUT****

CARTESIAN COORDINATES (ANGSTROEM)
---------------------------------
  S     54.723500    2.473750   77.461500
  C     53.153500    2.504980   78.292400
  C     53.370600    2.766560   79.625100
  C     54.732000    3.028580   79.935300
  C     55.606900    2.884620   78.851700
  H     55.139200    3.492290   80.830400
  C     52.251300    3.015520   80.641500
  H     51.196500    3.074390   80.273200
  H     52.483000    3.923940   81.234300
  C     52.140800    1.824280   81.640500
  H     52.106100    1.008830   80.958400
  H     53.105000    1.602060   82.114500
  C     50.949300    1.896310   82.566100
  H     49.934400    1.946680   82.114200
  H     50.997600    1.075490   83.283500
  H     50.923000    2.855920   83.155700
  S     57.486800    4.881950   78.768000
  C     59.168800    4.484460   78.567200
  C     59.270600    3.084540   78.436100
  C     58.054900    2.320000   78.606800
  C     57.003500    3.165970   78.803200
  H     60.248500    2.683090   78.194000
  C     58.124300    0.842718   78.243700
  H     59.157900    0.681254   77.829300
  H     57.519000    0.623382   77.327600
  C     57.728700   -0.086065   79.466800
  H     56.687400   -0.292030   79.598100
  H     58.081200    0.329813   80.369900
  C     58.288400   -1.506730   79.379200
  H     58.096100   -1.975320   78.355300
  H     57.961800   -2.119290   80.186900
  H     59.423300   -1.513660   79.372000
  H     52.196200    2.253620   77.907400
  H     60.048500    5.180370   78.492600

 Total Charge           Charge          ....    0
 Multiplicity           Mult            ....    1
 Number of Electrons    NEL             ....  134
 Basis Dimension        Dim             ....  322

ORBITAL ENERGIES
----------------

  NO   OCC          E(Eh)            E(eV)
   0   2.0000     -88.967080     -2420.9173
   1   2.0000     -88.966465     -2420.9006
   2   2.0000     -10.325294      -280.9655
   3   2.0000     -10.324673      -280.9486
   4   2.0000     -10.323757      -280.9237
   5   2.0000     -10.314565      -280.6736
   6   2.0000     -10.305230      -280.4196
   7   2.0000     -10.305140      -280.4171
   8   2.0000     -10.302660      -280.3496
   9   2.0000     -10.297019      -280.1961
  10   2.0000     -10.295611      -280.1578
  11   2.0000     -10.293816      -280.1090
  12   2.0000     -10.284703      -279.8610
  13   2.0000     -10.282520      -279.8016
  14   2.0000     -10.281497      -279.7738
  15   2.0000     -10.281272      -279.7676
  16   2.0000      -8.081470      -219.9080
  17   2.0000      -8.081343      -219.9045
  18   2.0000      -6.039977      -164.3561
  19   2.0000      -6.039968      -164.3559
  20   2.0000      -6.035856      -164.2440
  21   2.0000      -6.035732      -164.2406
  22   2.0000      -6.032401      -164.1500
  23   2.0000      -6.032050      -164.1404
  24   2.0000      -1.010004       -27.4836
  25   2.0000      -0.983498       -26.7624
  26   2.0000      -0.911381       -24.7999
  27   2.0000      -0.902064       -24.5464
  28   2.0000      -0.871644       -23.7186
  29   2.0000      -0.851989       -23.1838
  30   2.0000      -0.844595       -22.9826
  31   2.0000      -0.808470       -21.9996
  32   2.0000      -0.780386       -21.2354
  33   2.0000      -0.771512       -20.9939
  34   2.0000      -0.708595       -19.2819
  35   2.0000      -0.698574       -19.0092
  36   2.0000      -0.693776       -18.8786
  37   2.0000      -0.662603       -18.0303
  38   2.0000      -0.642794       -17.4913
  39   2.0000      -0.616399       -16.7731
  40   2.0000      -0.592936       -16.1346
  41   2.0000      -0.569263       -15.4904
  42   2.0000      -0.555790       -15.1238
  43   2.0000      -0.555430       -15.1140
  44   2.0000      -0.528731       -14.3875
  45   2.0000      -0.522972       -14.2308
  46   2.0000      -0.517970       -14.0947
  47   2.0000      -0.513197       -13.9648
  48   2.0000      -0.508618       -13.8402
  49   2.0000      -0.499990       -13.6054
  50   2.0000      -0.495501       -13.4833
  51   2.0000      -0.481721       -13.1083
  52   2.0000      -0.471848       -12.8396
  53   2.0000      -0.458407       -12.4739
  54   2.0000      -0.456642       -12.4259
  55   2.0000      -0.446097       -12.1389
  56   2.0000      -0.441842       -12.0231
  57   2.0000      -0.436906       -11.8888
  58   2.0000      -0.433482       -11.7956
  59   2.0000      -0.422288       -11.4910
  60   2.0000      -0.416160       -11.3243
  61   2.0000      -0.411795       -11.2055
  62   2.0000      -0.408850       -11.1254
  63   2.0000      -0.333272        -9.0688
  64   2.0000      -0.330193        -8.9850
  65   2.0000      -0.325606        -8.8602
  66   2.0000      -0.309022        -8.4089
  67   0.0000       0.038222         1.0401
  68   0.0000       0.055586         1.5126
  69   0.0000       0.108966         2.9651
  70   0.0000       0.118855         3.2342
  71   0.0000       0.128368         3.4931

MULLIKEN ATOMIC CHARGES
-----------------------
   0 S :    0.120540
   1 C :   -0.110039
   2 C :   -0.066823
   3 C :    0.031897
   4 C :   -0.172665
   5 H :    0.016337
   6 C :    0.034433
   7 H :    0.027058
   8 H :    0.036583
   9 C :   -0.076501
  10 H :    0.010264
  11 H :    0.025423
  12 C :   -0.041081
  13 H :    0.034738
  14 H :    0.040187
  15 H :    0.027734
  16 S :    0.121115
  17 C :   -0.113389
  18 C :   -0.067016
  19 C :    0.014716
  20 C :   -0.185522
  21 H :    0.018765
  22 C :    0.043777
  23 H :    0.026575
  24 H :    0.045696
  25 C :   -0.027616
  26 H :    0.039622
  27 H :    0.024297
  28 C :   -0.095654
  29 H :    0.034398
  30 H :    0.038890
  31 H :    0.026743
  32 H :    0.035369
  33 H :    0.081150
Sum of atomic charges:    0.0000000

LOEWDIN ATOMIC CHARGES
----------------------
   0 S :    0.427235
   1 C :   -0.186865
   2 C :   -0.063974
   3 C :   -0.064597
   4 C :   -0.216378
   5 H :    0.032684
   6 C :   -0.029527
   7 H :    0.032024
   8 H :    0.030324
   9 C :   -0.049884
  10 H :    0.018262
  11 H :    0.024614
  12 C :   -0.074014
  13 H :    0.028931
  14 H :    0.029219
  15 H :    0.029664
  16 S :    0.404707
  17 C :   -0.202106
  18 C :   -0.075034
  19 C :   -0.054257
  20 C :   -0.197068
  21 H :    0.025864
  22 C :   -0.029589
  23 H :    0.036021
  24 H :    0.037703
  25 C :   -0.034259
  26 H :    0.028390
  27 H :    0.020216
  28 C :   -0.073131
  29 H :    0.029350
  30 H :    0.021117
  31 H :    0.023469
  32 H :    0.024932
  33 H :    0.045958

  Mayer bond orders larger than 0.100000
B(  0-S ,  1-C ) :   1.1376 B(  0-S ,  4-C ) :   1.1787 B(  1-C ,  2-C ) :   1.5979
B(  1-C ,  4-C ) :   0.1005 B(  1-C , 32-H ) :   0.9759 B(  2-C ,  3-C ) :   1.2435
B(  2-C ,  6-C ) :   1.0258 B(  3-C ,  4-C ) :   1.5591 B(  3-C ,  5-H ) :   0.9944
B(  4-C , 20-C ) :   1.0338 B(  6-C ,  7-H ) :   0.9544 B(  6-C ,  8-H ) :   0.9442
B(  6-C ,  9-C ) :   1.0396 B(  9-C , 10-H ) :   0.9527 B(  9-C , 11-H ) :   0.9566
B(  9-C , 12-C ) :   1.0807 B( 12-C , 13-H ) :   0.9713 B( 12-C , 14-H ) :   0.9734
B( 12-C , 15-H ) :   0.9714 B( 16-S , 17-C ) :   1.1516 B( 16-S , 20-C ) :   1.1399
B( 17-C , 18-C ) :   1.6164 B( 17-C , 33-H ) :   0.9607 B( 18-C , 19-C ) :   1.2292
B( 18-C , 21-H ) :   0.9825 B( 19-C , 20-C ) :   1.6035 B( 19-C , 22-C ) :   1.0384
B( 22-C , 23-H ) :   0.9474 B( 22-C , 24-H ) :   0.9338 B( 22-C , 25-C ) :   1.0335
B( 25-C , 26-H ) :   0.9551 B( 25-C , 27-H ) :   0.9634 B( 25-C , 28-C ) :   1.0862
B( 28-C , 29-H ) :   0.9724 B( 28-C , 30-H ) :   0.9758 B( 28-C , 31-H ) :   0.9763

Dispersion correction           -0.013900333
FINAL SINGLE POINT ENERGY     -1339.870318089847

DIPOLE MOMENT
-------------
                                X             Y             Z
Electronic contribution:      8.14963      18.59247     -15.03301
Nuclear contribution   :     -8.15459     -18.84592      15.22885
                        -----------------------------------------
Total Dipole Moment    :     -0.00496      -0.25345       0.19584
                        -----------------------------------------
Magnitude (a.u.)       :      0.32034
Magnitude (Debye)      :      0.81423

Rotational constants in cm-1:     0.018102     0.007991     0.006679
Rotational constants in MHz :   542.676247   239.573442   200.218182

                             ****ORCA TERMINATED NORMALLY****
TOTAL RUN TIME: 0 days 0 hours 0 minutes 29 seconds 47 msec
