                         Program Version 4.2.1 -  RELEASE  -
|  1> ! wB97X-D3 SP def2-SVP
|  2> %pal
|  3> nprocs 16
|  4> end
|  5>
|  6> * xyz 0 1
|  7> S 	 50.5859 	 25.1549 	 88.0162
|  8> C 	 50.4677 	 25.53 	 89.7231
|  9> C 	 51.5275 	 25.0114 	 90.4255
| 10> C 	 52.4818 	 24.3016 	 89.4974
| 11> C 	 52.2161 	 24.4521 	 88.1331
| 12> H 	 53.1912 	 23.6686 	 89.8296
| 13> C 	 51.5145 	 25.0968 	 91.9165
| 14> H 	 50.9184 	 24.2277 	 92.2361
| 15> H 	 50.8242 	 25.8757 	 92.1964
| 16> C 	 52.8702 	 25.2088 	 92.6787
| 17> H 	 52.6653 	 25.1648 	 93.7443
| 18> H 	 53.4349 	 24.3033 	 92.378
| 19> C 	 53.6798 	 26.4948 	 92.2895
| 20> H 	 53.2595 	 27.4161 	 92.7783
| 21> H 	 54.6522 	 26.3108 	 92.8347
| 22> H 	 53.9341 	 26.6396 	 91.2063
| 23> S 	 51.7856 	 23.3593 	 85.6675
| 24> C 	 53.0958 	 22.6133 	 84.795
| 25> C 	 54.33 	 22.7033 	 85.5053
| 26> C 	 54.2266 	 23.4394 	 86.7322
| 27> C 	 52.8821 	 23.842 	 86.9873
| 28> H 	 55.1884 	 22.2962 	 84.9934
| 29> C 	 55.3298 	 23.4616 	 87.7539
| 30> H 	 55.7678 	 22.4172 	 87.7214
| 31> H 	 54.8208 	 23.5337 	 88.6519
| 32> C 	 56.297 	 24.638 	 87.5622
| 33> H 	 56.9505 	 24.6207 	 88.4578
| 34> H 	 55.8096 	 25.6019 	 87.6464
| 35> C 	 57.1381 	 24.518 	 86.3086
| 36> H 	 57.9924 	 25.2065 	 86.3196
| 37> H 	 56.572 	 24.91 	 85.4846
| 38> H 	 57.4278 	 23.5011 	 86.0964
| 39> H 	 49.5362 	 25.9235 	 90.2791
| 40> H 	 52.9029 	 22.0743 	 83.8449
| 41> *
| 42>
| 43>                          ****END OF INPUT****

CARTESIAN COORDINATES (ANGSTROEM)
---------------------------------
  S     50.585900   25.154900   88.016200
  C     50.467700   25.530000   89.723100
  C     51.527500   25.011400   90.425500
  C     52.481800   24.301600   89.497400
  C     52.216100   24.452100   88.133100
  H     53.191200   23.668600   89.829600
  C     51.514500   25.096800   91.916500
  H     50.918400   24.227700   92.236100
  H     50.824200   25.875700   92.196400
  C     52.870200   25.208800   92.678700
  H     52.665300   25.164800   93.744300
  H     53.434900   24.303300   92.378000
  C     53.679800   26.494800   92.289500
  H     53.259500   27.416100   92.778300
  H     54.652200   26.310800   92.834700
  H     53.934100   26.639600   91.206300
  S     51.785600   23.359300   85.667500
  C     53.095800   22.613300   84.795000
  C     54.330000   22.703300   85.505300
  C     54.226600   23.439400   86.732200
  C     52.882100   23.842000   86.987300
  H     55.188400   22.296200   84.993400
  C     55.329800   23.461600   87.753900
  H     55.767800   22.417200   87.721400
  H     54.820800   23.533700   88.651900
  C     56.297000   24.638000   87.562200
  H     56.950500   24.620700   88.457800
  H     55.809600   25.601900   87.646400
  C     57.138100   24.518000   86.308600
  H     57.992400   25.206500   86.319600
  H     56.572000   24.910000   85.484600
  H     57.427800   23.501100   86.096400
  H     49.536200   25.923500   90.279100
  H     52.902900   22.074300   83.844900

 Total Charge           Charge          ....    0
 Multiplicity           Mult            ....    1
 Number of Electrons    NEL             ....  134
 Basis Dimension        Dim             ....  322

ORBITAL ENERGIES
----------------

  NO   OCC          E(Eh)            E(eV)
   0   2.0000     -88.968206     -2420.9480
   1   2.0000     -88.961345     -2420.7613
   2   2.0000     -10.337759      -281.3047
   3   2.0000     -10.335061      -281.2313
   4   2.0000     -10.325210      -280.9633
   5   2.0000     -10.316637      -280.7300
   6   2.0000     -10.310555      -280.5645
   7   2.0000     -10.305352      -280.4229
   8   2.0000     -10.300804      -280.2991
   9   2.0000     -10.296861      -280.1918
  10   2.0000     -10.296319      -280.1771
  11   2.0000     -10.291536      -280.0469
  12   2.0000     -10.291088      -280.0347
  13   2.0000     -10.290048      -280.0064
  14   2.0000     -10.286602      -279.9127
  15   2.0000     -10.273366      -279.5525
  16   2.0000      -8.082544      -219.9372
  17   2.0000      -8.075741      -219.7521
  18   2.0000      -6.040998      -164.3839
  19   2.0000      -6.037027      -164.2759
  20   2.0000      -6.034545      -164.2083
  21   2.0000      -6.033462      -164.1789
  22   2.0000      -6.030415      -164.0959
  23   2.0000      -6.026068      -163.9777
  24   2.0000      -0.999243       -27.1908
  25   2.0000      -0.975437       -26.5430
  26   2.0000      -0.914326       -24.8801
  27   2.0000      -0.907239       -24.6872
  28   2.0000      -0.866264       -23.5723
  29   2.0000      -0.852388       -23.1947
  30   2.0000      -0.834684       -22.7129
  31   2.0000      -0.814965       -22.1763
  32   2.0000      -0.786509       -21.4020
  33   2.0000      -0.768043       -20.8995
  34   2.0000      -0.713146       -19.4057
  35   2.0000      -0.697663       -18.9844
  36   2.0000      -0.684737       -18.6327
  37   2.0000      -0.660910       -17.9843
  38   2.0000      -0.635488       -17.2925
  39   2.0000      -0.623695       -16.9716
  40   2.0000      -0.589973       -16.0540
  41   2.0000      -0.566204       -15.4072
  42   2.0000      -0.556629       -15.1466
  43   2.0000      -0.544704       -14.8221
  44   2.0000      -0.542233       -14.7549
  45   2.0000      -0.540501       -14.7078
  46   2.0000      -0.522165       -14.2088
  47   2.0000      -0.503049       -13.6887
  48   2.0000      -0.499201       -13.5839
  49   2.0000      -0.496447       -13.5090
  50   2.0000      -0.489335       -13.3155
  51   2.0000      -0.480215       -13.0673
  52   2.0000      -0.472249       -12.8506
  53   2.0000      -0.465084       -12.6556
  54   2.0000      -0.456298       -12.4165
  55   2.0000      -0.452138       -12.3033
  56   2.0000      -0.443721       -12.0743
  57   2.0000      -0.441444       -12.0123
  58   2.0000      -0.432640       -11.7727
  59   2.0000      -0.427120       -11.6225
  60   2.0000      -0.418916       -11.3993
  61   2.0000      -0.411161       -11.1883
  62   2.0000      -0.405665       -11.0387
  63   2.0000      -0.356736        -9.7073
  64   2.0000      -0.333754        -9.0819
  65   2.0000      -0.317251        -8.6329
  66   2.0000      -0.280947        -7.6450
  67   0.0000       0.016345         0.4448
  68   0.0000       0.079288         2.1575
  69   0.0000       0.094081         2.5601
  70   0.0000       0.115501         3.1429
  71   0.0000       0.126174         3.4334

MULLIKEN ATOMIC CHARGES
-----------------------
   0 S :    0.076803
   1 C :   -0.141923
   2 C :   -0.106526
   3 C :    0.022554
   4 C :   -0.095919
   5 H :   -0.010132
   6 C :    0.049384
   7 H :    0.039972
   8 H :    0.008518
   9 C :   -0.064222
  10 H :    0.036833
  11 H :    0.034344
  12 C :   -0.098340
  13 H :    0.045744
  14 H :    0.038188
  15 H :    0.065333
  16 S :    0.101231
  17 C :   -0.118369
  18 C :   -0.046426
  19 C :   -0.046244
  20 C :   -0.147768
  21 H :    0.024691
  22 C :    0.093062
  23 H :    0.047363
  24 H :   -0.028419
  25 C :   -0.060589
  26 H :    0.025491
  27 H :    0.034022
  28 C :   -0.028168
  29 H :    0.031648
  30 H :    0.031525
  31 H :    0.027755
  32 H :    0.082399
  33 H :    0.076185
Sum of atomic charges:   -0.0000000

LOEWDIN ATOMIC CHARGES
----------------------
   0 S :    0.376851
   1 C :   -0.213290
   2 C :   -0.059536
   3 C :   -0.061048
   4 C :   -0.177190
   5 H :    0.004086
   6 C :   -0.045062
   7 H :    0.038250
   8 H :    0.026907
   9 C :   -0.040208
  10 H :    0.027908
  11 H :    0.025666
  12 C :   -0.078920
  13 H :    0.030660
  14 H :    0.032072
  15 H :    0.035052
  16 S :    0.402589
  17 C :   -0.192629
  18 C :   -0.073894
  19 C :   -0.049398
  20 C :   -0.189605
  21 H :    0.031731
  22 C :   -0.027409
  23 H :    0.043280
  24 H :    0.017033
  25 C :   -0.036345
  26 H :    0.023753
  27 H :    0.028924
  28 C :   -0.064386
  29 H :    0.029724
  30 H :    0.026402
  31 H :    0.021269
  32 H :    0.051161
  33 H :    0.035603

  Mayer bond orders larger than 0.100000
B(  0-S ,  1-C ) :   1.1167 B(  0-S ,  4-C ) :   1.1302 B(  1-C ,  2-C ) :   1.6511
B(  1-C , 32-H ) :   0.9513 B(  2-C ,  3-C ) :   1.1990 B(  2-C ,  6-C ) :   1.0332
B(  3-C ,  4-C ) :   1.5745 B(  3-C ,  5-H ) :   0.9982 B(  4-C , 20-C ) :   1.0886
B(  6-C ,  7-H ) :   0.9300 B(  6-C ,  8-H ) :   0.9364 B(  6-C ,  9-C ) :   1.0664
B(  9-C , 10-H ) :   0.9546 B(  9-C , 11-H ) :   0.9564 B(  9-C , 12-C ) :   1.0703
B( 12-C , 13-H ) :   0.9751 B( 12-C , 14-H ) :   0.9748 B( 12-C , 15-H ) :   0.9732
B( 16-S , 17-C ) :   1.1736 B( 16-S , 20-C ) :   1.1438 B( 17-C , 18-C ) :   1.5783
B( 17-C , 20-C ) :   0.1067 B( 17-C , 33-H ) :   0.9644 B( 18-C , 19-C ) :   1.2497
B( 18-C , 21-H ) :   0.9924 B( 19-C , 20-C ) :   1.5535 B( 19-C , 22-C ) :   1.0157
B( 22-C , 23-H ) :   0.9428 B( 22-C , 24-H ) :   0.9275 B( 22-C , 25-C ) :   1.0748
B( 25-C , 26-H ) :   0.9561 B( 25-C , 27-H ) :   0.9524 B( 25-C , 28-C ) :   1.0821
B( 28-C , 29-H ) :   0.9704 B( 28-C , 30-H ) :   0.9699 B( 28-C , 31-H ) :   0.9749

Dispersion correction           -0.014296191
FINAL SINGLE POINT ENERGY     -1339.859432312558

DIPOLE MOMENT
-------------
                                X             Y             Z
Electronic contribution:    -21.60980      -5.04641     -17.59618
Nuclear contribution   :     22.05118       4.76698      18.10945
                        -----------------------------------------
Total Dipole Moment    :      0.44138      -0.27943       0.51327
                        -----------------------------------------
Magnitude (a.u.)       :      0.73235
Magnitude (Debye)      :      1.86149

Rotational constants in cm-1:     0.018272     0.009278     0.006586
Rotational constants in MHz :   547.791733   278.136279   197.440360

                             ****ORCA TERMINATED NORMALLY****
TOTAL RUN TIME: 0 days 0 hours 0 minutes 30 seconds 773 msec
