                         Program Version 4.2.1 -  RELEASE  -
|  1> ! wB97X-D3 SP def2-SVP
|  2> %pal
|  3> nprocs 16
|  4> end
|  5>
|  6> * xyz 0 1
|  7> S 	 -1.21643 	 -13.4226 	 95.8778
|  8> C 	 -2.75485 	 -14.0038 	 96.5215
|  9> C 	 -3.7457 	 -14.0199 	 95.5284
| 10> C 	 -3.29388 	 -13.3029 	 94.3814
| 11> C 	 -1.98109 	 -12.8956 	 94.4108
| 12> H 	 -3.92788 	 -13.1111 	 93.5769
| 13> C 	 -5.20056 	 -14.496 	 95.6295
| 14> H 	 -5.20635 	 -14.8828 	 96.6157
| 15> H 	 -5.38623 	 -15.4202 	 95.062
| 16> C 	 -6.26768 	 -13.4764 	 95.3389
| 17> H 	 -6.09014 	 -13.1629 	 94.3091
| 18> H 	 -7.26998 	 -13.9236 	 95.318
| 19> C 	 -6.18633 	 -12.3162 	 96.3461
| 20> H 	 -5.23579 	 -11.826 	 96.4813
| 21> H 	 -7.02795 	 -11.6845 	 96.0916
| 22> H 	 -6.4993 	 -12.6077 	 97.3566
| 23> S 	 -0.985725 	 -10.485 	 93.4205
| 24> C 	 -0.121314 	 -10.5009 	 91.8807
| 25> C 	 -0.126238 	 -11.7727 	 91.3302
| 26> C 	 -0.725767 	 -12.7719 	 92.173
| 27> C 	 -1.2289 	 -12.2542 	 93.3384
| 28> H 	 0.398826 	 -11.9402 	 90.3438
| 29> C 	 -0.848983 	 -14.2841 	 91.7893
| 30> H 	 -1.81337 	 -14.4146 	 91.288
| 31> H 	 -0.804665 	 -14.8254 	 92.693
| 32> C 	 0.254248 	 -14.8906 	 90.9096
| 33> H 	 1.25 	 -14.6859 	 91.2827
| 34> H 	 0.290627 	 -14.4527 	 89.9463
| 35> C 	 0.0763153 	 -16.4252 	 90.8067
| 36> H 	 -0.738126 	 -16.6377 	 90.1869
| 37> H 	 0.0483983 	 -16.874 	 91.8397
| 38> H 	 0.879301 	 -16.8229 	 90.1928
| 39> H 	 -2.76234 	 -14.4774 	 97.4465
| 40> H 	 0.280241 	 -9.60625 	 91.4306
| 41> *
| 42>
| 43>                          ****END OF INPUT****

CARTESIAN COORDINATES (ANGSTROEM)
---------------------------------
  S     -1.216430  -13.422600   95.877800
  C     -2.754850  -14.003800   96.521500
  C     -3.745700  -14.019900   95.528400
  C     -3.293880  -13.302900   94.381400
  C     -1.981090  -12.895600   94.410800
  H     -3.927880  -13.111100   93.576900
  C     -5.200560  -14.496000   95.629500
  H     -5.206350  -14.882800   96.615700
  H     -5.386230  -15.420200   95.062000
  C     -6.267680  -13.476400   95.338900
  H     -6.090140  -13.162900   94.309100
  H     -7.269980  -13.923600   95.318000
  C     -6.186330  -12.316200   96.346100
  H     -5.235790  -11.826000   96.481300
  H     -7.027950  -11.684500   96.091600
  H     -6.499300  -12.607700   97.356600
  S     -0.985725  -10.485000   93.420500
  C     -0.121314  -10.500900   91.880700
  C     -0.126238  -11.772700   91.330200
  C     -0.725767  -12.771900   92.173000
  C     -1.228900  -12.254200   93.338400
  H      0.398826  -11.940200   90.343800
  C     -0.848983  -14.284100   91.789300
  H     -1.813370  -14.414600   91.288000
  H     -0.804665  -14.825400   92.693000
  C      0.254248  -14.890600   90.909600
  H      1.250000  -14.685900   91.282700
  H      0.290627  -14.452700   89.946300
  C      0.076315  -16.425200   90.806700
  H     -0.738126  -16.637700   90.186900
  H      0.048398  -16.874000   91.839700
  H      0.879301  -16.822900   90.192800
  H     -2.762340  -14.477400   97.446500
  H      0.280241   -9.606250   91.430600

 Total Charge           Charge          ....    0
 Multiplicity           Mult            ....    1
 Number of Electrons    NEL             ....  134
 Basis Dimension        Dim             ....  322

ORBITAL ENERGIES
----------------

  NO   OCC          E(Eh)            E(eV)
   0   2.0000     -88.964802     -2420.8553
   1   2.0000     -88.961461     -2420.7644
   2   2.0000     -10.325210      -280.9632
   3   2.0000     -10.323642      -280.9206
   4   2.0000     -10.319565      -280.8096
   5   2.0000     -10.314881      -280.6822
   6   2.0000     -10.305307      -280.4217
   7   2.0000     -10.304047      -280.3874
   8   2.0000     -10.299205      -280.2556
   9   2.0000     -10.289746      -279.9982
  10   2.0000     -10.289219      -279.9839
  11   2.0000     -10.287722      -279.9431
  12   2.0000     -10.286511      -279.9102
  13   2.0000     -10.280879      -279.7569
  14   2.0000     -10.277141      -279.6552
  15   2.0000     -10.273201      -279.5480
  16   2.0000      -8.079601      -219.8571
  17   2.0000      -8.075641      -219.7494
  18   2.0000      -6.037967      -164.3014
  19   2.0000      -6.034178      -164.1983
  20   2.0000      -6.034111      -164.1965
  21   2.0000      -6.030501      -164.0983
  22   2.0000      -6.030256      -164.0916
  23   2.0000      -6.026369      -163.9858
  24   2.0000      -1.002404       -27.2768
  25   2.0000      -0.978987       -26.6396
  26   2.0000      -0.914903       -24.8958
  27   2.0000      -0.905151       -24.6304
  28   2.0000      -0.866469       -23.5778
  29   2.0000      -0.845990       -23.0206
  30   2.0000      -0.843008       -22.9394
  31   2.0000      -0.811610       -22.0850
  32   2.0000      -0.784135       -21.3374
  33   2.0000      -0.773238       -21.0409
  34   2.0000      -0.710639       -19.3375
  35   2.0000      -0.702833       -19.1251
  36   2.0000      -0.694468       -18.8974
  37   2.0000      -0.651289       -17.7225
  38   2.0000      -0.645910       -17.5761
  39   2.0000      -0.624601       -16.9963
  40   2.0000      -0.595402       -16.2017
  41   2.0000      -0.572593       -15.5811
  42   2.0000      -0.563999       -15.3472
  43   2.0000      -0.551880       -15.0174
  44   2.0000      -0.539360       -14.6767
  45   2.0000      -0.525041       -14.2871
  46   2.0000      -0.516916       -14.0660
  47   2.0000      -0.510348       -13.8873
  48   2.0000      -0.501949       -13.6587
  49   2.0000      -0.499226       -13.5846
  50   2.0000      -0.489365       -13.3163
  51   2.0000      -0.473903       -12.8956
  52   2.0000      -0.467741       -12.7279
  53   2.0000      -0.465279       -12.6609
  54   2.0000      -0.457826       -12.4581
  55   2.0000      -0.451760       -12.2930
  56   2.0000      -0.443424       -12.0662
  57   2.0000      -0.431563       -11.7434
  58   2.0000      -0.430650       -11.7186
  59   2.0000      -0.426810       -11.6141
  60   2.0000      -0.423211       -11.5162
  61   2.0000      -0.415681       -11.3113
  62   2.0000      -0.410796       -11.1783
  63   2.0000      -0.334841        -9.1115
  64   2.0000      -0.327523        -8.9123
  65   2.0000      -0.321175        -8.7396
  66   2.0000      -0.312168        -8.4945
  67   0.0000       0.042166         1.1474
  68   0.0000       0.056362         1.5337
  69   0.0000       0.115482         3.1424
  70   0.0000       0.121727         3.3124
  71   0.0000       0.133487         3.6324

MULLIKEN ATOMIC CHARGES
-----------------------
   0 S :    0.111782
   1 C :   -0.108675
   2 C :   -0.112542
   3 C :    0.065629
   4 C :   -0.171029
   5 H :   -0.016118
   6 C :    0.102208
   7 H :   -0.008186
   8 H :    0.034598
   9 C :   -0.065517
  10 H :    0.028631
  11 H :    0.031497
  12 C :   -0.040294
  13 H :    0.057017
  14 H :    0.026184
  15 H :    0.015588
  16 S :    0.097009
  17 C :   -0.095123
  18 C :   -0.060953
  19 C :   -0.013444
  20 C :   -0.186415
  21 H :    0.043223
  22 C :    0.109565
  23 H :    0.040628
  24 H :    0.017733
  25 C :   -0.096631
  26 H :    0.024290
  27 H :    0.014916
  28 C :   -0.028671
  29 H :    0.017579
  30 H :    0.051148
  31 H :    0.024990
  32 H :    0.030325
  33 H :    0.059060
Sum of atomic charges:    0.0000000

LOEWDIN ATOMIC CHARGES
----------------------
   0 S :    0.409406
   1 C :   -0.181742
   2 C :   -0.055516
   3 C :   -0.051319
   4 C :   -0.202728
   5 H :    0.019755
   6 C :   -0.035392
   7 H :    0.021513
   8 H :    0.034789
   9 C :   -0.039119
  10 H :    0.022586
  11 H :    0.030295
  12 C :   -0.065603
  13 H :    0.029435
  14 H :    0.027153
  15 H :    0.025629
  16 S :    0.381129
  17 C :   -0.174612
  18 C :   -0.084002
  19 C :   -0.050136
  20 C :   -0.198051
  21 H :    0.041569
  22 C :   -0.020749
  23 H :    0.035974
  24 H :    0.024636
  25 C :   -0.040920
  26 H :    0.022088
  27 H :    0.014080
  28 C :   -0.059788
  29 H :    0.016951
  30 H :    0.035055
  31 H :    0.027545
  32 H :    0.011588
  33 H :    0.028502

  Mayer bond orders larger than 0.100000
B(  0-S ,  1-C ) :   1.1532 B(  0-S ,  4-C ) :   1.1580 B(  1-C ,  2-C ) :   1.5858
B(  1-C , 32-H ) :   0.9754 B(  2-C ,  3-C ) :   1.2427 B(  2-C ,  6-C ) :   1.0172
B(  3-C ,  4-C ) :   1.5848 B(  3-C ,  5-H ) :   1.0060 B(  4-C , 20-C ) :   1.0104
B(  6-C ,  7-H ) :   0.9341 B(  6-C ,  8-H ) :   0.9320 B(  6-C ,  9-C ) :   1.0759
B(  9-C , 10-H ) :   0.9527 B(  9-C , 11-H ) :   0.9501 B(  9-C , 12-C ) :   1.0735
B( 12-C , 13-H ) :   0.9765 B( 12-C , 14-H ) :   0.9719 B( 12-C , 15-H ) :   0.9715
B( 16-S , 17-C ) :   1.1531 B( 16-S , 20-C ) :   1.1297 B( 17-C , 18-C ) :   1.6189
B( 17-C , 33-H ) :   0.9684 B( 18-C , 19-C ) :   1.2228 B( 18-C , 21-H ) :   0.9790
B( 19-C , 20-C ) :   1.6440 B( 19-C , 22-C ) :   1.0225 B( 22-C , 23-H ) :   0.9347
B( 22-C , 24-H ) :   0.9327 B( 22-C , 25-C ) :   1.0712 B( 25-C , 26-H ) :   0.9598
B( 25-C , 27-H ) :   0.9464 B( 25-C , 28-C ) :   1.0933 B( 28-C , 29-H ) :   0.9736
B( 28-C , 30-H ) :   0.9747 B( 28-C , 31-H ) :   0.9704

Dispersion correction           -0.014227559
FINAL SINGLE POINT ENERGY     -1339.880295895426

DIPOLE MOMENT
-------------
                                X             Y             Z
Electronic contribution:     12.07628      14.86162       7.08328
Nuclear contribution   :    -12.42592     -15.30869      -7.47514
                        -----------------------------------------
Total Dipole Moment    :     -0.34965      -0.44708      -0.39186
                        -----------------------------------------
Magnitude (a.u.)       :      0.68970
Magnitude (Debye)      :      1.75308

Rotational constants in cm-1:     0.017957     0.008311     0.006977
Rotational constants in MHz :   538.350847   249.157562   209.163420

                             ****ORCA TERMINATED NORMALLY****
TOTAL RUN TIME: 0 days 0 hours 0 minutes 33 seconds 81 msec
