                         Program Version 4.2.1 -  RELEASE  -
|  1> ! wB97X-D3 SP def2-SVP
|  2> %pal
|  3> nprocs 16
|  4> end
|  5>
|  6> * xyz 0 1
|  7> S 	 -108.473 	 40.5946 	 129.935
|  8> C 	 -106.788 	 40.4335 	 130.485
|  9> C 	 -105.901 	 39.9882 	 129.495
| 10> C 	 -106.621 	 39.7902 	 128.242
| 11> C 	 -108.039 	 40.0022 	 128.352
| 12> H 	 -106.134 	 39.808 	 127.305
| 13> C 	 -104.371 	 40.1457 	 129.678
| 14> H 	 -103.938 	 39.1142 	 129.855
| 15> H 	 -104.271 	 40.7919 	 130.596
| 16> C 	 -103.651 	 40.938 	 128.568
| 17> H 	 -102.587 	 40.9678 	 128.847
| 18> H 	 -103.75 	 40.47 	 127.597
| 19> C 	 -104.257 	 42.3756 	 128.534
| 20> H 	 -105.216 	 42.3528 	 127.973
| 21> H 	 -104.381 	 42.9509 	 129.444
| 22> H 	 -103.609 	 42.8938 	 127.803
| 23> S 	 -109.453 	 41.7167 	 126.659
| 24> C 	 -110.106 	 41.011 	 125.162
| 25> C 	 -109.84 	 39.6711 	 125.025
| 26> C 	 -109.191 	 39.1744 	 126.207
| 27> C 	 -108.864 	 40.1337 	 127.184
| 28> H 	 -110.02 	 39.1958 	 124.105
| 29> C 	 -108.764 	 37.7477 	 126.235
| 30> H 	 -107.791 	 37.6349 	 126.629
| 31> H 	 -108.813 	 37.412 	 125.22
| 32> C 	 -109.602 	 36.7768 	 127.098
| 33> H 	 -110.65 	 36.8837 	 126.738
| 34> H 	 -109.618 	 37.1534 	 128.127
| 35> C 	 -109.124 	 35.2983 	 127.032
| 36> H 	 -109.483 	 34.7618 	 126.132
| 37> H 	 -109.414 	 34.8908 	 127.971
| 38> H 	 -108.015 	 35.2131 	 126.944
| 39> H 	 -106.445 	 40.7616 	 131.477
| 40> H 	 -110.448 	 41.6531 	 124.356
| 41> *
| 42>
| 43>                          ****END OF INPUT****

CARTESIAN COORDINATES (ANGSTROEM)
---------------------------------
  S    -108.473000   40.594600  129.935000
  C    -106.788000   40.433500  130.485000
  C    -105.901000   39.988200  129.495000
  C    -106.621000   39.790200  128.242000
  C    -108.039000   40.002200  128.352000
  H    -106.134000   39.808000  127.305000
  C    -104.371000   40.145700  129.678000
  H    -103.938000   39.114200  129.855000
  H    -104.271000   40.791900  130.596000
  C    -103.651000   40.938000  128.568000
  H    -102.587000   40.967800  128.847000
  H    -103.750000   40.470000  127.597000
  C    -104.257000   42.375600  128.534000
  H    -105.216000   42.352800  127.973000
  H    -104.381000   42.950900  129.444000
  H    -103.609000   42.893800  127.803000
  S    -109.453000   41.716700  126.659000
  C    -110.106000   41.011000  125.162000
  C    -109.840000   39.671100  125.025000
  C    -109.191000   39.174400  126.207000
  C    -108.864000   40.133700  127.184000
  H    -110.020000   39.195800  124.105000
  C    -108.764000   37.747700  126.235000
  H    -107.791000   37.634900  126.629000
  H    -108.813000   37.412000  125.220000
  C    -109.602000   36.776800  127.098000
  H    -110.650000   36.883700  126.738000
  H    -109.618000   37.153400  128.127000
  C    -109.124000   35.298300  127.032000
  H    -109.483000   34.761800  126.132000
  H    -109.414000   34.890800  127.971000
  H    -108.015000   35.213100  126.944000
  H    -106.445000   40.761600  131.477000
  H    -110.448000   41.653100  124.356000

 Total Charge           Charge          ....    0
 Multiplicity           Mult            ....    1
 Number of Electrons    NEL             ....  134
 Basis Dimension        Dim             ....  322

ORBITAL ENERGIES
----------------

  NO   OCC          E(Eh)            E(eV)
   0   2.0000     -88.973032     -2421.0793
   1   2.0000     -88.964836     -2420.8563
   2   2.0000     -10.334361      -281.2123
   3   2.0000     -10.326245      -280.9914
   4   2.0000     -10.321050      -280.8501
   5   2.0000     -10.319240      -280.8008
   6   2.0000     -10.308572      -280.5105
   7   2.0000     -10.304424      -280.3976
   8   2.0000     -10.302052      -280.3331
   9   2.0000     -10.301754      -280.3250
  10   2.0000     -10.294907      -280.1387
  11   2.0000     -10.292875      -280.0834
  12   2.0000     -10.282600      -279.8038
  13   2.0000     -10.280788      -279.7545
  14   2.0000     -10.278222      -279.6846
  15   2.0000     -10.275982      -279.6237
  16   2.0000      -8.086925      -220.0564
  17   2.0000      -8.078933      -219.8389
  18   2.0000      -6.045429      -164.5045
  19   2.0000      -6.041524      -164.3982
  20   2.0000      -6.037778      -164.2963
  21   2.0000      -6.037440      -164.2871
  22   2.0000      -6.033562      -164.1816
  23   2.0000      -6.029696      -164.0764
  24   2.0000      -0.999960       -27.2103
  25   2.0000      -0.975707       -26.5503
  26   2.0000      -0.909957       -24.7612
  27   2.0000      -0.903215       -24.5777
  28   2.0000      -0.868950       -23.6453
  29   2.0000      -0.845644       -23.0111
  30   2.0000      -0.841896       -22.9092
  31   2.0000      -0.810430       -22.0529
  32   2.0000      -0.779747       -21.2180
  33   2.0000      -0.766021       -20.8445
  34   2.0000      -0.710737       -19.3401
  35   2.0000      -0.693795       -18.8791
  36   2.0000      -0.685921       -18.6649
  37   2.0000      -0.663014       -18.0415
  38   2.0000      -0.636456       -17.3188
  39   2.0000      -0.618678       -16.8351
  40   2.0000      -0.594190       -16.1687
  41   2.0000      -0.571366       -15.5477
  42   2.0000      -0.559519       -15.2253
  43   2.0000      -0.552720       -15.0403
  44   2.0000      -0.537434       -14.6243
  45   2.0000      -0.522705       -14.2235
  46   2.0000      -0.515216       -14.0197
  47   2.0000      -0.502385       -13.6706
  48   2.0000      -0.500870       -13.6294
  49   2.0000      -0.495473       -13.4825
  50   2.0000      -0.487664       -13.2700
  51   2.0000      -0.482620       -13.1328
  52   2.0000      -0.470398       -12.8002
  53   2.0000      -0.459449       -12.5022
  54   2.0000      -0.457206       -12.4412
  55   2.0000      -0.450316       -12.2537
  56   2.0000      -0.443467       -12.0674
  57   2.0000      -0.434424       -11.8213
  58   2.0000      -0.427029       -11.6200
  59   2.0000      -0.423621       -11.5273
  60   2.0000      -0.418809       -11.3964
  61   2.0000      -0.417591       -11.3632
  62   2.0000      -0.412834       -11.2338
  63   2.0000      -0.341877        -9.3029
  64   2.0000      -0.331112        -9.0100
  65   2.0000      -0.326319        -8.8796
  66   2.0000      -0.291233        -7.9248
  67   0.0000       0.025307         0.6886
  68   0.0000       0.059251         1.6123
  69   0.0000       0.104209         2.8357
  70   0.0000       0.113781         3.0961
  71   0.0000       0.125896         3.4258

MULLIKEN ATOMIC CHARGES
-----------------------
   0 S :    0.122280
   1 C :   -0.142087
   2 C :   -0.085593
   3 C :    0.043828
   4 C :   -0.178797
   5 H :    0.017860
   6 C :    0.025299
   7 H :    0.054518
   8 H :    0.029623
   9 C :   -0.079666
  10 H :    0.042415
  11 H :    0.037951
  12 C :   -0.073105
  13 H :    0.042874
  14 H :    0.045390
  15 H :    0.030818
  16 S :    0.096239
  17 C :   -0.100726
  18 C :   -0.007561
  19 C :   -0.053944
  20 C :   -0.139529
  21 H :    0.011046
  22 C :    0.107723
  23 H :    0.005692
  24 H :    0.003060
  25 C :   -0.103763
  26 H :    0.025557
  27 H :    0.034392
  28 C :   -0.035784
  29 H :    0.040759
  30 H :    0.037107
  31 H :    0.027306
  32 H :    0.057867
  33 H :    0.060952
Sum of atomic charges:    0.0000000

LOEWDIN ATOMIC CHARGES
----------------------
   0 S :    0.406724
   1 C :   -0.193479
   2 C :   -0.063034
   3 C :   -0.049925
   4 C :   -0.205642
   5 H :    0.023803
   6 C :   -0.036340
   7 H :    0.035499
   8 H :    0.033769
   9 C :   -0.039542
  10 H :    0.029348
  11 H :    0.023089
  12 C :   -0.070770
  13 H :    0.032692
  14 H :    0.025446
  15 H :    0.028705
  16 S :    0.383094
  17 C :   -0.169171
  18 C :   -0.064788
  19 C :   -0.047870
  20 C :   -0.203905
  21 H :    0.028874
  22 C :   -0.032995
  23 H :    0.021578
  24 H :    0.023749
  25 C :   -0.038145
  26 H :    0.023687
  27 H :    0.023794
  28 C :   -0.067237
  29 H :    0.029371
  30 H :    0.025846
  31 H :    0.027132
  32 H :    0.028522
  33 H :    0.028118

  Mayer bond orders larger than 0.100000
B(  0-S ,  1-C ) :   1.1427 B(  0-S ,  4-C ) :   1.1535 B(  1-C ,  2-C ) :   1.6099
B(  1-C , 32-H ) :   0.9597 B(  2-C ,  3-C ) :   1.2580 B(  2-C ,  6-C ) :   1.0037
B(  3-C ,  4-C ) :   1.5500 B(  3-C ,  5-H ) :   0.9814 B(  4-C , 20-C ) :   1.0684
B(  6-C ,  7-H ) :   0.9368 B(  6-C ,  8-H ) :   0.9548 B(  6-C ,  9-C ) :   1.0715
B(  9-C , 10-H ) :   0.9575 B(  9-C , 11-H ) :   0.9530 B(  9-C , 12-C ) :   1.0679
B( 12-C , 13-H ) :   0.9708 B( 12-C , 14-H ) :   0.9793 B( 12-C , 15-H ) :   0.9732
B( 16-S , 17-C ) :   1.1571 B( 16-S , 20-C ) :   1.1182 B( 17-C , 18-C ) :   1.6163
B( 17-C , 33-H ) :   0.9621 B( 18-C , 19-C ) :   1.2321 B( 18-C , 21-H ) :   0.9983
B( 19-C , 20-C ) :   1.5902 B( 19-C , 22-C ) :   1.0630 B( 22-C , 23-H ) :   0.9192
B( 22-C , 24-H ) :   0.9326 B( 22-C , 25-C ) :   1.0652 B( 25-C , 26-H ) :   0.9540
B( 25-C , 27-H ) :   0.9626 B( 25-C , 28-C ) :   1.0683 B( 28-C , 29-H ) :   0.9758
B( 28-C , 30-H ) :   0.9764 B( 28-C , 31-H ) :   0.9751

Dispersion correction           -0.014759610
FINAL SINGLE POINT ENERGY     -1339.869792686932

DIPOLE MOMENT
-------------
                                X             Y             Z
Electronic contribution:    -14.95179      12.86978       3.15141
Nuclear contribution   :     15.55239     -12.92425      -3.49023
                        -----------------------------------------
Total Dipole Moment    :      0.60059      -0.05447      -0.33882
                        -----------------------------------------
Magnitude (a.u.)       :      0.69172
Magnitude (Debye)      :      1.75822

Rotational constants in cm-1:     0.017245     0.009031     0.007632
Rotational constants in MHz :   516.989463   270.756487   228.788236

                             ****ORCA TERMINATED NORMALLY****
TOTAL RUN TIME: 0 days 0 hours 0 minutes 34 seconds 523 msec
