                         Program Version 4.2.1 -  RELEASE  -
|  1> ! wB97X-D3 SP def2-SVP
|  2> %pal
|  3> nprocs 16
|  4> end
|  5>
|  6> * xyz 0 1
|  7> S 	 -53.2827 	 24.4379 	 94.0702
|  8> C 	 -53.0981 	 26.0912 	 94.5112
|  9> C 	 -53.9221 	 26.8524 	 93.7146
| 10> C 	 -54.8047 	 26.1157 	 92.8469
| 11> C 	 -54.577 	 24.7605 	 93.0072
| 12> H 	 -55.4279 	 26.4058 	 92.0496
| 13> C 	 -53.9942 	 28.4365 	 93.7443
| 14> H 	 -54.5556 	 28.7184 	 92.7959
| 15> H 	 -52.9926 	 28.8164 	 93.5655
| 16> C 	 -54.6723 	 28.9828 	 94.9951
| 17> H 	 -55.4679 	 28.2142 	 95.1591
| 18> H 	 -53.9039 	 28.7997 	 95.7581
| 19> C 	 -55.2088 	 30.4455 	 94.9668
| 20> H 	 -54.4311 	 31.1362 	 94.5395
| 21> H 	 -56.1095 	 30.5839 	 94.3944
| 22> H 	 -55.343 	 30.8519 	 95.9906
| 23> S 	 -53.8343 	 22.4681 	 91.4715
| 24> C 	 -55.1426 	 21.4847 	 90.8258
| 25> C 	 -56.3273 	 22.018 	 91.0588
| 26> C 	 -56.3171 	 23.2714 	 91.7661
| 27> C 	 -55.0537 	 23.6156 	 92.1905
| 28> H 	 -57.1922 	 21.5758 	 90.6109
| 29> C 	 -57.5312 	 24.1476 	 91.9975
| 30> H 	 -58.4278 	 23.7045 	 91.5368
| 31> H 	 -57.4087 	 25.0391 	 91.3262
| 32> C 	 -57.9657 	 24.5161 	 93.3937
| 33> H 	 -57.1067 	 24.9639 	 93.9654
| 34> H 	 -58.2628 	 23.6713 	 93.9983
| 35> C 	 -59.1728 	 25.5007 	 93.4057
| 36> H 	 -58.8745 	 26.463 	 93.0254
| 37> H 	 -59.4295 	 25.5872 	 94.4696
| 38> H 	 -60.0997 	 25.1439 	 92.8824
| 39> H 	 -52.3671 	 26.4615 	 95.1509
| 40> H 	 -54.8925 	 20.5936 	 90.2515
| 41> *
| 42>
| 43>                          ****END OF INPUT****

CARTESIAN COORDINATES (ANGSTROEM)
---------------------------------
  S    -53.282700   24.437900   94.070200
  C    -53.098100   26.091200   94.511200
  C    -53.922100   26.852400   93.714600
  C    -54.804700   26.115700   92.846900
  C    -54.577000   24.760500   93.007200
  H    -55.427900   26.405800   92.049600
  C    -53.994200   28.436500   93.744300
  H    -54.555600   28.718400   92.795900
  H    -52.992600   28.816400   93.565500
  C    -54.672300   28.982800   94.995100
  H    -55.467900   28.214200   95.159100
  H    -53.903900   28.799700   95.758100
  C    -55.208800   30.445500   94.966800
  H    -54.431100   31.136200   94.539500
  H    -56.109500   30.583900   94.394400
  H    -55.343000   30.851900   95.990600
  S    -53.834300   22.468100   91.471500
  C    -55.142600   21.484700   90.825800
  C    -56.327300   22.018000   91.058800
  C    -56.317100   23.271400   91.766100
  C    -55.053700   23.615600   92.190500
  H    -57.192200   21.575800   90.610900
  C    -57.531200   24.147600   91.997500
  H    -58.427800   23.704500   91.536800
  H    -57.408700   25.039100   91.326200
  C    -57.965700   24.516100   93.393700
  H    -57.106700   24.963900   93.965400
  H    -58.262800   23.671300   93.998300
  C    -59.172800   25.500700   93.405700
  H    -58.874500   26.463000   93.025400
  H    -59.429500   25.587200   94.469600
  H    -60.099700   25.143900   92.882400
  H    -52.367100   26.461500   95.150900
  H    -54.892500   20.593600   90.251500

 Total Charge           Charge          ....    0
 Multiplicity           Mult            ....    1
 Number of Electrons    NEL             ....  134
 Basis Dimension        Dim             ....  322

ORBITAL ENERGIES
----------------

  NO   OCC          E(Eh)            E(eV)
   0   2.0000     -88.965381     -2420.8711
   1   2.0000     -88.960796     -2420.7463
   2   2.0000     -10.330581      -281.1094
   3   2.0000     -10.328734      -281.0591
   4   2.0000     -10.314011      -280.6585
   5   2.0000     -10.308608      -280.5115
   6   2.0000     -10.306311      -280.4490
   7   2.0000     -10.304013      -280.3864
   8   2.0000     -10.295797      -280.1629
   9   2.0000     -10.294803      -280.1358
  10   2.0000     -10.294252      -280.1208
  11   2.0000     -10.291589      -280.0484
  12   2.0000     -10.288519      -279.9648
  13   2.0000     -10.287265      -279.9307
  14   2.0000     -10.285169      -279.8737
  15   2.0000     -10.281136      -279.7639
  16   2.0000      -8.081468      -219.9079
  17   2.0000      -8.074868      -219.7283
  18   2.0000      -6.039760      -164.3502
  19   2.0000      -6.035708      -164.2400
  20   2.0000      -6.033513      -164.1802
  21   2.0000      -6.032419      -164.1505
  22   2.0000      -6.029623      -164.0744
  23   2.0000      -6.025360      -163.9584
  24   2.0000      -1.010942       -27.5091
  25   2.0000      -0.986100       -26.8331
  26   2.0000      -0.907520       -24.6949
  27   2.0000      -0.904461       -24.6116
  28   2.0000      -0.868786       -23.6409
  29   2.0000      -0.850185       -23.1347
  30   2.0000      -0.843623       -22.9562
  31   2.0000      -0.817873       -22.2554
  32   2.0000      -0.782379       -21.2896
  33   2.0000      -0.772485       -21.0204
  34   2.0000      -0.706544       -19.2261
  35   2.0000      -0.697973       -18.9928
  36   2.0000      -0.688110       -18.7244
  37   2.0000      -0.663197       -18.0465
  38   2.0000      -0.650237       -17.6939
  39   2.0000      -0.613946       -16.7063
  40   2.0000      -0.599158       -16.3039
  41   2.0000      -0.567188       -15.4340
  42   2.0000      -0.560380       -15.2487
  43   2.0000      -0.558472       -15.1968
  44   2.0000      -0.527788       -14.3618
  45   2.0000      -0.519677       -14.1411
  46   2.0000      -0.517487       -14.0815
  47   2.0000      -0.513437       -13.9713
  48   2.0000      -0.508164       -13.8278
  49   2.0000      -0.497804       -13.5459
  50   2.0000      -0.489170       -13.3110
  51   2.0000      -0.486528       -13.2391
  52   2.0000      -0.473644       -12.8885
  53   2.0000      -0.464527       -12.6404
  54   2.0000      -0.461200       -12.5499
  55   2.0000      -0.450180       -12.2500
  56   2.0000      -0.443824       -12.0771
  57   2.0000      -0.440872       -11.9968
  58   2.0000      -0.426089       -11.5945
  59   2.0000      -0.419388       -11.4121
  60   2.0000      -0.413744       -11.2586
  61   2.0000      -0.412737       -11.2311
  62   2.0000      -0.408212       -11.1080
  63   2.0000      -0.352336        -9.5875
  64   2.0000      -0.332513        -9.0481
  65   2.0000      -0.329905        -8.9772
  66   2.0000      -0.295072        -8.0293
  67   0.0000       0.029723         0.8088
  68   0.0000       0.071323         1.9408
  69   0.0000       0.111546         3.0353
  70   0.0000       0.122180         3.3247
  71   0.0000       0.129253         3.5171

MULLIKEN ATOMIC CHARGES
-----------------------
   0 S :    0.113853
   1 C :   -0.085295
   2 C :   -0.117170
   3 C :    0.053724
   4 C :   -0.164879
   5 H :    0.000952
   6 C :    0.043120
   7 H :    0.020385
   8 H :    0.028409
   9 C :   -0.076032
  10 H :    0.042644
  11 H :    0.027331
  12 C :   -0.048708
  13 H :    0.032833
  14 H :    0.040790
  15 H :    0.041880
  16 S :    0.079514
  17 C :   -0.092982
  18 C :    0.002799
  19 C :   -0.019755
  20 C :   -0.144667
  21 H :    0.007583
  22 C :    0.038641
  23 H :    0.005473
  24 H :    0.037847
  25 C :   -0.085191
  26 H :    0.052998
  27 H :    0.028552
  28 C :   -0.057018
  29 H :    0.028574
  30 H :    0.035291
  31 H :    0.038929
  32 H :    0.026477
  33 H :    0.063097
Sum of atomic charges:   -0.0000000

LOEWDIN ATOMIC CHARGES
----------------------
   0 S :    0.444252
   1 C :   -0.202956
   2 C :   -0.055535
   3 C :   -0.064314
   4 C :   -0.198537
   5 H :    0.027496
   6 C :   -0.034888
   7 H :    0.028443
   8 H :    0.022654
   9 C :   -0.049921
  10 H :    0.031118
  11 H :    0.025133
  12 C :   -0.070860
  13 H :    0.030960
  14 H :    0.024711
  15 H :    0.032705
  16 S :    0.355929
  17 C :   -0.170020
  18 C :   -0.072677
  19 C :   -0.056308
  20 C :   -0.174428
  21 H :    0.030715
  22 C :   -0.044192
  23 H :    0.030065
  24 H :    0.036212
  25 C :   -0.044511
  26 H :    0.030947
  27 H :    0.023799
  28 C :   -0.064103
  29 H :    0.019147
  30 H :    0.030004
  31 H :    0.028047
  32 H :    0.018001
  33 H :    0.032913

  Mayer bond orders larger than 0.100000
B(  0-S ,  1-C ) :   1.1401 B(  0-S ,  4-C ) :   1.1903 B(  1-C ,  2-C ) :   1.5970
B(  1-C , 32-H ) :   0.9857 B(  2-C ,  3-C ) :   1.2437 B(  2-C ,  6-C ) :   1.0105
B(  3-C ,  4-C ) :   1.5392 B(  3-C ,  5-H ) :   1.0018 B(  4-C , 20-C ) :   1.0296
B(  6-C ,  7-H ) :   0.9490 B(  6-C ,  8-H ) :   0.9419 B(  6-C ,  9-C ) :   1.0464
B(  9-C , 10-H ) :   0.9603 B(  9-C , 11-H ) :   0.9563 B(  9-C , 12-C ) :   1.0716
B( 12-C , 13-H ) :   0.9744 B( 12-C , 14-H ) :   0.9764 B( 12-C , 15-H ) :   0.9753
B( 16-S , 17-C ) :   1.1291 B( 16-S , 20-C ) :   1.1153 B( 17-C , 18-C ) :   1.6478
B( 17-C , 33-H ) :   0.9647 B( 18-C , 19-C ) :   1.2125 B( 18-C , 21-H ) :   0.9942
B( 19-C , 20-C ) :   1.6422 B( 19-C , 22-C ) :   1.0333 B( 22-C , 23-H ) :   0.9285
B( 22-C , 24-H ) :   0.9337 B( 22-C , 25-C ) :   1.0624 B( 25-C , 26-H ) :   0.9505
B( 25-C , 27-H ) :   0.9543 B( 25-C , 28-C ) :   1.0805 B( 28-C , 29-H ) :   0.9765
B( 28-C , 30-H ) :   0.9750 B( 28-C , 31-H ) :   0.9746

Dispersion correction           -0.014326329
FINAL SINGLE POINT ENERGY     -1339.881912459042

DIPOLE MOMENT
-------------
                                X             Y             Z
Electronic contribution:     19.01337     -24.57991      -7.29393
Nuclear contribution   :    -19.41359      24.98696       7.16053
                        -----------------------------------------
Total Dipole Moment    :     -0.40023       0.40705      -0.13340
                        -----------------------------------------
Magnitude (a.u.)       :      0.58623
Magnitude (Debye)      :      1.49008

Rotational constants in cm-1:     0.019765     0.008620     0.006480
Rotational constants in MHz :   592.528738   258.418004   194.275710

                             ****ORCA TERMINATED NORMALLY****
TOTAL RUN TIME: 0 days 0 hours 0 minutes 30 seconds 11 msec
