                         Program Version 4.2.1 -  RELEASE  -
|  1> ! wB97X-D3 SP def2-SVP
|  2> %pal
|  3> nprocs 16
|  4> end
|  5>
|  6> * xyz 0 1
|  7> S 	 0.0365747 	 -23.2519 	 59.3693
|  8> C 	 0.150454 	 -23.7297 	 57.7247
|  9> C 	 -0.428259 	 -22.6886 	 56.9263
| 10> C 	 -0.783327 	 -21.5109 	 57.6539
| 11> C 	 -0.64422 	 -21.6216 	 59.0624
| 12> H 	 -1.26836 	 -20.65 	 57.2636
| 13> C 	 -0.68623 	 -22.7555 	 55.3743
| 14> H 	 0.123559 	 -23.3859 	 55.0105
| 15> H 	 -0.647875 	 -21.8084 	 54.8809
| 16> C 	 -1.9942 	 -23.3303 	 54.9371
| 17> H 	 -1.86778 	 -23.4304 	 53.8178
| 18> H 	 -2.08209 	 -24.3706 	 55.1831
| 19> C 	 -3.27124 	 -22.6847 	 55.315
| 20> H 	 -4.04548 	 -23.1371 	 54.7151
| 21> H 	 -3.45665 	 -22.743 	 56.3638
| 22> H 	 -3.21095 	 -21.6541 	 54.9536
| 23> S 	 -1.37403 	 -21.3698 	 61.7281
| 24> C 	 -1.37555 	 -19.75 	 62.4626
| 25> C 	 -1.04737 	 -18.7454 	 61.5799
| 26> C 	 -0.808319 	 -19.243 	 60.2434
| 27> C 	 -0.941425 	 -20.635 	 60.1279
| 28> H 	 -1.02953 	 -17.718 	 61.9028
| 29> C 	 -0.210343 	 -18.3954 	 59.1741
| 30> H 	 0.0390575 	 -19.01 	 58.2882
| 31> H 	 0.804012 	 -18.2184 	 59.6187
| 32> C 	 -0.952262 	 -17.0971 	 58.9207
| 33> H 	 -0.324656 	 -16.4576 	 58.3194
| 34> H 	 -1.19723 	 -16.5049 	 59.8343
| 35> C 	 -2.22266 	 -17.4072 	 58.1207
| 36> H 	 -2.85844 	 -16.5798 	 57.8713
| 37> H 	 -2.80418 	 -18.1462 	 58.7088
| 38> H 	 -2.02703 	 -18.028 	 57.2477
| 39> H 	 0.553092 	 -24.5551 	 57.2273
| 40> H 	 -1.71849 	 -19.5421 	 63.479
| 41> *
| 42>
| 43>                          ****END OF INPUT****

CARTESIAN COORDINATES (ANGSTROEM)
---------------------------------
  S      0.036575  -23.251900   59.369300
  C      0.150454  -23.729700   57.724700
  C     -0.428259  -22.688600   56.926300
  C     -0.783327  -21.510900   57.653900
  C     -0.644220  -21.621600   59.062400
  H     -1.268360  -20.650000   57.263600
  C     -0.686230  -22.755500   55.374300
  H      0.123559  -23.385900   55.010500
  H     -0.647875  -21.808400   54.880900
  C     -1.994200  -23.330300   54.937100
  H     -1.867780  -23.430400   53.817800
  H     -2.082090  -24.370600   55.183100
  C     -3.271240  -22.684700   55.315000
  H     -4.045480  -23.137100   54.715100
  H     -3.456650  -22.743000   56.363800
  H     -3.210950  -21.654100   54.953600
  S     -1.374030  -21.369800   61.728100
  C     -1.375550  -19.750000   62.462600
  C     -1.047370  -18.745400   61.579900
  C     -0.808319  -19.243000   60.243400
  C     -0.941425  -20.635000   60.127900
  H     -1.029530  -17.718000   61.902800
  C     -0.210343  -18.395400   59.174100
  H      0.039058  -19.010000   58.288200
  H      0.804012  -18.218400   59.618700
  C     -0.952262  -17.097100   58.920700
  H     -0.324656  -16.457600   58.319400
  H     -1.197230  -16.504900   59.834300
  C     -2.222660  -17.407200   58.120700
  H     -2.858440  -16.579800   57.871300
  H     -2.804180  -18.146200   58.708800
  H     -2.027030  -18.028000   57.247700
  H      0.553092  -24.555100   57.227300
  H     -1.718490  -19.542100   63.479000

 Total Charge           Charge          ....    0
 Multiplicity           Mult            ....    1
 Number of Electrons    NEL             ....  134
 Basis Dimension        Dim             ....  322

ORBITAL ENERGIES
----------------

  NO   OCC          E(Eh)            E(eV)
   0   2.0000     -88.972386     -2421.0617
   1   2.0000     -88.966239     -2420.8944
   2   2.0000     -10.341861      -281.4163
   3   2.0000     -10.338078      -281.3134
   4   2.0000     -10.324386      -280.9408
   5   2.0000     -10.316733      -280.7326
   6   2.0000     -10.310684      -280.5680
   7   2.0000     -10.307666      -280.4858
   8   2.0000     -10.299147      -280.2540
   9   2.0000     -10.295949      -280.1670
  10   2.0000     -10.295467      -280.1539
  11   2.0000     -10.292048      -280.0609
  12   2.0000     -10.290398      -280.0160
  13   2.0000     -10.278115      -279.6817
  14   2.0000     -10.276307      -279.6325
  15   2.0000     -10.269888      -279.4579
  16   2.0000      -8.086037      -220.0322
  17   2.0000      -8.079759      -219.8614
  18   2.0000      -6.044674      -164.4839
  19   2.0000      -6.040421      -164.3682
  20   2.0000      -6.038436      -164.3142
  21   2.0000      -6.036961      -164.2741
  22   2.0000      -6.034596      -164.2097
  23   2.0000      -6.030255      -164.0916
  24   2.0000      -0.997832       -27.1524
  25   2.0000      -0.977917       -26.6105
  26   2.0000      -0.916211       -24.9314
  27   2.0000      -0.914158       -24.8755
  28   2.0000      -0.868386       -23.6300
  29   2.0000      -0.850398       -23.1405
  30   2.0000      -0.843552       -22.9542
  31   2.0000      -0.816798       -22.2262
  32   2.0000      -0.785477       -21.3739
  33   2.0000      -0.773024       -21.0350
  34   2.0000      -0.711034       -19.3482
  35   2.0000      -0.700098       -19.0506
  36   2.0000      -0.689647       -18.7662
  37   2.0000      -0.659455       -17.9447
  38   2.0000      -0.641469       -17.4553
  39   2.0000      -0.614999       -16.7350
  40   2.0000      -0.596412       -16.2292
  41   2.0000      -0.578804       -15.7501
  42   2.0000      -0.562134       -15.2965
  43   2.0000      -0.555121       -15.1056
  44   2.0000      -0.550261       -14.9734
  45   2.0000      -0.532482       -14.4896
  46   2.0000      -0.519818       -14.1450
  47   2.0000      -0.511524       -13.9193
  48   2.0000      -0.507549       -13.8111
  49   2.0000      -0.494088       -13.4448
  50   2.0000      -0.490166       -13.3381
  51   2.0000      -0.478861       -13.0305
  52   2.0000      -0.471980       -12.8432
  53   2.0000      -0.466652       -12.6983
  54   2.0000      -0.463940       -12.6245
  55   2.0000      -0.450143       -12.2490
  56   2.0000      -0.443050       -12.0560
  57   2.0000      -0.441816       -12.0224
  58   2.0000      -0.430233       -11.7072
  59   2.0000      -0.424398       -11.5485
  60   2.0000      -0.418029       -11.3752
  61   2.0000      -0.409123       -11.1328
  62   2.0000      -0.402196       -10.9443
  63   2.0000      -0.359145        -9.7728
  64   2.0000      -0.333348        -9.0709
  65   2.0000      -0.327471        -8.9109
  66   2.0000      -0.281831        -7.6690
  67   0.0000       0.018543         0.5046
  68   0.0000       0.068060         1.8520
  69   0.0000       0.101920         2.7734
  70   0.0000       0.114286         3.1099
  71   0.0000       0.126099         3.4313

MULLIKEN ATOMIC CHARGES
-----------------------
   0 S :    0.121330
   1 C :   -0.071661
   2 C :   -0.136832
   3 C :    0.033276
   4 C :   -0.135940
   5 H :   -0.001604
   6 C :    0.091281
   7 H :    0.018569
   8 H :    0.016086
   9 C :   -0.104335
  10 H :    0.024617
  11 H :    0.007757
  12 C :    0.000316
  13 H :    0.029666
  14 H :    0.048779
  15 H :    0.013544
  16 S :    0.079440
  17 C :   -0.087506
  18 C :   -0.026702
  19 C :   -0.051048
  20 C :   -0.135677
  21 H :    0.021817
  22 C :    0.014525
  23 H :    0.027774
  24 H :    0.050687
  25 C :   -0.045552
  26 H :    0.025436
  27 H :    0.039090
  28 C :   -0.048714
  29 H :    0.039405
  30 H :    0.030389
  31 H :    0.019639
  32 H :    0.027786
  33 H :    0.064363
Sum of atomic charges:    0.0000000

LOEWDIN ATOMIC CHARGES
----------------------
   0 S :    0.418834
   1 C :   -0.212158
   2 C :   -0.059508
   3 C :   -0.073248
   4 C :   -0.183307
   5 H :    0.022554
   6 C :   -0.028371
   7 H :    0.031753
   8 H :    0.025275
   9 C :   -0.052983
  10 H :    0.029277
  11 H :    0.016039
  12 C :   -0.057612
  13 H :    0.030594
  14 H :    0.026997
  15 H :    0.022720
  16 S :    0.360735
  17 C :   -0.166107
  18 C :   -0.070203
  19 C :   -0.052556
  20 C :   -0.178791
  21 H :    0.032395
  22 C :   -0.038165
  23 H :    0.035131
  24 H :    0.045534
  25 C :   -0.039245
  26 H :    0.021915
  27 H :    0.029138
  28 C :   -0.068447
  29 H :    0.022593
  30 H :    0.029599
  31 H :    0.022686
  32 H :    0.024123
  33 H :    0.032808

  Mayer bond orders larger than 0.100000
B(  0-S ,  1-C ) :   1.1531 B(  0-S ,  4-C ) :   1.1586 B(  1-C ,  2-C ) :   1.5553
B(  1-C ,  4-C ) :   0.1137 B(  1-C , 32-H ) :   0.9752 B(  2-C ,  3-C ) :   1.2909
B(  2-C ,  6-C ) :   1.0167 B(  3-C ,  4-C ) :   1.5178 B(  3-C ,  5-H ) :   0.9935
B(  4-C , 20-C ) :   1.0705 B(  6-C ,  7-H ) :   0.9334 B(  6-C ,  8-H ) :   0.9454
B(  6-C ,  9-C ) :   1.0872 B(  9-C , 10-H ) :   0.9494 B(  9-C , 11-H ) :   0.9464
B(  9-C , 12-C ) :   1.0899 B( 12-C , 13-H ) :   0.9659 B( 12-C , 14-H ) :   0.9713
B( 12-C , 15-H ) :   0.9705 B( 16-S , 17-C ) :   1.1400 B( 16-S , 20-C ) :   1.1076
B( 17-C , 18-C ) :   1.6465 B( 17-C , 33-H ) :   0.9622 B( 18-C , 19-C ) :   1.2064
B( 18-C , 21-H ) :   0.9894 B( 19-C , 20-C ) :   1.5951 B( 19-C , 22-C ) :   1.0385
B( 22-C , 23-H ) :   0.9419 B( 22-C , 24-H ) :   0.9277 B( 22-C , 25-C ) :   1.0631
B( 25-C , 26-H ) :   0.9529 B( 25-C , 27-H ) :   0.9558 B( 25-C , 28-C ) :   1.0669
B( 28-C , 29-H ) :   0.9739 B( 28-C , 30-H ) :   0.9740 B( 28-C , 31-H ) :   0.9699

Dispersion correction           -0.014628725
FINAL SINGLE POINT ENERGY     -1339.869455801663

DIPOLE MOMENT
-------------
                                X             Y             Z
Electronic contribution:      8.28525     -12.16772      23.33546
Nuclear contribution   :     -8.31645      12.66617     -23.77652
                        -----------------------------------------
Total Dipole Moment    :     -0.03119       0.49845      -0.44105
                        -----------------------------------------
Magnitude (a.u.)       :      0.66630
Magnitude (Debye)      :      1.69360

Rotational constants in cm-1:     0.018421     0.009098     0.006934
Rotational constants in MHz :   552.234702   272.737711   207.882001

                             ****ORCA TERMINATED NORMALLY****
TOTAL RUN TIME: 0 days 0 hours 0 minutes 35 seconds 421 msec
