                         Program Version 4.2.1 -  RELEASE  -
|  1> ! wB97X-D3 SP def2-SVP
|  2> %pal
|  3> nprocs 16
|  4> end
|  5>
|  6> * xyz 0 1
|  7> S 	 38.9302 	 10.3498 	 76.5992
|  8> C 	 39.2654 	 8.67063 	 77.1434
|  9> C 	 38.1515 	 8.09958 	 77.815
| 10> C 	 37.0109 	 9.02053 	 77.8323
| 11> C 	 37.2768 	 10.2302 	 77.3011
| 12> H 	 36.0561 	 8.92832 	 78.2898
| 13> C 	 37.9929 	 6.7009 	 78.3841
| 14> H 	 39.0016 	 6.26403 	 78.3311
| 15> H 	 37.3165 	 6.13302 	 77.7295
| 16> C 	 37.5258 	 6.59188 	 79.86
| 17> H 	 36.6375 	 7.18929 	 80.0303
| 18> H 	 37.3026 	 5.62946 	 80.1376
| 19> C 	 38.5162 	 7.10813 	 80.9688
| 20> H 	 38.0001 	 7.39166 	 81.8842
| 21> H 	 39.2324 	 6.36077 	 81.1772
| 22> H 	 38.9103 	 8.03276 	 80.5753
| 23> S 	 35.7938 	 11.8707 	 78.9425
| 24> C 	 35.1357 	 13.325 	 78.2851
| 25> C 	 35.4853 	 13.4667 	 76.9534
| 26> C 	 36.2381 	 12.421 	 76.4328
| 27> C 	 36.448 	 11.4261 	 77.3931
| 28> H 	 35.1148 	 14.3205 	 76.4919
| 29> C 	 36.806 	 12.3788 	 75.0806
| 30> H 	 37.8533 	 12.1277 	 75.0138
| 31> H 	 36.7067 	 13.4188 	 74.6815
| 32> C 	 36.1689 	 11.4244 	 74.1542
| 33> H 	 36.3513 	 10.4401 	 74.537
| 34> H 	 36.6681 	 11.5288 	 73.1926
| 35> C 	 34.6101 	 11.6459 	 74.0645
| 36> H 	 34.1967 	 11.596 	 75.0916
| 37> H 	 34.0529 	 10.9758 	 73.4104
| 38> H 	 34.2351 	 12.5809 	 73.6749
| 39> H 	 40.1622 	 8.14741 	 76.8941
| 40> H 	 34.5107 	 14.1001 	 78.792
| 41> *
| 42>
| 43>                          ****END OF INPUT****

CARTESIAN COORDINATES (ANGSTROEM)
---------------------------------
  S     38.930200   10.349800   76.599200
  C     39.265400    8.670630   77.143400
  C     38.151500    8.099580   77.815000
  C     37.010900    9.020530   77.832300
  C     37.276800   10.230200   77.301100
  H     36.056100    8.928320   78.289800
  C     37.992900    6.700900   78.384100
  H     39.001600    6.264030   78.331100
  H     37.316500    6.133020   77.729500
  C     37.525800    6.591880   79.860000
  H     36.637500    7.189290   80.030300
  H     37.302600    5.629460   80.137600
  C     38.516200    7.108130   80.968800
  H     38.000100    7.391660   81.884200
  H     39.232400    6.360770   81.177200
  H     38.910300    8.032760   80.575300
  S     35.793800   11.870700   78.942500
  C     35.135700   13.325000   78.285100
  C     35.485300   13.466700   76.953400
  C     36.238100   12.421000   76.432800
  C     36.448000   11.426100   77.393100
  H     35.114800   14.320500   76.491900
  C     36.806000   12.378800   75.080600
  H     37.853300   12.127700   75.013800
  H     36.706700   13.418800   74.681500
  C     36.168900   11.424400   74.154200
  H     36.351300   10.440100   74.537000
  H     36.668100   11.528800   73.192600
  C     34.610100   11.645900   74.064500
  H     34.196700   11.596000   75.091600
  H     34.052900   10.975800   73.410400
  H     34.235100   12.580900   73.674900
  H     40.162200    8.147410   76.894100
  H     34.510700   14.100100   78.792000

 Total Charge           Charge          ....    0
 Multiplicity           Mult            ....    1
 Number of Electrons    NEL             ....  134
 Basis Dimension        Dim             ....  322

ORBITAL ENERGIES
----------------

  NO   OCC          E(Eh)            E(eV)
   0   2.0000     -88.970962     -2421.0230
   1   2.0000     -88.967038     -2420.9162
   2   2.0000     -10.329996      -281.0935
   3   2.0000     -10.323521      -280.9173
   4   2.0000     -10.323303      -280.9114
   5   2.0000     -10.318369      -280.7771
   6   2.0000     -10.313188      -280.6361
   7   2.0000     -10.298573      -280.2384
   8   2.0000     -10.297232      -280.2019
   9   2.0000     -10.292590      -280.0756
  10   2.0000     -10.286160      -279.9006
  11   2.0000     -10.282283      -279.7951
  12   2.0000     -10.281291      -279.7681
  13   2.0000     -10.279598      -279.7221
  14   2.0000     -10.271969      -279.5145
  15   2.0000     -10.270528      -279.4753
  16   2.0000      -8.085799      -220.0258
  17   2.0000      -8.080033      -219.8689
  18   2.0000      -6.044116      -164.4687
  19   2.0000      -6.040194      -164.3620
  20   2.0000      -6.038770      -164.3233
  21   2.0000      -6.036865      -164.2715
  22   2.0000      -6.034947      -164.2193
  23   2.0000      -6.030502      -164.0983
  24   2.0000      -1.010044       -27.4847
  25   2.0000      -0.978177       -26.6176
  26   2.0000      -0.920049       -25.0358
  27   2.0000      -0.906087       -24.6559
  28   2.0000      -0.869453       -23.6590
  29   2.0000      -0.848300       -23.0834
  30   2.0000      -0.841957       -22.9108
  31   2.0000      -0.816057       -22.2060
  32   2.0000      -0.783988       -21.3334
  33   2.0000      -0.773487       -21.0477
  34   2.0000      -0.713883       -19.4257
  35   2.0000      -0.700868       -19.0716
  36   2.0000      -0.686712       -18.6864
  37   2.0000      -0.668226       -18.1834
  38   2.0000      -0.639382       -17.3985
  39   2.0000      -0.620981       -16.8977
  40   2.0000      -0.598341       -16.2817
  41   2.0000      -0.568131       -15.4596
  42   2.0000      -0.555264       -15.1095
  43   2.0000      -0.551948       -15.0193
  44   2.0000      -0.547584       -14.9005
  45   2.0000      -0.540938       -14.7197
  46   2.0000      -0.518122       -14.0988
  47   2.0000      -0.513085       -13.9617
  48   2.0000      -0.496802       -13.5187
  49   2.0000      -0.495332       -13.4787
  50   2.0000      -0.485362       -13.2074
  51   2.0000      -0.475911       -12.9502
  52   2.0000      -0.468367       -12.7449
  53   2.0000      -0.464304       -12.6343
  54   2.0000      -0.462611       -12.5883
  55   2.0000      -0.448734       -12.2107
  56   2.0000      -0.443189       -12.0598
  57   2.0000      -0.441354       -12.0099
  58   2.0000      -0.433665       -11.8006
  59   2.0000      -0.425623       -11.5818
  60   2.0000      -0.418339       -11.3836
  61   2.0000      -0.413350       -11.2478
  62   2.0000      -0.409937       -11.1549
  63   2.0000      -0.347638        -9.4597
  64   2.0000      -0.335922        -9.1409
  65   2.0000      -0.330558        -8.9949
  66   2.0000      -0.290657        -7.9092
  67   0.0000       0.025108         0.6832
  68   0.0000       0.070889         1.9290
  69   0.0000       0.105192         2.8624
  70   0.0000       0.109275         2.9735
  71   0.0000       0.126756         3.4492

MULLIKEN ATOMIC CHARGES
-----------------------
   0 S :    0.080713
   1 C :   -0.105074
   2 C :   -0.096821
   3 C :    0.013661
   4 C :   -0.133735
   5 H :    0.005041
   6 C :    0.077276
   7 H :    0.017517
   8 H :    0.051099
   9 C :   -0.063708
  10 H :    0.024333
  11 H :    0.011110
  12 C :   -0.050200
  13 H :    0.031413
  14 H :    0.030263
  15 H :    0.033812
  16 S :    0.129993
  17 C :   -0.113514
  18 C :   -0.028282
  19 C :   -0.023918
  20 C :   -0.152226
  21 H :   -0.011665
  22 C :    0.065754
  23 H :    0.032335
  24 H :    0.018980
  25 C :   -0.032325
  26 H :    0.033200
  27 H :    0.029958
  28 C :   -0.075831
  29 H :    0.047145
  30 H :    0.027495
  31 H :    0.012765
  32 H :    0.044380
  33 H :    0.069055
Sum of atomic charges:   -0.0000000

LOEWDIN ATOMIC CHARGES
----------------------
   0 S :    0.367638
   1 C :   -0.179258
   2 C :   -0.053699
   3 C :   -0.065275
   4 C :   -0.167167
   5 H :    0.027059
   6 C :   -0.031976
   7 H :    0.030630
   8 H :    0.039348
   9 C :   -0.033294
  10 H :    0.021601
  11 H :    0.011671
  12 C :   -0.057319
  13 H :    0.027607
  14 H :    0.017106
  15 H :    0.025338
  16 S :    0.433748
  17 C :   -0.202202
  18 C :   -0.064486
  19 C :   -0.058389
  20 C :   -0.205345
  21 H :    0.021593
  22 C :   -0.042607
  23 H :    0.022014
  24 H :    0.033999
  25 C :   -0.028896
  26 H :    0.022812
  27 H :    0.025627
  28 C :   -0.076155
  29 H :    0.031086
  30 H :    0.023905
  31 H :    0.018726
  32 H :    0.022916
  33 H :    0.041645

  Mayer bond orders larger than 0.100000
B(  0-S ,  1-C ) :   1.1127 B(  0-S ,  4-C ) :   1.1071 B(  1-C ,  2-C ) :   1.6443
B(  1-C , 32-H ) :   0.9695 B(  2-C ,  3-C ) :   1.1588 B(  2-C ,  6-C ) :   1.0288
B(  3-C ,  4-C ) :   1.6468 B(  3-C ,  5-H ) :   0.9962 B(  4-C , 20-C ) :   1.0502
B(  6-C ,  7-H ) :   0.9409 B(  6-C ,  8-H ) :   0.9397 B(  6-C ,  9-C ) :   1.0638
B(  9-C , 10-H ) :   0.9615 B(  9-C , 11-H ) :   0.9590 B(  9-C , 12-C ) :   1.0706
B( 12-C , 13-H ) :   0.9768 B( 12-C , 14-H ) :   0.9796 B( 12-C , 15-H ) :   0.9791
B( 16-S , 17-C ) :   1.1693 B( 16-S , 20-C ) :   1.1598 B( 17-C , 18-C ) :   1.5832
B( 17-C , 20-C ) :   0.1024 B( 17-C , 33-H ) :   0.9594 B( 18-C , 19-C ) :   1.2684
B( 18-C , 21-H ) :   1.0037 B( 19-C , 20-C ) :   1.5134 B( 19-C , 22-C ) :   1.0530
B( 22-C , 23-H ) :   0.9232 B( 22-C , 24-H ) :   0.9265 B( 22-C , 25-C ) :   1.0770
B( 25-C , 26-H ) :   0.9528 B( 25-C , 27-H ) :   0.9549 B( 25-C , 28-C ) :   1.0621
B( 28-C , 29-H ) :   0.9715 B( 28-C , 30-H ) :   0.9773 B( 28-C , 31-H ) :   0.9765

Dispersion correction           -0.015232862
FINAL SINGLE POINT ENERGY     -1339.876063011015

DIPOLE MOMENT
-------------
                                X             Y             Z
Electronic contribution:      3.51099      10.93896       2.87613
Nuclear contribution   :     -3.68917     -11.08258      -2.90249
                        -----------------------------------------
Total Dipole Moment    :     -0.17818      -0.14362      -0.02635
                        -----------------------------------------
Magnitude (a.u.)       :      0.23036
Magnitude (Debye)      :      0.58553

Rotational constants in cm-1:     0.021988     0.008712     0.007306
Rotational constants in MHz :   659.195052   261.180025   219.036280

                             ****ORCA TERMINATED NORMALLY****
TOTAL RUN TIME: 0 days 0 hours 0 minutes 31 seconds 408 msec
