                         Program Version 4.2.1 -  RELEASE  -
|  1> ! wB97X-D3 SP def2-SVP
|  2> %pal
|  3> nprocs 16
|  4> end
|  5>
|  6> * xyz 0 1
|  7> S 	 2.94195 	 11.1562 	 86.195
|  8> C 	 1.85025 	 11.248 	 84.8387
|  9> C 	 2.50007 	 11.6867 	 83.7343
| 10> C 	 3.80619 	 12.2109 	 84.0766
| 11> C 	 4.2342 	 11.904 	 85.3775
| 12> H 	 4.5838 	 12.6655 	 83.4047
| 13> C 	 1.99041 	 11.6769 	 82.2983
| 14> H 	 0.882823 	 11.6058 	 82.3358
| 15> H 	 2.4479 	 10.7903 	 81.8698
| 16> C 	 2.25869 	 12.899 	 81.3702
| 17> H 	 1.91305 	 13.8059 	 81.9364
| 18> H 	 3.31184 	 13.0869 	 81.1828
| 19> C 	 1.545 	 12.7301 	 79.9793
| 20> H 	 1.62309 	 13.6619 	 79.4466
| 21> H 	 1.94375 	 11.908 	 79.3592
| 22> H 	 0.455274 	 12.6483 	 80.1687
| 23> S 	 5.42123 	 13.0012 	 87.5979
| 24> C 	 7.15996 	 13.2306 	 87.7251
| 25> C 	 7.76741 	 12.9328 	 86.5236
| 26> C 	 6.82075 	 12.3226 	 85.5618
| 27> C 	 5.47835 	 12.3925 	 85.9892
| 28> H 	 8.81736 	 13.0745 	 86.4102
| 29> C 	 7.34007 	 11.686 	 84.2719
| 30> H 	 6.49073 	 11.0792 	 83.9548
| 31> H 	 8.22545 	 11.1128 	 84.6163
| 32> C 	 7.75487 	 12.6089 	 83.167
| 33> H 	 8.40671 	 13.3437 	 83.6541
| 34> H 	 6.86152 	 13.1664 	 82.8111
| 35> C 	 8.37626 	 11.8194 	 82.0054
| 36> H 	 9.26938 	 11.3623 	 82.4163
| 37> H 	 8.67499 	 12.5293 	 81.1806
| 38> H 	 7.7144 	 11.0626 	 81.5728
| 39> H 	 0.843096 	 10.8638 	 84.8592
| 40> H 	 7.61142 	 13.5872 	 88.6271
| 41> *
| 42>
| 43>                          ****END OF INPUT****

CARTESIAN COORDINATES (ANGSTROEM)
---------------------------------
  S      2.941950   11.156200   86.195000
  C      1.850250   11.248000   84.838700
  C      2.500070   11.686700   83.734300
  C      3.806190   12.210900   84.076600
  C      4.234200   11.904000   85.377500
  H      4.583800   12.665500   83.404700
  C      1.990410   11.676900   82.298300
  H      0.882823   11.605800   82.335800
  H      2.447900   10.790300   81.869800
  C      2.258690   12.899000   81.370200
  H      1.913050   13.805900   81.936400
  H      3.311840   13.086900   81.182800
  C      1.545000   12.730100   79.979300
  H      1.623090   13.661900   79.446600
  H      1.943750   11.908000   79.359200
  H      0.455274   12.648300   80.168700
  S      5.421230   13.001200   87.597900
  C      7.159960   13.230600   87.725100
  C      7.767410   12.932800   86.523600
  C      6.820750   12.322600   85.561800
  C      5.478350   12.392500   85.989200
  H      8.817360   13.074500   86.410200
  C      7.340070   11.686000   84.271900
  H      6.490730   11.079200   83.954800
  H      8.225450   11.112800   84.616300
  C      7.754870   12.608900   83.167000
  H      8.406710   13.343700   83.654100
  H      6.861520   13.166400   82.811100
  C      8.376260   11.819400   82.005400
  H      9.269380   11.362300   82.416300
  H      8.674990   12.529300   81.180600
  H      7.714400   11.062600   81.572800
  H      0.843096   10.863800   84.859200
  H      7.611420   13.587200   88.627100

 Total Charge           Charge          ....    0
 Multiplicity           Mult            ....    1
 Number of Electrons    NEL             ....  134
 Basis Dimension        Dim             ....  322

ORBITAL ENERGIES
----------------

  NO   OCC          E(Eh)            E(eV)
   0   2.0000     -88.965679     -2420.8792
   1   2.0000     -88.961704     -2420.7710
   2   2.0000     -10.330052      -281.0950
   3   2.0000     -10.329865      -281.0899
   4   2.0000     -10.319137      -280.7980
   5   2.0000     -10.312543      -280.6186
   6   2.0000     -10.309322      -280.5309
   7   2.0000     -10.303508      -280.3727
   8   2.0000     -10.298543      -280.2376
   9   2.0000     -10.298288      -280.2307
  10   2.0000     -10.297930      -280.2209
  11   2.0000     -10.295515      -280.1552
  12   2.0000     -10.289057      -279.9795
  13   2.0000     -10.287766      -279.9444
  14   2.0000     -10.286278      -279.9039
  15   2.0000     -10.284371      -279.8520
  16   2.0000      -8.081299      -219.9033
  17   2.0000      -8.077107      -219.7893
  18   2.0000      -6.039790      -164.3510
  19   2.0000      -6.035660      -164.2386
  20   2.0000      -6.035580      -164.2365
  21   2.0000      -6.032103      -164.1419
  22   2.0000      -6.031420      -164.1233
  23   2.0000      -6.027866      -164.0266
  24   2.0000      -1.009945       -27.4820
  25   2.0000      -0.985499       -26.8168
  26   2.0000      -0.913856       -24.8673
  27   2.0000      -0.907581       -24.6965
  28   2.0000      -0.872037       -23.7293
  29   2.0000      -0.847531       -23.0625
  30   2.0000      -0.842199       -22.9174
  31   2.0000      -0.815989       -22.2042
  32   2.0000      -0.780649       -21.2425
  33   2.0000      -0.771004       -20.9801
  34   2.0000      -0.708205       -19.2712
  35   2.0000      -0.696953       -18.9651
  36   2.0000      -0.691899       -18.8275
  37   2.0000      -0.663044       -18.0423
  38   2.0000      -0.639952       -17.4140
  39   2.0000      -0.615261       -16.7421
  40   2.0000      -0.592643       -16.1266
  41   2.0000      -0.575201       -15.6520
  42   2.0000      -0.571053       -15.5392
  43   2.0000      -0.567912       -15.4537
  44   2.0000      -0.526316       -14.3218
  45   2.0000      -0.521864       -14.2006
  46   2.0000      -0.514118       -13.9899
  47   2.0000      -0.511400       -13.9159
  48   2.0000      -0.505315       -13.7503
  49   2.0000      -0.503991       -13.7143
  50   2.0000      -0.497146       -13.5280
  51   2.0000      -0.481401       -13.0996
  52   2.0000      -0.473107       -12.8739
  53   2.0000      -0.466397       -12.6913
  54   2.0000      -0.461264       -12.5516
  55   2.0000      -0.448793       -12.2123
  56   2.0000      -0.441145       -12.0042
  57   2.0000      -0.435068       -11.8388
  58   2.0000      -0.429918       -11.6987
  59   2.0000      -0.427158       -11.6236
  60   2.0000      -0.422574       -11.4988
  61   2.0000      -0.418392       -11.3850
  62   2.0000      -0.410121       -11.1600
  63   2.0000      -0.351814        -9.5733
  64   2.0000      -0.329167        -8.9571
  65   2.0000      -0.325037        -8.8447
  66   2.0000      -0.294471        -8.0130
  67   0.0000       0.029408         0.8002
  68   0.0000       0.082427         2.2429
  69   0.0000       0.115965         3.1556
  70   0.0000       0.120902         3.2899
  71   0.0000       0.122371         3.3299

MULLIKEN ATOMIC CHARGES
-----------------------
   0 S :    0.114029
   1 C :   -0.137301
   2 C :   -0.057172
   3 C :   -0.012920
   4 C :   -0.140513
   5 H :    0.019559
   6 C :    0.064427
   7 H :    0.023691
   8 H :    0.044366
   9 C :   -0.114540
  10 H :    0.041197
  11 H :    0.032454
  12 C :   -0.053234
  13 H :    0.033299
  14 H :    0.049294
  15 H :    0.033418
  16 S :    0.093345
  17 C :   -0.094242
  18 C :   -0.010308
  19 C :   -0.081445
  20 C :   -0.124707
  21 H :    0.016822
  22 C :    0.043392
  23 H :    0.028090
  24 H :    0.031167
  25 C :   -0.076416
  26 H :    0.025255
  27 H :    0.028141
  28 C :   -0.036043
  29 H :    0.027522
  30 H :    0.044477
  31 H :    0.039379
  32 H :    0.047750
  33 H :    0.057768
Sum of atomic charges:   -0.0000000

LOEWDIN ATOMIC CHARGES
----------------------
   0 S :    0.427609
   1 C :   -0.198043
   2 C :   -0.065867
   3 C :   -0.073167
   4 C :   -0.213978
   5 H :    0.033938
   6 C :   -0.032293
   7 H :    0.032168
   8 H :    0.035081
   9 C :   -0.044446
  10 H :    0.031179
  11 H :    0.018251
  12 C :   -0.066723
  13 H :    0.026000
  14 H :    0.030406
  15 H :    0.027938
  16 S :    0.409333
  17 C :   -0.174644
  18 C :   -0.069724
  19 C :   -0.052404
  20 C :   -0.210149
  21 H :    0.027419
  22 C :   -0.038047
  23 H :    0.028985
  24 H :    0.034550
  25 C :   -0.045603
  26 H :    0.023954
  27 H :    0.021713
  28 C :   -0.064259
  29 H :    0.023766
  30 H :    0.033144
  31 H :    0.027980
  32 H :    0.029566
  33 H :    0.026366

  Mayer bond orders larger than 0.100000
B(  0-S ,  1-C ) :   1.1381 B(  0-S ,  4-C ) :   1.1666 B(  1-C ,  2-C ) :   1.6099
B(  1-C , 32-H ) :   0.9709 B(  2-C ,  3-C ) :   1.2363 B(  2-C ,  6-C ) :   1.0166
B(  3-C ,  4-C ) :   1.5529 B(  3-C ,  5-H ) :   0.9829 B(  4-C , 20-C ) :   1.0428
B(  6-C ,  7-H ) :   0.9467 B(  6-C ,  8-H ) :   0.9325 B(  6-C ,  9-C ) :   1.0642
B(  9-C , 10-H ) :   0.9600 B(  9-C , 11-H ) :   0.9511 B(  9-C , 12-C ) :   1.0803
B( 12-C , 13-H ) :   0.9738 B( 12-C , 14-H ) :   0.9758 B( 12-C , 15-H ) :   0.9752
B( 16-S , 17-C ) :   1.1562 B( 16-S , 20-C ) :   1.1383 B( 17-C , 18-C ) :   1.6077
B( 17-C , 33-H ) :   0.9729 B( 18-C , 19-C ) :   1.2235 B( 18-C , 21-H ) :   0.9934
B( 19-C , 20-C ) :   1.5898 B( 19-C , 22-C ) :   1.0439 B( 22-C , 23-H ) :   0.9268
B( 22-C , 24-H ) :   0.9332 B( 22-C , 25-C ) :   1.0774 B( 25-C , 26-H ) :   0.9532
B( 25-C , 27-H ) :   0.9464 B( 25-C , 28-C ) :   1.0755 B( 28-C , 29-H ) :   0.9742
B( 28-C , 30-H ) :   0.9739 B( 28-C , 31-H ) :   0.9739

Dispersion correction           -0.013697927
FINAL SINGLE POINT ENERGY     -1339.888803637593

DIPOLE MOMENT
-------------
                                X             Y             Z
Electronic contribution:     -4.31179      -1.59890      32.05093
Nuclear contribution   :      4.54277       1.61415     -32.70870
                        -----------------------------------------
Total Dipole Moment    :      0.23098       0.01525      -0.65777
                        -----------------------------------------
Magnitude (a.u.)       :      0.69731
Magnitude (Debye)      :      1.77242

Rotational constants in cm-1:     0.016462     0.009040     0.006327
Rotational constants in MHz :   493.520975   271.005737   189.675471

                             ****ORCA TERMINATED NORMALLY****
TOTAL RUN TIME: 0 days 0 hours 0 minutes 33 seconds 926 msec
