                         Program Version 4.2.1 -  RELEASE  -
|  1> ! wB97X-D3 SP def2-SVP
|  2> %pal
|  3> nprocs 16
|  4> end
|  5>
|  6> * xyz 0 1
|  7> S 	 34.1094 	 20.1617 	 67.1127
|  8> C 	 32.8173 	 19.7006 	 68.1796
|  9> C 	 32.9833 	 18.5369 	 68.8192
| 10> C 	 34.385 	 18.2099 	 68.7695
| 11> C 	 35.089 	 18.9648 	 67.9288
| 12> H 	 35.0083 	 17.4542 	 69.2387
| 13> C 	 32.0002 	 17.708 	 69.6228
| 14> H 	 32.603 	 16.8599 	 70.0494
| 15> H 	 31.2193 	 17.4629 	 68.9162
| 16> C 	 31.2891 	 18.4127 	 70.7463
| 17> H 	 30.5599 	 19.1339 	 70.337
| 18> H 	 30.8422 	 17.6381 	 71.3929
| 19> C 	 32.3408 	 19.1027 	 71.6488
| 20> H 	 31.8951 	 19.6658 	 72.548
| 21> H 	 33.051 	 18.3561 	 72.0078
| 22> H 	 32.9809 	 19.7739 	 71.1101
| 23> S 	 37.4619 	 20.37 	 67.396
| 24> C 	 39.0233 	 19.5239 	 67.5455
| 25> C 	 38.786 	 18.1634 	 67.696
| 26> C 	 37.4305 	 17.7507 	 67.7595
| 27> C 	 36.5228 	 18.8484 	 67.6591
| 28> H 	 39.6936 	 17.6091 	 67.5829
| 29> C 	 36.9277 	 16.3341 	 67.863
| 30> H 	 36.0849 	 16.1878 	 67.1695
| 31> H 	 36.6456 	 16.1818 	 68.944
| 32> C 	 38.0397 	 15.2751 	 67.6761
| 33> H 	 38.7748 	 15.4004 	 68.4284
| 34> H 	 38.6341 	 15.418 	 66.7837
| 35> C 	 37.5279 	 13.7896 	 67.8641
| 36> H 	 38.3984 	 13.1618 	 67.6311
| 37> H 	 36.8299 	 13.5992 	 67.0311
| 38> H 	 37.1449 	 13.4988 	 68.8515
| 39> H 	 31.8367 	 20.1281 	 68.0751
| 40> H 	 39.9543 	 20.074 	 67.5813
| 41> *
| 42>
| 43>                          ****END OF INPUT****

CARTESIAN COORDINATES (ANGSTROEM)
---------------------------------
  S     34.109400   20.161700   67.112700
  C     32.817300   19.700600   68.179600
  C     32.983300   18.536900   68.819200
  C     34.385000   18.209900   68.769500
  C     35.089000   18.964800   67.928800
  H     35.008300   17.454200   69.238700
  C     32.000200   17.708000   69.622800
  H     32.603000   16.859900   70.049400
  H     31.219300   17.462900   68.916200
  C     31.289100   18.412700   70.746300
  H     30.559900   19.133900   70.337000
  H     30.842200   17.638100   71.392900
  C     32.340800   19.102700   71.648800
  H     31.895100   19.665800   72.548000
  H     33.051000   18.356100   72.007800
  H     32.980900   19.773900   71.110100
  S     37.461900   20.370000   67.396000
  C     39.023300   19.523900   67.545500
  C     38.786000   18.163400   67.696000
  C     37.430500   17.750700   67.759500
  C     36.522800   18.848400   67.659100
  H     39.693600   17.609100   67.582900
  C     36.927700   16.334100   67.863000
  H     36.084900   16.187800   67.169500
  H     36.645600   16.181800   68.944000
  C     38.039700   15.275100   67.676100
  H     38.774800   15.400400   68.428400
  H     38.634100   15.418000   66.783700
  C     37.527900   13.789600   67.864100
  H     38.398400   13.161800   67.631100
  H     36.829900   13.599200   67.031100
  H     37.144900   13.498800   68.851500
  H     31.836700   20.128100   68.075100
  H     39.954300   20.074000   67.581300

 Total Charge           Charge          ....    0
 Multiplicity           Mult            ....    1
 Number of Electrons    NEL             ....  134
 Basis Dimension        Dim             ....  322

ORBITAL ENERGIES
----------------

  NO   OCC          E(Eh)            E(eV)
   0   2.0000     -88.963279     -2420.8139
   1   2.0000     -88.962334     -2420.7882
   2   2.0000     -10.332455      -281.1604
   3   2.0000     -10.322191      -280.8811
   4   2.0000     -10.321957      -280.8747
   5   2.0000     -10.309611      -280.5388
   6   2.0000     -10.305753      -280.4338
   7   2.0000     -10.300242      -280.2838
   8   2.0000     -10.298766      -280.2437
   9   2.0000     -10.295776      -280.1623
  10   2.0000     -10.295090      -280.1436
  11   2.0000     -10.290402      -280.0161
  12   2.0000     -10.287688      -279.9422
  13   2.0000     -10.286512      -279.9102
  14   2.0000     -10.286434      -279.9081
  15   2.0000     -10.276004      -279.6243
  16   2.0000      -8.078745      -219.8338
  17   2.0000      -8.075843      -219.7549
  18   2.0000      -6.037270      -164.2825
  19   2.0000      -6.034358      -164.2032
  20   2.0000      -6.033515      -164.1803
  21   2.0000      -6.030432      -164.0964
  22   2.0000      -6.029084      -164.0597
  23   2.0000      -6.026766      -163.9966
  24   2.0000      -1.010645       -27.5010
  25   2.0000      -0.979547       -26.6548
  26   2.0000      -0.919077       -25.0094
  27   2.0000      -0.906429       -24.6652
  28   2.0000      -0.870497       -23.6874
  29   2.0000      -0.850882       -23.1537
  30   2.0000      -0.840778       -22.8787
  31   2.0000      -0.814594       -22.1662
  32   2.0000      -0.782544       -21.2941
  33   2.0000      -0.771633       -20.9972
  34   2.0000      -0.709811       -19.3149
  35   2.0000      -0.704178       -19.1617
  36   2.0000      -0.697012       -18.9667
  37   2.0000      -0.652801       -17.7636
  38   2.0000      -0.639373       -17.3982
  39   2.0000      -0.611119       -16.6294
  40   2.0000      -0.593302       -16.1446
  41   2.0000      -0.580954       -15.8085
  42   2.0000      -0.573338       -15.6013
  43   2.0000      -0.555742       -15.1225
  44   2.0000      -0.542405       -14.7596
  45   2.0000      -0.528294       -14.3756
  46   2.0000      -0.515868       -14.0375
  47   2.0000      -0.507989       -13.8231
  48   2.0000      -0.500483       -13.6188
  49   2.0000      -0.491973       -13.3873
  50   2.0000      -0.484801       -13.1921
  51   2.0000      -0.479474       -13.0472
  52   2.0000      -0.472564       -12.8591
  53   2.0000      -0.468480       -12.7480
  54   2.0000      -0.458338       -12.4720
  55   2.0000      -0.448273       -12.1981
  56   2.0000      -0.442133       -12.0311
  57   2.0000      -0.432621       -11.7722
  58   2.0000      -0.430933       -11.7263
  59   2.0000      -0.427279       -11.6269
  60   2.0000      -0.425863       -11.5883
  61   2.0000      -0.415517       -11.3068
  62   2.0000      -0.409420       -11.1409
  63   2.0000      -0.355864        -9.6836
  64   2.0000      -0.332821        -9.0565
  65   2.0000      -0.328172        -8.9300
  66   2.0000      -0.284444        -7.7401
  67   0.0000       0.021643         0.5889
  68   0.0000       0.076264         2.0753
  69   0.0000       0.094265         2.5651
  70   0.0000       0.128318         3.4917
  71   0.0000       0.136896         3.7251

MULLIKEN ATOMIC CHARGES
-----------------------
   0 S :    0.108092
   1 C :   -0.109222
   2 C :   -0.097054
   3 C :   -0.009985
   4 C :   -0.123262
   5 H :   -0.012898
   6 C :    0.094126
   7 H :    0.034730
   8 H :    0.036863
   9 C :   -0.075192
  10 H :    0.039754
  11 H :    0.041986
  12 C :   -0.078747
  13 H :    0.047673
  14 H :    0.017808
  15 H :    0.040523
  16 S :    0.077051
  17 C :   -0.109163
  18 C :   -0.040146
  19 C :   -0.031964
  20 C :   -0.132708
  21 H :    0.017449
  22 C :    0.029018
  23 H :    0.057070
  24 H :    0.057856
  25 C :   -0.096709
  26 H :    0.017730
  27 H :    0.027861
  28 C :   -0.045129
  29 H :    0.031793
  30 H :    0.036195
  31 H :    0.047243
  32 H :    0.033899
  33 H :    0.067457
Sum of atomic charges:   -0.0000000

LOEWDIN ATOMIC CHARGES
----------------------
   0 S :    0.393928
   1 C :   -0.191713
   2 C :   -0.059649
   3 C :   -0.068316
   4 C :   -0.186885
   5 H :    0.032212
   6 C :   -0.031434
   7 H :    0.038105
   8 H :    0.037012
   9 C :   -0.041975
  10 H :    0.025253
  11 H :    0.031878
  12 C :   -0.073950
  13 H :    0.032622
  14 H :    0.022481
  15 H :    0.021072
  16 S :    0.367226
  17 C :   -0.171752
  18 C :   -0.078925
  19 C :   -0.059924
  20 C :   -0.178113
  21 H :    0.031214
  22 C :   -0.036466
  23 H :    0.037936
  24 H :    0.040888
  25 C :   -0.041616
  26 H :    0.017310
  27 H :    0.021651
  28 C :   -0.065527
  29 H :    0.029375
  30 H :    0.026962
  31 H :    0.027271
  32 H :    0.020180
  33 H :    0.031667

  Mayer bond orders larger than 0.100000
B(  0-S ,  1-C ) :   1.1241 B(  0-S ,  4-C ) :   1.1182 B(  1-C ,  2-C ) :   1.6721
B(  1-C , 32-H ) :   0.9626 B(  2-C ,  3-C ) :   1.1587 B(  2-C ,  6-C ) :   1.0107
B(  3-C ,  4-C ) :   1.6688 B(  3-C ,  5-H ) :   0.9852 B(  4-C , 20-C ) :   1.0514
B(  6-C ,  7-H ) :   0.9424 B(  6-C ,  8-H ) :   0.9250 B(  6-C ,  9-C ) :   1.0911
B(  9-C , 10-H ) :   0.9513 B(  9-C , 11-H ) :   0.9567 B(  9-C , 12-C ) :   1.0705
B( 12-C , 13-H ) :   0.9755 B( 12-C , 14-H ) :   0.9745 B( 12-C , 15-H ) :   0.9705
B( 16-S , 17-C ) :   1.1570 B( 16-S , 20-C ) :   1.1383 B( 17-C , 18-C ) :   1.5829
B( 17-C , 20-C ) :   0.1137 B( 17-C , 33-H ) :   0.9673 B( 18-C , 19-C ) :   1.2527
B( 18-C , 21-H ) :   0.9928 B( 19-C , 20-C ) :   1.5579 B( 19-C , 22-C ) :   1.0309
B( 22-C , 23-H ) :   0.9441 B( 22-C , 24-H ) :   0.9183 B( 22-C , 25-C ) :   1.0844
B( 25-C , 26-H ) :   0.9445 B( 25-C , 27-H ) :   0.9546 B( 25-C , 28-C ) :   1.0793
B( 28-C , 29-H ) :   0.9728 B( 28-C , 30-H ) :   0.9768 B( 28-C , 31-H ) :   0.9760

Dispersion correction           -0.013983379
FINAL SINGLE POINT ENERGY     -1339.863495411496

DIPOLE MOMENT
-------------
                                X             Y             Z
Electronic contribution:      5.74108      22.12196     -13.82536
Nuclear contribution   :     -5.72078     -22.81148      14.10670
                        -----------------------------------------
Total Dipole Moment    :      0.02030      -0.68952       0.28134
                        -----------------------------------------
Magnitude (a.u.)       :      0.74499
Magnitude (Debye)      :      1.89361

Rotational constants in cm-1:     0.017449     0.008667     0.006541
Rotational constants in MHz :   523.094413   259.834060   196.088439

                             ****ORCA TERMINATED NORMALLY****
TOTAL RUN TIME: 0 days 0 hours 0 minutes 29 seconds 911 msec
