                         Program Version 4.2.1 -  RELEASE  -
|  1> ! wB97X-D3 SP def2-SVP
|  2> %pal
|  3> nprocs 16
|  4> end
|  5>
|  6> * xyz 0 1
|  7> S 	 -37.7164 	 0.226906 	 100.31
|  8> C 	 -36.0649 	 -0.301359 	 100.414
|  9> C 	 -35.3478 	 0.236106 	 99.3303
| 10> C 	 -36.1187 	 1.14677 	 98.4911
| 11> C 	 -37.4286 	 1.25582 	 98.8991
| 12> H 	 -35.7805 	 1.6015 	 97.5614
| 13> C 	 -33.8823 	 0.0192161 	 99.2201
| 14> H 	 -33.6436 	 -0.932251 	 99.5713
| 15> H 	 -33.2609 	 0.685933 	 99.7833
| 16> C 	 -33.2666 	 0.0422524 	 97.7834
| 17> H 	 -33.3305 	 1.0455 	 97.3278
| 18> H 	 -32.2168 	 -0.27631 	 97.9231
| 19> C 	 -34.0617 	 -0.973996 	 96.9109
| 20> H 	 -33.5866 	 -1.09607 	 95.8518
| 21> H 	 -34.1688 	 -1.94899 	 97.2648
| 22> H 	 -34.9711 	 -0.456938 	 96.6617
| 23> S 	 -38.8903 	 3.5416 	 98.4726
| 24> C 	 -40.1187 	 3.63842 	 97.1588
| 25> C 	 -40.0391 	 2.48417 	 96.4006
| 26> C 	 -39.1193 	 1.48957 	 96.8782
| 27> C 	 -38.4824 	 1.9016 	 98.0945
| 28> H 	 -40.6724 	 2.26054 	 95.5175
| 29> C 	 -39.0151 	 0.0990062 	 96.2824
| 30> H 	 -38.1601 	 0.0649632 	 95.5673
| 31> H 	 -39.9181 	 -0.0641493 	 95.7049
| 32> C 	 -38.8715 	 -1.12675 	 97.2565
| 33> H 	 -39.293 	 -0.926522 	 98.2939
| 34> H 	 -37.796 	 -1.32408 	 97.3866
| 35> C 	 -39.4437 	 -2.35904 	 96.671
| 36> H 	 -40.4461 	 -2.23686 	 96.3017
| 37> H 	 -39.5458 	 -3.16083 	 97.355
| 38> H 	 -38.829 	 -2.76101 	 95.7838
| 39> H 	 -35.5567 	 -0.812336 	 101.228
| 40> H 	 -40.7059 	 4.46839 	 96.9881
| 41> *
| 42>
| 43>                          ****END OF INPUT****

CARTESIAN COORDINATES (ANGSTROEM)
---------------------------------
  S    -37.716400    0.226906  100.310000
  C    -36.064900   -0.301359  100.414000
  C    -35.347800    0.236106   99.330300
  C    -36.118700    1.146770   98.491100
  C    -37.428600    1.255820   98.899100
  H    -35.780500    1.601500   97.561400
  C    -33.882300    0.019216   99.220100
  H    -33.643600   -0.932251   99.571300
  H    -33.260900    0.685933   99.783300
  C    -33.266600    0.042252   97.783400
  H    -33.330500    1.045500   97.327800
  H    -32.216800   -0.276310   97.923100
  C    -34.061700   -0.973996   96.910900
  H    -33.586600   -1.096070   95.851800
  H    -34.168800   -1.948990   97.264800
  H    -34.971100   -0.456938   96.661700
  S    -38.890300    3.541600   98.472600
  C    -40.118700    3.638420   97.158800
  C    -40.039100    2.484170   96.400600
  C    -39.119300    1.489570   96.878200
  C    -38.482400    1.901600   98.094500
  H    -40.672400    2.260540   95.517500
  C    -39.015100    0.099006   96.282400
  H    -38.160100    0.064963   95.567300
  H    -39.918100   -0.064149   95.704900
  C    -38.871500   -1.126750   97.256500
  H    -39.293000   -0.926522   98.293900
  H    -37.796000   -1.324080   97.386600
  C    -39.443700   -2.359040   96.671000
  H    -40.446100   -2.236860   96.301700
  H    -39.545800   -3.160830   97.355000
  H    -38.829000   -2.761010   95.783800
  H    -35.556700   -0.812336  101.228000
  H    -40.705900    4.468390   96.988100

 Total Charge           Charge          ....    0
 Multiplicity           Mult            ....    1
 Number of Electrons    NEL             ....  134
 Basis Dimension        Dim             ....  322

ORBITAL ENERGIES
----------------

  NO   OCC          E(Eh)            E(eV)
   0   2.0000     -88.968458     -2420.9548
   1   2.0000     -88.964872     -2420.8572
   2   2.0000     -10.332413      -281.1592
   3   2.0000     -10.329824      -281.0888
   4   2.0000     -10.319364      -280.8042
   5   2.0000     -10.318404      -280.7781
   6   2.0000     -10.308603      -280.5113
   7   2.0000     -10.304564      -280.4015
   8   2.0000     -10.300533      -280.2918
   9   2.0000     -10.300265      -280.2845
  10   2.0000     -10.294400      -280.1249
  11   2.0000     -10.293335      -280.0959
  12   2.0000     -10.283995      -279.8417
  13   2.0000     -10.282319      -279.7961
  14   2.0000     -10.278210      -279.6843
  15   2.0000     -10.271743      -279.5083
  16   2.0000      -8.082306      -219.9307
  17   2.0000      -8.079094      -219.8433
  18   2.0000      -6.040884      -164.3808
  19   2.0000      -6.037578      -164.2908
  20   2.0000      -6.036789      -164.2694
  21   2.0000      -6.033504      -164.1800
  22   2.0000      -6.033157      -164.1706
  23   2.0000      -6.030078      -164.0868
  24   2.0000      -1.001088       -27.2410
  25   2.0000      -0.978992       -26.6397
  26   2.0000      -0.912114       -24.8199
  27   2.0000      -0.904087       -24.6015
  28   2.0000      -0.869681       -23.6652
  29   2.0000      -0.849233       -23.1088
  30   2.0000      -0.839615       -22.8471
  31   2.0000      -0.818386       -22.2694
  32   2.0000      -0.780278       -21.2324
  33   2.0000      -0.766490       -20.8573
  34   2.0000      -0.710571       -19.3356
  35   2.0000      -0.693003       -18.8576
  36   2.0000      -0.687129       -18.6977
  37   2.0000      -0.661081       -17.9889
  38   2.0000      -0.640455       -17.4277
  39   2.0000      -0.622496       -16.9390
  40   2.0000      -0.595093       -16.1933
  41   2.0000      -0.569676       -15.5017
  42   2.0000      -0.561257       -15.2726
  43   2.0000      -0.555251       -15.1092
  44   2.0000      -0.534326       -14.5398
  45   2.0000      -0.530323       -14.4308
  46   2.0000      -0.517793       -14.0899
  47   2.0000      -0.514435       -13.9985
  48   2.0000      -0.503995       -13.7144
  49   2.0000      -0.500812       -13.6278
  50   2.0000      -0.485531       -13.2120
  51   2.0000      -0.478316       -13.0156
  52   2.0000      -0.473999       -12.8982
  53   2.0000      -0.466627       -12.6976
  54   2.0000      -0.459102       -12.4928
  55   2.0000      -0.448221       -12.1967
  56   2.0000      -0.436893       -11.8885
  57   2.0000      -0.435314       -11.8455
  58   2.0000      -0.428355       -11.6561
  59   2.0000      -0.424132       -11.5412
  60   2.0000      -0.413963       -11.2645
  61   2.0000      -0.412093       -11.2136
  62   2.0000      -0.406553       -11.0629
  63   2.0000      -0.338005        -9.1976
  64   2.0000      -0.332379        -9.0445
  65   2.0000      -0.314463        -8.5570
  66   2.0000      -0.308240        -8.3876
  67   0.0000       0.036820         1.0019
  68   0.0000       0.051354         1.3974
  69   0.0000       0.109936         2.9915
  70   0.0000       0.118525         3.2252
  71   0.0000       0.127245         3.4625

MULLIKEN ATOMIC CHARGES
-----------------------
   0 S :    0.117557
   1 C :   -0.108325
   2 C :   -0.123499
   3 C :    0.063522
   4 C :   -0.160921
   5 H :    0.024691
   6 C :    0.096999
   7 H :   -0.001350
   8 H :    0.036573
   9 C :   -0.114618
  10 H :    0.041587
  11 H :    0.038240
  12 C :   -0.054081
  13 H :    0.031716
  14 H :    0.032129
  15 H :    0.024624
  16 S :    0.103000
  17 C :   -0.070051
  18 C :   -0.028131
  19 C :   -0.025863
  20 C :   -0.195676
  21 H :    0.032096
  22 C :    0.059958
  23 H :    0.043206
  24 H :    0.012148
  25 C :   -0.088654
  26 H :    0.047139
  27 H :    0.039083
  28 C :   -0.036294
  29 H :    0.016857
  30 H :    0.022167
  31 H :    0.032477
  32 H :    0.056762
  33 H :    0.034932
Sum of atomic charges:   -0.0000000

LOEWDIN ATOMIC CHARGES
----------------------
   0 S :    0.419263
   1 C :   -0.202132
   2 C :   -0.063209
   3 C :   -0.054722
   4 C :   -0.196351
   5 H :    0.034590
   6 C :   -0.033935
   7 H :    0.020606
   8 H :    0.030434
   9 C :   -0.037702
  10 H :    0.023932
  11 H :    0.026900
  12 C :   -0.067504
  13 H :    0.033105
  14 H :    0.015796
  15 H :    0.021818
  16 S :    0.404092
  17 C :   -0.160992
  18 C :   -0.070582
  19 C :   -0.055039
  20 C :   -0.212778
  21 H :    0.037387
  22 C :   -0.033111
  23 H :    0.038483
  24 H :    0.025869
  25 C :   -0.051023
  26 H :    0.023752
  27 H :    0.029120
  28 C :   -0.068218
  29 H :    0.017820
  30 H :    0.021474
  31 H :    0.032135
  32 H :    0.036050
  33 H :    0.014672

  Mayer bond orders larger than 0.100000
B(  0-S ,  1-C ) :   1.1431 B(  0-S ,  4-C ) :   1.1519 B(  1-C ,  2-C ) :   1.6041
B(  1-C , 32-H ) :   0.9696 B(  2-C ,  3-C ) :   1.2246 B(  2-C ,  6-C ) :   1.0334
B(  3-C ,  4-C ) :   1.5903 B(  3-C ,  5-H ) :   0.9883 B(  4-C , 20-C ) :   1.0029
B(  6-C ,  7-H ) :   0.9361 B(  6-C ,  8-H ) :   0.9356 B(  6-C ,  9-C ) :   1.0730
B(  9-C , 10-H ) :   0.9533 B(  9-C , 11-H ) :   0.9592 B(  9-C , 12-C ) :   1.0777
B( 12-C , 13-H ) :   0.9718 B( 12-C , 14-H ) :   0.9801 B( 12-C , 15-H ) :   0.9694
B( 16-S , 17-C ) :   1.1512 B( 16-S , 20-C ) :   1.1688 B( 17-C , 18-C ) :   1.5769
B( 17-C , 20-C ) :   0.1068 B( 17-C , 33-H ) :   0.9841 B( 18-C , 19-C ) :   1.2829
B( 18-C , 21-H ) :   0.9767 B( 19-C , 20-C ) :   1.5525 B( 19-C , 22-C ) :   1.0348
B( 22-C , 23-H ) :   0.9209 B( 22-C , 24-H ) :   0.9484 B( 22-C , 25-C ) :   1.0527
B( 25-C , 26-H ) :   0.9545 B( 25-C , 27-H ) :   0.9469 B( 25-C , 28-C ) :   1.1013
B( 28-C , 29-H ) :   0.9708 B( 28-C , 30-H ) :   0.9698 B( 28-C , 31-H ) :   0.9712

Dispersion correction           -0.015922358
FINAL SINGLE POINT ENERGY     -1339.870128221762

DIPOLE MOMENT
-------------
                                X             Y             Z
Electronic contribution:    -11.58554      19.11404      14.29569
Nuclear contribution   :     11.90813     -19.43346     -14.67526
                        -----------------------------------------
Total Dipole Moment    :      0.32259      -0.31942      -0.37957
                        -----------------------------------------
Magnitude (a.u.)       :      0.59175
Magnitude (Debye)      :      1.50411

Rotational constants in cm-1:     0.017835     0.009667     0.008412
Rotational constants in MHz :   534.674199   289.809763   252.193365

                             ****ORCA TERMINATED NORMALLY****
TOTAL RUN TIME: 0 days 0 hours 0 minutes 32 seconds 11 msec
