                         Program Version 4.2.1 -  RELEASE  -
|  1> ! wB97X-D3 SP def2-SVP
|  2> %pal
|  3> nprocs 16
|  4> end
|  5>
|  6> * xyz 0 1
|  7> S 	 49.5626 	 23.2348 	 88.5198
|  8> C 	 49.8647 	 23.5772 	 90.192
|  9> C 	 51.2163 	 23.832 	 90.4314
| 10> C 	 51.9672 	 23.7562 	 89.2156
| 11> C 	 51.2957 	 23.3073 	 88.1053
| 12> H 	 53.0143 	 23.9059 	 89.1573
| 13> C 	 51.8584 	 24.1525 	 91.8164
| 14> H 	 52.1185 	 23.2322 	 92.3274
| 15> H 	 51.1274 	 24.5566 	 92.4388
| 16> C 	 52.9719 	 25.1904 	 91.8086
| 17> H 	 53.7088 	 24.9482 	 91.0649
| 18> H 	 52.7062 	 26.1815 	 91.4836
| 19> C 	 53.5951 	 25.4464 	 93.1575
| 20> H 	 54.4844 	 24.7818 	 93.2716
| 21> H 	 53.9087 	 26.4779 	 93.269
| 22> H 	 52.8668 	 25.1616 	 94.0464
| 23> S 	 50.5342 	 22.5577 	 85.5951
| 24> C 	 51.6286 	 22.4307 	 84.2755
| 25> C 	 52.8757 	 22.8463 	 84.6895
| 26> C 	 52.9503 	 23.3558 	 86.054
| 27> C 	 51.7334 	 23.1645 	 86.7303
| 28> H 	 53.7018 	 22.6961 	 83.9314
| 29> C 	 54.2301 	 23.9905 	 86.5544
| 30> H 	 54.9002 	 24.0757 	 85.6814
| 31> H 	 54.6381 	 23.3636 	 87.3306
| 32> C 	 54.038 	 25.4936 	 87.0864
| 33> H 	 54.8789 	 25.7074 	 87.694
| 34> H 	 53.0786 	 25.567 	 87.6984
| 35> C 	 53.9595 	 26.5598 	 85.9641
| 36> H 	 54.207 	 27.5401 	 86.4478
| 37> H 	 52.9005 	 26.6545 	 85.6371
| 38> H 	 54.6315 	 26.3823 	 85.1479
| 39> H 	 48.99 	 23.647 	 90.8334
| 40> H 	 51.6087 	 21.8736 	 83.3461
| 41> *
| 42>
| 43>                          ****END OF INPUT****

CARTESIAN COORDINATES (ANGSTROEM)
---------------------------------
  S     49.562600   23.234800   88.519800
  C     49.864700   23.577200   90.192000
  C     51.216300   23.832000   90.431400
  C     51.967200   23.756200   89.215600
  C     51.295700   23.307300   88.105300
  H     53.014300   23.905900   89.157300
  C     51.858400   24.152500   91.816400
  H     52.118500   23.232200   92.327400
  H     51.127400   24.556600   92.438800
  C     52.971900   25.190400   91.808600
  H     53.708800   24.948200   91.064900
  H     52.706200   26.181500   91.483600
  C     53.595100   25.446400   93.157500
  H     54.484400   24.781800   93.271600
  H     53.908700   26.477900   93.269000
  H     52.866800   25.161600   94.046400
  S     50.534200   22.557700   85.595100
  C     51.628600   22.430700   84.275500
  C     52.875700   22.846300   84.689500
  C     52.950300   23.355800   86.054000
  C     51.733400   23.164500   86.730300
  H     53.701800   22.696100   83.931400
  C     54.230100   23.990500   86.554400
  H     54.900200   24.075700   85.681400
  H     54.638100   23.363600   87.330600
  C     54.038000   25.493600   87.086400
  H     54.878900   25.707400   87.694000
  H     53.078600   25.567000   87.698400
  C     53.959500   26.559800   85.964100
  H     54.207000   27.540100   86.447800
  H     52.900500   26.654500   85.637100
  H     54.631500   26.382300   85.147900
  H     48.990000   23.647000   90.833400
  H     51.608700   21.873600   83.346100

 Total Charge           Charge          ....    0
 Multiplicity           Mult            ....    1
 Number of Electrons    NEL             ....  134
 Basis Dimension        Dim             ....  322

ORBITAL ENERGIES
----------------

  NO   OCC          E(Eh)            E(eV)
   0   2.0000     -88.965252     -2420.8676
   1   2.0000     -88.964183     -2420.8385
   2   2.0000     -10.333973      -281.2017
   3   2.0000     -10.333126      -281.1787
   4   2.0000     -10.318181      -280.7720
   5   2.0000     -10.313128      -280.6345
   6   2.0000     -10.309581      -280.5380
   7   2.0000     -10.308862      -280.5184
   8   2.0000     -10.297871      -280.2193
   9   2.0000     -10.297829      -280.2182
  10   2.0000     -10.292921      -280.0846
  11   2.0000     -10.292853      -280.0828
  12   2.0000     -10.291171      -280.0370
  13   2.0000     -10.288763      -279.9715
  14   2.0000     -10.282521      -279.8016
  15   2.0000     -10.279490      -279.7191
  16   2.0000      -8.080186      -219.8730
  17   2.0000      -8.078973      -219.8400
  18   2.0000      -6.038917      -164.3273
  19   2.0000      -6.037596      -164.2913
  20   2.0000      -6.034531      -164.2079
  21   2.0000      -6.033462      -164.1789
  22   2.0000      -6.030838      -164.1074
  23   2.0000      -6.029627      -164.0745
  24   2.0000      -1.007323       -27.4107
  25   2.0000      -0.983740       -26.7689
  26   2.0000      -0.914442       -24.8832
  27   2.0000      -0.902005       -24.5448
  28   2.0000      -0.873348       -23.7650
  29   2.0000      -0.850672       -23.1480
  30   2.0000      -0.842327       -22.9209
  31   2.0000      -0.818286       -22.2667
  32   2.0000      -0.780984       -21.2517
  33   2.0000      -0.771314       -20.9885
  34   2.0000      -0.711892       -19.3716
  35   2.0000      -0.699954       -19.0467
  36   2.0000      -0.685196       -18.6451
  37   2.0000      -0.664997       -18.0955
  38   2.0000      -0.639938       -17.4136
  39   2.0000      -0.627016       -17.0620
  40   2.0000      -0.585930       -15.9440
  41   2.0000      -0.567589       -15.4449
  42   2.0000      -0.563207       -15.3256
  43   2.0000      -0.551549       -15.0084
  44   2.0000      -0.545390       -14.8408
  45   2.0000      -0.528487       -14.3809
  46   2.0000      -0.515246       -14.0206
  47   2.0000      -0.511317       -13.9137
  48   2.0000      -0.506983       -13.7957
  49   2.0000      -0.499158       -13.5828
  50   2.0000      -0.496023       -13.4975
  51   2.0000      -0.477240       -12.9864
  52   2.0000      -0.472774       -12.8648
  53   2.0000      -0.470797       -12.8110
  54   2.0000      -0.459301       -12.4982
  55   2.0000      -0.446933       -12.1617
  56   2.0000      -0.440578       -11.9887
  57   2.0000      -0.438280       -11.9262
  58   2.0000      -0.434994       -11.8368
  59   2.0000      -0.423865       -11.5339
  60   2.0000      -0.416745       -11.3402
  61   2.0000      -0.410361       -11.1665
  62   2.0000      -0.405406       -11.0317
  63   2.0000      -0.366717        -9.9789
  64   2.0000      -0.335090        -9.1183
  65   2.0000      -0.324367        -8.8265
  66   2.0000      -0.280997        -7.6463
  67   0.0000       0.015135         0.4118
  68   0.0000       0.088510         2.4085
  69   0.0000       0.095725         2.6048
  70   0.0000       0.120170         3.2700
  71   0.0000       0.133697         3.6381

MULLIKEN ATOMIC CHARGES
-----------------------
   0 S :    0.083036
   1 C :   -0.133212
   2 C :   -0.066112
   3 C :   -0.021977
   4 C :   -0.082360
   5 H :   -0.004236
   6 C :    0.121696
   7 H :    0.042607
   8 H :    0.000440
   9 C :   -0.079457
  10 H :    0.020592
  11 H :    0.020956
  12 C :   -0.085232
  13 H :    0.038933
  14 H :    0.039238
  15 H :    0.043750
  16 S :    0.092078
  17 C :   -0.067498
  18 C :   -0.093329
  19 C :   -0.069824
  20 C :   -0.116134
  21 H :    0.039695
  22 C :    0.056159
  23 H :    0.024923
  24 H :    0.045797
  25 C :   -0.115354
  26 H :    0.023399
  27 H :    0.059817
  28 C :   -0.054251
  29 H :    0.036079
  30 H :    0.050742
  31 H :    0.030775
  32 H :    0.057626
  33 H :    0.060640
Sum of atomic charges:   -0.0000000

LOEWDIN ATOMIC CHARGES
----------------------
   0 S :    0.392121
   1 C :   -0.194042
   2 C :   -0.058415
   3 C :   -0.067706
   4 C :   -0.176448
   5 H :    0.022000
   6 C :   -0.022108
   7 H :    0.035244
   8 H :    0.022323
   9 C :   -0.049716
  10 H :    0.018435
  11 H :    0.025317
  12 C :   -0.070207
  13 H :    0.028070
  14 H :    0.025207
  15 H :    0.036629
  16 S :    0.412055
  17 C :   -0.208734
  18 C :   -0.081801
  19 C :   -0.060397
  20 C :   -0.190713
  21 H :    0.039664
  22 C :   -0.031979
  23 H :    0.032645
  24 H :    0.029551
  25 C :   -0.043002
  26 H :    0.014303
  27 H :    0.036190
  28 C :   -0.067030
  29 H :    0.032132
  30 H :    0.033632
  31 H :    0.018120
  32 H :    0.028779
  33 H :    0.039881

  Mayer bond orders larger than 0.100000
B(  0-S ,  1-C ) :   1.1530 B(  0-S ,  4-C ) :   1.1326 B(  1-C ,  2-C ) :   1.5904
B(  1-C , 32-H ) :   0.9731 B(  2-C ,  3-C ) :   1.2578 B(  2-C ,  6-C ) :   1.0055
B(  3-C ,  4-C ) :   1.5801 B(  3-C ,  5-H ) :   0.9903 B(  4-C , 20-C ) :   1.0973
B(  6-C ,  7-H ) :   0.9410 B(  6-C ,  8-H ) :   0.9336 B(  6-C ,  9-C ) :   1.0615
B(  9-C , 10-H ) :   0.9531 B(  9-C , 11-H ) :   0.9608 B(  9-C , 12-C ) :   1.0749
B( 12-C , 13-H ) :   0.9762 B( 12-C , 14-H ) :   0.9783 B( 12-C , 15-H ) :   0.9741
B( 16-S , 17-C ) :   1.1493 B( 16-S , 20-C ) :   1.1346 B( 17-C , 18-C ) :   1.6402
B( 17-C , 33-H ) :   0.9593 B( 18-C , 19-C ) :   1.2485 B( 18-C , 21-H ) :   0.9741
B( 19-C , 20-C ) :   1.5558 B( 19-C , 22-C ) :   1.0429 B( 22-C , 23-H ) :   0.9402
B( 22-C , 24-H ) :   0.9321 B( 22-C , 25-C ) :   1.0572 B( 25-C , 26-H ) :   0.9610
B( 25-C , 27-H ) :   0.9552 B( 25-C , 28-C ) :   1.0710 B( 28-C , 29-H ) :   0.9754
B( 28-C , 30-H ) :   0.9793 B( 28-C , 31-H ) :   0.9773

Dispersion correction           -0.014283290
FINAL SINGLE POINT ENERGY     -1339.869308584128

DIPOLE MOMENT
-------------
                                X             Y             Z
Electronic contribution:    -21.57497     -16.51774     -15.14739
Nuclear contribution   :     22.21891      16.77116      15.45148
                        -----------------------------------------
Total Dipole Moment    :      0.64394       0.25343       0.30409
                        -----------------------------------------
Magnitude (a.u.)       :      0.75588
Magnitude (Debye)      :      1.92130

Rotational constants in cm-1:     0.019153     0.009082     0.006640
Rotational constants in MHz :   574.201276   272.256880   199.058233

                             ****ORCA TERMINATED NORMALLY****
TOTAL RUN TIME: 0 days 0 hours 0 minutes 28 seconds 938 msec
