                         Program Version 4.2.1 -  RELEASE  -
|  1> ! wB97X-D3 SP def2-SVP
|  2> %pal
|  3> nprocs 16
|  4> end
|  5>
|  6> * xyz 0 1
|  7> S 	 11.6805 	 32.4636 	 61.4349
|  8> C 	 13.4082 	 32.0906 	 61.4098
|  9> C 	 14.1642 	 33.0834 	 60.8021
| 10> C 	 13.3177 	 34.1669 	 60.3146
| 11> C 	 11.9658 	 33.8792 	 60.4081
| 12> H 	 13.7048 	 35.0682 	 59.7854
| 13> C 	 15.674 	 33.1405 	 60.7119
| 14> H 	 15.9045 	 34.1925 	 60.5102
| 15> H 	 15.8785 	 32.5235 	 59.844
| 16> C 	 16.5451 	 32.4324 	 61.7339
| 17> H 	 16.4211 	 31.3311 	 61.6751
| 18> H 	 17.6571 	 32.6551 	 61.6142
| 19> C 	 16.2816 	 33.0313 	 63.199
| 20> H 	 16.8774 	 33.8832 	 63.3313
| 21> H 	 15.2649 	 33.2431 	 63.3588
| 22> H 	 16.5854 	 32.3289 	 64.0601
| 23> S 	 9.92044 	 35.5043 	 61.3995
| 24> C 	 8.71896 	 36.005 	 60.2594
| 25> C 	 9.04055 	 35.639 	 58.9291
| 26> C 	 10.3058 	 34.9296 	 58.8029
| 27> C 	 10.7806 	 34.6053 	 60.0578
| 28> H 	 8.37894 	 35.8709 	 58.1163
| 29> C 	 10.9056 	 34.377 	 57.5768
| 30> H 	 11.9591 	 34.2439 	 57.7077
| 31> H 	 10.7628 	 35.1725 	 56.7881
| 32> C 	 10.2373 	 33.1101 	 56.9842
| 33> H 	 10.7646 	 32.9164 	 56.0416
| 34> H 	 9.11841 	 33.2946 	 56.6859
| 35> C 	 10.2364 	 31.9559 	 58.018
| 36> H 	 11.2742 	 31.729 	 58.3037
| 37> H 	 9.86655 	 30.9872 	 57.7013
| 38> H 	 9.67822 	 32.3413 	 58.874
| 39> H 	 13.7901 	 31.3419 	 62.0298
| 40> H 	 7.78682 	 36.4194 	 60.6805
| 41> *
| 42>
| 43>                          ****END OF INPUT****

CARTESIAN COORDINATES (ANGSTROEM)
---------------------------------
  S     11.680500   32.463600   61.434900
  C     13.408200   32.090600   61.409800
  C     14.164200   33.083400   60.802100
  C     13.317700   34.166900   60.314600
  C     11.965800   33.879200   60.408100
  H     13.704800   35.068200   59.785400
  C     15.674000   33.140500   60.711900
  H     15.904500   34.192500   60.510200
  H     15.878500   32.523500   59.844000
  C     16.545100   32.432400   61.733900
  H     16.421100   31.331100   61.675100
  H     17.657100   32.655100   61.614200
  C     16.281600   33.031300   63.199000
  H     16.877400   33.883200   63.331300
  H     15.264900   33.243100   63.358800
  H     16.585400   32.328900   64.060100
  S      9.920440   35.504300   61.399500
  C      8.718960   36.005000   60.259400
  C      9.040550   35.639000   58.929100
  C     10.305800   34.929600   58.802900
  C     10.780600   34.605300   60.057800
  H      8.378940   35.870900   58.116300
  C     10.905600   34.377000   57.576800
  H     11.959100   34.243900   57.707700
  H     10.762800   35.172500   56.788100
  C     10.237300   33.110100   56.984200
  H     10.764600   32.916400   56.041600
  H      9.118410   33.294600   56.685900
  C     10.236400   31.955900   58.018000
  H     11.274200   31.729000   58.303700
  H      9.866550   30.987200   57.701300
  H      9.678220   32.341300   58.874000
  H     13.790100   31.341900   62.029800
  H      7.786820   36.419400   60.680500

 Total Charge           Charge          ....    0
 Multiplicity           Mult            ....    1
 Number of Electrons    NEL             ....  134
 Basis Dimension        Dim             ....  322

ORBITAL ENERGIES
----------------

  NO   OCC          E(Eh)            E(eV)
   0   2.0000     -88.963117     -2420.8095
   1   2.0000     -88.962620     -2420.7960
   2   2.0000     -10.328424      -281.0507
   3   2.0000     -10.324360      -280.9401
   4   2.0000     -10.323731      -280.9230
   5   2.0000     -10.310444      -280.5614
   6   2.0000     -10.307283      -280.4754
   7   2.0000     -10.305342      -280.4226
   8   2.0000     -10.304086      -280.3884
   9   2.0000     -10.301954      -280.3304
  10   2.0000     -10.301061      -280.3061
  11   2.0000     -10.295531      -280.1556
  12   2.0000     -10.295169      -280.1458
  13   2.0000     -10.292222      -280.0656
  14   2.0000     -10.274755      -279.5903
  15   2.0000     -10.269802      -279.4555
  16   2.0000      -8.077484      -219.7995
  17   2.0000      -8.076850      -219.7823
  18   2.0000      -6.035944      -164.2464
  19   2.0000      -6.035339      -164.2299
  20   2.0000      -6.032170      -164.1437
  21   2.0000      -6.031507      -164.1256
  22   2.0000      -6.028181      -164.0352
  23   2.0000      -6.027564      -164.0184
  24   2.0000      -1.000729       -27.2312
  25   2.0000      -0.975786       -26.5525
  26   2.0000      -0.911296       -24.7976
  27   2.0000      -0.908784       -24.7293
  28   2.0000      -0.862159       -23.4605
  29   2.0000      -0.845886       -23.0177
  30   2.0000      -0.840256       -22.8645
  31   2.0000      -0.804904       -21.9025
  32   2.0000      -0.786196       -21.3935
  33   2.0000      -0.772372       -21.0173
  34   2.0000      -0.706722       -19.2309
  35   2.0000      -0.701651       -19.0929
  36   2.0000      -0.690374       -18.7860
  37   2.0000      -0.656389       -17.8613
  38   2.0000      -0.640727       -17.4351
  39   2.0000      -0.607557       -16.5325
  40   2.0000      -0.595116       -16.1939
  41   2.0000      -0.570421       -15.5220
  42   2.0000      -0.554734       -15.0951
  43   2.0000      -0.548366       -14.9218
  44   2.0000      -0.544045       -14.8042
  45   2.0000      -0.531941       -14.4748
  46   2.0000      -0.514892       -14.0109
  47   2.0000      -0.512338       -13.9414
  48   2.0000      -0.495411       -13.4808
  49   2.0000      -0.492328       -13.3969
  50   2.0000      -0.488819       -13.3014
  51   2.0000      -0.477330       -12.9888
  52   2.0000      -0.469215       -12.7680
  53   2.0000      -0.457832       -12.4582
  54   2.0000      -0.457163       -12.4400
  55   2.0000      -0.445132       -12.1126
  56   2.0000      -0.442471       -12.0403
  57   2.0000      -0.436487       -11.8774
  58   2.0000      -0.432338       -11.7645
  59   2.0000      -0.426424       -11.6036
  60   2.0000      -0.418690       -11.3931
  61   2.0000      -0.412516       -11.2251
  62   2.0000      -0.408105       -11.1051
  63   2.0000      -0.334194        -9.0939
  64   2.0000      -0.330883        -9.0038
  65   2.0000      -0.320389        -8.7182
  66   2.0000      -0.299306        -8.1445
  67   0.0000       0.030501         0.8300
  68   0.0000       0.055456         1.5090
  69   0.0000       0.103664         2.8208
  70   0.0000       0.108923         2.9639
  71   0.0000       0.124900         3.3987

MULLIKEN ATOMIC CHARGES
-----------------------
   0 S :    0.098613
   1 C :   -0.098595
   2 C :   -0.135540
   3 C :    0.051271
   4 C :   -0.201727
   5 H :    0.033084
   6 C :    0.102917
   7 H :    0.028185
   8 H :    0.043307
   9 C :   -0.119760
  10 H :    0.045118
  11 H :    0.049533
  12 C :   -0.062227
  13 H :    0.023635
  14 H :    0.034051
  15 H :    0.035920
  16 S :    0.104272
  17 C :   -0.107054
  18 C :   -0.026709
  19 C :   -0.024937
  20 C :   -0.167308
  21 H :    0.015668
  22 C :    0.065160
  23 H :    0.026191
  24 H :    0.032340
  25 C :   -0.091416
  26 H :    0.035197
  27 H :    0.037645
  28 C :   -0.046916
  29 H :    0.029898
  30 H :    0.031249
  31 H :    0.049615
  32 H :    0.032517
  33 H :    0.076805
Sum of atomic charges:    0.0000000

LOEWDIN ATOMIC CHARGES
----------------------
   0 S :    0.396943
   1 C :   -0.188960
   2 C :   -0.058630
   3 C :   -0.061187
   4 C :   -0.186972
   5 H :    0.039218
   6 C :   -0.038800
   7 H :    0.032924
   8 H :    0.043637
   9 C :   -0.045790
  10 H :    0.026434
  11 H :    0.038726
  12 C :   -0.069011
  13 H :    0.016786
  14 H :    0.014699
  15 H :    0.033192
  16 S :    0.377826
  17 C :   -0.188686
  18 C :   -0.068250
  19 C :   -0.048337
  20 C :   -0.189807
  21 H :    0.027299
  22 C :   -0.036074
  23 H :    0.028904
  24 H :    0.040727
  25 C :   -0.039959
  26 H :    0.022539
  27 H :    0.029981
  28 C :   -0.070541
  29 H :    0.024441
  30 H :    0.022897
  31 H :    0.027646
  32 H :    0.012992
  33 H :    0.033192

  Mayer bond orders larger than 0.100000
B(  0-S ,  1-C ) :   1.1294 B(  0-S ,  4-C ) :   1.1494 B(  1-C ,  2-C ) :   1.6229
B(  1-C , 32-H ) :   0.9715 B(  2-C ,  3-C ) :   1.2208 B(  2-C ,  6-C ) :   1.0093
B(  3-C ,  4-C ) :   1.5992 B(  3-C ,  5-H ) :   0.9828 B(  4-C , 20-C ) :   1.0341
B(  6-C ,  7-H ) :   0.9446 B(  6-C ,  8-H ) :   0.9227 B(  6-C ,  9-C ) :   1.0778
B(  9-C , 10-H ) :   0.9539 B(  9-C , 11-H ) :   0.9598 B(  9-C , 12-C ) :   1.0538
B( 12-C , 13-H ) :   0.9804 B( 12-C , 14-H ) :   0.9828 B( 12-C , 15-H ) :   0.9776
B( 16-S , 17-C ) :   1.1581 B( 16-S , 20-C ) :   1.1227 B( 17-C , 18-C ) :   1.6064
B( 17-C , 20-C ) :   0.1023 B( 17-C , 33-H ) :   0.9647 B( 18-C , 19-C ) :   1.1959
B( 18-C , 21-H ) :   0.9940 B( 19-C , 20-C ) :   1.6092 B( 19-C , 22-C ) :   1.0751
B( 22-C , 23-H ) :   0.9251 B( 22-C , 24-H ) :   0.9207 B( 22-C , 25-C ) :   1.0669
B( 25-C , 26-H ) :   0.9561 B( 25-C , 27-H ) :   0.9565 B( 25-C , 28-C ) :   1.0632
B( 28-C , 29-H ) :   0.9731 B( 28-C , 30-H ) :   0.9754 B( 28-C , 31-H ) :   0.9718

Dispersion correction           -0.015894716
FINAL SINGLE POINT ENERGY     -1339.868170960709

DIPOLE MOMENT
-------------
                                X             Y             Z
Electronic contribution:    -15.58609       7.93514       7.70940
Nuclear contribution   :     15.98990      -7.90455      -8.06668
                        -----------------------------------------
Total Dipole Moment    :      0.40381       0.03059      -0.35728
                        -----------------------------------------
Magnitude (a.u.)       :      0.54005
Magnitude (Debye)      :      1.37269

Rotational constants in cm-1:     0.023795     0.008179     0.007156
Rotational constants in MHz :   713.353481   245.189037   214.532009

                             ****ORCA TERMINATED NORMALLY****
TOTAL RUN TIME: 0 days 0 hours 0 minutes 37 seconds 390 msec
