                         Program Version 4.2.1 -  RELEASE  -
|  1> ! wB97X-D3 SP def2-SVP
|  2> %pal
|  3> nprocs 16
|  4> end
|  5>
|  6> * xyz 0 1
|  7> S 	 -68.4356 	 43.6125 	 126.272
|  8> C 	 -68.8027 	 45.2363 	 125.819
|  9> C 	 -67.6756 	 45.9708 	 125.392
| 10> C 	 -66.4822 	 45.204 	 125.505
| 11> C 	 -66.7621 	 43.8928 	 125.765
| 12> H 	 -65.5062 	 45.6455 	 125.117
| 13> C 	 -67.6937 	 47.4559 	 124.996
| 14> H 	 -68.3672 	 47.5678 	 124.177
| 15> H 	 -66.6791 	 47.8519 	 124.756
| 16> C 	 -68.1663 	 48.3747 	 126.125
| 17> H 	 -69.2701 	 48.3088 	 126.202
| 18> H 	 -67.8787 	 47.9256 	 127.082
| 19> C 	 -67.7154 	 49.8266 	 125.996
| 20> H 	 -68.2891 	 50.377 	 125.206
| 21> H 	 -67.941 	 50.4104 	 126.865
| 22> H 	 -66.6051 	 49.8378 	 125.962
| 23> S 	 -65.6295 	 41.9411 	 127.303
| 24> C 	 -64.2512 	 40.9697 	 126.623
| 25> C 	 -63.9682 	 41.3366 	 125.353
| 26> C 	 -64.8257 	 42.3594 	 124.867
| 27> C 	 -65.779 	 42.8028 	 125.788
| 28> H 	 -63.1967 	 40.8247 	 124.91
| 29> C 	 -64.4097 	 43.1086 	 123.577
| 30> H 	 -63.2686 	 42.8886 	 123.467
| 31> H 	 -64.3684 	 44.0955 	 123.817
| 32> C 	 -65.0816 	 42.7345 	 122.288
| 33> H 	 -64.9255 	 41.7081 	 121.921
| 34> H 	 -64.5194 	 43.2779 	 121.61
| 35> C 	 -66.541 	 43.0007 	 122.188
| 36> H 	 -66.8642 	 42.2449 	 121.447
| 37> H 	 -66.8021 	 43.958 	 121.758
| 38> H 	 -67.211 	 42.9121 	 123.073
| 39> H 	 -69.7849 	 45.5848 	 125.846
| 40> H 	 -63.8131 	 40.2238 	 127.145
| 41> *
| 42>
| 43>                          ****END OF INPUT****

CARTESIAN COORDINATES (ANGSTROEM)
---------------------------------
  S    -68.435600   43.612500  126.272000
  C    -68.802700   45.236300  125.819000
  C    -67.675600   45.970800  125.392000
  C    -66.482200   45.204000  125.505000
  C    -66.762100   43.892800  125.765000
  H    -65.506200   45.645500  125.117000
  C    -67.693700   47.455900  124.996000
  H    -68.367200   47.567800  124.177000
  H    -66.679100   47.851900  124.756000
  C    -68.166300   48.374700  126.125000
  H    -69.270100   48.308800  126.202000
  H    -67.878700   47.925600  127.082000
  C    -67.715400   49.826600  125.996000
  H    -68.289100   50.377000  125.206000
  H    -67.941000   50.410400  126.865000
  H    -66.605100   49.837800  125.962000
  S    -65.629500   41.941100  127.303000
  C    -64.251200   40.969700  126.623000
  C    -63.968200   41.336600  125.353000
  C    -64.825700   42.359400  124.867000
  C    -65.779000   42.802800  125.788000
  H    -63.196700   40.824700  124.910000
  C    -64.409700   43.108600  123.577000
  H    -63.268600   42.888600  123.467000
  H    -64.368400   44.095500  123.817000
  C    -65.081600   42.734500  122.288000
  H    -64.925500   41.708100  121.921000
  H    -64.519400   43.277900  121.610000
  C    -66.541000   43.000700  122.188000
  H    -66.864200   42.244900  121.447000
  H    -66.802100   43.958000  121.758000
  H    -67.211000   42.912100  123.073000
  H    -69.784900   45.584800  125.846000
  H    -63.813100   40.223800  127.145000

 Total Charge           Charge          ....    0
 Multiplicity           Mult            ....    1
 Number of Electrons    NEL             ....  134
 Basis Dimension        Dim             ....  322

ORBITAL ENERGIES
----------------

  NO   OCC          E(Eh)            E(eV)
   0   2.0000     -88.971540     -2421.0387
   1   2.0000     -88.959475     -2420.7104
   2   2.0000     -10.331116      -281.1240
   3   2.0000     -10.325731      -280.9774
   4   2.0000     -10.311471      -280.5894
   5   2.0000     -10.308796      -280.5166
   6   2.0000     -10.304395      -280.3968
   7   2.0000     -10.300586      -280.2932
   8   2.0000     -10.299671      -280.2683
   9   2.0000     -10.293568      -280.1022
  10   2.0000     -10.287925      -279.9487
  11   2.0000     -10.285408      -279.8802
  12   2.0000     -10.284624      -279.8589
  13   2.0000     -10.283579      -279.8304
  14   2.0000     -10.274139      -279.5735
  15   2.0000     -10.267623      -279.3962
  16   2.0000      -8.086177      -220.0361
  17   2.0000      -8.073667      -219.6957
  18   2.0000      -6.044549      -164.4805
  19   2.0000      -6.040787      -164.3782
  20   2.0000      -6.037005      -164.2753
  21   2.0000      -6.032227      -164.1452
  22   2.0000      -6.028287      -164.0380
  23   2.0000      -6.024377      -163.9316
  24   2.0000      -1.004905       -27.3448
  25   2.0000      -0.980515       -26.6812
  26   2.0000      -0.911614       -24.8063
  27   2.0000      -0.909295       -24.7432
  28   2.0000      -0.870799       -23.6956
  29   2.0000      -0.854964       -23.2647
  30   2.0000      -0.843350       -22.9487
  31   2.0000      -0.817548       -22.2466
  32   2.0000      -0.782433       -21.2911
  33   2.0000      -0.771118       -20.9832
  34   2.0000      -0.705955       -19.2100
  35   2.0000      -0.698716       -19.0130
  36   2.0000      -0.692578       -18.8460
  37   2.0000      -0.664758       -18.0890
  38   2.0000      -0.643331       -17.5059
  39   2.0000      -0.622751       -16.9459
  40   2.0000      -0.597176       -16.2500
  41   2.0000      -0.573945       -15.6178
  42   2.0000      -0.566057       -15.4032
  43   2.0000      -0.547564       -14.9000
  44   2.0000      -0.536643       -14.6028
  45   2.0000      -0.532755       -14.4970
  46   2.0000      -0.516524       -14.0553
  47   2.0000      -0.510841       -13.9007
  48   2.0000      -0.503646       -13.7049
  49   2.0000      -0.498078       -13.5534
  50   2.0000      -0.495637       -13.4870
  51   2.0000      -0.475440       -12.9374
  52   2.0000      -0.467461       -12.7203
  53   2.0000      -0.465731       -12.6732
  54   2.0000      -0.456779       -12.4296
  55   2.0000      -0.452000       -12.2995
  56   2.0000      -0.443913       -12.0795
  57   2.0000      -0.434132       -11.8133
  58   2.0000      -0.426109       -11.5950
  59   2.0000      -0.424193       -11.5429
  60   2.0000      -0.415718       -11.3123
  61   2.0000      -0.413289       -11.2462
  62   2.0000      -0.399319       -10.8660
  63   2.0000      -0.349428        -9.5084
  64   2.0000      -0.334979        -9.1152
  65   2.0000      -0.324250        -8.8233
  66   2.0000      -0.290886        -7.9154
  67   0.0000       0.030855         0.8396
  68   0.0000       0.065751         1.7892
  69   0.0000       0.102182         2.7805
  70   0.0000       0.116718         3.1760
  71   0.0000       0.137197         3.7333

MULLIKEN ATOMIC CHARGES
-----------------------
   0 S :    0.128333
   1 C :   -0.105190
   2 C :   -0.108085
   3 C :    0.022111
   4 C :   -0.159232
   5 H :    0.048991
   6 C :    0.097259
   7 H :    0.031206
   8 H :    0.016732
   9 C :   -0.108006
  10 H :    0.022098
  11 H :    0.031846
  12 C :   -0.047739
  13 H :    0.043085
  14 H :    0.025189
  15 H :    0.038898
  16 S :    0.074383
  17 C :   -0.055269
  18 C :    0.000934
  19 C :   -0.009443
  20 C :   -0.148345
  21 H :   -0.009728
  22 C :    0.042665
  23 H :    0.023489
  24 H :   -0.009066
  25 C :    0.011501
  26 H :    0.019917
  27 H :    0.002372
  28 C :   -0.058505
  29 H :    0.024210
  30 H :    0.022065
  31 H :    0.051512
  32 H :    0.027595
  33 H :    0.012220
Sum of atomic charges:   -0.0000000

LOEWDIN ATOMIC CHARGES
----------------------
   0 S :    0.415652
   1 C :   -0.197140
   2 C :   -0.056087
   3 C :   -0.065512
   4 C :   -0.189524
   5 H :    0.045926
   6 C :   -0.028982
   7 H :    0.029355
   8 H :    0.029850
   9 C :   -0.049870
  10 H :    0.021366
  11 H :    0.024165
  12 C :   -0.071713
  13 H :    0.033487
  14 H :    0.024856
  15 H :    0.029851
  16 S :    0.367450
  17 C :   -0.139320
  18 C :   -0.056297
  19 C :   -0.058200
  20 C :   -0.195253
  21 H :    0.022614
  22 C :   -0.023226
  23 H :    0.040818
  24 H :    0.010873
  25 C :   -0.042956
  26 H :    0.028424
  27 H :    0.019711
  28 C :   -0.072363
  29 H :    0.031136
  30 H :    0.021714
  31 H :    0.032952
  32 H :    0.012010
  33 H :    0.004234

  Mayer bond orders larger than 0.100000
B(  0-S ,  1-C ) :   1.1471 B(  0-S ,  4-C ) :   1.1548 B(  1-C ,  2-C ) :   1.5839
B(  1-C ,  4-C ) :   0.1013 B(  1-C , 32-H ) :   0.9790 B(  2-C ,  3-C ) :   1.2676
B(  2-C ,  6-C ) :   1.0273 B(  3-C ,  4-C ) :   1.5747 B(  3-C ,  5-H ) :   0.9718
B(  4-C , 20-C ) :   1.0165 B(  6-C ,  7-H ) :   0.9326 B(  6-C ,  8-H ) :   0.9487
B(  6-C ,  9-C ) :   1.0540 B(  9-C , 10-H ) :   0.9486 B(  9-C , 11-H ) :   0.9611
B(  9-C , 12-C ) :   1.0937 B( 12-C , 13-H ) :   0.9725 B( 12-C , 14-H ) :   0.9710
B( 12-C , 15-H ) :   0.9717 B( 16-S , 17-C ) :   1.1258 B( 16-S , 20-C ) :   1.1413
B( 17-C , 18-C ) :   1.6426 B( 17-C , 33-H ) :   0.9816 B( 18-C , 19-C ) :   1.2123
B( 18-C , 21-H ) :   1.0057 B( 19-C , 20-C ) :   1.6136 B( 19-C , 22-C ) :   1.0111
B( 22-C , 23-H ) :   0.9409 B( 22-C , 24-H ) :   0.9447 B( 22-C , 25-C ) :   1.0732
B( 25-C , 26-H ) :   0.9611 B( 25-C , 27-H ) :   0.9407 B( 25-C , 28-C ) :   1.0725
B( 28-C , 29-H ) :   0.9769 B( 28-C , 30-H ) :   0.9746 B( 28-C , 31-H ) :   0.9746

Dispersion correction           -0.014761558
FINAL SINGLE POINT ENERGY     -1339.848880774790

DIPOLE MOMENT
-------------
                                X             Y             Z
Electronic contribution:     -1.26779     -20.38452      16.01544
Nuclear contribution   :      1.51682      20.85778     -16.42387
                        -----------------------------------------
Total Dipole Moment    :      0.24902       0.47326      -0.40843
                        -----------------------------------------
Magnitude (a.u.)       :      0.67290
Magnitude (Debye)      :      1.71039

Rotational constants in cm-1:     0.020713     0.008023     0.006972
Rotational constants in MHz :   620.975060   240.520265   209.014065

                             ****ORCA TERMINATED NORMALLY****
TOTAL RUN TIME: 0 days 0 hours 0 minutes 34 seconds 200 msec
