                         Program Version 4.2.1 -  RELEASE  -
|  1> ! wB97X-D3 SP def2-SVP
|  2> %pal
|  3> nprocs 16
|  4> end
|  5>
|  6> * xyz 0 1
|  7> S 	 -2.38778 	 -14.0207 	 65.1257
|  8> C 	 -3.48363 	 -13.3363 	 66.2559
|  9> C 	 -2.85426 	 -12.8264 	 67.4028
| 10> C 	 -1.44446 	 -13.0686 	 67.328
| 11> C 	 -1.00155 	 -13.7395 	 66.2056
| 12> H 	 -0.820549 	 -12.8575 	 68.1118
| 13> C 	 -3.52184 	 -12.3248 	 68.6754
| 14> H 	 -2.70371 	 -12.1572 	 69.4275
| 15> H 	 -4.04599 	 -13.1897 	 68.9749
| 16> C 	 -4.48759 	 -11.1228 	 68.4944
| 17> H 	 -5.30598 	 -11.4717 	 67.8531
| 18> H 	 -4.89349 	 -11.0381 	 69.496
| 19> C 	 -3.84934 	 -9.78737 	 68.1381
| 20> H 	 -3.53995 	 -9.76131 	 67.0874
| 21> H 	 -4.43449 	 -8.91345 	 68.3547
| 22> H 	 -2.98913 	 -9.59488 	 68.7505
| 23> S 	 1.69314 	 -12.9954 	 66.0596
| 24> C 	 2.89572 	 -14.2397 	 65.803
| 25> C 	 2.28726 	 -15.4131 	 65.5132
| 26> C 	 0.845435 	 -15.3712 	 65.5258
| 27> C 	 0.366307 	 -14.1335 	 65.9135
| 28> H 	 2.8965 	 -16.2917 	 65.2404
| 29> C 	 0.0582803 	 -16.5858 	 65.1025
| 30> H 	 0.774584 	 -17.217 	 64.4941
| 31> H 	 -0.740417 	 -16.2816 	 64.438
| 32> C 	 -0.547959 	 -17.6027 	 66.0962
| 33> H 	 0.172526 	 -18.2677 	 66.6566
| 34> H 	 -1.01976 	 -18.3548 	 65.5153
| 35> C 	 -1.52877 	 -17.0065 	 67.1039
| 36> H 	 -0.980642 	 -16.2321 	 67.7637
| 37> H 	 -1.87298 	 -17.7971 	 67.777
| 38> H 	 -2.29818 	 -16.5147 	 66.5792
| 39> H 	 -4.57988 	 -13.3691 	 66.1315
| 40> H 	 3.94348 	 -13.9185 	 65.613
| 41> *
| 42>
| 43>                          ****END OF INPUT****

CARTESIAN COORDINATES (ANGSTROEM)
---------------------------------
  S     -2.387780  -14.020700   65.125700
  C     -3.483630  -13.336300   66.255900
  C     -2.854260  -12.826400   67.402800
  C     -1.444460  -13.068600   67.328000
  C     -1.001550  -13.739500   66.205600
  H     -0.820549  -12.857500   68.111800
  C     -3.521840  -12.324800   68.675400
  H     -2.703710  -12.157200   69.427500
  H     -4.045990  -13.189700   68.974900
  C     -4.487590  -11.122800   68.494400
  H     -5.305980  -11.471700   67.853100
  H     -4.893490  -11.038100   69.496000
  C     -3.849340   -9.787370   68.138100
  H     -3.539950   -9.761310   67.087400
  H     -4.434490   -8.913450   68.354700
  H     -2.989130   -9.594880   68.750500
  S      1.693140  -12.995400   66.059600
  C      2.895720  -14.239700   65.803000
  C      2.287260  -15.413100   65.513200
  C      0.845435  -15.371200   65.525800
  C      0.366307  -14.133500   65.913500
  H      2.896500  -16.291700   65.240400
  C      0.058280  -16.585800   65.102500
  H      0.774584  -17.217000   64.494100
  H     -0.740417  -16.281600   64.438000
  C     -0.547959  -17.602700   66.096200
  H      0.172526  -18.267700   66.656600
  H     -1.019760  -18.354800   65.515300
  C     -1.528770  -17.006500   67.103900
  H     -0.980642  -16.232100   67.763700
  H     -1.872980  -17.797100   67.777000
  H     -2.298180  -16.514700   66.579200
  H     -4.579880  -13.369100   66.131500
  H      3.943480  -13.918500   65.613000

 Total Charge           Charge          ....    0
 Multiplicity           Mult            ....    1
 Number of Electrons    NEL             ....  134
 Basis Dimension        Dim             ....  322

ORBITAL ENERGIES
----------------

  NO   OCC          E(Eh)            E(eV)
   0   2.0000     -88.969354     -2420.9792
   1   2.0000     -88.962383     -2420.7895
   2   2.0000     -10.330042      -281.0947
   3   2.0000     -10.327078      -281.0141
   4   2.0000     -10.317924      -280.7650
   5   2.0000     -10.314924      -280.6834
   6   2.0000     -10.302937      -280.3572
   7   2.0000     -10.300359      -280.2870
   8   2.0000     -10.294891      -280.1382
   9   2.0000     -10.294149      -280.1180
  10   2.0000     -10.293699      -280.1058
  11   2.0000     -10.289885      -280.0020
  12   2.0000     -10.286386      -279.9068
  13   2.0000     -10.282167      -279.7920
  14   2.0000     -10.273862      -279.5660
  15   2.0000     -10.268947      -279.4323
  16   2.0000      -8.083297      -219.9577
  17   2.0000      -8.077353      -219.7959
  18   2.0000      -6.041914      -164.4088
  19   2.0000      -6.037772      -164.2961
  20   2.0000      -6.035941      -164.2463
  21   2.0000      -6.034154      -164.1977
  22   2.0000      -6.031759      -164.1325
  23   2.0000      -6.028079      -164.0324
  24   2.0000      -1.005844       -27.3704
  25   2.0000      -0.984436       -26.7879
  26   2.0000      -0.910422       -24.7738
  27   2.0000      -0.903019       -24.5724
  28   2.0000      -0.870050       -23.6753
  29   2.0000      -0.851855       -23.1802
  30   2.0000      -0.845139       -22.9974
  31   2.0000      -0.814057       -22.1516
  32   2.0000      -0.783967       -21.3328
  33   2.0000      -0.770708       -20.9720
  34   2.0000      -0.707211       -19.2442
  35   2.0000      -0.702989       -19.1293
  36   2.0000      -0.687903       -18.7188
  37   2.0000      -0.659505       -17.9460
  38   2.0000      -0.642322       -17.4785
  39   2.0000      -0.611086       -16.6285
  40   2.0000      -0.593344       -16.1457
  41   2.0000      -0.573374       -15.6023
  42   2.0000      -0.552293       -15.0287
  43   2.0000      -0.542996       -14.7757
  44   2.0000      -0.540603       -14.7106
  45   2.0000      -0.538279       -14.6473
  46   2.0000      -0.518428       -14.1071
  47   2.0000      -0.508905       -13.8480
  48   2.0000      -0.500988       -13.6326
  49   2.0000      -0.497235       -13.5304
  50   2.0000      -0.487192       -13.2572
  51   2.0000      -0.477479       -12.9929
  52   2.0000      -0.472472       -12.8566
  53   2.0000      -0.465061       -12.6550
  54   2.0000      -0.462782       -12.5929
  55   2.0000      -0.448965       -12.2169
  56   2.0000      -0.442745       -12.0477
  57   2.0000      -0.436686       -11.8828
  58   2.0000      -0.431128       -11.7316
  59   2.0000      -0.425011       -11.5651
  60   2.0000      -0.413977       -11.2649
  61   2.0000      -0.412497       -11.2246
  62   2.0000      -0.405164       -11.0251
  63   2.0000      -0.349435        -9.5086
  64   2.0000      -0.332034        -9.0351
  65   2.0000      -0.327245        -8.9048
  66   2.0000      -0.290067        -7.8931
  67   0.0000       0.027819         0.7570
  68   0.0000       0.073972         2.0129
  69   0.0000       0.109359         2.9758
  70   0.0000       0.116223         3.1626
  71   0.0000       0.126843         3.4516

MULLIKEN ATOMIC CHARGES
-----------------------
   0 S :    0.108825
   1 C :   -0.145122
   2 C :   -0.085775
   3 C :    0.044596
   4 C :   -0.154194
   5 H :   -0.026538
   6 C :    0.049442
   7 H :    0.028323
   8 H :    0.034025
   9 C :   -0.062250
  10 H :    0.031579
  11 H :    0.023844
  12 C :   -0.023187
  13 H :    0.045841
  14 H :    0.028811
  15 H :    0.016333
  16 S :    0.101243
  17 C :   -0.113684
  18 C :   -0.034381
  19 C :   -0.026256
  20 C :   -0.139979
  21 H :    0.030101
  22 C :    0.040150
  23 H :    0.026031
  24 H :    0.030826
  25 C :   -0.055799
  26 H :    0.019927
  27 H :    0.014205
  28 C :   -0.045679
  29 H :    0.047830
  30 H :    0.033169
  31 H :    0.019849
  32 H :    0.057956
  33 H :    0.079939
Sum of atomic charges:    0.0000000

LOEWDIN ATOMIC CHARGES
----------------------
   0 S :    0.419553
   1 C :   -0.216940
   2 C :   -0.062220
   3 C :   -0.052979
   4 C :   -0.182962
   5 H :    0.014208
   6 C :   -0.028833
   7 H :    0.033647
   8 H :    0.032052
   9 C :   -0.038468
  10 H :    0.024774
  11 H :    0.025317
  12 C :   -0.065225
  13 H :    0.030962
  14 H :    0.026214
  15 H :    0.024944
  16 S :    0.401622
  17 C :   -0.191079
  18 C :   -0.073186
  19 C :   -0.059386
  20 C :   -0.197087
  21 H :    0.036770
  22 C :   -0.038378
  23 H :    0.039962
  24 H :    0.025041
  25 C :   -0.042512
  26 H :    0.024369
  27 H :    0.018245
  28 C :   -0.068461
  29 H :    0.035829
  30 H :    0.025455
  31 H :    0.008060
  32 H :    0.031025
  33 H :    0.039666

  Mayer bond orders larger than 0.100000
B(  0-S ,  1-C ) :   1.1557 B(  0-S ,  4-C ) :   1.1381 B(  1-C ,  2-C ) :   1.5803
B(  1-C , 32-H ) :   0.9629 B(  2-C ,  3-C ) :   1.2651 B(  2-C ,  6-C ) :   0.9988
B(  3-C ,  4-C ) :   1.5613 B(  3-C ,  5-H ) :   1.0076 B(  4-C , 20-C ) :   1.0577
B(  6-C ,  7-H ) :   0.9454 B(  6-C ,  8-H ) :   0.9377 B(  6-C ,  9-C ) :   1.0803
B(  9-C , 10-H ) :   0.9565 B(  9-C , 11-H ) :   0.9529 B(  9-C , 12-C ) :   1.0737
B( 12-C , 13-H ) :   0.9748 B( 12-C , 14-H ) :   0.9741 B( 12-C , 15-H ) :   0.9706
B( 16-S , 17-C ) :   1.1495 B( 16-S , 20-C ) :   1.1411 B( 17-C , 18-C ) :   1.6096
B( 17-C , 33-H ) :   0.9618 B( 18-C , 19-C ) :   1.2501 B( 18-C , 21-H ) :   0.9836
B( 19-C , 20-C ) :   1.5677 B( 19-C , 22-C ) :   1.0372 B( 22-C , 23-H ) :   0.9308
B( 22-C , 24-H ) :   0.9358 B( 22-C , 25-C ) :   1.0767 B( 25-C , 26-H ) :   0.9545
B( 25-C , 27-H ) :   0.9485 B( 25-C , 28-C ) :   1.0864 B( 28-C , 29-H ) :   0.9699
B( 28-C , 30-H ) :   0.9714 B( 28-C , 31-H ) :   0.9716

Dispersion correction           -0.015632056
FINAL SINGLE POINT ENERGY     -1339.886939812155

DIPOLE MOMENT
-------------
                                X             Y             Z
Electronic contribution:     13.41594       2.57116     -11.42713
Nuclear contribution   :    -13.58825      -2.76676      11.70259
                        -----------------------------------------
Total Dipole Moment    :     -0.17230      -0.19560       0.27545
                        -----------------------------------------
Magnitude (a.u.)       :      0.37924
Magnitude (Debye)      :      0.96395

Rotational constants in cm-1:     0.022060     0.008596     0.007016
Rotational constants in MHz :   661.350280   257.714123   210.347823

                             ****ORCA TERMINATED NORMALLY****
TOTAL RUN TIME: 0 days 0 hours 0 minutes 33 seconds 345 msec
