                         Program Version 4.2.1 -  RELEASE  -
|  1> ! wB97X-D3 SP def2-SVP
|  2> %pal
|  3> nprocs 16
|  4> end
|  5>
|  6> * xyz 0 1
|  7> S 	 -34.0975 	 73.3984 	 153.12
|  8> C 	 -32.8621 	 73.1226 	 152.01
|  9> C 	 -33.1466 	 72.0663 	 151.15
| 10> C 	 -34.5042 	 71.6015 	 151.288
| 11> C 	 -35.1426 	 72.1287 	 152.428
| 12> H 	 -34.9991 	 70.8646 	 150.647
| 13> C 	 -32.2068 	 71.3294 	 150.258
| 14> H 	 -32.7185 	 70.9345 	 149.399
| 15> H 	 -32.0003 	 70.3945 	 150.773
| 16> C 	 -31.0768 	 72.1569 	 149.693
| 17> H 	 -31.565 	 73.0494 	 149.217
| 18> H 	 -30.461 	 72.5519 	 150.483
| 19> C 	 -30.1378 	 71.4332 	 148.642
| 20> H 	 -30.6166 	 71.3319 	 147.687
| 21> H 	 -29.1655 	 71.9103 	 148.51
| 22> H 	 -29.8541 	 70.407 	 148.943
| 23> S 	 -37.5596 	 73.2328 	 152.976
| 24> C 	 -38.806 	 72.1986 	 153.611
| 25> C 	 -38.4772 	 70.8582 	 153.573
| 26> C 	 -37.0582 	 70.661 	 153.369
| 27> C 	 -36.4848 	 71.8864 	 152.984
| 28> H 	 -39.1678 	 70.0488 	 153.792
| 29> C 	 -36.3254 	 69.4238 	 153.714
| 30> H 	 -35.4598 	 69.524 	 153.164
| 31> H 	 -37.0597 	 68.6469 	 153.263
| 32> C 	 -35.8753 	 69.1964 	 155.142
| 33> H 	 -35.6422 	 68.1708 	 155.434
| 34> H 	 -36.7277 	 69.3959 	 155.803
| 35> C 	 -34.5641 	 69.9743 	 155.535
| 36> H 	 -34.4048 	 69.8017 	 156.582
| 37> H 	 -34.5881 	 71.042 	 155.434
| 38> H 	 -33.7176 	 69.4695 	 155.005
| 39> H 	 -31.8578 	 73.5 	 152.026
| 40> H 	 -39.7722 	 72.5138 	 153.816
| 41> *
| 42>
| 43>                          ****END OF INPUT****

CARTESIAN COORDINATES (ANGSTROEM)
---------------------------------
  S    -34.097500   73.398400  153.120000
  C    -32.862100   73.122600  152.010000
  C    -33.146600   72.066300  151.150000
  C    -34.504200   71.601500  151.288000
  C    -35.142600   72.128700  152.428000
  H    -34.999100   70.864600  150.647000
  C    -32.206800   71.329400  150.258000
  H    -32.718500   70.934500  149.399000
  H    -32.000300   70.394500  150.773000
  C    -31.076800   72.156900  149.693000
  H    -31.565000   73.049400  149.217000
  H    -30.461000   72.551900  150.483000
  C    -30.137800   71.433200  148.642000
  H    -30.616600   71.331900  147.687000
  H    -29.165500   71.910300  148.510000
  H    -29.854100   70.407000  148.943000
  S    -37.559600   73.232800  152.976000
  C    -38.806000   72.198600  153.611000
  C    -38.477200   70.858200  153.573000
  C    -37.058200   70.661000  153.369000
  C    -36.484800   71.886400  152.984000
  H    -39.167800   70.048800  153.792000
  C    -36.325400   69.423800  153.714000
  H    -35.459800   69.524000  153.164000
  H    -37.059700   68.646900  153.263000
  C    -35.875300   69.196400  155.142000
  H    -35.642200   68.170800  155.434000
  H    -36.727700   69.395900  155.803000
  C    -34.564100   69.974300  155.535000
  H    -34.404800   69.801700  156.582000
  H    -34.588100   71.042000  155.434000
  H    -33.717600   69.469500  155.005000
  H    -31.857800   73.500000  152.026000
  H    -39.772200   72.513800  153.816000

 Total Charge           Charge          ....    0
 Multiplicity           Mult            ....    1
 Number of Electrons    NEL             ....  134
 Basis Dimension        Dim             ....  322

ORBITAL ENERGIES
----------------

  NO   OCC          E(Eh)            E(eV)
   0   2.0000     -88.967376     -2420.9254
   1   2.0000     -88.964320     -2420.8422
   2   2.0000     -10.331875      -281.1446
   3   2.0000     -10.323527      -280.9175
   4   2.0000     -10.311191      -280.5818
   5   2.0000     -10.306970      -280.4669
   6   2.0000     -10.302183      -280.3366
   7   2.0000     -10.298286      -280.2306
   8   2.0000     -10.297763      -280.2164
   9   2.0000     -10.294761      -280.1347
  10   2.0000     -10.292871      -280.0833
  11   2.0000     -10.287433      -279.9353
  12   2.0000     -10.287412      -279.9347
  13   2.0000     -10.287194      -279.9288
  14   2.0000     -10.282902      -279.8120
  15   2.0000     -10.275165      -279.6015
  16   2.0000      -8.082739      -219.9425
  17   2.0000      -8.079383      -219.8512
  18   2.0000      -6.041093      -164.3865
  19   2.0000      -6.037830      -164.2977
  20   2.0000      -6.037254      -164.2820
  21   2.0000      -6.033698      -164.1853
  22   2.0000      -6.033521      -164.1804
  23   2.0000      -6.030333      -164.0937
  24   2.0000      -1.006368       -27.3847
  25   2.0000      -0.985711       -26.8226
  26   2.0000      -0.912348       -24.8262
  27   2.0000      -0.911203       -24.7951
  28   2.0000      -0.865292       -23.5458
  29   2.0000      -0.850705       -23.1489
  30   2.0000      -0.846105       -23.0237
  31   2.0000      -0.812270       -22.1030
  32   2.0000      -0.783226       -21.3127
  33   2.0000      -0.769323       -20.9343
  34   2.0000      -0.714562       -19.4442
  35   2.0000      -0.704821       -19.1792
  36   2.0000      -0.692286       -18.8380
  37   2.0000      -0.661945       -18.0124
  38   2.0000      -0.638663       -17.3789
  39   2.0000      -0.609667       -16.5899
  40   2.0000      -0.594672       -16.1819
  41   2.0000      -0.573732       -15.6121
  42   2.0000      -0.562266       -15.3000
  43   2.0000      -0.552736       -15.0407
  44   2.0000      -0.544587       -14.8190
  45   2.0000      -0.518442       -14.1075
  46   2.0000      -0.515385       -14.0243
  47   2.0000      -0.506293       -13.7769
  48   2.0000      -0.501535       -13.6474
  49   2.0000      -0.494583       -13.4583
  50   2.0000      -0.489883       -13.3304
  51   2.0000      -0.481743       -13.1089
  52   2.0000      -0.478584       -13.0229
  53   2.0000      -0.460201       -12.5227
  54   2.0000      -0.458099       -12.4655
  55   2.0000      -0.449031       -12.2188
  56   2.0000      -0.446715       -12.1557
  57   2.0000      -0.441698       -12.0192
  58   2.0000      -0.433184       -11.7875
  59   2.0000      -0.424606       -11.5541
  60   2.0000      -0.420799       -11.4505
  61   2.0000      -0.417725       -11.3669
  62   2.0000      -0.409842       -11.1524
  63   2.0000      -0.342482        -9.3194
  64   2.0000      -0.328967        -8.9516
  65   2.0000      -0.321692        -8.7537
  66   2.0000      -0.291086        -7.9209
  67   0.0000       0.034194         0.9305
  68   0.0000       0.067346         1.8326
  69   0.0000       0.107228         2.9178
  70   0.0000       0.120081         3.2676
  71   0.0000       0.130549         3.5524

MULLIKEN ATOMIC CHARGES
-----------------------
   0 S :    0.115066
   1 C :   -0.094171
   2 C :   -0.138758
   3 C :    0.051529
   4 C :   -0.194319
   5 H :    0.022167
   6 C :    0.096728
   7 H :    0.007928
   8 H :    0.036695
   9 C :   -0.109630
  10 H :    0.044879
  11 H :    0.029402
  12 C :   -0.041618
  13 H :    0.033919
  14 H :    0.035172
  15 H :    0.025776
  16 S :    0.131110
  17 C :   -0.058451
  18 C :   -0.033873
  19 C :   -0.076692
  20 C :   -0.161276
  21 H :    0.020741
  22 C :    0.118505
  23 H :   -0.008199
  24 H :    0.040271
  25 C :   -0.056941
  26 H :    0.026523
  27 H :    0.018600
  28 C :   -0.055995
  29 H :    0.023376
  30 H :    0.041513
  31 H :    0.041641
  32 H :    0.040774
  33 H :    0.027607
Sum of atomic charges:    0.0000000

LOEWDIN ATOMIC CHARGES
----------------------
   0 S :    0.419506
   1 C :   -0.224594
   2 C :   -0.064404
   3 C :   -0.058862
   4 C :   -0.190477
   5 H :    0.034542
   6 C :   -0.039064
   7 H :    0.028984
   8 H :    0.036344
   9 C :   -0.041667
  10 H :    0.035047
  11 H :    0.016849
  12 C :   -0.067397
  13 H :    0.022396
  14 H :    0.028587
  15 H :    0.026610
  16 S :    0.427468
  17 C :   -0.177187
  18 C :   -0.063810
  19 C :   -0.052290
  20 C :   -0.218409
  21 H :    0.031234
  22 C :   -0.037314
  23 H :    0.018820
  24 H :    0.045439
  25 C :   -0.039501
  26 H :    0.027417
  27 H :    0.021319
  28 C :   -0.060733
  29 H :    0.024348
  30 H :    0.019428
  31 H :    0.032158
  32 H :    0.026957
  33 H :    0.012257

  Mayer bond orders larger than 0.100000
B(  0-S ,  1-C ) :   1.1464 B(  0-S ,  4-C ) :   1.1576 B(  1-C ,  2-C ) :   1.6056
B(  1-C , 32-H ) :   0.9645 B(  2-C ,  3-C ) :   1.2455 B(  2-C ,  6-C ) :   1.0261
B(  3-C ,  4-C ) :   1.5653 B(  3-C ,  5-H ) :   0.9905 B(  4-C , 20-C ) :   1.0122
B(  6-C ,  7-H ) :   0.9355 B(  6-C ,  8-H ) :   0.9239 B(  6-C ,  9-C ) :   1.0598
B(  9-C , 10-H ) :   0.9612 B(  9-C , 11-H ) :   0.9538 B(  9-C , 12-C ) :   1.0751
B( 12-C , 13-H ) :   0.9774 B( 12-C , 14-H ) :   0.9768 B( 12-C , 15-H ) :   0.9758
B( 16-S , 17-C ) :   1.1494 B( 16-S , 20-C ) :   1.1630 B( 17-C , 18-C ) :   1.6195
B( 17-C , 33-H ) :   0.9753 B( 18-C , 19-C ) :   1.2337 B( 18-C , 21-H ) :   0.9849
B( 19-C , 20-C ) :   1.5818 B( 19-C , 22-C ) :   1.0489 B( 22-C , 23-H ) :   0.9150
B( 22-C , 24-H ) :   0.9257 B( 22-C , 25-C ) :   1.0626 B( 25-C , 26-H ) :   0.9549
B( 25-C , 27-H ) :   0.9561 B( 25-C , 28-C ) :   1.0765 B( 28-C , 29-H ) :   0.9718
B( 28-C , 30-H ) :   0.9775 B( 28-C , 31-H ) :   0.9732

Dispersion correction           -0.014683263
FINAL SINGLE POINT ENERGY     -1339.866592116182

DIPOLE MOMENT
-------------
                                X             Y             Z
Electronic contribution:    -18.35510      16.61326       5.32349
Nuclear contribution   :     18.53077     -17.23818      -5.47054
                        -----------------------------------------
Total Dipole Moment    :      0.17566      -0.62492      -0.14704
                        -----------------------------------------
Magnitude (a.u.)       :      0.66558
Magnitude (Debye)      :      1.69177

Rotational constants in cm-1:     0.022878     0.007479     0.006688
Rotational constants in MHz :   685.866346   224.213246   200.502036

                             ****ORCA TERMINATED NORMALLY****
TOTAL RUN TIME: 0 days 0 hours 0 minutes 35 seconds 197 msec
