                         Program Version 4.2.1 -  RELEASE  -
|  1> ! wB97X-D3 SP def2-SVP
|  2> %pal
|  3> nprocs 16
|  4> end
|  5>
|  6> * xyz 0 1
|  7> S 	 -12.2641 	 68.129 	 55.9316
|  8> C 	 -12.4763 	 66.8246 	 57.0057
|  9> C 	 -12.6745 	 65.6683 	 56.2473
| 10> C 	 -12.7926 	 65.9161 	 54.8274
| 11> C 	 -12.5315 	 67.2117 	 54.4614
| 12> H 	 -12.8844 	 65.2426 	 54.0076
| 13> C 	 -13.0001 	 64.2737 	 56.9193
| 14> H 	 -13.9272 	 63.7237 	 56.5782
| 15> H 	 -13.201 	 64.4672 	 57.9791
| 16> C 	 -11.8391 	 63.3471 	 56.7362
| 17> H 	 -11.6527 	 63.1537 	 55.6808
| 18> H 	 -10.9116 	 63.8009 	 57.1114
| 19> C 	 -11.8602 	 62.0235 	 57.5059
| 20> H 	 -12.6611 	 61.3467 	 57.0985
| 21> H 	 -10.8269 	 61.6633 	 57.4969
| 22> H 	 -12.1017 	 62.0837 	 58.6556
| 23> S 	 -13.7098 	 67.7401 	 51.9772
| 24> C 	 -12.9871 	 68.8119 	 50.8993
| 25> C 	 -11.6705 	 69.098 	 51.286
| 26> C 	 -11.3812 	 68.5549 	 52.5596
| 27> C 	 -12.4428 	 67.8322 	 53.1616
| 28> H 	 -10.9431 	 69.6026 	 50.6743
| 29> C 	 -9.97545 	 68.6599 	 53.18
| 30> H 	 -9.2958 	 68.2424 	 52.4621
| 31> H 	 -9.88488 	 68.0068 	 54.0859
| 32> C 	 -9.42311 	 70.0455 	 53.4187
| 33> H 	 -10.1798 	 70.7243 	 53.8874
| 34> H 	 -9.02785 	 70.4282 	 52.506
| 35> C 	 -8.12303 	 69.9707 	 54.3059
| 36> H 	 -8.4537 	 69.5623 	 55.2474
| 37> H 	 -7.631 	 70.9811 	 54.5211
| 38> H 	 -7.3388 	 69.4041 	 53.8557
| 39> H 	 -12.3424 	 66.8552 	 58.0896
| 40> H 	 -13.4114 	 69.0936 	 49.9301
| 41> *
| 42>
| 43>                          ****END OF INPUT****

CARTESIAN COORDINATES (ANGSTROEM)
---------------------------------
  S    -12.264100   68.129000   55.931600
  C    -12.476300   66.824600   57.005700
  C    -12.674500   65.668300   56.247300
  C    -12.792600   65.916100   54.827400
  C    -12.531500   67.211700   54.461400
  H    -12.884400   65.242600   54.007600
  C    -13.000100   64.273700   56.919300
  H    -13.927200   63.723700   56.578200
  H    -13.201000   64.467200   57.979100
  C    -11.839100   63.347100   56.736200
  H    -11.652700   63.153700   55.680800
  H    -10.911600   63.800900   57.111400
  C    -11.860200   62.023500   57.505900
  H    -12.661100   61.346700   57.098500
  H    -10.826900   61.663300   57.496900
  H    -12.101700   62.083700   58.655600
  S    -13.709800   67.740100   51.977200
  C    -12.987100   68.811900   50.899300
  C    -11.670500   69.098000   51.286000
  C    -11.381200   68.554900   52.559600
  C    -12.442800   67.832200   53.161600
  H    -10.943100   69.602600   50.674300
  C     -9.975450   68.659900   53.180000
  H     -9.295800   68.242400   52.462100
  H     -9.884880   68.006800   54.085900
  C     -9.423110   70.045500   53.418700
  H    -10.179800   70.724300   53.887400
  H     -9.027850   70.428200   52.506000
  C     -8.123030   69.970700   54.305900
  H     -8.453700   69.562300   55.247400
  H     -7.631000   70.981100   54.521100
  H     -7.338800   69.404100   53.855700
  H    -12.342400   66.855200   58.089600
  H    -13.411400   69.093600   49.930100

 Total Charge           Charge          ....    0
 Multiplicity           Mult            ....    1
 Number of Electrons    NEL             ....  134
 Basis Dimension        Dim             ....  322

ORBITAL ENERGIES
----------------

  NO   OCC          E(Eh)            E(eV)
   0   2.0000     -88.969532     -2420.9840
   1   2.0000     -88.964280     -2420.8411
   2   2.0000     -10.329885      -281.0905
   3   2.0000     -10.327782      -281.0332
   4   2.0000     -10.320236      -280.8279
   5   2.0000     -10.317569      -280.7553
   6   2.0000     -10.309568      -280.5376
   7   2.0000     -10.306665      -280.4586
   8   2.0000     -10.297130      -280.1991
   9   2.0000     -10.295269      -280.1485
  10   2.0000     -10.294510      -280.1279
  11   2.0000     -10.288284      -279.9585
  12   2.0000     -10.288006      -279.9509
  13   2.0000     -10.284257      -279.8489
  14   2.0000     -10.281394      -279.7710
  15   2.0000     -10.278168      -279.6832
  16   2.0000      -8.085330      -220.0130
  17   2.0000      -8.079576      -219.8564
  18   2.0000      -6.043663      -164.4564
  19   2.0000      -6.039427      -164.3412
  20   2.0000      -6.038015      -164.3028
  21   2.0000      -6.036481      -164.2610
  22   2.0000      -6.033781      -164.1875
  23   2.0000      -6.030564      -164.1000
  24   2.0000      -1.012840       -27.5608
  25   2.0000      -0.992193       -26.9989
  26   2.0000      -0.909551       -24.7501
  27   2.0000      -0.907650       -24.6984
  28   2.0000      -0.875476       -23.8229
  29   2.0000      -0.849937       -23.1280
  30   2.0000      -0.842573       -22.9276
  31   2.0000      -0.815835       -22.2000
  32   2.0000      -0.778965       -21.1967
  33   2.0000      -0.767418       -20.8825
  34   2.0000      -0.703784       -19.1509
  35   2.0000      -0.694350       -18.8942
  36   2.0000      -0.684410       -18.6237
  37   2.0000      -0.665277       -18.1031
  38   2.0000      -0.645642       -17.5688
  39   2.0000      -0.615455       -16.7474
  40   2.0000      -0.598959       -16.2985
  41   2.0000      -0.575479       -15.6596
  42   2.0000      -0.572070       -15.5668
  43   2.0000      -0.559574       -15.2268
  44   2.0000      -0.526559       -14.3284
  45   2.0000      -0.520003       -14.1500
  46   2.0000      -0.516724       -14.0608
  47   2.0000      -0.509625       -13.8676
  48   2.0000      -0.507180       -13.8011
  49   2.0000      -0.503945       -13.7131
  50   2.0000      -0.495942       -13.4953
  51   2.0000      -0.474955       -12.9242
  52   2.0000      -0.472934       -12.8692
  53   2.0000      -0.467934       -12.7331
  54   2.0000      -0.464289       -12.6339
  55   2.0000      -0.449406       -12.2290
  56   2.0000      -0.436578       -11.8799
  57   2.0000      -0.432578       -11.7710
  58   2.0000      -0.430340       -11.7101
  59   2.0000      -0.419636       -11.4189
  60   2.0000      -0.415200       -11.2982
  61   2.0000      -0.411948       -11.2097
  62   2.0000      -0.403534       -10.9807
  63   2.0000      -0.351476        -9.5641
  64   2.0000      -0.332413        -9.0454
  65   2.0000      -0.326930        -8.8962
  66   2.0000      -0.295530        -8.0418
  67   0.0000       0.031838         0.8664
  68   0.0000       0.066956         1.8220
  69   0.0000       0.105922         2.8823
  70   0.0000       0.120389         3.2759
  71   0.0000       0.139172         3.7871

MULLIKEN ATOMIC CHARGES
-----------------------
   0 S :    0.113418
   1 C :   -0.117257
   2 C :   -0.092517
   3 C :    0.054616
   4 C :   -0.179961
   5 H :    0.001560
   6 C :    0.059383
   7 H :    0.040478
   8 H :    0.012535
   9 C :   -0.087322
  10 H :    0.032188
  11 H :    0.021188
  12 C :   -0.084426
  13 H :    0.041920
  14 H :    0.043788
  15 H :    0.035717
  16 S :    0.135691
  17 C :   -0.094960
  18 C :   -0.028628
  19 C :   -0.024196
  20 C :   -0.156228
  21 H :    0.017591
  22 C :    0.043602
  23 H :    0.020073
  24 H :    0.034515
  25 C :   -0.071934
  26 H :    0.046791
  27 H :    0.020565
  28 C :   -0.072109
  29 H :    0.032541
  30 H :    0.040340
  31 H :    0.026567
  32 H :    0.065339
  33 H :    0.069132
Sum of atomic charges:    0.0000000

LOEWDIN ATOMIC CHARGES
----------------------
   0 S :    0.429769
   1 C :   -0.213348
   2 C :   -0.059887
   3 C :   -0.064146
   4 C :   -0.192082
   5 H :    0.027514
   6 C :   -0.033499
   7 H :    0.035309
   8 H :    0.025834
   9 C :   -0.054669
  10 H :    0.025294
  11 H :    0.024785
  12 C :   -0.078634
  13 H :    0.026069
  14 H :    0.029296
  15 H :    0.031592
  16 S :    0.454789
  17 C :   -0.205046
  18 C :   -0.074438
  19 C :   -0.047742
  20 C :   -0.224083
  21 H :    0.030834
  22 C :   -0.039392
  23 H :    0.031220
  24 H :    0.028862
  25 C :   -0.039651
  26 H :    0.029328
  27 H :    0.016900
  28 C :   -0.065354
  29 H :    0.020869
  30 H :    0.032508
  31 H :    0.018247
  32 H :    0.037593
  33 H :    0.035356

  Mayer bond orders larger than 0.100000
B(  0-S ,  1-C ) :   1.1593 B(  0-S ,  4-C ) :   1.1537 B(  1-C ,  2-C ) :   1.5913
B(  1-C , 32-H ) :   0.9678 B(  2-C ,  3-C ) :   1.2368 B(  2-C ,  6-C ) :   1.0151
B(  3-C ,  4-C ) :   1.5846 B(  3-C ,  5-H ) :   0.9986 B(  4-C , 20-C ) :   1.0412
B(  6-C ,  7-H ) :   0.9505 B(  6-C ,  8-H ) :   0.9457 B(  6-C ,  9-C ) :   1.0598
B(  9-C , 10-H ) :   0.9546 B(  9-C , 11-H ) :   0.9560 B(  9-C , 12-C ) :   1.0794
B( 12-C , 13-H ) :   0.9722 B( 12-C , 14-H ) :   0.9763 B( 12-C , 15-H ) :   0.9735
B( 16-S , 17-C ) :   1.2114 B( 16-S , 20-C ) :   1.1538 B( 17-C , 18-C ) :   1.5180
B( 17-C , 20-C ) :   0.1070 B( 17-C , 33-H ) :   0.9667 B( 18-C , 19-C ) :   1.3116
B( 18-C , 21-H ) :   0.9955 B( 19-C , 20-C ) :   1.5166 B( 19-C , 22-C ) :   1.0440
B( 22-C , 23-H ) :   0.9288 B( 22-C , 24-H ) :   0.9427 B( 22-C , 25-C ) :   1.0592
B( 25-C , 26-H ) :   0.9621 B( 25-C , 27-H ) :   0.9518 B( 25-C , 28-C ) :   1.0773
B( 28-C , 29-H ) :   0.9789 B( 28-C , 30-H ) :   0.9761 B( 28-C , 31-H ) :   0.9753

Dispersion correction           -0.013812407
FINAL SINGLE POINT ENERGY     -1339.876282133414

DIPOLE MOMENT
-------------
                                X             Y             Z
Electronic contribution:    -16.84394      10.67756     -10.60428
Nuclear contribution   :     17.23822     -10.90405      10.49347
                        -----------------------------------------
Total Dipole Moment    :      0.39428      -0.22649      -0.11081
                        -----------------------------------------
Magnitude (a.u.)       :      0.46801
Magnitude (Debye)      :      1.18958

Rotational constants in cm-1:     0.019071     0.007668     0.006332
Rotational constants in MHz :   571.743403   229.884889   189.838092

                             ****ORCA TERMINATED NORMALLY****
TOTAL RUN TIME: 0 days 0 hours 0 minutes 30 seconds 530 msec
