                         Program Version 4.2.1 -  RELEASE  -
|  1> ! wB97X-D3 SP def2-SVP
|  2> %pal
|  3> nprocs 16
|  4> end
|  5>
|  6> * xyz 0 1
|  7> S 	 -14.4053 	 34.3137 	 36.3986
|  8> C 	 -14.5214 	 34.4012 	 38.1035
|  9> C 	 -13.3699 	 33.88 	 38.6933
| 10> C 	 -12.4054 	 33.448 	 37.7536
| 11> C 	 -12.749 	 33.6243 	 36.4035
| 12> H 	 -11.4802 	 32.9223 	 37.9717
| 13> C 	 -13.2246 	 33.6983 	 40.1508
| 14> H 	 -12.5443 	 32.8589 	 40.3333
| 15> H 	 -14.1952 	 33.2811 	 40.6181
| 16> C 	 -12.7518 	 34.9235 	 40.9121
| 17> H 	 -13.3012 	 35.7548 	 40.6264
| 18> H 	 -13.0873 	 34.7981 	 41.9511
| 19> C 	 -11.2659 	 35.202 	 40.6837
| 20> H 	 -10.8635 	 36.0132 	 41.3228
| 21> H 	 -10.6899 	 34.3198 	 40.9437
| 22> H 	 -11.0693 	 35.4589 	 39.667
| 23> S 	 -12.7104 	 31.9493 	 34.2642
| 24> C 	 -11.3102 	 31.9319 	 33.255
| 25> C 	 -10.2652 	 32.6391 	 33.7931
| 26> C 	 -10.6715 	 33.3896 	 34.9195
| 27> C 	 -12.0193 	 33.242 	 35.2346
| 28> H 	 -9.293 	 32.5594 	 33.3895
| 29> C 	 -9.69544 	 34.3101 	 35.6392
| 30> H 	 -10.2538 	 35.0101 	 36.2598
| 31> H 	 -9.10053 	 34.9215 	 34.9056
| 32> C 	 -8.72847 	 33.4326 	 36.4689
| 33> H 	 -8.26383 	 32.6511 	 35.8366
| 34> H 	 -9.35156 	 32.9275 	 37.2369
| 35> C 	 -7.61233 	 34.3019 	 37.1163
| 36> H 	 -7.99646 	 35.2592 	 37.2835
| 37> H 	 -6.72682 	 34.3877 	 36.4374
| 38> H 	 -7.27545 	 33.8441 	 38.0568
| 39> H 	 -15.3369 	 34.7081 	 38.7074
| 40> H 	 -11.0739 	 31.2699 	 32.4802
| 41> *
| 42>
| 43>                          ****END OF INPUT****

CARTESIAN COORDINATES (ANGSTROEM)
---------------------------------
  S    -14.405300   34.313700   36.398600
  C    -14.521400   34.401200   38.103500
  C    -13.369900   33.880000   38.693300
  C    -12.405400   33.448000   37.753600
  C    -12.749000   33.624300   36.403500
  H    -11.480200   32.922300   37.971700
  C    -13.224600   33.698300   40.150800
  H    -12.544300   32.858900   40.333300
  H    -14.195200   33.281100   40.618100
  C    -12.751800   34.923500   40.912100
  H    -13.301200   35.754800   40.626400
  H    -13.087300   34.798100   41.951100
  C    -11.265900   35.202000   40.683700
  H    -10.863500   36.013200   41.322800
  H    -10.689900   34.319800   40.943700
  H    -11.069300   35.458900   39.667000
  S    -12.710400   31.949300   34.264200
  C    -11.310200   31.931900   33.255000
  C    -10.265200   32.639100   33.793100
  C    -10.671500   33.389600   34.919500
  C    -12.019300   33.242000   35.234600
  H     -9.293000   32.559400   33.389500
  C     -9.695440   34.310100   35.639200
  H    -10.253800   35.010100   36.259800
  H     -9.100530   34.921500   34.905600
  C     -8.728470   33.432600   36.468900
  H     -8.263830   32.651100   35.836600
  H     -9.351560   32.927500   37.236900
  C     -7.612330   34.301900   37.116300
  H     -7.996460   35.259200   37.283500
  H     -6.726820   34.387700   36.437400
  H     -7.275450   33.844100   38.056800
  H    -15.336900   34.708100   38.707400
  H    -11.073900   31.269900   32.480200

 Total Charge           Charge          ....    0
 Multiplicity           Mult            ....    1
 Number of Electrons    NEL             ....  134
 Basis Dimension        Dim             ....  322

ORBITAL ENERGIES
----------------

  NO   OCC          E(Eh)            E(eV)
   0   2.0000     -88.966770     -2420.9089
   1   2.0000     -88.965866     -2420.8843
   2   2.0000     -10.331603      -281.1372
   3   2.0000     -10.324336      -280.9395
   4   2.0000     -10.311621      -280.5935
   5   2.0000     -10.311130      -280.5801
   6   2.0000     -10.303166      -280.3634
   7   2.0000     -10.296126      -280.1718
   8   2.0000     -10.295788      -280.1626
   9   2.0000     -10.294825      -280.1364
  10   2.0000     -10.292888      -280.0837
  11   2.0000     -10.291988      -280.0592
  12   2.0000     -10.288227      -279.9569
  13   2.0000     -10.279536      -279.7204
  14   2.0000     -10.278728      -279.6984
  15   2.0000     -10.276029      -279.6250
  16   2.0000      -8.081159      -219.8995
  17   2.0000      -8.080947      -219.8937
  18   2.0000      -6.039610      -164.3462
  19   2.0000      -6.039417      -164.3409
  20   2.0000      -6.035510      -164.2346
  21   2.0000      -6.035490      -164.2340
  22   2.0000      -6.032192      -164.1443
  23   2.0000      -6.031625      -164.1289
  24   2.0000      -1.008906       -27.4537
  25   2.0000      -0.987433       -26.8694
  26   2.0000      -0.916083       -24.9279
  27   2.0000      -0.908607       -24.7245
  28   2.0000      -0.875333       -23.8190
  29   2.0000      -0.850353       -23.1393
  30   2.0000      -0.845892       -23.0179
  31   2.0000      -0.816678       -22.2229
  32   2.0000      -0.781174       -21.2568
  33   2.0000      -0.769032       -20.9264
  34   2.0000      -0.709594       -19.3090
  35   2.0000      -0.707643       -19.2559
  36   2.0000      -0.696394       -18.9498
  37   2.0000      -0.665080       -18.0978
  38   2.0000      -0.642945       -17.4954
  39   2.0000      -0.615435       -16.7468
  40   2.0000      -0.596749       -16.2384
  41   2.0000      -0.580262       -15.7897
  42   2.0000      -0.563139       -15.3238
  43   2.0000      -0.549259       -14.9461
  44   2.0000      -0.539791       -14.6885
  45   2.0000      -0.527415       -14.3517
  46   2.0000      -0.514684       -14.0053
  47   2.0000      -0.512186       -13.9373
  48   2.0000      -0.507804       -13.8180
  49   2.0000      -0.504171       -13.7192
  50   2.0000      -0.493178       -13.4201
  51   2.0000      -0.480958       -13.0875
  52   2.0000      -0.471714       -12.8360
  53   2.0000      -0.464859       -12.6495
  54   2.0000      -0.463524       -12.6131
  55   2.0000      -0.450559       -12.2603
  56   2.0000      -0.441901       -12.0247
  57   2.0000      -0.437782       -11.9127
  58   2.0000      -0.433213       -11.7883
  59   2.0000      -0.426277       -11.5996
  60   2.0000      -0.423005       -11.5105
  61   2.0000      -0.416476       -11.3329
  62   2.0000      -0.413259       -11.2453
  63   2.0000      -0.346845        -9.4381
  64   2.0000      -0.329880        -8.9765
  65   2.0000      -0.328767        -8.9462
  66   2.0000      -0.292396        -7.9565
  67   0.0000       0.026421         0.7190
  68   0.0000       0.064797         1.7632
  69   0.0000       0.112108         3.0506
  70   0.0000       0.120503         3.2790
  71   0.0000       0.125533         3.4159

MULLIKEN ATOMIC CHARGES
-----------------------
   0 S :    0.118563
   1 C :   -0.081496
   2 C :   -0.097917
   3 C :    0.046103
   4 C :   -0.188383
   5 H :    0.006785
   6 C :   -0.002180
   7 H :    0.019572
   8 H :    0.037556
   9 C :   -0.005591
  10 H :    0.002307
  11 H :    0.022369
  12 C :   -0.043456
  13 H :    0.037038
  14 H :    0.020546
  15 H :    0.034137
  16 S :    0.112065
  17 C :   -0.042089
  18 C :   -0.043816
  19 C :   -0.033235
  20 C :   -0.140117
  21 H :    0.004873
  22 C :    0.052786
  23 H :    0.032927
  24 H :    0.035795
  25 C :   -0.120701
  26 H :    0.036706
  27 H :    0.029070
  28 C :   -0.012739
  29 H :    0.019789
  30 H :    0.038678
  31 H :    0.035927
  32 H :    0.034441
  33 H :    0.033687
Sum of atomic charges:   -0.0000000

LOEWDIN ATOMIC CHARGES
----------------------
   0 S :    0.414089
   1 C :   -0.199726
   2 C :   -0.074480
   3 C :   -0.058656
   4 C :   -0.194696
   5 H :    0.028902
   6 C :   -0.040624
   7 H :    0.028104
   8 H :    0.038797
   9 C :   -0.037146
  10 H :    0.013453
  11 H :    0.026171
  12 C :   -0.061119
  13 H :    0.030465
  14 H :    0.021903
  15 H :    0.023041
  16 S :    0.418223
  17 C :   -0.178154
  18 C :   -0.066174
  19 C :   -0.046379
  20 C :   -0.208062
  21 H :    0.026112
  22 C :   -0.031718
  23 H :    0.028051
  24 H :    0.033441
  25 C :   -0.040349
  26 H :    0.024953
  27 H :    0.022148
  28 C :   -0.062263
  29 H :    0.015478
  30 H :    0.030954
  31 H :    0.028681
  32 H :    0.026183
  33 H :    0.020398

  Mayer bond orders larger than 0.100000
B(  0-S ,  1-C ) :   1.1627 B(  0-S ,  4-C ) :   1.1502 B(  1-C ,  2-C ) :   1.5687
B(  1-C ,  4-C ) :   0.1075 B(  1-C , 32-H ) :   0.9704 B(  2-C ,  3-C ) :   1.2821
B(  2-C ,  6-C ) :   1.0295 B(  3-C ,  4-C ) :   1.5299 B(  3-C ,  5-H ) :   0.9907
B(  4-C , 20-C ) :   1.0578 B(  6-C ,  7-H ) :   0.9448 B(  6-C ,  8-H ) :   0.9419
B(  6-C ,  9-C ) :   1.0673 B(  9-C , 10-H ) :   0.9525 B(  9-C , 11-H ) :   0.9526
B(  9-C , 12-C ) :   1.0729 B( 12-C , 13-H ) :   0.9733 B( 12-C , 14-H ) :   0.9762
B( 12-C , 15-H ) :   0.9745 B( 16-S , 17-C ) :   1.1642 B( 16-S , 20-C ) :   1.1400
B( 17-C , 18-C ) :   1.6066 B( 17-C , 33-H ) :   0.9675 B( 18-C , 19-C ) :   1.2469
B( 18-C , 21-H ) :   0.9981 B( 19-C , 20-C ) :   1.5823 B( 19-C , 22-C ) :   1.0431
B( 22-C , 23-H ) :   0.9319 B( 22-C , 24-H ) :   0.9441 B( 22-C , 25-C ) :   1.0532
B( 25-C , 26-H ) :   0.9624 B( 25-C , 27-H ) :   0.9538 B( 25-C , 28-C ) :   1.0702
B( 28-C , 29-H ) :   0.9741 B( 28-C , 30-H ) :   0.9762 B( 28-C , 31-H ) :   0.9756

Dispersion correction           -0.014981820
FINAL SINGLE POINT ENERGY     -1339.884366004632

DIPOLE MOMENT
-------------
                                X             Y             Z
Electronic contribution:    -21.21602      -7.58912     -21.62015
Nuclear contribution   :     21.79698       7.50210      22.06911
                        -----------------------------------------
Total Dipole Moment    :      0.58097      -0.08703       0.44896
                        -----------------------------------------
Magnitude (a.u.)       :      0.73936
Magnitude (Debye)      :      1.87931

Rotational constants in cm-1:     0.017202     0.010273     0.006932
Rotational constants in MHz :   515.695441   307.971220   207.812852

                             ****ORCA TERMINATED NORMALLY****
TOTAL RUN TIME: 0 days 0 hours 0 minutes 35 seconds 763 msec
