                         Program Version 4.2.1 -  RELEASE  -
|  1> ! wB97X-D3 SP def2-SVP
|  2> %pal
|  3> nprocs 16
|  4> end
|  5>
|  6> * xyz 0 1
|  7> S 	 -8.7628 	 60.1823 	 53.1215
|  8> C 	 -9.18489 	 59.5149 	 54.6839
|  9> C 	 -8.14003 	 59.1351 	 55.4639
| 10> C 	 -6.96014 	 59.6081 	 54.783
| 11> C 	 -7.14028 	 60.3028 	 53.6015
| 12> H 	 -5.95643 	 59.4658 	 55.1109
| 13> C 	 -8.27423 	 58.4747 	 56.835
| 14> H 	 -9.343 	 58.2453 	 56.9239
| 15> H 	 -8.15124 	 59.2101 	 57.6006
| 16> C 	 -7.57803 	 57.1374 	 57.0526
| 17> H 	 -7.75 	 56.4519 	 56.1946
| 18> H 	 -6.52822 	 57.3032 	 57.222
| 19> C 	 -8.15051 	 56.3643 	 58.2998
| 20> H 	 -7.7783 	 55.3434 	 58.5436
| 21> H 	 -8.00959 	 56.9355 	 59.2307
| 22> H 	 -9.18834 	 56.2033 	 58.1428
| 23> S 	 -4.60938 	 60.2841 	 52.4673
| 24> C 	 -4.37636 	 61.2376 	 51.0201
| 25> C 	 -5.43646 	 62.0962 	 50.8679
| 26> C 	 -6.43295 	 62.043 	 51.8564
| 27> C 	 -6.17566 	 61.0114 	 52.7487
| 28> H 	 -5.3589 	 62.7161 	 49.9825
| 29> C 	 -7.66727 	 62.9635 	 51.8142
| 30> H 	 -7.97505 	 62.9384 	 52.8363
| 31> H 	 -8.41478 	 62.534 	 51.1403
| 32> C 	 -7.51595 	 64.4278 	 51.453
| 33> H 	 -6.92594 	 64.5925 	 50.5485
| 34> H 	 -6.91684 	 64.9499 	 52.1803
| 35> C 	 -8.92361 	 65.1191 	 51.3501
| 36> H 	 -9.47064 	 64.8916 	 50.493
| 37> H 	 -8.78299 	 66.1784 	 51.167
| 38> H 	 -9.56162 	 64.8047 	 52.1685
| 39> H 	 -10.1301 	 59.0308 	 54.9125
| 40> H 	 -3.50742 	 61.4586 	 50.4198
| 41> *
| 42>
| 43>                          ****END OF INPUT****

CARTESIAN COORDINATES (ANGSTROEM)
---------------------------------
  S     -8.762800   60.182300   53.121500
  C     -9.184890   59.514900   54.683900
  C     -8.140030   59.135100   55.463900
  C     -6.960140   59.608100   54.783000
  C     -7.140280   60.302800   53.601500
  H     -5.956430   59.465800   55.110900
  C     -8.274230   58.474700   56.835000
  H     -9.343000   58.245300   56.923900
  H     -8.151240   59.210100   57.600600
  C     -7.578030   57.137400   57.052600
  H     -7.750000   56.451900   56.194600
  H     -6.528220   57.303200   57.222000
  C     -8.150510   56.364300   58.299800
  H     -7.778300   55.343400   58.543600
  H     -8.009590   56.935500   59.230700
  H     -9.188340   56.203300   58.142800
  S     -4.609380   60.284100   52.467300
  C     -4.376360   61.237600   51.020100
  C     -5.436460   62.096200   50.867900
  C     -6.432950   62.043000   51.856400
  C     -6.175660   61.011400   52.748700
  H     -5.358900   62.716100   49.982500
  C     -7.667270   62.963500   51.814200
  H     -7.975050   62.938400   52.836300
  H     -8.414780   62.534000   51.140300
  C     -7.515950   64.427800   51.453000
  H     -6.925940   64.592500   50.548500
  H     -6.916840   64.949900   52.180300
  C     -8.923610   65.119100   51.350100
  H     -9.470640   64.891600   50.493000
  H     -8.782990   66.178400   51.167000
  H     -9.561620   64.804700   52.168500
  H    -10.130100   59.030800   54.912500
  H     -3.507420   61.458600   50.419800

 Total Charge           Charge          ....    0
 Multiplicity           Mult            ....    1
 Number of Electrons    NEL             ....  134
 Basis Dimension        Dim             ....  322

ORBITAL ENERGIES
----------------

  NO   OCC          E(Eh)            E(eV)
   0   2.0000     -88.966827     -2420.9104
   1   2.0000     -88.965561     -2420.8760
   2   2.0000     -10.328564      -281.0545
   3   2.0000     -10.325310      -280.9660
   4   2.0000     -10.313115      -280.6341
   5   2.0000     -10.306995      -280.4676
   6   2.0000     -10.302779      -280.3529
   7   2.0000     -10.302018      -280.3322
   8   2.0000     -10.296697      -280.1874
   9   2.0000     -10.293926      -280.1120
  10   2.0000     -10.289565      -279.9933
  11   2.0000     -10.288445      -279.9628
  12   2.0000     -10.287647      -279.9411
  13   2.0000     -10.285622      -279.8860
  14   2.0000     -10.282417      -279.7988
  15   2.0000     -10.273736      -279.5626
  16   2.0000      -8.081362      -219.9050
  17   2.0000      -8.080950      -219.8938
  18   2.0000      -6.039961      -164.3557
  19   2.0000      -6.039345      -164.3389
  20   2.0000      -6.035883      -164.2447
  21   2.0000      -6.035539      -164.2354
  22   2.0000      -6.032060      -164.1407
  23   2.0000      -6.031607      -164.1284
  24   2.0000      -1.012935       -27.5634
  25   2.0000      -0.989440       -26.9240
  26   2.0000      -0.914340       -24.8805
  27   2.0000      -0.907655       -24.6985
  28   2.0000      -0.871650       -23.7188
  29   2.0000      -0.852170       -23.1887
  30   2.0000      -0.842928       -22.9372
  31   2.0000      -0.815323       -22.1861
  32   2.0000      -0.787363       -21.4252
  33   2.0000      -0.776430       -21.1277
  34   2.0000      -0.713009       -19.4020
  35   2.0000      -0.706654       -19.2290
  36   2.0000      -0.692758       -18.8509
  37   2.0000      -0.660961       -17.9857
  38   2.0000      -0.632020       -17.1981
  39   2.0000      -0.618977       -16.8432
  40   2.0000      -0.596015       -16.2184
  41   2.0000      -0.579033       -15.7563
  42   2.0000      -0.568648       -15.4737
  43   2.0000      -0.562287       -15.3006
  44   2.0000      -0.530244       -14.4287
  45   2.0000      -0.525052       -14.2874
  46   2.0000      -0.515573       -14.0295
  47   2.0000      -0.507724       -13.8159
  48   2.0000      -0.504472       -13.7274
  49   2.0000      -0.500343       -13.6150
  50   2.0000      -0.489885       -13.3304
  51   2.0000      -0.480974       -13.0880
  52   2.0000      -0.468470       -12.7477
  53   2.0000      -0.461368       -12.5545
  54   2.0000      -0.459476       -12.5030
  55   2.0000      -0.450707       -12.2644
  56   2.0000      -0.443776       -12.0757
  57   2.0000      -0.440721       -11.9926
  58   2.0000      -0.431609       -11.7447
  59   2.0000      -0.425804       -11.5867
  60   2.0000      -0.423359       -11.5202
  61   2.0000      -0.421137       -11.4597
  62   2.0000      -0.412248       -11.2178
  63   2.0000      -0.353964        -9.6319
  64   2.0000      -0.333396        -9.0722
  65   2.0000      -0.330070        -8.9817
  66   2.0000      -0.287966        -7.8360
  67   0.0000       0.024341         0.6624
  68   0.0000       0.081902         2.2287
  69   0.0000       0.113072         3.0768
  70   0.0000       0.116252         3.1634
  71   0.0000       0.134477         3.6593

MULLIKEN ATOMIC CHARGES
-----------------------
   0 S :    0.113887
   1 C :   -0.113099
   2 C :   -0.092542
   3 C :    0.019637
   4 C :   -0.155599
   5 H :   -0.010773
   6 C :    0.087309
   7 H :   -0.000427
   8 H :    0.040314
   9 C :   -0.066585
  10 H :    0.045810
  11 H :    0.038478
  12 C :   -0.078180
  13 H :    0.040719
  14 H :    0.033240
  15 H :    0.022652
  16 S :    0.104404
  17 C :   -0.081507
  18 C :   -0.071361
  19 C :   -0.058009
  20 C :   -0.113674
  21 H :    0.017633
  22 C :    0.080716
  23 H :    0.029640
  24 H :    0.045032
  25 C :   -0.073356
  26 H :    0.021140
  27 H :    0.024689
  28 C :   -0.026927
  29 H :    0.011358
  30 H :    0.030355
  31 H :    0.038208
  32 H :    0.042390
  33 H :    0.054427
Sum of atomic charges:   -0.0000000

LOEWDIN ATOMIC CHARGES
----------------------
   0 S :    0.440003
   1 C :   -0.200594
   2 C :   -0.058297
   3 C :   -0.066295
   4 C :   -0.206301
   5 H :    0.018067
   6 C :   -0.027865
   7 H :    0.030885
   8 H :    0.033006
   9 C :   -0.035909
  10 H :    0.033730
  11 H :    0.021560
  12 C :   -0.071089
  13 H :    0.031361
  14 H :    0.025410
  15 H :    0.017308
  16 S :    0.409298
  17 C :   -0.193263
  18 C :   -0.072597
  19 C :   -0.063227
  20 C :   -0.196303
  21 H :    0.030130
  22 C :   -0.037714
  23 H :    0.026712
  24 H :    0.032612
  25 C :   -0.037094
  26 H :    0.019519
  27 H :    0.022601
  28 C :   -0.061065
  29 H :    0.016904
  30 H :    0.030298
  31 H :    0.029012
  32 H :    0.024584
  33 H :    0.034612

  Mayer bond orders larger than 0.100000
B(  0-S ,  1-C ) :   1.1440 B(  0-S ,  4-C ) :   1.1561 B(  1-C ,  2-C ) :   1.6431
B(  1-C , 32-H ) :   0.9498 B(  2-C ,  3-C ) :   1.2328 B(  2-C ,  6-C ) :   1.0195
B(  3-C ,  4-C ) :   1.5721 B(  3-C ,  5-H ) :   1.0031 B(  4-C , 20-C ) :   1.0377
B(  6-C ,  7-H ) :   0.9352 B(  6-C ,  8-H ) :   0.9367 B(  6-C ,  9-C ) :   1.0532
B(  9-C , 10-H ) :   0.9595 B(  9-C , 11-H ) :   0.9573 B(  9-C , 12-C ) :   1.0750
B( 12-C , 13-H ) :   0.9772 B( 12-C , 14-H ) :   0.9771 B( 12-C , 15-H ) :   0.9768
B( 16-S , 17-C ) :   1.1438 B( 16-S , 20-C ) :   1.1444 B( 17-C , 18-C ) :   1.6309
B( 17-C , 33-H ) :   0.9606 B( 18-C , 19-C ) :   1.2463 B( 18-C , 21-H ) :   0.9882
B( 19-C , 20-C ) :   1.5674 B( 19-C , 22-C ) :   1.0153 B( 22-C , 23-H ) :   0.9291
B( 22-C , 24-H ) :   0.9371 B( 22-C , 25-C ) :   1.0747 B( 25-C , 26-H ) :   0.9521
B( 25-C , 27-H ) :   0.9563 B( 25-C , 28-C ) :   1.0787 B( 28-C , 29-H ) :   0.9727
B( 28-C , 30-H ) :   0.9711 B( 28-C , 31-H ) :   0.9752

Dispersion correction           -0.013192916
FINAL SINGLE POINT ENERGY     -1339.862274206061

DIPOLE MOMENT
-------------
                                X             Y             Z
Electronic contribution:     10.00018      -2.82048     -10.98238
Nuclear contribution   :    -10.14524       2.90128      11.08357
                        -----------------------------------------
Total Dipole Moment    :     -0.14507       0.08079       0.10119
                        -----------------------------------------
Magnitude (a.u.)       :      0.19445
Magnitude (Debye)      :      0.49426

Rotational constants in cm-1:     0.022979     0.006955     0.005633
Rotational constants in MHz :   688.902968   208.500595   168.866651

                             ****ORCA TERMINATED NORMALLY****
TOTAL RUN TIME: 0 days 0 hours 0 minutes 32 seconds 561 msec
