                         Program Version 4.2.1 -  RELEASE  -
|  1> ! wB97X-D3 SP def2-SVP
|  2> %pal
|  3> nprocs 16
|  4> end
|  5>
|  6> * xyz 0 1
|  7> S 	 -34.3692 	 74.5204 	 167.446
|  8> C 	 -33.9476 	 74.7661 	 165.778
|  9> C 	 -34.9894 	 75.26 	 165.037
| 10> C 	 -36.1303 	 75.6013 	 165.834
| 11> C 	 -35.9814 	 75.055 	 167.111
| 12> H 	 -36.9732 	 76.2368 	 165.51
| 13> C 	 -34.8322 	 75.5866 	 163.548
| 14> H 	 -35.7997 	 75.8277 	 163.225
| 15> H 	 -34.5888 	 74.6372 	 163.11
| 16> C 	 -33.8613 	 76.6526 	 163.23
| 17> H 	 -34.0522 	 77.6434 	 163.666
| 18> H 	 -32.9109 	 76.3235 	 163.574
| 19> C 	 -33.7272 	 76.8299 	 161.704
| 20> H 	 -32.9275 	 77.421 	 161.362
| 21> H 	 -33.6551 	 75.7924 	 161.258
| 22> H 	 -34.5633 	 77.335 	 161.359
| 23> S 	 -36.4771 	 76.0486 	 169.656
| 24> C 	 -37.9173 	 75.6363 	 170.515
| 25> C 	 -38.7839 	 74.903 	 169.748
| 26> C 	 -38.272 	 74.7424 	 168.382
| 27> C 	 -36.9546 	 75.1875 	 168.187
| 28> H 	 -39.6381 	 74.5621 	 170.144
| 29> C 	 -39.0201 	 73.8762 	 167.411
| 30> H 	 -39.4394 	 73.0179 	 167.918
| 31> H 	 -38.2831 	 73.4324 	 166.705
| 32> C 	 -40.0368 	 74.5345 	 166.568
| 33> H 	 -40.5388 	 73.8351 	 165.83
| 34> H 	 -39.4296 	 75.262 	 165.943
| 35> C 	 -41.1305 	 75.2846 	 167.276
| 36> H 	 -40.8131 	 75.9803 	 168.062
| 37> H 	 -41.6582 	 74.5106 	 167.795
| 38> H 	 -41.795 	 75.7254 	 166.485
| 39> H 	 -32.9876 	 74.6 	 165.444
| 40> H 	 -38.013 	 75.8028 	 171.543
| 41> *
| 42>
| 43>                          ****END OF INPUT****

CARTESIAN COORDINATES (ANGSTROEM)
---------------------------------
  S    -34.369200   74.520400  167.446000
  C    -33.947600   74.766100  165.778000
  C    -34.989400   75.260000  165.037000
  C    -36.130300   75.601300  165.834000
  C    -35.981400   75.055000  167.111000
  H    -36.973200   76.236800  165.510000
  C    -34.832200   75.586600  163.548000
  H    -35.799700   75.827700  163.225000
  H    -34.588800   74.637200  163.110000
  C    -33.861300   76.652600  163.230000
  H    -34.052200   77.643400  163.666000
  H    -32.910900   76.323500  163.574000
  C    -33.727200   76.829900  161.704000
  H    -32.927500   77.421000  161.362000
  H    -33.655100   75.792400  161.258000
  H    -34.563300   77.335000  161.359000
  S    -36.477100   76.048600  169.656000
  C    -37.917300   75.636300  170.515000
  C    -38.783900   74.903000  169.748000
  C    -38.272000   74.742400  168.382000
  C    -36.954600   75.187500  168.187000
  H    -39.638100   74.562100  170.144000
  C    -39.020100   73.876200  167.411000
  H    -39.439400   73.017900  167.918000
  H    -38.283100   73.432400  166.705000
  C    -40.036800   74.534500  166.568000
  H    -40.538800   73.835100  165.830000
  H    -39.429600   75.262000  165.943000
  C    -41.130500   75.284600  167.276000
  H    -40.813100   75.980300  168.062000
  H    -41.658200   74.510600  167.795000
  H    -41.795000   75.725400  166.485000
  H    -32.987600   74.600000  165.444000
  H    -38.013000   75.802800  171.543000

 Total Charge           Charge          ....    0
 Multiplicity           Mult            ....    1
 Number of Electrons    NEL             ....  134
 Basis Dimension        Dim             ....  322

ORBITAL ENERGIES
----------------

  NO   OCC          E(Eh)            E(eV)
   0   2.0000     -88.969399     -2420.9804
   1   2.0000     -88.959166     -2420.7020
   2   2.0000     -10.330686      -281.1122
   3   2.0000     -10.327787      -281.0334
   4   2.0000     -10.311010      -280.5768
   5   2.0000     -10.306939      -280.4661
   6   2.0000     -10.306169      -280.4451
   7   2.0000     -10.301606      -280.3210
   8   2.0000     -10.299742      -280.2702
   9   2.0000     -10.288037      -279.9517
  10   2.0000     -10.284397      -279.8527
  11   2.0000     -10.284145      -279.8458
  12   2.0000     -10.282280      -279.7951
  13   2.0000     -10.280824      -279.7554
  14   2.0000     -10.272681      -279.5339
  15   2.0000     -10.272085      -279.5176
  16   2.0000      -8.084650      -219.9945
  17   2.0000      -8.074428      -219.7163
  18   2.0000      -6.043056      -164.4399
  19   2.0000      -6.039135      -164.3332
  20   2.0000      -6.035440      -164.2327
  21   2.0000      -6.032979      -164.1657
  22   2.0000      -6.028711      -164.0496
  23   2.0000      -6.025267      -163.9558
  24   2.0000      -1.008419       -27.4405
  25   2.0000      -0.984966       -26.8023
  26   2.0000      -0.922108       -25.0918
  27   2.0000      -0.914991       -24.8982
  28   2.0000      -0.872444       -23.7404
  29   2.0000      -0.853809       -23.2333
  30   2.0000      -0.843216       -22.9451
  31   2.0000      -0.818763       -22.2797
  32   2.0000      -0.786563       -21.4035
  33   2.0000      -0.774151       -21.0657
  34   2.0000      -0.710063       -19.3218
  35   2.0000      -0.705145       -19.1880
  36   2.0000      -0.680419       -18.5152
  37   2.0000      -0.667560       -18.1652
  38   2.0000      -0.647798       -17.6275
  39   2.0000      -0.618978       -16.8432
  40   2.0000      -0.592848       -16.1322
  41   2.0000      -0.579297       -15.7635
  42   2.0000      -0.572550       -15.5799
  43   2.0000      -0.556809       -15.1515
  44   2.0000      -0.548323       -14.9206
  45   2.0000      -0.532739       -14.4966
  46   2.0000      -0.519020       -14.1232
  47   2.0000      -0.511484       -13.9182
  48   2.0000      -0.509357       -13.8603
  49   2.0000      -0.501568       -13.6484
  50   2.0000      -0.485605       -13.2140
  51   2.0000      -0.484628       -13.1874
  52   2.0000      -0.478061       -13.0087
  53   2.0000      -0.466926       -12.7057
  54   2.0000      -0.459485       -12.5032
  55   2.0000      -0.455057       -12.3827
  56   2.0000      -0.443755       -12.0752
  57   2.0000      -0.441330       -12.0092
  58   2.0000      -0.425528       -11.5792
  59   2.0000      -0.424406       -11.5487
  60   2.0000      -0.417729       -11.3670
  61   2.0000      -0.413704       -11.2574
  62   2.0000      -0.400681       -10.9031
  63   2.0000      -0.342497        -9.3198
  64   2.0000      -0.333743        -9.0816
  65   2.0000      -0.325005        -8.8438
  66   2.0000      -0.297128        -8.0853
  67   0.0000       0.028684         0.7805
  68   0.0000       0.070812         1.9269
  69   0.0000       0.115644         3.1468
  70   0.0000       0.119098         3.2408
  71   0.0000       0.128687         3.5017

MULLIKEN ATOMIC CHARGES
-----------------------
   0 S :    0.125983
   1 C :   -0.105390
   2 C :   -0.097845
   3 C :    0.013320
   4 C :   -0.154843
   5 H :    0.044142
   6 C :    0.122610
   7 H :   -0.008760
   8 H :    0.025097
   9 C :   -0.053418
  10 H :    0.033900
  11 H :    0.009816
  12 C :   -0.018819
  13 H :    0.022827
  14 H :    0.029123
  15 H :    0.013260
  16 S :    0.089396
  17 C :   -0.067073
  18 C :    0.015480
  19 C :   -0.036043
  20 C :   -0.155857
  21 H :   -0.029460
  22 C :    0.060186
  23 H :    0.018936
  24 H :    0.030609
  25 C :   -0.096228
  26 H :    0.036872
  27 H :    0.013334
  28 C :   -0.047630
  29 H :    0.048269
  30 H :    0.010849
  31 H :    0.045779
  32 H :    0.019558
  33 H :    0.042019
Sum of atomic charges:    0.0000000

LOEWDIN ATOMIC CHARGES
----------------------
   0 S :    0.427569
   1 C :   -0.186354
   2 C :   -0.057072
   3 C :   -0.055844
   4 C :   -0.204013
   5 H :    0.040826
   6 C :   -0.024075
   7 H :    0.019092
   8 H :    0.033383
   9 C :   -0.034443
  10 H :    0.028802
  11 H :    0.016268
  12 C :   -0.056536
  13 H :    0.019176
  14 H :    0.031263
  15 H :    0.014290
  16 S :    0.396850
  17 C :   -0.175211
  18 C :   -0.055495
  19 C :   -0.049115
  20 C :   -0.195704
  21 H :    0.010055
  22 C :   -0.042855
  23 H :    0.025093
  24 H :    0.037699
  25 C :   -0.050692
  26 H :    0.030716
  27 H :    0.019454
  28 C :   -0.071895
  29 H :    0.027216
  30 H :    0.018299
  31 H :    0.035157
  32 H :    0.009095
  33 H :    0.019000

  Mayer bond orders larger than 0.100000
B(  0-S ,  1-C ) :   1.1411 B(  0-S ,  4-C ) :   1.1716 B(  1-C ,  2-C ) :   1.5986
B(  1-C , 32-H ) :   0.9830 B(  2-C ,  3-C ) :   1.2557 B(  2-C ,  6-C ) :   1.0074
B(  3-C ,  4-C ) :   1.5479 B(  3-C ,  5-H ) :   0.9845 B(  4-C , 20-C ) :   1.0374
B(  6-C ,  7-H ) :   0.9350 B(  6-C ,  8-H ) :   0.9287 B(  6-C ,  9-C ) :   1.0818
B(  9-C , 10-H ) :   0.9556 B(  9-C , 11-H ) :   0.9514 B(  9-C , 12-C ) :   1.0830
B( 12-C , 13-H ) :   0.9739 B( 12-C , 14-H ) :   0.9728 B( 12-C , 15-H ) :   0.9758
B( 16-S , 17-C ) :   1.1589 B( 16-S , 20-C ) :   1.1341 B( 17-C , 18-C ) :   1.6085
B( 17-C , 33-H ) :   0.9727 B( 18-C , 19-C ) :   1.2063 B( 18-C , 21-H ) :   1.0154
B( 19-C , 20-C ) :   1.6082 B( 19-C , 22-C ) :   1.0426 B( 22-C , 23-H ) :   0.9412
B( 22-C , 24-H ) :   0.9302 B( 22-C , 25-C ) :   1.0798 B( 25-C , 26-H ) :   0.9522
B( 25-C , 27-H ) :   0.9468 B( 25-C , 28-C ) :   1.0846 B( 28-C , 29-H ) :   0.9683
B( 28-C , 30-H ) :   0.9713 B( 28-C , 31-H ) :   0.9713

Dispersion correction           -0.014127230
FINAL SINGLE POINT ENERGY     -1339.867539780648

DIPOLE MOMENT
-------------
                                X             Y             Z
Electronic contribution:     10.48756      -2.53080      23.70057
Nuclear contribution   :    -10.63475       2.51271     -24.14136
                        -----------------------------------------
Total Dipole Moment    :     -0.14719      -0.01809      -0.44079
                        -----------------------------------------
Magnitude (a.u.)       :      0.46507
Magnitude (Debye)      :      1.18211

Rotational constants in cm-1:     0.021398     0.007634     0.006186
Rotational constants in MHz :   641.499171   228.859528   185.446576

                             ****ORCA TERMINATED NORMALLY****
TOTAL RUN TIME: 0 days 0 hours 0 minutes 34 seconds 569 msec
