                         Program Version 4.2.1 -  RELEASE  -
|  1> ! wB97X-D3 SP def2-SVP
|  2> %pal
|  3> nprocs 16
|  4> end
|  5>
|  6> * xyz 0 1
|  7> S 	 52.2179 	 -0.532474 	 83.9878
|  8> C 	 50.5291 	 -0.481752 	 84.3732
|  9> C 	 49.9504 	 -1.67265 	 84.0591
| 10> C 	 50.8451 	 -2.58505 	 83.3944
| 11> C 	 52.104 	 -2.05801 	 83.3195
| 12> H 	 50.7481 	 -3.60942 	 83.0962
| 13> C 	 48.5964 	 -2.07523 	 84.4762
| 14> H 	 48.1949 	 -2.61131 	 83.6463
| 15> H 	 47.9309 	 -1.1837 	 84.5503
| 16> C 	 48.5436 	 -2.82329 	 85.7967
| 17> H 	 49.1808 	 -3.73521 	 85.7785
| 18> H 	 48.9661 	 -2.14484 	 86.5716
| 19> C 	 47.1318 	 -3.30228 	 86.062
| 20> H 	 46.925 	 -4.02457 	 85.3201
| 21> H 	 46.8372 	 -3.73569 	 86.9811
| 22> H 	 46.334 	 -2.52271 	 85.95
| 23> S 	 54.7559 	 -2.52023 	 83.496
| 24> C 	 55.6247 	 -3.40554 	 82.2744
| 25> C 	 54.7973 	 -3.7473 	 81.2387
| 26> C 	 53.4854 	 -3.3095 	 81.3856
| 27> C 	 53.2385 	 -2.6528 	 82.6442
| 28> H 	 55.3203 	 -4.23528 	 80.3906
| 29> C 	 52.4494 	 -3.43814 	 80.2496
| 30> H 	 51.455 	 -3.46769 	 80.7668
| 31> H 	 52.6255 	 -4.38709 	 79.8351
| 32> C 	 52.5849 	 -2.29822 	 79.1339
| 33> H 	 53.6361 	 -2.45393 	 78.9166
| 34> H 	 52.4467 	 -1.2333 	 79.5195
| 35> C 	 51.5842 	 -2.40344 	 77.917
| 36> H 	 50.6243 	 -2.90731 	 78.1767
| 37> H 	 52.0481 	 -2.98909 	 77.0307
| 38> H 	 51.3124 	 -1.37543 	 77.579
| 39> H 	 49.8763 	 0.24838 	 84.8847
| 40> H 	 56.6115 	 -3.79187 	 82.3945
| 41> *
| 42>
| 43>                          ****END OF INPUT****

CARTESIAN COORDINATES (ANGSTROEM)
---------------------------------
  S     52.217900   -0.532474   83.987800
  C     50.529100   -0.481752   84.373200
  C     49.950400   -1.672650   84.059100
  C     50.845100   -2.585050   83.394400
  C     52.104000   -2.058010   83.319500
  H     50.748100   -3.609420   83.096200
  C     48.596400   -2.075230   84.476200
  H     48.194900   -2.611310   83.646300
  H     47.930900   -1.183700   84.550300
  C     48.543600   -2.823290   85.796700
  H     49.180800   -3.735210   85.778500
  H     48.966100   -2.144840   86.571600
  C     47.131800   -3.302280   86.062000
  H     46.925000   -4.024570   85.320100
  H     46.837200   -3.735690   86.981100
  H     46.334000   -2.522710   85.950000
  S     54.755900   -2.520230   83.496000
  C     55.624700   -3.405540   82.274400
  C     54.797300   -3.747300   81.238700
  C     53.485400   -3.309500   81.385600
  C     53.238500   -2.652800   82.644200
  H     55.320300   -4.235280   80.390600
  C     52.449400   -3.438140   80.249600
  H     51.455000   -3.467690   80.766800
  H     52.625500   -4.387090   79.835100
  C     52.584900   -2.298220   79.133900
  H     53.636100   -2.453930   78.916600
  H     52.446700   -1.233300   79.519500
  C     51.584200   -2.403440   77.917000
  H     50.624300   -2.907310   78.176700
  H     52.048100   -2.989090   77.030700
  H     51.312400   -1.375430   77.579000
  H     49.876300    0.248380   84.884700
  H     56.611500   -3.791870   82.394500

 Total Charge           Charge          ....    0
 Multiplicity           Mult            ....    1
 Number of Electrons    NEL             ....  134
 Basis Dimension        Dim             ....  322

ORBITAL ENERGIES
----------------

  NO   OCC          E(Eh)            E(eV)
   0   2.0000     -88.967062     -2420.9168
   1   2.0000     -88.965618     -2420.8775
   2   2.0000     -10.330895      -281.1180
   3   2.0000     -10.322263      -280.8831
   4   2.0000     -10.312933      -280.6292
   5   2.0000     -10.308972      -280.5214
   6   2.0000     -10.308392      -280.5056
   7   2.0000     -10.296746      -280.1887
   8   2.0000     -10.294776      -280.1351
   9   2.0000     -10.293873      -280.1105
  10   2.0000     -10.293130      -280.0903
  11   2.0000     -10.292404      -280.0706
  12   2.0000     -10.291035      -280.0333
  13   2.0000     -10.288170      -279.9553
  14   2.0000     -10.286244      -279.9029
  15   2.0000     -10.272802      -279.5371
  16   2.0000      -8.083466      -219.9623
  17   2.0000      -8.080668      -219.8862
  18   2.0000      -6.041956      -164.4100
  19   2.0000      -6.038982      -164.3290
  20   2.0000      -6.037719      -164.2947
  21   2.0000      -6.034954      -164.2194
  22   2.0000      -6.034132      -164.1971
  23   2.0000      -6.031798      -164.1336
  24   2.0000      -1.019047       -27.7297
  25   2.0000      -0.990800       -26.9610
  26   2.0000      -0.922233       -25.0952
  27   2.0000      -0.894970       -24.3534
  28   2.0000      -0.876191       -23.8424
  29   2.0000      -0.852306       -23.1924
  30   2.0000      -0.843165       -22.9437
  31   2.0000      -0.818236       -22.2653
  32   2.0000      -0.782737       -21.2994
  33   2.0000      -0.768559       -20.9136
  34   2.0000      -0.709060       -19.2945
  35   2.0000      -0.703349       -19.1391
  36   2.0000      -0.692429       -18.8420
  37   2.0000      -0.660477       -17.9725
  38   2.0000      -0.641045       -17.4437
  39   2.0000      -0.620324       -16.8799
  40   2.0000      -0.589181       -16.0324
  41   2.0000      -0.576026       -15.6745
  42   2.0000      -0.563567       -15.3354
  43   2.0000      -0.553512       -15.0618
  44   2.0000      -0.527040       -14.3415
  45   2.0000      -0.523158       -14.2358
  46   2.0000      -0.516626       -14.0581
  47   2.0000      -0.509394       -13.8613
  48   2.0000      -0.506196       -13.7743
  49   2.0000      -0.504416       -13.7259
  50   2.0000      -0.493500       -13.4288
  51   2.0000      -0.482280       -13.1235
  52   2.0000      -0.470901       -12.8139
  53   2.0000      -0.462389       -12.5822
  54   2.0000      -0.459940       -12.5156
  55   2.0000      -0.447352       -12.1731
  56   2.0000      -0.440597       -11.9893
  57   2.0000      -0.436663       -11.8822
  58   2.0000      -0.428729       -11.6663
  59   2.0000      -0.426818       -11.6143
  60   2.0000      -0.423523       -11.5247
  61   2.0000      -0.415297       -11.3008
  62   2.0000      -0.409308       -11.1378
  63   2.0000      -0.353999        -9.6328
  64   2.0000      -0.333857        -9.0847
  65   2.0000      -0.330505        -8.9935
  66   2.0000      -0.287921        -7.8347
  67   0.0000       0.029001         0.7892
  68   0.0000       0.074654         2.0314
  69   0.0000       0.112009         3.0479
  70   0.0000       0.123149         3.3511
  71   0.0000       0.140780         3.8308

MULLIKEN ATOMIC CHARGES
-----------------------
   0 S :    0.128773
   1 C :   -0.107537
   2 C :   -0.099819
   3 C :    0.013211
   4 C :   -0.123098
   5 H :    0.012781
   6 C :    0.050640
   7 H :    0.012771
   8 H :    0.017248
   9 C :   -0.052251
  10 H :    0.036106
  11 H :    0.032146
  12 C :   -0.016610
  13 H :    0.015021
  14 H :    0.023692
  15 H :    0.019078
  16 S :    0.097355
  17 C :   -0.086986
  18 C :   -0.068552
  19 C :   -0.045697
  20 C :   -0.169329
  21 H :    0.036257
  22 C :    0.096578
  23 H :    0.019144
  24 H :    0.013151
  25 C :   -0.086477
  26 H :    0.029902
  27 H :    0.052922
  28 C :   -0.086208
  29 H :    0.043108
  30 H :    0.049644
  31 H :    0.044525
  32 H :    0.047119
  33 H :    0.051393
Sum of atomic charges:   -0.0000000

LOEWDIN ATOMIC CHARGES
----------------------
   0 S :    0.447784
   1 C :   -0.217379
   2 C :   -0.061722
   3 C :   -0.070389
   4 C :   -0.218111
   5 H :    0.030620
   6 C :   -0.035837
   7 H :    0.025531
   8 H :    0.032059
   9 C :   -0.036515
  10 H :    0.029950
  11 H :    0.027228
  12 C :   -0.067757
  13 H :    0.021570
  14 H :    0.020333
  15 H :    0.027084
  16 S :    0.417077
  17 C :   -0.187761
  18 C :   -0.084196
  19 C :   -0.058862
  20 C :   -0.197861
  21 H :    0.042137
  22 C :   -0.027620
  23 H :    0.028446
  24 H :    0.020825
  25 C :   -0.043812
  26 H :    0.022795
  27 H :    0.036352
  28 C :   -0.081890
  29 H :    0.028771
  30 H :    0.034709
  31 H :    0.030600
  32 H :    0.039832
  33 H :    0.026006

  Mayer bond orders larger than 0.100000
B(  0-S ,  1-C ) :   1.1176 B(  0-S ,  4-C ) :   1.1778 B(  1-C ,  2-C ) :   1.6340
B(  1-C , 32-H ) :   0.9615 B(  2-C ,  3-C ) :   1.2143 B(  2-C ,  6-C ) :   1.0406
B(  3-C ,  4-C ) :   1.5768 B(  3-C ,  5-H ) :   0.9987 B(  4-C , 20-C ) :   1.0257
B(  6-C ,  7-H ) :   0.9327 B(  6-C ,  8-H ) :   0.9335 B(  6-C ,  9-C ) :   1.0606
B(  9-C , 10-H ) :   0.9561 B(  9-C , 11-H ) :   0.9536 B(  9-C , 12-C ) :   1.0709
B( 12-C , 13-H ) :   0.9731 B( 12-C , 14-H ) :   0.9751 B( 12-C , 15-H ) :   0.9721
B( 16-S , 17-C ) :   1.1702 B( 16-S , 20-C ) :   1.1686 B( 17-C , 18-C ) :   1.5875
B( 17-C , 20-C ) :   0.1187 B( 17-C , 33-H ) :   0.9674 B( 18-C , 19-C ) :   1.2797
B( 18-C , 21-H ) :   0.9845 B( 19-C , 20-C ) :   1.5293 B( 19-C , 22-C ) :   1.0361
B( 22-C , 23-H ) :   0.9326 B( 22-C , 24-H ) :   0.9353 B( 22-C , 25-C ) :   1.0436
B( 25-C , 26-H ) :   0.9628 B( 25-C , 27-H ) :   0.9662 B( 25-C , 28-C ) :   1.0531
B( 28-C , 29-H ) :   0.9775 B( 28-C , 30-H ) :   0.9769 B( 28-C , 31-H ) :   0.9808

Dispersion correction           -0.013604564
FINAL SINGLE POINT ENERGY     -1339.867436122971

DIPOLE MOMENT
-------------
                                X             Y             Z
Electronic contribution:     22.56680       7.38025       9.40666
Nuclear contribution   :    -22.91534      -7.73190      -9.63634
                        -----------------------------------------
Total Dipole Moment    :     -0.34854      -0.35165      -0.22968
                        -----------------------------------------
Magnitude (a.u.)       :      0.54579
Magnitude (Debye)      :      1.38729

Rotational constants in cm-1:     0.018425     0.007881     0.006548
Rotational constants in MHz :   552.373506   236.275698   196.312409

                             ****ORCA TERMINATED NORMALLY****
TOTAL RUN TIME: 0 days 0 hours 0 minutes 29 seconds 167 msec
