                         Program Version 4.2.1 -  RELEASE  -
|  1> ! wB97X-D3 SP def2-SVP
|  2> %pal
|  3> nprocs 16
|  4> end
|  5>
|  6> * xyz 0 1
|  7> S 	 -11.6654 	 41.5959 	 32.7419
|  8> C 	 -13.0109 	 41.7761 	 33.8449
|  9> C 	 -12.6316 	 41.2217 	 35.0584
| 10> C 	 -11.2687 	 40.6705 	 35.0436
| 11> C 	 -10.6623 	 40.6778 	 33.8039
| 12> H 	 -10.6677 	 40.1796 	 35.784
| 13> C 	 -13.5547 	 41.2688 	 36.2282
| 14> H 	 -13.411 	 42.2616 	 36.6022
| 15> H 	 -13.1193 	 40.6979 	 37.0365
| 16> C 	 -15.0842 	 41.0615 	 36.0943
| 17> H 	 -15.5083 	 41.969 	 35.8244
| 18> H 	 -15.1854 	 40.2558 	 35.3889
| 19> C 	 -15.7548 	 40.6003 	 37.4494
| 20> H 	 -16.7518 	 40.2603 	 37.3184
| 21> H 	 -15.1882 	 39.6985 	 37.8799
| 22> H 	 -15.6745 	 41.4717 	 38.0556
| 23> S 	 -7.98938 	 41.3571 	 33.4885
| 24> C 	 -6.83574 	 40.12 	 33.1288
| 25> C 	 -7.37871 	 38.9229 	 32.8851
| 26> C 	 -8.82418 	 38.9445 	 33.108
| 27> C 	 -9.34477 	 40.2083 	 33.4533
| 28> H 	 -6.69593 	 38.1368 	 32.8062
| 29> C 	 -9.67453 	 37.6728 	 33.0084
| 30> H 	 -9.15783 	 36.9305 	 32.4283
| 31> H 	 -10.611 	 37.8454 	 32.4076
| 32> C 	 -9.91841 	 36.928 	 34.278
| 33> H 	 -10.7562 	 36.2381 	 34.099
| 34> H 	 -10.3642 	 37.5914 	 34.999
| 35> C 	 -8.60261 	 36.2232 	 34.68
| 36> H 	 -8.22699 	 35.6662 	 33.8112
| 37> H 	 -8.81004 	 35.4037 	 35.4221
| 38> H 	 -7.88609 	 36.919 	 35.0902
| 39> H 	 -14.0039 	 42.1328 	 33.5585
| 40> H 	 -5.78861 	 40.2723 	 33.2305
| 41> *
| 42>
| 43>                          ****END OF INPUT****

CARTESIAN COORDINATES (ANGSTROEM)
---------------------------------
  S    -11.665400   41.595900   32.741900
  C    -13.010900   41.776100   33.844900
  C    -12.631600   41.221700   35.058400
  C    -11.268700   40.670500   35.043600
  C    -10.662300   40.677800   33.803900
  H    -10.667700   40.179600   35.784000
  C    -13.554700   41.268800   36.228200
  H    -13.411000   42.261600   36.602200
  H    -13.119300   40.697900   37.036500
  C    -15.084200   41.061500   36.094300
  H    -15.508300   41.969000   35.824400
  H    -15.185400   40.255800   35.388900
  C    -15.754800   40.600300   37.449400
  H    -16.751800   40.260300   37.318400
  H    -15.188200   39.698500   37.879900
  H    -15.674500   41.471700   38.055600
  S     -7.989380   41.357100   33.488500
  C     -6.835740   40.120000   33.128800
  C     -7.378710   38.922900   32.885100
  C     -8.824180   38.944500   33.108000
  C     -9.344770   40.208300   33.453300
  H     -6.695930   38.136800   32.806200
  C     -9.674530   37.672800   33.008400
  H     -9.157830   36.930500   32.428300
  H    -10.611000   37.845400   32.407600
  C     -9.918410   36.928000   34.278000
  H    -10.756200   36.238100   34.099000
  H    -10.364200   37.591400   34.999000
  C     -8.602610   36.223200   34.680000
  H     -8.226990   35.666200   33.811200
  H     -8.810040   35.403700   35.422100
  H     -7.886090   36.919000   35.090200
  H    -14.003900   42.132800   33.558500
  H     -5.788610   40.272300   33.230500

 Total Charge           Charge          ....    0
 Multiplicity           Mult            ....    1
 Number of Electrons    NEL             ....  134
 Basis Dimension        Dim             ....  322

ORBITAL ENERGIES
----------------

  NO   OCC          E(Eh)            E(eV)
   0   2.0000     -88.961051     -2420.7533
   1   2.0000     -88.958679     -2420.6887
   2   2.0000     -10.330135      -281.0973
   3   2.0000     -10.327394      -281.0227
   4   2.0000     -10.315130      -280.6890
   5   2.0000     -10.313248      -280.6378
   6   2.0000     -10.311607      -280.5931
   7   2.0000     -10.307620      -280.4846
   8   2.0000     -10.297606      -280.2121
   9   2.0000     -10.289496      -279.9914
  10   2.0000     -10.286870      -279.9200
  11   2.0000     -10.285083      -279.8713
  12   2.0000     -10.284620      -279.8587
  13   2.0000     -10.284294      -279.8499
  14   2.0000     -10.281900      -279.7847
  15   2.0000     -10.280639      -279.7504
  16   2.0000      -8.076276      -219.7667
  17   2.0000      -8.074086      -219.7070
  18   2.0000      -6.034810      -164.2155
  19   2.0000      -6.032580      -164.1548
  20   2.0000      -6.030663      -164.1027
  21   2.0000      -6.028234      -164.0366
  22   2.0000      -6.027020      -164.0035
  23   2.0000      -6.025052      -163.9500
  24   2.0000      -1.006250       -27.3815
  25   2.0000      -0.984941       -26.8016
  26   2.0000      -0.913728       -24.8638
  27   2.0000      -0.913362       -24.8538
  28   2.0000      -0.875131       -23.8135
  29   2.0000      -0.844729       -22.9863
  30   2.0000      -0.840456       -22.8700
  31   2.0000      -0.821357       -22.3503
  32   2.0000      -0.781376       -21.2623
  33   2.0000      -0.769973       -20.9520
  34   2.0000      -0.712944       -19.4002
  35   2.0000      -0.709264       -19.3001
  36   2.0000      -0.689832       -18.7713
  37   2.0000      -0.659525       -17.9466
  38   2.0000      -0.648013       -17.6333
  39   2.0000      -0.606946       -16.5158
  40   2.0000      -0.596626       -16.2350
  41   2.0000      -0.581412       -15.8210
  42   2.0000      -0.572283       -15.5726
  43   2.0000      -0.552118       -15.0239
  44   2.0000      -0.545937       -14.8557
  45   2.0000      -0.530783       -14.4433
  46   2.0000      -0.521026       -14.1778
  47   2.0000      -0.516817       -14.0633
  48   2.0000      -0.507761       -13.8169
  49   2.0000      -0.492432       -13.3997
  50   2.0000      -0.486268       -13.2320
  51   2.0000      -0.482862       -13.1393
  52   2.0000      -0.470628       -12.8064
  53   2.0000      -0.467635       -12.7250
  54   2.0000      -0.463570       -12.6144
  55   2.0000      -0.442347       -12.0369
  56   2.0000      -0.438521       -11.9328
  57   2.0000      -0.436709       -11.8834
  58   2.0000      -0.431762       -11.7488
  59   2.0000      -0.427796       -11.6409
  60   2.0000      -0.419899       -11.4260
  61   2.0000      -0.411502       -11.1975
  62   2.0000      -0.407320       -11.0838
  63   2.0000      -0.338218        -9.2034
  64   2.0000      -0.324849        -8.8396
  65   2.0000      -0.320480        -8.7207
  66   2.0000      -0.311263        -8.4699
  67   0.0000       0.048042         1.3073
  68   0.0000       0.048795         1.3278
  69   0.0000       0.118066         3.2128
  70   0.0000       0.123514         3.3610
  71   0.0000       0.132820         3.6142

MULLIKEN ATOMIC CHARGES
-----------------------
   0 S :    0.104365
   1 C :   -0.133164
   2 C :   -0.098639
   3 C :    0.058998
   4 C :   -0.175998
   5 H :    0.008730
   6 C :    0.071895
   7 H :    0.028591
   8 H :    0.003036
   9 C :   -0.055554
  10 H :    0.025123
  11 H :    0.034360
  12 C :   -0.060525
  13 H :    0.035872
  14 H :    0.042887
  15 H :    0.034507
  16 S :    0.103876
  17 C :   -0.081897
  18 C :    0.001121
  19 C :   -0.031324
  20 C :   -0.173769
  21 H :    0.002138
  22 C :    0.048714
  23 H :   -0.000982
  24 H :    0.042992
  25 C :   -0.036293
  26 H :    0.023857
  27 H :    0.013914
  28 C :   -0.067279
  29 H :    0.027056
  30 H :    0.037574
  31 H :    0.052053
  32 H :    0.065270
  33 H :    0.048493
Sum of atomic charges:   -0.0000000

LOEWDIN ATOMIC CHARGES
----------------------
   0 S :    0.413530
   1 C :   -0.202546
   2 C :   -0.060505
   3 C :   -0.061126
   4 C :   -0.209576
   5 H :    0.029333
   6 C :   -0.041867
   7 H :    0.035326
   8 H :    0.025705
   9 C :   -0.027229
  10 H :    0.014675
  11 H :    0.021902
  12 C :   -0.057076
  13 H :    0.021227
  14 H :    0.034343
  15 H :    0.021377
  16 S :    0.398559
  17 C :   -0.172396
  18 C :   -0.073346
  19 C :   -0.037289
  20 C :   -0.201228
  21 H :    0.026278
  22 C :   -0.040465
  23 H :    0.022553
  24 H :    0.037660
  25 C :   -0.041437
  26 H :    0.027689
  27 H :    0.017899
  28 C :   -0.066010
  29 H :    0.025198
  30 H :    0.031076
  31 H :    0.026823
  32 H :    0.035563
  33 H :    0.025380

  Mayer bond orders larger than 0.100000
B(  0-S ,  1-C ) :   1.1417 B(  0-S ,  4-C ) :   1.1613 B(  1-C ,  2-C ) :   1.5887
B(  1-C , 32-H ) :   0.9729 B(  2-C ,  3-C ) :   1.2148 B(  2-C ,  6-C ) :   1.0352
B(  3-C ,  4-C ) :   1.5913 B(  3-C ,  5-H ) :   0.9927 B(  4-C , 20-C ) :   1.0297
B(  6-C ,  7-H ) :   0.9217 B(  6-C ,  8-H ) :   0.9411 B(  6-C ,  9-C ) :   1.0505
B(  9-C , 10-H ) :   0.9519 B(  9-C , 11-H ) :   0.9683 B(  9-C , 12-C ) :   1.0825
B( 12-C , 13-H ) :   0.9764 B( 12-C , 14-H ) :   0.9777 B( 12-C , 15-H ) :   0.9803
B( 16-S , 17-C ) :   1.1609 B( 16-S , 20-C ) :   1.1292 B( 17-C , 18-C ) :   1.6472
B( 17-C , 33-H ) :   0.9630 B( 18-C , 19-C ) :   1.2067 B( 18-C , 21-H ) :   0.9966
B( 19-C , 20-C ) :   1.6216 B( 19-C , 22-C ) :   1.0462 B( 22-C , 23-H ) :   0.9367
B( 22-C , 24-H ) :   0.9323 B( 22-C , 25-C ) :   1.0772 B( 25-C , 26-H ) :   0.9499
B( 25-C , 27-H ) :   0.9529 B( 25-C , 28-C ) :   1.0668 B( 28-C , 29-H ) :   0.9737
B( 28-C , 30-H ) :   0.9737 B( 28-C , 31-H ) :   0.9755

Dispersion correction           -0.014273735
FINAL SINGLE POINT ENERGY     -1339.861200545332

DIPOLE MOMENT
-------------
                                X             Y             Z
Electronic contribution:     14.62830      16.98325     -15.66727
Nuclear contribution   :    -14.83075     -17.44579      16.15344
                        -----------------------------------------
Total Dipole Moment    :     -0.20245      -0.46255       0.48617
                        -----------------------------------------
Magnitude (a.u.)       :      0.70093
Magnitude (Debye)      :      1.78162

Rotational constants in cm-1:     0.021168     0.007549     0.006236
Rotational constants in MHz :   634.585829   226.313431   186.937188

                             ****ORCA TERMINATED NORMALLY****
TOTAL RUN TIME: 0 days 0 hours 0 minutes 34 seconds 50 msec
