                         Program Version 4.2.1 -  RELEASE  -
|  1> ! wB97X-D3 SP def2-SVP
|  2> %pal
|  3> nprocs 16
|  4> end
|  5>
|  6> * xyz 0 1
|  7> S 	 -96.9729 	 38.4811 	 121.456
|  8> C 	 -96.6549 	 37.6657 	 123.025
|  9> C 	 -96.83 	 38.5742 	 124.089
| 10> C 	 -97.5685 	 39.7508 	 123.684
| 11> C 	 -97.8526 	 39.7268 	 122.325
| 12> H 	 -97.9485 	 40.5837 	 124.28
| 13> C 	 -96.3307 	 38.157 	 125.42
| 14> H 	 -95.5801 	 37.3262 	 125.324
| 15> H 	 -97.1636 	 37.7509 	 125.932
| 16> C 	 -95.7549 	 39.3424 	 126.177
| 17> H 	 -94.968 	 39.8609 	 125.572
| 18> H 	 -96.5432 	 40.0728 	 126.281
| 19> C 	 -95.1915 	 39.0021 	 127.568
| 20> H 	 -94.8219 	 39.8655 	 128.117
| 21> H 	 -95.8827 	 38.535 	 128.285
| 22> H 	 -94.3926 	 38.3344 	 127.387
| 23> S 	 -97.2974 	 41.8659 	 120.709
| 24> C 	 -98.5191 	 43.0912 	 120.404
| 25> C 	 -99.6282 	 42.8664 	 121.175
| 26> C 	 -99.6034 	 41.5789 	 121.732
| 27> C 	 -98.3829 	 40.8761 	 121.6
| 28> H 	 -100.306 	 43.679 	 121.306
| 29> C 	 -100.769 	 41.1507 	 122.648
| 30> H 	 -100.817 	 41.9026 	 123.502
| 31> H 	 -100.492 	 40.278 	 123.184
| 32> C 	 -102.148 	 40.8342 	 121.985
| 33> H 	 -102.044 	 40.4308 	 120.953
| 34> H 	 -102.687 	 41.7441 	 121.779
| 35> C 	 -103.031 	 39.7445 	 122.628
| 36> H 	 -103.376 	 40.0898 	 123.647
| 37> H 	 -102.496 	 38.8368 	 122.808
| 38> H 	 -103.889 	 39.4809 	 121.972
| 39> H 	 -95.8962 	 36.8525 	 123.108
| 40> H 	 -98.561 	 43.9349 	 119.753
| 41> *
| 42>
| 43>                          ****END OF INPUT****

CARTESIAN COORDINATES (ANGSTROEM)
---------------------------------
  S    -96.972900   38.481100  121.456000
  C    -96.654900   37.665700  123.025000
  C    -96.830000   38.574200  124.089000
  C    -97.568500   39.750800  123.684000
  C    -97.852600   39.726800  122.325000
  H    -97.948500   40.583700  124.280000
  C    -96.330700   38.157000  125.420000
  H    -95.580100   37.326200  125.324000
  H    -97.163600   37.750900  125.932000
  C    -95.754900   39.342400  126.177000
  H    -94.968000   39.860900  125.572000
  H    -96.543200   40.072800  126.281000
  C    -95.191500   39.002100  127.568000
  H    -94.821900   39.865500  128.117000
  H    -95.882700   38.535000  128.285000
  H    -94.392600   38.334400  127.387000
  S    -97.297400   41.865900  120.709000
  C    -98.519100   43.091200  120.404000
  C    -99.628200   42.866400  121.175000
  C    -99.603400   41.578900  121.732000
  C    -98.382900   40.876100  121.600000
  H    -100.306000   43.679000  121.306000
  C    -100.769000   41.150700  122.648000
  H    -100.817000   41.902600  123.502000
  H    -100.492000   40.278000  123.184000
  C    -102.148000   40.834200  121.985000
  H    -102.044000   40.430800  120.953000
  H    -102.687000   41.744100  121.779000
  C    -103.031000   39.744500  122.628000
  H    -103.376000   40.089800  123.647000
  H    -102.496000   38.836800  122.808000
  H    -103.889000   39.480900  121.972000
  H    -95.896200   36.852500  123.108000
  H    -98.561000   43.934900  119.753000

 Total Charge           Charge          ....    0
 Multiplicity           Mult            ....    1
 Number of Electrons    NEL             ....  134
 Basis Dimension        Dim             ....  322

ORBITAL ENERGIES
----------------

  NO   OCC          E(Eh)            E(eV)
   0   2.0000     -88.967186     -2420.9202
   1   2.0000     -88.966224     -2420.8940
   2   2.0000     -10.333387      -281.1858
   3   2.0000     -10.325431      -280.9693
   4   2.0000     -10.318841      -280.7899
   5   2.0000     -10.312334      -280.6129
   6   2.0000     -10.308833      -280.5176
   7   2.0000     -10.304806      -280.4080
   8   2.0000     -10.303285      -280.3666
   9   2.0000     -10.292335      -280.0687
  10   2.0000     -10.292197      -280.0649
  11   2.0000     -10.290247      -280.0118
  12   2.0000     -10.286707      -279.9155
  13   2.0000     -10.285165      -279.8736
  14   2.0000     -10.280411      -279.7442
  15   2.0000     -10.277390      -279.6620
  16   2.0000      -8.081212      -219.9010
  17   2.0000      -8.081163      -219.8996
  18   2.0000      -6.039671      -164.3478
  19   2.0000      -6.039621      -164.3464
  20   2.0000      -6.036103      -164.2507
  21   2.0000      -6.035587      -164.2367
  22   2.0000      -6.031956      -164.1379
  23   2.0000      -6.031812      -164.1340
  24   2.0000      -1.008210       -27.4348
  25   2.0000      -0.983072       -26.7508
  26   2.0000      -0.919074       -25.0093
  27   2.0000      -0.896593       -24.3975
  28   2.0000      -0.872109       -23.7313
  29   2.0000      -0.847633       -23.0653
  30   2.0000      -0.846250       -23.0276
  31   2.0000      -0.819650       -22.3038
  32   2.0000      -0.781807       -21.2741
  33   2.0000      -0.765817       -20.8390
  34   2.0000      -0.714480       -19.4420
  35   2.0000      -0.695584       -18.9278
  36   2.0000      -0.689253       -18.7555
  37   2.0000      -0.655854       -17.8467
  38   2.0000      -0.642656       -17.4876
  39   2.0000      -0.619529       -16.8583
  40   2.0000      -0.590909       -16.0795
  41   2.0000      -0.574039       -15.6204
  42   2.0000      -0.569063       -15.4850
  43   2.0000      -0.548038       -14.9129
  44   2.0000      -0.529762       -14.4156
  45   2.0000      -0.521165       -14.1816
  46   2.0000      -0.517712       -14.0877
  47   2.0000      -0.516053       -14.0425
  48   2.0000      -0.502044       -13.6613
  49   2.0000      -0.497617       -13.5409
  50   2.0000      -0.485979       -13.2242
  51   2.0000      -0.476869       -12.9763
  52   2.0000      -0.475294       -12.9334
  53   2.0000      -0.473946       -12.8967
  54   2.0000      -0.456844       -12.4314
  55   2.0000      -0.452490       -12.3129
  56   2.0000      -0.441574       -12.0158
  57   2.0000      -0.438138       -11.9224
  58   2.0000      -0.429378       -11.6840
  59   2.0000      -0.424845       -11.5606
  60   2.0000      -0.423038       -11.5114
  61   2.0000      -0.418073       -11.3763
  62   2.0000      -0.400512       -10.8985
  63   2.0000      -0.342145        -9.3102
  64   2.0000      -0.328548        -8.9402
  65   2.0000      -0.324464        -8.8291
  66   2.0000      -0.297671        -8.1000
  67   0.0000       0.024369         0.6631
  68   0.0000       0.059183         1.6104
  69   0.0000       0.099095         2.6965
  70   0.0000       0.115253         3.1362
  71   0.0000       0.133300         3.6273

MULLIKEN ATOMIC CHARGES
-----------------------
   0 S :    0.099138
   1 C :   -0.113509
   2 C :   -0.120747
   3 C :    0.046839
   4 C :   -0.163878
   5 H :    0.031388
   6 C :    0.094840
   7 H :    0.023600
   8 H :    0.033548
   9 C :   -0.123876
  10 H :    0.042336
  11 H :    0.026216
  12 C :   -0.019862
  13 H :    0.033204
  14 H :    0.029654
  15 H :    0.020679
  16 S :    0.117921
  17 C :   -0.082150
  18 C :   -0.039060
  19 C :   -0.054303
  20 C :   -0.136809
  21 H :    0.019318
  22 C :    0.067928
  23 H :    0.039380
  24 H :   -0.002055
  25 C :   -0.071763
  26 H :    0.031823
  27 H :    0.022833
  28 C :   -0.070228
  29 H :    0.031298
  30 H :    0.033121
  31 H :    0.043739
  32 H :    0.066189
  33 H :    0.043249
Sum of atomic charges:   -0.0000000

LOEWDIN ATOMIC CHARGES
----------------------
   0 S :    0.387371
   1 C :   -0.198996
   2 C :   -0.050715
   3 C :   -0.055803
   4 C :   -0.189005
   5 H :    0.037580
   6 C :   -0.030752
   7 H :    0.033325
   8 H :    0.031358
   9 C :   -0.042143
  10 H :    0.032009
  11 H :    0.018858
  12 C :   -0.064537
  13 H :    0.027961
  14 H :    0.026674
  15 H :    0.019301
  16 S :    0.423020
  17 C :   -0.183414
  18 C :   -0.069147
  19 C :   -0.058300
  20 C :   -0.218976
  21 H :    0.031793
  22 C :   -0.036678
  23 H :    0.037607
  24 H :    0.018390
  25 C :   -0.048565
  26 H :    0.031538
  27 H :    0.018240
  28 C :   -0.067351
  29 H :    0.024973
  30 H :    0.021038
  31 H :    0.032595
  32 H :    0.032336
  33 H :    0.028413

  Mayer bond orders larger than 0.100000
B(  0-S ,  1-C ) :   1.1197 B(  0-S ,  4-C ) :   1.1627 B(  1-C ,  2-C ) :   1.6159
B(  1-C , 32-H ) :   0.9595 B(  2-C ,  3-C ) :   1.2134 B(  2-C ,  6-C ) :   1.0332
B(  3-C ,  4-C ) :   1.5640 B(  3-C ,  5-H ) :   0.9925 B(  4-C , 20-C ) :   1.0259
B(  6-C ,  7-H ) :   0.9412 B(  6-C ,  8-H ) :   0.9284 B(  6-C ,  9-C ) :   1.0592
B(  9-C , 10-H ) :   0.9600 B(  9-C , 11-H ) :   0.9502 B(  9-C , 12-C ) :   1.0871
B( 12-C , 13-H ) :   0.9735 B( 12-C , 14-H ) :   0.9740 B( 12-C , 15-H ) :   0.9746
B( 16-S , 17-C ) :   1.1609 B( 16-S , 20-C ) :   1.1541 B( 17-C , 18-C ) :   1.6002
B( 17-C , 20-C ) :   0.1040 B( 17-C , 33-H ) :   0.9668 B( 18-C , 19-C ) :   1.2648
B( 18-C , 21-H ) :   0.9971 B( 19-C , 20-C ) :   1.5691 B( 19-C , 22-C ) :   1.0494
B( 22-C , 23-H ) :   0.9403 B( 22-C , 24-H ) :   0.9349 B( 22-C , 25-C ) :   1.0352
B( 25-C , 26-H ) :   0.9597 B( 25-C , 27-H ) :   0.9563 B( 25-C , 28-C ) :   1.0896
B( 28-C , 29-H ) :   0.9761 B( 28-C , 30-H ) :   0.9736 B( 28-C , 31-H ) :   0.9754

Dispersion correction           -0.013474795
FINAL SINGLE POINT ENERGY     -1339.854510815605

DIPOLE MOMENT
-------------
                                X             Y             Z
Electronic contribution:     10.73524       3.27651     -22.42634
Nuclear contribution   :    -10.78841      -3.04751      23.09178
                        -----------------------------------------
Total Dipole Moment    :     -0.05317       0.22900       0.66543
                        -----------------------------------------
Magnitude (a.u.)       :      0.70574
Magnitude (Debye)      :      1.79385

Rotational constants in cm-1:     0.017036     0.007809     0.006829
Rotational constants in MHz :   510.739173   234.115914   204.717465

                             ****ORCA TERMINATED NORMALLY****
TOTAL RUN TIME: 0 days 0 hours 0 minutes 32 seconds 789 msec
