                         Program Version 4.2.1 -  RELEASE  -
|  1> ! wB97X-D3 SP def2-SVP
|  2> %pal
|  3> nprocs 16
|  4> end
|  5>
|  6> * xyz 0 1
|  7> S 	 -32.9874 	 45.0187 	 99.6801
|  8> C 	 -34.3943 	 43.8857 	 99.5921
|  9> C 	 -35.2053 	 44.2478 	 98.5586
| 10> C 	 -34.8143 	 45.5496 	 98.1055
| 11> C 	 -33.6873 	 46.1855 	 98.6721
| 12> H 	 -35.3135 	 46.0935 	 97.2907
| 13> C 	 -36.4443 	 43.5817 	 98.1156
| 14> H 	 -37.2227 	 44.377 	 98.0615
| 15> H 	 -36.7872 	 42.76 	 98.7302
| 16> C 	 -36.3757 	 43.1947 	 96.6462
| 17> H 	 -35.9598 	 44.0453 	 96.0697
| 18> H 	 -35.618 	 42.3859 	 96.5551
| 19> C 	 -37.7568 	 42.692 	 96.2166
| 20> H 	 -37.6784 	 42.4186 	 95.1127
| 21> H 	 -37.9619 	 41.7323 	 96.7307
| 22> H 	 -38.5589 	 43.3489 	 96.4788
| 23> S 	 -33.0304 	 48.3637 	 100.049
| 24> C 	 -32.6481 	 49.9409 	 99.3501
| 25> C 	 -32.6751 	 49.7887 	 98.0077
| 26> C 	 -33.0285 	 48.5126 	 97.5205
| 27> C 	 -33.307 	 47.5506 	 98.5169
| 28> H 	 -32.373 	 50.6752 	 97.3828
| 29> C 	 -33.0748 	 48.2516 	 96.0979
| 30> H 	 -32.6848 	 49.1175 	 95.5712
| 31> H 	 -34.0965 	 48.0383 	 95.7844
| 32> C 	 -31.9708 	 47.2375 	 95.573
| 33> H 	 -32.1721 	 47.1178 	 94.5031
| 34> H 	 -32.0359 	 46.2579 	 96.1013
| 35> C 	 -30.566 	 47.8287 	 95.7102
| 36> H 	 -30.3271 	 47.8614 	 96.7601
| 37> H 	 -30.5055 	 48.8555 	 95.2257
| 38> H 	 -29.8665 	 47.1322 	 95.2903
| 39> H 	 -34.4979 	 43.0138 	 100.218
| 40> H 	 -32.3834 	 50.8944 	 99.7829
| 41> *
| 42>
| 43>                          ****END OF INPUT****

CARTESIAN COORDINATES (ANGSTROEM)
---------------------------------
  S    -32.987400   45.018700   99.680100
  C    -34.394300   43.885700   99.592100
  C    -35.205300   44.247800   98.558600
  C    -34.814300   45.549600   98.105500
  C    -33.687300   46.185500   98.672100
  H    -35.313500   46.093500   97.290700
  C    -36.444300   43.581700   98.115600
  H    -37.222700   44.377000   98.061500
  H    -36.787200   42.760000   98.730200
  C    -36.375700   43.194700   96.646200
  H    -35.959800   44.045300   96.069700
  H    -35.618000   42.385900   96.555100
  C    -37.756800   42.692000   96.216600
  H    -37.678400   42.418600   95.112700
  H    -37.961900   41.732300   96.730700
  H    -38.558900   43.348900   96.478800
  S    -33.030400   48.363700  100.049000
  C    -32.648100   49.940900   99.350100
  C    -32.675100   49.788700   98.007700
  C    -33.028500   48.512600   97.520500
  C    -33.307000   47.550600   98.516900
  H    -32.373000   50.675200   97.382800
  C    -33.074800   48.251600   96.097900
  H    -32.684800   49.117500   95.571200
  H    -34.096500   48.038300   95.784400
  C    -31.970800   47.237500   95.573000
  H    -32.172100   47.117800   94.503100
  H    -32.035900   46.257900   96.101300
  C    -30.566000   47.828700   95.710200
  H    -30.327100   47.861400   96.760100
  H    -30.505500   48.855500   95.225700
  H    -29.866500   47.132200   95.290300
  H    -34.497900   43.013800  100.218000
  H    -32.383400   50.894400   99.782900

 Total Charge           Charge          ....    0
 Multiplicity           Mult            ....    1
 Number of Electrons    NEL             ....  134
 Basis Dimension        Dim             ....  322

ORBITAL ENERGIES
----------------

  NO   OCC          E(Eh)            E(eV)
   0   2.0000     -88.964484     -2420.8467
   1   2.0000     -88.962080     -2420.7813
   2   2.0000     -10.331707      -281.1400
   3   2.0000     -10.331441      -281.1328
   4   2.0000     -10.317269      -280.7472
   5   2.0000     -10.316074      -280.7146
   6   2.0000     -10.301906      -280.3291
   7   2.0000     -10.301709      -280.3238
   8   2.0000     -10.295942      -280.1668
   9   2.0000     -10.292747      -280.0799
  10   2.0000     -10.292087      -280.0619
  11   2.0000     -10.290813      -280.0273
  12   2.0000     -10.287610      -279.9401
  13   2.0000     -10.285990      -279.8960
  14   2.0000     -10.284850      -279.8650
  15   2.0000     -10.275911      -279.6218
  16   2.0000      -8.079352      -219.8503
  17   2.0000      -8.076481      -219.7722
  18   2.0000      -6.037967      -164.3014
  19   2.0000      -6.035135      -164.2244
  20   2.0000      -6.033810      -164.1883
  21   2.0000      -6.030755      -164.1052
  22   2.0000      -6.029970      -164.0838
  23   2.0000      -6.027319      -164.0117
  24   2.0000      -1.011979       -27.5374
  25   2.0000      -0.988581       -26.9007
  26   2.0000      -0.925382       -25.1809
  27   2.0000      -0.909679       -24.7536
  28   2.0000      -0.879690       -23.9376
  29   2.0000      -0.846728       -23.0406
  30   2.0000      -0.844239       -22.9729
  31   2.0000      -0.813959       -22.1489
  32   2.0000      -0.781732       -21.2720
  33   2.0000      -0.770111       -20.9558
  34   2.0000      -0.717516       -19.5246
  35   2.0000      -0.697938       -18.9919
  36   2.0000      -0.686139       -18.6708
  37   2.0000      -0.662236       -18.0203
  38   2.0000      -0.643786       -17.5183
  39   2.0000      -0.621190       -16.9034
  40   2.0000      -0.590533       -16.0692
  41   2.0000      -0.578171       -15.7328
  42   2.0000      -0.568070       -15.4580
  43   2.0000      -0.560353       -15.2480
  44   2.0000      -0.546711       -14.8768
  45   2.0000      -0.524784       -14.2801
  46   2.0000      -0.521341       -14.1864
  47   2.0000      -0.516664       -14.0592
  48   2.0000      -0.506423       -13.7805
  49   2.0000      -0.503921       -13.7124
  50   2.0000      -0.488940       -13.3047
  51   2.0000      -0.479330       -13.0432
  52   2.0000      -0.470272       -12.7968
  53   2.0000      -0.466780       -12.7017
  54   2.0000      -0.461923       -12.5696
  55   2.0000      -0.451679       -12.2908
  56   2.0000      -0.440471       -11.9858
  57   2.0000      -0.433864       -11.8060
  58   2.0000      -0.430583       -11.7168
  59   2.0000      -0.422536       -11.4978
  60   2.0000      -0.415012       -11.2930
  61   2.0000      -0.411934       -11.2093
  62   2.0000      -0.406980       -11.0745
  63   2.0000      -0.349442        -9.5088
  64   2.0000      -0.330051        -8.9811
  65   2.0000      -0.322061        -8.7637
  66   2.0000      -0.291110        -7.9215
  67   0.0000       0.020810         0.5663
  68   0.0000       0.071594         1.9482
  69   0.0000       0.111924         3.0456
  70   0.0000       0.120942         3.2910
  71   0.0000       0.128888         3.5072

MULLIKEN ATOMIC CHARGES
-----------------------
   0 S :    0.106927
   1 C :   -0.157499
   2 C :   -0.008562
   3 C :   -0.001679
   4 C :   -0.137995
   5 H :    0.008388
   6 C :    0.061627
   7 H :    0.032452
   8 H :    0.022671
   9 C :   -0.123773
  10 H :    0.039512
  11 H :    0.030745
  12 C :   -0.033529
  13 H :    0.049132
  14 H :    0.028816
  15 H :    0.032805
  16 S :    0.090708
  17 C :   -0.071662
  18 C :   -0.067314
  19 C :   -0.029529
  20 C :   -0.145584
  21 H :    0.035903
  22 C :    0.058887
  23 H :    0.000652
  24 H :    0.043841
  25 C :   -0.097063
  26 H :    0.030823
  27 H :    0.047530
  28 C :   -0.060711
  29 H :    0.041663
  30 H :    0.039511
  31 H :    0.034116
  32 H :    0.046615
  33 H :    0.051574
Sum of atomic charges:   -0.0000000

LOEWDIN ATOMIC CHARGES
----------------------
   0 S :    0.403243
   1 C :   -0.173707
   2 C :   -0.064288
   3 C :   -0.066329
   4 C :   -0.224087
   5 H :    0.024688
   6 C :   -0.032243
   7 H :    0.038057
   8 H :    0.028759
   9 C :   -0.043471
  10 H :    0.025332
  11 H :    0.025368
  12 C :   -0.067981
  13 H :    0.036989
  14 H :    0.029140
  15 H :    0.020431
  16 S :    0.408385
  17 C :   -0.182650
  18 C :   -0.084006
  19 C :   -0.064147
  20 C :   -0.190629
  21 H :    0.040976
  22 C :   -0.038417
  23 H :    0.027940
  24 H :    0.031548
  25 C :   -0.034878
  26 H :    0.021695
  27 H :    0.026062
  28 C :   -0.067170
  29 H :    0.025689
  30 H :    0.030314
  31 H :    0.025377
  32 H :    0.027193
  33 H :    0.036818

  Mayer bond orders larger than 0.100000
B(  0-S ,  1-C ) :   1.1292 B(  0-S ,  4-C ) :   1.1501 B(  1-C ,  2-C ) :   1.5766
B(  1-C , 32-H ) :   0.9760 B(  2-C ,  3-C ) :   1.2400 B(  2-C ,  6-C ) :   1.0380
B(  3-C ,  4-C ) :   1.5480 B(  3-C ,  5-H ) :   0.9860 B(  4-C , 20-C ) :   1.0826
B(  6-C ,  7-H ) :   0.9396 B(  6-C ,  8-H ) :   0.9476 B(  6-C ,  9-C ) :   1.0423
B(  9-C , 10-H ) :   0.9601 B(  9-C , 11-H ) :   0.9509 B(  9-C , 12-C ) :   1.0784
B( 12-C , 13-H ) :   0.9723 B( 12-C , 14-H ) :   0.9694 B( 12-C , 15-H ) :   0.9752
B( 16-S , 17-C ) :   1.1529 B( 16-S , 20-C ) :   1.1406 B( 17-C , 18-C ) :   1.6054
B( 17-C , 20-C ) :   0.1093 B( 17-C , 33-H ) :   0.9657 B( 18-C , 19-C ) :   1.2754
B( 18-C , 21-H ) :   0.9761 B( 19-C , 20-C ) :   1.5194 B( 19-C , 22-C ) :   1.0692
B( 22-C , 23-H ) :   0.9292 B( 22-C , 24-H ) :   0.9322 B( 22-C , 25-C ) :   1.0549
B( 25-C , 26-H ) :   0.9599 B( 25-C , 27-H ) :   0.9575 B( 25-C , 28-C ) :   1.0758
B( 28-C , 29-H ) :   0.9754 B( 28-C , 30-H ) :   0.9713 B( 28-C , 31-H ) :   0.9719

Dispersion correction           -0.014231313
FINAL SINGLE POINT ENERGY     -1339.860830183982

DIPOLE MOMENT
-------------
                                X             Y             Z
Electronic contribution:      7.58887       8.17998      22.74028
Nuclear contribution   :     -7.88918      -8.24023     -23.30565
                        -----------------------------------------
Total Dipole Moment    :     -0.30031      -0.06025      -0.56537
                        -----------------------------------------
Magnitude (a.u.)       :      0.64301
Magnitude (Debye)      :      1.63440

Rotational constants in cm-1:     0.020522     0.008081     0.006886
Rotational constants in MHz :   615.239313   242.275310   206.448105

                             ****ORCA TERMINATED NORMALLY****
TOTAL RUN TIME: 0 days 0 hours 0 minutes 30 seconds 319 msec
