                         Program Version 4.2.1 -  RELEASE  -
|  1> ! wB97X-D3 SP def2-SVP
|  2> %pal
|  3> nprocs 16
|  4> end
|  5>
|  6> * xyz 0 1
|  7> S 	 -8.04427 	 9.04959 	 84.1317
|  8> C 	 -7.93951 	 8.06432 	 85.5495
|  9> C 	 -9.20334 	 7.77074 	 86.0066
| 10> C 	 -10.2592 	 8.46091 	 85.2883
| 11> C 	 -9.77601 	 9.09 	 84.149
| 12> H 	 -11.3526 	 8.49169 	 85.4949
| 13> C 	 -9.54457 	 6.91166 	 87.2299
| 14> H 	 -10.3951 	 7.3227 	 87.7603
| 15> H 	 -8.76158 	 7.17397 	 87.9066
| 16> C 	 -9.79832 	 5.36165 	 86.9548
| 17> H 	 -10.8081 	 5.14263 	 86.5091
| 18> H 	 -9.06014 	 5.01894 	 86.237
| 19> C 	 -9.59174 	 4.48226 	 88.1635
| 20> H 	 -9.90671 	 3.46733 	 87.9926
| 21> H 	 -8.57521 	 4.49426 	 88.5657
| 22> H 	 -10.2145 	 4.81243 	 88.9971
| 23> S 	 -9.93397 	 11.4907 	 82.8544
| 24> C 	 -11.1517 	 11.8533 	 81.7468
| 25> C 	 -12.1001 	 10.7855 	 81.6305
| 26> C 	 -11.7563 	 9.67933 	 82.4697
| 27> C 	 -10.5517 	 9.93158 	 83.2115
| 28> H 	 -13.0602 	 11.0027 	 81.183
| 29> C 	 -12.5294 	 8.42405 	 82.4993
| 30> H 	 -13.5154 	 8.77077 	 82.7598
| 31> H 	 -12.2672 	 7.8013 	 83.3643
| 32> C 	 -12.5189 	 7.53949 	 81.2327
| 33> H 	 -12.9369 	 8.1335 	 80.4541
| 34> H 	 -13.2247 	 6.76411 	 81.4369
| 35> C 	 -11.1408 	 6.96589 	 80.8128
| 36> H 	 -11.1109 	 6.49696 	 79.8597
| 37> H 	 -10.7643 	 6.28464 	 81.5313
| 38> H 	 -10.3333 	 7.73449 	 80.8087
| 39> H 	 -6.95215 	 7.77858 	 85.8434
| 40> H 	 -11.28 	 12.7418 	 81.0897
| 41> *
| 42>
| 43>                          ****END OF INPUT****

CARTESIAN COORDINATES (ANGSTROEM)
---------------------------------
  S     -8.044270    9.049590   84.131700
  C     -7.939510    8.064320   85.549500
  C     -9.203340    7.770740   86.006600
  C    -10.259200    8.460910   85.288300
  C     -9.776010    9.090000   84.149000
  H    -11.352600    8.491690   85.494900
  C     -9.544570    6.911660   87.229900
  H    -10.395100    7.322700   87.760300
  H     -8.761580    7.173970   87.906600
  C     -9.798320    5.361650   86.954800
  H    -10.808100    5.142630   86.509100
  H     -9.060140    5.018940   86.237000
  C     -9.591740    4.482260   88.163500
  H     -9.906710    3.467330   87.992600
  H     -8.575210    4.494260   88.565700
  H    -10.214500    4.812430   88.997100
  S     -9.933970   11.490700   82.854400
  C    -11.151700   11.853300   81.746800
  C    -12.100100   10.785500   81.630500
  C    -11.756300    9.679330   82.469700
  C    -10.551700    9.931580   83.211500
  H    -13.060200   11.002700   81.183000
  C    -12.529400    8.424050   82.499300
  H    -13.515400    8.770770   82.759800
  H    -12.267200    7.801300   83.364300
  C    -12.518900    7.539490   81.232700
  H    -12.936900    8.133500   80.454100
  H    -13.224700    6.764110   81.436900
  C    -11.140800    6.965890   80.812800
  H    -11.110900    6.496960   79.859700
  H    -10.764300    6.284640   81.531300
  H    -10.333300    7.734490   80.808700
  H     -6.952150    7.778580   85.843400
  H    -11.280000   12.741800   81.089700

 Total Charge           Charge          ....    0
 Multiplicity           Mult            ....    1
 Number of Electrons    NEL             ....  134
 Basis Dimension        Dim             ....  322

ORBITAL ENERGIES
----------------

  NO   OCC          E(Eh)            E(eV)
   0   2.0000     -88.969891     -2420.9938
   1   2.0000     -88.962832     -2420.8017
   2   2.0000     -10.329367      -281.0764
   3   2.0000     -10.326305      -280.9931
   4   2.0000     -10.319081      -280.7965
   5   2.0000     -10.313844      -280.6540
   6   2.0000     -10.305788      -280.4347
   7   2.0000     -10.304962      -280.4123
   8   2.0000     -10.297134      -280.1993
   9   2.0000     -10.295350      -280.1507
  10   2.0000     -10.292875      -280.0834
  11   2.0000     -10.292005      -280.0597
  12   2.0000     -10.285324      -279.8779
  13   2.0000     -10.282038      -279.7885
  14   2.0000     -10.274956      -279.5958
  15   2.0000     -10.268889      -279.4307
  16   2.0000      -8.085755      -220.0246
  17   2.0000      -8.078563      -219.8289
  18   2.0000      -6.043966      -164.4647
  19   2.0000      -6.039802      -164.3514
  20   2.0000      -6.037067      -164.2769
  21   2.0000      -6.037015      -164.2755
  22   2.0000      -6.032806      -164.1610
  23   2.0000      -6.029455      -164.0698
  24   2.0000      -1.009091       -27.4588
  25   2.0000      -0.987302       -26.8658
  26   2.0000      -0.910370       -24.7724
  27   2.0000      -0.903309       -24.5803
  28   2.0000      -0.867197       -23.5976
  29   2.0000      -0.850790       -23.1512
  30   2.0000      -0.846242       -23.0274
  31   2.0000      -0.812014       -22.0960
  32   2.0000      -0.783416       -21.3178
  33   2.0000      -0.770517       -20.9668
  34   2.0000      -0.709346       -19.3023
  35   2.0000      -0.701001       -19.0752
  36   2.0000      -0.690115       -18.7790
  37   2.0000      -0.658708       -17.9244
  38   2.0000      -0.645521       -17.5655
  39   2.0000      -0.615490       -16.7483
  40   2.0000      -0.592194       -16.1144
  41   2.0000      -0.567224       -15.4350
  42   2.0000      -0.553398       -15.0587
  43   2.0000      -0.548868       -14.9354
  44   2.0000      -0.538059       -14.6413
  45   2.0000      -0.527011       -14.3407
  46   2.0000      -0.517674       -14.0866
  47   2.0000      -0.515158       -14.0182
  48   2.0000      -0.500629       -13.6228
  49   2.0000      -0.496414       -13.5081
  50   2.0000      -0.491537       -13.3754
  51   2.0000      -0.482195       -13.1212
  52   2.0000      -0.469092       -12.7646
  53   2.0000      -0.466544       -12.6953
  54   2.0000      -0.459642       -12.5075
  55   2.0000      -0.447166       -12.1680
  56   2.0000      -0.444902       -12.1064
  57   2.0000      -0.439045       -11.9470
  58   2.0000      -0.434835       -11.8325
  59   2.0000      -0.421176       -11.4608
  60   2.0000      -0.418988       -11.4012
  61   2.0000      -0.415116       -11.2959
  62   2.0000      -0.411011       -11.1842
  63   2.0000      -0.346957        -9.4412
  64   2.0000      -0.330522        -8.9940
  65   2.0000      -0.326802        -8.8927
  66   2.0000      -0.289316        -7.8727
  67   0.0000       0.031109         0.8465
  68   0.0000       0.074666         2.0318
  69   0.0000       0.112308         3.0561
  70   0.0000       0.122011         3.3201
  71   0.0000       0.132495         3.6054

MULLIKEN ATOMIC CHARGES
-----------------------
   0 S :    0.097316
   1 C :   -0.128491
   2 C :   -0.080325
   3 C :    0.015466
   4 C :   -0.144181
   5 H :    0.036201
   6 C :    0.069242
   7 H :    0.018266
   8 H :    0.015931
   9 C :   -0.057495
  10 H :    0.039703
  11 H :    0.030359
  12 C :   -0.049194
  13 H :    0.030864
  14 H :    0.032694
  15 H :    0.019052
  16 S :    0.142547
  17 C :   -0.117382
  18 C :   -0.061139
  19 C :   -0.047701
  20 C :   -0.166395
  21 H :    0.028778
  22 C :    0.058724
  23 H :    0.019979
  24 H :    0.008888
  25 C :   -0.025664
  26 H :    0.017233
  27 H :    0.022768
  28 C :   -0.034962
  29 H :    0.031064
  30 H :    0.019612
  31 H :    0.035868
  32 H :    0.048376
  33 H :    0.073998
Sum of atomic charges:   -0.0000000

LOEWDIN ATOMIC CHARGES
----------------------
   0 S :    0.415032
   1 C :   -0.198418
   2 C :   -0.061291
   3 C :   -0.069608
   4 C :   -0.201104
   5 H :    0.039185
   6 C :   -0.033081
   7 H :    0.028854
   8 H :    0.027958
   9 C :   -0.038685
  10 H :    0.031419
  11 H :    0.023803
  12 C :   -0.069021
  13 H :    0.024890
  14 H :    0.025441
  15 H :    0.022016
  16 S :    0.464406
  17 C :   -0.220927
  18 C :   -0.079122
  19 C :   -0.053755
  20 C :   -0.223449
  21 H :    0.031428
  22 C :   -0.038063
  23 H :    0.032828
  24 H :    0.027654
  25 C :   -0.027505
  26 H :    0.017832
  27 H :    0.022523
  28 C :   -0.063513
  29 H :    0.023018
  30 H :    0.021236
  31 H :    0.032896
  32 H :    0.024285
  33 H :    0.040840

  Mayer bond orders larger than 0.100000
B(  0-S ,  1-C ) :   1.1432 B(  0-S ,  4-C ) :   1.1670 B(  1-C ,  2-C ) :   1.5848
B(  1-C , 32-H ) :   0.9838 B(  2-C ,  3-C ) :   1.2388 B(  2-C ,  6-C ) :   1.0208
B(  3-C ,  4-C ) :   1.5690 B(  3-C ,  5-H ) :   0.9836 B(  4-C , 20-C ) :   1.0293
B(  6-C ,  7-H ) :   0.9414 B(  6-C ,  8-H ) :   0.9490 B(  6-C ,  9-C ) :   1.0366
B(  9-C , 10-H ) :   0.9560 B(  9-C , 11-H ) :   0.9620 B(  9-C , 12-C ) :   1.0884
B( 12-C , 13-H ) :   0.9725 B( 12-C , 14-H ) :   0.9758 B( 12-C , 15-H ) :   0.9730
B( 16-S , 17-C ) :   1.2042 B( 16-S , 20-C ) :   1.1784 B( 17-C , 18-C ) :   1.5470
B( 17-C , 20-C ) :   0.1049 B( 17-C , 33-H ) :   0.9616 B( 18-C , 19-C ) :   1.3009
B( 18-C , 21-H ) :   0.9843 B( 19-C , 20-C ) :   1.5112 B( 19-C , 22-C ) :   1.0552
B( 22-C , 23-H ) :   0.9223 B( 22-C , 24-H ) :   0.9288 B( 22-C , 25-C ) :   1.0776
B( 25-C , 26-H ) :   0.9562 B( 25-C , 27-H ) :   0.9535 B( 25-C , 28-C ) :   1.0692
B( 28-C , 29-H ) :   0.9759 B( 28-C , 30-H ) :   0.9743 B( 28-C , 31-H ) :   0.9749

Dispersion correction           -0.014282524
FINAL SINGLE POINT ENERGY     -1339.882266833339

DIPOLE MOMENT
-------------
                                X             Y             Z
Electronic contribution:     10.31478      24.94694      -6.29810
Nuclear contribution   :    -10.70656     -25.27410       6.49463
                        -----------------------------------------
Total Dipole Moment    :     -0.39178      -0.32716       0.19654
                        -----------------------------------------
Magnitude (a.u.)       :      0.54695
Magnitude (Debye)      :      1.39023

Rotational constants in cm-1:     0.020641     0.008051     0.006612
Rotational constants in MHz :   618.794469   241.357756   198.218321

                             ****ORCA TERMINATED NORMALLY****
TOTAL RUN TIME: 0 days 0 hours 0 minutes 34 seconds 737 msec
