                         Program Version 4.2.1 -  RELEASE  -
|  1> ! wB97X-D3 SP def2-SVP
|  2> %pal
|  3> nprocs 16
|  4> end
|  5>
|  6> * xyz 0 1
|  7> S 	 3.14121 	 -3.03106 	 74.2679
|  8> C 	 2.84504 	 -4.41474 	 75.2727
|  9> C 	 2.51703 	 -4.14037 	 76.5781
| 10> C 	 2.48092 	 -2.69591 	 76.7604
| 11> C 	 2.77502 	 -1.93326 	 75.6453
| 12> H 	 2.4446 	 -2.18058 	 77.6537
| 13> C 	 2.29958 	 -5.10098 	 77.7706
| 14> H 	 3.12198 	 -5.16867 	 78.489
| 15> H 	 2.30225 	 -6.0714 	 77.4308
| 16> C 	 0.900676 	 -4.95188 	 78.4311
| 17> H 	 0.71945 	 -5.65463 	 79.2694
| 18> H 	 0.87442 	 -4.01685 	 79.0258
| 19> C 	 -0.319745 	 -5.13193 	 77.502
| 20> H 	 -0.200944 	 -4.41394 	 76.6165
| 21> H 	 -0.369632 	 -6.14627 	 77.1513
| 22> H 	 -1.26391 	 -5.0106 	 77.9574
| 23> S 	 4.54278 	 -0.120015 	 74.7769
| 24> C 	 4.2926 	 1.62364 	 75.1803
| 25> C 	 3.09973 	 1.79292 	 75.8537
| 26> C 	 2.45099 	 0.592206 	 76.1828
| 27> C 	 3.082 	 -0.532271 	 75.6068
| 28> H 	 2.74866 	 2.77119 	 76.1864
| 29> C 	 1.12842 	 0.62108 	 77.0235
| 30> H 	 0.846992 	 1.63377 	 77.3685
| 31> H 	 1.26425 	 -0.0435837 	 77.9446
| 32> C 	 -0.150466 	 0.246393 	 76.1871
| 33> H 	 -0.984344 	 0.317149 	 76.8433
| 34> H 	 -0.232177 	 -0.823643 	 75.9283
| 35> C 	 -0.232961 	 1.14428 	 74.9593
| 36> H 	 0.556932 	 0.722857 	 74.2052
| 37> H 	 -0.0570526 	 2.17565 	 75.191
| 38> H 	 -1.1894 	 1.00592 	 74.4482
| 39> H 	 2.86053 	 -5.39266 	 74.8215
| 40> H 	 4.97024 	 2.4194 	 74.9162
| 41> *
| 42>
| 43>                          ****END OF INPUT****

CARTESIAN COORDINATES (ANGSTROEM)
---------------------------------
  S      3.141210   -3.031060   74.267900
  C      2.845040   -4.414740   75.272700
  C      2.517030   -4.140370   76.578100
  C      2.480920   -2.695910   76.760400
  C      2.775020   -1.933260   75.645300
  H      2.444600   -2.180580   77.653700
  C      2.299580   -5.100980   77.770600
  H      3.121980   -5.168670   78.489000
  H      2.302250   -6.071400   77.430800
  C      0.900676   -4.951880   78.431100
  H      0.719450   -5.654630   79.269400
  H      0.874420   -4.016850   79.025800
  C     -0.319745   -5.131930   77.502000
  H     -0.200944   -4.413940   76.616500
  H     -0.369632   -6.146270   77.151300
  H     -1.263910   -5.010600   77.957400
  S      4.542780   -0.120015   74.776900
  C      4.292600    1.623640   75.180300
  C      3.099730    1.792920   75.853700
  C      2.450990    0.592206   76.182800
  C      3.082000   -0.532271   75.606800
  H      2.748660    2.771190   76.186400
  C      1.128420    0.621080   77.023500
  H      0.846992    1.633770   77.368500
  H      1.264250   -0.043584   77.944600
  C     -0.150466    0.246393   76.187100
  H     -0.984344    0.317149   76.843300
  H     -0.232177   -0.823643   75.928300
  C     -0.232961    1.144280   74.959300
  H      0.556932    0.722857   74.205200
  H     -0.057053    2.175650   75.191000
  H     -1.189400    1.005920   74.448200
  H      2.860530   -5.392660   74.821500
  H      4.970240    2.419400   74.916200

 Total Charge           Charge          ....    0
 Multiplicity           Mult            ....    1
 Number of Electrons    NEL             ....  134
 Basis Dimension        Dim             ....  322

ORBITAL ENERGIES
----------------

  NO   OCC          E(Eh)            E(eV)
   0   2.0000     -88.968546     -2420.9572
   1   2.0000     -88.966391     -2420.8986
   2   2.0000     -10.330584      -281.1095
   3   2.0000     -10.327898      -281.0364
   4   2.0000     -10.319665      -280.8124
   5   2.0000     -10.315952      -280.7113
   6   2.0000     -10.308739      -280.5151
   7   2.0000     -10.305747      -280.4336
   8   2.0000     -10.304548      -280.4010
   9   2.0000     -10.294709      -280.1333
  10   2.0000     -10.294494      -280.1274
  11   2.0000     -10.292258      -280.0666
  12   2.0000     -10.290648      -280.0228
  13   2.0000     -10.281492      -279.7736
  14   2.0000     -10.278031      -279.6794
  15   2.0000     -10.277272      -279.6588
  16   2.0000      -8.082621      -219.9393
  17   2.0000      -8.080887      -219.8921
  18   2.0000      -6.041163      -164.3884
  19   2.0000      -6.039501      -164.3432
  20   2.0000      -6.037212      -164.2809
  21   2.0000      -6.035514      -164.2347
  22   2.0000      -6.033381      -164.1767
  23   2.0000      -6.031466      -164.1245
  24   2.0000      -1.004932       -27.3456
  25   2.0000      -0.979531       -26.6544
  26   2.0000      -0.907346       -24.6901
  27   2.0000      -0.900540       -24.5049
  28   2.0000      -0.872862       -23.7518
  29   2.0000      -0.847747       -23.0684
  30   2.0000      -0.839657       -22.8482
  31   2.0000      -0.811787       -22.0898
  32   2.0000      -0.784198       -21.3391
  33   2.0000      -0.768937       -20.9238
  34   2.0000      -0.709801       -19.3147
  35   2.0000      -0.697766       -18.9872
  36   2.0000      -0.685645       -18.6573
  37   2.0000      -0.666386       -18.1333
  38   2.0000      -0.646966       -17.6048
  39   2.0000      -0.622085       -16.9278
  40   2.0000      -0.589388       -16.0381
  41   2.0000      -0.564928       -15.3725
  42   2.0000      -0.553312       -15.0564
  43   2.0000      -0.548696       -14.9308
  44   2.0000      -0.540366       -14.7041
  45   2.0000      -0.536757       -14.6059
  46   2.0000      -0.512829       -13.9548
  47   2.0000      -0.506108       -13.7719
  48   2.0000      -0.498254       -13.5582
  49   2.0000      -0.493975       -13.4417
  50   2.0000      -0.487520       -13.2661
  51   2.0000      -0.473273       -12.8784
  52   2.0000      -0.471677       -12.8350
  53   2.0000      -0.469284       -12.7699
  54   2.0000      -0.458048       -12.4641
  55   2.0000      -0.445305       -12.1174
  56   2.0000      -0.443270       -12.0620
  57   2.0000      -0.434083       -11.8120
  58   2.0000      -0.429654       -11.6915
  59   2.0000      -0.424227       -11.5438
  60   2.0000      -0.421523       -11.4702
  61   2.0000      -0.409456       -11.1419
  62   2.0000      -0.408898       -11.1267
  63   2.0000      -0.357760        -9.7352
  64   2.0000      -0.334543        -9.1034
  65   2.0000      -0.330095        -8.9823
  66   2.0000      -0.283971        -7.7272
  67   0.0000       0.023017         0.6263
  68   0.0000       0.069120         1.8808
  69   0.0000       0.104777         2.8511
  70   0.0000       0.122253         3.3267
  71   0.0000       0.129713         3.5297

MULLIKEN ATOMIC CHARGES
-----------------------
   0 S :    0.094898
   1 C :   -0.124322
   2 C :   -0.081912
   3 C :    0.047153
   4 C :   -0.141825
   5 H :   -0.015457
   6 C :    0.140788
   7 H :    0.043953
   8 H :   -0.016153
   9 C :   -0.119135
  10 H :    0.025144
  11 H :    0.027898
  12 C :   -0.046576
  13 H :    0.057597
  14 H :    0.021800
  15 H :    0.026124
  16 S :    0.105303
  17 C :   -0.100868
  18 C :   -0.018487
  19 C :   -0.040157
  20 C :   -0.151865
  21 H :    0.019906
  22 C :    0.021342
  23 H :    0.024921
  24 H :    0.049267
  25 C :   -0.061604
  26 H :    0.014487
  27 H :    0.034723
  28 C :   -0.067028
  29 H :    0.062285
  30 H :    0.027546
  31 H :    0.036296
  32 H :    0.047718
  33 H :    0.056240
Sum of atomic charges:   -0.0000000

LOEWDIN ATOMIC CHARGES
----------------------
   0 S :    0.381971
   1 C :   -0.189555
   2 C :   -0.059620
   3 C :   -0.047863
   4 C :   -0.178151
   5 H :    0.017271
   6 C :   -0.024834
   7 H :    0.039380
   8 H :    0.018079
   9 C :   -0.049188
  10 H :    0.026001
  11 H :    0.020503
  12 C :   -0.066112
  13 H :    0.036440
  14 H :    0.022191
  15 H :    0.021173
  16 S :    0.401288
  17 C :   -0.173142
  18 C :   -0.066633
  19 C :   -0.061890
  20 C :   -0.202415
  21 H :    0.033472
  22 C :   -0.031528
  23 H :    0.029929
  24 H :    0.035480
  25 C :   -0.045058
  26 H :    0.014924
  27 H :    0.025948
  28 C :   -0.069144
  29 H :    0.044534
  30 H :    0.017540
  31 H :    0.026135
  32 H :    0.024917
  33 H :    0.027957

  Mayer bond orders larger than 0.100000
B(  0-S ,  1-C ) :   1.1409 B(  0-S ,  4-C ) :   1.1167 B(  1-C ,  2-C ) :   1.6362
B(  1-C , 32-H ) :   0.9636 B(  2-C ,  3-C ) :   1.2033 B(  2-C ,  6-C ) :   1.0203
B(  3-C ,  4-C ) :   1.6059 B(  3-C ,  5-H ) :   0.9978 B(  4-C , 20-C ) :   1.0758
B(  6-C ,  7-H ) :   0.9424 B(  6-C ,  8-H ) :   0.9297 B(  6-C ,  9-C ) :   1.0578
B(  9-C , 10-H ) :   0.9562 B(  9-C , 11-H ) :   0.9588 B(  9-C , 12-C ) :   1.0713
B( 12-C , 13-H ) :   0.9735 B( 12-C , 14-H ) :   0.9733 B( 12-C , 15-H ) :   0.9739
B( 16-S , 17-C ) :   1.1376 B( 16-S , 20-C ) :   1.1560 B( 17-C , 18-C ) :   1.5934
B( 17-C , 20-C ) :   0.1098 B( 17-C , 33-H ) :   0.9717 B( 18-C , 19-C ) :   1.2752
B( 18-C , 21-H ) :   0.9829 B( 19-C , 20-C ) :   1.5523 B( 19-C , 22-C ) :   1.0285
B( 22-C , 23-H ) :   0.9459 B( 22-C , 24-H ) :   0.9400 B( 22-C , 25-C ) :   1.0606
B( 25-C , 26-H ) :   0.9592 B( 25-C , 27-H ) :   0.9537 B( 25-C , 28-C ) :   1.0710
B( 28-C , 29-H ) :   0.9680 B( 28-C , 30-H ) :   0.9780 B( 28-C , 31-H ) :   0.9726

Dispersion correction           -0.015391875
FINAL SINGLE POINT ENERGY     -1339.872298694520

DIPOLE MOMENT
-------------
                                X             Y             Z
Electronic contribution:     22.34547       4.05933     -13.61293
Nuclear contribution   :    -22.68166      -4.13781      14.15898
                        -----------------------------------------
Total Dipole Moment    :     -0.33619      -0.07848       0.54605
                        -----------------------------------------
Magnitude (a.u.)       :      0.64603
Magnitude (Debye)      :      1.64207

Rotational constants in cm-1:     0.019767     0.009354     0.007426
Rotational constants in MHz :   592.609879   280.423111   222.633127

                             ****ORCA TERMINATED NORMALLY****
TOTAL RUN TIME: 0 days 0 hours 0 minutes 35 seconds 712 msec
