                         Program Version 4.2.1 -  RELEASE  -
|  1> ! wB97X-D3 SP def2-SVP
|  2> %pal
|  3> nprocs 16
|  4> end
|  5>
|  6> * xyz 0 1
|  7> S 	 -36.72 	 32.4713 	 44.4315
|  8> C 	 -36.3409 	 32.0939 	 46.1362
|  9> C 	 -35.2863 	 32.9192 	 46.5676
| 10> C 	 -34.614 	 33.5617 	 45.469
| 11> C 	 -35.1166 	 33.2142 	 44.266
| 12> H 	 -33.7288 	 34.2107 	 45.4914
| 13> C 	 -34.8177 	 33.0097 	 48.0205
| 14> H 	 -35.4324 	 32.4448 	 48.7796
| 15> H 	 -34.9377 	 34.0371 	 48.3479
| 16> C 	 -33.3678 	 32.5995 	 48.2984
| 17> H 	 -32.6865 	 33.336 	 47.9005
| 18> H 	 -33.3487 	 32.601 	 49.3721
| 19> C 	 -32.9918 	 31.1844 	 47.8485
| 20> H 	 -33.5907 	 30.4457 	 48.3684
| 21> H 	 -32.9468 	 31.13 	 46.7065
| 22> H 	 -31.9192 	 31.0451 	 48.0478
| 23> S 	 -35.6321 	 34.8566 	 42.2016
| 24> C 	 -34.5188 	 35.0328 	 40.9694
| 25> C 	 -33.3071 	 34.3575 	 41.2214
| 26> C 	 -33.3916 	 33.491 	 42.3475
| 27> C 	 -34.6217 	 33.668 	 42.9899
| 28> H 	 -32.5875 	 34.4939 	 40.4455
| 29> C 	 -32.3525 	 32.5397 	 42.8025
| 30> H 	 -32.7141 	 31.5859 	 42.3207
| 31> H 	 -32.3472 	 32.2361 	 43.8892
| 32> C 	 -30.9349 	 32.8731 	 42.4701
| 33> H 	 -30.8131 	 33.0132 	 41.4384
| 34> H 	 -30.399 	 32.0262 	 42.7321
| 35> C 	 -30.4484 	 34.031 	 43.232
| 36> H 	 -30.9521 	 34.9023 	 42.9431
| 37> H 	 -29.3687 	 34.1366 	 43.1308
| 38> H 	 -30.4759 	 34.0166 	 44.3354
| 39> H 	 -37.0393 	 31.509 	 46.7594
| 40> H 	 -34.7733 	 35.654 	 40.1156
| 41> *
| 42>
| 43>                          ****END OF INPUT****

CARTESIAN COORDINATES (ANGSTROEM)
---------------------------------
  S    -36.720000   32.471300   44.431500
  C    -36.340900   32.093900   46.136200
  C    -35.286300   32.919200   46.567600
  C    -34.614000   33.561700   45.469000
  C    -35.116600   33.214200   44.266000
  H    -33.728800   34.210700   45.491400
  C    -34.817700   33.009700   48.020500
  H    -35.432400   32.444800   48.779600
  H    -34.937700   34.037100   48.347900
  C    -33.367800   32.599500   48.298400
  H    -32.686500   33.336000   47.900500
  H    -33.348700   32.601000   49.372100
  C    -32.991800   31.184400   47.848500
  H    -33.590700   30.445700   48.368400
  H    -32.946800   31.130000   46.706500
  H    -31.919200   31.045100   48.047800
  S    -35.632100   34.856600   42.201600
  C    -34.518800   35.032800   40.969400
  C    -33.307100   34.357500   41.221400
  C    -33.391600   33.491000   42.347500
  C    -34.621700   33.668000   42.989900
  H    -32.587500   34.493900   40.445500
  C    -32.352500   32.539700   42.802500
  H    -32.714100   31.585900   42.320700
  H    -32.347200   32.236100   43.889200
  C    -30.934900   32.873100   42.470100
  H    -30.813100   33.013200   41.438400
  H    -30.399000   32.026200   42.732100
  C    -30.448400   34.031000   43.232000
  H    -30.952100   34.902300   42.943100
  H    -29.368700   34.136600   43.130800
  H    -30.475900   34.016600   44.335400
  H    -37.039300   31.509000   46.759400
  H    -34.773300   35.654000   40.115600

 Total Charge           Charge          ....    0
 Multiplicity           Mult            ....    1
 Number of Electrons    NEL             ....  134
 Basis Dimension        Dim             ....  322

ORBITAL ENERGIES
----------------

  NO   OCC          E(Eh)            E(eV)
   0   2.0000     -88.962639     -2420.7965
   1   2.0000     -88.958787     -2420.6917
   2   2.0000     -10.322525      -280.8902
   3   2.0000     -10.318864      -280.7906
   4   2.0000     -10.316889      -280.7368
   5   2.0000     -10.312786      -280.6252
   6   2.0000     -10.306789      -280.4620
   7   2.0000     -10.306287      -280.4483
   8   2.0000     -10.294278      -280.1215
   9   2.0000     -10.294102      -280.1168
  10   2.0000     -10.292845      -280.0826
  11   2.0000     -10.291701      -280.0514
  12   2.0000     -10.282724      -279.8071
  13   2.0000     -10.280986      -279.7598
  14   2.0000     -10.271284      -279.4958
  15   2.0000     -10.268792      -279.4280
  16   2.0000      -8.079258      -219.8478
  17   2.0000      -8.073166      -219.6820
  18   2.0000      -6.037330      -164.2841
  19   2.0000      -6.033414      -164.1776
  20   2.0000      -6.031693      -164.1307
  21   2.0000      -6.030462      -164.0972
  22   2.0000      -6.028122      -164.0335
  23   2.0000      -6.023515      -163.9082
  24   2.0000      -1.009608       -27.4728
  25   2.0000      -0.981833       -26.7170
  26   2.0000      -0.927240       -25.2315
  27   2.0000      -0.909356       -24.7448
  28   2.0000      -0.868218       -23.6254
  29   2.0000      -0.858238       -23.3538
  30   2.0000      -0.839719       -22.8499
  31   2.0000      -0.811296       -22.0765
  32   2.0000      -0.788194       -21.4478
  33   2.0000      -0.772177       -21.0120
  34   2.0000      -0.712459       -19.3870
  35   2.0000      -0.695578       -18.9276
  36   2.0000      -0.687585       -18.7102
  37   2.0000      -0.653713       -17.7884
  38   2.0000      -0.638768       -17.3818
  39   2.0000      -0.621744       -16.9185
  40   2.0000      -0.609145       -16.5757
  41   2.0000      -0.566887       -15.4258
  42   2.0000      -0.562265       -15.3000
  43   2.0000      -0.553512       -15.0618
  44   2.0000      -0.547114       -14.8877
  45   2.0000      -0.535767       -14.5789
  46   2.0000      -0.517195       -14.0736
  47   2.0000      -0.511748       -13.9254
  48   2.0000      -0.498366       -13.5612
  49   2.0000      -0.496876       -13.5207
  50   2.0000      -0.492203       -13.3935
  51   2.0000      -0.478321       -13.0158
  52   2.0000      -0.473328       -12.8799
  53   2.0000      -0.466574       -12.6961
  54   2.0000      -0.456325       -12.4172
  55   2.0000      -0.448233       -12.1970
  56   2.0000      -0.444113       -12.0849
  57   2.0000      -0.437993       -11.9184
  58   2.0000      -0.429240       -11.6802
  59   2.0000      -0.425671       -11.5831
  60   2.0000      -0.421154       -11.4602
  61   2.0000      -0.417750       -11.3676
  62   2.0000      -0.406961       -11.0740
  63   2.0000      -0.336749        -9.1634
  64   2.0000      -0.329565        -8.9679
  65   2.0000      -0.322154        -8.7663
  66   2.0000      -0.290911        -7.9161
  67   0.0000       0.033027         0.8987
  68   0.0000       0.060880         1.6566
  69   0.0000       0.107034         2.9125
  70   0.0000       0.120782         3.2867
  71   0.0000       0.124487         3.3875

MULLIKEN ATOMIC CHARGES
-----------------------
   0 S :    0.084285
   1 C :   -0.127985
   2 C :   -0.064144
   3 C :    0.042705
   4 C :   -0.164840
   5 H :    0.023047
   6 C :    0.046133
   7 H :    0.021810
   8 H :    0.033217
   9 C :   -0.081649
  10 H :    0.027810
  11 H :    0.023752
  12 C :   -0.055497
  13 H :    0.038759
  14 H :    0.047356
  15 H :    0.027367
  16 S :    0.127819
  17 C :   -0.106931
  18 C :   -0.058627
  19 C :    0.007761
  20 C :   -0.184429
  21 H :    0.012720
  22 C :    0.007205
  23 H :    0.048342
  24 H :    0.034399
  25 C :    0.018367
  26 H :    0.014368
  27 H :    0.005301
  28 C :   -0.034515
  29 H :    0.025059
  30 H :    0.024497
  31 H :    0.015769
  32 H :    0.060375
  33 H :    0.060391
Sum of atomic charges:   -0.0000000

LOEWDIN ATOMIC CHARGES
----------------------
   0 S :    0.363170
   1 C :   -0.185893
   2 C :   -0.057709
   3 C :   -0.060745
   4 C :   -0.184681
   5 H :    0.037430
   6 C :   -0.038410
   7 H :    0.032558
   8 H :    0.033288
   9 C :   -0.043340
  10 H :    0.018781
  11 H :    0.023515
  12 C :   -0.069714
  13 H :    0.025012
  14 H :    0.034315
  15 H :    0.027161
  16 S :    0.446671
  17 C :   -0.206716
  18 C :   -0.080499
  19 C :   -0.050162
  20 C :   -0.210609
  21 H :    0.027426
  22 C :   -0.038931
  23 H :    0.045897
  24 H :    0.037189
  25 C :   -0.036262
  26 H :    0.019577
  27 H :    0.021224
  28 C :   -0.061773
  29 H :    0.018651
  30 H :    0.028442
  31 H :    0.026664
  32 H :    0.031240
  33 H :    0.027233

  Mayer bond orders larger than 0.100000
B(  0-S ,  1-C ) :   1.1172 B(  0-S ,  4-C ) :   1.1292 B(  1-C ,  2-C ) :   1.6204
B(  1-C , 32-H ) :   0.9702 B(  2-C ,  3-C ) :   1.1840 B(  2-C ,  6-C ) :   1.0267
B(  3-C ,  4-C ) :   1.6166 B(  3-C ,  5-H ) :   0.9957 B(  4-C , 20-C ) :   1.0311
B(  6-C ,  7-H ) :   0.9492 B(  6-C ,  8-H ) :   0.9347 B(  6-C ,  9-C ) :   1.0754
B(  9-C , 10-H ) :   0.9531 B(  9-C , 11-H ) :   0.9551 B(  9-C , 12-C ) :   1.0892
B( 12-C , 13-H ) :   0.9746 B( 12-C , 14-H ) :   0.9687 B( 12-C , 15-H ) :   0.9709
B( 16-S , 17-C ) :   1.2040 B( 16-S , 20-C ) :   1.1712 B( 17-C , 18-C ) :   1.5627
B( 17-C , 20-C ) :   0.1062 B( 17-C , 33-H ) :   0.9676 B( 18-C , 19-C ) :   1.2379
B( 18-C , 21-H ) :   1.0007 B( 19-C , 20-C ) :   1.5678 B( 19-C , 22-C ) :   1.0385
B( 22-C , 23-H ) :   0.9213 B( 22-C , 24-H ) :   0.9370 B( 22-C , 25-C ) :   1.0939
B( 25-C , 26-H ) :   0.9397 B( 25-C , 27-H ) :   0.9408 B( 25-C , 28-C ) :   1.0916
B( 28-C , 29-H ) :   0.9732 B( 28-C , 30-H ) :   0.9685 B( 28-C , 31-H ) :   0.9682

Dispersion correction           -0.015078901
FINAL SINGLE POINT ENERGY     -1339.861977054974

DIPOLE MOMENT
-------------
                                X             Y             Z
Electronic contribution:    -24.83502       6.05136     -13.99607
Nuclear contribution   :     25.45950      -6.00207      14.27223
                        -----------------------------------------
Total Dipole Moment    :      0.62448       0.04929       0.27616
                        -----------------------------------------
Magnitude (a.u.)       :      0.68459
Magnitude (Debye)      :      1.74009

Rotational constants in cm-1:     0.017743     0.010248     0.007230
Rotational constants in MHz :   531.911363   307.216127   216.746921

                             ****ORCA TERMINATED NORMALLY****
TOTAL RUN TIME: 0 days 0 hours 0 minutes 35 seconds 616 msec
