                         Program Version 4.2.1 -  RELEASE  -
|  1> ! wB97X-D3 SP def2-SVP
|  2> %pal
|  3> nprocs 16
|  4> end
|  5>
|  6> * xyz 0 1
|  7> S 	 -114.453 	 48.6138 	 134.68
|  8> C 	 -114.464 	 49.9956 	 133.563
|  9> C 	 -115.586 	 49.8889 	 132.753
| 10> C 	 -116.482 	 48.816 	 133.088
| 11> C 	 -115.972 	 48.0415 	 134.086
| 12> H 	 -117.423 	 48.5778 	 132.69
| 13> C 	 -115.965 	 50.9451 	 131.733
| 14> H 	 -116.467 	 50.382 	 130.951
| 15> H 	 -115.035 	 51.3846 	 131.315
| 16> C 	 -116.971 	 52.0328 	 132.194
| 17> H 	 -117.877 	 51.5229 	 132.606
| 18> H 	 -116.494 	 52.5731 	 133.019
| 19> C 	 -117.281 	 53.1791 	 131.13
| 20> H 	 -117.848 	 53.9668 	 131.545
| 21> H 	 -116.326 	 53.5844 	 130.757
| 22> H 	 -117.943 	 52.8461 	 130.304
| 23> S 	 -116.923 	 45.4623 	 133.636
| 24> C 	 -117.842 	 44.6008 	 134.874
| 25> C 	 -117.926 	 45.4023 	 135.988
| 26> C 	 -117.227 	 46.6372 	 135.926
| 27> C 	 -116.736 	 46.898 	 134.646
| 28> H 	 -118.552 	 44.959 	 136.821
| 29> C 	 -117.223 	 47.6211 	 137.029
| 30> H 	 -117.973 	 48.3957 	 136.825
| 31> H 	 -116.274 	 48.1065 	 136.959
| 32> C 	 -117.51 	 46.9223 	 138.453
| 33> H 	 -116.729 	 46.1493 	 138.582
| 34> H 	 -118.467 	 46.5113 	 138.391
| 35> C 	 -117.388 	 47.9317 	 139.601
| 36> H 	 -118.288 	 48.6089 	 139.536
| 37> H 	 -116.488 	 48.4669 	 139.515
| 38> H 	 -117.399 	 47.361 	 140.55
| 39> H 	 -113.7 	 50.7329 	 133.413
| 40> H 	 -118.334 	 43.6495 	 134.765
| 41> *
| 42>
| 43>                          ****END OF INPUT****

CARTESIAN COORDINATES (ANGSTROEM)
---------------------------------
  S    -114.453000   48.613800  134.680000
  C    -114.464000   49.995600  133.563000
  C    -115.586000   49.888900  132.753000
  C    -116.482000   48.816000  133.088000
  C    -115.972000   48.041500  134.086000
  H    -117.423000   48.577800  132.690000
  C    -115.965000   50.945100  131.733000
  H    -116.467000   50.382000  130.951000
  H    -115.035000   51.384600  131.315000
  C    -116.971000   52.032800  132.194000
  H    -117.877000   51.522900  132.606000
  H    -116.494000   52.573100  133.019000
  C    -117.281000   53.179100  131.130000
  H    -117.848000   53.966800  131.545000
  H    -116.326000   53.584400  130.757000
  H    -117.943000   52.846100  130.304000
  S    -116.923000   45.462300  133.636000
  C    -117.842000   44.600800  134.874000
  C    -117.926000   45.402300  135.988000
  C    -117.227000   46.637200  135.926000
  C    -116.736000   46.898000  134.646000
  H    -118.552000   44.959000  136.821000
  C    -117.223000   47.621100  137.029000
  H    -117.973000   48.395700  136.825000
  H    -116.274000   48.106500  136.959000
  C    -117.510000   46.922300  138.453000
  H    -116.729000   46.149300  138.582000
  H    -118.467000   46.511300  138.391000
  C    -117.388000   47.931700  139.601000
  H    -118.288000   48.608900  139.536000
  H    -116.488000   48.466900  139.515000
  H    -117.399000   47.361000  140.550000
  H    -113.700000   50.732900  133.413000
  H    -118.334000   43.649500  134.765000

 Total Charge           Charge          ....    0
 Multiplicity           Mult            ....    1
 Number of Electrons    NEL             ....  134
 Basis Dimension        Dim             ....  322

ORBITAL ENERGIES
----------------

  NO   OCC          E(Eh)            E(eV)
   0   2.0000     -88.969646     -2420.9872
   1   2.0000     -88.962902     -2420.8036
   2   2.0000     -10.329256      -281.0734
   3   2.0000     -10.326714      -281.0042
   4   2.0000     -10.316959      -280.7387
   5   2.0000     -10.315800      -280.7072
   6   2.0000     -10.303330      -280.3679
   7   2.0000     -10.300620      -280.2941
   8   2.0000     -10.294961      -280.1401
   9   2.0000     -10.294664      -280.1320
  10   2.0000     -10.292418      -280.0709
  11   2.0000     -10.290337      -280.0143
  12   2.0000     -10.286547      -279.9112
  13   2.0000     -10.286525      -279.9106
  14   2.0000     -10.283594      -279.8308
  15   2.0000     -10.278258      -279.6856
  16   2.0000      -8.083770      -219.9706
  17   2.0000      -8.076978      -219.7857
  18   2.0000      -6.042353      -164.4208
  19   2.0000      -6.038255      -164.3093
  20   2.0000      -6.035534      -164.2352
  21   2.0000      -6.034587      -164.2095
  22   2.0000      -6.031447      -164.1240
  23   2.0000      -6.027861      -164.0264
  24   2.0000      -1.005923       -27.3726
  25   2.0000      -0.983523       -26.7630
  26   2.0000      -0.904659       -24.6170
  27   2.0000      -0.904168       -24.6037
  28   2.0000      -0.866925       -23.5902
  29   2.0000      -0.849749       -23.1229
  30   2.0000      -0.845297       -23.0017
  31   2.0000      -0.816472       -22.2173
  32   2.0000      -0.779366       -21.2076
  33   2.0000      -0.767261       -20.8782
  34   2.0000      -0.705969       -19.2104
  35   2.0000      -0.702469       -19.1152
  36   2.0000      -0.698315       -19.0021
  37   2.0000      -0.652178       -17.7467
  38   2.0000      -0.639562       -17.4034
  39   2.0000      -0.613906       -16.7052
  40   2.0000      -0.591716       -16.1014
  41   2.0000      -0.573442       -15.6041
  42   2.0000      -0.566977       -15.4282
  43   2.0000      -0.559087       -15.2135
  44   2.0000      -0.530415       -14.4333
  45   2.0000      -0.521611       -14.1938
  46   2.0000      -0.515149       -14.0179
  47   2.0000      -0.509485       -13.8638
  48   2.0000      -0.506285       -13.7767
  49   2.0000      -0.498578       -13.5670
  50   2.0000      -0.494189       -13.4476
  51   2.0000      -0.476563       -12.9679
  52   2.0000      -0.469224       -12.7682
  53   2.0000      -0.467061       -12.7094
  54   2.0000      -0.459694       -12.5089
  55   2.0000      -0.453487       -12.3400
  56   2.0000      -0.444087       -12.0842
  57   2.0000      -0.435335       -11.8461
  58   2.0000      -0.431810       -11.7502
  59   2.0000      -0.428460       -11.6590
  60   2.0000      -0.421493       -11.4694
  61   2.0000      -0.410643       -11.1742
  62   2.0000      -0.408676       -11.1206
  63   2.0000      -0.340054        -9.2533
  64   2.0000      -0.332653        -9.0520
  65   2.0000      -0.325859        -8.8671
  66   2.0000      -0.301062        -8.1923
  67   0.0000       0.035174         0.9571
  68   0.0000       0.065730         1.7886
  69   0.0000       0.115562         3.1446
  70   0.0000       0.121062         3.2943
  71   0.0000       0.128379         3.4934

MULLIKEN ATOMIC CHARGES
-----------------------
   0 S :    0.117125
   1 C :   -0.119335
   2 C :   -0.072639
   3 C :    0.036569
   4 C :   -0.135919
   5 H :   -0.000753
   6 C :    0.060535
   7 H :    0.021746
   8 H :    0.022157
   9 C :   -0.083904
  10 H :    0.036732
  11 H :    0.026363
  12 C :   -0.045690
  13 H :    0.027951
  14 H :    0.036091
  15 H :    0.036201
  16 S :    0.100183
  17 C :   -0.091843
  18 C :   -0.078825
  19 C :   -0.030997
  20 C :   -0.179488
  21 H :    0.042853
  22 C :    0.081112
  23 H :    0.043035
  24 H :    0.008453
  25 C :   -0.119630
  26 H :    0.040461
  27 H :    0.031080
  28 C :   -0.009991
  29 H :    0.036628
  30 H :    0.027117
  31 H :    0.038131
  32 H :    0.043964
  33 H :    0.054528
Sum of atomic charges:   -0.0000000

LOEWDIN ATOMIC CHARGES
----------------------
   0 S :    0.408096
   1 C :   -0.191074
   2 C :   -0.057094
   3 C :   -0.055309
   4 C :   -0.197099
   5 H :    0.026383
   6 C :   -0.036956
   7 H :    0.028319
   8 H :    0.029331
   9 C :   -0.040263
  10 H :    0.027599
  11 H :    0.022747
  12 C :   -0.066059
  13 H :    0.020992
  14 H :    0.028185
  15 H :    0.027474
  16 S :    0.395206
  17 C :   -0.183017
  18 C :   -0.084637
  19 C :   -0.061846
  20 C :   -0.195986
  21 H :    0.042993
  22 C :   -0.031599
  23 H :    0.037070
  24 H :    0.019842
  25 C :   -0.031442
  26 H :    0.027728
  27 H :    0.012765
  28 C :   -0.060745
  29 H :    0.031156
  30 H :    0.018263
  31 H :    0.029712
  32 H :    0.028508
  33 H :    0.030754

  Mayer bond orders larger than 0.100000
B(  0-S ,  1-C ) :   1.1202 B(  0-S ,  4-C ) :   1.1506 B(  1-C ,  2-C ) :   1.6187
B(  1-C , 32-H ) :   0.9738 B(  2-C ,  3-C ) :   1.2075 B(  2-C ,  6-C ) :   1.0406
B(  3-C ,  4-C ) :   1.5846 B(  3-C ,  5-H ) :   1.0044 B(  4-C , 20-C ) :   1.0167
B(  6-C ,  7-H ) :   0.9360 B(  6-C ,  8-H ) :   0.9395 B(  6-C ,  9-C ) :   1.0588
B(  9-C , 10-H ) :   0.9566 B(  9-C , 11-H ) :   0.9580 B(  9-C , 12-C ) :   1.0712
B( 12-C , 13-H ) :   0.9766 B( 12-C , 14-H ) :   0.9753 B( 12-C , 15-H ) :   0.9779
B( 16-S , 17-C ) :   1.1502 B( 16-S , 20-C ) :   1.1500 B( 17-C , 18-C ) :   1.6166
B( 17-C , 20-C ) :   0.1059 B( 17-C , 33-H ) :   0.9656 B( 18-C , 19-C ) :   1.2349
B( 18-C , 21-H ) :   0.9759 B( 19-C , 20-C ) :   1.5769 B( 19-C , 22-C ) :   1.0502
B( 22-C , 23-H ) :   0.9306 B( 22-C , 24-H ) :   0.9169 B( 22-C , 25-C ) :   1.0658
B( 25-C , 26-H ) :   0.9628 B( 25-C , 27-H ) :   0.9490 B( 25-C , 28-C ) :   1.0861
B( 28-C , 29-H ) :   0.9743 B( 28-C , 30-H ) :   0.9752 B( 28-C , 31-H ) :   0.9734

Dispersion correction           -0.013575035
FINAL SINGLE POINT ENERGY     -1339.882246567316

DIPOLE MOMENT
-------------
                                X             Y             Z
Electronic contribution:      9.52224     -18.95141      -6.24459
Nuclear contribution   :     -9.90334      19.31903       6.39404
                        -----------------------------------------
Total Dipole Moment    :     -0.38110       0.36762       0.14945
                        -----------------------------------------
Magnitude (a.u.)       :      0.55020
Magnitude (Debye)      :      1.39850

Rotational constants in cm-1:     0.018883     0.007209     0.006310
Rotational constants in MHz :   566.108504   216.134845   189.155627

                             ****ORCA TERMINATED NORMALLY****
TOTAL RUN TIME: 0 days 0 hours 0 minutes 30 seconds 492 msec
