                         Program Version 4.2.1 -  RELEASE  -
|  1> ! wB97X-D3 SP def2-SVP
|  2> %pal
|  3> nprocs 16
|  4> end
|  5>
|  6> * xyz 0 1
|  7> S 	 -108.703 	 56.5957 	 121.657
|  8> C 	 -107.572 	 57.8496 	 122.232
|  9> C 	 -106.423 	 57.776 	 121.518
| 10> C 	 -106.3 	 56.6043 	 120.725
| 11> C 	 -107.459 	 55.8487 	 120.635
| 12> H 	 -105.424 	 56.4458 	 120.09
| 13> C 	 -105.28 	 58.7109 	 121.578
| 14> H 	 -104.431 	 58.0891 	 121.932
| 15> H 	 -105.435 	 59.3751 	 122.435
| 16> C 	 -104.815 	 59.5583 	 120.38
| 17> H 	 -103.87 	 60.0466 	 120.58
| 18> H 	 -104.537 	 58.9666 	 119.415
| 19> C 	 -105.848 	 60.6073 	 120.125
| 20> H 	 -105.483 	 61.2602 	 119.255
| 21> H 	 -106.856 	 60.1552 	 119.94
| 22> H 	 -105.972 	 61.3574 	 120.896
| 23> S 	 -108.429 	 53.2887 	 120.478
| 24> C 	 -108.193 	 52.3436 	 118.998
| 25> C 	 -108.065 	 53.2128 	 117.977
| 26> C 	 -107.739 	 54.5625 	 118.406
| 27> C 	 -107.748 	 54.7123 	 119.804
| 28> H 	 -108.172 	 52.9268 	 116.989
| 29> C 	 -107.269 	 55.6144 	 117.423
| 30> H 	 -106.494 	 56.2806 	 117.864
| 31> H 	 -108.176 	 56.3004 	 117.273
| 32> C 	 -106.827 	 55.1929 	 116.03
| 33> H 	 -107.533 	 54.5052 	 115.699
| 34> H 	 -105.8 	 54.7607 	 116.07
| 35> C 	 -106.786 	 56.3178 	 114.895
| 36> H 	 -106.084 	 56.0564 	 114.11
| 37> H 	 -106.475 	 57.2525 	 115.374
| 38> H 	 -107.732 	 56.4662 	 114.431
| 39> H 	 -107.874 	 58.6662 	 122.934
| 40> H 	 -108.321 	 51.2503 	 118.916
| 41> *
| 42>
| 43>                          ****END OF INPUT****

CARTESIAN COORDINATES (ANGSTROEM)
---------------------------------
  S    -108.703000   56.595700  121.657000
  C    -107.572000   57.849600  122.232000
  C    -106.423000   57.776000  121.518000
  C    -106.300000   56.604300  120.725000
  C    -107.459000   55.848700  120.635000
  H    -105.424000   56.445800  120.090000
  C    -105.280000   58.710900  121.578000
  H    -104.431000   58.089100  121.932000
  H    -105.435000   59.375100  122.435000
  C    -104.815000   59.558300  120.380000
  H    -103.870000   60.046600  120.580000
  H    -104.537000   58.966600  119.415000
  C    -105.848000   60.607300  120.125000
  H    -105.483000   61.260200  119.255000
  H    -106.856000   60.155200  119.940000
  H    -105.972000   61.357400  120.896000
  S    -108.429000   53.288700  120.478000
  C    -108.193000   52.343600  118.998000
  C    -108.065000   53.212800  117.977000
  C    -107.739000   54.562500  118.406000
  C    -107.748000   54.712300  119.804000
  H    -108.172000   52.926800  116.989000
  C    -107.269000   55.614400  117.423000
  H    -106.494000   56.280600  117.864000
  H    -108.176000   56.300400  117.273000
  C    -106.827000   55.192900  116.030000
  H    -107.533000   54.505200  115.699000
  H    -105.800000   54.760700  116.070000
  C    -106.786000   56.317800  114.895000
  H    -106.084000   56.056400  114.110000
  H    -106.475000   57.252500  115.374000
  H    -107.732000   56.466200  114.431000
  H    -107.874000   58.666200  122.934000
  H    -108.321000   51.250300  118.916000

 Total Charge           Charge          ....    0
 Multiplicity           Mult            ....    1
 Number of Electrons    NEL             ....  134
 Basis Dimension        Dim             ....  322

ORBITAL ENERGIES
----------------

  NO   OCC          E(Eh)            E(eV)
   0   2.0000     -88.963095     -2420.8089
   1   2.0000     -88.959825     -2420.7199
   2   2.0000     -10.333258      -281.1822
   3   2.0000     -10.324802      -280.9522
   4   2.0000     -10.320734      -280.8415
   5   2.0000     -10.317500      -280.7534
   6   2.0000     -10.309592      -280.5383
   7   2.0000     -10.297503      -280.2093
   8   2.0000     -10.296233      -280.1747
   9   2.0000     -10.295621      -280.1581
  10   2.0000     -10.292969      -280.0859
  11   2.0000     -10.290843      -280.0281
  12   2.0000     -10.290798      -280.0269
  13   2.0000     -10.287746      -279.9438
  14   2.0000     -10.281259      -279.7673
  15   2.0000     -10.280712      -279.7524
  16   2.0000      -8.077206      -219.7920
  17   2.0000      -8.075352      -219.7415
  18   2.0000      -6.035870      -164.2444
  19   2.0000      -6.033944      -164.1920
  20   2.0000      -6.031867      -164.1354
  21   2.0000      -6.029884      -164.0815
  22   2.0000      -6.027758      -164.0236
  23   2.0000      -6.025803      -163.9704
  24   2.0000      -1.008551       -27.4441
  25   2.0000      -0.986127       -26.8339
  26   2.0000      -0.915768       -24.9193
  27   2.0000      -0.905453       -24.6386
  28   2.0000      -0.876756       -23.8578
  29   2.0000      -0.847527       -23.0624
  30   2.0000      -0.842837       -22.9348
  31   2.0000      -0.819015       -22.2865
  32   2.0000      -0.779453       -21.2100
  33   2.0000      -0.770207       -20.9584
  34   2.0000      -0.712882       -19.3985
  35   2.0000      -0.701112       -19.0782
  36   2.0000      -0.695405       -18.9229
  37   2.0000      -0.654825       -17.8187
  38   2.0000      -0.635525       -17.2935
  39   2.0000      -0.624397       -16.9907
  40   2.0000      -0.601163       -16.3585
  41   2.0000      -0.569435       -15.4951
  42   2.0000      -0.566623       -15.4186
  43   2.0000      -0.558740       -15.2041
  44   2.0000      -0.533422       -14.5151
  45   2.0000      -0.526740       -14.3333
  46   2.0000      -0.520446       -14.1621
  47   2.0000      -0.516573       -14.0567
  48   2.0000      -0.507970       -13.8226
  49   2.0000      -0.498073       -13.5533
  50   2.0000      -0.488940       -13.3047
  51   2.0000      -0.477174       -12.9846
  52   2.0000      -0.472263       -12.8509
  53   2.0000      -0.468905       -12.7596
  54   2.0000      -0.456705       -12.4276
  55   2.0000      -0.455476       -12.3941
  56   2.0000      -0.446271       -12.1436
  57   2.0000      -0.431228       -11.7343
  58   2.0000      -0.427365       -11.6292
  59   2.0000      -0.423816       -11.5326
  60   2.0000      -0.421593       -11.4721
  61   2.0000      -0.411817       -11.2061
  62   2.0000      -0.408285       -11.1100
  63   2.0000      -0.347119        -9.4456
  64   2.0000      -0.327522        -8.9123
  65   2.0000      -0.321139        -8.7386
  66   2.0000      -0.294287        -8.0080
  67   0.0000       0.028812         0.7840
  68   0.0000       0.062318         1.6958
  69   0.0000       0.104703         2.8491
  70   0.0000       0.120556         3.2805
  71   0.0000       0.124764         3.3950

MULLIKEN ATOMIC CHARGES
-----------------------
   0 S :    0.092304
   1 C :   -0.142154
   2 C :   -0.082139
   3 C :    0.031328
   4 C :   -0.136163
   5 H :    0.018744
   6 C :    0.034527
   7 H :    0.036803
   8 H :    0.009415
   9 C :   -0.048102
  10 H :    0.024697
  11 H :    0.037904
  12 C :   -0.081080
  13 H :    0.035926
  14 H :    0.053080
  15 H :    0.024564
  16 S :    0.094417
  17 C :   -0.093549
  18 C :    0.001205
  19 C :   -0.019093
  20 C :   -0.158099
  21 H :   -0.006554
  22 C :    0.023763
  23 H :    0.032930
  24 H :    0.044632
  25 C :   -0.083521
  26 H :    0.021751
  27 H :    0.042275
  28 C :   -0.045327
  29 H :    0.035959
  30 H :    0.030400
  31 H :    0.030088
  32 H :    0.067912
  33 H :    0.071157
Sum of atomic charges:   -0.0000000

LOEWDIN ATOMIC CHARGES
----------------------
   0 S :    0.376175
   1 C :   -0.192224
   2 C :   -0.073558
   3 C :   -0.061960
   4 C :   -0.176477
   5 H :    0.032310
   6 C :   -0.040429
   7 H :    0.037882
   8 H :    0.029858
   9 C :   -0.048137
  10 H :    0.025457
  11 H :    0.032094
  12 C :   -0.075969
  13 H :    0.032559
  14 H :    0.032433
  15 H :    0.020949
  16 S :    0.404617
  17 C :   -0.168978
  18 C :   -0.065125
  19 C :   -0.046752
  20 C :   -0.218229
  21 H :    0.018864
  22 C :   -0.046239
  23 H :    0.032133
  24 H :    0.044193
  25 C :   -0.039700
  26 H :    0.011495
  27 H :    0.029590
  28 C :   -0.058762
  29 H :    0.027766
  30 H :    0.025005
  31 H :    0.020207
  32 H :    0.040256
  33 H :    0.038694

  Mayer bond orders larger than 0.100000
B(  0-S ,  1-C ) :   1.1120 B(  0-S ,  4-C ) :   1.1443 B(  1-C ,  2-C ) :   1.6243
B(  1-C , 32-H ) :   0.9616 B(  2-C ,  3-C ) :   1.2249 B(  2-C ,  6-C ) :   1.0348
B(  3-C ,  4-C ) :   1.5832 B(  3-C ,  5-H ) :   0.9918 B(  4-C , 20-C ) :   1.0615
B(  6-C ,  7-H ) :   0.9331 B(  6-C ,  8-H ) :   0.9384 B(  6-C ,  9-C ) :   1.0708
B(  9-C , 10-H ) :   0.9477 B(  9-C , 11-H ) :   0.9528 B(  9-C , 12-C ) :   1.0772
B( 12-C , 13-H ) :   0.9703 B( 12-C , 14-H ) :   0.9770 B( 12-C , 15-H ) :   0.9724
B( 16-S , 17-C ) :   1.1490 B( 16-S , 20-C ) :   1.1346 B( 17-C , 18-C ) :   1.6045
B( 17-C , 33-H ) :   0.9678 B( 18-C , 19-C ) :   1.2362 B( 18-C , 21-H ) :   1.0002
B( 19-C , 20-C ) :   1.5688 B( 19-C , 22-C ) :   1.0398 B( 22-C , 23-H ) :   0.9386
B( 22-C , 24-H ) :   0.9226 B( 22-C , 25-C ) :   1.0780 B( 25-C , 26-H ) :   0.9498
B( 25-C , 27-H ) :   0.9587 B( 25-C , 28-C ) :   1.0764 B( 28-C , 29-H ) :   0.9765
B( 28-C , 30-H ) :   0.9799 B( 28-C , 31-H ) :   0.9784

Dispersion correction           -0.013900760
FINAL SINGLE POINT ENERGY     -1339.862140129281

DIPOLE MOMENT
-------------
                                X             Y             Z
Electronic contribution:    -14.91993     -19.62123      19.01380
Nuclear contribution   :     15.34885      19.94497     -19.63049
                        -----------------------------------------
Total Dipole Moment    :      0.42892       0.32374      -0.61669
                        -----------------------------------------
Magnitude (a.u.)       :      0.81798
Magnitude (Debye)      :      2.07913

Rotational constants in cm-1:     0.016466     0.009462     0.006537
Rotational constants in MHz :   493.629106   283.660020   195.977246

                             ****ORCA TERMINATED NORMALLY****
TOTAL RUN TIME: 0 days 0 hours 0 minutes 34 seconds 467 msec
