                         Program Version 4.2.1 -  RELEASE  -
|  1> ! wB97X-D3 SP def2-SVP
|  2> %pal
|  3> nprocs 16
|  4> end
|  5>
|  6> * xyz 0 1
|  7> S 	 11.0879 	 -7.50701 	 89.4543
|  8> C 	 12.6612 	 -8.22575 	 89.7036
|  9> C 	 13.6157 	 -7.58663 	 88.884
| 10> C 	 13.0901 	 -6.40424 	 88.292
| 11> C 	 11.7348 	 -6.07379 	 88.5655
| 12> H 	 13.6389 	 -5.68239 	 87.7453
| 13> C 	 15.0555 	 -8.08887 	 88.7001
| 14> H 	 15.1337 	 -8.54142 	 87.6734
| 15> H 	 15.1739 	 -8.88041 	 89.398
| 16> C 	 16.1132 	 -6.96672 	 88.8764
| 17> H 	 17.0503 	 -7.50333 	 88.6908
| 18> H 	 15.8862 	 -6.15423 	 88.1844
| 19> C 	 16.3013 	 -6.30686 	 90.2448
| 20> H 	 17.0938 	 -5.49885 	 90.4087
| 21> H 	 15.3422 	 -5.82878 	 90.5755
| 22> H 	 16.3816 	 -7.03069 	 90.9757
| 23> S 	 9.58944 	 -5.44388 	 86.9239
| 24> C 	 9.66778 	 -3.77794 	 86.3185
| 25> C 	 10.4505 	 -2.95845 	 87.0948
| 26> C 	 11.1311 	 -3.69258 	 88.112
| 27> C 	 10.9011 	 -5.05218 	 88.0055
| 28> H 	 10.4947 	 -1.86115 	 86.8717
| 29> C 	 12.0995 	 -3.03163 	 89.0489
| 30> H 	 12.6361 	 -3.71536 	 89.7044
| 31> H 	 11.4206 	 -2.61676 	 89.8066
| 32> C 	 12.9341 	 -1.96056 	 88.3932
| 33> H 	 12.1753 	 -1.14636 	 88.2291
| 34> H 	 13.2515 	 -2.28938 	 87.3928
| 35> C 	 14.0803 	 -1.54581 	 89.2775
| 36> H 	 14.913 	 -2.3001 	 89.211
| 37> H 	 13.6202 	 -1.39818 	 90.27
| 38> H 	 14.4915 	 -0.574687 	 88.9298
| 39> H 	 12.9447 	 -9.11012 	 90.2636
| 40> H 	 9.19157 	 -3.46623 	 85.4249
| 41> *
| 42>
| 43>                          ****END OF INPUT****

CARTESIAN COORDINATES (ANGSTROEM)
---------------------------------
  S     11.087900   -7.507010   89.454300
  C     12.661200   -8.225750   89.703600
  C     13.615700   -7.586630   88.884000
  C     13.090100   -6.404240   88.292000
  C     11.734800   -6.073790   88.565500
  H     13.638900   -5.682390   87.745300
  C     15.055500   -8.088870   88.700100
  H     15.133700   -8.541420   87.673400
  H     15.173900   -8.880410   89.398000
  C     16.113200   -6.966720   88.876400
  H     17.050300   -7.503330   88.690800
  H     15.886200   -6.154230   88.184400
  C     16.301300   -6.306860   90.244800
  H     17.093800   -5.498850   90.408700
  H     15.342200   -5.828780   90.575500
  H     16.381600   -7.030690   90.975700
  S      9.589440   -5.443880   86.923900
  C      9.667780   -3.777940   86.318500
  C     10.450500   -2.958450   87.094800
  C     11.131100   -3.692580   88.112000
  C     10.901100   -5.052180   88.005500
  H     10.494700   -1.861150   86.871700
  C     12.099500   -3.031630   89.048900
  H     12.636100   -3.715360   89.704400
  H     11.420600   -2.616760   89.806600
  C     12.934100   -1.960560   88.393200
  H     12.175300   -1.146360   88.229100
  H     13.251500   -2.289380   87.392800
  C     14.080300   -1.545810   89.277500
  H     14.913000   -2.300100   89.211000
  H     13.620200   -1.398180   90.270000
  H     14.491500   -0.574687   88.929800
  H     12.944700   -9.110120   90.263600
  H      9.191570   -3.466230   85.424900

 Total Charge           Charge          ....    0
 Multiplicity           Mult            ....    1
 Number of Electrons    NEL             ....  134
 Basis Dimension        Dim             ....  322

ORBITAL ENERGIES
----------------

  NO   OCC          E(Eh)            E(eV)
   0   2.0000     -88.966496     -2420.9014
   1   2.0000     -88.962631     -2420.7963
   2   2.0000     -10.333233      -281.1816
   3   2.0000     -10.322468      -280.8886
   4   2.0000     -10.318178      -280.7719
   5   2.0000     -10.316021      -280.7132
   6   2.0000     -10.303381      -280.3693
   7   2.0000     -10.301771      -280.3254
   8   2.0000     -10.299057      -280.2516
   9   2.0000     -10.298939      -280.2484
  10   2.0000     -10.294361      -280.1238
  11   2.0000     -10.290888      -280.0293
  12   2.0000     -10.288781      -279.9720
  13   2.0000     -10.287141      -279.9273
  14   2.0000     -10.286953      -279.9222
  15   2.0000     -10.277859      -279.6748
  16   2.0000      -8.081292      -219.9031
  17   2.0000      -8.076351      -219.7687
  18   2.0000      -6.039757      -164.3501
  19   2.0000      -6.036117      -164.2511
  20   2.0000      -6.034907      -164.2182
  21   2.0000      -6.031751      -164.1323
  22   2.0000      -6.030917      -164.1096
  23   2.0000      -6.027210      -164.0087
  24   2.0000      -1.004519       -27.3344
  25   2.0000      -0.977508       -26.5993
  26   2.0000      -0.918759       -25.0007
  27   2.0000      -0.907577       -24.6964
  28   2.0000      -0.870006       -23.6741
  29   2.0000      -0.853671       -23.2296
  30   2.0000      -0.838994       -22.8302
  31   2.0000      -0.814685       -22.1687
  32   2.0000      -0.783814       -21.3287
  33   2.0000      -0.770341       -20.9620
  34   2.0000      -0.710680       -19.3386
  35   2.0000      -0.702182       -19.1073
  36   2.0000      -0.690505       -18.7896
  37   2.0000      -0.652611       -17.7585
  38   2.0000      -0.639222       -17.3941
  39   2.0000      -0.618327       -16.8255
  40   2.0000      -0.603489       -16.4218
  41   2.0000      -0.569347       -15.4927
  42   2.0000      -0.566879       -15.4256
  43   2.0000      -0.547775       -14.9057
  44   2.0000      -0.534379       -14.5412
  45   2.0000      -0.531931       -14.4746
  46   2.0000      -0.520927       -14.1752
  47   2.0000      -0.514109       -13.9896
  48   2.0000      -0.508735       -13.8434
  49   2.0000      -0.491837       -13.3836
  50   2.0000      -0.485620       -13.2144
  51   2.0000      -0.477162       -12.9842
  52   2.0000      -0.474208       -12.9039
  53   2.0000      -0.469469       -12.7749
  54   2.0000      -0.457829       -12.4582
  55   2.0000      -0.451050       -12.2737
  56   2.0000      -0.445591       -12.1251
  57   2.0000      -0.438136       -11.9223
  58   2.0000      -0.434325       -11.8186
  59   2.0000      -0.428223       -11.6525
  60   2.0000      -0.421854       -11.4792
  61   2.0000      -0.406717       -11.0673
  62   2.0000      -0.402362       -10.9488
  63   2.0000      -0.344842        -9.3836
  64   2.0000      -0.330848        -9.0028
  65   2.0000      -0.323803        -8.8111
  66   2.0000      -0.285601        -7.7716
  67   0.0000       0.029201         0.7946
  68   0.0000       0.053915         1.4671
  69   0.0000       0.107583         2.9275
  70   0.0000       0.118944         3.2366
  71   0.0000       0.121861         3.3160

MULLIKEN ATOMIC CHARGES
-----------------------
   0 S :    0.088824
   1 C :   -0.102975
   2 C :   -0.128754
   3 C :    0.058840
   4 C :   -0.188966
   5 H :   -0.007396
   6 C :    0.093139
   7 H :    0.057927
   8 H :    0.003111
   9 C :   -0.086419
  10 H :    0.035690
  11 H :    0.040789
  12 C :   -0.057493
  13 H :    0.054800
  14 H :    0.027965
  15 H :    0.004907
  16 S :    0.118130
  17 C :   -0.085559
  18 C :   -0.055879
  19 C :   -0.034620
  20 C :   -0.150666
  21 H :    0.044016
  22 C :    0.073633
  23 H :    0.022853
  24 H :    0.033908
  25 C :   -0.120468
  26 H :    0.037451
  27 H :    0.036585
  28 C :   -0.027521
  29 H :    0.050297
  30 H :    0.036779
  31 H :    0.034756
  32 H :    0.047937
  33 H :    0.044380
Sum of atomic charges:   -0.0000000

LOEWDIN ATOMIC CHARGES
----------------------
   0 S :    0.380035
   1 C :   -0.202571
   2 C :   -0.069335
   3 C :   -0.057055
   4 C :   -0.176110
   5 H :    0.020515
   6 C :   -0.024549
   7 H :    0.045576
   8 H :    0.021249
   9 C :   -0.042019
  10 H :    0.027976
  11 H :    0.024080
  12 C :   -0.075972
  13 H :    0.038523
  14 H :    0.028829
  15 H :    0.010941
  16 S :    0.393961
  17 C :   -0.161656
  18 C :   -0.075944
  19 C :   -0.045139
  20 C :   -0.212901
  21 H :    0.043361
  22 C :   -0.041073
  23 H :    0.028565
  24 H :    0.040603
  25 C :   -0.049897
  26 H :    0.027704
  27 H :    0.022476
  28 C :   -0.065123
  29 H :    0.034478
  30 H :    0.030564
  31 H :    0.028161
  32 H :    0.030684
  33 H :    0.021064

  Mayer bond orders larger than 0.100000
B(  0-S ,  1-C ) :   1.1525 B(  0-S ,  4-C ) :   1.1295 B(  1-C ,  2-C ) :   1.5820
B(  1-C ,  4-C ) :   0.1141 B(  1-C , 32-H ) :   0.9645 B(  2-C ,  3-C ) :   1.2603
B(  2-C ,  6-C ) :   1.0186 B(  3-C ,  4-C ) :   1.5546 B(  3-C ,  5-H ) :   0.9948
B(  4-C , 20-C ) :   1.0722 B(  6-C ,  7-H ) :   0.9375 B(  6-C ,  8-H ) :   0.9381
B(  6-C ,  9-C ) :   1.0686 B(  9-C , 10-H ) :   0.9558 B(  9-C , 11-H ) :   0.9584
B(  9-C , 12-C ) :   1.0710 B( 12-C , 13-H ) :   0.9759 B( 12-C , 14-H ) :   0.9689
B( 12-C , 15-H ) :   0.9710 B( 16-S , 17-C ) :   1.1447 B( 16-S , 20-C ) :   1.1175
B( 17-C , 18-C ) :   1.6351 B( 17-C , 33-H ) :   0.9708 B( 18-C , 19-C ) :   1.2063
B( 18-C , 21-H ) :   0.9827 B( 19-C , 20-C ) :   1.6029 B( 19-C , 22-C ) :   1.0467
B( 22-C , 23-H ) :   0.9358 B( 22-C , 24-H ) :   0.9119 B( 22-C , 25-C ) :   1.0453
B( 25-C , 26-H ) :   0.9407 B( 25-C , 27-H ) :   0.9675 B( 25-C , 28-C ) :   1.0850
B( 28-C , 29-H ) :   0.9733 B( 28-C , 30-H ) :   0.9682 B( 28-C , 31-H ) :   0.9722

Dispersion correction           -0.014637340
FINAL SINGLE POINT ENERGY     -1339.860320689614

DIPOLE MOMENT
-------------
                                X             Y             Z
Electronic contribution:    -27.40965     -12.92628      -6.92861
Nuclear contribution   :     28.02674      13.36515       6.82095
                        -----------------------------------------
Total Dipole Moment    :      0.61709       0.43888      -0.10765
                        -----------------------------------------
Magnitude (a.u.)       :      0.76485
Magnitude (Debye)      :      1.94410

Rotational constants in cm-1:     0.016273     0.010312     0.007038
Rotational constants in MHz :   487.854563   309.138476   210.989348

                             ****ORCA TERMINATED NORMALLY****
TOTAL RUN TIME: 0 days 0 hours 0 minutes 35 seconds 101 msec
