                         Program Version 4.2.1 -  RELEASE  -
|  1> ! wB97X-D3 SP def2-SVP
|  2> %pal
|  3> nprocs 16
|  4> end
|  5>
|  6> * xyz 0 1
|  7> S 	 -107.85 	 43.5929 	 125.736
|  8> C 	 -107.406 	 44.8083 	 126.875
|  9> C 	 -106.353 	 45.5684 	 126.389
| 10> C 	 -106.07 	 45.1792 	 125.01
| 11> C 	 -107.012 	 44.3399 	 124.413
| 12> H 	 -105.193 	 45.4959 	 124.381
| 13> C 	 -105.478 	 46.4025 	 127.226
| 14> H 	 -106.073 	 46.6083 	 128.151
| 15> H 	 -105.469 	 47.3728 	 126.68
| 16> C 	 -104.094 	 45.756 	 127.411
| 17> H 	 -104.305 	 44.7438 	 127.733
| 18> H 	 -103.547 	 45.6557 	 126.425
| 19> C 	 -103.273 	 46.4998 	 128.502
| 20> H 	 -103.762 	 46.6023 	 129.487
| 21> H 	 -102.266 	 46.0926 	 128.562
| 22> H 	 -103.082 	 47.5048 	 128.122
| 23> S 	 -107.284 	 42.0999 	 122.966
| 24> C 	 -107.051 	 42.1519 	 121.225
| 25> C 	 -106.73 	 43.4288 	 120.741
| 26> C 	 -106.776 	 44.3822 	 121.825
| 27> C 	 -107.071 	 43.8608 	 123.054
| 28> H 	 -106.576 	 43.6898 	 119.631
| 29> C 	 -106.573 	 45.8763 	 121.505
| 30> H 	 -105.779 	 45.9974 	 120.756
| 31> H 	 -106.157 	 46.3017 	 122.381
| 32> C 	 -107.753 	 46.6713 	 121.074
| 33> H 	 -108.532 	 46.6016 	 121.837
| 34> H 	 -108.175 	 46.1992 	 120.184
| 35> C 	 -107.417 	 48.1325 	 120.723
| 36> H 	 -106.741 	 48.1819 	 119.858
| 37> H 	 -106.905 	 48.6457 	 121.57
| 38> H 	 -108.243 	 48.7756 	 120.469
| 39> H 	 -107.803 	 44.8786 	 127.864
| 40> H 	 -107.148 	 41.2809 	 120.712
| 41> *
| 42>
| 43>                          ****END OF INPUT****

CARTESIAN COORDINATES (ANGSTROEM)
---------------------------------
  S    -107.850000   43.592900  125.736000
  C    -107.406000   44.808300  126.875000
  C    -106.353000   45.568400  126.389000
  C    -106.070000   45.179200  125.010000
  C    -107.012000   44.339900  124.413000
  H    -105.193000   45.495900  124.381000
  C    -105.478000   46.402500  127.226000
  H    -106.073000   46.608300  128.151000
  H    -105.469000   47.372800  126.680000
  C    -104.094000   45.756000  127.411000
  H    -104.305000   44.743800  127.733000
  H    -103.547000   45.655700  126.425000
  C    -103.273000   46.499800  128.502000
  H    -103.762000   46.602300  129.487000
  H    -102.266000   46.092600  128.562000
  H    -103.082000   47.504800  128.122000
  S    -107.284000   42.099900  122.966000
  C    -107.051000   42.151900  121.225000
  C    -106.730000   43.428800  120.741000
  C    -106.776000   44.382200  121.825000
  C    -107.071000   43.860800  123.054000
  H    -106.576000   43.689800  119.631000
  C    -106.573000   45.876300  121.505000
  H    -105.779000   45.997400  120.756000
  H    -106.157000   46.301700  122.381000
  C    -107.753000   46.671300  121.074000
  H    -108.532000   46.601600  121.837000
  H    -108.175000   46.199200  120.184000
  C    -107.417000   48.132500  120.723000
  H    -106.741000   48.181900  119.858000
  H    -106.905000   48.645700  121.570000
  H    -108.243000   48.775600  120.469000
  H    -107.803000   44.878600  127.864000
  H    -107.148000   41.280900  120.712000

 Total Charge           Charge          ....    0
 Multiplicity           Mult            ....    1
 Number of Electrons    NEL             ....  134
 Basis Dimension        Dim             ....  322

ORBITAL ENERGIES
----------------

  NO   OCC          E(Eh)            E(eV)
   0   2.0000     -88.964673     -2420.8518
   1   2.0000     -88.960312     -2420.7332
   2   2.0000     -10.329457      -281.0788
   3   2.0000     -10.328843      -281.0621
   4   2.0000     -10.318476      -280.7800
   5   2.0000     -10.310367      -280.5594
   6   2.0000     -10.308232      -280.5013
   7   2.0000     -10.307502      -280.4814
   8   2.0000     -10.300101      -280.2800
   9   2.0000     -10.299035      -280.2510
  10   2.0000     -10.295678      -280.1596
  11   2.0000     -10.294370      -280.1241
  12   2.0000     -10.285628      -279.8862
  13   2.0000     -10.282755      -279.8080
  14   2.0000     -10.282337      -279.7966
  15   2.0000     -10.280284      -279.7408
  16   2.0000      -8.079548      -219.8557
  17   2.0000      -8.076123      -219.7625
  18   2.0000      -6.038058      -164.3039
  19   2.0000      -6.034704      -164.2126
  20   2.0000      -6.034161      -164.1979
  21   2.0000      -6.030723      -164.1043
  22   2.0000      -6.030168      -164.0892
  23   2.0000      -6.026489      -163.9891
  24   2.0000      -1.009561       -27.4716
  25   2.0000      -0.984476       -26.7890
  26   2.0000      -0.915691       -24.9172
  27   2.0000      -0.911611       -24.8062
  28   2.0000      -0.871017       -23.7016
  29   2.0000      -0.851390       -23.1675
  30   2.0000      -0.841101       -22.8875
  31   2.0000      -0.813312       -22.1313
  32   2.0000      -0.781673       -21.2704
  33   2.0000      -0.771527       -20.9943
  34   2.0000      -0.710973       -19.3466
  35   2.0000      -0.699954       -19.0467
  36   2.0000      -0.696866       -18.9627
  37   2.0000      -0.668481       -18.1903
  38   2.0000      -0.640206       -17.4209
  39   2.0000      -0.615186       -16.7401
  40   2.0000      -0.599460       -16.3121
  41   2.0000      -0.566763       -15.4224
  42   2.0000      -0.564789       -15.3687
  43   2.0000      -0.557241       -15.1633
  44   2.0000      -0.526774       -14.3342
  45   2.0000      -0.521672       -14.1954
  46   2.0000      -0.517879       -14.0922
  47   2.0000      -0.509231       -13.8569
  48   2.0000      -0.507160       -13.8005
  49   2.0000      -0.504669       -13.7327
  50   2.0000      -0.497591       -13.5401
  51   2.0000      -0.480050       -13.0628
  52   2.0000      -0.468801       -12.7567
  53   2.0000      -0.465048       -12.6546
  54   2.0000      -0.453833       -12.3494
  55   2.0000      -0.452336       -12.3087
  56   2.0000      -0.445803       -12.1309
  57   2.0000      -0.439189       -11.9509
  58   2.0000      -0.435642       -11.8544
  59   2.0000      -0.425507       -11.5786
  60   2.0000      -0.419919       -11.4266
  61   2.0000      -0.413917       -11.2632
  62   2.0000      -0.411197       -11.1892
  63   2.0000      -0.355475        -9.6730
  64   2.0000      -0.334959        -9.1147
  65   2.0000      -0.317250        -8.6328
  66   2.0000      -0.285575        -7.7709
  67   0.0000       0.020133         0.5478
  68   0.0000       0.071495         1.9455
  69   0.0000       0.092682         2.5220
  70   0.0000       0.121189         3.2977
  71   0.0000       0.135505         3.6873

MULLIKEN ATOMIC CHARGES
-----------------------
   0 S :    0.089740
   1 C :   -0.096353
   2 C :   -0.115923
   3 C :   -0.017390
   4 C :   -0.135758
   5 H :    0.042432
   6 C :    0.060927
   7 H :    0.023162
   8 H :    0.033957
   9 C :   -0.088524
  10 H :    0.033933
  11 H :    0.047722
  12 C :   -0.032465
  13 H :    0.045080
  14 H :    0.034767
  15 H :    0.021120
  16 S :    0.079229
  17 C :   -0.057361
  18 C :   -0.035631
  19 C :   -0.090768
  20 C :   -0.102048
  21 H :    0.057650
  22 C :    0.081359
  23 H :    0.012362
  24 H :   -0.011753
  25 C :   -0.032256
  26 H :    0.031301
  27 H :    0.016956
  28 C :   -0.055725
  29 H :    0.026531
  30 H :    0.031661
  31 H :    0.034705
  32 H :    0.042182
  33 H :    0.025183
Sum of atomic charges:    0.0000000

LOEWDIN ATOMIC CHARGES
----------------------
   0 S :    0.407200
   1 C :   -0.200492
   2 C :   -0.067968
   3 C :   -0.073244
   4 C :   -0.200912
   5 H :    0.034945
   6 C :   -0.041044
   7 H :    0.034600
   8 H :    0.033814
   9 C :   -0.037484
  10 H :    0.024158
  11 H :    0.034995
  12 C :   -0.068458
  13 H :    0.030174
  14 H :    0.026943
  15 H :    0.024838
  16 S :    0.388937
  17 C :   -0.155256
  18 C :   -0.074228
  19 C :   -0.054111
  20 C :   -0.184944
  21 H :    0.050632
  22 C :   -0.030724
  23 H :    0.028750
  24 H :    0.018747
  25 C :   -0.039022
  26 H :    0.026780
  27 H :    0.022410
  28 C :   -0.067093
  29 H :    0.024687
  30 H :    0.027817
  31 H :    0.025542
  32 H :    0.024692
  33 H :    0.004319

  Mayer bond orders larger than 0.100000
B(  0-S ,  1-C ) :   1.1414 B(  0-S ,  4-C ) :   1.1501 B(  1-C ,  2-C ) :   1.5906
B(  1-C , 32-H ) :   0.9742 B(  2-C ,  3-C ) :   1.2312 B(  2-C ,  6-C ) :   1.0448
B(  3-C ,  4-C ) :   1.5603 B(  3-C ,  5-H ) :   0.9753 B(  4-C , 20-C ) :   1.0647
B(  6-C ,  7-H ) :   0.9418 B(  6-C ,  8-H ) :   0.9248 B(  6-C ,  9-C ) :   1.0477
B(  9-C , 10-H ) :   0.9586 B(  9-C , 11-H ) :   0.9510 B(  9-C , 12-C ) :   1.0826
B( 12-C , 13-H ) :   0.9762 B( 12-C , 14-H ) :   0.9738 B( 12-C , 15-H ) :   0.9721
B( 16-S , 17-C ) :   1.1656 B( 16-S , 20-C ) :   1.1117 B( 17-C , 18-C ) :   1.5942
B( 17-C , 33-H ) :   0.9841 B( 18-C , 19-C ) :   1.2259 B( 18-C , 21-H ) :   0.9784
B( 19-C , 20-C ) :   1.6469 B( 19-C , 22-C ) :   1.0366 B( 22-C , 23-H ) :   0.9329
B( 22-C , 24-H ) :   0.9246 B( 22-C , 25-C ) :   1.0765 B( 25-C , 26-H ) :   0.9511
B( 25-C , 27-H ) :   0.9511 B( 25-C , 28-C ) :   1.0783 B( 28-C , 29-H ) :   0.9740
B( 28-C , 30-H ) :   0.9756 B( 28-C , 31-H ) :   0.9747

Dispersion correction           -0.013578205
FINAL SINGLE POINT ENERGY     -1339.869716078147

DIPOLE MOMENT
-------------
                                X             Y             Z
Electronic contribution:    -12.42482     -24.44404      -1.04091
Nuclear contribution   :     12.87844      24.89242       0.92878
                        -----------------------------------------
Total Dipole Moment    :      0.45362       0.44839      -0.11213
                        -----------------------------------------
Magnitude (a.u.)       :      0.64761
Magnitude (Debye)      :      1.64609

Rotational constants in cm-1:     0.017503     0.008206     0.006511
Rotational constants in MHz :   524.733155   246.006074   195.193386

                             ****ORCA TERMINATED NORMALLY****
TOTAL RUN TIME: 0 days 0 hours 0 minutes 34 seconds 682 msec
