                         Program Version 4.2.1 -  RELEASE  -
|  1> ! wB97X-D3 SP def2-SVP
|  2> %pal
|  3> nprocs 16
|  4> end
|  5>
|  6> * xyz 0 1
|  7> S 	 43.0542 	 18.1647 	 78.0385
|  8> C 	 42.8566 	 18.3079 	 79.737
|  9> C 	 44.0427 	 18.0293 	 80.4051
| 10> C 	 45.0844 	 17.6696 	 79.4421
| 11> C 	 44.6793 	 17.6962 	 78.1052
| 12> H 	 46.1136 	 17.4051 	 79.722
| 13> C 	 44.2951 	 17.9471 	 81.8978
| 14> H 	 45.1921 	 17.3398 	 82.0538
| 15> H 	 43.4843 	 17.3587 	 82.2596
| 16> C 	 44.3687 	 19.3792 	 82.5689
| 17> H 	 43.4911 	 19.9685 	 82.3613
| 18> H 	 44.4277 	 19.1339 	 83.6317
| 19> C 	 45.6694 	 20.068 	 82.2498
| 20> H 	 45.7682 	 20.1952 	 81.1554
| 21> H 	 45.7341 	 21.0297 	 82.751
| 22> H 	 46.5193 	 19.4573 	 82.4964
| 23> S 	 45.1909 	 16.3782 	 75.7149
| 24> C 	 46.6597 	 16.7745 	 74.8113
| 25> C 	 47.3347 	 17.8168 	 75.4637
| 26> C 	 46.675 	 18.392 	 76.6391
| 27> C 	 45.5022 	 17.6536 	 76.8863
| 28> H 	 48.2979 	 18.1783 	 75.1555
| 29> C 	 47.2673 	 19.4677 	 77.4975
| 30> H 	 46.6614 	 19.6828 	 78.3301
| 31> H 	 47.1058 	 20.4157 	 76.9427
| 32> C 	 48.7584 	 19.3076 	 77.8466
| 33> H 	 49.1292 	 20.2022 	 78.2681
| 34> H 	 49.3536 	 19.2103 	 76.9972
| 35> C 	 49.1218 	 18.3193 	 78.9139
| 36> H 	 48.8574 	 17.2911 	 78.6159
| 37> H 	 48.2864 	 18.4239 	 79.7128
| 38> H 	 50.1654 	 18.4079 	 79.2322
| 39> H 	 41.9178 	 18.2554 	 80.2676
| 40> H 	 47.152 	 16.2769 	 73.9844
| 41> *
| 42>
| 43>                          ****END OF INPUT****

CARTESIAN COORDINATES (ANGSTROEM)
---------------------------------
  S     43.054200   18.164700   78.038500
  C     42.856600   18.307900   79.737000
  C     44.042700   18.029300   80.405100
  C     45.084400   17.669600   79.442100
  C     44.679300   17.696200   78.105200
  H     46.113600   17.405100   79.722000
  C     44.295100   17.947100   81.897800
  H     45.192100   17.339800   82.053800
  H     43.484300   17.358700   82.259600
  C     44.368700   19.379200   82.568900
  H     43.491100   19.968500   82.361300
  H     44.427700   19.133900   83.631700
  C     45.669400   20.068000   82.249800
  H     45.768200   20.195200   81.155400
  H     45.734100   21.029700   82.751000
  H     46.519300   19.457300   82.496400
  S     45.190900   16.378200   75.714900
  C     46.659700   16.774500   74.811300
  C     47.334700   17.816800   75.463700
  C     46.675000   18.392000   76.639100
  C     45.502200   17.653600   76.886300
  H     48.297900   18.178300   75.155500
  C     47.267300   19.467700   77.497500
  H     46.661400   19.682800   78.330100
  H     47.105800   20.415700   76.942700
  C     48.758400   19.307600   77.846600
  H     49.129200   20.202200   78.268100
  H     49.353600   19.210300   76.997200
  C     49.121800   18.319300   78.913900
  H     48.857400   17.291100   78.615900
  H     48.286400   18.423900   79.712800
  H     50.165400   18.407900   79.232200
  H     41.917800   18.255400   80.267600
  H     47.152000   16.276900   73.984400

 Total Charge           Charge          ....    0
 Multiplicity           Mult            ....    1
 Number of Electrons    NEL             ....  134
 Basis Dimension        Dim             ....  322

ORBITAL ENERGIES
----------------

  NO   OCC          E(Eh)            E(eV)
   0   2.0000     -88.969752     -2420.9900
   1   2.0000     -88.962826     -2420.8016
   2   2.0000     -10.329865      -281.0899
   3   2.0000     -10.325066      -280.9593
   4   2.0000     -10.323094      -280.9057
   5   2.0000     -10.309308      -280.5305
   6   2.0000     -10.309100      -280.5249
   7   2.0000     -10.302515      -280.3457
   8   2.0000     -10.298028      -280.2236
   9   2.0000     -10.296400      -280.1793
  10   2.0000     -10.293518      -280.1009
  11   2.0000     -10.292347      -280.0690
  12   2.0000     -10.288809      -279.9727
  13   2.0000     -10.285224      -279.8752
  14   2.0000     -10.279133      -279.7094
  15   2.0000     -10.275353      -279.6066
  16   2.0000      -8.083612      -219.9663
  17   2.0000      -8.079120      -219.8440
  18   2.0000      -6.042267      -164.4184
  19   2.0000      -6.038204      -164.3079
  20   2.0000      -6.037550      -164.2901
  21   2.0000      -6.034294      -164.2015
  22   2.0000      -6.033148      -164.1703
  23   2.0000      -6.030128      -164.0881
  24   2.0000      -1.006982       -27.4014
  25   2.0000      -0.980399       -26.6780
  26   2.0000      -0.915619       -24.9153
  27   2.0000      -0.912007       -24.8170
  28   2.0000      -0.867307       -23.6006
  29   2.0000      -0.852960       -23.2102
  30   2.0000      -0.844096       -22.9690
  31   2.0000      -0.812322       -22.1044
  32   2.0000      -0.785161       -21.3653
  33   2.0000      -0.773760       -21.0551
  34   2.0000      -0.708338       -19.2749
  35   2.0000      -0.703733       -19.1496
  36   2.0000      -0.695577       -18.9276
  37   2.0000      -0.655282       -17.8311
  38   2.0000      -0.639456       -17.4005
  39   2.0000      -0.613928       -16.7058
  40   2.0000      -0.598227       -16.2786
  41   2.0000      -0.574644       -15.6369
  42   2.0000      -0.561877       -15.2895
  43   2.0000      -0.551296       -15.0015
  44   2.0000      -0.546765       -14.8782
  45   2.0000      -0.538165       -14.6442
  46   2.0000      -0.519002       -14.1228
  47   2.0000      -0.513058       -13.9610
  48   2.0000      -0.502525       -13.6744
  49   2.0000      -0.500176       -13.6105
  50   2.0000      -0.488188       -13.2843
  51   2.0000      -0.472661       -12.8618
  52   2.0000      -0.471644       -12.8341
  53   2.0000      -0.469924       -12.7873
  54   2.0000      -0.458071       -12.4647
  55   2.0000      -0.451241       -12.2789
  56   2.0000      -0.443979       -12.0813
  57   2.0000      -0.439380       -11.9561
  58   2.0000      -0.436990       -11.8911
  59   2.0000      -0.428968       -11.6728
  60   2.0000      -0.423285       -11.5182
  61   2.0000      -0.411725       -11.2036
  62   2.0000      -0.408653       -11.1200
  63   2.0000      -0.336884        -9.1671
  64   2.0000      -0.328037        -8.9263
  65   2.0000      -0.325694        -8.8626
  66   2.0000      -0.300667        -8.1816
  67   0.0000       0.034157         0.9295
  68   0.0000       0.065712         1.7881
  69   0.0000       0.113711         3.0942
  70   0.0000       0.119955         3.2641
  71   0.0000       0.125234         3.4078

MULLIKEN ATOMIC CHARGES
-----------------------
   0 S :    0.120735
   1 C :   -0.109128
   2 C :   -0.137818
   3 C :    0.012911
   4 C :   -0.152053
   5 H :    0.003758
   6 C :    0.060722
   7 H :    0.023907
   8 H :    0.025007
   9 C :   -0.052695
  10 H :    0.037355
  11 H :    0.030879
  12 C :   -0.047467
  13 H :    0.035486
  14 H :    0.040543
  15 H :    0.020220
  16 S :    0.119169
  17 C :   -0.077075
  18 C :   -0.049063
  19 C :   -0.026635
  20 C :   -0.172882
  21 H :    0.009969
  22 C :    0.091175
  23 H :    0.005918
  24 H :    0.037135
  25 C :   -0.022845
  26 H :    0.009114
  27 H :    0.007071
  28 C :   -0.067711
  29 H :    0.031764
  30 H :    0.026540
  31 H :    0.054275
  32 H :    0.050725
  33 H :    0.060996
Sum of atomic charges:   -0.0000000

LOEWDIN ATOMIC CHARGES
----------------------
   0 S :    0.449484
   1 C :   -0.222150
   2 C :   -0.061412
   3 C :   -0.072518
   4 C :   -0.222296
   5 H :    0.026319
   6 C :   -0.028086
   7 H :    0.031525
   8 H :    0.028070
   9 C :   -0.031719
  10 H :    0.023992
  11 H :    0.025336
  12 C :   -0.065840
  13 H :    0.025972
  14 H :    0.027811
  15 H :    0.021784
  16 S :    0.402257
  17 C :   -0.188009
  18 C :   -0.064559
  19 C :   -0.046006
  20 C :   -0.205774
  21 H :    0.022770
  22 C :   -0.029772
  23 H :    0.025463
  24 H :    0.045918
  25 C :   -0.037359
  26 H :    0.023715
  27 H :    0.013012
  28 C :   -0.070120
  29 H :    0.022718
  30 H :    0.032212
  31 H :    0.031775
  32 H :    0.029456
  33 H :    0.036033

  Mayer bond orders larger than 0.100000
B(  0-S ,  1-C ) :   1.1596 B(  0-S ,  4-C ) :   1.1932 B(  1-C ,  2-C ) :   1.5847
B(  1-C , 32-H ) :   0.9637 B(  2-C ,  3-C ) :   1.2696 B(  2-C ,  6-C ) :   1.0125
B(  3-C ,  4-C ) :   1.5398 B(  3-C ,  5-H ) :   0.9958 B(  4-C , 20-C ) :   0.9898
B(  6-C ,  7-H ) :   0.9474 B(  6-C ,  8-H ) :   0.9384 B(  6-C ,  9-C ) :   1.0636
B(  9-C , 10-H ) :   0.9597 B(  9-C , 11-H ) :   0.9555 B(  9-C , 12-C ) :   1.0786
B( 12-C , 13-H ) :   0.9759 B( 12-C , 14-H ) :   0.9705 B( 12-C , 15-H ) :   0.9717
B( 16-S , 17-C ) :   1.1349 B( 16-S , 20-C ) :   1.1490 B( 17-C , 18-C ) :   1.6262
B( 17-C , 33-H ) :   0.9678 B( 18-C , 19-C ) :   1.2294 B( 18-C , 21-H ) :   0.9831
B( 19-C , 20-C ) :   1.5824 B( 19-C , 22-C ) :   1.0506 B( 22-C , 23-H ) :   0.9300
B( 22-C , 24-H ) :   0.9152 B( 22-C , 25-C ) :   1.0828 B( 25-C , 26-H ) :   0.9453
B( 25-C , 27-H ) :   0.9498 B( 25-C , 28-C ) :   1.0739 B( 28-C , 29-H ) :   0.9753
B( 28-C , 30-H ) :   0.9650 B( 28-C , 31-H ) :   0.9704

Dispersion correction           -0.015745646
FINAL SINGLE POINT ENERGY     -1339.874731197629

DIPOLE MOMENT
-------------
                                X             Y             Z
Electronic contribution:    -17.37815     -11.45618     -22.02081
Nuclear contribution   :     17.96488      11.67246      22.51758
                        -----------------------------------------
Total Dipole Moment    :      0.58672       0.21629       0.49677
                        -----------------------------------------
Magnitude (a.u.)       :      0.79862
Magnitude (Debye)      :      2.02994

Rotational constants in cm-1:     0.018909     0.009973     0.007138
Rotational constants in MHz :   566.869490   298.994924   213.989670

                             ****ORCA TERMINATED NORMALLY****
TOTAL RUN TIME: 0 days 0 hours 0 minutes 32 seconds 898 msec
