                         Program Version 4.2.1 -  RELEASE  -
|  1> ! wB97X-D3 SP def2-SVP
|  2> %pal
|  3> nprocs 16
|  4> end
|  5>
|  6> * xyz 0 1
|  7> S 	 -35.3991 	 41.5078 	 98.0317
|  8> C 	 -34.3134 	 41.3521 	 99.4309
|  9> C 	 -33.0109 	 41.2373 	 99.0753
| 10> C 	 -32.8466 	 41.3156 	 97.6693
| 11> C 	 -34.0433 	 41.3905 	 97.0035
| 12> H 	 -31.8543 	 41.2783 	 97.1531
| 13> C 	 -31.8317 	 40.9854 	 99.9792
| 14> H 	 -31.6011 	 41.703 	 100.715
| 15> H 	 -30.999 	 40.9693 	 99.3379
| 16> C 	 -31.9593 	 39.5672 	 100.612
| 17> H 	 -32.7579 	 39.7463 	 101.35
| 18> H 	 -32.3244 	 38.7952 	 99.9196
| 19> C 	 -30.6256 	 39.1612 	 101.219
| 20> H 	 -30.4847 	 39.9551 	 101.96
| 21> H 	 -30.5206 	 38.2185 	 101.791
| 22> H 	 -29.7413 	 39.1814 	 100.603
| 23> S 	 -35.2682 	 43.1204 	 95.223
| 24> C 	 -35.0268 	 42.8816 	 93.5325
| 25> C 	 -34.3483 	 41.7001 	 93.2941
| 26> C 	 -33.8973 	 40.9723 	 94.4557
| 27> C 	 -34.2981 	 41.6702 	 95.6117
| 28> H 	 -34.1661 	 41.4166 	 92.2606
| 29> C 	 -32.9364 	 39.8184 	 94.3915
| 30> H 	 -32.303 	 39.7099 	 95.2378
| 31> H 	 -32.2737 	 40.0563 	 93.5756
| 32> C 	 -33.5639 	 38.492 	 94.0483
| 33> H 	 -34.191 	 38.6763 	 93.161
| 34> H 	 -34.2868 	 38.2803 	 94.7731
| 35> C 	 -32.5559 	 37.3906 	 93.8955
| 36> H 	 -33.0656 	 36.4533 	 93.9536
| 37> H 	 -31.9085 	 37.3966 	 94.7424
| 38> H 	 -31.893 	 37.4882 	 92.9873
| 39> H 	 -34.6099 	 41.2969 	 100.521
| 40> H 	 -35.4326 	 43.5467 	 92.7762
| 41> *
| 42>
| 43>                          ****END OF INPUT****

CARTESIAN COORDINATES (ANGSTROEM)
---------------------------------
  S    -35.399100   41.507800   98.031700
  C    -34.313400   41.352100   99.430900
  C    -33.010900   41.237300   99.075300
  C    -32.846600   41.315600   97.669300
  C    -34.043300   41.390500   97.003500
  H    -31.854300   41.278300   97.153100
  C    -31.831700   40.985400   99.979200
  H    -31.601100   41.703000  100.715000
  H    -30.999000   40.969300   99.337900
  C    -31.959300   39.567200  100.612000
  H    -32.757900   39.746300  101.350000
  H    -32.324400   38.795200   99.919600
  C    -30.625600   39.161200  101.219000
  H    -30.484700   39.955100  101.960000
  H    -30.520600   38.218500  101.791000
  H    -29.741300   39.181400  100.603000
  S    -35.268200   43.120400   95.223000
  C    -35.026800   42.881600   93.532500
  C    -34.348300   41.700100   93.294100
  C    -33.897300   40.972300   94.455700
  C    -34.298100   41.670200   95.611700
  H    -34.166100   41.416600   92.260600
  C    -32.936400   39.818400   94.391500
  H    -32.303000   39.709900   95.237800
  H    -32.273700   40.056300   93.575600
  C    -33.563900   38.492000   94.048300
  H    -34.191000   38.676300   93.161000
  H    -34.286800   38.280300   94.773100
  C    -32.555900   37.390600   93.895500
  H    -33.065600   36.453300   93.953600
  H    -31.908500   37.396600   94.742400
  H    -31.893000   37.488200   92.987300
  H    -34.609900   41.296900  100.521000
  H    -35.432600   43.546700   92.776200

 Total Charge           Charge          ....    0
 Multiplicity           Mult            ....    1
 Number of Electrons    NEL             ....  134
 Basis Dimension        Dim             ....  322

ORBITAL ENERGIES
----------------

  NO   OCC          E(Eh)            E(eV)
   0   2.0000     -88.966818     -2420.9102
   1   2.0000     -88.964001     -2420.8336
   2   2.0000     -10.326489      -280.9981
   3   2.0000     -10.322209      -280.8816
   4   2.0000     -10.315379      -280.6957
   5   2.0000     -10.312989      -280.6307
   6   2.0000     -10.305313      -280.4218
   7   2.0000     -10.295320      -280.1499
   8   2.0000     -10.294254      -280.1209
   9   2.0000     -10.293636      -280.1041
  10   2.0000     -10.291494      -280.0458
  11   2.0000     -10.285956      -279.8951
  12   2.0000     -10.283936      -279.8401
  13   2.0000     -10.279136      -279.7095
  14   2.0000     -10.275994      -279.6240
  15   2.0000     -10.275223      -279.6030
  16   2.0000      -8.082000      -219.9224
  17   2.0000      -8.078701      -219.8326
  18   2.0000      -6.040511      -164.3707
  19   2.0000      -6.037203      -164.2806
  20   2.0000      -6.036518      -164.2620
  21   2.0000      -6.033193      -164.1715
  22   2.0000      -6.032641      -164.1565
  23   2.0000      -6.029477      -164.0704
  24   2.0000      -1.010792       -27.5051
  25   2.0000      -0.982912       -26.7464
  26   2.0000      -0.919747       -25.0276
  27   2.0000      -0.917781       -24.9741
  28   2.0000      -0.869822       -23.6691
  29   2.0000      -0.855585       -23.2817
  30   2.0000      -0.844159       -22.9707
  31   2.0000      -0.810059       -22.0428
  32   2.0000      -0.786912       -21.4130
  33   2.0000      -0.773700       -21.0535
  34   2.0000      -0.709392       -19.3035
  35   2.0000      -0.705477       -19.1970
  36   2.0000      -0.694475       -18.8976
  37   2.0000      -0.658720       -17.9247
  38   2.0000      -0.636423       -17.3179
  39   2.0000      -0.620886       -16.8952
  40   2.0000      -0.602954       -16.4072
  41   2.0000      -0.569005       -15.4834
  42   2.0000      -0.565725       -15.3942
  43   2.0000      -0.562540       -15.3075
  44   2.0000      -0.527986       -14.3672
  45   2.0000      -0.523782       -14.2528
  46   2.0000      -0.519181       -14.1276
  47   2.0000      -0.512562       -13.9475
  48   2.0000      -0.502392       -13.6708
  49   2.0000      -0.498908       -13.5760
  50   2.0000      -0.494460       -13.4549
  51   2.0000      -0.483124       -13.1465
  52   2.0000      -0.469007       -12.7623
  53   2.0000      -0.465946       -12.6790
  54   2.0000      -0.462740       -12.5918
  55   2.0000      -0.453241       -12.3333
  56   2.0000      -0.447888       -12.1877
  57   2.0000      -0.438135       -11.9223
  58   2.0000      -0.430704       -11.7200
  59   2.0000      -0.430321       -11.7096
  60   2.0000      -0.424489       -11.5509
  61   2.0000      -0.415283       -11.3004
  62   2.0000      -0.412866       -11.2346
  63   2.0000      -0.344127        -9.3642
  64   2.0000      -0.334724        -9.1083
  65   2.0000      -0.328209        -8.9310
  66   2.0000      -0.290075        -7.8933
  67   0.0000       0.034144         0.9291
  68   0.0000       0.068275         1.8579
  69   0.0000       0.107707         2.9308
  70   0.0000       0.120402         3.2763
  71   0.0000       0.134914         3.6712

MULLIKEN ATOMIC CHARGES
-----------------------
   0 S :    0.112685
   1 C :   -0.151994
   2 C :   -0.088727
   3 C :    0.017432
   4 C :   -0.154157
   5 H :    0.033880
   6 C :    0.113843
   7 H :    0.027378
   8 H :   -0.009153
   9 C :   -0.088258
  10 H :    0.031740
  11 H :    0.042654
  12 C :   -0.046468
  13 H :    0.015944
  14 H :    0.039188
  15 H :    0.030037
  16 S :    0.110150
  17 C :   -0.097161
  18 C :   -0.037917
  19 C :   -0.009742
  20 C :   -0.178932
  21 H :    0.016506
  22 C :    0.092443
  23 H :    0.001530
  24 H :    0.013690
  25 C :   -0.074050
  26 H :    0.018523
  27 H :    0.013671
  28 C :    0.002845
  29 H :    0.029689
  30 H :    0.011727
  31 H :    0.039819
  32 H :    0.059110
  33 H :    0.062075
Sum of atomic charges:   -0.0000000

LOEWDIN ATOMIC CHARGES
----------------------
   0 S :    0.416777
   1 C :   -0.201958
   2 C :   -0.063560
   3 C :   -0.068093
   4 C :   -0.204700
   5 H :    0.039262
   6 C :   -0.018498
   7 H :    0.025782
   8 H :    0.019265
   9 C :   -0.033938
  10 H :    0.025238
  11 H :    0.025391
  12 C :   -0.075881
  13 H :    0.026748
  14 H :    0.029200
  15 H :    0.022769
  16 S :    0.398092
  17 C :   -0.196541
  18 C :   -0.072155
  19 C :   -0.049989
  20 C :   -0.191048
  21 H :    0.028601
  22 C :   -0.027250
  23 H :    0.021246
  24 H :    0.030804
  25 C :   -0.039237
  26 H :    0.024552
  27 H :    0.018382
  28 C :   -0.059864
  29 H :    0.026863
  30 H :    0.020778
  31 H :    0.032905
  32 H :    0.037860
  33 H :    0.032198

  Mayer bond orders larger than 0.100000
B(  0-S ,  1-C ) :   1.1180 B(  0-S ,  4-C ) :   1.1621 B(  1-C ,  2-C ) :   1.6347
B(  1-C , 32-H ) :   0.9593 B(  2-C ,  3-C ) :   1.2519 B(  2-C ,  6-C ) :   1.0178
B(  3-C ,  4-C ) :   1.5786 B(  3-C ,  5-H ) :   0.9799 B(  4-C , 20-C ) :   1.0349
B(  6-C ,  7-H ) :   0.9371 B(  6-C ,  8-H ) :   0.9388 B(  6-C ,  9-C ) :   1.0422
B(  9-C , 10-H ) :   0.9597 B(  9-C , 11-H ) :   0.9632 B(  9-C , 12-C ) :   1.0672
B( 12-C , 13-H ) :   0.9701 B( 12-C , 14-H ) :   0.9749 B( 12-C , 15-H ) :   0.9787
B( 16-S , 17-C ) :   1.1476 B( 16-S , 20-C ) :   1.1428 B( 17-C , 18-C ) :   1.6162
B( 17-C , 33-H ) :   0.9679 B( 18-C , 19-C ) :   1.2319 B( 18-C , 21-H ) :   0.9854
B( 19-C , 20-C ) :   1.5849 B( 19-C , 22-C ) :   1.0416 B( 22-C , 23-H ) :   0.9326
B( 22-C , 24-H ) :   0.9306 B( 22-C , 25-C ) :   1.0643 B( 25-C , 26-H ) :   0.9530
B( 25-C , 27-H ) :   0.9505 B( 25-C , 28-C ) :   1.0869 B( 28-C , 29-H ) :   0.9711
B( 28-C , 30-H ) :   0.9681 B( 28-C , 31-H ) :   0.9727

Dispersion correction           -0.013517664
FINAL SINGLE POINT ENERGY     -1339.878810048401

DIPOLE MOMENT
-------------
                                X             Y             Z
Electronic contribution:    -20.59222      21.25988      -5.38778
Nuclear contribution   :     21.16506     -21.58672       5.39199
                        -----------------------------------------
Total Dipole Moment    :      0.57284      -0.32684       0.00421
                        -----------------------------------------
Magnitude (a.u.)       :      0.65954
Magnitude (Debye)      :      1.67642

Rotational constants in cm-1:     0.017839     0.008576     0.006356
Rotational constants in MHz :   534.802410   257.111306   190.561621

                             ****ORCA TERMINATED NORMALLY****
TOTAL RUN TIME: 0 days 0 hours 0 minutes 29 seconds 220 msec
