                         Program Version 4.2.1 -  RELEASE  -
|  1> ! wB97X-D3 SP def2-SVP
|  2> %pal
|  3> nprocs 16
|  4> end
|  5>
|  6> * xyz 0 1
|  7> S 	 9.79724 	 -13.5731 	 70.0298
|  8> C 	 8.36348 	 -12.8749 	 69.3529
|  9> C 	 8.6955 	 -12.2832 	 68.1498
| 10> C 	 10.1373 	 -12.2641 	 67.8533
| 11> C 	 10.8546 	 -12.9211 	 68.8289
| 12> H 	 10.6414 	 -11.7479 	 67.0576
| 13> C 	 7.6889 	 -11.6969 	 67.2174
| 14> H 	 6.65816 	 -11.8501 	 67.5383
| 15> H 	 7.73746 	 -12.1306 	 66.2283
| 16> C 	 7.77103 	 -10.1623 	 67.1651
| 17> H 	 7.52934 	 -9.89043 	 68.1482
| 18> H 	 8.78911 	 -9.84577 	 67.0834
| 19> C 	 6.88375 	 -9.44402 	 66.0891
| 20> H 	 5.84386 	 -9.57334 	 66.4091
| 21> H 	 7.1684 	 -8.38145 	 66.1361
| 22> H 	 6.99154 	 -9.74606 	 65.0381
| 23> S 	 12.8509 	 -14.7762 	 68.8272
| 24> C 	 14.5529 	 -14.3228 	 68.949
| 25> C 	 14.5673 	 -12.9734 	 69.102
| 26> C 	 13.3019 	 -12.2834 	 69.0803
| 27> C 	 12.2933 	 -13.1094 	 68.9884
| 28> H 	 15.5232 	 -12.4042 	 69.1714
| 29> C 	 13.2243 	 -10.8307 	 69.2581
| 30> H 	 13.683 	 -10.6536 	 70.2825
| 31> H 	 12.1558 	 -10.581 	 69.2965
| 32> C 	 13.7734 	 -9.80513 	 68.1953
| 33> H 	 13.2681 	 -9.7941 	 67.2763
| 34> H 	 14.8588 	 -10.1042 	 68.0067
| 35> C 	 13.6905 	 -8.33693 	 68.6665
| 36> H 	 13.5692 	 -7.60779 	 67.8125
| 37> H 	 14.5857 	 -8.02336 	 69.2528
| 38> H 	 12.8279 	 -8.09745 	 69.3631
| 39> H 	 7.38382 	 -13.1098 	 69.7711
| 40> H 	 15.4291 	 -14.9777 	 68.9613
| 41> *
| 42>
| 43>                          ****END OF INPUT****

CARTESIAN COORDINATES (ANGSTROEM)
---------------------------------
  S      9.797240  -13.573100   70.029800
  C      8.363480  -12.874900   69.352900
  C      8.695500  -12.283200   68.149800
  C     10.137300  -12.264100   67.853300
  C     10.854600  -12.921100   68.828900
  H     10.641400  -11.747900   67.057600
  C      7.688900  -11.696900   67.217400
  H      6.658160  -11.850100   67.538300
  H      7.737460  -12.130600   66.228300
  C      7.771030  -10.162300   67.165100
  H      7.529340   -9.890430   68.148200
  H      8.789110   -9.845770   67.083400
  C      6.883750   -9.444020   66.089100
  H      5.843860   -9.573340   66.409100
  H      7.168400   -8.381450   66.136100
  H      6.991540   -9.746060   65.038100
  S     12.850900  -14.776200   68.827200
  C     14.552900  -14.322800   68.949000
  C     14.567300  -12.973400   69.102000
  C     13.301900  -12.283400   69.080300
  C     12.293300  -13.109400   68.988400
  H     15.523200  -12.404200   69.171400
  C     13.224300  -10.830700   69.258100
  H     13.683000  -10.653600   70.282500
  H     12.155800  -10.581000   69.296500
  C     13.773400   -9.805130   68.195300
  H     13.268100   -9.794100   67.276300
  H     14.858800  -10.104200   68.006700
  C     13.690500   -8.336930   68.666500
  H     13.569200   -7.607790   67.812500
  H     14.585700   -8.023360   69.252800
  H     12.827900   -8.097450   69.363100
  H      7.383820  -13.109800   69.771100
  H     15.429100  -14.977700   68.961300

 Total Charge           Charge          ....    0
 Multiplicity           Mult            ....    1
 Number of Electrons    NEL             ....  134
 Basis Dimension        Dim             ....  322

ORBITAL ENERGIES
----------------

  NO   OCC          E(Eh)            E(eV)
   0   2.0000     -88.961072     -2420.7538
   1   2.0000     -88.958117     -2420.6734
   2   2.0000     -10.329643      -281.0839
   3   2.0000     -10.320562      -280.8368
   4   2.0000     -10.320148      -280.8255
   5   2.0000     -10.316225      -280.7188
   6   2.0000     -10.306475      -280.4534
   7   2.0000     -10.300021      -280.2778
   8   2.0000     -10.295438      -280.1531
   9   2.0000     -10.295303      -280.1494
  10   2.0000     -10.293682      -280.1053
  11   2.0000     -10.293258      -280.0938
  12   2.0000     -10.290218      -280.0111
  13   2.0000     -10.286001      -279.8963
  14   2.0000     -10.284653      -279.8596
  15   2.0000     -10.279670      -279.7240
  16   2.0000      -8.076925      -219.7843
  17   2.0000      -8.073010      -219.6778
  18   2.0000      -6.035420      -164.2321
  19   2.0000      -6.031834      -164.1346
  20   2.0000      -6.031110      -164.1148
  21   2.0000      -6.027779      -164.0242
  22   2.0000      -6.027495      -164.0165
  23   2.0000      -6.023389      -163.9047
  24   2.0000      -1.013775       -27.5862
  25   2.0000      -0.989472       -26.9249
  26   2.0000      -0.912671       -24.8350
  27   2.0000      -0.906065       -24.6553
  28   2.0000      -0.873293       -23.7635
  29   2.0000      -0.851673       -23.1752
  30   2.0000      -0.842946       -22.9377
  31   2.0000      -0.819299       -22.2943
  32   2.0000      -0.778346       -21.1799
  33   2.0000      -0.771479       -20.9930
  34   2.0000      -0.708843       -19.2886
  35   2.0000      -0.700374       -19.0581
  36   2.0000      -0.696102       -18.9419
  37   2.0000      -0.665041       -18.0967
  38   2.0000      -0.651740       -17.7348
  39   2.0000      -0.620454       -16.8834
  40   2.0000      -0.596195       -16.2233
  41   2.0000      -0.566352       -15.4112
  42   2.0000      -0.563428       -15.3316
  43   2.0000      -0.559624       -15.2281
  44   2.0000      -0.527879       -14.3643
  45   2.0000      -0.523762       -14.2523
  46   2.0000      -0.517775       -14.0894
  47   2.0000      -0.514917       -14.0116
  48   2.0000      -0.513529       -13.9738
  49   2.0000      -0.502901       -13.6846
  50   2.0000      -0.495552       -13.4847
  51   2.0000      -0.480930       -13.0868
  52   2.0000      -0.466341       -12.6898
  53   2.0000      -0.464256       -12.6331
  54   2.0000      -0.461138       -12.5482
  55   2.0000      -0.449667       -12.2361
  56   2.0000      -0.447967       -12.1898
  57   2.0000      -0.435630       -11.8541
  58   2.0000      -0.433531       -11.7970
  59   2.0000      -0.419628       -11.4187
  60   2.0000      -0.415073       -11.2947
  61   2.0000      -0.413030       -11.2391
  62   2.0000      -0.409913       -11.1543
  63   2.0000      -0.345302        -9.3961
  64   2.0000      -0.329697        -8.9715
  65   2.0000      -0.323719        -8.8088
  66   2.0000      -0.309645        -8.4259
  67   0.0000       0.043304         1.1784
  68   0.0000       0.068610         1.8670
  69   0.0000       0.114151         3.1062
  70   0.0000       0.126900         3.4531
  71   0.0000       0.127714         3.4753

MULLIKEN ATOMIC CHARGES
-----------------------
   0 S :    0.105327
   1 C :   -0.116038
   2 C :   -0.106068
   3 C :    0.062539
   4 C :   -0.176751
   5 H :    0.012306
   6 C :    0.083597
   7 H :    0.006124
   8 H :    0.028168
   9 C :   -0.077917
  10 H :    0.007899
  11 H :    0.012383
  12 C :   -0.047244
  13 H :    0.035524
  14 H :    0.039791
  15 H :    0.041250
  16 S :    0.082595
  17 C :   -0.083397
  18 C :   -0.045489
  19 C :    0.012023
  20 C :   -0.149661
  21 H :    0.025755
  22 C :    0.004847
  23 H :    0.050911
  24 H :    0.027842
  25 C :   -0.042508
  26 H :    0.022639
  27 H :    0.036321
  28 C :   -0.107527
  29 H :    0.044349
  30 H :    0.041495
  31 H :    0.040332
  32 H :    0.061261
  33 H :    0.067323
Sum of atomic charges:    0.0000000

LOEWDIN ATOMIC CHARGES
----------------------
   0 S :    0.420110
   1 C :   -0.201719
   2 C :   -0.059052
   3 C :   -0.057991
   4 C :   -0.197176
   5 H :    0.031413
   6 C :   -0.034335
   7 H :    0.026922
   8 H :    0.027346
   9 C :   -0.035814
  10 H :    0.018201
  11 H :    0.013525
  12 C :   -0.066682
  13 H :    0.026037
  14 H :    0.031550
  15 H :    0.027012
  16 S :    0.380464
  17 C :   -0.176526
  18 C :   -0.074798
  19 C :   -0.071444
  20 C :   -0.189384
  21 H :    0.032570
  22 C :   -0.038246
  23 H :    0.045028
  24 H :    0.031901
  25 C :   -0.038398
  26 H :    0.017432
  27 H :    0.028904
  28 C :   -0.081238
  29 H :    0.031804
  30 H :    0.028112
  31 H :    0.031028
  32 H :    0.033654
  33 H :    0.039790

  Mayer bond orders larger than 0.100000
B(  0-S ,  1-C ) :   1.1344 B(  0-S ,  4-C ) :   1.1767 B(  1-C ,  2-C ) :   1.6102
B(  1-C , 32-H ) :   0.9735 B(  2-C ,  3-C ) :   1.2005 B(  2-C ,  6-C ) :   1.0461
B(  3-C ,  4-C ) :   1.5915 B(  3-C ,  5-H ) :   1.0023 B(  4-C , 20-C ) :   0.9702
B(  6-C ,  7-H ) :   0.9436 B(  6-C ,  8-H ) :   0.9399 B(  6-C ,  9-C ) :   1.0438
B(  9-C , 10-H ) :   0.9527 B(  9-C , 11-H ) :   0.9658 B(  9-C , 12-C ) :   1.0712
B( 12-C , 13-H ) :   0.9764 B( 12-C , 14-H ) :   0.9749 B( 12-C , 15-H ) :   0.9776
B( 16-S , 17-C ) :   1.1250 B( 16-S , 20-C ) :   1.1189 B( 17-C , 18-C ) :   1.6452
B( 17-C , 33-H ) :   0.9691 B( 18-C , 19-C ) :   1.1841 B( 18-C , 21-H ) :   0.9804
B( 19-C , 20-C ) :   1.6892 B( 19-C , 22-C ) :   1.0578 B( 22-C , 23-H ) :   0.9372
B( 22-C , 24-H ) :   0.9260 B( 22-C , 25-C ) :   1.0565 B( 25-C , 26-H ) :   0.9598
B( 25-C , 27-H ) :   0.9587 B( 25-C , 28-C ) :   1.0645 B( 28-C , 29-H ) :   0.9788
B( 28-C , 30-H ) :   0.9772 B( 28-C , 31-H ) :   0.9742

Dispersion correction           -0.013711016
FINAL SINGLE POINT ENERGY     -1339.879082427956

DIPOLE MOMENT
-------------
                                X             Y             Z
Electronic contribution:      5.80441     -28.99815      10.94156
Nuclear contribution   :     -5.78798      29.63023     -11.20600
                        -----------------------------------------
Total Dipole Moment    :      0.01643       0.63208      -0.26444
                        -----------------------------------------
Magnitude (a.u.)       :      0.68536
Magnitude (Debye)      :      1.74205

Rotational constants in cm-1:     0.016768     0.008895     0.006426
Rotational constants in MHz :   502.706256   266.670468   192.657888

                             ****ORCA TERMINATED NORMALLY****
TOTAL RUN TIME: 0 days 0 hours 0 minutes 31 seconds 971 msec
