                         Program Version 4.2.1 -  RELEASE  -
|  1> ! wB97X-D3 SP def2-SVP
|  2> %pal
|  3> nprocs 16
|  4> end
|  5>
|  6> * xyz 0 1
|  7> S 	 -54.7449 	 21.2709 	 92.0547
|  8> C 	 -53.0319 	 21.1338 	 92.1539
|  9> C 	 -52.4068 	 22.2788 	 91.7221
| 10> C 	 -53.3884 	 23.2599 	 91.2966
| 11> C 	 -54.7413 	 22.8638 	 91.3475
| 12> H 	 -53.2294 	 24.2807 	 90.8951
| 13> C 	 -50.945 	 22.6975 	 91.8814
| 14> H 	 -50.4452 	 22.3307 	 90.9986
| 15> H 	 -50.5625 	 22.2287 	 92.7844
| 16> C 	 -50.5567 	 24.2143 	 91.9963
| 17> H 	 -49.4552 	 24.2013 	 91.9503
| 18> H 	 -50.9569 	 24.7771 	 91.2058
| 19> C 	 -51.0324 	 24.8298 	 93.3068
| 20> H 	 -52.1064 	 25.1286 	 93.4009
| 21> H 	 -50.7925 	 24.1371 	 94.0514
| 22> H 	 -50.3146 	 25.6585 	 93.5026
| 23> S 	 -56.1923 	 23.8294 	 89.193
| 24> C 	 -57.344 	 25.081 	 89.4586
| 25> C 	 -57.5011 	 25.4022 	 90.7934
| 26> C 	 -56.5777 	 24.6921 	 91.5848
| 27> C 	 -55.8628 	 23.7071 	 90.9161
| 28> H 	 -58.1582 	 26.2018 	 91.042
| 29> C 	 -56.4717 	 25.0033 	 93.0594
| 30> H 	 -56.736 	 26.0495 	 93.1663
| 31> H 	 -55.4664 	 24.9271 	 93.3811
| 32> C 	 -57.3852 	 24.2235 	 93.9645
| 33> H 	 -57.0175 	 23.2061 	 93.7873
| 34> H 	 -58.418 	 24.3379 	 93.6333
| 35> C 	 -57.1573 	 24.6709 	 95.4181
| 36> H 	 -56.2788 	 24.192 	 95.9088
| 37> H 	 -58.0314 	 24.4071 	 96.0523
| 38> H 	 -57.1507 	 25.7647 	 95.3914
| 39> H 	 -52.5235 	 20.4113 	 92.7341
| 40> H 	 -57.9278 	 25.5317 	 88.7084
| 41> *
| 42>
| 43>                          ****END OF INPUT****

CARTESIAN COORDINATES (ANGSTROEM)
---------------------------------
  S    -54.744900   21.270900   92.054700
  C    -53.031900   21.133800   92.153900
  C    -52.406800   22.278800   91.722100
  C    -53.388400   23.259900   91.296600
  C    -54.741300   22.863800   91.347500
  H    -53.229400   24.280700   90.895100
  C    -50.945000   22.697500   91.881400
  H    -50.445200   22.330700   90.998600
  H    -50.562500   22.228700   92.784400
  C    -50.556700   24.214300   91.996300
  H    -49.455200   24.201300   91.950300
  H    -50.956900   24.777100   91.205800
  C    -51.032400   24.829800   93.306800
  H    -52.106400   25.128600   93.400900
  H    -50.792500   24.137100   94.051400
  H    -50.314600   25.658500   93.502600
  S    -56.192300   23.829400   89.193000
  C    -57.344000   25.081000   89.458600
  C    -57.501100   25.402200   90.793400
  C    -56.577700   24.692100   91.584800
  C    -55.862800   23.707100   90.916100
  H    -58.158200   26.201800   91.042000
  C    -56.471700   25.003300   93.059400
  H    -56.736000   26.049500   93.166300
  H    -55.466400   24.927100   93.381100
  C    -57.385200   24.223500   93.964500
  H    -57.017500   23.206100   93.787300
  H    -58.418000   24.337900   93.633300
  C    -57.157300   24.670900   95.418100
  H    -56.278800   24.192000   95.908800
  H    -58.031400   24.407100   96.052300
  H    -57.150700   25.764700   95.391400
  H    -52.523500   20.411300   92.734100
  H    -57.927800   25.531700   88.708400

 Total Charge           Charge          ....    0
 Multiplicity           Mult            ....    1
 Number of Electrons    NEL             ....  134
 Basis Dimension        Dim             ....  322

ORBITAL ENERGIES
----------------

  NO   OCC          E(Eh)            E(eV)
   0   2.0000     -88.966404     -2420.8989
   1   2.0000     -88.965786     -2420.8821
   2   2.0000     -10.330142      -281.0975
   3   2.0000     -10.326151      -280.9889
   4   2.0000     -10.313314      -280.6395
   5   2.0000     -10.311091      -280.5790
   6   2.0000     -10.303759      -280.3795
   7   2.0000     -10.301256      -280.3114
   8   2.0000     -10.297237      -280.2021
   9   2.0000     -10.293082      -280.0890
  10   2.0000     -10.289641      -279.9954
  11   2.0000     -10.287847      -279.9466
  12   2.0000     -10.281339      -279.7694
  13   2.0000     -10.280462      -279.7456
  14   2.0000     -10.278427      -279.6902
  15   2.0000     -10.276014      -279.6245
  16   2.0000      -8.081194      -219.9005
  17   2.0000      -8.080900      -219.8925
  18   2.0000      -6.039704      -164.3487
  19   2.0000      -6.039219      -164.3355
  20   2.0000      -6.035483      -164.2338
  21   2.0000      -6.035296      -164.2288
  22   2.0000      -6.032142      -164.1429
  23   2.0000      -6.031884      -164.1359
  24   2.0000      -1.007061       -27.4035
  25   2.0000      -0.988159       -26.8892
  26   2.0000      -0.914628       -24.8883
  27   2.0000      -0.910469       -24.7751
  28   2.0000      -0.872801       -23.7501
  29   2.0000      -0.850503       -23.1434
  30   2.0000      -0.844064       -22.9681
  31   2.0000      -0.813152       -22.1270
  32   2.0000      -0.781887       -21.2762
  33   2.0000      -0.771867       -21.0036
  34   2.0000      -0.708937       -19.2911
  35   2.0000      -0.696956       -18.9651
  36   2.0000      -0.691395       -18.8138
  37   2.0000      -0.665219       -18.1015
  38   2.0000      -0.639591       -17.4042
  39   2.0000      -0.618361       -16.8265
  40   2.0000      -0.599607       -16.3161
  41   2.0000      -0.577462       -15.7135
  42   2.0000      -0.571260       -15.5448
  43   2.0000      -0.554063       -15.0768
  44   2.0000      -0.539027       -14.6677
  45   2.0000      -0.521080       -14.1793
  46   2.0000      -0.518070       -14.0974
  47   2.0000      -0.512296       -13.9403
  48   2.0000      -0.502642       -13.6776
  49   2.0000      -0.500712       -13.6251
  50   2.0000      -0.488605       -13.2956
  51   2.0000      -0.481991       -13.1156
  52   2.0000      -0.473180       -12.8759
  53   2.0000      -0.469777       -12.7833
  54   2.0000      -0.460719       -12.5368
  55   2.0000      -0.445107       -12.1120
  56   2.0000      -0.440191       -11.9782
  57   2.0000      -0.436964       -11.8904
  58   2.0000      -0.430960       -11.7270
  59   2.0000      -0.423232       -11.5167
  60   2.0000      -0.419659       -11.4195
  61   2.0000      -0.414355       -11.2752
  62   2.0000      -0.414087       -11.2679
  63   2.0000      -0.335849        -9.1389
  64   2.0000      -0.326034        -8.8718
  65   2.0000      -0.320966        -8.7339
  66   2.0000      -0.314486        -8.5576
  67   0.0000       0.044044         1.1985
  68   0.0000       0.054107         1.4723
  69   0.0000       0.112818         3.0699
  70   0.0000       0.125795         3.4230
  71   0.0000       0.131080         3.5669

MULLIKEN ATOMIC CHARGES
-----------------------
   0 S :    0.117808
   1 C :   -0.109084
   2 C :   -0.073055
   3 C :    0.008905
   4 C :   -0.182323
   5 H :    0.023546
   6 C :    0.048836
   7 H :    0.041659
   8 H :    0.024239
   9 C :   -0.071719
  10 H :    0.036062
  11 H :    0.025376
  12 C :   -0.040872
  13 H :    0.060192
  14 H :    0.004652
  15 H :    0.032394
  16 S :    0.119532
  17 C :   -0.075893
  18 C :   -0.025249
  19 C :   -0.030758
  20 C :   -0.173263
  21 H :    0.012459
  22 C :    0.076188
  23 H :    0.001315
  24 H :    0.013523
  25 C :   -0.052303
  26 H :    0.021780
  27 H :    0.027329
  28 C :   -0.050427
  29 H :    0.051549
  30 H :    0.034357
  31 H :    0.026077
  32 H :    0.038500
  33 H :    0.038668
Sum of atomic charges:    0.0000000

LOEWDIN ATOMIC CHARGES
----------------------
   0 S :    0.425899
   1 C :   -0.202485
   2 C :   -0.066727
   3 C :   -0.063929
   4 C :   -0.216636
   5 H :    0.033020
   6 C :   -0.030571
   7 H :    0.033769
   8 H :    0.026953
   9 C :   -0.033324
  10 H :    0.032644
  11 H :    0.014516
  12 C :   -0.067883
  13 H :    0.033979
  14 H :    0.014090
  15 H :    0.032586
  16 S :    0.423588
  17 C :   -0.177406
  18 C :   -0.072837
  19 C :   -0.044942
  20 C :   -0.209762
  21 H :    0.030578
  22 C :   -0.030795
  23 H :    0.022477
  24 H :    0.023420
  25 C :   -0.037550
  26 H :    0.023181
  27 H :    0.023590
  28 C :   -0.069581
  29 H :    0.033879
  30 H :    0.028911
  31 H :    0.023721
  32 H :    0.023804
  33 H :    0.019825

  Mayer bond orders larger than 0.100000
B(  0-S ,  1-C ) :   1.1616 B(  0-S ,  4-C ) :   1.1509 B(  1-C ,  2-C ) :   1.5993
B(  1-C , 32-H ) :   0.9705 B(  2-C ,  3-C ) :   1.2567 B(  2-C ,  6-C ) :   0.9975
B(  3-C ,  4-C ) :   1.5728 B(  3-C ,  5-H ) :   0.9828 B(  4-C , 20-C ) :   1.0192
B(  6-C ,  7-H ) :   0.9312 B(  6-C ,  8-H ) :   0.9505 B(  6-C ,  9-C ) :   1.0961
B(  9-C , 10-H ) :   0.9527 B(  9-C , 11-H ) :   0.9479 B(  9-C , 12-C ) :   1.0787
B( 12-C , 13-H ) :   0.9728 B( 12-C , 14-H ) :   0.9731 B( 12-C , 15-H ) :   0.9730
B( 16-S , 17-C ) :   1.1875 B( 16-S , 20-C ) :   1.1357 B( 17-C , 18-C ) :   1.5903
B( 17-C , 33-H ) :   0.9683 B( 18-C , 19-C ) :   1.2561 B( 18-C , 21-H ) :   0.9965
B( 19-C , 20-C ) :   1.5921 B( 19-C , 22-C ) :   1.0476 B( 22-C , 23-H ) :   0.9227
B( 22-C , 24-H ) :   0.9295 B( 22-C , 25-C ) :   1.0718 B( 25-C , 26-H ) :   0.9514
B( 25-C , 27-H ) :   0.9556 B( 25-C , 28-C ) :   1.0775 B( 28-C , 29-H ) :   0.9745
B( 28-C , 30-H ) :   0.9746 B( 28-C , 31-H ) :   0.9725

Dispersion correction           -0.014668775
FINAL SINGLE POINT ENERGY     -1339.876536178224

DIPOLE MOMENT
-------------
                                X             Y             Z
Electronic contribution:     -9.77185     -12.38997     -19.40205
Nuclear contribution   :     10.08746      12.92322      19.72774
                        -----------------------------------------
Total Dipole Moment    :      0.31561       0.53325       0.32569
                        -----------------------------------------
Magnitude (a.u.)       :      0.70003
Magnitude (Debye)      :      1.77933

Rotational constants in cm-1:     0.016307     0.009188     0.007997
Rotational constants in MHz :   488.866146   275.453380   239.730334

                             ****ORCA TERMINATED NORMALLY****
TOTAL RUN TIME: 0 days 0 hours 0 minutes 30 seconds 817 msec
