                         Program Version 4.2.1 -  RELEASE  -
|  1> ! wB97X-D3 SP def2-SVP
|  2> %pal
|  3> nprocs 16
|  4> end
|  5>
|  6> * xyz 0 1
|  7> S 	 -55.2676 	 44.9919 	 113.583
|  8> C 	 -54.002 	 44.9869 	 112.36
|  9> C 	 -54.0732 	 43.8392 	 111.637
| 10> C 	 -55.1605 	 43.0105 	 112.063
| 11> C 	 -55.9012 	 43.4734 	 113.122
| 12> H 	 -55.3137 	 41.976 	 111.734
| 13> C 	 -52.9165 	 43.2688 	 110.756
| 14> H 	 -52.8574 	 43.9196 	 109.834
| 15> H 	 -53.2804 	 42.2599 	 110.396
| 16> C 	 -51.5801 	 43.1893 	 111.438
| 17> H 	 -51.254 	 44.1671 	 111.674
| 18> H 	 -51.7494 	 42.7509 	 112.38
| 19> C 	 -50.5944 	 42.3517 	 110.629
| 20> H 	 -50.3747 	 42.8895 	 109.678
| 21> H 	 -49.6509 	 42.2517 	 111.115
| 22> H 	 -50.8894 	 41.3803 	 110.404
| 23> S 	 -56.8788 	 41.1608 	 113.839
| 24> C 	 -58.3138 	 41.0727 	 114.846
| 25> C 	 -58.8103 	 42.3062 	 115.135
| 26> C 	 -58.1561 	 43.373 	 114.446
| 27> C 	 -57.0438 	 42.8703 	 113.805
| 28> H 	 -59.6064 	 42.2186 	 115.912
| 29> C 	 -58.6775 	 44.7462 	 114.508
| 30> H 	 -59.7471 	 44.8937 	 114.298
| 31> H 	 -58.1515 	 45.3163 	 113.737
| 32> C 	 -58.4666 	 45.3824 	 115.889
| 33> H 	 -57.369 	 45.4054 	 116.123
| 34> H 	 -58.9246 	 44.8056 	 116.7
| 35> C 	 -59.0251 	 46.8283 	 116.027
| 36> H 	 -58.4543 	 47.4506 	 115.373
| 37> H 	 -58.7967 	 47.0763 	 117.05
| 38> H 	 -60.1206 	 46.9169 	 115.816
| 39> H 	 -53.0729 	 45.5246 	 112.374
| 40> H 	 -58.6152 	 40.1645 	 115.372
| 41> *
| 42>
| 43>                          ****END OF INPUT****

CARTESIAN COORDINATES (ANGSTROEM)
---------------------------------
  S    -55.267600   44.991900  113.583000
  C    -54.002000   44.986900  112.360000
  C    -54.073200   43.839200  111.637000
  C    -55.160500   43.010500  112.063000
  C    -55.901200   43.473400  113.122000
  H    -55.313700   41.976000  111.734000
  C    -52.916500   43.268800  110.756000
  H    -52.857400   43.919600  109.834000
  H    -53.280400   42.259900  110.396000
  C    -51.580100   43.189300  111.438000
  H    -51.254000   44.167100  111.674000
  H    -51.749400   42.750900  112.380000
  C    -50.594400   42.351700  110.629000
  H    -50.374700   42.889500  109.678000
  H    -49.650900   42.251700  111.115000
  H    -50.889400   41.380300  110.404000
  S    -56.878800   41.160800  113.839000
  C    -58.313800   41.072700  114.846000
  C    -58.810300   42.306200  115.135000
  C    -58.156100   43.373000  114.446000
  C    -57.043800   42.870300  113.805000
  H    -59.606400   42.218600  115.912000
  C    -58.677500   44.746200  114.508000
  H    -59.747100   44.893700  114.298000
  H    -58.151500   45.316300  113.737000
  C    -58.466600   45.382400  115.889000
  H    -57.369000   45.405400  116.123000
  H    -58.924600   44.805600  116.700000
  C    -59.025100   46.828300  116.027000
  H    -58.454300   47.450600  115.373000
  H    -58.796700   47.076300  117.050000
  H    -60.120600   46.916900  115.816000
  H    -53.072900   45.524600  112.374000
  H    -58.615200   40.164500  115.372000

 Total Charge           Charge          ....    0
 Multiplicity           Mult            ....    1
 Number of Electrons    NEL             ....  134
 Basis Dimension        Dim             ....  322

ORBITAL ENERGIES
----------------

  NO   OCC          E(Eh)            E(eV)
   0   2.0000     -88.965087     -2420.8631
   1   2.0000     -88.964968     -2420.8598
   2   2.0000     -10.328544      -281.0540
   3   2.0000     -10.328133      -281.0428
   4   2.0000     -10.313200      -280.6364
   5   2.0000     -10.308624      -280.5119
   6   2.0000     -10.305289      -280.4212
   7   2.0000     -10.299690      -280.2688
   8   2.0000     -10.299659      -280.2680
   9   2.0000     -10.294718      -280.1335
  10   2.0000     -10.290366      -280.0151
  11   2.0000     -10.289037      -279.9789
  12   2.0000     -10.287273      -279.9309
  13   2.0000     -10.279937      -279.7313
  14   2.0000     -10.276439      -279.6361
  15   2.0000     -10.274394      -279.5805
  16   2.0000      -8.080540      -219.8827
  17   2.0000      -8.080035      -219.8689
  18   2.0000      -6.038987      -164.3292
  19   2.0000      -6.038623      -164.3193
  20   2.0000      -6.035082      -164.2229
  21   2.0000      -6.034317      -164.2021
  22   2.0000      -6.031165      -164.1163
  23   2.0000      -6.030905      -164.1093
  24   2.0000      -1.016642       -27.6642
  25   2.0000      -0.991326       -26.9754
  26   2.0000      -0.916515       -24.9397
  27   2.0000      -0.912116       -24.8199
  28   2.0000      -0.876102       -23.8399
  29   2.0000      -0.854940       -23.2641
  30   2.0000      -0.843491       -22.9526
  31   2.0000      -0.815762       -22.1980
  32   2.0000      -0.785488       -21.3742
  33   2.0000      -0.774157       -21.0659
  34   2.0000      -0.711914       -19.3722
  35   2.0000      -0.703758       -19.1502
  36   2.0000      -0.691163       -18.8075
  37   2.0000      -0.665092       -18.0981
  38   2.0000      -0.630737       -17.1632
  39   2.0000      -0.617260       -16.7965
  40   2.0000      -0.601332       -16.3631
  41   2.0000      -0.572688       -15.5836
  42   2.0000      -0.569209       -15.4890
  43   2.0000      -0.562620       -15.3097
  44   2.0000      -0.532093       -14.4790
  45   2.0000      -0.522833       -14.2270
  46   2.0000      -0.515666       -14.0320
  47   2.0000      -0.514304       -13.9949
  48   2.0000      -0.509874       -13.8744
  49   2.0000      -0.503699       -13.7063
  50   2.0000      -0.489521       -13.3205
  51   2.0000      -0.479765       -13.0551
  52   2.0000      -0.472183       -12.8488
  53   2.0000      -0.466784       -12.7018
  54   2.0000      -0.459545       -12.5049
  55   2.0000      -0.448466       -12.2034
  56   2.0000      -0.441019       -12.0007
  57   2.0000      -0.438378       -11.9289
  58   2.0000      -0.436799       -11.8859
  59   2.0000      -0.427358       -11.6290
  60   2.0000      -0.420617       -11.4456
  61   2.0000      -0.414825       -11.2880
  62   2.0000      -0.412714       -11.2305
  63   2.0000      -0.359008        -9.7691
  64   2.0000      -0.332264        -9.0414
  65   2.0000      -0.328837        -8.9481
  66   2.0000      -0.289957        -7.8901
  67   0.0000       0.027747         0.7550
  68   0.0000       0.076722         2.0877
  69   0.0000       0.108232         2.9451
  70   0.0000       0.121267         3.2998
  71   0.0000       0.128673         3.5014

MULLIKEN ATOMIC CHARGES
-----------------------
   0 S :    0.099531
   1 C :   -0.112808
   2 C :   -0.082233
   3 C :   -0.005002
   4 C :   -0.135783
   5 H :    0.018438
   6 C :    0.011723
   7 H :    0.042159
   8 H :    0.027304
   9 C :   -0.028192
  10 H :    0.013435
  11 H :    0.019931
  12 C :   -0.011768
  13 H :    0.026758
  14 H :    0.023685
  15 H :    0.019189
  16 S :    0.091514
  17 C :   -0.098612
  18 C :   -0.058270
  19 C :   -0.014026
  20 C :   -0.121184
  21 H :    0.037097
  22 C :    0.082693
  23 H :    0.030179
  24 H :    0.017939
  25 C :   -0.141724
  26 H :    0.033035
  27 H :    0.029596
  28 C :   -0.020015
  29 H :    0.028159
  30 H :    0.032075
  31 H :    0.041291
  32 H :    0.046616
  33 H :    0.057270
Sum of atomic charges:   -0.0000000

LOEWDIN ATOMIC CHARGES
----------------------
   0 S :    0.423276
   1 C :   -0.202597
   2 C :   -0.061375
   3 C :   -0.087628
   4 C :   -0.203833
   5 H :    0.023981
   6 C :   -0.030117
   7 H :    0.034818
   8 H :    0.031447
   9 C :   -0.037162
  10 H :    0.018316
  11 H :    0.021432
  12 C :   -0.053898
  13 H :    0.030685
  14 H :    0.024083
  15 H :    0.017219
  16 S :    0.418588
  17 C :   -0.186827
  18 C :   -0.070024
  19 C :   -0.059162
  20 C :   -0.191706
  21 H :    0.043251
  22 C :   -0.039906
  23 H :    0.035907
  24 H :    0.025045
  25 C :   -0.041623
  26 H :    0.025195
  27 H :    0.020195
  28 C :   -0.061451
  29 H :    0.020779
  30 H :    0.026576
  31 H :    0.028592
  32 H :    0.028108
  33 H :    0.029817

  Mayer bond orders larger than 0.100000
B(  0-S ,  1-C ) :   1.1306 B(  0-S ,  4-C ) :   1.1625 B(  1-C ,  2-C ) :   1.6229
B(  1-C , 32-H ) :   0.9665 B(  2-C ,  3-C ) :   1.2655 B(  2-C ,  6-C ) :   1.0075
B(  3-C ,  4-C ) :   1.5654 B(  3-C ,  5-H ) :   0.9784 B(  4-C , 20-C ) :   1.0254
B(  6-C ,  7-H ) :   0.9350 B(  6-C ,  8-H ) :   0.9523 B(  6-C ,  9-C ) :   1.0665
B(  9-C , 10-H ) :   0.9459 B(  9-C , 11-H ) :   0.9538 B(  9-C , 12-C ) :   1.0925
B( 12-C , 13-H ) :   0.9726 B( 12-C , 14-H ) :   0.9720 B( 12-C , 15-H ) :   0.9756
B( 16-S , 17-C ) :   1.1305 B( 16-S , 20-C ) :   1.1534 B( 17-C , 18-C ) :   1.6782
B( 17-C , 33-H ) :   0.9633 B( 18-C , 19-C ) :   1.1690 B( 18-C , 21-H ) :   0.9818
B( 19-C , 20-C ) :   1.6046 B( 19-C , 22-C ) :   1.0664 B( 22-C , 23-H ) :   0.9306
B( 22-C , 24-H ) :   0.9221 B( 22-C , 25-C ) :   1.0566 B( 25-C , 26-H ) :   0.9508
B( 25-C , 27-H ) :   0.9606 B( 25-C , 28-C ) :   1.0820 B( 28-C , 29-H ) :   0.9756
B( 28-C , 30-H ) :   0.9744 B( 28-C , 31-H ) :   0.9737

Dispersion correction           -0.013743746
FINAL SINGLE POINT ENERGY     -1339.875531359331

DIPOLE MOMENT
-------------
                                X             Y             Z
Electronic contribution:     -7.61098      -7.89227       1.85810
Nuclear contribution   :      7.79305       7.76212      -1.67083
                        -----------------------------------------
Total Dipole Moment    :      0.18207      -0.13015       0.18726
                        -----------------------------------------
Magnitude (a.u.)       :      0.29182
Magnitude (Debye)      :      0.74174

Rotational constants in cm-1:     0.023850     0.007465     0.005911
Rotational constants in MHz :   715.003606   223.781693   177.194049

                             ****ORCA TERMINATED NORMALLY****
TOTAL RUN TIME: 0 days 0 hours 0 minutes 29 seconds 475 msec
