                         Program Version 4.2.1 -  RELEASE  -
|  1> ! wB97X-D3 SP def2-SVP
|  2> %pal
|  3> nprocs 16
|  4> end
|  5>
|  6> * xyz 0 1
|  7> S 	 -7.86709 	 10.9389 	 84.7155
|  8> C 	 -8.80115 	 9.41207 	 84.8196
|  9> C 	 -7.97084 	 8.34532 	 85.128
| 10> C 	 -6.65886 	 8.85041 	 85.4653
| 11> C 	 -6.40533 	 10.2049 	 85.2875
| 12> H 	 -5.8381 	 8.3247 	 85.8624
| 13> C 	 -8.33827 	 6.87445 	 85.3957
| 14> H 	 -7.68668 	 6.22077 	 84.8534
| 15> H 	 -9.35297 	 6.59578 	 85.0447
| 16> C 	 -8.30113 	 6.47686 	 86.9073
| 17> H 	 -7.45793 	 6.91042 	 87.3037
| 18> H 	 -9.19522 	 6.83371 	 87.5212
| 19> C 	 -8.36536 	 4.91907 	 87.0263
| 20> H 	 -9.1508 	 4.30854 	 86.466
| 21> H 	 -7.43631 	 4.48668 	 86.7683
| 22> H 	 -8.45022 	 4.74759 	 88.1055
| 23> S 	 -5.47769 	 12.304 	 86.7736
| 24> C 	 -3.78211 	 12.6786 	 86.8848
| 25> C 	 -3.08598 	 11.6082 	 86.3322
| 26> C 	 -3.85945 	 10.5703 	 85.7046
| 27> C 	 -5.20576 	 10.9344 	 85.6634
| 28> H 	 -2.0051 	 11.6611 	 86.3569
| 29> C 	 -3.11109 	 9.41976 	 84.9847
| 30> H 	 -2.67835 	 9.89774 	 84.119
| 31> H 	 -3.89834 	 8.78675 	 84.5614
| 32> C 	 -2.03882 	 8.65657 	 85.7705
| 33> H 	 -1.48566 	 9.43306 	 86.2705
| 34> H 	 -1.29255 	 8.12706 	 85.0856
| 35> C 	 -2.68733 	 7.72933 	 86.7976
| 36> H 	 -1.98991 	 7.09576 	 87.3831
| 37> H 	 -3.28097 	 7.08772 	 86.1461
| 38> H 	 -3.32784 	 8.21649 	 87.5022
| 39> H 	 -9.88058 	 9.48233 	 84.6732
| 40> H 	 -3.24927 	 13.4323 	 87.3801
| 41> *
| 42>
| 43>                          ****END OF INPUT****

CARTESIAN COORDINATES (ANGSTROEM)
---------------------------------
  S     -7.867090   10.938900   84.715500
  C     -8.801150    9.412070   84.819600
  C     -7.970840    8.345320   85.128000
  C     -6.658860    8.850410   85.465300
  C     -6.405330   10.204900   85.287500
  H     -5.838100    8.324700   85.862400
  C     -8.338270    6.874450   85.395700
  H     -7.686680    6.220770   84.853400
  H     -9.352970    6.595780   85.044700
  C     -8.301130    6.476860   86.907300
  H     -7.457930    6.910420   87.303700
  H     -9.195220    6.833710   87.521200
  C     -8.365360    4.919070   87.026300
  H     -9.150800    4.308540   86.466000
  H     -7.436310    4.486680   86.768300
  H     -8.450220    4.747590   88.105500
  S     -5.477690   12.304000   86.773600
  C     -3.782110   12.678600   86.884800
  C     -3.085980   11.608200   86.332200
  C     -3.859450   10.570300   85.704600
  C     -5.205760   10.934400   85.663400
  H     -2.005100   11.661100   86.356900
  C     -3.111090    9.419760   84.984700
  H     -2.678350    9.897740   84.119000
  H     -3.898340    8.786750   84.561400
  C     -2.038820    8.656570   85.770500
  H     -1.485660    9.433060   86.270500
  H     -1.292550    8.127060   85.085600
  C     -2.687330    7.729330   86.797600
  H     -1.989910    7.095760   87.383100
  H     -3.280970    7.087720   86.146100
  H     -3.327840    8.216490   87.502200
  H     -9.880580    9.482330   84.673200
  H     -3.249270   13.432300   87.380100

 Total Charge           Charge          ....    0
 Multiplicity           Mult            ....    1
 Number of Electrons    NEL             ....  134
 Basis Dimension        Dim             ....  322

ORBITAL ENERGIES
----------------

  NO   OCC          E(Eh)            E(eV)
   0   2.0000     -88.965214     -2420.8665
   1   2.0000     -88.962546     -2420.7940
   2   2.0000     -10.333401      -281.1861
   3   2.0000     -10.328633      -281.0564
   4   2.0000     -10.322420      -280.8873
   5   2.0000     -10.315716      -280.7049
   6   2.0000     -10.311226      -280.5827
   7   2.0000     -10.310956      -280.5754
   8   2.0000     -10.297365      -280.2055
   9   2.0000     -10.295647      -280.1588
  10   2.0000     -10.295575      -280.1568
  11   2.0000     -10.293504      -280.1005
  12   2.0000     -10.291608      -280.0489
  13   2.0000     -10.290970      -280.0315
  14   2.0000     -10.282832      -279.8101
  15   2.0000     -10.279972      -279.7323
  16   2.0000      -8.079499      -219.8543
  17   2.0000      -8.077168      -219.7909
  18   2.0000      -6.038137      -164.3061
  19   2.0000      -6.035695      -164.2396
  20   2.0000      -6.034082      -164.1957
  21   2.0000      -6.031626      -164.1289
  22   2.0000      -6.030079      -164.0868
  23   2.0000      -6.027962      -164.0292
  24   2.0000      -1.004425       -27.3318
  25   2.0000      -0.980789       -26.6886
  26   2.0000      -0.912486       -24.8300
  27   2.0000      -0.907412       -24.6919
  28   2.0000      -0.870452       -23.6862
  29   2.0000      -0.849534       -23.1170
  30   2.0000      -0.839967       -22.8567
  31   2.0000      -0.811900       -22.0929
  32   2.0000      -0.782518       -21.2934
  33   2.0000      -0.776149       -21.1201
  34   2.0000      -0.710114       -19.3232
  35   2.0000      -0.702334       -19.1115
  36   2.0000      -0.698995       -19.0206
  37   2.0000      -0.658019       -17.9056
  38   2.0000      -0.647040       -17.6069
  39   2.0000      -0.619329       -16.8528
  40   2.0000      -0.597179       -16.2501
  41   2.0000      -0.565795       -15.3961
  42   2.0000      -0.559853       -15.2344
  43   2.0000      -0.555790       -15.1238
  44   2.0000      -0.544323       -14.8118
  45   2.0000      -0.524812       -14.2809
  46   2.0000      -0.518139       -14.0993
  47   2.0000      -0.514466       -13.9993
  48   2.0000      -0.507100       -13.7989
  49   2.0000      -0.497413       -13.5353
  50   2.0000      -0.494068       -13.4443
  51   2.0000      -0.477408       -12.9909
  52   2.0000      -0.470267       -12.7966
  53   2.0000      -0.462840       -12.5945
  54   2.0000      -0.457952       -12.4615
  55   2.0000      -0.449344       -12.2273
  56   2.0000      -0.444666       -12.1000
  57   2.0000      -0.439519       -11.9599
  58   2.0000      -0.435319       -11.8456
  59   2.0000      -0.428968       -11.6728
  60   2.0000      -0.420271       -11.4362
  61   2.0000      -0.415084       -11.2950
  62   2.0000      -0.408503       -11.1159
  63   2.0000      -0.348880        -9.4935
  64   2.0000      -0.330217        -8.9857
  65   2.0000      -0.326373        -8.8811
  66   2.0000      -0.293036        -7.9739
  67   0.0000       0.022128         0.6021
  68   0.0000       0.075013         2.0412
  69   0.0000       0.106825         2.9069
  70   0.0000       0.115128         3.1328
  71   0.0000       0.130833         3.5602

MULLIKEN ATOMIC CHARGES
-----------------------
   0 S :    0.090190
   1 C :   -0.152509
   2 C :   -0.019036
   3 C :    0.018607
   4 C :   -0.154029
   5 H :   -0.019072
   6 C :    0.065750
   7 H :    0.025160
   8 H :    0.022194
   9 C :   -0.070585
  10 H :    0.016304
  11 H :    0.045604
  12 C :   -0.067352
  13 H :    0.050383
  14 H :    0.019508
  15 H :    0.032773
  16 S :    0.099457
  17 C :   -0.049474
  18 C :   -0.073175
  19 C :   -0.038327
  20 C :   -0.134468
  21 H :    0.021306
  22 C :    0.051508
  23 H :    0.042125
  24 H :    0.014988
  25 C :   -0.065678
  26 H :    0.019177
  27 H :    0.047946
  28 C :   -0.045950
  29 H :    0.040388
  30 H :    0.023758
  31 H :    0.042147
  32 H :    0.063538
  33 H :    0.036846
Sum of atomic charges:    0.0000000

LOEWDIN ATOMIC CHARGES
----------------------
   0 S :    0.390460
   1 C :   -0.175923
   2 C :   -0.060563
   3 C :   -0.061891
   4 C :   -0.205743
   5 H :    0.017501
   6 C :   -0.028811
   7 H :    0.027500
   8 H :    0.031548
   9 C :   -0.028620
  10 H :    0.010874
  11 H :    0.034132
  12 C :   -0.072299
  13 H :    0.035748
  14 H :    0.015208
  15 H :    0.028658
  16 S :    0.401858
  17 C :   -0.182457
  18 C :   -0.074434
  19 C :   -0.054298
  20 C :   -0.187276
  21 H :    0.025892
  22 C :   -0.030744
  23 H :    0.036776
  24 H :    0.025618
  25 C :   -0.040907
  26 H :    0.017260
  27 H :    0.036389
  28 C :   -0.064342
  29 H :    0.029371
  30 H :    0.023814
  31 H :    0.024377
  32 H :    0.030370
  33 H :    0.024954

  Mayer bond orders larger than 0.100000
B(  0-S ,  1-C ) :   1.1445 B(  0-S ,  4-C ) :   1.1411 B(  1-C ,  2-C ) :   1.5892
B(  1-C , 32-H ) :   0.9739 B(  2-C ,  3-C ) :   1.2209 B(  2-C ,  6-C ) :   1.0299
B(  3-C ,  4-C ) :   1.5915 B(  3-C ,  5-H ) :   0.9903 B(  4-C , 20-C ) :   1.0432
B(  6-C ,  7-H ) :   0.9423 B(  6-C ,  8-H ) :   0.9466 B(  6-C ,  9-C ) :   1.0532
B(  9-C , 10-H ) :   0.9603 B(  9-C , 11-H ) :   0.9618 B(  9-C , 12-C ) :   1.0691
B( 12-C , 13-H ) :   0.9765 B( 12-C , 14-H ) :   0.9757 B( 12-C , 15-H ) :   0.9753
B( 16-S , 17-C ) :   1.1432 B( 16-S , 20-C ) :   1.1418 B( 17-C , 18-C ) :   1.6208
B( 17-C , 20-C ) :   0.1028 B( 17-C , 33-H ) :   0.9740 B( 18-C , 19-C ) :   1.2287
B( 18-C , 21-H ) :   0.9828 B( 19-C , 20-C ) :   1.5824 B( 19-C , 22-C ) :   1.0204
B( 22-C , 23-H ) :   0.9377 B( 22-C , 24-H ) :   0.9412 B( 22-C , 25-C ) :   1.0614
B( 25-C , 26-H ) :   0.9539 B( 25-C , 27-H ) :   0.9559 B( 25-C , 28-C ) :   1.0654
B( 28-C , 29-H ) :   0.9735 B( 28-C , 30-H ) :   0.9744 B( 28-C , 31-H ) :   0.9757

Dispersion correction           -0.014120773
FINAL SINGLE POINT ENERGY     -1339.864078721267

DIPOLE MOMENT
-------------
                                X             Y             Z
Electronic contribution:     -7.18306      29.05821      -5.35568
Nuclear contribution   :      7.58985     -29.71177       5.55710
                        -----------------------------------------
Total Dipole Moment    :      0.40679      -0.65356       0.20143
                        -----------------------------------------
Magnitude (a.u.)       :      0.79574
Magnitude (Debye)      :      2.02260

Rotational constants in cm-1:     0.016853     0.009244     0.006755
Rotational constants in MHz :   505.245867   277.130077   202.495109

                             ****ORCA TERMINATED NORMALLY****
TOTAL RUN TIME: 0 days 0 hours 0 minutes 35 seconds 3 msec
