                         Program Version 4.2.1 -  RELEASE  -
|  1> ! wB97X-D3 SP def2-SVP
|  2> %pal
|  3> nprocs 16
|  4> end
|  5>
|  6> * xyz 0 1
|  7> S 	 -105.057 	 43.7421 	 132.252
|  8> C 	 -104.252 	 44.4418 	 133.605
|  9> C 	 -105.129 	 45.3209 	 134.197
| 10> C 	 -106.506 	 45.2984 	 133.696
| 11> C 	 -106.53 	 44.4702 	 132.56
| 12> H 	 -107.333 	 45.8408 	 134.127
| 13> C 	 -104.669 	 46.2503 	 135.379
| 14> H 	 -104.4 	 47.2551 	 134.969
| 15> H 	 -103.699 	 45.8804 	 135.772
| 16> C 	 -105.699 	 46.3828 	 136.583
| 17> H 	 -105.274 	 47.0533 	 137.351
| 18> H 	 -106.597 	 46.8819 	 136.258
| 19> C 	 -105.993 	 45.0444 	 137.239
| 20> H 	 -106.635 	 45.1282 	 138.071
| 21> H 	 -106.586 	 44.4119 	 136.601
| 22> H 	 -105.112 	 44.4957 	 137.64
| 23> S 	 -107.264 	 43.5759 	 130.117
| 24> C 	 -108.904 	 43.4322 	 129.553
| 25> C 	 -109.719 	 43.6722 	 130.616
| 26> C 	 -109.082 	 44.2146 	 131.865
| 27> C 	 -107.651 	 44.2167 	 131.693
| 28> H 	 -110.771 	 43.3798 	 130.493
| 29> C 	 -109.874 	 44.7228 	 133.048
| 30> H 	 -109.419 	 44.5509 	 133.959
| 31> H 	 -110.881 	 44.1297 	 133.034
| 32> C 	 -110.184 	 46.2091 	 133.013
| 33> H 	 -110.551 	 46.3683 	 131.979
| 34> H 	 -109.232 	 46.8417 	 133.059
| 35> C 	 -111.307 	 46.7329 	 133.989
| 36> H 	 -111.479 	 47.8258 	 133.857
| 37> H 	 -110.903 	 46.5773 	 135.027
| 38> H 	 -112.289 	 46.2376 	 133.866
| 39> H 	 -103.208 	 44.2854 	 133.897
| 40> H 	 -109.287 	 43.2342 	 128.593
| 41> *
| 42>
| 43>                          ****END OF INPUT****

CARTESIAN COORDINATES (ANGSTROEM)
---------------------------------
  S    -105.057000   43.742100  132.252000
  C    -104.252000   44.441800  133.605000
  C    -105.129000   45.320900  134.197000
  C    -106.506000   45.298400  133.696000
  C    -106.530000   44.470200  132.560000
  H    -107.333000   45.840800  134.127000
  C    -104.669000   46.250300  135.379000
  H    -104.400000   47.255100  134.969000
  H    -103.699000   45.880400  135.772000
  C    -105.699000   46.382800  136.583000
  H    -105.274000   47.053300  137.351000
  H    -106.597000   46.881900  136.258000
  C    -105.993000   45.044400  137.239000
  H    -106.635000   45.128200  138.071000
  H    -106.586000   44.411900  136.601000
  H    -105.112000   44.495700  137.640000
  S    -107.264000   43.575900  130.117000
  C    -108.904000   43.432200  129.553000
  C    -109.719000   43.672200  130.616000
  C    -109.082000   44.214600  131.865000
  C    -107.651000   44.216700  131.693000
  H    -110.771000   43.379800  130.493000
  C    -109.874000   44.722800  133.048000
  H    -109.419000   44.550900  133.959000
  H    -110.881000   44.129700  133.034000
  C    -110.184000   46.209100  133.013000
  H    -110.551000   46.368300  131.979000
  H    -109.232000   46.841700  133.059000
  C    -111.307000   46.732900  133.989000
  H    -111.479000   47.825800  133.857000
  H    -110.903000   46.577300  135.027000
  H    -112.289000   46.237600  133.866000
  H    -103.208000   44.285400  133.897000
  H    -109.287000   43.234200  128.593000

 Total Charge           Charge          ....    0
 Multiplicity           Mult            ....    1
 Number of Electrons    NEL             ....  134
 Basis Dimension        Dim             ....  322

ORBITAL ENERGIES
----------------

  NO   OCC          E(Eh)            E(eV)
   0   2.0000     -88.966691     -2420.9068
   1   2.0000     -88.962850     -2420.8022
   2   2.0000     -10.335190      -281.2348
   3   2.0000     -10.331573      -281.1364
   4   2.0000     -10.318397      -280.7779
   5   2.0000     -10.314348      -280.6677
   6   2.0000     -10.312698      -280.6228
   7   2.0000     -10.307263      -280.4749
   8   2.0000     -10.301467      -280.3172
   9   2.0000     -10.300661      -280.2952
  10   2.0000     -10.300537      -280.2919
  11   2.0000     -10.296947      -280.1942
  12   2.0000     -10.295517      -280.1553
  13   2.0000     -10.292682      -280.0781
  14   2.0000     -10.291876      -280.0562
  15   2.0000     -10.271536      -279.5027
  16   2.0000      -8.083378      -219.9599
  17   2.0000      -8.077989      -219.8133
  18   2.0000      -6.041904      -164.4086
  19   2.0000      -6.037430      -164.2868
  20   2.0000      -6.036724      -164.2676
  21   2.0000      -6.034157      -164.1978
  22   2.0000      -6.032311      -164.1475
  23   2.0000      -6.028601      -164.0466
  24   2.0000      -1.016402       -27.6577
  25   2.0000      -0.984396       -26.7868
  26   2.0000      -0.908945       -24.7336
  27   2.0000      -0.903636       -24.5892
  28   2.0000      -0.875549       -23.8249
  29   2.0000      -0.847314       -23.0566
  30   2.0000      -0.836310       -22.7572
  31   2.0000      -0.819115       -22.2892
  32   2.0000      -0.780976       -21.2514
  33   2.0000      -0.772779       -21.0284
  34   2.0000      -0.713121       -19.4050
  35   2.0000      -0.696108       -18.9421
  36   2.0000      -0.689775       -18.7697
  37   2.0000      -0.659059       -17.9339
  38   2.0000      -0.637178       -17.3385
  39   2.0000      -0.624410       -16.9911
  40   2.0000      -0.599910       -16.3244
  41   2.0000      -0.565675       -15.3928
  42   2.0000      -0.559603       -15.2276
  43   2.0000      -0.548658       -14.9297
  44   2.0000      -0.538261       -14.6468
  45   2.0000      -0.524088       -14.2612
  46   2.0000      -0.517311       -14.0767
  47   2.0000      -0.513694       -13.9783
  48   2.0000      -0.510078       -13.8799
  49   2.0000      -0.504918       -13.7395
  50   2.0000      -0.495091       -13.4721
  51   2.0000      -0.483888       -13.1673
  52   2.0000      -0.468996       -12.7620
  53   2.0000      -0.464878       -12.6500
  54   2.0000      -0.455724       -12.4009
  55   2.0000      -0.451022       -12.2729
  56   2.0000      -0.445441       -12.1211
  57   2.0000      -0.441400       -12.0111
  58   2.0000      -0.432579       -11.7711
  59   2.0000      -0.425494       -11.5783
  60   2.0000      -0.414411       -11.2767
  61   2.0000      -0.414049       -11.2668
  62   2.0000      -0.402983       -10.9657
  63   2.0000      -0.365491        -9.9455
  64   2.0000      -0.331982        -9.0337
  65   2.0000      -0.321053        -8.7363
  66   2.0000      -0.284940        -7.7536
  67   0.0000       0.020137         0.5479
  68   0.0000       0.083254         2.2654
  69   0.0000       0.113296         3.0829
  70   0.0000       0.115544         3.1441
  71   0.0000       0.123378         3.3573

MULLIKEN ATOMIC CHARGES
-----------------------
   0 S :    0.112413
   1 C :   -0.122302
   2 C :   -0.095474
   3 C :    0.003630
   4 C :   -0.093853
   5 H :    0.004579
   6 C :    0.040816
   7 H :    0.048203
   8 H :    0.016997
   9 C :   -0.082516
  10 H :    0.033126
  11 H :    0.027043
  12 C :   -0.030399
  13 H :    0.013019
  14 H :    0.027152
  15 H :    0.036322
  16 S :    0.077642
  17 C :   -0.057294
  18 C :   -0.055330
  19 C :   -0.051799
  20 C :   -0.122355
  21 H :    0.030212
  22 C :    0.070256
  23 H :    0.007537
  24 H :    0.036282
  25 C :   -0.111541
  26 H :    0.025993
  27 H :    0.045686
  28 C :   -0.067432
  29 H :    0.048137
  30 H :    0.036516
  31 H :    0.045021
  32 H :    0.059590
  33 H :    0.044125
Sum of atomic charges:    0.0000000

LOEWDIN ATOMIC CHARGES
----------------------
   0 S :    0.451502
   1 C :   -0.218800
   2 C :   -0.055931
   3 C :   -0.073296
   4 C :   -0.208461
   5 H :    0.027935
   6 C :   -0.033057
   7 H :    0.034965
   8 H :    0.026644
   9 C :   -0.042799
  10 H :    0.028439
  11 H :    0.018991
  12 C :   -0.067653
  13 H :    0.019569
  14 H :    0.023598
  15 H :    0.031378
  16 S :    0.401849
  17 C :   -0.187559
  18 C :   -0.072773
  19 C :   -0.051642
  20 C :   -0.191257
  21 H :    0.033035
  22 C :   -0.037535
  23 H :    0.013936
  24 H :    0.044603
  25 C :   -0.052140
  26 H :    0.024194
  27 H :    0.029924
  28 C :   -0.072745
  29 H :    0.032767
  30 H :    0.027360
  31 H :    0.028526
  32 H :    0.037477
  33 H :    0.028958

  Mayer bond orders larger than 0.100000
B(  0-S ,  1-C ) :   1.1239 B(  0-S ,  4-C ) :   1.1942 B(  1-C ,  2-C ) :   1.6102
B(  1-C , 32-H ) :   0.9717 B(  2-C ,  3-C ) :   1.2478 B(  2-C ,  6-C ) :   1.0062
B(  3-C ,  4-C ) :   1.5027 B(  3-C ,  5-H ) :   0.9975 B(  4-C , 20-C ) :   1.0956
B(  6-C ,  7-H ) :   0.9445 B(  6-C ,  8-H ) :   0.9494 B(  6-C ,  9-C ) :   1.0651
B(  9-C , 10-H ) :   0.9567 B(  9-C , 11-H ) :   0.9539 B(  9-C , 12-C ) :   1.0826
B( 12-C , 13-H ) :   0.9702 B( 12-C , 14-H ) :   0.9707 B( 12-C , 15-H ) :   0.9745
B( 16-S , 17-C ) :   1.1315 B( 16-S , 20-C ) :   1.1442 B( 17-C , 18-C ) :   1.6401
B( 17-C , 33-H ) :   0.9741 B( 18-C , 19-C ) :   1.2253 B( 18-C , 21-H ) :   0.9799
B( 19-C , 20-C ) :   1.5388 B( 19-C , 22-C ) :   1.0677 B( 22-C , 23-H ) :   0.9271
B( 22-C , 24-H ) :   0.9306 B( 22-C , 25-C ) :   1.0607 B( 25-C , 26-H ) :   0.9528
B( 25-C , 27-H ) :   0.9503 B( 25-C , 28-C ) :   1.0698 B( 28-C , 29-H ) :   0.9753
B( 28-C , 30-H ) :   0.9759 B( 28-C , 31-H ) :   0.9752

Dispersion correction           -0.014363434
FINAL SINGLE POINT ENERGY     -1339.869344523903

DIPOLE MOMENT
-------------
                                X             Y             Z
Electronic contribution:     12.60354     -14.26506     -24.79427
Nuclear contribution   :    -12.98137      14.55922      25.23514
                        -----------------------------------------
Total Dipole Moment    :     -0.37784       0.29416       0.44086
                        -----------------------------------------
Magnitude (a.u.)       :      0.65088
Magnitude (Debye)      :      1.65441

Rotational constants in cm-1:     0.016673     0.010174     0.006688
Rotational constants in MHz :   499.841848   305.014602   200.510269

                             ****ORCA TERMINATED NORMALLY****
TOTAL RUN TIME: 0 days 0 hours 0 minutes 34 seconds 858 msec
