                         Program Version 4.2.1 -  RELEASE  -
|  1> ! wB97X-D3 SP def2-SVP
|  2> %pal
|  3> nprocs 16
|  4> end
|  5>
|  6> * xyz 0 1
|  7> S 	 12.0256 	 22.0632 	 51.6205
|  8> C 	 11.9367 	 20.5971 	 52.61
|  9> C 	 11.3565 	 19.59 	 51.77
| 10> C 	 10.8865 	 20.1141 	 50.4796
| 11> C 	 11.1366 	 21.4472 	 50.2782
| 12> H 	 10.4355 	 19.6128 	 49.6768
| 13> C 	 11.0625 	 18.1486 	 52.1372
| 14> H 	 11.9092 	 17.7694 	 52.7621
| 15> H 	 11.0571 	 17.5791 	 51.2069
| 16> C 	 9.82889 	 18.0399 	 52.9156
| 17> H 	 9.87542 	 18.4736 	 53.9715
| 18> H 	 9.12701 	 18.5953 	 52.3044
| 19> C 	 9.26344 	 16.6131 	 53.2179
| 20> H 	 10.1021 	 16.0148 	 53.6645
| 21> H 	 8.44154 	 16.6596 	 53.8861
| 22> H 	 8.96846 	 16.2086 	 52.2231
| 23> S 	 9.25419 	 21.8806 	 48.2922
| 24> C 	 9.75171 	 22.8649 	 47.0156
| 25> C 	 10.6741 	 23.7887 	 47.3286
| 26> C 	 11.4048 	 23.3461 	 48.469
| 27> C 	 10.869 	 22.212 	 49.0643
| 28> H 	 10.9387 	 24.5394 	 46.7418
| 29> C 	 12.6826 	 24.0709 	 48.857
| 30> H 	 13.3193 	 23.9327 	 47.975
| 31> H 	 13.0763 	 23.6384 	 49.7514
| 32> C 	 12.5394 	 25.668 	 48.9044
| 33> H 	 11.8082 	 25.8539 	 49.6915
| 34> H 	 12.3502 	 26.0771 	 47.9477
| 35> C 	 13.7203 	 26.3651 	 49.5376
| 36> H 	 14.246 	 25.6387 	 50.1737
| 37> H 	 13.4506 	 27.1962 	 50.1146
| 38> H 	 14.4611 	 26.72 	 48.8513
| 39> H 	 12.338 	 20.5165 	 53.6144
| 40> H 	 9.111 	 22.8639 	 46.143
| 41> *
| 42>
| 43>                          ****END OF INPUT****

CARTESIAN COORDINATES (ANGSTROEM)
---------------------------------
  S     12.025600   22.063200   51.620500
  C     11.936700   20.597100   52.610000
  C     11.356500   19.590000   51.770000
  C     10.886500   20.114100   50.479600
  C     11.136600   21.447200   50.278200
  H     10.435500   19.612800   49.676800
  C     11.062500   18.148600   52.137200
  H     11.909200   17.769400   52.762100
  H     11.057100   17.579100   51.206900
  C      9.828890   18.039900   52.915600
  H      9.875420   18.473600   53.971500
  H      9.127010   18.595300   52.304400
  C      9.263440   16.613100   53.217900
  H     10.102100   16.014800   53.664500
  H      8.441540   16.659600   53.886100
  H      8.968460   16.208600   52.223100
  S      9.254190   21.880600   48.292200
  C      9.751710   22.864900   47.015600
  C     10.674100   23.788700   47.328600
  C     11.404800   23.346100   48.469000
  C     10.869000   22.212000   49.064300
  H     10.938700   24.539400   46.741800
  C     12.682600   24.070900   48.857000
  H     13.319300   23.932700   47.975000
  H     13.076300   23.638400   49.751400
  C     12.539400   25.668000   48.904400
  H     11.808200   25.853900   49.691500
  H     12.350200   26.077100   47.947700
  C     13.720300   26.365100   49.537600
  H     14.246000   25.638700   50.173700
  H     13.450600   27.196200   50.114600
  H     14.461100   26.720000   48.851300
  H     12.338000   20.516500   53.614400
  H      9.111000   22.863900   46.143000

 Total Charge           Charge          ....    0
 Multiplicity           Mult            ....    1
 Number of Electrons    NEL             ....  134
 Basis Dimension        Dim             ....  322

ORBITAL ENERGIES
----------------

  NO   OCC          E(Eh)            E(eV)
   0   2.0000     -88.963993     -2420.8333
   1   2.0000     -88.961020     -2420.7524
   2   2.0000     -10.328615      -281.0559
   3   2.0000     -10.327981      -281.0387
   4   2.0000     -10.323538      -280.9177
   5   2.0000     -10.312596      -280.6200
   6   2.0000     -10.311173      -280.5813
   7   2.0000     -10.305032      -280.4142
   8   2.0000     -10.293669      -280.1050
   9   2.0000     -10.290258      -280.0122
  10   2.0000     -10.289644      -279.9954
  11   2.0000     -10.286988      -279.9232
  12   2.0000     -10.283288      -279.8225
  13   2.0000     -10.281450      -279.7725
  14   2.0000     -10.280743      -279.7533
  15   2.0000     -10.268504      -279.4202
  16   2.0000      -8.078413      -219.8248
  17   2.0000      -8.076684      -219.7777
  18   2.0000      -6.037008      -164.2753
  19   2.0000      -6.035033      -164.2216
  20   2.0000      -6.032776      -164.1602
  21   2.0000      -6.031606      -164.1283
  22   2.0000      -6.029295      -164.0654
  23   2.0000      -6.027008      -164.0032
  24   2.0000      -1.008841       -27.4520
  25   2.0000      -0.985675       -26.8216
  26   2.0000      -0.917531       -24.9673
  27   2.0000      -0.908925       -24.7331
  28   2.0000      -0.869565       -23.6621
  29   2.0000      -0.859647       -23.3922
  30   2.0000      -0.841117       -22.8880
  31   2.0000      -0.815545       -22.1921
  32   2.0000      -0.784843       -21.3567
  33   2.0000      -0.770909       -20.9775
  34   2.0000      -0.706139       -19.2150
  35   2.0000      -0.692667       -18.8484
  36   2.0000      -0.690366       -18.7858
  37   2.0000      -0.668971       -18.2036
  38   2.0000      -0.643803       -17.5188
  39   2.0000      -0.615980       -16.7617
  40   2.0000      -0.603073       -16.4105
  41   2.0000      -0.579744       -15.7756
  42   2.0000      -0.570050       -15.5119
  43   2.0000      -0.565710       -15.3938
  44   2.0000      -0.531464       -14.4619
  45   2.0000      -0.525920       -14.3110
  46   2.0000      -0.523300       -14.2397
  47   2.0000      -0.514559       -14.0019
  48   2.0000      -0.510291       -13.8857
  49   2.0000      -0.508095       -13.8260
  50   2.0000      -0.486761       -13.2454
  51   2.0000      -0.476161       -12.9570
  52   2.0000      -0.473893       -12.8953
  53   2.0000      -0.466580       -12.6963
  54   2.0000      -0.463496       -12.6124
  55   2.0000      -0.459068       -12.4919
  56   2.0000      -0.447653       -12.1813
  57   2.0000      -0.440570       -11.9885
  58   2.0000      -0.425887       -11.5890
  59   2.0000      -0.417824       -11.3696
  60   2.0000      -0.412856       -11.2344
  61   2.0000      -0.409470       -11.1423
  62   2.0000      -0.401990       -10.9387
  63   2.0000      -0.353124        -9.6090
  64   2.0000      -0.328147        -8.9293
  65   2.0000      -0.325346        -8.8531
  66   2.0000      -0.285844        -7.7782
  67   0.0000       0.021116         0.5746
  68   0.0000       0.076820         2.0904
  69   0.0000       0.095686         2.6038
  70   0.0000       0.109763         2.9868
  71   0.0000       0.134284         3.6540

MULLIKEN ATOMIC CHARGES
-----------------------
   0 S :    0.082904
   1 C :   -0.120890
   2 C :   -0.094825
   3 C :    0.008603
   4 C :   -0.105143
   5 H :   -0.005686
   6 C :    0.086468
   7 H :    0.022384
   8 H :    0.026509
   9 C :   -0.114989
  10 H :    0.036827
  11 H :    0.024042
  12 C :   -0.034438
  13 H :    0.035606
  14 H :    0.036886
  15 H :    0.032686
  16 S :    0.083564
  17 C :   -0.071023
  18 C :    0.045501
  19 C :   -0.068465
  20 C :   -0.133025
  21 H :   -0.042531
  22 C :    0.073482
  23 H :    0.039322
  24 H :    0.014394
  25 C :   -0.095924
  26 H :    0.040357
  27 H :    0.033499
  28 C :   -0.017900
  29 H :    0.024019
  30 H :    0.025257
  31 H :    0.018963
  32 H :    0.061679
  33 H :    0.051888
Sum of atomic charges:    0.0000000

LOEWDIN ATOMIC CHARGES
----------------------
   0 S :    0.411902
   1 C :   -0.197742
   2 C :   -0.046964
   3 C :   -0.072641
   4 C :   -0.199432
   5 H :    0.018510
   6 C :   -0.039949
   7 H :    0.031266
   8 H :    0.032401
   9 C :   -0.050925
  10 H :    0.031204
  11 H :    0.021453
  12 C :   -0.063163
  13 H :    0.028751
  14 H :    0.020643
  15 H :    0.025678
  16 S :    0.393215
  17 C :   -0.174095
  18 C :   -0.054805
  19 C :   -0.046047
  20 C :   -0.177494
  21 H :    0.007089
  22 C :   -0.026813
  23 H :    0.037162
  24 H :    0.010501
  25 C :   -0.033152
  26 H :    0.031806
  27 H :    0.017719
  28 C :   -0.060955
  29 H :    0.029894
  30 H :    0.020084
  31 H :    0.019221
  32 H :    0.033121
  33 H :    0.022561

  Mayer bond orders larger than 0.100000
B(  0-S ,  1-C ) :   1.1380 B(  0-S ,  4-C ) :   1.1501 B(  1-C ,  2-C ) :   1.5681
B(  1-C , 32-H ) :   0.9792 B(  2-C ,  3-C ) :   1.2308 B(  2-C ,  6-C ) :   1.0410
B(  3-C ,  4-C ) :   1.5493 B(  3-C ,  5-H ) :   1.0003 B(  4-C , 20-C ) :   1.0709
B(  6-C ,  7-H ) :   0.9281 B(  6-C ,  8-H ) :   0.9365 B(  6-C ,  9-C ) :   1.0764
B(  9-C , 10-H ) :   0.9540 B(  9-C , 11-H ) :   0.9553 B(  9-C , 12-C ) :   1.0769
B( 12-C , 13-H ) :   0.9738 B( 12-C , 14-H ) :   0.9767 B( 12-C , 15-H ) :   0.9765
B( 16-S , 17-C ) :   1.1718 B( 16-S , 20-C ) :   1.1042 B( 17-C , 18-C ) :   1.6090
B( 17-C , 33-H ) :   0.9656 B( 18-C , 19-C ) :   1.2090 B( 18-C , 21-H ) :   1.0176
B( 19-C , 20-C ) :   1.6148 B( 19-C , 22-C ) :   1.0437 B( 22-C , 23-H ) :   0.9301
B( 22-C , 24-H ) :   0.9356 B( 22-C , 25-C ) :   1.0658 B( 25-C , 26-H ) :   0.9641
B( 25-C , 27-H ) :   0.9552 B( 25-C , 28-C ) :   1.0841 B( 28-C , 29-H ) :   0.9720
B( 28-C , 30-H ) :   0.9785 B( 28-C , 31-H ) :   0.9726

Dispersion correction           -0.013342147
FINAL SINGLE POINT ENERGY     -1339.839137957393

DIPOLE MOMENT
-------------
                                X             Y             Z
Electronic contribution:     -5.03043       2.87807      -7.52362
Nuclear contribution   :      5.16650      -2.79212       7.41749
                        -----------------------------------------
Total Dipole Moment    :      0.13607       0.08595      -0.10613
                        -----------------------------------------
Magnitude (a.u.)       :      0.19279
Magnitude (Debye)      :      0.49002

Rotational constants in cm-1:     0.023999     0.007167     0.005688
Rotational constants in MHz :   719.464442   214.865148   170.521808

                             ****ORCA TERMINATED NORMALLY****
TOTAL RUN TIME: 0 days 0 hours 0 minutes 31 seconds 224 msec
