                         Program Version 4.2.1 -  RELEASE  -
|  1> ! wB97X-D3 SP def2-SVP
|  2> %pal
|  3> nprocs 16
|  4> end
|  5>
|  6> * xyz 0 1
|  7> S 	 65.8124 	 17.77 	 72.7647
|  8> C 	 66.792 	 16.3842 	 72.2757
|  9> C 	 67.4041 	 15.7534 	 73.3514
| 10> C 	 67.3337 	 16.5603 	 74.4914
| 11> C 	 66.4847 	 17.6569 	 74.3792
| 12> H 	 67.8389 	 16.2586 	 75.4229
| 13> C 	 68.095 	 14.404 	 73.2744
| 14> H 	 67.4487 	 13.5764 	 72.9599
| 15> H 	 68.2181 	 14.2565 	 74.3495
| 16> C 	 69.449 	 14.3244 	 72.5587
| 17> H 	 70.1999 	 14.9548 	 73.051
| 18> H 	 69.8006 	 13.3364 	 72.7085
| 19> C 	 69.5859 	 14.7128 	 71.1041
| 20> H 	 70.5558 	 14.331 	 70.6475
| 21> H 	 68.7912 	 14.3972 	 70.4432
| 22> H 	 69.5361 	 15.7994 	 71.0662
| 23> S 	 64.4637 	 18.8966 	 75.5603
| 24> C 	 64.7432 	 19.9953 	 76.902
| 25> C 	 66.0765 	 20.0021 	 77.228
| 26> C 	 66.8859 	 19.2454 	 76.3853
| 27> C 	 66.1565 	 18.5961 	 75.4162
| 28> H 	 66.338 	 20.6998 	 78.0684
| 29> C 	 68.3936 	 18.9674 	 76.675
| 30> H 	 68.705 	 19.9575 	 76.8871
| 31> H 	 68.8641 	 18.7545 	 75.6999
| 32> C 	 68.6034 	 17.8998 	 77.7608
| 33> H 	 67.8145 	 17.1666 	 77.7194
| 34> H 	 68.274 	 18.2715 	 78.7063
| 35> C 	 70.0799 	 17.4641 	 77.9092
| 36> H 	 70.5116 	 17.089 	 77.0198
| 37> H 	 70.2857 	 16.7739 	 78.7413
| 38> H 	 70.6493 	 18.4158 	 78.2157
| 39> H 	 66.7114 	 15.93 	 71.3187
| 40> H 	 64.0783 	 20.5071 	 77.5031
| 41> *
| 42>
| 43>                          ****END OF INPUT****

CARTESIAN COORDINATES (ANGSTROEM)
---------------------------------
  S     65.812400   17.770000   72.764700
  C     66.792000   16.384200   72.275700
  C     67.404100   15.753400   73.351400
  C     67.333700   16.560300   74.491400
  C     66.484700   17.656900   74.379200
  H     67.838900   16.258600   75.422900
  C     68.095000   14.404000   73.274400
  H     67.448700   13.576400   72.959900
  H     68.218100   14.256500   74.349500
  C     69.449000   14.324400   72.558700
  H     70.199900   14.954800   73.051000
  H     69.800600   13.336400   72.708500
  C     69.585900   14.712800   71.104100
  H     70.555800   14.331000   70.647500
  H     68.791200   14.397200   70.443200
  H     69.536100   15.799400   71.066200
  S     64.463700   18.896600   75.560300
  C     64.743200   19.995300   76.902000
  C     66.076500   20.002100   77.228000
  C     66.885900   19.245400   76.385300
  C     66.156500   18.596100   75.416200
  H     66.338000   20.699800   78.068400
  C     68.393600   18.967400   76.675000
  H     68.705000   19.957500   76.887100
  H     68.864100   18.754500   75.699900
  C     68.603400   17.899800   77.760800
  H     67.814500   17.166600   77.719400
  H     68.274000   18.271500   78.706300
  C     70.079900   17.464100   77.909200
  H     70.511600   17.089000   77.019800
  H     70.285700   16.773900   78.741300
  H     70.649300   18.415800   78.215700
  H     66.711400   15.930000   71.318700
  H     64.078300   20.507100   77.503100

 Total Charge           Charge          ....    0
 Multiplicity           Mult            ....    1
 Number of Electrons    NEL             ....  134
 Basis Dimension        Dim             ....  322

ORBITAL ENERGIES
----------------

  NO   OCC          E(Eh)            E(eV)
   0   2.0000     -88.969967     -2420.9959
   1   2.0000     -88.964586     -2420.8495
   2   2.0000     -10.328411      -281.0503
   3   2.0000     -10.320522      -280.8357
   4   2.0000     -10.310351      -280.5589
   5   2.0000     -10.308083      -280.4972
   6   2.0000     -10.298012      -280.2232
   7   2.0000     -10.297999      -280.2228
   8   2.0000     -10.295338      -280.1504
   9   2.0000     -10.293766      -280.1076
  10   2.0000     -10.291785      -280.0537
  11   2.0000     -10.291684      -280.0510
  12   2.0000     -10.287891      -279.9477
  13   2.0000     -10.286718      -279.9158
  14   2.0000     -10.283955      -279.8406
  15   2.0000     -10.279963      -279.7320
  16   2.0000      -8.084172      -219.9815
  17   2.0000      -8.079711      -219.8601
  18   2.0000      -6.042647      -164.4288
  19   2.0000      -6.038796      -164.3240
  20   2.0000      -6.038120      -164.3056
  21   2.0000      -6.034963      -164.2197
  22   2.0000      -6.034162      -164.1979
  23   2.0000      -6.030545      -164.0995
  24   2.0000      -1.012192       -27.5432
  25   2.0000      -0.986554       -26.8455
  26   2.0000      -0.913510       -24.8579
  27   2.0000      -0.906443       -24.6656
  28   2.0000      -0.872298       -23.7364
  29   2.0000      -0.853490       -23.2246
  30   2.0000      -0.848519       -23.0894
  31   2.0000      -0.813079       -22.1250
  32   2.0000      -0.786704       -21.4073
  33   2.0000      -0.774810       -21.0836
  34   2.0000      -0.714621       -19.4458
  35   2.0000      -0.706753       -19.2317
  36   2.0000      -0.700730       -19.0678
  37   2.0000      -0.662511       -18.0278
  38   2.0000      -0.636713       -17.3258
  39   2.0000      -0.623207       -16.9583
  40   2.0000      -0.590818       -16.0770
  41   2.0000      -0.571499       -15.5513
  42   2.0000      -0.557219       -15.1627
  43   2.0000      -0.542572       -14.7641
  44   2.0000      -0.541180       -14.7263
  45   2.0000      -0.529085       -14.3971
  46   2.0000      -0.519621       -14.1396
  47   2.0000      -0.517010       -14.0685
  48   2.0000      -0.507417       -13.8075
  49   2.0000      -0.495724       -13.4893
  50   2.0000      -0.486085       -13.2270
  51   2.0000      -0.481781       -13.1099
  52   2.0000      -0.478009       -13.0073
  53   2.0000      -0.467651       -12.7254
  54   2.0000      -0.459245       -12.4967
  55   2.0000      -0.449047       -12.2192
  56   2.0000      -0.446849       -12.1594
  57   2.0000      -0.439892       -11.9701
  58   2.0000      -0.436782       -11.8855
  59   2.0000      -0.422057       -11.4848
  60   2.0000      -0.419592       -11.4177
  61   2.0000      -0.414483       -11.2786
  62   2.0000      -0.408705       -11.1214
  63   2.0000      -0.349953        -9.5227
  64   2.0000      -0.336090        -9.1455
  65   2.0000      -0.333164        -9.0659
  66   2.0000      -0.285766        -7.7761
  67   0.0000       0.027244         0.7414
  68   0.0000       0.069178         1.8824
  69   0.0000       0.106580         2.9002
  70   0.0000       0.127706         3.4751
  71   0.0000       0.130758         3.5581

MULLIKEN ATOMIC CHARGES
-----------------------
   0 S :    0.123775
   1 C :   -0.114617
   2 C :   -0.101086
   3 C :    0.004375
   4 C :   -0.127732
   5 H :    0.013649
   6 C :    0.073956
   7 H :    0.042153
   8 H :    0.011729
   9 C :   -0.039696
  10 H :    0.021722
  11 H :    0.018382
  12 C :   -0.071115
  13 H :    0.047429
  14 H :    0.021715
  15 H :    0.038720
  16 S :    0.102477
  17 C :   -0.053869
  18 C :   -0.086294
  19 C :   -0.060823
  20 C :   -0.153098
  21 H :    0.035488
  22 C :    0.095179
  23 H :    0.011839
  24 H :    0.029579
  25 C :   -0.031301
  26 H :    0.021792
  27 H :    0.003412
  28 C :   -0.042763
  29 H :    0.031646
  30 H :    0.040170
  31 H :    0.037847
  32 H :    0.035510
  33 H :    0.019852
Sum of atomic charges:    0.0000000

LOEWDIN ATOMIC CHARGES
----------------------
   0 S :    0.406841
   1 C :   -0.188276
   2 C :   -0.064847
   3 C :   -0.065777
   4 C :   -0.196825
   5 H :    0.034499
   6 C :   -0.031034
   7 H :    0.035586
   8 H :    0.034131
   9 C :   -0.040718
  10 H :    0.028199
  11 H :    0.018794
  12 C :   -0.072048
  13 H :    0.038132
  14 H :    0.016932
  15 H :    0.026319
  16 S :    0.413895
  17 C :   -0.179072
  18 C :   -0.077745
  19 C :   -0.065068
  20 C :   -0.199343
  21 H :    0.041872
  22 C :   -0.022391
  23 H :    0.023781
  24 H :    0.031845
  25 C :   -0.047154
  26 H :    0.022733
  27 H :    0.024908
  28 C :   -0.064242
  29 H :    0.016390
  30 H :    0.029050
  31 H :    0.037884
  32 H :    0.017608
  33 H :    0.015142

  Mayer bond orders larger than 0.100000
B(  0-S ,  1-C ) :   1.1426 B(  0-S ,  4-C ) :   1.1552 B(  1-C ,  2-C ) :   1.5866
B(  1-C ,  4-C ) :   0.1085 B(  1-C , 32-H ) :   0.9680 B(  2-C ,  3-C ) :   1.2893
B(  2-C ,  6-C ) :   1.0035 B(  3-C ,  4-C ) :   1.5385 B(  3-C ,  5-H ) :   0.9844
B(  4-C , 20-C ) :   1.0473 B(  6-C ,  7-H ) :   0.9405 B(  6-C ,  8-H ) :   0.9331
B(  6-C ,  9-C ) :   1.0821 B(  9-C , 10-H ) :   0.9525 B(  9-C , 11-H ) :   0.9545
B(  9-C , 12-C ) :   1.0819 B( 12-C , 13-H ) :   0.9709 B( 12-C , 14-H ) :   0.9751
B( 12-C , 15-H ) :   0.9719 B( 16-S , 17-C ) :   1.1417 B( 16-S , 20-C ) :   1.1564
B( 17-C , 18-C ) :   1.6292 B( 17-C , 20-C ) :   0.1072 B( 17-C , 33-H ) :   0.9734
B( 18-C , 19-C ) :   1.2445 B( 18-C , 21-H ) :   0.9810 B( 19-C , 20-C ) :   1.5895
B( 19-C , 22-C ) :   1.0310 B( 22-C , 23-H ) :   0.9280 B( 22-C , 24-H ) :   0.9394
B( 22-C , 25-C ) :   1.0455 B( 25-C , 26-H ) :   0.9554 B( 25-C , 27-H ) :   0.9412
B( 25-C , 28-C ) :   1.0685 B( 28-C , 29-H ) :   0.9808 B( 28-C , 30-H ) :   0.9752
B( 28-C , 31-H ) :   0.9722

Dispersion correction           -0.014663234
FINAL SINGLE POINT ENERGY     -1339.869006806205

DIPOLE MOMENT
-------------
                                X             Y             Z
Electronic contribution:    -26.03780      13.49742      -3.96306
Nuclear contribution   :     26.51924     -13.83239       4.35031
                        -----------------------------------------
Total Dipole Moment    :      0.48143      -0.33497       0.38726
                        -----------------------------------------
Magnitude (a.u.)       :      0.70282
Magnitude (Debye)      :      1.78641

Rotational constants in cm-1:     0.018987     0.009142     0.006576
Rotational constants in MHz :   569.213646   274.058080   197.136528

                             ****ORCA TERMINATED NORMALLY****
TOTAL RUN TIME: 0 days 0 hours 0 minutes 30 seconds 837 msec
