                         Program Version 4.2.1 -  RELEASE  -
|  1> ! wB97X-D3 SP def2-SVP
|  2> %pal
|  3> nprocs 16
|  4> end
|  5>
|  6> * xyz 0 1
|  7> S 	 -74.0756 	 50.8665 	 138.854
|  8> C 	 -73.1543 	 51.2583 	 140.238
|  9> C 	 -73.9115 	 51.9827 	 141.175
| 10> C 	 -75.2557 	 52.2053 	 140.683
| 11> C 	 -75.4866 	 51.7139 	 139.425
| 12> H 	 -76.0346 	 52.7314 	 141.179
| 13> C 	 -73.2397 	 52.4931 	 142.441
| 14> H 	 -73.2708 	 53.5878 	 142.398
| 15> H 	 -72.2212 	 52.1 	 142.343
| 16> C 	 -73.8463 	 52.0464 	 143.727
| 17> H 	 -74.8483 	 52.3915 	 143.778
| 18> H 	 -73.8851 	 50.9076 	 143.793
| 19> C 	 -73.0471 	 52.5331 	 144.945
| 20> H 	 -72.0209 	 52.2267 	 144.881
| 21> H 	 -73.2402 	 53.568 	 145.096
| 22> H 	 -73.6005 	 52.0124 	 145.745
| 23> S 	 -77.9113 	 52.9495 	 139.242
| 24> C 	 -79.0843 	 52.4487 	 137.994
| 25> C 	 -78.668 	 51.3125 	 137.418
| 26> C 	 -77.309 	 50.976 	 137.658
| 27> C 	 -76.7852 	 51.7237 	 138.738
| 28> H 	 -79.3014 	 50.8205 	 136.72
| 29> C 	 -76.6393 	 49.7593 	 137.026
| 30> H 	 -75.6392 	 50.1228 	 136.794
| 31> H 	 -77.1665 	 49.577 	 136.058
| 32> C 	 -76.8333 	 48.4699 	 137.823
| 33> H 	 -77.9127 	 48.2593 	 137.967
| 34> H 	 -76.3079 	 48.6129 	 138.777
| 35> C 	 -76.1754 	 47.2697 	 137.13
| 36> H 	 -76.5084 	 46.3818 	 137.653
| 37> H 	 -75.1042 	 47.3392 	 136.958
| 38> H 	 -76.6065 	 47.1177 	 136.157
| 39> H 	 -72.1201 	 50.9417 	 140.34
| 40> H 	 -80.08 	 52.9117 	 137.94
| 41> *
| 42>
| 43>                          ****END OF INPUT****

CARTESIAN COORDINATES (ANGSTROEM)
---------------------------------
  S    -74.075600   50.866500  138.854000
  C    -73.154300   51.258300  140.238000
  C    -73.911500   51.982700  141.175000
  C    -75.255700   52.205300  140.683000
  C    -75.486600   51.713900  139.425000
  H    -76.034600   52.731400  141.179000
  C    -73.239700   52.493100  142.441000
  H    -73.270800   53.587800  142.398000
  H    -72.221200   52.100000  142.343000
  C    -73.846300   52.046400  143.727000
  H    -74.848300   52.391500  143.778000
  H    -73.885100   50.907600  143.793000
  C    -73.047100   52.533100  144.945000
  H    -72.020900   52.226700  144.881000
  H    -73.240200   53.568000  145.096000
  H    -73.600500   52.012400  145.745000
  S    -77.911300   52.949500  139.242000
  C    -79.084300   52.448700  137.994000
  C    -78.668000   51.312500  137.418000
  C    -77.309000   50.976000  137.658000
  C    -76.785200   51.723700  138.738000
  H    -79.301400   50.820500  136.720000
  C    -76.639300   49.759300  137.026000
  H    -75.639200   50.122800  136.794000
  H    -77.166500   49.577000  136.058000
  C    -76.833300   48.469900  137.823000
  H    -77.912700   48.259300  137.967000
  H    -76.307900   48.612900  138.777000
  C    -76.175400   47.269700  137.130000
  H    -76.508400   46.381800  137.653000
  H    -75.104200   47.339200  136.958000
  H    -76.606500   47.117700  136.157000
  H    -72.120100   50.941700  140.340000
  H    -80.080000   52.911700  137.940000

 Total Charge           Charge          ....    0
 Multiplicity           Mult            ....    1
 Number of Electrons    NEL             ....  134
 Basis Dimension        Dim             ....  322

ORBITAL ENERGIES
----------------

  NO   OCC          E(Eh)            E(eV)
   0   2.0000     -88.966813     -2420.9101
   1   2.0000     -88.962427     -2420.7907
   2   2.0000     -10.330323      -281.1024
   3   2.0000     -10.330121      -281.0969
   4   2.0000     -10.316519      -280.7267
   5   2.0000     -10.312576      -280.6195
   6   2.0000     -10.304689      -280.4048
   7   2.0000     -10.302087      -280.3341
   8   2.0000     -10.292587      -280.0755
   9   2.0000     -10.292059      -280.0612
  10   2.0000     -10.289833      -280.0006
  11   2.0000     -10.288693      -279.9696
  12   2.0000     -10.286911      -279.9211
  13   2.0000     -10.283050      -279.8160
  14   2.0000     -10.274938      -279.5953
  15   2.0000     -10.271547      -279.5030
  16   2.0000      -8.081859      -219.9186
  17   2.0000      -8.077052      -219.7877
  18   2.0000      -6.040355      -164.3664
  19   2.0000      -6.036210      -164.2536
  20   2.0000      -6.035629      -164.2378
  21   2.0000      -6.032752      -164.1595
  22   2.0000      -6.031713      -164.1313
  23   2.0000      -6.027635      -164.0203
  24   2.0000      -1.008742       -27.4493
  25   2.0000      -0.986129       -26.8339
  26   2.0000      -0.917196       -24.9582
  27   2.0000      -0.907718       -24.7003
  28   2.0000      -0.875836       -23.8327
  29   2.0000      -0.853374       -23.2215
  30   2.0000      -0.843708       -22.9585
  31   2.0000      -0.819692       -22.3050
  32   2.0000      -0.781519       -21.2662
  33   2.0000      -0.767508       -20.8850
  34   2.0000      -0.706784       -19.2326
  35   2.0000      -0.694843       -18.9076
  36   2.0000      -0.684289       -18.6205
  37   2.0000      -0.670857       -18.2549
  38   2.0000      -0.638756       -17.3814
  39   2.0000      -0.617751       -16.8099
  40   2.0000      -0.593531       -16.1508
  41   2.0000      -0.579295       -15.7634
  42   2.0000      -0.566777       -15.4228
  43   2.0000      -0.565766       -15.3953
  44   2.0000      -0.532799       -14.4982
  45   2.0000      -0.525925       -14.3112
  46   2.0000      -0.516860       -14.0645
  47   2.0000      -0.511091       -13.9075
  48   2.0000      -0.509020       -13.8511
  49   2.0000      -0.502738       -13.6802
  50   2.0000      -0.487730       -13.2718
  51   2.0000      -0.480690       -13.0802
  52   2.0000      -0.476675       -12.9710
  53   2.0000      -0.463722       -12.6185
  54   2.0000      -0.462422       -12.5831
  55   2.0000      -0.448308       -12.1991
  56   2.0000      -0.444109       -12.0848
  57   2.0000      -0.436272       -11.8716
  58   2.0000      -0.432487       -11.7686
  59   2.0000      -0.424738       -11.5577
  60   2.0000      -0.416061       -11.3216
  61   2.0000      -0.412997       -11.2382
  62   2.0000      -0.407827       -11.0975
  63   2.0000      -0.366006        -9.9595
  64   2.0000      -0.329250        -8.9593
  65   2.0000      -0.329012        -8.9529
  66   2.0000      -0.281637        -7.6637
  67   0.0000       0.022622         0.6156
  68   0.0000       0.087455         2.3798
  69   0.0000       0.109615         2.9828
  70   0.0000       0.125412         3.4126
  71   0.0000       0.132791         3.6134

MULLIKEN ATOMIC CHARGES
-----------------------
   0 S :    0.092212
   1 C :   -0.129993
   2 C :   -0.083567
   3 C :   -0.009381
   4 C :   -0.087264
   5 H :    0.006145
   6 C :    0.097525
   7 H :    0.036654
   8 H :    0.009577
   9 C :   -0.129783
  10 H :    0.021514
  11 H :    0.035388
  12 C :   -0.006664
  13 H :    0.037519
  14 H :    0.027311
  15 H :    0.031523
  16 S :    0.066663
  17 C :   -0.091368
  18 C :   -0.003713
  19 C :   -0.090383
  20 C :   -0.116000
  21 H :    0.007259
  22 C :    0.030308
  23 H :    0.039661
  24 H :    0.015489
  25 C :   -0.061845
  26 H :    0.035607
  27 H :    0.035822
  28 C :   -0.015717
  29 H :    0.029284
  30 H :    0.038342
  31 H :    0.007442
  32 H :    0.056625
  33 H :    0.067808
Sum of atomic charges:    0.0000000

LOEWDIN ATOMIC CHARGES
----------------------
   0 S :    0.430777
   1 C :   -0.215585
   2 C :   -0.055078
   3 C :   -0.072223
   4 C :   -0.189924
   5 H :    0.019017
   6 C :   -0.032871
   7 H :    0.034360
   8 H :    0.029716
   9 C :   -0.044938
  10 H :    0.017149
  11 H :    0.029355
  12 C :   -0.056319
  13 H :    0.023544
  14 H :    0.020618
  15 H :    0.032959
  16 S :    0.391285
  17 C :   -0.173948
  18 C :   -0.066742
  19 C :   -0.063058
  20 C :   -0.187419
  21 H :    0.027963
  22 C :   -0.041606
  23 H :    0.022012
  24 H :    0.031654
  25 C :   -0.037357
  26 H :    0.031215
  27 H :    0.023839
  28 C :   -0.065023
  29 H :    0.027319
  30 H :    0.027101
  31 H :    0.018408
  32 H :    0.029068
  33 H :    0.034732

  Mayer bond orders larger than 0.100000
B(  0-S ,  1-C ) :   1.1493 B(  0-S ,  4-C ) :   1.1467 B(  1-C ,  2-C ) :   1.5909
B(  1-C , 32-H ) :   0.9662 B(  2-C ,  3-C ) :   1.2475 B(  2-C ,  6-C ) :   1.0268
B(  3-C ,  4-C ) :   1.5529 B(  3-C ,  5-H ) :   0.9936 B(  4-C , 20-C ) :   1.0675
B(  6-C ,  7-H ) :   0.9333 B(  6-C ,  8-H ) :   0.9361 B(  6-C ,  9-C ) :   1.0747
B(  9-C , 10-H ) :   0.9525 B(  9-C , 11-H ) :   0.9575 B(  9-C , 12-C ) :   1.0861
B( 12-C , 13-H ) :   0.9749 B( 12-C , 14-H ) :   0.9735 B( 12-C , 15-H ) :   0.9748
B( 16-S , 17-C ) :   1.1284 B( 16-S , 20-C ) :   1.1500 B( 17-C , 18-C ) :   1.6301
B( 17-C , 33-H ) :   0.9649 B( 18-C , 19-C ) :   1.2411 B( 18-C , 21-H ) :   0.9882
B( 19-C , 20-C ) :   1.5553 B( 19-C , 22-C ) :   1.0496 B( 22-C , 23-H ) :   0.9323
B( 22-C , 24-H ) :   0.9253 B( 22-C , 25-C ) :   1.0649 B( 25-C , 26-H ) :   0.9520
B( 25-C , 27-H ) :   0.9530 B( 25-C , 28-C ) :   1.0874 B( 28-C , 29-H ) :   0.9721
B( 28-C , 30-H ) :   0.9747 B( 28-C , 31-H ) :   0.9697

Dispersion correction           -0.013737948
FINAL SINGLE POINT ENERGY     -1339.888197249397

DIPOLE MOMENT
-------------
                                X             Y             Z
Electronic contribution:     -6.90380      11.06216     -10.84829
Nuclear contribution   :      6.84678     -11.29723      11.03038
                        -----------------------------------------
Total Dipole Moment    :     -0.05702      -0.23507       0.18209
                        -----------------------------------------
Magnitude (a.u.)       :      0.30276
Magnitude (Debye)      :      0.76956

Rotational constants in cm-1:     0.020268     0.007895     0.006287
Rotational constants in MHz :   607.605453   236.683913   188.478512

                             ****ORCA TERMINATED NORMALLY****
TOTAL RUN TIME: 0 days 0 hours 0 minutes 35 seconds 469 msec
