                         Program Version 4.2.1 -  RELEASE  -
|  1> ! wB97X-D3 SP def2-SVP
|  2> %pal
|  3> nprocs 16
|  4> end
|  5>
|  6> * xyz 0 1
|  7> S 	 -16.3644 	 -11.9293 	 89.6382
|  8> C 	 -17.1301 	 -11.2462 	 88.213
|  9> C 	 -16.2542 	 -10.6138 	 87.3332
| 10> C 	 -14.9114 	 -10.6398 	 87.8289
| 11> C 	 -14.8583 	 -11.2672 	 89.0365
| 12> H 	 -14.0219 	 -10.1184 	 87.4742
| 13> C 	 -16.7096 	 -9.91745 	 86.059
| 14> H 	 -17.4457 	 -9.26221 	 86.532
| 15> H 	 -17.1053 	 -10.682 	 85.4201
| 16> C 	 -15.6443 	 -9.02667 	 85.273
| 17> H 	 -15.0317 	 -8.52382 	 85.9923
| 18> H 	 -14.8486 	 -9.68396 	 84.7517
| 19> C 	 -16.2357 	 -7.9559 	 84.4363
| 20> H 	 -15.4033 	 -7.36815 	 84.0404
| 21> H 	 -16.8315 	 -8.33032 	 83.6506
| 22> H 	 -16.7839 	 -7.28986 	 84.9905
| 23> S 	 -14.0034 	 -10.1608 	 91.3365
| 24> C 	 -12.4646 	 -10.5965 	 92.0405
| 25> C 	 -11.8083 	 -11.47 	 91.177
| 26> C 	 -12.5428 	 -11.7102 	 89.9494
| 27> C 	 -13.7411 	 -11.1737 	 89.9861
| 28> H 	 -10.8549 	 -11.8256 	 91.4988
| 29> C 	 -11.987 	 -12.5605 	 88.8273
| 30> H 	 -10.9282 	 -12.6213 	 89.0463
| 31> H 	 -12.2895 	 -12.0373 	 87.9163
| 32> C 	 -12.5415 	 -13.989 	 88.7774
| 33> H 	 -12.1764 	 -14.3216 	 87.8129
| 34> H 	 -13.683 	 -13.9647 	 88.8014
| 35> C 	 -11.8932 	 -14.8763 	 89.9323
| 36> H 	 -12.3922 	 -14.5724 	 90.809
| 37> H 	 -10.8095 	 -14.6074 	 90.056
| 38> H 	 -11.9997 	 -15.9279 	 89.9615
| 39> H 	 -18.1937 	 -11.3638 	 87.9912
| 40> H 	 -12.0186 	 -10.5045 	 92.9896
| 41> *
| 42>
| 43>                          ****END OF INPUT****

CARTESIAN COORDINATES (ANGSTROEM)
---------------------------------
  S    -16.364400  -11.929300   89.638200
  C    -17.130100  -11.246200   88.213000
  C    -16.254200  -10.613800   87.333200
  C    -14.911400  -10.639800   87.828900
  C    -14.858300  -11.267200   89.036500
  H    -14.021900  -10.118400   87.474200
  C    -16.709600   -9.917450   86.059000
  H    -17.445700   -9.262210   86.532000
  H    -17.105300  -10.682000   85.420100
  C    -15.644300   -9.026670   85.273000
  H    -15.031700   -8.523820   85.992300
  H    -14.848600   -9.683960   84.751700
  C    -16.235700   -7.955900   84.436300
  H    -15.403300   -7.368150   84.040400
  H    -16.831500   -8.330320   83.650600
  H    -16.783900   -7.289860   84.990500
  S    -14.003400  -10.160800   91.336500
  C    -12.464600  -10.596500   92.040500
  C    -11.808300  -11.470000   91.177000
  C    -12.542800  -11.710200   89.949400
  C    -13.741100  -11.173700   89.986100
  H    -10.854900  -11.825600   91.498800
  C    -11.987000  -12.560500   88.827300
  H    -10.928200  -12.621300   89.046300
  H    -12.289500  -12.037300   87.916300
  C    -12.541500  -13.989000   88.777400
  H    -12.176400  -14.321600   87.812900
  H    -13.683000  -13.964700   88.801400
  C    -11.893200  -14.876300   89.932300
  H    -12.392200  -14.572400   90.809000
  H    -10.809500  -14.607400   90.056000
  H    -11.999700  -15.927900   89.961500
  H    -18.193700  -11.363800   87.991200
  H    -12.018600  -10.504500   92.989600

 Total Charge           Charge          ....    0
 Multiplicity           Mult            ....    1
 Number of Electrons    NEL             ....  134
 Basis Dimension        Dim             ....  322

ORBITAL ENERGIES
----------------

  NO   OCC          E(Eh)            E(eV)
   0   2.0000     -88.970206     -2421.0024
   1   2.0000     -88.960430     -2420.7364
   2   2.0000     -10.324749      -280.9507
   3   2.0000     -10.313294      -280.6390
   4   2.0000     -10.309122      -280.5255
   5   2.0000     -10.308306      -280.5033
   6   2.0000     -10.304633      -280.4033
   7   2.0000     -10.295695      -280.1601
   8   2.0000     -10.294969      -280.1403
   9   2.0000     -10.294367      -280.1240
  10   2.0000     -10.290581      -280.0210
  11   2.0000     -10.288717      -279.9702
  12   2.0000     -10.288522      -279.9649
  13   2.0000     -10.286682      -279.9149
  14   2.0000     -10.273478      -279.5555
  15   2.0000     -10.269031      -279.4345
  16   2.0000      -8.084666      -219.9949
  17   2.0000      -8.075888      -219.7561
  18   2.0000      -6.043069      -164.4403
  19   2.0000      -6.039346      -164.3390
  20   2.0000      -6.035411      -164.2319
  21   2.0000      -6.034561      -164.2087
  22   2.0000      -6.030202      -164.0901
  23   2.0000      -6.026502      -163.9895
  24   2.0000      -1.013119       -27.5684
  25   2.0000      -0.985623       -26.8202
  26   2.0000      -0.911532       -24.8041
  27   2.0000      -0.905962       -24.6525
  28   2.0000      -0.871843       -23.7240
  29   2.0000      -0.856041       -23.2941
  30   2.0000      -0.839443       -22.8424
  31   2.0000      -0.820768       -22.3342
  32   2.0000      -0.782162       -21.2837
  33   2.0000      -0.772986       -21.0340
  34   2.0000      -0.713871       -19.4254
  35   2.0000      -0.697241       -18.9729
  36   2.0000      -0.684491       -18.6260
  37   2.0000      -0.663684       -18.0598
  38   2.0000      -0.642562       -17.4850
  39   2.0000      -0.617751       -16.8099
  40   2.0000      -0.582772       -15.8580
  41   2.0000      -0.575737       -15.6666
  42   2.0000      -0.564780       -15.3684
  43   2.0000      -0.557224       -15.1628
  44   2.0000      -0.535354       -14.5677
  45   2.0000      -0.527379       -14.3507
  46   2.0000      -0.521837       -14.1999
  47   2.0000      -0.514350       -13.9962
  48   2.0000      -0.501744       -13.6532
  49   2.0000      -0.498717       -13.5708
  50   2.0000      -0.483518       -13.1572
  51   2.0000      -0.479720       -13.0538
  52   2.0000      -0.474676       -12.9166
  53   2.0000      -0.461246       -12.5511
  54   2.0000      -0.460452       -12.5295
  55   2.0000      -0.457142       -12.4395
  56   2.0000      -0.441334       -12.0093
  57   2.0000      -0.437695       -11.9103
  58   2.0000      -0.432240       -11.7618
  59   2.0000      -0.423017       -11.5109
  60   2.0000      -0.421855       -11.4793
  61   2.0000      -0.419764       -11.4224
  62   2.0000      -0.405554       -11.0357
  63   2.0000      -0.345056        -9.3895
  64   2.0000      -0.327519        -8.9122
  65   2.0000      -0.322854        -8.7853
  66   2.0000      -0.301024        -8.1913
  67   0.0000       0.039773         1.0823
  68   0.0000       0.067764         1.8440
  69   0.0000       0.112766         3.0685
  70   0.0000       0.123766         3.3678
  71   0.0000       0.133982         3.6458

MULLIKEN ATOMIC CHARGES
-----------------------
   0 S :    0.129864
   1 C :   -0.140003
   2 C :   -0.097904
   3 C :    0.039056
   4 C :   -0.186643
   5 H :    0.028232
   6 C :    0.063126
   7 H :    0.043771
   8 H :    0.048090
   9 C :   -0.116763
  10 H :    0.017939
  11 H :    0.040541
  12 C :    0.026064
  13 H :    0.028466
  14 H :    0.025299
  15 H :    0.010814
  16 S :    0.122306
  17 C :   -0.066648
  18 C :   -0.065347
  19 C :   -0.039945
  20 C :   -0.181903
  21 H :    0.004245
  22 C :    0.100983
  23 H :    0.017770
  24 H :    0.024384
  25 C :   -0.071165
  26 H :    0.027950
  27 H :    0.053323
  28 C :   -0.047445
  29 H :    0.023540
  30 H :    0.026926
  31 H :    0.031530
  32 H :    0.045192
  33 H :    0.034354
Sum of atomic charges:   -0.0000000

LOEWDIN ATOMIC CHARGES
----------------------
   0 S :    0.407527
   1 C :   -0.204595
   2 C :   -0.057361
   3 C :   -0.063759
   4 C :   -0.188706
   5 H :    0.037583
   6 C :   -0.032629
   7 H :    0.041023
   8 H :    0.032817
   9 C :   -0.046172
  10 H :    0.018432
  11 H :    0.031497
  12 C :   -0.051380
  13 H :    0.034096
  14 H :    0.020284
  15 H :    0.015749
  16 S :    0.419685
  17 C :   -0.192352
  18 C :   -0.066128
  19 C :   -0.068255
  20 C :   -0.218338
  21 H :    0.023310
  22 C :   -0.026272
  23 H :    0.028296
  24 H :    0.032785
  25 C :   -0.032371
  26 H :    0.019309
  27 H :    0.032572
  28 C :   -0.067992
  29 H :    0.021478
  30 H :    0.027932
  31 H :    0.020076
  32 H :    0.026231
  33 H :    0.025629

  Mayer bond orders larger than 0.100000
B(  0-S ,  1-C ) :   1.1282 B(  0-S ,  4-C ) :   1.1546 B(  1-C ,  2-C ) :   1.6432
B(  1-C , 32-H ) :   0.9696 B(  2-C ,  3-C ) :   1.2229 B(  2-C ,  6-C ) :   0.9778
B(  3-C ,  4-C ) :   1.6080 B(  3-C ,  5-H ) :   0.9816 B(  4-C , 20-C ) :   0.9765
B(  6-C ,  7-H ) :   0.9475 B(  6-C ,  8-H ) :   0.9379 B(  6-C ,  9-C ) :   1.0785
B(  9-C , 10-H ) :   0.9519 B(  9-C , 11-H ) :   0.9516 B(  9-C , 12-C ) :   1.0955
B( 12-C , 13-H ) :   0.9667 B( 12-C , 14-H ) :   0.9741 B( 12-C , 15-H ) :   0.9702
B( 16-S , 17-C ) :   1.1345 B( 16-S , 20-C ) :   1.1404 B( 17-C , 18-C ) :   1.6600
B( 17-C , 33-H ) :   0.9665 B( 18-C , 19-C ) :   1.1953 B( 18-C , 21-H ) :   0.9898
B( 19-C , 20-C ) :   1.6687 B( 19-C , 22-C ) :   1.0413 B( 22-C , 23-H ) :   0.9304
B( 22-C , 24-H ) :   0.9227 B( 22-C , 25-C ) :   1.0772 B( 25-C , 26-H ) :   0.9587
B( 25-C , 27-H ) :   0.9579 B( 25-C , 28-C ) :   1.0494 B( 28-C , 29-H ) :   0.9764
B( 28-C , 30-H ) :   0.9759 B( 28-C , 31-H ) :   0.9789

Dispersion correction           -0.014667339
FINAL SINGLE POINT ENERGY     -1339.854510787185

DIPOLE MOMENT
-------------
                                X             Y             Z
Electronic contribution:     -6.52613       1.79663      19.65980
Nuclear contribution   :      6.65577      -1.70350     -20.12036
                        -----------------------------------------
Total Dipole Moment    :      0.12964       0.09313      -0.46056
                        -----------------------------------------
Magnitude (a.u.)       :      0.48744
Magnitude (Debye)      :      1.23896

Rotational constants in cm-1:     0.020358     0.007786     0.007360
Rotational constants in MHz :   610.312753   233.431834   220.659605

                             ****ORCA TERMINATED NORMALLY****
TOTAL RUN TIME: 0 days 0 hours 0 minutes 33 seconds 282 msec
