                         Program Version 4.2.1 -  RELEASE  -
|  1> ! wB97X-D3 SP def2-SVP
|  2> %pal
|  3> nprocs 16
|  4> end
|  5>
|  6> * xyz 0 1
|  7> S 	 -38.0455 	 12.1552 	 78.4729
|  8> C 	 -37.207 	 11.9127 	 76.9427
|  9> C 	 -37.4363 	 12.9035 	 76.0421
| 10> C 	 -38.4023 	 13.7991 	 76.5578
| 11> C 	 -38.9152 	 13.5425 	 77.8004
| 12> H 	 -38.8234 	 14.6199 	 76.0916
| 13> C 	 -36.8414 	 12.9347 	 74.6437
| 14> H 	 -37.6514 	 12.8527 	 73.9605
| 15> H 	 -36.2441 	 12.0599 	 74.5622
| 16> C 	 -35.8954 	 14.1313 	 74.5402
| 17> H 	 -35.1858 	 13.8936 	 75.2893
| 18> H 	 -35.3759 	 14.1802 	 73.6073
| 19> C 	 -36.4341 	 15.5653 	 74.7339
| 20> H 	 -36.6391 	 15.8162 	 75.7676
| 21> H 	 -35.7517 	 16.3079 	 74.4275
| 22> H 	 -37.3502 	 15.6762 	 74.198
| 23> S 	 -39.1734 	 14.9702 	 80.1688
| 24> C 	 -40.7151 	 15.8725 	 80.4288
| 25> C 	 -41.582 	 15.7192 	 79.3458
| 26> C 	 -41.0347 	 14.9177 	 78.3144
| 27> C 	 -39.7658 	 14.4388 	 78.5888
| 28> H 	 -42.4216 	 16.3203 	 79.2385
| 29> C 	 -41.7628 	 14.7046 	 76.9689
| 30> H 	 -41.0762 	 14.645 	 76.1093
| 31> H 	 -42.3867 	 15.5866 	 76.8119
| 32> C 	 -42.6339 	 13.4687 	 76.7845
| 33> H 	 -42.0836 	 12.5028 	 76.6594
| 34> H 	 -43.0647 	 13.6327 	 75.7694
| 35> C 	 -43.7521 	 13.1878 	 77.8494
| 36> H 	 -44.2402 	 12.2609 	 77.6841
| 37> H 	 -44.6017 	 13.9267 	 77.979
| 38> H 	 -43.2552 	 13.0877 	 78.8713
| 39> H 	 -36.6799 	 10.9885 	 76.7654
| 40> H 	 -40.9645 	 16.4989 	 81.2591
| 41> *
| 42>
| 43>                          ****END OF INPUT****

CARTESIAN COORDINATES (ANGSTROEM)
---------------------------------
  S    -38.045500   12.155200   78.472900
  C    -37.207000   11.912700   76.942700
  C    -37.436300   12.903500   76.042100
  C    -38.402300   13.799100   76.557800
  C    -38.915200   13.542500   77.800400
  H    -38.823400   14.619900   76.091600
  C    -36.841400   12.934700   74.643700
  H    -37.651400   12.852700   73.960500
  H    -36.244100   12.059900   74.562200
  C    -35.895400   14.131300   74.540200
  H    -35.185800   13.893600   75.289300
  H    -35.375900   14.180200   73.607300
  C    -36.434100   15.565300   74.733900
  H    -36.639100   15.816200   75.767600
  H    -35.751700   16.307900   74.427500
  H    -37.350200   15.676200   74.198000
  S    -39.173400   14.970200   80.168800
  C    -40.715100   15.872500   80.428800
  C    -41.582000   15.719200   79.345800
  C    -41.034700   14.917700   78.314400
  C    -39.765800   14.438800   78.588800
  H    -42.421600   16.320300   79.238500
  C    -41.762800   14.704600   76.968900
  H    -41.076200   14.645000   76.109300
  H    -42.386700   15.586600   76.811900
  C    -42.633900   13.468700   76.784500
  H    -42.083600   12.502800   76.659400
  H    -43.064700   13.632700   75.769400
  C    -43.752100   13.187800   77.849400
  H    -44.240200   12.260900   77.684100
  H    -44.601700   13.926700   77.979000
  H    -43.255200   13.087700   78.871300
  H    -36.679900   10.988500   76.765400
  H    -40.964500   16.498900   81.259100

 Total Charge           Charge          ....    0
 Multiplicity           Mult            ....    1
 Number of Electrons    NEL             ....  134
 Basis Dimension        Dim             ....  322

ORBITAL ENERGIES
----------------

  NO   OCC          E(Eh)            E(eV)
   0   2.0000     -88.969542     -2420.9843
   1   2.0000     -88.962327     -2420.7880
   2   2.0000     -10.328749      -281.0595
   3   2.0000     -10.327603      -281.0284
   4   2.0000     -10.322325      -280.8848
   5   2.0000     -10.312436      -280.6156
   6   2.0000     -10.302152      -280.3358
   7   2.0000     -10.298267      -280.2301
   8   2.0000     -10.295143      -280.1451
   9   2.0000     -10.292026      -280.0603
  10   2.0000     -10.291943      -280.0580
  11   2.0000     -10.290056      -280.0067
  12   2.0000     -10.285702      -279.8882
  13   2.0000     -10.281737      -279.7803
  14   2.0000     -10.280712      -279.7524
  15   2.0000     -10.269956      -279.4597
  16   2.0000      -8.082858      -219.9457
  17   2.0000      -8.076931      -219.7845
  18   2.0000      -6.041454      -164.3963
  19   2.0000      -6.037588      -164.2911
  20   2.0000      -6.035454      -164.2330
  21   2.0000      -6.033573      -164.1819
  22   2.0000      -6.031493      -164.1253
  23   2.0000      -6.027643      -164.0205
  24   2.0000      -1.004719       -27.3398
  25   2.0000      -0.981295       -26.7024
  26   2.0000      -0.915838       -24.9212
  27   2.0000      -0.900327       -24.4991
  28   2.0000      -0.870016       -23.6743
  29   2.0000      -0.845528       -23.0080
  30   2.0000      -0.841175       -22.8895
  31   2.0000      -0.818612       -22.2756
  32   2.0000      -0.789320       -21.4785
  33   2.0000      -0.776132       -21.1196
  34   2.0000      -0.708296       -19.2737
  35   2.0000      -0.703203       -19.1351
  36   2.0000      -0.685023       -18.6404
  37   2.0000      -0.667640       -18.1674
  38   2.0000      -0.649796       -17.6819
  39   2.0000      -0.619534       -16.8584
  40   2.0000      -0.589294       -16.0355
  41   2.0000      -0.578975       -15.7547
  42   2.0000      -0.555269       -15.1096
  43   2.0000      -0.545087       -14.8326
  44   2.0000      -0.541534       -14.7359
  45   2.0000      -0.534687       -14.5496
  46   2.0000      -0.520109       -14.1529
  47   2.0000      -0.513140       -13.9633
  48   2.0000      -0.500758       -13.6263
  49   2.0000      -0.492957       -13.4140
  50   2.0000      -0.487411       -13.2631
  51   2.0000      -0.484031       -13.1712
  52   2.0000      -0.472247       -12.8505
  53   2.0000      -0.465661       -12.6713
  54   2.0000      -0.458269       -12.4701
  55   2.0000      -0.445451       -12.1213
  56   2.0000      -0.442002       -12.0275
  57   2.0000      -0.436864       -11.8877
  58   2.0000      -0.431148       -11.7321
  59   2.0000      -0.428571       -11.6620
  60   2.0000      -0.421493       -11.4694
  61   2.0000      -0.416085       -11.3222
  62   2.0000      -0.406510       -11.0617
  63   2.0000      -0.347110        -9.4454
  64   2.0000      -0.335235        -9.1222
  65   2.0000      -0.331220        -9.0129
  66   2.0000      -0.291766        -7.9394
  67   0.0000       0.031199         0.8490
  68   0.0000       0.063247         1.7210
  69   0.0000       0.104598         2.8463
  70   0.0000       0.121330         3.3016
  71   0.0000       0.137605         3.7444

MULLIKEN ATOMIC CHARGES
-----------------------
   0 S :    0.094228
   1 C :   -0.141558
   2 C :   -0.085850
   3 C :    0.036869
   4 C :   -0.143246
   5 H :   -0.022521
   6 C :    0.148990
   7 H :    0.028748
   8 H :    0.001160
   9 C :   -0.064887
  10 H :    0.018916
  11 H :    0.025389
  12 C :   -0.032102
  13 H :    0.036379
  14 H :    0.025511
  15 H :    0.022830
  16 S :    0.107690
  17 C :   -0.092281
  18 C :   -0.003526
  19 C :   -0.033822
  20 C :   -0.166369
  21 H :   -0.000223
  22 C :    0.078543
  23 H :    0.025005
  24 H :    0.021264
  25 C :   -0.087309
  26 H :    0.043506
  27 H :    0.028471
  28 C :   -0.081502
  29 H :    0.027032
  30 H :    0.034236
  31 H :    0.049359
  32 H :    0.048824
  33 H :    0.052246
Sum of atomic charges:   -0.0000000

LOEWDIN ATOMIC CHARGES
----------------------
   0 S :    0.381408
   1 C :   -0.183305
   2 C :   -0.062114
   3 C :   -0.054104
   4 C :   -0.185549
   5 H :    0.015395
   6 C :   -0.014944
   7 H :    0.024574
   8 H :    0.028531
   9 C :   -0.033604
  10 H :    0.023797
  11 H :    0.021456
  12 C :   -0.060960
  13 H :    0.026040
  14 H :    0.023273
  15 H :    0.020339
  16 S :    0.382080
  17 C :   -0.164392
  18 C :   -0.059432
  19 C :   -0.060208
  20 C :   -0.188573
  21 H :    0.022464
  22 C :   -0.031567
  23 H :    0.033442
  24 H :    0.030655
  25 C :   -0.044891
  26 H :    0.031774
  27 H :    0.026701
  28 C :   -0.081247
  29 H :    0.019717
  30 H :    0.026458
  31 H :    0.035323
  32 H :    0.025188
  33 H :    0.026275

  Mayer bond orders larger than 0.100000
B(  0-S ,  1-C ) :   1.1407 B(  0-S ,  4-C ) :   1.1300 B(  1-C ,  2-C ) :   1.6227
B(  1-C , 32-H ) :   0.9662 B(  2-C ,  3-C ) :   1.2230 B(  2-C ,  6-C ) :   1.0092
B(  3-C ,  4-C ) :   1.5941 B(  3-C ,  5-H ) :   0.9997 B(  4-C , 20-C ) :   1.0371
B(  6-C ,  7-H ) :   0.9426 B(  6-C ,  8-H ) :   0.9298 B(  6-C ,  9-C ) :   1.0697
B(  9-C , 10-H ) :   0.9497 B(  9-C , 11-H ) :   0.9597 B(  9-C , 12-C ) :   1.0891
B( 12-C , 13-H ) :   0.9684 B( 12-C , 14-H ) :   0.9704 B( 12-C , 15-H ) :   0.9734
B( 16-S , 17-C ) :   1.1390 B( 16-S , 20-C ) :   1.1322 B( 17-C , 18-C ) :   1.6185
B( 17-C , 20-C ) :   0.1007 B( 17-C , 33-H ) :   0.9688 B( 18-C , 19-C ) :   1.2454
B( 18-C , 21-H ) :   0.9909 B( 19-C , 20-C ) :   1.6161 B( 19-C , 22-C ) :   1.0277
B( 22-C , 23-H ) :   0.9353 B( 22-C , 24-H ) :   0.9350 B( 22-C , 25-C ) :   1.0764
B( 25-C , 26-H ) :   0.9563 B( 25-C , 27-H ) :   0.9534 B( 25-C , 28-C ) :   1.0708
B( 28-C , 29-H ) :   0.9757 B( 28-C , 30-H ) :   0.9768 B( 28-C , 31-H ) :   0.9713

Dispersion correction           -0.014885844
FINAL SINGLE POINT ENERGY     -1339.875375240069

DIPOLE MOMENT
-------------
                                X             Y             Z
Electronic contribution:      6.70334      -3.30148      20.24354
Nuclear contribution   :     -6.82473       3.50966     -20.90955
                        -----------------------------------------
Total Dipole Moment    :     -0.12139       0.20819      -0.66601
                        -----------------------------------------
Magnitude (a.u.)       :      0.70827
Magnitude (Debye)      :      1.80029

Rotational constants in cm-1:     0.018886     0.008619     0.007866
Rotational constants in MHz :   566.187884   258.384471   235.820581

                             ****ORCA TERMINATED NORMALLY****
TOTAL RUN TIME: 0 days 0 hours 0 minutes 30 seconds 723 msec
