                         Program Version 4.2.1 -  RELEASE  -
|  1> ! wB97X-D3 SP def2-SVP
|  2> %pal
|  3> nprocs 16
|  4> end
|  5>
|  6> * xyz 0 1
|  7> S 	 -67.4478 	 40.4649 	 136.458
|  8> C 	 -65.696 	 40.4249 	 136.296
|  9> C 	 -65.1451 	 39.8241 	 137.388
| 10> C 	 -66.0454 	 39.3934 	 138.363
| 11> C 	 -67.3497 	 39.5398 	 137.943
| 12> H 	 -65.7093 	 38.7628 	 139.304
| 13> C 	 -63.6493 	 39.5945 	 137.621
| 14> H 	 -63.3943 	 38.7132 	 137.078
| 15> H 	 -63.4959 	 39.2178 	 138.629
| 16> C 	 -62.7144 	 40.8597 	 137.337
| 17> H 	 -61.6259 	 40.4821 	 137.192
| 18> H 	 -62.9409 	 41.181 	 136.308
| 19> C 	 -62.7661 	 41.8639 	 138.562
| 20> H 	 -62.5918 	 41.1712 	 139.407
| 21> H 	 -62.1229 	 42.7204 	 138.471
| 22> H 	 -63.6998 	 42.2761 	 138.603
| 23> S 	 -69.0177 	 39.5666 	 140.16
| 24> C 	 -70.4984 	 38.7382 	 140.057
| 25> C 	 -70.7508 	 38.0966 	 138.869
| 26> C 	 -69.6907 	 38.2692 	 137.92
| 27> C 	 -68.6105 	 38.9992 	 138.512
| 28> H 	 -71.7309 	 37.6304 	 138.627
| 29> C 	 -69.7626 	 37.7776 	 136.446
| 30> H 	 -68.8797 	 38.1533 	 135.8
| 31> H 	 -70.7184 	 38.142 	 136.044
| 32> C 	 -69.7437 	 36.3233 	 136.331
| 33> H 	 -68.8927 	 35.7942 	 136.877
| 34> H 	 -69.5914 	 36.1044 	 135.284
| 35> C 	 -71.1317 	 35.6495 	 136.645
| 36> H 	 -71.3627 	 35.544 	 137.719
| 37> H 	 -71.2289 	 34.7064 	 136.096
| 38> H 	 -72.0083 	 36.3441 	 136.506
| 39> H 	 -65.0592 	 40.9574 	 135.522
| 40> H 	 -71.2692 	 38.7926 	 140.81
| 41> *
| 42>
| 43>                          ****END OF INPUT****

CARTESIAN COORDINATES (ANGSTROEM)
---------------------------------
  S    -67.447800   40.464900  136.458000
  C    -65.696000   40.424900  136.296000
  C    -65.145100   39.824100  137.388000
  C    -66.045400   39.393400  138.363000
  C    -67.349700   39.539800  137.943000
  H    -65.709300   38.762800  139.304000
  C    -63.649300   39.594500  137.621000
  H    -63.394300   38.713200  137.078000
  H    -63.495900   39.217800  138.629000
  C    -62.714400   40.859700  137.337000
  H    -61.625900   40.482100  137.192000
  H    -62.940900   41.181000  136.308000
  C    -62.766100   41.863900  138.562000
  H    -62.591800   41.171200  139.407000
  H    -62.122900   42.720400  138.471000
  H    -63.699800   42.276100  138.603000
  S    -69.017700   39.566600  140.160000
  C    -70.498400   38.738200  140.057000
  C    -70.750800   38.096600  138.869000
  C    -69.690700   38.269200  137.920000
  C    -68.610500   38.999200  138.512000
  H    -71.730900   37.630400  138.627000
  C    -69.762600   37.777600  136.446000
  H    -68.879700   38.153300  135.800000
  H    -70.718400   38.142000  136.044000
  C    -69.743700   36.323300  136.331000
  H    -68.892700   35.794200  136.877000
  H    -69.591400   36.104400  135.284000
  C    -71.131700   35.649500  136.645000
  H    -71.362700   35.544000  137.719000
  H    -71.228900   34.706400  136.096000
  H    -72.008300   36.344100  136.506000
  H    -65.059200   40.957400  135.522000
  H    -71.269200   38.792600  140.810000

 Total Charge           Charge          ....    0
 Multiplicity           Mult            ....    1
 Number of Electrons    NEL             ....  134
 Basis Dimension        Dim             ....  322

ORBITAL ENERGIES
----------------

  NO   OCC          E(Eh)            E(eV)
   0   2.0000     -88.968820     -2420.9647
   1   2.0000     -88.967162     -2420.9195
   2   2.0000     -10.332012      -281.1483
   3   2.0000     -10.331221      -281.1268
   4   2.0000     -10.313777      -280.6521
   5   2.0000     -10.313585      -280.6469
   6   2.0000     -10.311606      -280.5931
   7   2.0000     -10.302220      -280.3377
   8   2.0000     -10.298013      -280.2232
   9   2.0000     -10.296541      -280.1831
  10   2.0000     -10.296394      -280.1791
  11   2.0000     -10.294025      -280.1147
  12   2.0000     -10.290578      -280.0209
  13   2.0000     -10.286160      -279.9006
  14   2.0000     -10.282989      -279.8144
  15   2.0000     -10.276594      -279.6403
  16   2.0000      -8.083715      -219.9691
  17   2.0000      -8.081217      -219.9011
  18   2.0000      -6.042016      -164.4116
  19   2.0000      -6.039729      -164.3494
  20   2.0000      -6.038295      -164.3104
  21   2.0000      -6.035798      -164.2424
  22   2.0000      -6.034592      -164.2096
  23   2.0000      -6.032011      -164.1394
  24   2.0000      -1.004924       -27.3454
  25   2.0000      -0.985218       -26.8091
  26   2.0000      -0.913828       -24.8665
  27   2.0000      -0.901095       -24.5200
  28   2.0000      -0.860057       -23.4033
  29   2.0000      -0.847887       -23.0722
  30   2.0000      -0.842208       -22.9176
  31   2.0000      -0.808963       -22.0130
  32   2.0000      -0.784162       -21.3381
  33   2.0000      -0.771112       -20.9830
  34   2.0000      -0.709402       -19.3038
  35   2.0000      -0.701175       -19.0799
  36   2.0000      -0.684066       -18.6144
  37   2.0000      -0.656301       -17.8588
  38   2.0000      -0.625697       -17.0261
  39   2.0000      -0.609546       -16.5866
  40   2.0000      -0.594306       -16.1719
  41   2.0000      -0.570115       -15.5136
  42   2.0000      -0.553895       -15.0723
  43   2.0000      -0.546025       -14.8581
  44   2.0000      -0.545473       -14.8431
  45   2.0000      -0.530852       -14.4452
  46   2.0000      -0.514433       -13.9984
  47   2.0000      -0.506498       -13.7825
  48   2.0000      -0.495821       -13.4920
  49   2.0000      -0.489862       -13.3298
  50   2.0000      -0.482835       -13.1386
  51   2.0000      -0.473917       -12.8959
  52   2.0000      -0.472585       -12.8597
  53   2.0000      -0.462678       -12.5901
  54   2.0000      -0.460520       -12.5314
  55   2.0000      -0.450086       -12.2475
  56   2.0000      -0.442232       -12.0337
  57   2.0000      -0.436127       -11.8676
  58   2.0000      -0.432752       -11.7758
  59   2.0000      -0.427078       -11.6214
  60   2.0000      -0.415920       -11.3178
  61   2.0000      -0.412096       -11.2137
  62   2.0000      -0.404856       -11.0167
  63   2.0000      -0.342393        -9.3170
  64   2.0000      -0.336044        -9.1442
  65   2.0000      -0.329649        -8.9702
  66   2.0000      -0.291294        -7.9265
  67   0.0000       0.031957         0.8696
  68   0.0000       0.067728         1.8430
  69   0.0000       0.106706         2.9036
  70   0.0000       0.117369         3.1938
  71   0.0000       0.127322         3.4646

MULLIKEN ATOMIC CHARGES
-----------------------
   0 S :    0.116400
   1 C :   -0.159294
   2 C :   -0.093175
   3 C :   -0.000141
   4 C :   -0.154497
   5 H :    0.057409
   6 C :    0.065857
   7 H :    0.032733
   8 H :    0.001705
   9 C :   -0.119835
  10 H :    0.035472
  11 H :    0.025519
  12 C :    0.005195
  13 H :    0.038281
  14 H :    0.037596
  15 H :    0.021557
  16 S :    0.124901
  17 C :   -0.070286
  18 C :   -0.058262
  19 C :   -0.025092
  20 C :   -0.182055
  21 H :    0.028124
  22 C :    0.039045
  23 H :    0.051090
  24 H :    0.035851
  25 C :   -0.059644
  26 H :    0.050872
  27 H :    0.026104
  28 C :   -0.091774
  29 H :    0.032768
  30 H :    0.050597
  31 H :    0.019105
  32 H :    0.068510
  33 H :    0.049361
Sum of atomic charges:    0.0000000

LOEWDIN ATOMIC CHARGES
----------------------
   0 S :    0.416818
   1 C :   -0.216438
   2 C :   -0.072841
   3 C :   -0.083590
   4 C :   -0.190084
   5 H :    0.054366
   6 C :   -0.030734
   7 H :    0.030816
   8 H :    0.022777
   9 C :   -0.043003
  10 H :    0.028869
  11 H :    0.016320
  12 C :   -0.052375
  13 H :    0.034504
  14 H :    0.026293
  15 H :    0.015352
  16 S :    0.420138
  17 C :   -0.196364
  18 C :   -0.082451
  19 C :   -0.044578
  20 C :   -0.199445
  21 H :    0.037355
  22 C :   -0.040290
  23 H :    0.036421
  24 H :    0.033545
  25 C :   -0.047717
  26 H :    0.037137
  27 H :    0.024284
  28 C :   -0.082552
  29 H :    0.023979
  30 H :    0.029290
  31 H :    0.025551
  32 H :    0.041961
  33 H :    0.026686

  Mayer bond orders larger than 0.100000
B(  0-S ,  1-C ) :   1.1215 B(  0-S ,  4-C ) :   1.1678 B(  1-C ,  2-C ) :   1.6231
B(  1-C , 32-H ) :   0.9588 B(  2-C ,  3-C ) :   1.2723 B(  2-C ,  6-C ) :   1.0010
B(  3-C ,  4-C ) :   1.5649 B(  3-C ,  5-H ) :   0.9696 B(  4-C , 20-C ) :   1.0108
B(  6-C ,  7-H ) :   0.9355 B(  6-C ,  8-H ) :   0.9454 B(  6-C ,  9-C ) :   1.0614
B(  9-C , 10-H ) :   0.9594 B(  9-C , 11-H ) :   0.9612 B(  9-C , 12-C ) :   1.0426
B( 12-C , 13-H ) :   0.9747 B( 12-C , 14-H ) :   0.9772 B( 12-C , 15-H ) :   0.9806
B( 16-S , 17-C ) :   1.1712 B( 16-S , 20-C ) :   1.1496 B( 17-C , 18-C ) :   1.6109
B( 17-C , 33-H ) :   0.9606 B( 18-C , 19-C ) :   1.2546 B( 18-C , 21-H ) :   0.9758
B( 19-C , 20-C ) :   1.5819 B( 19-C , 22-C ) :   1.0262 B( 22-C , 23-H ) :   0.9317
B( 22-C , 24-H ) :   0.9354 B( 22-C , 25-C ) :   1.0896 B( 25-C , 26-H ) :   0.9479
B( 25-C , 27-H ) :   0.9556 B( 25-C , 28-C ) :   1.0626 B( 28-C , 29-H ) :   0.9690
B( 28-C , 30-H ) :   0.9746 B( 28-C , 31-H ) :   0.9711

Dispersion correction           -0.014302018
FINAL SINGLE POINT ENERGY     -1339.853741702339

DIPOLE MOMENT
-------------
                                X             Y             Z
Electronic contribution:     -9.49135       8.31643       6.68423
Nuclear contribution   :      9.58654      -8.53336      -6.81796
                        -----------------------------------------
Total Dipole Moment    :      0.09519      -0.21694      -0.13373
                        -----------------------------------------
Magnitude (a.u.)       :      0.27204
Magnitude (Debye)      :      0.69147

Rotational constants in cm-1:     0.024850     0.007225     0.006248
Rotational constants in MHz :   744.986428   216.610299   187.307239

                             ****ORCA TERMINATED NORMALLY****
TOTAL RUN TIME: 0 days 0 hours 0 minutes 34 seconds 144 msec
