                         Program Version 4.2.1 -  RELEASE  -
|  1> ! wB97X-D3 SP def2-SVP
|  2> %pal
|  3> nprocs 16
|  4> end
|  5>
|  6> * xyz 0 1
|  7> S 	 -99.1119 	 39.5343 	 124.012
|  8> C 	 -98.4326 	 38.767 	 125.399
|  9> C 	 -97.2145 	 39.3522 	 125.767
| 10> C 	 -96.894 	 40.453 	 124.912
| 11> C 	 -97.8215 	 40.7389 	 123.961
| 12> H 	 -95.9769 	 41.0095 	 124.899
| 13> C 	 -96.3603 	 38.7526 	 126.85
| 14> H 	 -95.5746 	 38.2873 	 126.236
| 15> H 	 -96.7654 	 38.085 	 127.511
| 16> C 	 -95.7826 	 39.7575 	 127.885
| 17> H 	 -95.0968 	 40.489 	 127.424
| 18> H 	 -96.579 	 40.4186 	 128.235
| 19> C 	 -95.0234 	 39.0179 	 129.033
| 20> H 	 -95.7252 	 38.4253 	 129.685
| 21> H 	 -94.2084 	 38.363 	 128.69
| 22> H 	 -94.4742 	 39.725 	 129.748
| 23> S 	 -97.3762 	 40.9495 	 121.332
| 24> C 	 -97.2509 	 42.5351 	 120.551
| 25> C 	 -97.5466 	 43.507 	 121.478
| 26> C 	 -97.6319 	 43.1129 	 122.867
| 27> C 	 -97.7429 	 41.7331 	 122.866
| 28> H 	 -97.6113 	 44.4933 	 121.074
| 29> C 	 -97.6981 	 44.1389 	 123.996
| 30> H 	 -97.057 	 44.962 	 123.847
| 31> H 	 -97.4064 	 43.5144 	 124.887
| 32> C 	 -99.0152 	 44.7529 	 124.28
| 33> H 	 -99.2252 	 45.3336 	 123.373
| 34> H 	 -99.0212 	 45.4575 	 125.093
| 35> C 	 -100.063 	 43.6027 	 124.508
| 36> H 	 -100.992 	 44.1058 	 124.905
| 37> H 	 -99.8608 	 43.0106 	 125.395
| 38> H 	 -100.363 	 43.1431 	 123.631
| 39> H 	 -98.9885 	 38.0527 	 125.947
| 40> H 	 -97.2899 	 42.68 	 119.447
| 41> *
| 42>
| 43>                          ****END OF INPUT****

CARTESIAN COORDINATES (ANGSTROEM)
---------------------------------
  S    -99.111900   39.534300  124.012000
  C    -98.432600   38.767000  125.399000
  C    -97.214500   39.352200  125.767000
  C    -96.894000   40.453000  124.912000
  C    -97.821500   40.738900  123.961000
  H    -95.976900   41.009500  124.899000
  C    -96.360300   38.752600  126.850000
  H    -95.574600   38.287300  126.236000
  H    -96.765400   38.085000  127.511000
  C    -95.782600   39.757500  127.885000
  H    -95.096800   40.489000  127.424000
  H    -96.579000   40.418600  128.235000
  C    -95.023400   39.017900  129.033000
  H    -95.725200   38.425300  129.685000
  H    -94.208400   38.363000  128.690000
  H    -94.474200   39.725000  129.748000
  S    -97.376200   40.949500  121.332000
  C    -97.250900   42.535100  120.551000
  C    -97.546600   43.507000  121.478000
  C    -97.631900   43.112900  122.867000
  C    -97.742900   41.733100  122.866000
  H    -97.611300   44.493300  121.074000
  C    -97.698100   44.138900  123.996000
  H    -97.057000   44.962000  123.847000
  H    -97.406400   43.514400  124.887000
  C    -99.015200   44.752900  124.280000
  H    -99.225200   45.333600  123.373000
  H    -99.021200   45.457500  125.093000
  C    -100.063000   43.602700  124.508000
  H    -100.992000   44.105800  124.905000
  H    -99.860800   43.010600  125.395000
  H    -100.363000   43.143100  123.631000
  H    -98.988500   38.052700  125.947000
  H    -97.289900   42.680000  119.447000

 Total Charge           Charge          ....    0
 Multiplicity           Mult            ....    1
 Number of Electrons    NEL             ....  134
 Basis Dimension        Dim             ....  322

ORBITAL ENERGIES
----------------

  NO   OCC          E(Eh)            E(eV)
   0   2.0000     -88.962809     -2420.8011
   1   2.0000     -88.961768     -2420.7728
   2   2.0000     -10.330792      -281.1152
   3   2.0000     -10.326702      -281.0039
   4   2.0000     -10.316936      -280.7381
   5   2.0000     -10.309828      -280.5447
   6   2.0000     -10.309135      -280.5258
   7   2.0000     -10.303322      -280.3676
   8   2.0000     -10.292297      -280.0677
   9   2.0000     -10.292164      -280.0640
  10   2.0000     -10.291961      -280.0585
  11   2.0000     -10.291361      -280.0422
  12   2.0000     -10.290199      -280.0106
  13   2.0000     -10.287884      -279.9476
  14   2.0000     -10.284002      -279.8419
  15   2.0000     -10.269864      -279.4572
  16   2.0000      -8.077239      -219.7929
  17   2.0000      -8.076868      -219.7828
  18   2.0000      -6.035891      -164.2449
  19   2.0000      -6.035272      -164.2281
  20   2.0000      -6.031840      -164.1347
  21   2.0000      -6.031210      -164.1176
  22   2.0000      -6.027847      -164.0261
  23   2.0000      -6.027798      -164.0247
  24   2.0000      -1.005525       -27.3617
  25   2.0000      -0.982613       -26.7383
  26   2.0000      -0.915644       -24.9159
  27   2.0000      -0.909216       -24.7410
  28   2.0000      -0.866570       -23.5806
  29   2.0000      -0.846507       -23.0346
  30   2.0000      -0.840803       -22.8794
  31   2.0000      -0.814213       -22.1559
  32   2.0000      -0.785178       -21.3658
  33   2.0000      -0.770127       -20.9562
  34   2.0000      -0.708922       -19.2908
  35   2.0000      -0.698177       -18.9984
  36   2.0000      -0.687942       -18.7199
  37   2.0000      -0.656654       -17.8685
  38   2.0000      -0.649928       -17.6854
  39   2.0000      -0.623462       -16.9653
  40   2.0000      -0.593986       -16.1632
  41   2.0000      -0.567152       -15.4330
  42   2.0000      -0.562709       -15.3121
  43   2.0000      -0.557620       -15.1736
  44   2.0000      -0.551208       -14.9991
  45   2.0000      -0.522402       -14.2153
  46   2.0000      -0.512616       -13.9490
  47   2.0000      -0.509526       -13.8649
  48   2.0000      -0.505062       -13.7434
  49   2.0000      -0.495203       -13.4752
  50   2.0000      -0.490996       -13.3607
  51   2.0000      -0.478511       -13.0209
  52   2.0000      -0.469510       -12.7760
  53   2.0000      -0.466100       -12.6832
  54   2.0000      -0.454912       -12.3788
  55   2.0000      -0.448598       -12.2070
  56   2.0000      -0.440097       -11.9756
  57   2.0000      -0.432402       -11.7663
  58   2.0000      -0.428066       -11.6483
  59   2.0000      -0.425465       -11.5775
  60   2.0000      -0.417848       -11.3702
  61   2.0000      -0.411234       -11.1902
  62   2.0000      -0.409328       -11.1384
  63   2.0000      -0.343125        -9.3369
  64   2.0000      -0.328112        -8.9284
  65   2.0000      -0.324295        -8.8245
  66   2.0000      -0.300119        -8.1666
  67   0.0000       0.039231         1.0675
  68   0.0000       0.061676         1.6783
  69   0.0000       0.114872         3.1258
  70   0.0000       0.122182         3.3247
  71   0.0000       0.128429         3.4947

MULLIKEN ATOMIC CHARGES
-----------------------
   0 S :    0.104053
   1 C :   -0.114471
   2 C :   -0.088171
   3 C :    0.060700
   4 C :   -0.177657
   5 H :    0.008918
   6 C :    0.106463
   7 H :    0.048384
   8 H :   -0.002071
   9 C :   -0.100058
  10 H :    0.027393
  11 H :    0.035394
  12 C :   -0.095543
  13 H :    0.043179
  14 H :    0.039652
  15 H :    0.042711
  16 S :    0.101253
  17 C :   -0.110297
  18 C :   -0.036823
  19 C :   -0.041362
  20 C :   -0.167949
  21 H :    0.009567
  22 C :    0.111337
  23 H :    0.017296
  24 H :    0.028182
  25 C :   -0.070233
  26 H :    0.020797
  27 H :    0.030511
  28 C :   -0.044978
  29 H :    0.015292
  30 H :    0.039406
  31 H :    0.042287
  32 H :    0.040797
  33 H :    0.076044
Sum of atomic charges:    0.0000000

LOEWDIN ATOMIC CHARGES
----------------------
   0 S :    0.405781
   1 C :   -0.198660
   2 C :   -0.060037
   3 C :   -0.062649
   4 C :   -0.195789
   5 H :    0.031305
   6 C :   -0.024836
   7 H :    0.042398
   8 H :    0.017747
   9 C :   -0.044886
  10 H :    0.020854
  11 H :    0.026104
  12 C :   -0.079665
  13 H :    0.027653
  14 H :    0.027192
  15 H :    0.034357
  16 S :    0.392212
  17 C :   -0.193709
  18 C :   -0.066425
  19 C :   -0.050622
  20 C :   -0.186485
  21 H :    0.024495
  22 C :   -0.030578
  23 H :    0.026070
  24 H :    0.035658
  25 C :   -0.036301
  26 H :    0.023298
  27 H :    0.023116
  28 C :   -0.063343
  29 H :    0.029690
  30 H :    0.029504
  31 H :    0.017649
  32 H :    0.019983
  33 H :    0.038919

  Mayer bond orders larger than 0.100000
B(  0-S ,  1-C ) :   1.1517 B(  0-S ,  4-C ) :   1.1545 B(  1-C ,  2-C ) :   1.5871
B(  1-C , 32-H ) :   0.9778 B(  2-C ,  3-C ) :   1.2304 B(  2-C ,  6-C ) :   1.0271
B(  3-C ,  4-C ) :   1.5950 B(  3-C ,  5-H ) :   0.9967 B(  4-C , 20-C ) :   0.9796
B(  6-C ,  7-H ) :   0.9322 B(  6-C ,  8-H ) :   0.9521 B(  6-C ,  9-C ) :   1.0427
B(  9-C , 10-H ) :   0.9539 B(  9-C , 11-H ) :   0.9609 B(  9-C , 12-C ) :   1.0790
B( 12-C , 13-H ) :   0.9744 B( 12-C , 14-H ) :   0.9750 B( 12-C , 15-H ) :   0.9752
B( 16-S , 17-C ) :   1.1213 B( 16-S , 20-C ) :   1.1663 B( 17-C , 18-C ) :   1.6680
B( 17-C , 33-H ) :   0.9581 B( 18-C , 19-C ) :   1.1807 B( 18-C , 21-H ) :   0.9850
B( 19-C , 20-C ) :   1.6270 B( 19-C , 22-C ) :   1.0384 B( 22-C , 23-H ) :   0.9305
B( 22-C , 24-H ) :   0.9291 B( 22-C , 25-C ) :   1.0832 B( 25-C , 26-H ) :   0.9520
B( 25-C , 27-H ) :   0.9570 B( 25-C , 28-C ) :   1.0789 B( 28-C , 29-H ) :   0.9705
B( 28-C , 30-H ) :   0.9744 B( 28-C , 31-H ) :   0.9747

Dispersion correction           -0.014740668
FINAL SINGLE POINT ENERGY     -1339.860425780338

DIPOLE MOMENT
-------------
                                X             Y             Z
Electronic contribution:     -5.05274      -7.98213     -23.02631
Nuclear contribution   :      5.25102       8.34702      23.45261
                        -----------------------------------------
Total Dipole Moment    :      0.19827       0.36488       0.42630
                        -----------------------------------------
Magnitude (a.u.)       :      0.59514
Magnitude (Debye)      :      1.51272

Rotational constants in cm-1:     0.019901     0.007988     0.007151
Rotational constants in MHz :   596.609670   239.479240   214.367950

                             ****ORCA TERMINATED NORMALLY****
TOTAL RUN TIME: 0 days 0 hours 0 minutes 32 seconds 455 msec
