                         Program Version 4.2.1 -  RELEASE  -
|  1> ! wB97X-D3 SP def2-SVP
|  2> %pal
|  3> nprocs 16
|  4> end
|  5>
|  6> * xyz 0 1
|  7> S 	 54.9029 	 15.4737 	 50.7262
|  8> C 	 55.6028 	 16.2783 	 52.1009
|  9> C 	 54.587 	 16.8472 	 52.8869
| 10> C 	 53.3058 	 16.7376 	 52.3271
| 11> C 	 53.2991 	 15.9518 	 51.1664
| 12> H 	 52.5464 	 17.3027 	 52.8105
| 13> C 	 54.8028 	 17.5611 	 54.1937
| 14> H 	 55.8176 	 17.4014 	 54.4088
| 15> H 	 54.2108 	 16.9282 	 54.921
| 16> C 	 54.4269 	 19.0767 	 54.3012
| 17> H 	 53.4213 	 19.1348 	 54.6928
| 18> H 	 54.9975 	 19.4886 	 55.0814
| 19> C 	 54.4951 	 20.0511 	 53.0717
| 20> H 	 55.4399 	 19.7981 	 52.5265
| 21> H 	 53.806 	 19.8626 	 52.2819
| 22> H 	 54.5727 	 21.1415 	 53.2905
| 23> S 	 52.3128 	 15.3003 	 48.6275
| 24> C 	 50.6576 	 14.9215 	 48.458
| 25> C 	 49.98 	 14.8886 	 49.649
| 26> C 	 50.8901 	 15.2286 	 50.7101
| 27> C 	 52.1666 	 15.5128 	 50.3714
| 28> H 	 48.9007 	 14.7032 	 49.7194
| 29> C 	 50.387 	 15.3273 	 52.1186
| 30> H 	 51.1793 	 15.1185 	 52.8711
| 31> H 	 49.6717 	 14.5054 	 52.1582
| 32> C 	 49.6782 	 16.6919 	 52.3187
| 33> H 	 48.9907 	 16.8676 	 51.4709
| 34> H 	 50.3769 	 17.5517 	 52.1096
| 35> C 	 48.9897 	 16.9127 	 53.7287
| 36> H 	 49.763 	 16.9563 	 54.484
| 37> H 	 48.3928 	 16.0756 	 54.0195
| 38> H 	 48.3725 	 17.8545 	 53.7436
| 39> H 	 56.6836 	 16.3405 	 52.295
| 40> H 	 50.1616 	 14.895 	 47.5343
| 41> *
| 42>
| 43>                          ****END OF INPUT****

CARTESIAN COORDINATES (ANGSTROEM)
---------------------------------
  S     54.902900   15.473700   50.726200
  C     55.602800   16.278300   52.100900
  C     54.587000   16.847200   52.886900
  C     53.305800   16.737600   52.327100
  C     53.299100   15.951800   51.166400
  H     52.546400   17.302700   52.810500
  C     54.802800   17.561100   54.193700
  H     55.817600   17.401400   54.408800
  H     54.210800   16.928200   54.921000
  C     54.426900   19.076700   54.301200
  H     53.421300   19.134800   54.692800
  H     54.997500   19.488600   55.081400
  C     54.495100   20.051100   53.071700
  H     55.439900   19.798100   52.526500
  H     53.806000   19.862600   52.281900
  H     54.572700   21.141500   53.290500
  S     52.312800   15.300300   48.627500
  C     50.657600   14.921500   48.458000
  C     49.980000   14.888600   49.649000
  C     50.890100   15.228600   50.710100
  C     52.166600   15.512800   50.371400
  H     48.900700   14.703200   49.719400
  C     50.387000   15.327300   52.118600
  H     51.179300   15.118500   52.871100
  H     49.671700   14.505400   52.158200
  C     49.678200   16.691900   52.318700
  H     48.990700   16.867600   51.470900
  H     50.376900   17.551700   52.109600
  C     48.989700   16.912700   53.728700
  H     49.763000   16.956300   54.484000
  H     48.392800   16.075600   54.019500
  H     48.372500   17.854500   53.743600
  H     56.683600   16.340500   52.295000
  H     50.161600   14.895000   47.534300

 Total Charge           Charge          ....    0
 Multiplicity           Mult            ....    1
 Number of Electrons    NEL             ....  134
 Basis Dimension        Dim             ....  322

ORBITAL ENERGIES
----------------

  NO   OCC          E(Eh)            E(eV)
   0   2.0000     -88.968383     -2420.9528
   1   2.0000     -88.962119     -2420.7823
   2   2.0000     -10.334075      -281.2045
   3   2.0000     -10.321614      -280.8654
   4   2.0000     -10.315202      -280.6909
   5   2.0000     -10.312801      -280.6256
   6   2.0000     -10.297165      -280.2001
   7   2.0000     -10.296857      -280.1917
   8   2.0000     -10.295747      -280.1615
   9   2.0000     -10.295707      -280.1604
  10   2.0000     -10.294137      -280.1177
  11   2.0000     -10.290574      -280.0207
  12   2.0000     -10.290113      -280.0082
  13   2.0000     -10.288830      -279.9733
  14   2.0000     -10.283747      -279.8350
  15   2.0000     -10.281857      -279.7836
  16   2.0000      -8.083424      -219.9611
  17   2.0000      -8.077889      -219.8105
  18   2.0000      -6.041891      -164.4082
  19   2.0000      -6.037785      -164.2965
  20   2.0000      -6.036381      -164.2583
  21   2.0000      -6.034338      -164.2027
  22   2.0000      -6.032291      -164.1470
  23   2.0000      -6.028563      -164.0455
  24   2.0000      -1.012947       -27.5637
  25   2.0000      -0.989976       -26.9386
  26   2.0000      -0.908639       -24.7253
  27   2.0000      -0.906322       -24.6623
  28   2.0000      -0.868850       -23.6426
  29   2.0000      -0.850053       -23.1311
  30   2.0000      -0.843682       -22.9578
  31   2.0000      -0.816297       -22.2126
  32   2.0000      -0.784399       -21.3446
  33   2.0000      -0.772547       -21.0221
  34   2.0000      -0.713685       -19.4203
  35   2.0000      -0.702530       -19.1168
  36   2.0000      -0.698649       -19.0112
  37   2.0000      -0.666706       -18.1420
  38   2.0000      -0.634721       -17.2716
  39   2.0000      -0.628613       -17.1054
  40   2.0000      -0.595402       -16.2017
  41   2.0000      -0.564437       -15.3591
  42   2.0000      -0.553183       -15.0529
  43   2.0000      -0.547933       -14.9100
  44   2.0000      -0.541410       -14.7325
  45   2.0000      -0.526646       -14.3308
  46   2.0000      -0.514141       -13.9905
  47   2.0000      -0.509577       -13.8663
  48   2.0000      -0.505614       -13.7585
  49   2.0000      -0.500636       -13.6230
  50   2.0000      -0.492689       -13.4068
  51   2.0000      -0.478740       -13.0272
  52   2.0000      -0.472926       -12.8690
  53   2.0000      -0.465318       -12.6620
  54   2.0000      -0.459555       -12.5051
  55   2.0000      -0.454272       -12.3614
  56   2.0000      -0.449043       -12.2191
  57   2.0000      -0.446218       -12.1422
  58   2.0000      -0.440092       -11.9755
  59   2.0000      -0.422064       -11.4850
  60   2.0000      -0.418168       -11.3789
  61   2.0000      -0.409896       -11.1538
  62   2.0000      -0.406392       -11.0585
  63   2.0000      -0.356736        -9.7073
  64   2.0000      -0.333327        -9.0703
  65   2.0000      -0.329261        -8.9597
  66   2.0000      -0.285527        -7.7696
  67   0.0000       0.026896         0.7319
  68   0.0000       0.079183         2.1547
  69   0.0000       0.108248         2.9456
  70   0.0000       0.118413         3.2222
  71   0.0000       0.127752         3.4763

MULLIKEN ATOMIC CHARGES
-----------------------
   0 S :    0.113934
   1 C :   -0.134502
   2 C :   -0.144906
   3 C :    0.028224
   4 C :   -0.113430
   5 H :   -0.009389
   6 C :    0.098606
   7 H :   -0.002211
   8 H :    0.048508
   9 C :   -0.056157
  10 H :    0.020344
  11 H :    0.021120
  12 C :   -0.055628
  13 H :    0.022916
  14 H :    0.030335
  15 H :    0.050657
  16 S :    0.097373
  17 C :   -0.059994
  18 C :   -0.035434
  19 C :   -0.095760
  20 C :   -0.099706
  21 H :    0.032072
  22 C :    0.062695
  23 H :    0.039853
  24 H :    0.019539
  25 C :   -0.108548
  26 H :    0.020920
  27 H :    0.030856
  28 C :   -0.019427
  29 H :    0.022637
  30 H :    0.026192
  31 H :    0.049610
  32 H :    0.056951
  33 H :    0.041750
Sum of atomic charges:   -0.0000000

LOEWDIN ATOMIC CHARGES
----------------------
   0 S :    0.424774
   1 C :   -0.215793
   2 C :   -0.065087
   3 C :   -0.066905
   4 C :   -0.185378
   5 H :    0.027456
   6 C :   -0.028510
   7 H :    0.020223
   8 H :    0.045450
   9 C :   -0.040451
  10 H :    0.020696
  11 H :    0.022577
  12 C :   -0.075139
  13 H :    0.030689
  14 H :    0.021333
  15 H :    0.035062
  16 S :    0.406135
  17 C :   -0.178590
  18 C :   -0.075099
  19 C :   -0.056085
  20 C :   -0.200514
  21 H :    0.038733
  22 C :   -0.034074
  23 H :    0.032195
  24 H :    0.028720
  25 C :   -0.046866
  26 H :    0.023985
  27 H :    0.025843
  28 C :   -0.066673
  29 H :    0.021670
  30 H :    0.020376
  31 H :    0.035098
  32 H :    0.032801
  33 H :    0.021347

  Mayer bond orders larger than 0.100000
B(  0-S ,  1-C ) :   1.1418 B(  0-S ,  4-C ) :   1.1806 B(  1-C ,  2-C ) :   1.5669
B(  1-C ,  4-C ) :   0.1063 B(  1-C , 32-H ) :   0.9649 B(  2-C ,  3-C ) :   1.2947
B(  2-C ,  6-C ) :   1.0288 B(  3-C ,  4-C ) :   1.4872 B(  3-C ,  5-H ) :   1.0046
B(  4-C , 20-C ) :   1.0607 B(  6-C ,  7-H ) :   0.9324 B(  6-C ,  8-H ) :   0.9411
B(  6-C ,  9-C ) :   1.0514 B(  9-C , 10-H ) :   0.9545 B(  9-C , 11-H ) :   0.9580
B(  9-C , 12-C ) :   1.0777 B( 12-C , 13-H ) :   0.9717 B( 12-C , 14-H ) :   0.9719
B( 12-C , 15-H ) :   0.9763 B( 16-S , 17-C ) :   1.1748 B( 16-S , 20-C ) :   1.1035
B( 17-C , 18-C ) :   1.6021 B( 17-C , 33-H ) :   0.9691 B( 18-C , 19-C ) :   1.2285
B( 18-C , 21-H ) :   0.9906 B( 19-C , 20-C ) :   1.6324 B( 19-C , 22-C ) :   1.0527
B( 22-C , 23-H ) :   0.9338 B( 22-C , 24-H ) :   0.9278 B( 22-C , 25-C ) :   1.0520
B( 25-C , 26-H ) :   0.9535 B( 25-C , 27-H ) :   0.9536 B( 25-C , 28-C ) :   1.0647
B( 28-C , 29-H ) :   0.9749 B( 28-C , 30-H ) :   0.9762 B( 28-C , 31-H ) :   0.9759

Dispersion correction           -0.015036579
FINAL SINGLE POINT ENERGY     -1339.880782462519

DIPOLE MOMENT
-------------
                                X             Y             Z
Electronic contribution:      9.78232     -16.74336     -22.69732
Nuclear contribution   :    -10.13855      17.05595      23.17852
                        -----------------------------------------
Total Dipole Moment    :     -0.35622       0.31260       0.48120
                        -----------------------------------------
Magnitude (a.u.)       :      0.67540
Magnitude (Debye)      :      1.71674

Rotational constants in cm-1:     0.017312     0.010138     0.007203
Rotational constants in MHz :   519.015529   303.942769   215.930068

                             ****ORCA TERMINATED NORMALLY****
TOTAL RUN TIME: 0 days 0 hours 0 minutes 31 seconds 735 msec
