                         Program Version 4.2.1 -  RELEASE  -
|  1> ! wB97X-D3 SP def2-SVP
|  2> %pal
|  3> nprocs 16
|  4> end
|  5>
|  6> * xyz 0 1
|  7> S 	 0.880971 	 30.1361 	 44.5426
|  8> C 	 0.804729 	 28.6951 	 43.4887
|  9> C 	 0.960135 	 29.0991 	 42.1966
| 10> C 	 1.03236 	 30.5226 	 42.0212
| 11> C 	 1.13047 	 31.2238 	 43.1991
| 12> H 	 1.17188 	 31.0344 	 41.0494
| 13> C 	 0.898065 	 28.1551 	 41.0183
| 14> H 	 0.882986 	 27.2036 	 41.5078
| 15> H 	 1.78063 	 28.2315 	 40.4707
| 16> C 	 -0.283092 	 28.4786 	 40.033
| 17> H 	 -1.27904 	 28.6014 	 40.57
| 18> H 	 -0.17729 	 29.5039 	 39.5692
| 19> C 	 -0.502557 	 27.3616 	 39.0013
| 20> H 	 0.400933 	 27.1097 	 38.4887
| 21> H 	 -0.894658 	 26.3891 	 39.5012
| 22> H 	 -1.28404 	 27.6724 	 38.354
| 23> S 	 0.34976 	 33.3786 	 44.8508
| 24> C 	 0.948807 	 34.9035 	 44.5601
| 25> C 	 1.80131 	 34.8812 	 43.5345
| 26> C 	 1.95323 	 33.6792 	 42.8907
| 27> C 	 1.16526 	 32.7041 	 43.4434
| 28> H 	 2.35456 	 35.7323 	 43.3306
| 29> C 	 2.97417 	 33.4618 	 41.7744
| 30> H 	 3.05069 	 34.4422 	 41.2786
| 31> H 	 2.58452 	 32.7432 	 41.0712
| 32> C 	 4.37213 	 33.0595 	 42.3201
| 33> H 	 4.23483 	 32.0292 	 42.7304
| 34> H 	 4.7676 	 33.5901 	 43.1316
| 35> C 	 5.34408 	 32.9011 	 41.113
| 36> H 	 5.09419 	 32.0667 	 40.4867
| 37> H 	 6.36257 	 32.7422 	 41.4441
| 38> H 	 5.41487 	 33.6986 	 40.4333
| 39> H 	 0.700607 	 27.6743 	 43.7361
| 40> H 	 0.814854 	 35.747 	 45.0491
| 41> *
| 42>
| 43>                          ****END OF INPUT****

CARTESIAN COORDINATES (ANGSTROEM)
---------------------------------
  S      0.880971   30.136100   44.542600
  C      0.804729   28.695100   43.488700
  C      0.960135   29.099100   42.196600
  C      1.032360   30.522600   42.021200
  C      1.130470   31.223800   43.199100
  H      1.171880   31.034400   41.049400
  C      0.898065   28.155100   41.018300
  H      0.882986   27.203600   41.507800
  H      1.780630   28.231500   40.470700
  C     -0.283092   28.478600   40.033000
  H     -1.279040   28.601400   40.570000
  H     -0.177290   29.503900   39.569200
  C     -0.502557   27.361600   39.001300
  H      0.400933   27.109700   38.488700
  H     -0.894658   26.389100   39.501200
  H     -1.284040   27.672400   38.354000
  S      0.349760   33.378600   44.850800
  C      0.948807   34.903500   44.560100
  C      1.801310   34.881200   43.534500
  C      1.953230   33.679200   42.890700
  C      1.165260   32.704100   43.443400
  H      2.354560   35.732300   43.330600
  C      2.974170   33.461800   41.774400
  H      3.050690   34.442200   41.278600
  H      2.584520   32.743200   41.071200
  C      4.372130   33.059500   42.320100
  H      4.234830   32.029200   42.730400
  H      4.767600   33.590100   43.131600
  C      5.344080   32.901100   41.113000
  H      5.094190   32.066700   40.486700
  H      6.362570   32.742200   41.444100
  H      5.414870   33.698600   40.433300
  H      0.700607   27.674300   43.736100
  H      0.814854   35.747000   45.049100

 Total Charge           Charge          ....    0
 Multiplicity           Mult            ....    1
 Number of Electrons    NEL             ....  134
 Basis Dimension        Dim             ....  322

ORBITAL ENERGIES
----------------

  NO   OCC          E(Eh)            E(eV)
   0   2.0000     -88.964494     -2420.8469
   1   2.0000     -88.963093     -2420.8088
   2   2.0000     -10.334360      -281.2122
   3   2.0000     -10.326303      -280.9930
   4   2.0000     -10.310558      -280.5646
   5   2.0000     -10.298460      -280.2353
   6   2.0000     -10.296844      -280.1914
   7   2.0000     -10.296554      -280.1835
   8   2.0000     -10.294319      -280.1227
   9   2.0000     -10.293873      -280.1105
  10   2.0000     -10.293731      -280.1067
  11   2.0000     -10.287603      -279.9399
  12   2.0000     -10.287509      -279.9373
  13   2.0000     -10.281537      -279.7749
  14   2.0000     -10.273936      -279.5680
  15   2.0000     -10.270909      -279.4857
  16   2.0000      -8.080716      -219.8875
  17   2.0000      -8.077351      -219.7959
  18   2.0000      -6.039065      -164.3313
  19   2.0000      -6.036097      -164.2505
  20   2.0000      -6.034940      -164.2191
  21   2.0000      -6.031936      -164.1373
  22   2.0000      -6.031613      -164.1285
  23   2.0000      -6.027861      -164.0264
  24   2.0000      -1.018458       -27.7137
  25   2.0000      -0.990496       -26.9528
  26   2.0000      -0.910172       -24.7670
  27   2.0000      -0.908359       -24.7177
  28   2.0000      -0.870049       -23.6752
  29   2.0000      -0.855851       -23.2889
  30   2.0000      -0.841577       -22.9005
  31   2.0000      -0.822569       -22.3832
  32   2.0000      -0.784400       -21.3446
  33   2.0000      -0.775302       -21.0970
  34   2.0000      -0.715133       -19.4598
  35   2.0000      -0.706964       -19.2375
  36   2.0000      -0.695036       -18.9129
  37   2.0000      -0.664928       -18.0936
  38   2.0000      -0.642296       -17.4777
  39   2.0000      -0.620906       -16.8957
  40   2.0000      -0.604523       -16.4499
  41   2.0000      -0.575060       -15.6482
  42   2.0000      -0.560857       -15.2617
  43   2.0000      -0.553298       -15.0560
  44   2.0000      -0.531795       -14.4709
  45   2.0000      -0.527763       -14.3612
  46   2.0000      -0.522901       -14.2289
  47   2.0000      -0.511326       -13.9139
  48   2.0000      -0.506740       -13.7891
  49   2.0000      -0.503050       -13.6887
  50   2.0000      -0.496260       -13.5039
  51   2.0000      -0.482333       -13.1250
  52   2.0000      -0.474289       -12.9060
  53   2.0000      -0.467791       -12.7292
  54   2.0000      -0.457232       -12.4419
  55   2.0000      -0.454737       -12.3740
  56   2.0000      -0.448227       -12.1969
  57   2.0000      -0.442175       -12.0322
  58   2.0000      -0.440562       -11.9883
  59   2.0000      -0.420194       -11.4341
  60   2.0000      -0.418216       -11.3802
  61   2.0000      -0.413911       -11.2631
  62   2.0000      -0.408646       -11.1198
  63   2.0000      -0.356180        -9.6922
  64   2.0000      -0.334641        -9.1061
  65   2.0000      -0.327207        -8.9038
  66   2.0000      -0.292214        -7.9515
  67   0.0000       0.030243         0.8230
  68   0.0000       0.082966         2.2576
  69   0.0000       0.111807         3.0424
  70   0.0000       0.129335         3.5194
  71   0.0000       0.142377         3.8743

MULLIKEN ATOMIC CHARGES
-----------------------
   0 S :    0.084439
   1 C :   -0.102005
   2 C :   -0.115459
   3 C :   -0.007062
   4 C :   -0.116075
   5 H :    0.027199
   6 C :    0.146172
   7 H :    0.001719
   8 H :    0.016341
   9 C :   -0.142083
  10 H :    0.040590
  11 H :    0.042351
  12 C :   -0.034263
  13 H :    0.029291
  14 H :    0.039668
  15 H :    0.033035
  16 S :    0.114353
  17 C :    0.008454
  18 C :   -0.034845
  19 C :   -0.035789
  20 C :   -0.153523
  21 H :   -0.021258
  22 C :    0.085286
  23 H :    0.022965
  24 H :    0.009212
  25 C :   -0.058181
  26 H :    0.038810
  27 H :    0.023978
  28 C :   -0.013222
  29 H :    0.019673
  30 H :    0.025650
  31 H :    0.011301
  32 H :    0.029255
  33 H :   -0.015977
Sum of atomic charges:   -0.0000000

LOEWDIN ATOMIC CHARGES
----------------------
   0 S :    0.383675
   1 C :   -0.187092
   2 C :   -0.060335
   3 C :   -0.079587
   4 C :   -0.177710
   5 H :    0.032339
   6 C :   -0.021901
   7 H :    0.026276
   8 H :    0.023231
   9 C :   -0.046914
  10 H :    0.031455
  11 H :    0.028266
  12 C :   -0.066367
  13 H :    0.018498
  14 H :    0.035661
  15 H :    0.022725
  16 S :    0.438902
  17 C :   -0.181578
  18 C :   -0.069926
  19 C :   -0.058357
  20 C :   -0.197112
  21 H :    0.019404
  22 C :   -0.021470
  23 H :    0.030116
  24 H :    0.025163
  25 C :   -0.029618
  26 H :    0.035175
  27 H :    0.017438
  28 C :   -0.063138
  29 H :    0.024096
  30 H :    0.025765
  31 H :    0.014649
  32 H :    0.023746
  33 H :    0.004524

  Mayer bond orders larger than 0.100000
B(  0-S ,  1-C ) :   1.1058 B(  0-S ,  4-C ) :   1.1458 B(  1-C ,  2-C ) :   1.6465
B(  1-C , 32-H ) :   0.9701 B(  2-C ,  3-C ) :   1.2174 B(  2-C ,  6-C ) :   1.0332
B(  3-C ,  4-C ) :   1.6009 B(  3-C ,  5-H ) :   0.9809 B(  4-C , 20-C ) :   1.0264
B(  6-C ,  7-H ) :   0.9416 B(  6-C ,  8-H ) :   0.9261 B(  6-C ,  9-C ) :   1.0470
B(  9-C , 10-H ) :   0.9597 B(  9-C , 11-H ) :   0.9525 B(  9-C , 12-C ) :   1.0834
B( 12-C , 13-H ) :   0.9751 B( 12-C , 14-H ) :   0.9747 B( 12-C , 15-H ) :   0.9736
B( 16-S , 17-C ) :   1.1743 B( 16-S , 20-C ) :   1.1496 B( 17-C , 18-C ) :   1.5785
B( 17-C , 33-H ) :   0.9788 B( 18-C , 19-C ) :   1.2965 B( 18-C , 21-H ) :   1.0041
B( 19-C , 20-C ) :   1.5701 B( 19-C , 22-C ) :   1.0334 B( 22-C , 23-H ) :   0.9345
B( 22-C , 24-H ) :   0.9334 B( 22-C , 25-C ) :   1.0586 B( 25-C , 26-H ) :   0.9529
B( 25-C , 27-H ) :   0.9651 B( 25-C , 28-C ) :   1.0736 B( 28-C , 29-H ) :   0.9737
B( 28-C , 30-H ) :   0.9743 B( 28-C , 31-H ) :   0.9767

Dispersion correction           -0.013827452
FINAL SINGLE POINT ENERGY     -1339.863714695926

DIPOLE MOMENT
-------------
                                X             Y             Z
Electronic contribution:    -10.04948       9.04464      25.30331
Nuclear contribution   :     10.38957      -9.00184     -25.88050
                        -----------------------------------------
Total Dipole Moment    :      0.34009       0.04280      -0.57719
                        -----------------------------------------
Magnitude (a.u.)       :      0.67130
Magnitude (Debye)      :      1.70630

Rotational constants in cm-1:     0.018090     0.008301     0.006672
Rotational constants in MHz :   542.332774   248.852259   200.031138

                             ****ORCA TERMINATED NORMALLY****
TOTAL RUN TIME: 0 days 0 hours 0 minutes 34 seconds 242 msec
