                         Program Version 4.2.1 -  RELEASE  -
|  1> ! wB97X-D3 SP def2-SVP
|  2> %pal
|  3> nprocs 16
|  4> end
|  5>
|  6> * xyz 0 1
|  7> S 	 20.0764 	 4.23943 	 85.4994
|  8> C 	 21.6134 	 5.0159 	 85.0664
|  9> C 	 22.5064 	 4.02227 	 84.6612
| 10> C 	 21.8895 	 2.74376 	 84.3979
| 11> C 	 20.5749 	 2.72743 	 84.7734
| 12> H 	 22.3392 	 1.87704 	 83.9933
| 13> C 	 23.9746 	 4.25639 	 84.4597
| 14> H 	 24.1216 	 5.22763 	 83.9575
| 15> H 	 24.206 	 3.60807 	 83.6751
| 16> C 	 24.9133 	 3.98506 	 85.6649
| 17> H 	 24.6231 	 4.61928 	 86.4539
| 18> H 	 24.7045 	 2.91956 	 85.9155
| 19> C 	 26.3582 	 4.42572 	 85.3468
| 20> H 	 26.9652 	 3.98449 	 86.2026
| 21> H 	 26.7006 	 4.00609 	 84.3938
| 22> H 	 26.4029 	 5.48015 	 85.2553
| 23> S 	 19.139 	 0.989152 	 86.5271
| 24> C 	 18.4092 	 -0.477593 	 85.8331
| 25> C 	 18.7338 	 -0.528515 	 84.5118
| 26> C 	 19.402 	 0.617745 	 83.9579
| 27> C 	 19.7431 	 1.48161 	 84.988
| 28> H 	 18.4844 	 -1.45901 	 84.0239
| 29> C 	 19.759 	 0.72468 	 82.4925
| 30> H 	 20.3212 	 -0.231724 	 82.2135
| 31> H 	 20.411 	 1.63639 	 82.4156
| 32> C 	 18.6147 	 0.887158 	 81.5233
| 33> H 	 17.9502 	 1.71405 	 81.7058
| 34> H 	 17.9943 	 -0.00731085 	 81.6227
| 35> C 	 19.1214 	 1.12788 	 80.1094
| 36> H 	 18.2175 	 1.37404 	 79.5134
| 37> H 	 19.6682 	 0.352452 	 79.6496
| 38> H 	 19.7875 	 1.98743 	 80.1188
| 39> H 	 21.9456 	 5.97697 	 85.4204
| 40> H 	 18.0522 	 -1.24244 	 86.4814
| 41> *
| 42>
| 43>                          ****END OF INPUT****

CARTESIAN COORDINATES (ANGSTROEM)
---------------------------------
  S     20.076400    4.239430   85.499400
  C     21.613400    5.015900   85.066400
  C     22.506400    4.022270   84.661200
  C     21.889500    2.743760   84.397900
  C     20.574900    2.727430   84.773400
  H     22.339200    1.877040   83.993300
  C     23.974600    4.256390   84.459700
  H     24.121600    5.227630   83.957500
  H     24.206000    3.608070   83.675100
  C     24.913300    3.985060   85.664900
  H     24.623100    4.619280   86.453900
  H     24.704500    2.919560   85.915500
  C     26.358200    4.425720   85.346800
  H     26.965200    3.984490   86.202600
  H     26.700600    4.006090   84.393800
  H     26.402900    5.480150   85.255300
  S     19.139000    0.989152   86.527100
  C     18.409200   -0.477593   85.833100
  C     18.733800   -0.528515   84.511800
  C     19.402000    0.617745   83.957900
  C     19.743100    1.481610   84.988000
  H     18.484400   -1.459010   84.023900
  C     19.759000    0.724680   82.492500
  H     20.321200   -0.231724   82.213500
  H     20.411000    1.636390   82.415600
  C     18.614700    0.887158   81.523300
  H     17.950200    1.714050   81.705800
  H     17.994300   -0.007311   81.622700
  C     19.121400    1.127880   80.109400
  H     18.217500    1.374040   79.513400
  H     19.668200    0.352452   79.649600
  H     19.787500    1.987430   80.118800
  H     21.945600    5.976970   85.420400
  H     18.052200   -1.242440   86.481400

 Total Charge           Charge          ....    0
 Multiplicity           Mult            ....    1
 Number of Electrons    NEL             ....  134
 Basis Dimension        Dim             ....  322

ORBITAL ENERGIES
----------------

  NO   OCC          E(Eh)            E(eV)
   0   2.0000     -88.964905     -2420.8581
   1   2.0000     -88.964227     -2420.8397
   2   2.0000     -10.331847      -281.1439
   3   2.0000     -10.329239      -281.0729
   4   2.0000     -10.314980      -280.6849
   5   2.0000     -10.314021      -280.6588
   6   2.0000     -10.302894      -280.3560
   7   2.0000     -10.300975      -280.3038
   8   2.0000     -10.296756      -280.1890
   9   2.0000     -10.293227      -280.0930
  10   2.0000     -10.292903      -280.0841
  11   2.0000     -10.287733      -279.9434
  12   2.0000     -10.284146      -279.8458
  13   2.0000     -10.283388      -279.8252
  14   2.0000     -10.280182      -279.7380
  15   2.0000     -10.273283      -279.5503
  16   2.0000      -8.079194      -219.8460
  17   2.0000      -8.079056      -219.8423
  18   2.0000      -6.037789      -164.2966
  19   2.0000      -6.037579      -164.2909
  20   2.0000      -6.033749      -164.1866
  21   2.0000      -6.033557      -164.1814
  22   2.0000      -6.029907      -164.0821
  23   2.0000      -6.029785      -164.0788
  24   2.0000      -1.004914       -27.3451
  25   2.0000      -0.983178       -26.7536
  26   2.0000      -0.912233       -24.8231
  27   2.0000      -0.911056       -24.7911
  28   2.0000      -0.866309       -23.5735
  29   2.0000      -0.852854       -23.2073
  30   2.0000      -0.846068       -23.0227
  31   2.0000      -0.818934       -22.2843
  32   2.0000      -0.779341       -21.2069
  33   2.0000      -0.769592       -20.9417
  34   2.0000      -0.704341       -19.1661
  35   2.0000      -0.698879       -19.0175
  36   2.0000      -0.696107       -18.9420
  37   2.0000      -0.656800       -17.8724
  38   2.0000      -0.643316       -17.5055
  39   2.0000      -0.618182       -16.8216
  40   2.0000      -0.596935       -16.2434
  41   2.0000      -0.571240       -15.5442
  42   2.0000      -0.570597       -15.5267
  43   2.0000      -0.558929       -15.2092
  44   2.0000      -0.528057       -14.3691
  45   2.0000      -0.526234       -14.3196
  46   2.0000      -0.520439       -14.1619
  47   2.0000      -0.513273       -13.9669
  48   2.0000      -0.509018       -13.8511
  49   2.0000      -0.499643       -13.5960
  50   2.0000      -0.491346       -13.3702
  51   2.0000      -0.474573       -12.9138
  52   2.0000      -0.469094       -12.7647
  53   2.0000      -0.467680       -12.7262
  54   2.0000      -0.454713       -12.3734
  55   2.0000      -0.444193       -12.0871
  56   2.0000      -0.442456       -12.0399
  57   2.0000      -0.438789       -11.9400
  58   2.0000      -0.435275       -11.8444
  59   2.0000      -0.427615       -11.6360
  60   2.0000      -0.420375       -11.4390
  61   2.0000      -0.416078       -11.3221
  62   2.0000      -0.410208       -11.1623
  63   2.0000      -0.346769        -9.4361
  64   2.0000      -0.329465        -8.9652
  65   2.0000      -0.326377        -8.8812
  66   2.0000      -0.297701        -8.1009
  67   0.0000       0.033628         0.9151
  68   0.0000       0.067001         1.8232
  69   0.0000       0.111587         3.0364
  70   0.0000       0.121169         3.2972
  71   0.0000       0.126343         3.4380

MULLIKEN ATOMIC CHARGES
-----------------------
   0 S :    0.094781
   1 C :   -0.090890
   2 C :   -0.130672
   3 C :    0.059949
   4 C :   -0.159242
   5 H :    0.006571
   6 C :    0.049753
   7 H :    0.019572
   8 H :   -0.002721
   9 C :   -0.046089
  10 H :    0.019561
  11 H :    0.039070
  12 C :   -0.044239
  13 H :    0.053802
  14 H :    0.027874
  15 H :    0.032289
  16 S :    0.097949
  17 C :   -0.105078
  18 C :   -0.019453
  19 C :   -0.031363
  20 C :   -0.141444
  21 H :    0.017339
  22 C :    0.026498
  23 H :    0.044955
  24 H :    0.030557
  25 C :   -0.062336
  26 H :    0.028053
  27 H :    0.022249
  28 C :   -0.026846
  29 H :    0.039166
  30 H :    0.019994
  31 H :    0.024410
  32 H :    0.048265
  33 H :    0.057714
Sum of atomic charges:   -0.0000000

LOEWDIN ATOMIC CHARGES
----------------------
   0 S :    0.394731
   1 C :   -0.195202
   2 C :   -0.054740
   3 C :   -0.060652
   4 C :   -0.182919
   5 H :    0.027808
   6 C :   -0.041141
   7 H :    0.030896
   8 H :    0.019363
   9 C :   -0.032922
  10 H :    0.017827
  11 H :    0.030682
  12 C :   -0.061246
  13 H :    0.039175
  14 H :    0.022514
  15 H :    0.021455
  16 S :    0.396053
  17 C :   -0.175446
  18 C :   -0.065838
  19 C :   -0.064901
  20 C :   -0.202730
  21 H :    0.029774
  22 C :   -0.040584
  23 H :    0.041425
  24 H :    0.033396
  25 C :   -0.041529
  26 H :    0.026510
  27 H :    0.021403
  28 C :   -0.059388
  29 H :    0.033006
  30 H :    0.015325
  31 H :    0.025332
  32 H :    0.026811
  33 H :    0.025749

  Mayer bond orders larger than 0.100000
B(  0-S ,  1-C ) :   1.1202 B(  0-S ,  4-C ) :   1.1615 B(  1-C ,  2-C ) :   1.6226
B(  1-C , 32-H ) :   0.9690 B(  2-C ,  3-C ) :   1.2332 B(  2-C ,  6-C ) :   1.0263
B(  3-C ,  4-C ) :   1.5742 B(  3-C ,  5-H ) :   0.9952 B(  4-C , 20-C ) :   0.9958
B(  6-C ,  7-H ) :   0.9429 B(  6-C ,  8-H ) :   0.9332 B(  6-C ,  9-C ) :   1.0513
B(  9-C , 10-H ) :   0.9588 B(  9-C , 11-H ) :   0.9559 B(  9-C , 12-C ) :   1.0710
B( 12-C , 13-H ) :   0.9745 B( 12-C , 14-H ) :   0.9774 B( 12-C , 15-H ) :   0.9758
B( 16-S , 17-C ) :   1.1300 B( 16-S , 20-C ) :   1.1562 B( 17-C , 18-C ) :   1.6333
B( 17-C , 33-H ) :   0.9721 B( 18-C , 19-C ) :   1.2168 B( 18-C , 21-H ) :   0.9884
B( 19-C , 20-C ) :   1.6062 B( 19-C , 22-C ) :   1.0422 B( 22-C , 23-H ) :   0.9354
B( 22-C , 24-H ) :   0.9239 B( 22-C , 25-C ) :   1.0782 B( 25-C , 26-H ) :   0.9529
B( 25-C , 27-H ) :   0.9509 B( 25-C , 28-C ) :   1.0860 B( 28-C , 29-H ) :   0.9750
B( 28-C , 30-H ) :   0.9747 B( 28-C , 31-H ) :   0.9720

Dispersion correction           -0.013504433
FINAL SINGLE POINT ENERGY     -1339.874495959253

DIPOLE MOMENT
-------------
                                X             Y             Z
Electronic contribution:    -17.22695      -0.24231      17.75419
Nuclear contribution   :     17.74314      -0.04323     -18.05727
                        -----------------------------------------
Total Dipole Moment    :      0.51620      -0.28554      -0.30308
                        -----------------------------------------
Magnitude (a.u.)       :      0.66321
Magnitude (Debye)      :      1.68575

Rotational constants in cm-1:     0.018161     0.007628     0.006498
Rotational constants in MHz :   544.453299   228.688476   194.817675

                             ****ORCA TERMINATED NORMALLY****
TOTAL RUN TIME: 0 days 0 hours 0 minutes 31 seconds 472 msec
