                         Program Version 4.2.1 -  RELEASE  -
|  1> ! wB97X-D3 SP def2-SVP
|  2> %pal
|  3> nprocs 16
|  4> end
|  5>
|  6> * xyz 0 1
|  7> S 	 4.91654 	 -11.1731 	 101.853
|  8> C 	 6.32171 	 -10.1401 	 101.783
|  9> C 	 7.03848 	 -10.2669 	 100.566
| 10> C 	 6.35005 	 -11.0925 	 99.6605
| 11> C 	 5.23268 	 -11.6563 	 100.192
| 12> H 	 6.61503 	 -11.4341 	 98.6715
| 13> C 	 8.34449 	 -9.549 	 100.184
| 14> H 	 8.05864 	 -8.76401 	 99.4793
| 15> H 	 9.04084 	 -10.2174 	 99.6069
| 16> C 	 9.15274 	 -9.02317 	 101.325
| 17> H 	 8.59891 	 -8.43649 	 102.055
| 18> H 	 9.5574 	 -9.91518 	 101.877
| 19> C 	 10.3912 	 -8.26685 	 100.939
| 20> H 	 10.4152 	 -7.32933 	 100.442
| 21> H 	 10.9441 	 -8.08843 	 101.815
| 22> H 	 11.0289 	 -8.98381 	 100.354
| 23> S 	 2.77609 	 -11.9421 	 99.0271
| 24> C 	 2.16956 	 -13.5844 	 98.8097
| 25> C 	 3.20365 	 -14.476 	 98.7978
| 26> C 	 4.41894 	 -13.8652 	 99.2159
| 27> C 	 4.34741 	 -12.4945 	 99.4196
| 28> H 	 2.92667 	 -15.549 	 98.4766
| 29> C 	 5.58627 	 -14.7093 	 99.5244
| 30> H 	 6.48734 	 -14.1893 	 99.1045
| 31> H 	 5.3631 	 -15.6502 	 98.9962
| 32> C 	 5.70425 	 -14.9437 	 101.088
| 33> H 	 4.75559 	 -15.4532 	 101.355
| 34> H 	 5.89647 	 -14.028 	 101.65
| 35> C 	 6.89295 	 -15.8804 	 101.269
| 36> H 	 6.7762 	 -16.7841 	 100.677
| 37> H 	 6.92757 	 -16.3521 	 102.28
| 38> H 	 7.85451 	 -15.53 	 101.114
| 39> H 	 6.70897 	 -9.57218 	 102.554
| 40> H 	 1.16896 	 -13.6827 	 98.4837
| 41> *
| 42>
| 43>                          ****END OF INPUT****

CARTESIAN COORDINATES (ANGSTROEM)
---------------------------------
  S      4.916540  -11.173100  101.853000
  C      6.321710  -10.140100  101.783000
  C      7.038480  -10.266900  100.566000
  C      6.350050  -11.092500   99.660500
  C      5.232680  -11.656300  100.192000
  H      6.615030  -11.434100   98.671500
  C      8.344490   -9.549000  100.184000
  H      8.058640   -8.764010   99.479300
  H      9.040840  -10.217400   99.606900
  C      9.152740   -9.023170  101.325000
  H      8.598910   -8.436490  102.055000
  H      9.557400   -9.915180  101.877000
  C     10.391200   -8.266850  100.939000
  H     10.415200   -7.329330  100.442000
  H     10.944100   -8.088430  101.815000
  H     11.028900   -8.983810  100.354000
  S      2.776090  -11.942100   99.027100
  C      2.169560  -13.584400   98.809700
  C      3.203650  -14.476000   98.797800
  C      4.418940  -13.865200   99.215900
  C      4.347410  -12.494500   99.419600
  H      2.926670  -15.549000   98.476600
  C      5.586270  -14.709300   99.524400
  H      6.487340  -14.189300   99.104500
  H      5.363100  -15.650200   98.996200
  C      5.704250  -14.943700  101.088000
  H      4.755590  -15.453200  101.355000
  H      5.896470  -14.028000  101.650000
  C      6.892950  -15.880400  101.269000
  H      6.776200  -16.784100  100.677000
  H      6.927570  -16.352100  102.280000
  H      7.854510  -15.530000  101.114000
  H      6.708970   -9.572180  102.554000
  H      1.168960  -13.682700   98.483700

 Total Charge           Charge          ....    0
 Multiplicity           Mult            ....    1
 Number of Electrons    NEL             ....  134
 Basis Dimension        Dim             ....  322

ORBITAL ENERGIES
----------------

  NO   OCC          E(Eh)            E(eV)
   0   2.0000     -88.971057     -2421.0255
   1   2.0000     -88.957214     -2420.6489
   2   2.0000     -10.321954      -280.8746
   3   2.0000     -10.313448      -280.6432
   4   2.0000     -10.313216      -280.6369
   5   2.0000     -10.311407      -280.5877
   6   2.0000     -10.303716      -280.3784
   7   2.0000     -10.298911      -280.2476
   8   2.0000     -10.296467      -280.1811
   9   2.0000     -10.295682      -280.1597
  10   2.0000     -10.288505      -279.9645
  11   2.0000     -10.288293      -279.9587
  12   2.0000     -10.288043      -279.9519
  13   2.0000     -10.287767      -279.9444
  14   2.0000     -10.273583      -279.5584
  15   2.0000     -10.267255      -279.3862
  16   2.0000      -8.084981      -220.0035
  17   2.0000      -8.072983      -219.6770
  18   2.0000      -6.043407      -164.4495
  19   2.0000      -6.039649      -164.3472
  20   2.0000      -6.035821      -164.2430
  21   2.0000      -6.031333      -164.1209
  22   2.0000      -6.027292      -164.0110
  23   2.0000      -6.023905      -163.9188
  24   2.0000      -1.010278       -27.4911
  25   2.0000      -0.985712       -26.8226
  26   2.0000      -0.917585       -24.9687
  27   2.0000      -0.905834       -24.6490
  28   2.0000      -0.871891       -23.7253
  29   2.0000      -0.857034       -23.3211
  30   2.0000      -0.847868       -23.0717
  31   2.0000      -0.817084       -22.2340
  32   2.0000      -0.782122       -21.2826
  33   2.0000      -0.763612       -20.7789
  34   2.0000      -0.712194       -19.3798
  35   2.0000      -0.701737       -19.0952
  36   2.0000      -0.688371       -18.7315
  37   2.0000      -0.660076       -17.9616
  38   2.0000      -0.646872       -17.6023
  39   2.0000      -0.611771       -16.6471
  40   2.0000      -0.591369       -16.0920
  41   2.0000      -0.577821       -15.7233
  42   2.0000      -0.566696       -15.4206
  43   2.0000      -0.564789       -15.3687
  44   2.0000      -0.528017       -14.3681
  45   2.0000      -0.522354       -14.2140
  46   2.0000      -0.517909       -14.0930
  47   2.0000      -0.509182       -13.8555
  48   2.0000      -0.503264       -13.6945
  49   2.0000      -0.500489       -13.6190
  50   2.0000      -0.493197       -13.4206
  51   2.0000      -0.477090       -12.9823
  52   2.0000      -0.473708       -12.8903
  53   2.0000      -0.465139       -12.6571
  54   2.0000      -0.456712       -12.4278
  55   2.0000      -0.447250       -12.1703
  56   2.0000      -0.439949       -11.9716
  57   2.0000      -0.433318       -11.7912
  58   2.0000      -0.430375       -11.7111
  59   2.0000      -0.429158       -11.6780
  60   2.0000      -0.420842       -11.4517
  61   2.0000      -0.418631       -11.3915
  62   2.0000      -0.410575       -11.1723
  63   2.0000      -0.341727        -9.2989
  64   2.0000      -0.329641        -8.9700
  65   2.0000      -0.319987        -8.7073
  66   2.0000      -0.298751        -8.1294
  67   0.0000       0.038089         1.0365
  68   0.0000       0.059030         1.6063
  69   0.0000       0.113749         3.0953
  70   0.0000       0.118987         3.2378
  71   0.0000       0.136471         3.7136

MULLIKEN ATOMIC CHARGES
-----------------------
   0 S :    0.140300
   1 C :   -0.100444
   2 C :   -0.065003
   3 C :    0.029196
   4 C :   -0.160150
   5 H :    0.011679
   6 C :    0.072563
   7 H :    0.042093
   8 H :    0.030583
   9 C :   -0.117587
  10 H :    0.032520
  11 H :    0.037559
  12 C :   -0.016592
  13 H :    0.031237
  14 H :    0.014302
  15 H :    0.019426
  16 S :    0.092320
  17 C :   -0.104414
  18 C :   -0.047013
  19 C :   -0.054880
  20 C :   -0.169697
  21 H :    0.055044
  22 C :    0.052703
  23 H :    0.032496
  24 H :    0.023167
  25 C :   -0.064430
  26 H :    0.035119
  27 H :    0.050044
  28 C :   -0.016402
  29 H :    0.009569
  30 H :    0.021918
  31 H :    0.018943
  32 H :    0.015890
  33 H :    0.047941
Sum of atomic charges:    0.0000000

LOEWDIN ATOMIC CHARGES
----------------------
   0 S :    0.416077
   1 C :   -0.193350
   2 C :   -0.055943
   3 C :   -0.056398
   4 C :   -0.192258
   5 H :    0.034201
   6 C :   -0.035088
   7 H :    0.035272
   8 H :    0.036110
   9 C :   -0.049090
  10 H :    0.019681
  11 H :    0.035851
  12 C :   -0.063850
  13 H :    0.019891
  14 H :    0.022730
  15 H :    0.028867
  16 S :    0.410490
  17 C :   -0.167356
  18 C :   -0.087945
  19 C :   -0.059179
  20 C :   -0.226780
  21 H :    0.051179
  22 C :   -0.035005
  23 H :    0.033396
  24 H :    0.031266
  25 C :   -0.028275
  26 H :    0.030810
  27 H :    0.023629
  28 C :   -0.068908
  29 H :    0.021912
  30 H :    0.027603
  31 H :    0.013945
  32 H :    0.008837
  33 H :    0.017678

  Mayer bond orders larger than 0.100000
B(  0-S ,  1-C ) :   1.1396 B(  0-S ,  4-C ) :   1.1335 B(  1-C ,  2-C ) :   1.6075
B(  1-C , 32-H ) :   0.9712 B(  2-C ,  3-C ) :   1.2283 B(  2-C ,  6-C ) :   1.0093
B(  3-C ,  4-C ) :   1.6055 B(  3-C ,  5-H ) :   0.9928 B(  4-C , 20-C ) :   1.0278
B(  6-C ,  7-H ) :   0.9344 B(  6-C ,  8-H ) :   0.9434 B(  6-C ,  9-C ) :   1.0756
B(  9-C , 10-H ) :   0.9490 B(  9-C , 11-H ) :   0.9540 B(  9-C , 12-C ) :   1.0934
B( 12-C , 13-H ) :   0.9756 B( 12-C , 14-H ) :   0.9678 B( 12-C , 15-H ) :   0.9692
B( 16-S , 17-C ) :   1.1792 B( 16-S , 20-C ) :   1.1451 B( 17-C , 18-C ) :   1.5892
B( 17-C , 33-H ) :   0.9710 B( 18-C , 19-C ) :   1.2507 B( 18-C , 21-H ) :   0.9777
B( 19-C , 20-C ) :   1.5759 B( 19-C , 22-C ) :   1.0549 B( 22-C , 23-H ) :   0.9293
B( 22-C , 24-H ) :   0.9322 B( 22-C , 25-C ) :   1.0576 B( 25-C , 26-H ) :   0.9525
B( 25-C , 27-H ) :   0.9550 B( 25-C , 28-C ) :   1.0878 B( 28-C , 29-H ) :   0.9688
B( 28-C , 30-H ) :   0.9701 B( 28-C , 31-H ) :   0.9767

Dispersion correction           -0.014435939
FINAL SINGLE POINT ENERGY     -1339.864748281694

DIPOLE MOMENT
-------------
                                X             Y             Z
Electronic contribution:    -26.37183       3.60787      -3.73958
Nuclear contribution   :     26.86087      -3.80582       3.66587
                        -----------------------------------------
Total Dipole Moment    :      0.48905      -0.19796      -0.07371
                        -----------------------------------------
Magnitude (a.u.)       :      0.53272
Magnitude (Debye)      :      1.35406

Rotational constants in cm-1:     0.021673     0.007796     0.006628
Rotational constants in MHz :   649.736826   233.703345   198.704012

                             ****ORCA TERMINATED NORMALLY****
TOTAL RUN TIME: 0 days 0 hours 0 minutes 33 seconds 810 msec
