                         Program Version 4.2.1 -  RELEASE  -
|  1> ! wB97X-D3 SP def2-SVP
|  2> %pal
|  3> nprocs 16
|  4> end
|  5>
|  6> * xyz 0 1
|  7> S 	 -5.58666 	 74.8254 	 46.8907
|  8> C 	 -5.52936 	 76.054 	 48.144
|  9> C 	 -6.75621 	 76.2314 	 48.6947
| 10> C 	 -7.73353 	 75.3951 	 48.0819
| 11> C 	 -7.29598 	 74.5903 	 47.0555
| 12> H 	 -8.76506 	 75.1792 	 48.3603
| 13> C 	 -7.021 	 77.0958 	 49.9005
| 14> H 	 -6.69304 	 76.5283 	 50.7643
| 15> H 	 -8.0493 	 77.2674 	 50.0011
| 16> C 	 -6.2445 	 78.4652 	 49.9145
| 17> H 	 -5.21713 	 78.2235 	 50.1892
| 18> H 	 -6.28713 	 78.9185 	 48.9631
| 19> C 	 -6.78614 	 79.3625 	 51.0082
| 20> H 	 -7.88238 	 79.6223 	 50.8367
| 21> H 	 -6.75964 	 78.7888 	 51.9703
| 22> H 	 -6.29188 	 80.2818 	 51.0432
| 23> S 	 -7.16813 	 72.242 	 45.6706
| 24> C 	 -8.61067 	 71.5763 	 44.9676
| 25> C 	 -9.70589 	 72.3782 	 45.2372
| 26> C 	 -9.42161 	 73.4824 	 46.0087
| 27> C 	 -8.05174 	 73.662 	 46.2497
| 28> H 	 -10.6446 	 71.9474 	 44.8329
| 29> C 	 -10.5961 	 74.3471 	 46.5381
| 30> H 	 -10.5902 	 74.3631 	 47.6913
| 31> H 	 -11.5868 	 73.8636 	 46.285
| 32> C 	 -10.5893 	 75.7447 	 46.065
| 33> H 	 -11.0165 	 75.6938 	 45.0781
| 34> H 	 -9.53218 	 76.1044 	 46.1013
| 35> C 	 -11.505 	 76.752 	 46.8597
| 36> H 	 -12.5069 	 76.2662 	 46.8713
| 37> H 	 -11.603 	 77.7048 	 46.3612
| 38> H 	 -11.0337 	 77.0571 	 47.8361
| 39> H 	 -4.59018 	 76.5126 	 48.429
| 40> H 	 -8.80378 	 70.6325 	 44.4047
| 41> *
| 42>
| 43>                          ****END OF INPUT****

CARTESIAN COORDINATES (ANGSTROEM)
---------------------------------
  S     -5.586660   74.825400   46.890700
  C     -5.529360   76.054000   48.144000
  C     -6.756210   76.231400   48.694700
  C     -7.733530   75.395100   48.081900
  C     -7.295980   74.590300   47.055500
  H     -8.765060   75.179200   48.360300
  C     -7.021000   77.095800   49.900500
  H     -6.693040   76.528300   50.764300
  H     -8.049300   77.267400   50.001100
  C     -6.244500   78.465200   49.914500
  H     -5.217130   78.223500   50.189200
  H     -6.287130   78.918500   48.963100
  C     -6.786140   79.362500   51.008200
  H     -7.882380   79.622300   50.836700
  H     -6.759640   78.788800   51.970300
  H     -6.291880   80.281800   51.043200
  S     -7.168130   72.242000   45.670600
  C     -8.610670   71.576300   44.967600
  C     -9.705890   72.378200   45.237200
  C     -9.421610   73.482400   46.008700
  C     -8.051740   73.662000   46.249700
  H    -10.644600   71.947400   44.832900
  C    -10.596100   74.347100   46.538100
  H    -10.590200   74.363100   47.691300
  H    -11.586800   73.863600   46.285000
  C    -10.589300   75.744700   46.065000
  H    -11.016500   75.693800   45.078100
  H     -9.532180   76.104400   46.101300
  C    -11.505000   76.752000   46.859700
  H    -12.506900   76.266200   46.871300
  H    -11.603000   77.704800   46.361200
  H    -11.033700   77.057100   47.836100
  H     -4.590180   76.512600   48.429000
  H     -8.803780   70.632500   44.404700

 Total Charge           Charge          ....    0
 Multiplicity           Mult            ....    1
 Number of Electrons    NEL             ....  134
 Basis Dimension        Dim             ....  322

ORBITAL ENERGIES
----------------

  NO   OCC          E(Eh)            E(eV)
   0   2.0000     -88.970968     -2421.0231
   1   2.0000     -88.961742     -2420.7721
   2   2.0000     -10.332844      -281.1710
   3   2.0000     -10.328093      -281.0417
   4   2.0000     -10.319440      -280.8062
   5   2.0000     -10.311671      -280.5948
   6   2.0000     -10.307720      -280.4873
   7   2.0000     -10.301713      -280.3239
   8   2.0000     -10.300049      -280.2786
   9   2.0000     -10.292196      -280.0649
  10   2.0000     -10.290702      -280.0242
  11   2.0000     -10.288288      -279.9585
  12   2.0000     -10.285687      -279.8878
  13   2.0000     -10.284697      -279.8608
  14   2.0000     -10.281767      -279.7811
  15   2.0000     -10.281726      -279.7800
  16   2.0000      -8.085353      -220.0136
  17   2.0000      -8.076995      -219.7862
  18   2.0000      -6.043835      -164.4611
  19   2.0000      -6.039871      -164.3532
  20   2.0000      -6.036186      -164.2530
  21   2.0000      -6.035542      -164.2355
  22   2.0000      -6.031375      -164.1221
  23   2.0000      -6.027749      -164.0234
  24   2.0000      -1.012713       -27.5573
  25   2.0000      -0.989915       -26.9369
  26   2.0000      -0.915174       -24.9031
  27   2.0000      -0.911068       -24.7914
  28   2.0000      -0.875341       -23.8192
  29   2.0000      -0.851689       -23.1756
  30   2.0000      -0.846921       -23.0459
  31   2.0000      -0.815437       -22.1892
  32   2.0000      -0.782161       -21.2837
  33   2.0000      -0.772884       -21.0312
  34   2.0000      -0.713229       -19.4079
  35   2.0000      -0.702679       -19.1209
  36   2.0000      -0.681822       -18.5533
  37   2.0000      -0.665701       -18.1146
  38   2.0000      -0.639779       -17.4093
  39   2.0000      -0.615654       -16.7528
  40   2.0000      -0.593669       -16.1546
  41   2.0000      -0.575359       -15.6563
  42   2.0000      -0.572562       -15.5802
  43   2.0000      -0.569090       -15.4857
  44   2.0000      -0.530710       -14.4414
  45   2.0000      -0.522954       -14.2303
  46   2.0000      -0.518053       -14.0969
  47   2.0000      -0.509097       -13.8532
  48   2.0000      -0.506682       -13.7875
  49   2.0000      -0.500581       -13.6215
  50   2.0000      -0.494581       -13.4582
  51   2.0000      -0.482693       -13.1347
  52   2.0000      -0.478198       -13.0124
  53   2.0000      -0.469386       -12.7726
  54   2.0000      -0.459197       -12.4954
  55   2.0000      -0.446446       -12.1484
  56   2.0000      -0.440098       -11.9757
  57   2.0000      -0.437534       -11.9059
  58   2.0000      -0.434498       -11.8233
  59   2.0000      -0.424657       -11.5555
  60   2.0000      -0.420916       -11.4537
  61   2.0000      -0.412325       -11.2199
  62   2.0000      -0.406608       -11.0644
  63   2.0000      -0.360896        -9.8205
  64   2.0000      -0.338844        -9.2204
  65   2.0000      -0.328781        -8.9466
  66   2.0000      -0.283241        -7.7074
  67   0.0000       0.017598         0.4789
  68   0.0000       0.081668         2.2223
  69   0.0000       0.104247         2.8367
  70   0.0000       0.125087         3.4038
  71   0.0000       0.130990         3.5644

MULLIKEN ATOMIC CHARGES
-----------------------
   0 S :    0.092218
   1 C :   -0.139140
   2 C :   -0.053887
   3 C :   -0.009408
   4 C :   -0.125566
   5 H :   -0.007918
   6 C :    0.090076
   7 H :    0.040512
   8 H :    0.003837
   9 C :   -0.083142
  10 H :    0.030781
  11 H :    0.031516
  12 C :   -0.046665
  13 H :    0.032971
  14 H :    0.034532
  15 H :    0.029720
  16 S :    0.109947
  17 C :   -0.103002
  18 C :   -0.069855
  19 C :   -0.010754
  20 C :   -0.118604
  21 H :    0.027594
  22 C :    0.011044
  23 H :    0.046964
  24 H :    0.024364
  25 C :   -0.091873
  26 H :    0.026947
  27 H :    0.057048
  28 C :   -0.057313
  29 H :    0.037927
  30 H :    0.032427
  31 H :    0.037217
  32 H :    0.051508
  33 H :    0.067976
Sum of atomic charges:   -0.0000000

LOEWDIN ATOMIC CHARGES
----------------------
   0 S :    0.399322
   1 C :   -0.190607
   2 C :   -0.064498
   3 C :   -0.076701
   4 C :   -0.195544
   5 H :    0.029262
   6 C :   -0.021744
   7 H :    0.036875
   8 H :    0.018338
   9 C :   -0.033385
  10 H :    0.023536
  11 H :    0.018515
  12 C :   -0.064450
  13 H :    0.029543
  14 H :    0.030775
  15 H :    0.017358
  16 S :    0.415149
  17 C :   -0.199892
  18 C :   -0.081877
  19 C :   -0.055571
  20 C :   -0.187729
  21 H :    0.040383
  22 C :   -0.038280
  23 H :    0.031564
  24 H :    0.031765
  25 C :   -0.051167
  26 H :    0.024439
  27 H :    0.031082
  28 C :   -0.070287
  29 H :    0.028789
  30 H :    0.024291
  31 H :    0.028705
  32 H :    0.028490
  33 H :    0.043552

  Mayer bond orders larger than 0.100000
B(  0-S ,  1-C ) :   1.1290 B(  0-S ,  4-C ) :   1.1480 B(  1-C ,  2-C ) :   1.6010
B(  1-C , 32-H ) :   0.9763 B(  2-C ,  3-C ) :   1.2371 B(  2-C ,  6-C ) :   1.0224
B(  3-C ,  4-C ) :   1.5711 B(  3-C ,  5-H ) :   0.9899 B(  4-C , 20-C ) :   1.0761
B(  6-C ,  7-H ) :   0.9279 B(  6-C ,  8-H ) :   0.9457 B(  6-C ,  9-C ) :   1.0650
B(  9-C , 10-H ) :   0.9464 B(  9-C , 11-H ) :   0.9657 B(  9-C , 12-C ) :   1.0955
B( 12-C , 13-H ) :   0.9740 B( 12-C , 14-H ) :   0.9711 B( 12-C , 15-H ) :   0.9729
B( 16-S , 17-C ) :   1.1649 B( 16-S , 20-C ) :   1.1429 B( 17-C , 18-C ) :   1.6034
B( 17-C , 20-C ) :   0.1135 B( 17-C , 33-H ) :   0.9574 B( 18-C , 19-C ) :   1.2831
B( 18-C , 21-H ) :   0.9865 B( 19-C , 20-C ) :   1.5469 B( 19-C , 22-C ) :   1.0208
B( 22-C , 23-H ) :   0.9368 B( 22-C , 24-H ) :   0.9328 B( 22-C , 25-C ) :   1.0581
B( 25-C , 26-H ) :   0.9505 B( 25-C , 27-H ) :   0.9577 B( 25-C , 28-C ) :   1.0826
B( 28-C , 29-H ) :   0.9729 B( 28-C , 30-H ) :   0.9748 B( 28-C , 31-H ) :   0.9733

Dispersion correction           -0.014011633
FINAL SINGLE POINT ENERGY     -1339.874455724227

DIPOLE MOMENT
-------------
                                X             Y             Z
Electronic contribution:     15.55372     -23.76309     -14.80979
Nuclear contribution   :    -16.03919      23.97881      15.13812
                        -----------------------------------------
Total Dipole Moment    :     -0.48547       0.21572       0.32833
                        -----------------------------------------
Magnitude (a.u.)       :      0.62451
Magnitude (Debye)      :      1.58739

Rotational constants in cm-1:     0.020336     0.008461     0.006237
Rotational constants in MHz :   609.664515   253.661345   186.972356

                             ****ORCA TERMINATED NORMALLY****
TOTAL RUN TIME: 0 days 0 hours 0 minutes 33 seconds 723 msec
