                         Program Version 4.2.1 -  RELEASE  -
|  1> ! wB97X-D3 SP def2-SVP
|  2> %pal
|  3> nprocs 16
|  4> end
|  5>
|  6> * xyz 0 1
|  7> S 	 0.0591936 	 36.0662 	 38.3
|  8> C 	 1.32551 	 36.1439 	 37.104
|  9> C 	 1.11391 	 35.2216 	 36.0527
| 10> C 	 -0.100037 	 34.4782 	 36.3316
| 11> C 	 -0.782027 	 34.7805 	 37.4919
| 12> H 	 -0.489612 	 33.6975 	 35.7072
| 13> C 	 1.92768 	 35.1551 	 34.8378
| 14> H 	 2.78467 	 35.8542 	 34.9128
| 15> H 	 1.23889 	 35.5832 	 34.0719
| 16> C 	 2.2979 	 33.7252 	 34.3104
| 17> H 	 2.95049 	 33.2224 	 34.9803
| 18> H 	 1.3769 	 33.1256 	 34.303
| 19> C 	 2.99761 	 33.7731 	 32.9391
| 20> H 	 2.33575 	 34.2727 	 32.2142
| 21> H 	 3.98771 	 34.2502 	 32.8939
| 22> H 	 3.19664 	 32.759 	 32.5861
| 23> S 	 -3.21865 	 35.3772 	 38.5899
| 24> C 	 -4.40612 	 34.1268 	 38.6146
| 25> C 	 -3.86128 	 32.8699 	 38.3504
| 26> C 	 -2.4736 	 32.9131 	 37.9805
| 27> C 	 -2.03475 	 34.2204 	 37.9465
| 28> H 	 -4.62436 	 32.0426 	 38.4527
| 29> C 	 -1.57857 	 31.7451 	 37.7288
| 30> H 	 -1.65871 	 30.9607 	 38.5007
| 31> H 	 -0.575209 	 32.0917 	 37.9417
| 32> C 	 -1.70162 	 30.9389 	 36.351
| 33> H 	 -1.57087 	 31.6039 	 35.4519
| 34> H 	 -2.63984 	 30.4721 	 36.1971
| 35> C 	 -0.588621 	 29.8493 	 36.2678
| 36> H 	 0.288267 	 30.5338 	 36.2083
| 37> H 	 -0.5823 	 29.257 	 35.3834
| 38> H 	 -0.459742 	 29.2389 	 37.1355
| 39> H 	 2.10875 	 36.8086 	 37.1219
| 40> H 	 -5.48971 	 34.3753 	 38.7992
| 41> *
| 42>
| 43>                          ****END OF INPUT****

CARTESIAN COORDINATES (ANGSTROEM)
---------------------------------
  S      0.059194   36.066200   38.300000
  C      1.325510   36.143900   37.104000
  C      1.113910   35.221600   36.052700
  C     -0.100037   34.478200   36.331600
  C     -0.782027   34.780500   37.491900
  H     -0.489612   33.697500   35.707200
  C      1.927680   35.155100   34.837800
  H      2.784670   35.854200   34.912800
  H      1.238890   35.583200   34.071900
  C      2.297900   33.725200   34.310400
  H      2.950490   33.222400   34.980300
  H      1.376900   33.125600   34.303000
  C      2.997610   33.773100   32.939100
  H      2.335750   34.272700   32.214200
  H      3.987710   34.250200   32.893900
  H      3.196640   32.759000   32.586100
  S     -3.218650   35.377200   38.589900
  C     -4.406120   34.126800   38.614600
  C     -3.861280   32.869900   38.350400
  C     -2.473600   32.913100   37.980500
  C     -2.034750   34.220400   37.946500
  H     -4.624360   32.042600   38.452700
  C     -1.578570   31.745100   37.728800
  H     -1.658710   30.960700   38.500700
  H     -0.575209   32.091700   37.941700
  C     -1.701620   30.938900   36.351000
  H     -1.570870   31.603900   35.451900
  H     -2.639840   30.472100   36.197100
  C     -0.588621   29.849300   36.267800
  H      0.288267   30.533800   36.208300
  H     -0.582300   29.257000   35.383400
  H     -0.459742   29.238900   37.135500
  H      2.108750   36.808600   37.121900
  H     -5.489710   34.375300   38.799200

 Total Charge           Charge          ....    0
 Multiplicity           Mult            ....    1
 Number of Electrons    NEL             ....  134
 Basis Dimension        Dim             ....  322

ORBITAL ENERGIES
----------------

  NO   OCC          E(Eh)            E(eV)
   0   2.0000     -88.965332     -2420.8698
   1   2.0000     -88.964260     -2420.8406
   2   2.0000     -10.328044      -281.0404
   3   2.0000     -10.326722      -281.0044
   4   2.0000     -10.320958      -280.8475
   5   2.0000     -10.308785      -280.5163
   6   2.0000     -10.308320      -280.5037
   7   2.0000     -10.303780      -280.3801
   8   2.0000     -10.301882      -280.3285
   9   2.0000     -10.297359      -280.2054
  10   2.0000     -10.297281      -280.2033
  11   2.0000     -10.295529      -280.1556
  12   2.0000     -10.291937      -280.0578
  13   2.0000     -10.291175      -280.0371
  14   2.0000     -10.283093      -279.8172
  15   2.0000     -10.277573      -279.6670
  16   2.0000      -8.080499      -219.8816
  17   2.0000      -8.079177      -219.8456
  18   2.0000      -6.038897      -164.3267
  19   2.0000      -6.037717      -164.2946
  20   2.0000      -6.035047      -164.2220
  21   2.0000      -6.033524      -164.1805
  22   2.0000      -6.031261      -164.1190
  23   2.0000      -6.030060      -164.0863
  24   2.0000      -1.007812       -27.4240
  25   2.0000      -0.983091       -26.7513
  26   2.0000      -0.912777       -24.8379
  27   2.0000      -0.904434       -24.6109
  28   2.0000      -0.869699       -23.6657
  29   2.0000      -0.855922       -23.2908
  30   2.0000      -0.844997       -22.9935
  31   2.0000      -0.814322       -22.1588
  32   2.0000      -0.782236       -21.2857
  33   2.0000      -0.769532       -20.9400
  34   2.0000      -0.712688       -19.3932
  35   2.0000      -0.705048       -19.1853
  36   2.0000      -0.695749       -18.9323
  37   2.0000      -0.657834       -17.9006
  38   2.0000      -0.641152       -17.4466
  39   2.0000      -0.620839       -16.8939
  40   2.0000      -0.597054       -16.2467
  41   2.0000      -0.569492       -15.4967
  42   2.0000      -0.563431       -15.3317
  43   2.0000      -0.555358       -15.1120
  44   2.0000      -0.531924       -14.4744
  45   2.0000      -0.523866       -14.2551
  46   2.0000      -0.516896       -14.0654
  47   2.0000      -0.509084       -13.8529
  48   2.0000      -0.507983       -13.8229
  49   2.0000      -0.500864       -13.6292
  50   2.0000      -0.494087       -13.4448
  51   2.0000      -0.479251       -13.0411
  52   2.0000      -0.469503       -12.7758
  53   2.0000      -0.463777       -12.6200
  54   2.0000      -0.457105       -12.4385
  55   2.0000      -0.449872       -12.2416
  56   2.0000      -0.446803       -12.1581
  57   2.0000      -0.439490       -11.9591
  58   2.0000      -0.435352       -11.8465
  59   2.0000      -0.431641       -11.7456
  60   2.0000      -0.425296       -11.5729
  61   2.0000      -0.416433       -11.3317
  62   2.0000      -0.415239       -11.2992
  63   2.0000      -0.350848        -9.5471
  64   2.0000      -0.332718        -9.0537
  65   2.0000      -0.324300        -8.8247
  66   2.0000      -0.285544        -7.7701
  67   0.0000       0.028052         0.7633
  68   0.0000       0.071174         1.9367
  69   0.0000       0.109573         2.9816
  70   0.0000       0.117458         3.1962
  71   0.0000       0.122152         3.3239

MULLIKEN ATOMIC CHARGES
-----------------------
   0 S :    0.106467
   1 C :   -0.092137
   2 C :   -0.069544
   3 C :    0.020892
   4 C :   -0.137994
   5 H :   -0.017735
   6 C :    0.044939
   7 H :    0.024883
   8 H :    0.045755
   9 C :   -0.072628
  10 H :    0.026130
  11 H :    0.033609
  12 C :   -0.054509
  13 H :    0.031201
  14 H :    0.038048
  15 H :    0.032067
  16 S :    0.108683
  17 C :   -0.129494
  18 C :   -0.054517
  19 C :    0.025863
  20 C :   -0.159603
  21 H :    0.041267
  22 C :    0.024016
  23 H :    0.027812
  24 H :    0.029076
  25 C :   -0.064329
  26 H :    0.033458
  27 H :    0.023366
  28 C :   -0.048836
  29 H :    0.025773
  30 H :    0.034707
  31 H :    0.031556
  32 H :    0.011859
  33 H :    0.079898
Sum of atomic charges:   -0.0000000

LOEWDIN ATOMIC CHARGES
----------------------
   0 S :    0.409044
   1 C :   -0.190772
   2 C :   -0.056984
   3 C :   -0.067336
   4 C :   -0.200825
   5 H :    0.021497
   6 C :   -0.038783
   7 H :    0.033147
   8 H :    0.043511
   9 C :   -0.035420
  10 H :    0.019542
  11 H :    0.026215
  12 C :   -0.068192
  13 H :    0.025238
  14 H :    0.028437
  15 H :    0.027162
  16 S :    0.400841
  17 C :   -0.199737
  18 C :   -0.078937
  19 C :   -0.055954
  20 C :   -0.182344
  21 H :    0.043978
  22 C :   -0.034871
  23 H :    0.036970
  24 H :    0.032800
  25 C :   -0.031934
  26 H :    0.023971
  27 H :    0.013854
  28 C :   -0.065280
  29 H :    0.030711
  30 H :    0.021924
  31 H :    0.020008
  32 H :    0.008598
  33 H :    0.039921

  Mayer bond orders larger than 0.100000
B(  0-S ,  1-C ) :   1.1415 B(  0-S ,  4-C ) :   1.1467 B(  1-C ,  2-C ) :   1.5791
B(  1-C , 32-H ) :   0.9797 B(  2-C ,  3-C ) :   1.2365 B(  2-C ,  6-C ) :   1.0475
B(  3-C ,  4-C ) :   1.5699 B(  3-C ,  5-H ) :   0.9945 B(  4-C , 20-C ) :   1.0608
B(  6-C ,  7-H ) :   0.9405 B(  6-C ,  8-H ) :   0.9297 B(  6-C ,  9-C ) :   1.0489
B(  9-C , 10-H ) :   0.9580 B(  9-C , 11-H ) :   0.9537 B(  9-C , 12-C ) :   1.0872
B( 12-C , 13-H ) :   0.9757 B( 12-C , 14-H ) :   0.9747 B( 12-C , 15-H ) :   0.9735
B( 16-S , 17-C ) :   1.1569 B( 16-S , 20-C ) :   1.1354 B( 17-C , 18-C ) :   1.6234
B( 17-C , 33-H ) :   0.9608 B( 18-C , 19-C ) :   1.1946 B( 18-C , 21-H ) :   0.9871
B( 19-C , 20-C ) :   1.5957 B( 19-C , 22-C ) :   1.0514 B( 22-C , 23-H ) :   0.9346
B( 22-C , 24-H ) :   0.9358 B( 22-C , 25-C ) :   1.0386 B( 25-C , 26-H ) :   0.9589
B( 25-C , 27-H ) :   0.9586 B( 25-C , 28-C ) :   1.0649 B( 28-C , 29-H ) :   0.9799
B( 28-C , 30-H ) :   0.9758 B( 28-C , 31-H ) :   0.9776

Dispersion correction           -0.014173444
FINAL SINGLE POINT ENERGY     -1339.880203141679

DIPOLE MOMENT
-------------
                                X             Y             Z
Electronic contribution:    -15.01603      21.14288      21.37466
Nuclear contribution   :     15.14214     -21.64756     -21.85518
                        -----------------------------------------
Total Dipole Moment    :      0.12610      -0.50468      -0.48052
                        -----------------------------------------
Magnitude (a.u.)       :      0.70817
Magnitude (Debye)      :      1.80003

Rotational constants in cm-1:     0.017047     0.009429     0.006544
Rotational constants in MHz :   511.060306   282.677041   196.193937

                             ****ORCA TERMINATED NORMALLY****
TOTAL RUN TIME: 0 days 0 hours 0 minutes 33 seconds 159 msec
