                         Program Version 4.2.1 -  RELEASE  -
|  1> ! wB97X-D3 SP def2-SVP
|  2> %pal
|  3> nprocs 16
|  4> end
|  5>
|  6> * xyz 0 1
|  7> S 	 46.2212 	 5.38013 	 88.9065
|  8> C 	 47.0306 	 6.54174 	 87.9098
|  9> C 	 47.7581 	 5.90395 	 86.9295
| 10> C 	 47.8617 	 4.50051 	 87.2154
| 11> C 	 47.1545 	 4.01449 	 88.3763
| 12> H 	 48.4792 	 3.71099 	 86.6719
| 13> C 	 48.3104 	 6.53073 	 85.6317
| 14> H 	 49.2024 	 5.99697 	 85.3016
| 15> H 	 48.6725 	 7.51731 	 85.917
| 16> C 	 47.3819 	 6.68706 	 84.3763
| 17> H 	 47.9693 	 7.2431 	 83.6332
| 18> H 	 47.2178 	 5.64964 	 83.9626
| 19> C 	 46.0657 	 7.42098 	 84.6095
| 20> H 	 45.3222 	 6.8407 	 85.1763
| 21> H 	 46.3867 	 8.2551 	 85.3148
| 22> H 	 45.7503 	 7.91166 	 83.6957
| 23> S 	 47.202 	 2.59592 	 90.6699
| 24> C 	 47.2464 	 0.919671 	 90.6582
| 25> C 	 47.1247 	 0.407232 	 89.3481
| 26> C 	 47.0838 	 1.44459 	 88.3286
| 27> C 	 47.1514 	 2.65513 	 88.9272
| 28> H 	 47.0361 	 -0.670877 	 89.0833
| 29> C 	 47.0121 	 1.12915 	 86.8232
| 30> H 	 47.1707 	 0.0730758 	 86.6848
| 31> H 	 47.8628 	 1.52598 	 86.2761
| 32> C 	 45.7992 	 1.34416 	 86.0169
| 33> H 	 45.5954 	 2.39328 	 86.0683
| 34> H 	 44.8846 	 0.981542 	 86.4894
| 35> C 	 45.8225 	 0.915846 	 84.5588
| 36> H 	 46.6136 	 1.36424 	 83.9587
| 37> H 	 44.9378 	 1.18231 	 84.0101
| 38> H 	 45.9804 	 -0.18941 	 84.4188
| 39> H 	 46.7147 	 7.55681 	 87.9053
| 40> H 	 47.2878 	 0.213497 	 91.4954
| 41> *
| 42>
| 43>                          ****END OF INPUT****

CARTESIAN COORDINATES (ANGSTROEM)
---------------------------------
  S     46.221200    5.380130   88.906500
  C     47.030600    6.541740   87.909800
  C     47.758100    5.903950   86.929500
  C     47.861700    4.500510   87.215400
  C     47.154500    4.014490   88.376300
  H     48.479200    3.710990   86.671900
  C     48.310400    6.530730   85.631700
  H     49.202400    5.996970   85.301600
  H     48.672500    7.517310   85.917000
  C     47.381900    6.687060   84.376300
  H     47.969300    7.243100   83.633200
  H     47.217800    5.649640   83.962600
  C     46.065700    7.420980   84.609500
  H     45.322200    6.840700   85.176300
  H     46.386700    8.255100   85.314800
  H     45.750300    7.911660   83.695700
  S     47.202000    2.595920   90.669900
  C     47.246400    0.919671   90.658200
  C     47.124700    0.407232   89.348100
  C     47.083800    1.444590   88.328600
  C     47.151400    2.655130   88.927200
  H     47.036100   -0.670877   89.083300
  C     47.012100    1.129150   86.823200
  H     47.170700    0.073076   86.684800
  H     47.862800    1.525980   86.276100
  C     45.799200    1.344160   86.016900
  H     45.595400    2.393280   86.068300
  H     44.884600    0.981542   86.489400
  C     45.822500    0.915846   84.558800
  H     46.613600    1.364240   83.958700
  H     44.937800    1.182310   84.010100
  H     45.980400   -0.189410   84.418800
  H     46.714700    7.556810   87.905300
  H     47.287800    0.213497   91.495400

 Total Charge           Charge          ....    0
 Multiplicity           Mult            ....    1
 Number of Electrons    NEL             ....  134
 Basis Dimension        Dim             ....  322

ORBITAL ENERGIES
----------------

  NO   OCC          E(Eh)            E(eV)
   0   2.0000     -88.970437     -2421.0087
   1   2.0000     -88.965879     -2420.8846
   2   2.0000     -10.333902      -281.1998
   3   2.0000     -10.327860      -281.0354
   4   2.0000     -10.319338      -280.8034
   5   2.0000     -10.312114      -280.6069
   6   2.0000     -10.308541      -280.5097
   7   2.0000     -10.306342      -280.4498
   8   2.0000     -10.301693      -280.3233
   9   2.0000     -10.301504      -280.3182
  10   2.0000     -10.296234      -280.1748
  11   2.0000     -10.294288      -280.1218
  12   2.0000     -10.291088      -280.0347
  13   2.0000     -10.283067      -279.8165
  14   2.0000     -10.281186      -279.7653
  15   2.0000     -10.278096      -279.6812
  16   2.0000      -8.086521      -220.0454
  17   2.0000      -8.080872      -219.8917
  18   2.0000      -6.044914      -164.4905
  19   2.0000      -6.040807      -164.3787
  20   2.0000      -6.039390      -164.3402
  21   2.0000      -6.037340      -164.2844
  22   2.0000      -6.035199      -164.2261
  23   2.0000      -6.031747      -164.1322
  24   2.0000      -1.012694       -27.5568
  25   2.0000      -0.988628       -26.9019
  26   2.0000      -0.918789       -25.0015
  27   2.0000      -0.905590       -24.6424
  28   2.0000      -0.869213       -23.6525
  29   2.0000      -0.857625       -23.3372
  30   2.0000      -0.841011       -22.8851
  31   2.0000      -0.806320       -21.9411
  32   2.0000      -0.789758       -21.4904
  33   2.0000      -0.779329       -21.2066
  34   2.0000      -0.708780       -19.2869
  35   2.0000      -0.695571       -18.9274
  36   2.0000      -0.690859       -18.7992
  37   2.0000      -0.666272       -18.1302
  38   2.0000      -0.637673       -17.3520
  39   2.0000      -0.615240       -16.7415
  40   2.0000      -0.599708       -16.3189
  41   2.0000      -0.567390       -15.4395
  42   2.0000      -0.563760       -15.3407
  43   2.0000      -0.547639       -14.9020
  44   2.0000      -0.541851       -14.7445
  45   2.0000      -0.526229       -14.3194
  46   2.0000      -0.520615       -14.1667
  47   2.0000      -0.510639       -13.8952
  48   2.0000      -0.502675       -13.6785
  49   2.0000      -0.499464       -13.5911
  50   2.0000      -0.489134       -13.3100
  51   2.0000      -0.483753       -13.1636
  52   2.0000      -0.476318       -12.9613
  53   2.0000      -0.466013       -12.6809
  54   2.0000      -0.461093       -12.5470
  55   2.0000      -0.452729       -12.3194
  56   2.0000      -0.442953       -12.0534
  57   2.0000      -0.437631       -11.9085
  58   2.0000      -0.433929       -11.8078
  59   2.0000      -0.428300       -11.6546
  60   2.0000      -0.418080       -11.3765
  61   2.0000      -0.413694       -11.2572
  62   2.0000      -0.401009       -10.9120
  63   2.0000      -0.351986        -9.5780
  64   2.0000      -0.335228        -9.1220
  65   2.0000      -0.326135        -8.8746
  66   2.0000      -0.291152        -7.9226
  67   0.0000       0.025795         0.7019
  68   0.0000       0.073209         1.9921
  69   0.0000       0.111027         3.0212
  70   0.0000       0.120041         3.2665
  71   0.0000       0.127399         3.4667

MULLIKEN ATOMIC CHARGES
-----------------------
   0 S :    0.109124
   1 C :   -0.120685
   2 C :   -0.074514
   3 C :   -0.009104
   4 C :   -0.153895
   5 H :    0.029126
   6 C :    0.060234
   7 H :    0.024629
   8 H :    0.020033
   9 C :   -0.086388
  10 H :    0.034314
  11 H :    0.035610
  12 C :   -0.052915
  13 H :    0.056582
  14 H :    0.016496
  15 H :    0.042068
  16 S :    0.140431
  17 C :   -0.078734
  18 C :   -0.066470
  19 C :   -0.014593
  20 C :   -0.180479
  21 H :    0.030931
  22 C :    0.081389
  23 H :   -0.007125
  24 H :    0.020873
  25 C :   -0.032799
  26 H :    0.015152
  27 H :    0.019284
  28 C :   -0.057091
  29 H :    0.022025
  30 H :    0.033586
  31 H :    0.032486
  32 H :    0.046451
  33 H :    0.063970
Sum of atomic charges:   -0.0000000

LOEWDIN ATOMIC CHARGES
----------------------
   0 S :    0.420407
   1 C :   -0.199393
   2 C :   -0.068189
   3 C :   -0.078418
   4 C :   -0.209143
   5 H :    0.035747
   6 C :   -0.032172
   7 H :    0.031264
   8 H :    0.027126
   9 C :   -0.042761
  10 H :    0.027307
  11 H :    0.025120
  12 C :   -0.071937
  13 H :    0.031082
  14 H :    0.027817
  15 H :    0.028303
  16 S :    0.450760
  17 C :   -0.215283
  18 C :   -0.073013
  19 C :   -0.050361
  20 C :   -0.199018
  21 H :    0.035093
  22 C :   -0.032490
  23 H :    0.026950
  24 H :    0.030418
  25 C :   -0.047027
  26 H :    0.021669
  27 H :    0.026853
  28 C :   -0.066099
  29 H :    0.023433
  30 H :    0.028590
  31 H :    0.027975
  32 H :    0.022155
  33 H :    0.037234

  Mayer bond orders larger than 0.100000
B(  0-S ,  1-C ) :   1.1568 B(  0-S ,  4-C ) :   1.1726 B(  1-C ,  2-C ) :   1.5629
B(  1-C ,  4-C ) :   0.1075 B(  1-C , 32-H ) :   0.9739 B(  2-C ,  3-C ) :   1.2800
B(  2-C ,  6-C ) :   1.0219 B(  3-C ,  4-C ) :   1.5223 B(  3-C ,  5-H ) :   0.9819
B(  4-C , 20-C ) :   1.0502 B(  6-C ,  7-H ) :   0.9425 B(  6-C ,  8-H ) :   0.9375
B(  6-C ,  9-C ) :   1.0755 B(  9-C , 10-H ) :   0.9543 B(  9-C , 11-H ) :   0.9549
B(  9-C , 12-C ) :   1.0756 B( 12-C , 13-H ) :   0.9720 B( 12-C , 14-H ) :   0.9728
B( 12-C , 15-H ) :   0.9726 B( 16-S , 17-C ) :   1.1723 B( 16-S , 20-C ) :   1.1504
B( 17-C , 18-C ) :   1.5883 B( 17-C , 33-H ) :   0.9652 B( 18-C , 19-C ) :   1.2599
B( 18-C , 21-H ) :   0.9781 B( 19-C , 20-C ) :   1.6079 B( 19-C , 22-C ) :   1.0301
B( 22-C , 23-H ) :   0.9229 B( 22-C , 24-H ) :   0.9311 B( 22-C , 25-C ) :   1.0721
B( 25-C , 26-H ) :   0.9439 B( 25-C , 27-H ) :   0.9453 B( 25-C , 28-C ) :   1.0889
B( 28-C , 29-H ) :   0.9718 B( 28-C , 30-H ) :   0.9716 B( 28-C , 31-H ) :   0.9740

Dispersion correction           -0.014454312
FINAL SINGLE POINT ENERGY     -1339.872435308477

DIPOLE MOMENT
-------------
                                X             Y             Z
Electronic contribution:      1.94783      -0.86561      30.28185
Nuclear contribution   :     -1.92664       0.69201     -30.90974
                        -----------------------------------------
Total Dipole Moment    :      0.02119      -0.17360      -0.62789
                        -----------------------------------------
Magnitude (a.u.)       :      0.65179
Magnitude (Debye)      :      1.65672

Rotational constants in cm-1:     0.018591     0.009208     0.006752
Rotational constants in MHz :   557.352679   276.034377   202.429403

                             ****ORCA TERMINATED NORMALLY****
TOTAL RUN TIME: 0 days 0 hours 0 minutes 30 seconds 474 msec
