                         Program Version 4.2.1 -  RELEASE  -
|  1> ! wB97X-D3 SP def2-SVP
|  2> %pal
|  3> nprocs 16
|  4> end
|  5>
|  6> * xyz 0 1
|  7> S 	 7.21167 	 -11.8621 	 78.6063
|  8> C 	 5.6727 	 -12.1571 	 79.1768
|  9> C 	 4.92527 	 -12.8317 	 78.2461
| 10> C 	 5.69461 	 -13.0394 	 77.0412
| 11> C 	 7.02774 	 -12.7528 	 77.165
| 12> H 	 5.32991 	 -13.3885 	 76.1075
| 13> C 	 3.46287 	 -13.0364 	 78.3388
| 14> H 	 3.2024 	 -13.1061 	 79.4175
| 15> H 	 3.27894 	 -14.0095 	 77.9885
| 16> C 	 2.60238 	 -12.0064 	 77.5733
| 17> H 	 2.62176 	 -11.0725 	 78.0887
| 18> H 	 2.88271 	 -11.8652 	 76.5407
| 19> C 	 1.12828 	 -12.5116 	 77.519
| 20> H 	 0.880349 	 -12.7721 	 78.5083
| 21> H 	 0.339164 	 -11.8289 	 77.2208
| 22> H 	 0.971672 	 -13.3818 	 76.92
| 23> S 	 8.6305 	 -11.1324 	 75.5765
| 24> C 	 9.41177 	 -11.8492 	 74.2532
| 25> C 	 9.43552 	 -13.1975 	 74.2573
| 26> C 	 8.71521 	 -13.7941 	 75.336
| 27> C 	 8.14179 	 -12.7899 	 76.1355
| 28> H 	 9.96074 	 -13.7275 	 73.488
| 29> C 	 8.61103 	 -15.2704 	 75.5152
| 30> H 	 9.03008 	 -15.9652 	 74.8024
| 31> H 	 7.55424 	 -15.4511 	 75.3558
| 32> C 	 8.95545 	 -15.82 	 76.9019
| 33> H 	 8.29321 	 -15.3664 	 77.6325
| 34> H 	 9.9577 	 -15.4483 	 77.2204
| 35> C 	 8.93708 	 -17.3504 	 76.8412
| 36> H 	 7.96649 	 -17.7028 	 76.7384
| 37> H 	 9.36596 	 -17.8137 	 77.6963
| 38> H 	 9.39205 	 -17.7391 	 75.887
| 39> H 	 5.17355 	 -11.8049 	 80.062
| 40> H 	 9.77778 	 -11.3776 	 73.3406
| 41> *
| 42>
| 43>                          ****END OF INPUT****

CARTESIAN COORDINATES (ANGSTROEM)
---------------------------------
  S      7.211670  -11.862100   78.606300
  C      5.672700  -12.157100   79.176800
  C      4.925270  -12.831700   78.246100
  C      5.694610  -13.039400   77.041200
  C      7.027740  -12.752800   77.165000
  H      5.329910  -13.388500   76.107500
  C      3.462870  -13.036400   78.338800
  H      3.202400  -13.106100   79.417500
  H      3.278940  -14.009500   77.988500
  C      2.602380  -12.006400   77.573300
  H      2.621760  -11.072500   78.088700
  H      2.882710  -11.865200   76.540700
  C      1.128280  -12.511600   77.519000
  H      0.880349  -12.772100   78.508300
  H      0.339164  -11.828900   77.220800
  H      0.971672  -13.381800   76.920000
  S      8.630500  -11.132400   75.576500
  C      9.411770  -11.849200   74.253200
  C      9.435520  -13.197500   74.257300
  C      8.715210  -13.794100   75.336000
  C      8.141790  -12.789900   76.135500
  H      9.960740  -13.727500   73.488000
  C      8.611030  -15.270400   75.515200
  H      9.030080  -15.965200   74.802400
  H      7.554240  -15.451100   75.355800
  C      8.955450  -15.820000   76.901900
  H      8.293210  -15.366400   77.632500
  H      9.957700  -15.448300   77.220400
  C      8.937080  -17.350400   76.841200
  H      7.966490  -17.702800   76.738400
  H      9.365960  -17.813700   77.696300
  H      9.392050  -17.739100   75.887000
  H      5.173550  -11.804900   80.062000
  H      9.777780  -11.377600   73.340600

 Total Charge           Charge          ....    0
 Multiplicity           Mult            ....    1
 Number of Electrons    NEL             ....  134
 Basis Dimension        Dim             ....  322

ORBITAL ENERGIES
----------------

  NO   OCC          E(Eh)            E(eV)
   0   2.0000     -88.966347     -2420.8974
   1   2.0000     -88.960118     -2420.7279
   2   2.0000     -10.335107      -281.2326
   3   2.0000     -10.326621      -281.0016
   4   2.0000     -10.310312      -280.5579
   5   2.0000     -10.309910      -280.5469
   6   2.0000     -10.303386      -280.3694
   7   2.0000     -10.293000      -280.0868
   8   2.0000     -10.288536      -279.9653
   9   2.0000     -10.288043      -279.9519
  10   2.0000     -10.287604      -279.9399
  11   2.0000     -10.287071      -279.9254
  12   2.0000     -10.285594      -279.8852
  13   2.0000     -10.283485      -279.8279
  14   2.0000     -10.272504      -279.5290
  15   2.0000     -10.270308      -279.4693
  16   2.0000      -8.081196      -219.9005
  17   2.0000      -8.077275      -219.7938
  18   2.0000      -6.039610      -164.3461
  19   2.0000      -6.035817      -164.2429
  20   2.0000      -6.035636      -164.2380
  21   2.0000      -6.031900      -164.1363
  22   2.0000      -6.031306      -164.1202
  23   2.0000      -6.028177      -164.0350
  24   2.0000      -1.014679       -27.6108
  25   2.0000      -0.991605       -26.9829
  26   2.0000      -0.914428       -24.8828
  27   2.0000      -0.914130       -24.8747
  28   2.0000      -0.867096       -23.5949
  29   2.0000      -0.854814       -23.2607
  30   2.0000      -0.847733       -23.0680
  31   2.0000      -0.818452       -22.2712
  32   2.0000      -0.784107       -21.3366
  33   2.0000      -0.771791       -21.0015
  34   2.0000      -0.713482       -19.4148
  35   2.0000      -0.707625       -19.2555
  36   2.0000      -0.689507       -18.7624
  37   2.0000      -0.657581       -17.8937
  38   2.0000      -0.644524       -17.5384
  39   2.0000      -0.621977       -16.9248
  40   2.0000      -0.603814       -16.4306
  41   2.0000      -0.573930       -15.6174
  42   2.0000      -0.564406       -15.3583
  43   2.0000      -0.559211       -15.2169
  44   2.0000      -0.528183       -14.3726
  45   2.0000      -0.523305       -14.2398
  46   2.0000      -0.519446       -14.1348
  47   2.0000      -0.512366       -13.9422
  48   2.0000      -0.501654       -13.6507
  49   2.0000      -0.500649       -13.6234
  50   2.0000      -0.497209       -13.5297
  51   2.0000      -0.482516       -13.1299
  52   2.0000      -0.468942       -12.7606
  53   2.0000      -0.459566       -12.5054
  54   2.0000      -0.457241       -12.4422
  55   2.0000      -0.453632       -12.3439
  56   2.0000      -0.445766       -12.1299
  57   2.0000      -0.439929       -11.9711
  58   2.0000      -0.435942       -11.8626
  59   2.0000      -0.434162       -11.8142
  60   2.0000      -0.427303       -11.6275
  61   2.0000      -0.416848       -11.3430
  62   2.0000      -0.407985       -11.1018
  63   2.0000      -0.343747        -9.3538
  64   2.0000      -0.331507        -9.0208
  65   2.0000      -0.322149        -8.7661
  66   2.0000      -0.296420        -8.0660
  67   0.0000       0.039704         1.0804
  68   0.0000       0.062687         1.7058
  69   0.0000       0.116021         3.1571
  70   0.0000       0.123427         3.3586
  71   0.0000       0.135957         3.6996

MULLIKEN ATOMIC CHARGES
-----------------------
   0 S :    0.109550
   1 C :   -0.080219
   2 C :   -0.123873
   3 C :    0.038477
   4 C :   -0.158695
   5 H :   -0.004224
   6 C :    0.072016
   7 H :    0.020880
   8 H :    0.006821
   9 C :   -0.031655
  10 H :    0.025655
  11 H :    0.033766
  12 C :   -0.039477
  13 H :    0.006618
  14 H :    0.030367
  15 H :    0.024214
  16 S :    0.115013
  17 C :   -0.066480
  18 C :   -0.056475
  19 C :    0.011634
  20 C :   -0.170191
  21 H :    0.007548
  22 C :    0.063876
  23 H :    0.005701
  24 H :    0.022883
  25 C :   -0.082936
  26 H :    0.041839
  27 H :    0.032690
  28 C :   -0.010887
  29 H :    0.007653
  30 H :    0.034337
  31 H :    0.023816
  32 H :    0.035598
  33 H :    0.054159
Sum of atomic charges:   -0.0000000

LOEWDIN ATOMIC CHARGES
----------------------
   0 S :    0.450632
   1 C :   -0.221300
   2 C :   -0.071325
   3 C :   -0.060816
   4 C :   -0.217325
   5 H :    0.022801
   6 C :   -0.032335
   7 H :    0.034422
   8 H :    0.022904
   9 C :   -0.024242
  10 H :    0.022945
  11 H :    0.024340
  12 C :   -0.064840
  13 H :    0.015968
  14 H :    0.025908
  15 H :    0.020659
  16 S :    0.404140
  17 C :   -0.198517
  18 C :   -0.077753
  19 C :   -0.039053
  20 C :   -0.185031
  21 H :    0.029020
  22 C :   -0.038913
  23 H :    0.027170
  24 H :    0.037411
  25 C :   -0.035487
  26 H :    0.026344
  27 H :    0.025654
  28 C :   -0.059901
  29 H :    0.016307
  30 H :    0.024070
  31 H :    0.030251
  32 H :    0.030372
  33 H :    0.035519

  Mayer bond orders larger than 0.100000
B(  0-S ,  1-C ) :   1.1633 B(  0-S ,  4-C ) :   1.1719 B(  1-C ,  2-C ) :   1.5886
B(  1-C , 32-H ) :   0.9677 B(  2-C ,  3-C ) :   1.2482 B(  2-C ,  6-C ) :   1.0463
B(  3-C ,  4-C ) :   1.5703 B(  3-C ,  5-H ) :   1.0032 B(  4-C , 20-C ) :   0.9800
B(  6-C ,  7-H ) :   0.9338 B(  6-C ,  8-H ) :   0.9317 B(  6-C ,  9-C ) :   1.0569
B(  9-C , 10-H ) :   0.9558 B(  9-C , 11-H ) :   0.9617 B(  9-C , 12-C ) :   1.0720
B( 12-C , 13-H ) :   0.9729 B( 12-C , 14-H ) :   0.9752 B( 12-C , 15-H ) :   0.9781
B( 16-S , 17-C ) :   1.1590 B( 16-S , 20-C ) :   1.1299 B( 17-C , 18-C ) :   1.6373
B( 17-C , 33-H ) :   0.9553 B( 18-C , 19-C ) :   1.2312 B( 18-C , 21-H ) :   0.9953
B( 19-C , 20-C ) :   1.6115 B( 19-C , 22-C ) :   1.0293 B( 22-C , 23-H ) :   0.9459
B( 22-C , 24-H ) :   0.9156 B( 22-C , 25-C ) :   1.0580 B( 25-C , 26-H ) :   0.9506
B( 25-C , 27-H ) :   0.9617 B( 25-C , 28-C ) :   1.0796 B( 28-C , 29-H ) :   0.9717
B( 28-C , 30-H ) :   0.9737 B( 28-C , 31-H ) :   0.9714

Dispersion correction           -0.013728735
FINAL SINGLE POINT ENERGY     -1339.861856189372

DIPOLE MOMENT
-------------
                                X             Y             Z
Electronic contribution:     16.72506      18.24788      -0.32390
Nuclear contribution   :    -17.18903     -18.64403      -0.01083
                        -----------------------------------------
Total Dipole Moment    :     -0.46397      -0.39615      -0.33473
                        -----------------------------------------
Magnitude (a.u.)       :      0.69588
Magnitude (Debye)      :      1.76878

Rotational constants in cm-1:     0.017980     0.007938     0.006806
Rotational constants in MHz :   539.034856   237.980119   204.028279

                             ****ORCA TERMINATED NORMALLY****
TOTAL RUN TIME: 0 days 0 hours 0 minutes 29 seconds 602 msec
