                         Program Version 4.2.1 -  RELEASE  -
|  1> ! wB97X-D3 SP def2-SVP
|  2> %pal
|  3> nprocs 16
|  4> end
|  5>
|  6> * xyz 0 1
|  7> S 	 -25.2002 	 48.7692 	 68.6659
|  8> C 	 -24.5444 	 49.2678 	 67.117
|  9> C 	 -23.2266 	 49.7118 	 67.2662
| 10> C 	 -22.7697 	 49.6331 	 68.6265
| 11> C 	 -23.6205 	 48.8596 	 69.4085
| 12> H 	 -21.9042 	 50.0886 	 69.1214
| 13> C 	 -22.4745 	 50.6717 	 66.2655
| 14> H 	 -22.5456 	 51.6826 	 66.6254
| 15> H 	 -22.9085 	 50.6153 	 65.3011
| 16> C 	 -20.9531 	 50.6509 	 66.2531
| 17> H 	 -20.6111 	 51.4783 	 65.5777
| 18> H 	 -20.491 	 50.9471 	 67.2333
| 19> C 	 -20.4142 	 49.2084 	 65.841
| 20> H 	 -20.7736 	 48.9861 	 64.8197
| 21> H 	 -19.2845 	 49.16 	 65.8129
| 22> H 	 -20.8367 	 48.4145 	 66.4179
| 23> S 	 -24.0986 	 49.3174 	 72.0356
| 24> C 	 -22.8922 	 48.8432 	 73.1691
| 25> C 	 -21.9458 	 48.082 	 72.5392
| 26> C 	 -22.2068 	 47.7012 	 71.1615
| 27> C 	 -23.3415 	 48.4137 	 70.7423
| 28> H 	 -21.0239 	 47.8627 	 73.0887
| 29> C 	 -21.2685 	 46.8542 	 70.2874
| 30> H 	 -21.1209 	 47.3276 	 69.3383
| 31> H 	 -21.7758 	 45.9004 	 70.1204
| 32> C 	 -19.8606 	 46.5195 	 70.9403
| 33> H 	 -19.9424 	 46.0765 	 71.8713
| 34> H 	 -19.2928 	 47.4006 	 71.0667
| 35> C 	 -19.0605 	 45.5583 	 70.1741
| 36> H 	 -18.7479 	 45.834 	 69.1574
| 37> H 	 -19.655 	 44.6274 	 70.3017
| 38> H 	 -18.1201 	 45.3466 	 70.6864
| 39> H 	 -25.0001 	 49.571 	 66.1503
| 40> H 	 -22.8423 	 49.2906 	 74.1805
| 41> *
| 42>
| 43>                          ****END OF INPUT****

CARTESIAN COORDINATES (ANGSTROEM)
---------------------------------
  S    -25.200200   48.769200   68.665900
  C    -24.544400   49.267800   67.117000
  C    -23.226600   49.711800   67.266200
  C    -22.769700   49.633100   68.626500
  C    -23.620500   48.859600   69.408500
  H    -21.904200   50.088600   69.121400
  C    -22.474500   50.671700   66.265500
  H    -22.545600   51.682600   66.625400
  H    -22.908500   50.615300   65.301100
  C    -20.953100   50.650900   66.253100
  H    -20.611100   51.478300   65.577700
  H    -20.491000   50.947100   67.233300
  C    -20.414200   49.208400   65.841000
  H    -20.773600   48.986100   64.819700
  H    -19.284500   49.160000   65.812900
  H    -20.836700   48.414500   66.417900
  S    -24.098600   49.317400   72.035600
  C    -22.892200   48.843200   73.169100
  C    -21.945800   48.082000   72.539200
  C    -22.206800   47.701200   71.161500
  C    -23.341500   48.413700   70.742300
  H    -21.023900   47.862700   73.088700
  C    -21.268500   46.854200   70.287400
  H    -21.120900   47.327600   69.338300
  H    -21.775800   45.900400   70.120400
  C    -19.860600   46.519500   70.940300
  H    -19.942400   46.076500   71.871300
  H    -19.292800   47.400600   71.066700
  C    -19.060500   45.558300   70.174100
  H    -18.747900   45.834000   69.157400
  H    -19.655000   44.627400   70.301700
  H    -18.120100   45.346600   70.686400
  H    -25.000100   49.571000   66.150300
  H    -22.842300   49.290600   74.180500

 Total Charge           Charge          ....    0
 Multiplicity           Mult            ....    1
 Number of Electrons    NEL             ....  134
 Basis Dimension        Dim             ....  322

ORBITAL ENERGIES
----------------

  NO   OCC          E(Eh)            E(eV)
   0   2.0000     -88.967452     -2420.9274
   1   2.0000     -88.963132     -2420.8099
   2   2.0000     -10.325713      -280.9769
   3   2.0000     -10.323180      -280.9080
   4   2.0000     -10.317801      -280.7617
   5   2.0000     -10.316938      -280.7382
   6   2.0000     -10.312775      -280.6249
   7   2.0000     -10.305373      -280.4234
   8   2.0000     -10.297885      -280.2197
   9   2.0000     -10.297233      -280.2020
  10   2.0000     -10.296012      -280.1687
  11   2.0000     -10.294863      -280.1375
  12   2.0000     -10.291772      -280.0533
  13   2.0000     -10.280524      -279.7473
  14   2.0000     -10.277582      -279.6672
  15   2.0000     -10.277260      -279.6585
  16   2.0000      -8.081842      -219.9181
  17   2.0000      -8.078795      -219.8352
  18   2.0000      -6.040441      -164.3688
  19   2.0000      -6.037227      -164.2813
  20   2.0000      -6.036573      -164.2635
  21   2.0000      -6.033130      -164.1698
  22   2.0000      -6.032351      -164.1486
  23   2.0000      -6.029610      -164.0740
  24   2.0000      -1.008236       -27.4355
  25   2.0000      -0.982568       -26.7370
  26   2.0000      -0.914545       -24.8860
  27   2.0000      -0.906404       -24.6645
  28   2.0000      -0.871348       -23.7106
  29   2.0000      -0.856009       -23.2932
  30   2.0000      -0.837205       -22.7815
  31   2.0000      -0.809677       -22.0324
  32   2.0000      -0.783999       -21.3337
  33   2.0000      -0.773745       -21.0547
  34   2.0000      -0.706773       -19.2323
  35   2.0000      -0.701623       -19.0921
  36   2.0000      -0.689352       -18.7582
  37   2.0000      -0.648903       -17.6576
  38   2.0000      -0.634379       -17.2623
  39   2.0000      -0.617150       -16.7935
  40   2.0000      -0.599647       -16.3172
  41   2.0000      -0.583458       -15.8767
  42   2.0000      -0.560023       -15.2390
  43   2.0000      -0.546264       -14.8646
  44   2.0000      -0.535060       -14.5597
  45   2.0000      -0.529075       -14.3969
  46   2.0000      -0.517902       -14.0928
  47   2.0000      -0.507299       -13.8043
  48   2.0000      -0.506276       -13.7765
  49   2.0000      -0.500106       -13.6086
  50   2.0000      -0.486047       -13.2260
  51   2.0000      -0.480176       -13.0663
  52   2.0000      -0.470080       -12.7915
  53   2.0000      -0.465754       -12.6738
  54   2.0000      -0.460016       -12.5177
  55   2.0000      -0.451882       -12.2963
  56   2.0000      -0.449493       -12.2313
  57   2.0000      -0.435276       -11.8445
  58   2.0000      -0.432466       -11.7680
  59   2.0000      -0.424226       -11.5438
  60   2.0000      -0.418373       -11.3845
  61   2.0000      -0.415103       -11.2955
  62   2.0000      -0.410670       -11.1749
  63   2.0000      -0.337130        -9.1738
  64   2.0000      -0.327064        -8.8999
  65   2.0000      -0.325058        -8.8453
  66   2.0000      -0.295121        -8.0306
  67   0.0000       0.028762         0.7827
  68   0.0000       0.059207         1.6111
  69   0.0000       0.100522         2.7353
  70   0.0000       0.126989         3.4556
  71   0.0000       0.129089         3.5127

MULLIKEN ATOMIC CHARGES
-----------------------
   0 S :    0.117152
   1 C :   -0.101259
   2 C :   -0.104865
   3 C :    0.017979
   4 C :   -0.187300
   5 H :    0.034657
   6 C :    0.077701
   7 H :    0.035765
   8 H :    0.016478
   9 C :   -0.120315
  10 H :    0.039448
  11 H :    0.034898
  12 C :   -0.066051
  13 H :    0.023195
  14 H :    0.042744
  15 H :    0.041895
  16 S :    0.106187
  17 C :   -0.098058
  18 C :   -0.066168
  19 C :   -0.044031
  20 C :   -0.146882
  21 H :    0.027927
  22 C :    0.099569
  23 H :    0.032958
  24 H :    0.038006
  25 C :   -0.068269
  26 H :    0.016405
  27 H :    0.017035
  28 C :   -0.041821
  29 H :    0.037920
  30 H :    0.029508
  31 H :    0.024762
  32 H :    0.057484
  33 H :    0.075347
Sum of atomic charges:   -0.0000000

LOEWDIN ATOMIC CHARGES
----------------------
   0 S :    0.407387
   1 C :   -0.213161
   2 C :   -0.066100
   3 C :   -0.060094
   4 C :   -0.199169
   5 H :    0.036690
   6 C :   -0.029546
   7 H :    0.037848
   8 H :    0.021145
   9 C :   -0.046423
  10 H :    0.031301
  11 H :    0.023498
  12 C :   -0.075010
  13 H :    0.025309
  14 H :    0.028846
  15 H :    0.021191
  16 S :    0.416396
  17 C :   -0.200899
  18 C :   -0.080228
  19 C :   -0.041678
  20 C :   -0.211445
  21 H :    0.031867
  22 C :   -0.020589
  23 H :    0.029990
  24 H :    0.038514
  25 C :   -0.038368
  26 H :    0.017193
  27 H :    0.015963
  28 C :   -0.063601
  29 H :    0.024898
  30 H :    0.031088
  31 H :    0.027366
  32 H :    0.040293
  33 H :    0.039532

  Mayer bond orders larger than 0.100000
B(  0-S ,  1-C ) :   1.1336 B(  0-S ,  4-C ) :   1.1456 B(  1-C ,  2-C ) :   1.6228
B(  1-C , 32-H ) :   0.9592 B(  2-C ,  3-C ) :   1.2247 B(  2-C ,  6-C ) :   1.0214
B(  3-C ,  4-C ) :   1.5735 B(  3-C ,  5-H ) :   0.9892 B(  4-C , 20-C ) :   1.0302
B(  6-C ,  7-H ) :   0.9412 B(  6-C ,  8-H ) :   0.9471 B(  6-C ,  9-C ) :   1.0666
B(  9-C , 10-H ) :   0.9561 B(  9-C , 11-H ) :   0.9541 B(  9-C , 12-C ) :   1.0593
B( 12-C , 13-H ) :   0.9744 B( 12-C , 14-H ) :   0.9782 B( 12-C , 15-H ) :   0.9762
B( 16-S , 17-C ) :   1.1570 B( 16-S , 20-C ) :   1.1605 B( 17-C , 18-C ) :   1.6047
B( 17-C , 33-H ) :   0.9621 B( 18-C , 19-C ) :   1.2492 B( 18-C , 21-H ) :   0.9831
B( 19-C , 20-C ) :   1.5735 B( 19-C , 22-C ) :   1.0246 B( 22-C , 23-H ) :   0.9312
B( 22-C , 24-H ) :   0.9295 B( 22-C , 25-C ) :   1.0781 B( 25-C , 26-H ) :   0.9467
B( 25-C , 27-H ) :   0.9501 B( 25-C , 28-C ) :   1.1035 B( 28-C , 29-H ) :   0.9724
B( 28-C , 30-H ) :   0.9745 B( 28-C , 31-H ) :   0.9681

Dispersion correction           -0.014314558
FINAL SINGLE POINT ENERGY     -1339.844997919416

DIPOLE MOMENT
-------------
                                X             Y             Z
Electronic contribution:    -27.87378       5.53720      13.39449
Nuclear contribution   :     28.68322      -5.24039     -13.42383
                        -----------------------------------------
Total Dipole Moment    :      0.80944       0.29681      -0.02934
                        -----------------------------------------
Magnitude (a.u.)       :      0.86264
Magnitude (Debye)      :      2.19266

Rotational constants in cm-1:     0.014843     0.010455     0.007095
Rotational constants in MHz :   444.972415   313.421146   212.692917

                             ****ORCA TERMINATED NORMALLY****
TOTAL RUN TIME: 0 days 0 hours 0 minutes 32 seconds 186 msec
