                         Program Version 4.2.1 -  RELEASE  -
|  1> ! wB97X-D3 SP def2-SVP
|  2> %pal
|  3> nprocs 16
|  4> end
|  5>
|  6> * xyz 0 1
|  7> S 	 -29.4944 	 74.7917 	 159.72
|  8> C 	 -27.9421 	 75.5319 	 159.472
|  9> C 	 -28.0916 	 76.8103 	 159.006
| 10> C 	 -29.4448 	 77.2431 	 158.895
| 11> C 	 -30.3566 	 76.3128 	 159.396
| 12> H 	 -29.7597 	 78.2058 	 158.679
| 13> C 	 -26.9115 	 77.5434 	 158.461
| 14> H 	 -26.1994 	 77.6698 	 159.282
| 15> H 	 -27.13 	 78.5334 	 158.094
| 16> C 	 -26.2485 	 76.9066 	 157.218
| 17> H 	 -25.2923 	 77.4138 	 157.036
| 18> H 	 -25.8003 	 75.884 	 157.413
| 19> C 	 -27.144 	 76.8611 	 155.928
| 20> H 	 -27.2016 	 77.8359 	 155.442
| 21> H 	 -26.7201 	 76.2185 	 155.147
| 22> H 	 -28.1891 	 76.7362 	 156.153
| 23> S 	 -32.3158 	 77.9799 	 160.433
| 24> C 	 -33.9212 	 77.4435 	 160.365
| 25> C 	 -33.9434 	 76.2129 	 159.706
| 26> C 	 -32.7423 	 75.7704 	 159.098
| 27> C 	 -31.7357 	 76.5865 	 159.502
| 28> H 	 -34.8469 	 75.6399 	 159.697
| 29> C 	 -32.7344 	 74.3174 	 158.571
| 30> H 	 -31.7954 	 74.1048 	 158.106
| 31> H 	 -33.4047 	 74.4826 	 157.763
| 32> C 	 -33.3007 	 73.2066 	 159.479
| 33> H 	 -33.2351 	 72.3312 	 158.796
| 34> H 	 -34.3537 	 73.4205 	 159.671
| 35> C 	 -32.5698 	 72.8563 	 160.777
| 36> H 	 -32.9383 	 71.8156 	 160.997
| 37> H 	 -32.7428 	 73.625 	 161.51
| 38> H 	 -31.4081 	 72.795 	 160.607
| 39> H 	 -26.9688 	 75.0083 	 159.529
| 40> H 	 -34.72 	 77.8563 	 160.943
| 41> *
| 42>
| 43>                          ****END OF INPUT****

CARTESIAN COORDINATES (ANGSTROEM)
---------------------------------
  S    -29.494400   74.791700  159.720000
  C    -27.942100   75.531900  159.472000
  C    -28.091600   76.810300  159.006000
  C    -29.444800   77.243100  158.895000
  C    -30.356600   76.312800  159.396000
  H    -29.759700   78.205800  158.679000
  C    -26.911500   77.543400  158.461000
  H    -26.199400   77.669800  159.282000
  H    -27.130000   78.533400  158.094000
  C    -26.248500   76.906600  157.218000
  H    -25.292300   77.413800  157.036000
  H    -25.800300   75.884000  157.413000
  C    -27.144000   76.861100  155.928000
  H    -27.201600   77.835900  155.442000
  H    -26.720100   76.218500  155.147000
  H    -28.189100   76.736200  156.153000
  S    -32.315800   77.979900  160.433000
  C    -33.921200   77.443500  160.365000
  C    -33.943400   76.212900  159.706000
  C    -32.742300   75.770400  159.098000
  C    -31.735700   76.586500  159.502000
  H    -34.846900   75.639900  159.697000
  C    -32.734400   74.317400  158.571000
  H    -31.795400   74.104800  158.106000
  H    -33.404700   74.482600  157.763000
  C    -33.300700   73.206600  159.479000
  H    -33.235100   72.331200  158.796000
  H    -34.353700   73.420500  159.671000
  C    -32.569800   72.856300  160.777000
  H    -32.938300   71.815600  160.997000
  H    -32.742800   73.625000  161.510000
  H    -31.408100   72.795000  160.607000
  H    -26.968800   75.008300  159.529000
  H    -34.720000   77.856300  160.943000

 Total Charge           Charge          ....    0
 Multiplicity           Mult            ....    1
 Number of Electrons    NEL             ....  134
 Basis Dimension        Dim             ....  322

ORBITAL ENERGIES
----------------

  NO   OCC          E(Eh)            E(eV)
   0   2.0000     -88.968729     -2420.9622
   1   2.0000     -88.965937     -2420.8862
   2   2.0000     -10.325546      -280.9724
   3   2.0000     -10.319360      -280.8041
   4   2.0000     -10.313292      -280.6389
   5   2.0000     -10.312076      -280.6059
   6   2.0000     -10.295953      -280.1671
   7   2.0000     -10.294711      -280.1333
   8   2.0000     -10.293027      -280.0875
   9   2.0000     -10.291716      -280.0518
  10   2.0000     -10.289163      -279.9824
  11   2.0000     -10.289021      -279.9785
  12   2.0000     -10.288399      -279.9616
  13   2.0000     -10.287170      -279.9281
  14   2.0000     -10.285772      -279.8901
  15   2.0000     -10.277043      -279.6526
  16   2.0000      -8.082298      -219.9305
  17   2.0000      -8.081306      -219.9035
  18   2.0000      -6.040929      -164.3820
  19   2.0000      -6.039774      -164.3506
  20   2.0000      -6.036926      -164.2731
  21   2.0000      -6.035714      -164.2401
  22   2.0000      -6.033054      -164.1678
  23   2.0000      -6.032068      -164.1409
  24   2.0000      -1.011119       -27.5139
  25   2.0000      -0.987005       -26.8578
  26   2.0000      -0.910729       -24.7822
  27   2.0000      -0.907114       -24.6838
  28   2.0000      -0.872827       -23.7508
  29   2.0000      -0.851867       -23.1805
  30   2.0000      -0.842396       -22.9228
  31   2.0000      -0.808807       -22.0087
  32   2.0000      -0.788839       -21.4654
  33   2.0000      -0.773332       -21.0434
  34   2.0000      -0.707688       -19.2572
  35   2.0000      -0.702978       -19.1290
  36   2.0000      -0.692894       -18.8546
  37   2.0000      -0.662200       -18.0194
  38   2.0000      -0.641068       -17.4444
  39   2.0000      -0.607729       -16.5371
  40   2.0000      -0.598997       -16.2995
  41   2.0000      -0.573168       -15.5967
  42   2.0000      -0.555879       -15.1262
  43   2.0000      -0.549099       -14.9417
  44   2.0000      -0.544463       -14.8156
  45   2.0000      -0.529274       -14.4023
  46   2.0000      -0.521842       -14.2000
  47   2.0000      -0.508953       -13.8493
  48   2.0000      -0.501575       -13.6486
  49   2.0000      -0.499069       -13.5804
  50   2.0000      -0.489603       -13.3228
  51   2.0000      -0.480076       -13.0635
  52   2.0000      -0.472644       -12.8613
  53   2.0000      -0.464292       -12.6340
  54   2.0000      -0.460876       -12.5411
  55   2.0000      -0.444330       -12.0908
  56   2.0000      -0.441167       -12.0048
  57   2.0000      -0.437803       -11.9132
  58   2.0000      -0.433728       -11.8023
  59   2.0000      -0.425825       -11.5873
  60   2.0000      -0.415826       -11.3152
  61   2.0000      -0.411055       -11.1854
  62   2.0000      -0.403263       -10.9733
  63   2.0000      -0.347759        -9.4630
  64   2.0000      -0.331403        -9.0179
  65   2.0000      -0.328299        -8.9335
  66   2.0000      -0.288409        -7.8480
  67   0.0000       0.028158         0.7662
  68   0.0000       0.066372         1.8061
  69   0.0000       0.108397         2.9496
  70   0.0000       0.113747         3.0952
  71   0.0000       0.131395         3.5754

MULLIKEN ATOMIC CHARGES
-----------------------
   0 S :    0.105342
   1 C :   -0.124629
   2 C :   -0.067432
   3 C :    0.035342
   4 C :   -0.143151
   5 H :   -0.011872
   6 C :    0.066230
   7 H :    0.036478
   8 H :    0.013497
   9 C :   -0.090452
  10 H :    0.023171
  11 H :    0.019578
  12 C :   -0.043550
  13 H :    0.016643
  14 H :    0.043042
  15 H :    0.039803
  16 S :    0.122173
  17 C :   -0.080916
  18 C :   -0.068019
  19 C :   -0.032504
  20 C :   -0.169452
  21 H :    0.005832
  22 C :    0.079665
  23 H :    0.015456
  24 H :    0.022472
  25 C :   -0.075830
  26 H :    0.037224
  27 H :    0.030006
  28 C :   -0.068943
  29 H :    0.048443
  30 H :    0.049127
  31 H :    0.047291
  32 H :    0.062787
  33 H :    0.057147
Sum of atomic charges:    0.0000000

LOEWDIN ATOMIC CHARGES
----------------------
   0 S :    0.414745
   1 C :   -0.200638
   2 C :   -0.070333
   3 C :   -0.055040
   4 C :   -0.179293
   5 H :    0.017120
   6 C :   -0.034693
   7 H :    0.036256
   8 H :    0.026956
   9 C :   -0.044932
  10 H :    0.023019
  11 H :    0.020358
  12 C :   -0.070644
  13 H :    0.024543
  14 H :    0.031518
  15 H :    0.027320
  16 S :    0.422798
  17 C :   -0.203683
  18 C :   -0.067661
  19 C :   -0.060269
  20 C :   -0.195898
  21 H :    0.020472
  22 C :   -0.030172
  23 H :    0.018103
  24 H :    0.034859
  25 C :   -0.041884
  26 H :    0.031969
  27 H :    0.022565
  28 C :   -0.074573
  29 H :    0.036267
  30 H :    0.024493
  31 H :    0.029636
  32 H :    0.037635
  33 H :    0.029081

  Mayer bond orders larger than 0.100000
B(  0-S ,  1-C ) :   1.1348 B(  0-S ,  4-C ) :   1.1361 B(  1-C ,  2-C ) :   1.5957
B(  1-C , 32-H ) :   0.9663 B(  2-C ,  3-C ) :   1.2471 B(  2-C ,  6-C ) :   1.0325
B(  3-C ,  4-C ) :   1.5378 B(  3-C ,  5-H ) :   1.0053 B(  4-C , 20-C ) :   1.0952
B(  6-C ,  7-H ) :   0.9327 B(  6-C ,  8-H ) :   0.9467 B(  6-C ,  9-C ) :   1.0744
B(  9-C , 10-H ) :   0.9547 B(  9-C , 11-H ) :   0.9578 B(  9-C , 12-C ) :   1.0568
B( 12-C , 13-H ) :   0.9717 B( 12-C , 14-H ) :   0.9754 B( 12-C , 15-H ) :   0.9794
B( 16-S , 17-C ) :   1.1587 B( 16-S , 20-C ) :   1.1434 B( 17-C , 18-C ) :   1.5925
B( 17-C , 33-H ) :   0.9722 B( 18-C , 19-C ) :   1.2321 B( 18-C , 21-H ) :   0.9912
B( 19-C , 20-C ) :   1.5627 B( 19-C , 22-C ) :   1.0306 B( 22-C , 23-H ) :   0.9352
B( 22-C , 24-H ) :   0.9189 B( 22-C , 25-C ) :   1.0801 B( 25-C , 26-H ) :   0.9526
B( 25-C , 27-H ) :   0.9468 B( 25-C , 28-C ) :   1.0689 B( 28-C , 29-H ) :   0.9713
B( 28-C , 30-H ) :   0.9753 B( 28-C , 31-H ) :   0.9700

Dispersion correction           -0.015314156
FINAL SINGLE POINT ENERGY     -1339.863264232665

DIPOLE MOMENT
-------------
                                X             Y             Z
Electronic contribution:     -7.30581       8.54212      10.63219
Nuclear contribution   :      7.31725      -8.69621     -10.80999
                        -----------------------------------------
Total Dipole Moment    :      0.01144      -0.15409      -0.17779
                        -----------------------------------------
Magnitude (a.u.)       :      0.23556
Magnitude (Debye)      :      0.59874

Rotational constants in cm-1:     0.022511     0.008451     0.007126
Rotational constants in MHz :   674.860806   253.340596   213.635450

                             ****ORCA TERMINATED NORMALLY****
TOTAL RUN TIME: 0 days 0 hours 0 minutes 37 seconds 60 msec
