                         Program Version 4.2.1 -  RELEASE  -
|  1> ! wB97X-D3 SP def2-SVP
|  2> %pal
|  3> nprocs 16
|  4> end
|  5>
|  6> * xyz 0 1
|  7> S 	 -36.2765 	 23.9328 	 79.1535
|  8> C 	 -37.7425 	 24.756 	 78.72
|  9> C 	 -38.4663 	 24.0029 	 77.8109
| 10> C 	 -37.7074 	 22.8386 	 77.3513
| 11> C 	 -36.5881 	 22.5781 	 78.0885
| 12> H 	 -38.1032 	 22.2344 	 76.6037
| 13> C 	 -39.7725 	 24.4165 	 77.1736
| 14> H 	 -39.8964 	 24.2047 	 76.0643
| 15> H 	 -39.876 	 25.4704 	 77.4066
| 16> C 	 -40.9542 	 23.7054 	 77.8046
| 17> H 	 -41.7894 	 24.0019 	 77.0894
| 18> H 	 -40.853 	 22.6322 	 77.7409
| 19> C 	 -41.1997 	 24.086 	 79.2677
| 20> H 	 -40.362 	 23.8651 	 79.9002
| 21> H 	 -41.4051 	 25.1191 	 79.4147
| 22> H 	 -42.1447 	 23.5727 	 79.5953
| 23> S 	 -34.1164 	 21.886 	 77.1792
| 24> C 	 -33.7207 	 20.2418 	 76.7447
| 25> C 	 -34.8182 	 19.4493 	 77.1053
| 26> C 	 -35.9058 	 20.1555 	 77.7136
| 27> C 	 -35.6777 	 21.4929 	 77.8009
| 28> H 	 -34.9299 	 18.3722 	 77.0573
| 29> C 	 -37.0597 	 19.4104 	 78.336
| 30> H 	 -37.699 	 18.8262 	 77.6201
| 31> H 	 -37.6679 	 20.1357 	 78.7971
| 32> C 	 -36.7445 	 18.4933 	 79.4841
| 33> H 	 -35.9676 	 18.9381 	 80.1491
| 34> H 	 -36.3574 	 17.6151 	 78.9278
| 35> C 	 -37.9727 	 18.0868 	 80.394
| 36> H 	 -37.6595 	 17.7518 	 81.3459
| 37> H 	 -38.5265 	 17.3681 	 79.8736
| 38> H 	 -38.7205 	 18.885 	 80.598
| 39> H 	 -37.9743 	 25.7191 	 79.0647
| 40> H 	 -32.8583 	 19.8075 	 76.2847
| 41> *
| 42>
| 43>                          ****END OF INPUT****

CARTESIAN COORDINATES (ANGSTROEM)
---------------------------------
  S    -36.276500   23.932800   79.153500
  C    -37.742500   24.756000   78.720000
  C    -38.466300   24.002900   77.810900
  C    -37.707400   22.838600   77.351300
  C    -36.588100   22.578100   78.088500
  H    -38.103200   22.234400   76.603700
  C    -39.772500   24.416500   77.173600
  H    -39.896400   24.204700   76.064300
  H    -39.876000   25.470400   77.406600
  C    -40.954200   23.705400   77.804600
  H    -41.789400   24.001900   77.089400
  H    -40.853000   22.632200   77.740900
  C    -41.199700   24.086000   79.267700
  H    -40.362000   23.865100   79.900200
  H    -41.405100   25.119100   79.414700
  H    -42.144700   23.572700   79.595300
  S    -34.116400   21.886000   77.179200
  C    -33.720700   20.241800   76.744700
  C    -34.818200   19.449300   77.105300
  C    -35.905800   20.155500   77.713600
  C    -35.677700   21.492900   77.800900
  H    -34.929900   18.372200   77.057300
  C    -37.059700   19.410400   78.336000
  H    -37.699000   18.826200   77.620100
  H    -37.667900   20.135700   78.797100
  C    -36.744500   18.493300   79.484100
  H    -35.967600   18.938100   80.149100
  H    -36.357400   17.615100   78.927800
  C    -37.972700   18.086800   80.394000
  H    -37.659500   17.751800   81.345900
  H    -38.526500   17.368100   79.873600
  H    -38.720500   18.885000   80.598000
  H    -37.974300   25.719100   79.064700
  H    -32.858300   19.807500   76.284700

 Total Charge           Charge          ....    0
 Multiplicity           Mult            ....    1
 Number of Electrons    NEL             ....  134
 Basis Dimension        Dim             ....  322

ORBITAL ENERGIES
----------------

  NO   OCC          E(Eh)            E(eV)
   0   2.0000     -88.965752     -2420.8812
   1   2.0000     -88.965215     -2420.8666
   2   2.0000     -10.328579      -281.0549
   3   2.0000     -10.322573      -280.8915
   4   2.0000     -10.320930      -280.8468
   5   2.0000     -10.313450      -280.6432
   6   2.0000     -10.302143      -280.3356
   7   2.0000     -10.297220      -280.2016
   8   2.0000     -10.293928      -280.1120
   9   2.0000     -10.293658      -280.1047
  10   2.0000     -10.291007      -280.0325
  11   2.0000     -10.289186      -279.9830
  12   2.0000     -10.287738      -279.9436
  13   2.0000     -10.284388      -279.8524
  14   2.0000     -10.275535      -279.6115
  15   2.0000     -10.274104      -279.5726
  16   2.0000      -8.080873      -219.8917
  17   2.0000      -8.080264      -219.8752
  18   2.0000      -6.039479      -164.3426
  19   2.0000      -6.038895      -164.3267
  20   2.0000      -6.035109      -164.2237
  21   2.0000      -6.034617      -164.2103
  22   2.0000      -6.031696      -164.1308
  23   2.0000      -6.030992      -164.1116
  24   2.0000      -1.012021       -27.5385
  25   2.0000      -0.987383       -26.8681
  26   2.0000      -0.915855       -24.9217
  27   2.0000      -0.911212       -24.7953
  28   2.0000      -0.873516       -23.7696
  29   2.0000      -0.848542       -23.0900
  30   2.0000      -0.842483       -22.9251
  31   2.0000      -0.815357       -22.1870
  32   2.0000      -0.783996       -21.3336
  33   2.0000      -0.778470       -21.1832
  34   2.0000      -0.708700       -19.2847
  35   2.0000      -0.697498       -18.9799
  36   2.0000      -0.692231       -18.8366
  37   2.0000      -0.662938       -18.0395
  38   2.0000      -0.647648       -17.6234
  39   2.0000      -0.623913       -16.9775
  40   2.0000      -0.599619       -16.3165
  41   2.0000      -0.572812       -15.5870
  42   2.0000      -0.571625       -15.5547
  43   2.0000      -0.546772       -14.8784
  44   2.0000      -0.541893       -14.7457
  45   2.0000      -0.524136       -14.2625
  46   2.0000      -0.520661       -14.1679
  47   2.0000      -0.519111       -14.1257
  48   2.0000      -0.505126       -13.7452
  49   2.0000      -0.500657       -13.6236
  50   2.0000      -0.492418       -13.3994
  51   2.0000      -0.486058       -13.2263
  52   2.0000      -0.470824       -12.8118
  53   2.0000      -0.467855       -12.7310
  54   2.0000      -0.461245       -12.5511
  55   2.0000      -0.445432       -12.1208
  56   2.0000      -0.443174       -12.0594
  57   2.0000      -0.434544       -11.8246
  58   2.0000      -0.431717       -11.7476
  59   2.0000      -0.425935       -11.5903
  60   2.0000      -0.415087       -11.2951
  61   2.0000      -0.410951       -11.1826
  62   2.0000      -0.409204       -11.1350
  63   2.0000      -0.345885        -9.4120
  64   2.0000      -0.329188        -8.9577
  65   2.0000      -0.325544        -8.8585
  66   2.0000      -0.302512        -8.2318
  67   0.0000       0.034614         0.9419
  68   0.0000       0.068988         1.8773
  69   0.0000       0.113538         3.0895
  70   0.0000       0.126050         3.4300
  71   0.0000       0.127712         3.4752

MULLIKEN ATOMIC CHARGES
-----------------------
   0 S :    0.103384
   1 C :   -0.101192
   2 C :   -0.111322
   3 C :    0.072505
   4 C :   -0.149456
   5 H :   -0.009297
   6 C :    0.054033
   7 H :    0.047045
   8 H :    0.016237
   9 C :   -0.090291
  10 H :    0.034810
  11 H :    0.027808
  12 C :   -0.043426
  13 H :    0.043742
  14 H :    0.013547
  15 H :    0.039293
  16 S :    0.116797
  17 C :   -0.076242
  18 C :   -0.028604
  19 C :   -0.048554
  20 C :   -0.142485
  21 H :    0.012849
  22 C :    0.075976
  23 H :    0.033126
  24 H :    0.001690
  25 C :   -0.113358
  26 H :    0.045162
  27 H :    0.029233
  28 C :   -0.023820
  29 H :    0.032745
  30 H :    0.018230
  31 H :    0.030796
  32 H :    0.033390
  33 H :    0.055649
Sum of atomic charges:   -0.0000000

LOEWDIN ATOMIC CHARGES
----------------------
   0 S :    0.405442
   1 C :   -0.191231
   2 C :   -0.061376
   3 C :   -0.041449
   4 C :   -0.198967
   5 H :    0.020576
   6 C :   -0.037772
   7 H :    0.040727
   8 H :    0.027746
   9 C :   -0.044332
  10 H :    0.029735
  11 H :    0.019812
  12 C :   -0.067052
  13 H :    0.025101
  14 H :    0.017383
  15 H :    0.034507
  16 S :    0.426289
  17 C :   -0.188275
  18 C :   -0.067970
  19 C :   -0.060987
  20 C :   -0.205100
  21 H :    0.027190
  22 C :   -0.038562
  23 H :    0.033415
  24 H :    0.020031
  25 C :   -0.039449
  26 H :    0.029016
  27 H :    0.022756
  28 C :   -0.059218
  29 H :    0.023192
  30 H :    0.017586
  31 H :    0.030174
  32 H :    0.018573
  33 H :    0.032488

  Mayer bond orders larger than 0.100000
B(  0-S ,  1-C ) :   1.1390 B(  0-S ,  4-C ) :   1.1374 B(  1-C ,  2-C ) :   1.6002
B(  1-C , 32-H ) :   0.9768 B(  2-C ,  3-C ) :   1.2375 B(  2-C ,  6-C ) :   1.0309
B(  3-C ,  4-C ) :   1.5754 B(  3-C ,  5-H ) :   1.0030 B(  4-C , 20-C ) :   1.0161
B(  6-C ,  7-H ) :   0.9483 B(  6-C ,  8-H ) :   0.9401 B(  6-C ,  9-C ) :   1.0623
B(  9-C , 10-H ) :   0.9574 B(  9-C , 11-H ) :   0.9568 B(  9-C , 12-C ) :   1.0748
B( 12-C , 13-H ) :   0.9731 B( 12-C , 14-H ) :   0.9743 B( 12-C , 15-H ) :   0.9728
B( 16-S , 17-C ) :   1.1559 B( 16-S , 20-C ) :   1.1493 B( 17-C , 18-C ) :   1.5713
B( 17-C , 33-H ) :   0.9749 B( 18-C , 19-C ) :   1.2685 B( 18-C , 21-H ) :   0.9846
B( 19-C , 20-C ) :   1.6079 B( 19-C , 22-C ) :   1.0528 B( 22-C , 23-H ) :   0.9338
B( 22-C , 24-H ) :   0.9290 B( 22-C , 25-C ) :   1.0561 B( 25-C , 26-H ) :   0.9605
B( 25-C , 27-H ) :   0.9564 B( 25-C , 28-C ) :   1.0750 B( 28-C , 29-H ) :   0.9784
B( 28-C , 30-H ) :   0.9761 B( 28-C , 31-H ) :   0.9759

Dispersion correction           -0.014178079
FINAL SINGLE POINT ENERGY     -1339.872417950618

DIPOLE MOMENT
-------------
                                X             Y             Z
Electronic contribution:     25.50567      10.23183      -6.26929
Nuclear contribution   :    -26.08621     -10.50456       6.12266
                        -----------------------------------------
Total Dipole Moment    :     -0.58053      -0.27273      -0.14664
                        -----------------------------------------
Magnitude (a.u.)       :      0.65795
Magnitude (Debye)      :      1.67239

Rotational constants in cm-1:     0.017762     0.008998     0.006930
Rotational constants in MHz :   532.488605   269.754458   207.741320

                             ****ORCA TERMINATED NORMALLY****
TOTAL RUN TIME: 0 days 0 hours 0 minutes 28 seconds 408 msec
