                         Program Version 4.2.1 -  RELEASE  -
|  1> ! wB97X-D3 SP def2-SVP
|  2> %pal
|  3> nprocs 16
|  4> end
|  5>
|  6> * xyz 0 1
|  7> S 	 -59.4456 	 50.8709 	 135.263
|  8> C 	 -59.0924 	 50.5042 	 136.954
|  9> C 	 -59.8293 	 51.2574 	 137.869
| 10> C 	 -60.6956 	 52.1489 	 137.181
| 11> C 	 -60.5943 	 52.0861 	 135.782
| 12> H 	 -61.3148 	 52.9049 	 137.685
| 13> C 	 -59.7424 	 50.9853 	 139.316
| 14> H 	 -58.6719 	 51.0057 	 139.554
| 15> H 	 -60.1327 	 49.9893 	 139.394
| 16> C 	 -60.4493 	 51.8195 	 140.34
| 17> H 	 -61.4877 	 51.9622 	 140.056
| 18> H 	 -60.5436 	 51.4518 	 141.383
| 19> C 	 -59.8348 	 53.2122 	 140.325
| 20> H 	 -59.8501 	 53.6419 	 139.334
| 21> H 	 -60.4086 	 53.9543 	 140.915
| 22> H 	 -58.8388 	 53.044 	 140.659
| 23> S 	 -62.1271 	 52.2332 	 133.475
| 24> C 	 -62.493 	 53.7891 	 132.742
| 25> C 	 -61.8238 	 54.7654 	 133.399
| 26> C 	 -61.1616 	 54.2973 	 134.621
| 27> C 	 -61.157 	 52.928 	 134.73
| 28> H 	 -61.9906 	 55.8233 	 133.055
| 29> C 	 -60.2974 	 55.2325 	 135.393
| 30> H 	 -59.4511 	 54.7008 	 135.838
| 31> H 	 -60.8482 	 55.5613 	 136.245
| 32> C 	 -59.8421 	 56.5448 	 134.659
| 33> H 	 -60.6803 	 56.9469 	 134.141
| 34> H 	 -59.2209 	 56.2132 	 133.852
| 35> C 	 -59.0888 	 57.5621 	 135.537
| 36> H 	 -58.3335 	 57.1038 	 136.159
| 37> H 	 -59.832 	 57.9653 	 136.188
| 38> H 	 -58.6197 	 58.4057 	 134.882
| 39> H 	 -58.3489 	 49.8055 	 137.273
| 40> H 	 -62.9771 	 53.849 	 131.793
| 41> *
| 42>
| 43>                          ****END OF INPUT****

CARTESIAN COORDINATES (ANGSTROEM)
---------------------------------
  S    -59.445600   50.870900  135.263000
  C    -59.092400   50.504200  136.954000
  C    -59.829300   51.257400  137.869000
  C    -60.695600   52.148900  137.181000
  C    -60.594300   52.086100  135.782000
  H    -61.314800   52.904900  137.685000
  C    -59.742400   50.985300  139.316000
  H    -58.671900   51.005700  139.554000
  H    -60.132700   49.989300  139.394000
  C    -60.449300   51.819500  140.340000
  H    -61.487700   51.962200  140.056000
  H    -60.543600   51.451800  141.383000
  C    -59.834800   53.212200  140.325000
  H    -59.850100   53.641900  139.334000
  H    -60.408600   53.954300  140.915000
  H    -58.838800   53.044000  140.659000
  S    -62.127100   52.233200  133.475000
  C    -62.493000   53.789100  132.742000
  C    -61.823800   54.765400  133.399000
  C    -61.161600   54.297300  134.621000
  C    -61.157000   52.928000  134.730000
  H    -61.990600   55.823300  133.055000
  C    -60.297400   55.232500  135.393000
  H    -59.451100   54.700800  135.838000
  H    -60.848200   55.561300  136.245000
  C    -59.842100   56.544800  134.659000
  H    -60.680300   56.946900  134.141000
  H    -59.220900   56.213200  133.852000
  C    -59.088800   57.562100  135.537000
  H    -58.333500   57.103800  136.159000
  H    -59.832000   57.965300  136.188000
  H    -58.619700   58.405700  134.882000
  H    -58.348900   49.805500  137.273000
  H    -62.977100   53.849000  131.793000

 Total Charge           Charge          ....    0
 Multiplicity           Mult            ....    1
 Number of Electrons    NEL             ....  134
 Basis Dimension        Dim             ....  322

ORBITAL ENERGIES
----------------

  NO   OCC          E(Eh)            E(eV)
   0   2.0000     -88.969649     -2420.9872
   1   2.0000     -88.959116     -2420.7006
   2   2.0000     -10.332366      -281.1580
   3   2.0000     -10.323014      -280.9035
   4   2.0000     -10.314087      -280.6606
   5   2.0000     -10.312240      -280.6103
   6   2.0000     -10.303244      -280.3655
   7   2.0000     -10.302313      -280.3402
   8   2.0000     -10.301379      -280.3148
   9   2.0000     -10.297619      -280.2125
  10   2.0000     -10.290042      -280.0063
  11   2.0000     -10.286936      -279.9218
  12   2.0000     -10.285172      -279.8738
  13   2.0000     -10.284422      -279.8534
  14   2.0000     -10.281941      -279.7858
  15   2.0000     -10.274293      -279.5777
  16   2.0000      -8.083948      -219.9754
  17   2.0000      -8.074531      -219.7192
  18   2.0000      -6.042274      -164.4186
  19   2.0000      -6.038565      -164.3177
  20   2.0000      -6.034877      -164.2174
  21   2.0000      -6.033117      -164.1695
  22   2.0000      -6.028852      -164.0534
  23   2.0000      -6.025263      -163.9557
  24   2.0000      -1.007083       -27.4041
  25   2.0000      -0.984701       -26.7951
  26   2.0000      -0.925572       -25.1861
  27   2.0000      -0.906072       -24.6555
  28   2.0000      -0.873547       -23.7704
  29   2.0000      -0.850686       -23.1483
  30   2.0000      -0.842587       -22.9279
  31   2.0000      -0.820715       -22.3328
  32   2.0000      -0.783780       -21.3277
  33   2.0000      -0.769245       -20.9322
  34   2.0000      -0.713337       -19.4109
  35   2.0000      -0.707717       -19.2580
  36   2.0000      -0.692584       -18.8462
  37   2.0000      -0.650553       -17.7024
  38   2.0000      -0.639745       -17.4083
  39   2.0000      -0.625059       -17.0087
  40   2.0000      -0.600374       -16.3370
  41   2.0000      -0.577788       -15.7224
  42   2.0000      -0.563719       -15.3396
  43   2.0000      -0.559371       -15.2213
  44   2.0000      -0.545227       -14.8364
  45   2.0000      -0.527399       -14.3513
  46   2.0000      -0.518805       -14.1174
  47   2.0000      -0.512825       -13.9547
  48   2.0000      -0.502251       -13.6669
  49   2.0000      -0.498269       -13.5586
  50   2.0000      -0.488752       -13.2996
  51   2.0000      -0.484259       -13.1773
  52   2.0000      -0.473517       -12.8850
  53   2.0000      -0.464539       -12.6407
  54   2.0000      -0.458332       -12.4718
  55   2.0000      -0.454044       -12.3552
  56   2.0000      -0.445789       -12.1305
  57   2.0000      -0.437616       -11.9081
  58   2.0000      -0.426675       -11.6104
  59   2.0000      -0.423799       -11.5322
  60   2.0000      -0.420021       -11.4293
  61   2.0000      -0.418778       -11.3955
  62   2.0000      -0.415165       -11.2972
  63   2.0000      -0.343966        -9.3598
  64   2.0000      -0.334879        -9.1125
  65   2.0000      -0.323042        -8.7904
  66   2.0000      -0.294066        -8.0019
  67   0.0000       0.031875         0.8674
  68   0.0000       0.067341         1.8324
  69   0.0000       0.112804         3.0696
  70   0.0000       0.125352         3.4110
  71   0.0000       0.131544         3.5795

MULLIKEN ATOMIC CHARGES
-----------------------
   0 S :    0.123008
   1 C :   -0.115684
   2 C :   -0.112007
   3 C :    0.035629
   4 C :   -0.169422
   5 H :    0.021135
   6 C :    0.069147
   7 H :    0.032959
   8 H :    0.046214
   9 C :   -0.064382
  10 H :    0.017112
  11 H :    0.040517
  12 C :   -0.058101
  13 H :    0.026522
  14 H :    0.035477
  15 H :    0.024230
  16 S :    0.090117
  17 C :   -0.084214
  18 C :   -0.063882
  19 C :   -0.026154
  20 C :   -0.149223
  21 H :    0.046327
  22 C :    0.064426
  23 H :    0.035776
  24 H :    0.010139
  25 C :   -0.084658
  26 H :    0.020715
  27 H :    0.024093
  28 C :   -0.040701
  29 H :    0.035006
  30 H :    0.026172
  31 H :    0.053739
  32 H :    0.034094
  33 H :    0.055874
Sum of atomic charges:   -0.0000000

LOEWDIN ATOMIC CHARGES
----------------------
   0 S :    0.413440
   1 C :   -0.190755
   2 C :   -0.058973
   3 C :   -0.064257
   4 C :   -0.191132
   5 H :    0.034440
   6 C :   -0.036614
   7 H :    0.036857
   8 H :    0.039878
   9 C :   -0.047177
  10 H :    0.020122
  11 H :    0.033286
  12 C :   -0.062972
  13 H :    0.021569
  14 H :    0.027712
  15 H :    0.019923
  16 S :    0.398601
  17 C :   -0.175761
  18 C :   -0.079949
  19 C :   -0.056728
  20 C :   -0.214822
  21 H :    0.042210
  22 C :   -0.033875
  23 H :    0.032912
  24 H :    0.024752
  25 C :   -0.039057
  26 H :    0.015351
  27 H :    0.020214
  28 C :   -0.063290
  29 H :    0.024292
  30 H :    0.020583
  31 H :    0.041647
  32 H :    0.020597
  33 H :    0.026979

  Mayer bond orders larger than 0.100000
B(  0-S ,  1-C ) :   1.1447 B(  0-S ,  4-C ) :   1.1722 B(  1-C ,  2-C ) :   1.6075
B(  1-C ,  4-C ) :   0.1100 B(  1-C , 32-H ) :   0.9733 B(  2-C ,  3-C ) :   1.2560
B(  2-C ,  6-C ) :   0.9957 B(  3-C ,  4-C ) :   1.5589 B(  3-C ,  5-H ) :   0.9881
B(  4-C , 20-C ) :   1.0072 B(  6-C ,  7-H ) :   0.9374 B(  6-C ,  8-H ) :   0.9324
B(  6-C ,  9-C ) :   1.0911 B(  9-C , 10-H ) :   0.9436 B(  9-C , 11-H ) :   0.9550
B(  9-C , 12-C ) :   1.0737 B( 12-C , 13-H ) :   0.9754 B( 12-C , 14-H ) :   0.9729
B( 12-C , 15-H ) :   0.9761 B( 16-S , 17-C ) :   1.1474 B( 16-S , 20-C ) :   1.1374
B( 17-C , 18-C ) :   1.6371 B( 17-C , 33-H ) :   0.9666 B( 18-C , 19-C ) :   1.2139
B( 18-C , 21-H ) :   0.9742 B( 19-C , 20-C ) :   1.6173 B( 19-C , 22-C ) :   1.0481
B( 22-C , 23-H ) :   0.9391 B( 22-C , 24-H ) :   0.9133 B( 22-C , 25-C ) :   1.0745
B( 25-C , 26-H ) :   0.9455 B( 25-C , 27-H ) :   0.9560 B( 25-C , 28-C ) :   1.0759
B( 28-C , 29-H ) :   0.9763 B( 28-C , 30-H ) :   0.9764 B( 28-C , 31-H ) :   0.9728

Dispersion correction           -0.014052191
FINAL SINGLE POINT ENERGY     -1339.876096541772

DIPOLE MOMENT
-------------
                                X             Y             Z
Electronic contribution:     -6.89760     -19.45946     -20.49503
Nuclear contribution   :      7.00978      19.87508      20.97148
                        -----------------------------------------
Total Dipole Moment    :      0.11218       0.41562       0.47645
                        -----------------------------------------
Magnitude (a.u.)       :      0.64213
Magnitude (Debye)      :      1.63217

Rotational constants in cm-1:     0.016572     0.009230     0.006839
Rotational constants in MHz :   496.821804   276.722553   205.022509

                             ****ORCA TERMINATED NORMALLY****
TOTAL RUN TIME: 0 days 0 hours 0 minutes 35 seconds 734 msec
