                         Program Version 4.2.1 -  RELEASE  -
|  1> ! wB97X-D3 SP def2-SVP
|  2> %pal
|  3> nprocs 16
|  4> end
|  5>
|  6> * xyz 0 1
|  7> S 	 -4.18841 	 75.2936 	 48.4921
|  8> C 	 -2.4783 	 75.7522 	 48.264
|  9> C 	 -1.5975 	 74.9372 	 48.9162
| 10> C 	 -2.31248 	 73.7215 	 49.2427
| 11> C 	 -3.67858 	 73.7965 	 49.2086
| 12> H 	 -1.93179 	 72.8724 	 49.7524
| 13> C 	 -0.118124 	 75.1659 	 49.1344
| 14> H 	 0.225325 	 75.4677 	 48.1848
| 15> H 	 0.344388 	 74.2889 	 49.4374
| 16> C 	 0.20096 	 76.1925 	 50.2615
| 17> H 	 -0.316488 	 77.1076 	 49.8751
| 18> H 	 -0.402325 	 75.9001 	 51.0454
| 19> C 	 1.73505 	 76.4545 	 50.5677
| 20> H 	 1.9719 	 77.3979 	 51.1166
| 21> H 	 2.25169 	 75.7304 	 51.157
| 22> H 	 2.23379 	 76.5448 	 49.666
| 23> S 	 -6.07415 	 73.4354 	 50.2957
| 24> C 	 -6.6634 	 71.7764 	 50.5481
| 25> C 	 -5.83976 	 70.91 	 49.9225
| 26> C 	 -4.59023 	 71.4859 	 49.547
| 27> C 	 -4.6207 	 72.8335 	 49.618
| 28> H 	 -6.14397 	 69.9127 	 49.8628
| 29> C 	 -3.45401 	 70.6121 	 49.0093
| 30> H 	 -3.67754 	 69.5657 	 49.2035
| 31> H 	 -2.56418 	 70.7859 	 49.6325
| 32> C 	 -3.05874 	 70.7217 	 47.5288
| 33> H 	 -2.29292 	 70.013 	 47.3346
| 34> H 	 -2.63998 	 71.6665 	 47.2318
| 35> C 	 -4.3429 	 70.497 	 46.6532
| 36> H 	 -4.07787 	 70.6741 	 45.5864
| 37> H 	 -5.18186 	 71.147 	 47.0144
| 38> H 	 -4.72034 	 69.4309 	 46.6651
| 39> H 	 -2.173 	 76.7687 	 47.9658
| 40> H 	 -7.56733 	 71.5656 	 51.0821
| 41> *
| 42>
| 43>                          ****END OF INPUT****

CARTESIAN COORDINATES (ANGSTROEM)
---------------------------------
  S     -4.188410   75.293600   48.492100
  C     -2.478300   75.752200   48.264000
  C     -1.597500   74.937200   48.916200
  C     -2.312480   73.721500   49.242700
  C     -3.678580   73.796500   49.208600
  H     -1.931790   72.872400   49.752400
  C     -0.118124   75.165900   49.134400
  H      0.225325   75.467700   48.184800
  H      0.344388   74.288900   49.437400
  C      0.200960   76.192500   50.261500
  H     -0.316488   77.107600   49.875100
  H     -0.402325   75.900100   51.045400
  C      1.735050   76.454500   50.567700
  H      1.971900   77.397900   51.116600
  H      2.251690   75.730400   51.157000
  H      2.233790   76.544800   49.666000
  S     -6.074150   73.435400   50.295700
  C     -6.663400   71.776400   50.548100
  C     -5.839760   70.910000   49.922500
  C     -4.590230   71.485900   49.547000
  C     -4.620700   72.833500   49.618000
  H     -6.143970   69.912700   49.862800
  C     -3.454010   70.612100   49.009300
  H     -3.677540   69.565700   49.203500
  H     -2.564180   70.785900   49.632500
  C     -3.058740   70.721700   47.528800
  H     -2.292920   70.013000   47.334600
  H     -2.639980   71.666500   47.231800
  C     -4.342900   70.497000   46.653200
  H     -4.077870   70.674100   45.586400
  H     -5.181860   71.147000   47.014400
  H     -4.720340   69.430900   46.665100
  H     -2.173000   76.768700   47.965800
  H     -7.567330   71.565600   51.082100

 Total Charge           Charge          ....    0
 Multiplicity           Mult            ....    1
 Number of Electrons    NEL             ....  134
 Basis Dimension        Dim             ....  322

ORBITAL ENERGIES
----------------

  NO   OCC          E(Eh)            E(eV)
   0   2.0000     -88.965294     -2420.8687
   1   2.0000     -88.962285     -2420.7868
   2   2.0000     -10.322825      -280.8983
   3   2.0000     -10.318223      -280.7731
   4   2.0000     -10.314912      -280.6830
   5   2.0000     -10.312997      -280.6309
   6   2.0000     -10.303834      -280.3816
   7   2.0000     -10.299526      -280.2643
   8   2.0000     -10.292836      -280.0823
   9   2.0000     -10.290351      -280.0147
  10   2.0000     -10.289132      -279.9815
  11   2.0000     -10.287414      -279.9348
  12   2.0000     -10.286647      -279.9139
  13   2.0000     -10.281072      -279.7622
  14   2.0000     -10.281047      -279.7615
  15   2.0000     -10.280955      -279.7590
  16   2.0000      -8.079866      -219.8643
  17   2.0000      -8.077908      -219.8110
  18   2.0000      -6.038518      -164.3164
  19   2.0000      -6.036429      -164.2596
  20   2.0000      -6.034563      -164.2088
  21   2.0000      -6.032407      -164.1501
  22   2.0000      -6.030319      -164.0933
  23   2.0000      -6.028483      -164.0434
  24   2.0000      -1.017982       -27.7007
  25   2.0000      -0.987165       -26.8621
  26   2.0000      -0.914496       -24.8847
  27   2.0000      -0.904984       -24.6259
  28   2.0000      -0.876273       -23.8446
  29   2.0000      -0.847822       -23.0704
  30   2.0000      -0.841571       -22.9003
  31   2.0000      -0.816322       -22.2133
  32   2.0000      -0.788672       -21.4609
  33   2.0000      -0.773691       -21.0532
  34   2.0000      -0.715387       -19.4667
  35   2.0000      -0.710475       -19.3330
  36   2.0000      -0.691843       -18.8260
  37   2.0000      -0.674357       -18.3502
  38   2.0000      -0.638626       -17.3779
  39   2.0000      -0.616245       -16.7689
  40   2.0000      -0.594273       -16.1710
  41   2.0000      -0.574462       -15.6319
  42   2.0000      -0.562547       -15.3077
  43   2.0000      -0.549808       -14.9610
  44   2.0000      -0.547648       -14.9023
  45   2.0000      -0.528605       -14.3841
  46   2.0000      -0.516958       -14.0671
  47   2.0000      -0.510322       -13.8866
  48   2.0000      -0.502083       -13.6624
  49   2.0000      -0.499655       -13.5963
  50   2.0000      -0.485740       -13.2176
  51   2.0000      -0.479334       -13.0433
  52   2.0000      -0.471338       -12.8258
  53   2.0000      -0.466463       -12.6931
  54   2.0000      -0.463493       -12.6123
  55   2.0000      -0.448558       -12.2059
  56   2.0000      -0.443916       -12.0796
  57   2.0000      -0.439784       -11.9671
  58   2.0000      -0.433701       -11.8016
  59   2.0000      -0.427084       -11.6215
  60   2.0000      -0.418714       -11.3938
  61   2.0000      -0.416170       -11.3246
  62   2.0000      -0.414843       -11.2884
  63   2.0000      -0.360384        -9.8066
  64   2.0000      -0.333179        -9.0663
  65   2.0000      -0.329151        -8.9567
  66   2.0000      -0.285518        -7.7693
  67   0.0000       0.027002         0.7348
  68   0.0000       0.068128         1.8539
  69   0.0000       0.108849         2.9619
  70   0.0000       0.119948         3.2639
  71   0.0000       0.137542         3.7427

MULLIKEN ATOMIC CHARGES
-----------------------
   0 S :    0.100661
   1 C :   -0.123613
   2 C :   -0.116540
   3 C :    0.008736
   4 C :   -0.123984
   5 H :   -0.015158
   6 C :    0.136632
   7 H :    0.022447
   8 H :   -0.001494
   9 C :   -0.072114
  10 H :    0.023347
  11 H :    0.017742
  12 C :   -0.015324
  13 H :    0.038245
  14 H :    0.030009
  15 H :    0.014773
  16 S :    0.087912
  17 C :   -0.089283
  18 C :    0.002387
  19 C :   -0.077158
  20 C :   -0.107392
  21 H :   -0.001488
  22 C :    0.051719
  23 H :    0.013040
  24 H :    0.032053
  25 C :   -0.018673
  26 H :    0.020388
  27 H :    0.036639
  28 C :   -0.113105
  29 H :    0.040261
  30 H :    0.064581
  31 H :    0.029906
  32 H :    0.051146
  33 H :    0.052701
Sum of atomic charges:   -0.0000000

LOEWDIN ATOMIC CHARGES
----------------------
   0 S :    0.388222
   1 C :   -0.193048
   2 C :   -0.050212
   3 C :   -0.067632
   4 C :   -0.187411
   5 H :    0.020800
   6 C :   -0.017583
   7 H :    0.026864
   8 H :    0.018803
   9 C :   -0.028571
  10 H :    0.027052
  11 H :    0.014008
  12 C :   -0.063122
  13 H :    0.036407
  14 H :    0.023284
  15 H :    0.017067
  16 S :    0.397243
  17 C :   -0.165074
  18 C :   -0.058620
  19 C :   -0.061398
  20 C :   -0.201562
  21 H :    0.024461
  22 C :   -0.032225
  23 H :    0.029959
  24 H :    0.029943
  25 C :   -0.033646
  26 H :    0.020473
  27 H :    0.022744
  28 C :   -0.076101
  29 H :    0.027281
  30 H :    0.033785
  31 H :    0.024508
  32 H :    0.026975
  33 H :    0.026325

  Mayer bond orders larger than 0.100000
B(  0-S ,  1-C ) :   1.1162 B(  0-S ,  4-C ) :   1.1251 B(  1-C ,  2-C ) :   1.6538
B(  1-C , 32-H ) :   0.9562 B(  2-C ,  3-C ) :   1.2012 B(  2-C ,  6-C ) :   1.0241
B(  3-C ,  4-C ) :   1.6106 B(  3-C ,  5-H ) :   0.9906 B(  4-C , 20-C ) :   1.0820
B(  6-C ,  7-H ) :   0.9359 B(  6-C ,  8-H ) :   0.9368 B(  6-C ,  9-C ) :   1.0510
B(  9-C , 10-H ) :   0.9616 B(  9-C , 11-H ) :   0.9630 B(  9-C , 12-C ) :   1.0598
B( 12-C , 13-H ) :   0.9765 B( 12-C , 14-H ) :   0.9782 B( 12-C , 15-H ) :   0.9748
B( 16-S , 17-C ) :   1.1309 B( 16-S , 20-C ) :   1.1287 B( 17-C , 18-C ) :   1.6284
B( 17-C , 33-H ) :   0.9748 B( 18-C , 19-C ) :   1.2106 B( 18-C , 21-H ) :   1.0007
B( 19-C , 20-C ) :   1.6116 B( 19-C , 22-C ) :   1.0415 B( 22-C , 23-H ) :   0.9324
B( 22-C , 24-H ) :   0.9304 B( 22-C , 25-C ) :   1.0753 B( 25-C , 26-H ) :   0.9533
B( 25-C , 27-H ) :   0.9542 B( 25-C , 28-C ) :   1.0645 B( 28-C , 29-H ) :   0.9764
B( 28-C , 30-H ) :   0.9737 B( 28-C , 31-H ) :   0.9769

Dispersion correction           -0.014879163
FINAL SINGLE POINT ENERGY     -1339.861428108091

DIPOLE MOMENT
-------------
                                X             Y             Z
Electronic contribution:    -22.88263       5.42457       3.97371
Nuclear contribution   :     23.44506      -5.79300      -3.83738
                        -----------------------------------------
Total Dipole Moment    :      0.56243      -0.36843       0.13633
                        -----------------------------------------
Magnitude (a.u.)       :      0.68604
Magnitude (Debye)      :      1.74378

Rotational constants in cm-1:     0.021951     0.007871     0.006927
Rotational constants in MHz :   658.066929   235.979927   207.675766

                             ****ORCA TERMINATED NORMALLY****
TOTAL RUN TIME: 0 days 0 hours 0 minutes 33 seconds 383 msec
