                         Program Version 4.2.1 -  RELEASE  -
|  1> ! wB97X-D3 SP def2-SVP
|  2> %pal
|  3> nprocs 16
|  4> end
|  5>
|  6> * xyz 0 1
|  7> S 	 -77.2653 	 52.6905 	 137.888
|  8> C 	 -76.2629 	 53.8924 	 138.669
|  9> C 	 -76.5689 	 55.1869 	 138.203
| 10> C 	 -77.677 	 55.1661 	 137.312
| 11> C 	 -78.1602 	 53.8851 	 137.046
| 12> H 	 -78.0731 	 56.0686 	 136.89
| 13> C 	 -76.0662 	 56.4751 	 138.771
| 14> H 	 -75.9 	 56.2262 	 139.817
| 15> H 	 -76.905 	 57.2 	 138.699
| 16> C 	 -74.7555 	 56.9601 	 138.17
| 17> H 	 -74.8991 	 57.2301 	 137.124
| 18> H 	 -74.4983 	 57.8998 	 138.761
| 19> C 	 -73.5218 	 56.1039 	 138.357
| 20> H 	 -73.287 	 56.0317 	 139.426
| 21> H 	 -73.6873 	 55.1821 	 137.877
| 22> H 	 -72.6468 	 56.4579 	 137.747
| 23> S 	 -79.5965 	 54.7552 	 134.789
| 24> C 	 -81.0644 	 53.9685 	 134.388
| 25> C 	 -81.302 	 52.8569 	 135.174
| 26> C 	 -80.3363 	 52.772 	 136.324
| 27> C 	 -79.2992 	 53.6588 	 136.156
| 28> H 	 -82.0637 	 52.1552 	 134.825
| 29> C 	 -80.4567 	 51.6222 	 137.313
| 30> H 	 -81.5053 	 51.5235 	 137.739
| 31> H 	 -79.9295 	 51.9424 	 138.214
| 32> C 	 -80.0022 	 50.2117 	 137.009
| 33> H 	 -79.009 	 50.3235 	 136.586
| 34> H 	 -80.6506 	 49.934 	 136.16
| 35> C 	 -79.8966 	 49.2016 	 138.144
| 36> H 	 -79.4821 	 49.6435 	 139.044
| 37> H 	 -79.3278 	 48.3092 	 138.093
| 38> H 	 -80.9035 	 48.9134 	 138.434
| 39> H 	 -75.4808 	 53.6257 	 139.333
| 40> H 	 -81.5732 	 54.2522 	 133.433
| 41> *
| 42>
| 43>                          ****END OF INPUT****

CARTESIAN COORDINATES (ANGSTROEM)
---------------------------------
  S    -77.265300   52.690500  137.888000
  C    -76.262900   53.892400  138.669000
  C    -76.568900   55.186900  138.203000
  C    -77.677000   55.166100  137.312000
  C    -78.160200   53.885100  137.046000
  H    -78.073100   56.068600  136.890000
  C    -76.066200   56.475100  138.771000
  H    -75.900000   56.226200  139.817000
  H    -76.905000   57.200000  138.699000
  C    -74.755500   56.960100  138.170000
  H    -74.899100   57.230100  137.124000
  H    -74.498300   57.899800  138.761000
  C    -73.521800   56.103900  138.357000
  H    -73.287000   56.031700  139.426000
  H    -73.687300   55.182100  137.877000
  H    -72.646800   56.457900  137.747000
  S    -79.596500   54.755200  134.789000
  C    -81.064400   53.968500  134.388000
  C    -81.302000   52.856900  135.174000
  C    -80.336300   52.772000  136.324000
  C    -79.299200   53.658800  136.156000
  H    -82.063700   52.155200  134.825000
  C    -80.456700   51.622200  137.313000
  H    -81.505300   51.523500  137.739000
  H    -79.929500   51.942400  138.214000
  C    -80.002200   50.211700  137.009000
  H    -79.009000   50.323500  136.586000
  H    -80.650600   49.934000  136.160000
  C    -79.896600   49.201600  138.144000
  H    -79.482100   49.643500  139.044000
  H    -79.327800   48.309200  138.093000
  H    -80.903500   48.913400  138.434000
  H    -75.480800   53.625700  139.333000
  H    -81.573200   54.252200  133.433000

 Total Charge           Charge          ....    0
 Multiplicity           Mult            ....    1
 Number of Electrons    NEL             ....  134
 Basis Dimension        Dim             ....  322

ORBITAL ENERGIES
----------------

  NO   OCC          E(Eh)            E(eV)
   0   2.0000     -88.973230     -2421.0847
   1   2.0000     -88.965049     -2420.8621
   2   2.0000     -10.331337      -281.1300
   3   2.0000     -10.329001      -281.0664
   4   2.0000     -10.319456      -280.8067
   5   2.0000     -10.314264      -280.6654
   6   2.0000     -10.311761      -280.5973
   7   2.0000     -10.300720      -280.2968
   8   2.0000     -10.299862      -280.2735
   9   2.0000     -10.292325      -280.0684
  10   2.0000     -10.292319      -280.0682
  11   2.0000     -10.289938      -280.0035
  12   2.0000     -10.288324      -279.9595
  13   2.0000     -10.285080      -279.8713
  14   2.0000     -10.276947      -279.6499
  15   2.0000     -10.274890      -279.5940
  16   2.0000      -8.087604      -220.0749
  17   2.0000      -8.080164      -219.8724
  18   2.0000      -6.045988      -164.5197
  19   2.0000      -6.042048      -164.4125
  20   2.0000      -6.038782      -164.3236
  21   2.0000      -6.038653      -164.3201
  22   2.0000      -6.034679      -164.2120
  23   2.0000      -6.030735      -164.1046
  24   2.0000      -1.007799       -27.4236
  25   2.0000      -0.984068       -26.7779
  26   2.0000      -0.917594       -24.9690
  27   2.0000      -0.908953       -24.7339
  28   2.0000      -0.868754       -23.6400
  29   2.0000      -0.855034       -23.2667
  30   2.0000      -0.847457       -23.0605
  31   2.0000      -0.809176       -22.0188
  32   2.0000      -0.787959       -21.4414
  33   2.0000      -0.777823       -21.1656
  34   2.0000      -0.707378       -19.2487
  35   2.0000      -0.697329       -18.9753
  36   2.0000      -0.690561       -18.7911
  37   2.0000      -0.661694       -18.0056
  38   2.0000      -0.638768       -17.3818
  39   2.0000      -0.616421       -16.7737
  40   2.0000      -0.596921       -16.2431
  41   2.0000      -0.570893       -15.5348
  42   2.0000      -0.563556       -15.3351
  43   2.0000      -0.554470       -15.0879
  44   2.0000      -0.541359       -14.7311
  45   2.0000      -0.524370       -14.2688
  46   2.0000      -0.521663       -14.1952
  47   2.0000      -0.511816       -13.9272
  48   2.0000      -0.505482       -13.7549
  49   2.0000      -0.494046       -13.4437
  50   2.0000      -0.491710       -13.3801
  51   2.0000      -0.482208       -13.1216
  52   2.0000      -0.476042       -12.9538
  53   2.0000      -0.465899       -12.6777
  54   2.0000      -0.463494       -12.6123
  55   2.0000      -0.452940       -12.3251
  56   2.0000      -0.445086       -12.1114
  57   2.0000      -0.437552       -11.9064
  58   2.0000      -0.428833       -11.6692
  59   2.0000      -0.427173       -11.6240
  60   2.0000      -0.415708       -11.3120
  61   2.0000      -0.405374       -11.0308
  62   2.0000      -0.404024       -10.9941
  63   2.0000      -0.355226        -9.6662
  64   2.0000      -0.332350        -9.0437
  65   2.0000      -0.326480        -8.8840
  66   2.0000      -0.289170        -7.8687
  67   0.0000       0.025982         0.7070
  68   0.0000       0.079264         2.1569
  69   0.0000       0.103049         2.8041
  70   0.0000       0.113039         3.0759
  71   0.0000       0.126671         3.4469

MULLIKEN ATOMIC CHARGES
-----------------------
   0 S :    0.121473
   1 C :   -0.122826
   2 C :   -0.086498
   3 C :   -0.010310
   4 C :   -0.125571
   5 H :    0.007783
   6 C :    0.062794
   7 H :    0.023144
   8 H :    0.038040
   9 C :   -0.081414
  10 H :    0.029284
  11 H :    0.033929
  12 C :   -0.044955
  13 H :    0.037406
  14 H :    0.021733
  15 H :    0.039643
  16 S :    0.097547
  17 C :   -0.115034
  18 C :   -0.028506
  19 C :   -0.056335
  20 C :   -0.105558
  21 H :    0.035407
  22 C :    0.004733
  23 H :    0.029570
  24 H :    0.011524
  25 C :   -0.034441
  26 H :    0.016543
  27 H :    0.025012
  28 C :   -0.014011
  29 H :    0.017062
  30 H :    0.031923
  31 H :    0.020056
  32 H :    0.040986
  33 H :    0.079866
Sum of atomic charges:   -0.0000000

LOEWDIN ATOMIC CHARGES
----------------------
   0 S :    0.443216
   1 C :   -0.201139
   2 C :   -0.059261
   3 C :   -0.068427
   4 C :   -0.202074
   5 H :    0.023517
   6 C :   -0.034530
   7 H :    0.032596
   8 H :    0.038396
   9 C :   -0.044501
  10 H :    0.022749
  11 H :    0.029927
  12 C :   -0.068375
  13 H :    0.026955
  14 H :    0.015997
  15 H :    0.037486
  16 S :    0.403503
  17 C :   -0.201457
  18 C :   -0.072201
  19 C :   -0.052665
  20 C :   -0.180414
  21 H :    0.035162
  22 C :   -0.050407
  23 H :    0.035611
  24 H :    0.017444
  25 C :   -0.044427
  26 H :    0.018698
  27 H :    0.024899
  28 C :   -0.063517
  29 H :    0.027846
  30 H :    0.026705
  31 H :    0.024810
  32 H :    0.019157
  33 H :    0.038719

  Mayer bond orders larger than 0.100000
B(  0-S ,  1-C ) :   1.1509 B(  0-S ,  4-C ) :   1.1722 B(  1-C ,  2-C ) :   1.5574
B(  1-C , 32-H ) :   0.9740 B(  2-C ,  3-C ) :   1.2965 B(  2-C ,  6-C ) :   1.0078
B(  3-C ,  4-C ) :   1.5150 B(  3-C ,  5-H ) :   0.9915 B(  4-C , 20-C ) :   1.0568
B(  6-C ,  7-H ) :   0.9408 B(  6-C ,  8-H ) :   0.9470 B(  6-C ,  9-C ) :   1.0679
B(  9-C , 10-H ) :   0.9546 B(  9-C , 11-H ) :   0.9552 B(  9-C , 12-C ) :   1.0865
B( 12-C , 13-H ) :   0.9746 B( 12-C , 14-H ) :   0.9691 B( 12-C , 15-H ) :   0.9685
B( 16-S , 17-C ) :   1.1499 B( 16-S , 20-C ) :   1.1229 B( 17-C , 18-C ) :   1.6477
B( 17-C , 33-H ) :   0.9580 B( 18-C , 19-C ) :   1.1739 B( 18-C , 21-H ) :   0.9874
B( 19-C , 20-C ) :   1.6200 B( 19-C , 22-C ) :   1.0679 B( 22-C , 23-H ) :   0.9297
B( 22-C , 24-H ) :   0.9209 B( 22-C , 25-C ) :   1.0595 B( 25-C , 26-H ) :   0.9499
B( 25-C , 27-H ) :   0.9544 B( 25-C , 28-C ) :   1.0716 B( 28-C , 29-H ) :   0.9699
B( 28-C , 30-H ) :   0.9764 B( 28-C , 31-H ) :   0.9744

Dispersion correction           -0.014304357
FINAL SINGLE POINT ENERGY     -1339.876150635423

DIPOLE MOMENT
-------------
                                X             Y             Z
Electronic contribution:     -8.16183       3.43036     -10.89483
Nuclear contribution   :      8.23853      -3.43406      11.05920
                        -----------------------------------------
Total Dipole Moment    :      0.07669      -0.00369       0.16437
                        -----------------------------------------
Magnitude (a.u.)       :      0.18142
Magnitude (Debye)      :      0.46114

Rotational constants in cm-1:     0.020958     0.008237     0.006193
Rotational constants in MHz :   628.299376   246.930059   185.662980

                             ****ORCA TERMINATED NORMALLY****
TOTAL RUN TIME: 0 days 0 hours 0 minutes 35 seconds 729 msec
