                         Program Version 4.2.1 -  RELEASE  -
|  1> ! wB97X-D3 SP def2-SVP
|  2> %pal
|  3> nprocs 16
|  4> end
|  5>
|  6> * xyz 0 1
|  7> S 	 45.034 	 19.111 	 77.1558
|  8> C 	 44.0484 	 18.6481 	 78.5784
|  9> C 	 44.691 	 17.6716 	 79.3307
| 10> C 	 45.9079 	 17.2123 	 78.6726
| 11> C 	 46.3177 	 18.0794 	 77.6686
| 12> H 	 46.5066 	 16.3141 	 78.962
| 13> C 	 44.1874 	 17.0585 	 80.648
| 14> H 	 44.8746 	 16.2805 	 80.994
| 15> H 	 43.3227 	 16.4363 	 80.576
| 16> C 	 43.8175 	 18.1304 	 81.7788
| 17> H 	 43.5063 	 19.1167 	 81.3272
| 18> H 	 43.047 	 17.7854 	 82.5288
| 19> C 	 45.0315 	 18.427 	 82.6083
| 20> H 	 45.3275 	 17.5476 	 83.135
| 21> H 	 45.8374 	 18.8928 	 82.0036
| 22> H 	 44.671 	 19.1568 	 83.3954
| 23> S 	 47.2341 	 17.3799 	 75.2555
| 24> C 	 48.9619 	 17.3763 	 74.9301
| 25> C 	 49.7018 	 17.621 	 76.0945
| 26> C 	 48.9052 	 17.9137 	 77.2338
| 27> C 	 47.5632 	 17.9774 	 76.8665
| 28> H 	 50.8236 	 17.5277 	 76.1892
| 29> C 	 49.4063 	 18.0862 	 78.6231
| 30> H 	 48.5413 	 17.9216 	 79.2968
| 31> H 	 49.8381 	 19.0478 	 78.7747
| 32> C 	 50.4943 	 17.0108 	 79.1911
| 33> H 	 50.6553 	 17.1073 	 80.232
| 34> H 	 51.4761 	 17.1895 	 78.762
| 35> C 	 50.1322 	 15.55 	 78.989
| 36> H 	 50.0093 	 15.3587 	 77.9526
| 37> H 	 49.1238 	 15.2696 	 79.3891
| 38> H 	 51.0174 	 14.9877 	 79.3207
| 39> H 	 43.1135 	 19.1204 	 78.8115
| 40> H 	 49.4156 	 17.0898 	 74.0166
| 41> *
| 42>
| 43>                          ****END OF INPUT****

CARTESIAN COORDINATES (ANGSTROEM)
---------------------------------
  S     45.034000   19.111000   77.155800
  C     44.048400   18.648100   78.578400
  C     44.691000   17.671600   79.330700
  C     45.907900   17.212300   78.672600
  C     46.317700   18.079400   77.668600
  H     46.506600   16.314100   78.962000
  C     44.187400   17.058500   80.648000
  H     44.874600   16.280500   80.994000
  H     43.322700   16.436300   80.576000
  C     43.817500   18.130400   81.778800
  H     43.506300   19.116700   81.327200
  H     43.047000   17.785400   82.528800
  C     45.031500   18.427000   82.608300
  H     45.327500   17.547600   83.135000
  H     45.837400   18.892800   82.003600
  H     44.671000   19.156800   83.395400
  S     47.234100   17.379900   75.255500
  C     48.961900   17.376300   74.930100
  C     49.701800   17.621000   76.094500
  C     48.905200   17.913700   77.233800
  C     47.563200   17.977400   76.866500
  H     50.823600   17.527700   76.189200
  C     49.406300   18.086200   78.623100
  H     48.541300   17.921600   79.296800
  H     49.838100   19.047800   78.774700
  C     50.494300   17.010800   79.191100
  H     50.655300   17.107300   80.232000
  H     51.476100   17.189500   78.762000
  C     50.132200   15.550000   78.989000
  H     50.009300   15.358700   77.952600
  H     49.123800   15.269600   79.389100
  H     51.017400   14.987700   79.320700
  H     43.113500   19.120400   78.811500
  H     49.415600   17.089800   74.016600

 Total Charge           Charge          ....    0
 Multiplicity           Mult            ....    1
 Number of Electrons    NEL             ....  134
 Basis Dimension        Dim             ....  322

ORBITAL ENERGIES
----------------

  NO   OCC          E(Eh)            E(eV)
   0   2.0000     -88.968658     -2420.9603
   1   2.0000     -88.966497     -2420.9015
   2   2.0000     -10.329239      -281.0729
   3   2.0000     -10.326115      -280.9879
   4   2.0000     -10.318476      -280.7800
   5   2.0000     -10.317296      -280.7479
   6   2.0000     -10.310483      -280.5625
   7   2.0000     -10.304048      -280.3874
   8   2.0000     -10.300989      -280.3042
   9   2.0000     -10.300578      -280.2930
  10   2.0000     -10.296320      -280.1771
  11   2.0000     -10.296281      -280.1761
  12   2.0000     -10.293943      -280.1124
  13   2.0000     -10.287983      -279.9503
  14   2.0000     -10.276402      -279.6351
  15   2.0000     -10.275499      -279.6106
  16   2.0000      -8.083143      -219.9535
  17   2.0000      -8.081078      -219.8973
  18   2.0000      -6.041619      -164.4008
  19   2.0000      -6.039616      -164.3463
  20   2.0000      -6.037771      -164.2961
  21   2.0000      -6.035687      -164.2394
  22   2.0000      -6.033859      -164.1896
  23   2.0000      -6.031732      -164.1318
  24   2.0000      -1.005736       -27.3675
  25   2.0000      -0.980364       -26.6771
  26   2.0000      -0.906562       -24.6688
  27   2.0000      -0.903568       -24.5873
  28   2.0000      -0.864823       -23.5330
  29   2.0000      -0.854888       -23.2627
  30   2.0000      -0.843865       -22.9627
  31   2.0000      -0.809781       -22.0353
  32   2.0000      -0.782347       -21.2887
  33   2.0000      -0.771461       -20.9925
  34   2.0000      -0.703862       -19.1531
  35   2.0000      -0.697297       -18.9744
  36   2.0000      -0.686438       -18.6789
  37   2.0000      -0.658875       -17.9289
  38   2.0000      -0.641851       -17.4657
  39   2.0000      -0.610341       -16.6082
  40   2.0000      -0.593474       -16.1492
  41   2.0000      -0.572578       -15.5806
  42   2.0000      -0.557058       -15.1583
  43   2.0000      -0.545458       -14.8427
  44   2.0000      -0.540775       -14.7152
  45   2.0000      -0.532493       -14.4899
  46   2.0000      -0.520302       -14.1581
  47   2.0000      -0.515444       -14.0259
  48   2.0000      -0.501691       -13.6517
  49   2.0000      -0.493253       -13.4221
  50   2.0000      -0.491668       -13.3790
  51   2.0000      -0.474473       -12.9111
  52   2.0000      -0.470652       -12.8071
  53   2.0000      -0.466333       -12.6896
  54   2.0000      -0.458099       -12.4655
  55   2.0000      -0.446392       -12.1470
  56   2.0000      -0.441430       -12.0119
  57   2.0000      -0.438004       -11.9187
  58   2.0000      -0.427881       -11.6432
  59   2.0000      -0.425698       -11.5838
  60   2.0000      -0.424172       -11.5423
  61   2.0000      -0.414184       -11.2705
  62   2.0000      -0.410829       -11.1792
  63   2.0000      -0.338779        -9.2186
  64   2.0000      -0.329092        -8.9550
  65   2.0000      -0.325952        -8.8696
  66   2.0000      -0.297687        -8.1005
  67   0.0000       0.031579         0.8593
  68   0.0000       0.059924         1.6306
  69   0.0000       0.102853         2.7988
  70   0.0000       0.114875         3.1259
  71   0.0000       0.122477         3.3328

MULLIKEN ATOMIC CHARGES
-----------------------
   0 S :    0.106780
   1 C :   -0.119194
   2 C :   -0.086913
   3 C :    0.032144
   4 C :   -0.179764
   5 H :    0.037138
   6 C :    0.083591
   7 H :    0.010289
   8 H :    0.028397
   9 C :   -0.120340
  10 H :    0.044210
  11 H :    0.039409
  12 C :   -0.061482
  13 H :    0.024296
  14 H :    0.049394
  15 H :    0.034187
  16 S :    0.116136
  17 C :   -0.075690
  18 C :   -0.048410
  19 C :   -0.041753
  20 C :   -0.157977
  21 H :    0.037858
  22 C :    0.081328
  23 H :    0.030505
  24 H :    0.040176
  25 C :   -0.092987
  26 H :    0.024804
  27 H :    0.021008
  28 C :   -0.049280
  29 H :    0.021306
  30 H :    0.034996
  31 H :    0.042769
  32 H :    0.049144
  33 H :    0.043925
Sum of atomic charges:    0.0000000

LOEWDIN ATOMIC CHARGES
----------------------
   0 S :    0.400657
   1 C :   -0.183717
   2 C :   -0.057545
   3 C :   -0.068818
   4 C :   -0.207873
   5 H :    0.037951
   6 C :   -0.036056
   7 H :    0.028908
   8 H :    0.029683
   9 C :   -0.045054
  10 H :    0.029506
  11 H :    0.029515
  12 C :   -0.069674
  13 H :    0.016091
  14 H :    0.029250
  15 H :    0.029759
  16 S :    0.413728
  17 C :   -0.180721
  18 C :   -0.072329
  19 C :   -0.060880
  20 C :   -0.199158
  21 H :    0.040433
  22 C :   -0.027597
  23 H :    0.035153
  24 H :    0.031123
  25 C :   -0.035965
  26 H :    0.020203
  27 H :    0.018137
  28 C :   -0.069310
  29 H :    0.018145
  30 H :    0.028150
  31 H :    0.033432
  32 H :    0.023993
  33 H :    0.020882

  Mayer bond orders larger than 0.100000
B(  0-S ,  1-C ) :   1.1220 B(  0-S ,  4-C ) :   1.1662 B(  1-C ,  2-C ) :   1.6229
B(  1-C , 32-H ) :   0.9721 B(  2-C ,  3-C ) :   1.2239 B(  2-C ,  6-C ) :   1.0190
B(  3-C ,  4-C ) :   1.5793 B(  3-C ,  5-H ) :   0.9792 B(  4-C , 20-C ) :   0.9880
B(  6-C ,  7-H ) :   0.9469 B(  6-C ,  8-H ) :   0.9399 B(  6-C ,  9-C ) :   1.0383
B(  9-C , 10-H ) :   0.9623 B(  9-C , 11-H ) :   0.9593 B(  9-C , 12-C ) :   1.0817
B( 12-C , 13-H ) :   0.9756 B( 12-C , 14-H ) :   0.9768 B( 12-C , 15-H ) :   0.9731
B( 16-S , 17-C ) :   1.1532 B( 16-S , 20-C ) :   1.1666 B( 17-C , 18-C ) :   1.5912
B( 17-C , 20-C ) :   0.1031 B( 17-C , 33-H ) :   0.9748 B( 18-C , 19-C ) :   1.2511
B( 18-C , 21-H ) :   0.9772 B( 19-C , 20-C ) :   1.5970 B( 19-C , 22-C ) :   1.0506
B( 22-C , 23-H ) :   0.9322 B( 22-C , 24-H ) :   0.9345 B( 22-C , 25-C ) :   1.0594
B( 25-C , 26-H ) :   0.9615 B( 25-C , 27-H ) :   0.9537 B( 25-C , 28-C ) :   1.0795
B( 28-C , 29-H ) :   0.9715 B( 28-C , 30-H ) :   0.9729 B( 28-C , 31-H ) :   0.9711

Dispersion correction           -0.014710266
FINAL SINGLE POINT ENERGY     -1339.861577660720

DIPOLE MOMENT
-------------
                                X             Y             Z
Electronic contribution:     -7.05199       6.79369     -27.40506
Nuclear contribution   :      7.28562      -7.15875      27.96315
                        -----------------------------------------
Total Dipole Moment    :      0.23363      -0.36506       0.55809
                        -----------------------------------------
Magnitude (a.u.)       :      0.70663
Magnitude (Debye)      :      1.79610

Rotational constants in cm-1:     0.019015     0.009102     0.006747
Rotational constants in MHz :   570.056886   272.863359   202.281291

                             ****ORCA TERMINATED NORMALLY****
TOTAL RUN TIME: 0 days 0 hours 0 minutes 30 seconds 802 msec
