                         Program Version 4.2.1 -  RELEASE  -
|  1> ! wB97X-D3 SP def2-SVP
|  2> %pal
|  3> nprocs 16
|  4> end
|  5>
|  6> * xyz 0 1
|  7> S 	 29.2789 	 16.1095 	 70.3506
|  8> C 	 28.681 	 14.7387 	 71.2651
|  9> C 	 29.6223 	 14.1537 	 72.0168
| 10> C 	 30.835 	 14.844 	 71.9659
| 11> C 	 30.8034 	 15.9685 	 71.1465
| 12> H 	 31.6491 	 14.6146 	 72.6685
| 13> C 	 29.4168 	 13.019 	 73.0035
| 14> H 	 30.2821 	 12.3404 	 73.0786
| 15> H 	 28.6968 	 12.3578 	 72.4876
| 16> C 	 28.981 	 13.5401 	 74.4103
| 17> H 	 29.826 	 14.1666 	 74.6986
| 18> H 	 28.108 	 14.1763 	 74.2642
| 19> C 	 28.821 	 12.5208 	 75.4583
| 20> H 	 29.4848 	 11.6942 	 75.3237
| 21> H 	 29.083 	 12.9677 	 76.3769
| 22> H 	 27.8816 	 12.0097 	 75.484
| 23> S 	 31.8193 	 18.1218 	 69.6702
| 24> C 	 33.4501 	 18.7022 	 69.9389
| 25> C 	 33.8165 	 18.2103 	 71.2094
| 26> C 	 32.8938 	 17.3396 	 71.8515
| 27> C 	 31.7793 	 17.0635 	 71.1064
| 28> H 	 34.7743 	 18.5471 	 71.627
| 29> C 	 33.309 	 16.597 	 73.145
| 30> H 	 32.4515 	 16.3119 	 73.659
| 31> H 	 33.8888 	 17.2551 	 73.8687
| 32> C 	 34.2253 	 15.3902 	 73.0543
| 33> H 	 35.1167 	 15.7314 	 72.5789
| 34> H 	 33.8999 	 14.7105 	 72.2652
| 35> C 	 34.4275 	 14.6848 	 74.4333
| 36> H 	 33.4329 	 14.3032 	 74.7153
| 37> H 	 34.8088 	 15.2705 	 75.3406
| 38> H 	 35.1573 	 13.8879 	 74.3336
| 39> H 	 27.6912 	 14.3341 	 71.1809
| 40> H 	 33.9179 	 19.4481 	 69.2168
| 41> *
| 42>
| 43>                          ****END OF INPUT****

CARTESIAN COORDINATES (ANGSTROEM)
---------------------------------
  S     29.278900   16.109500   70.350600
  C     28.681000   14.738700   71.265100
  C     29.622300   14.153700   72.016800
  C     30.835000   14.844000   71.965900
  C     30.803400   15.968500   71.146500
  H     31.649100   14.614600   72.668500
  C     29.416800   13.019000   73.003500
  H     30.282100   12.340400   73.078600
  H     28.696800   12.357800   72.487600
  C     28.981000   13.540100   74.410300
  H     29.826000   14.166600   74.698600
  H     28.108000   14.176300   74.264200
  C     28.821000   12.520800   75.458300
  H     29.484800   11.694200   75.323700
  H     29.083000   12.967700   76.376900
  H     27.881600   12.009700   75.484000
  S     31.819300   18.121800   69.670200
  C     33.450100   18.702200   69.938900
  C     33.816500   18.210300   71.209400
  C     32.893800   17.339600   71.851500
  C     31.779300   17.063500   71.106400
  H     34.774300   18.547100   71.627000
  C     33.309000   16.597000   73.145000
  H     32.451500   16.311900   73.659000
  H     33.888800   17.255100   73.868700
  C     34.225300   15.390200   73.054300
  H     35.116700   15.731400   72.578900
  H     33.899900   14.710500   72.265200
  C     34.427500   14.684800   74.433300
  H     33.432900   14.303200   74.715300
  H     34.808800   15.270500   75.340600
  H     35.157300   13.887900   74.333600
  H     27.691200   14.334100   71.180900
  H     33.917900   19.448100   69.216800

 Total Charge           Charge          ....    0
 Multiplicity           Mult            ....    1
 Number of Electrons    NEL             ....  134
 Basis Dimension        Dim             ....  322

ORBITAL ENERGIES
----------------

  NO   OCC          E(Eh)            E(eV)
   0   2.0000     -88.968771     -2420.9633
   1   2.0000     -88.960978     -2420.7513
   2   2.0000     -10.332556      -281.1631
   3   2.0000     -10.332107      -281.1509
   4   2.0000     -10.330345      -281.1030
   5   2.0000     -10.308246      -280.5016
   6   2.0000     -10.306063      -280.4422
   7   2.0000     -10.300788      -280.2987
   8   2.0000     -10.295333      -280.1503
   9   2.0000     -10.292855      -280.0828
  10   2.0000     -10.292211      -280.0653
  11   2.0000     -10.291716      -280.0518
  12   2.0000     -10.291688      -280.0511
  13   2.0000     -10.286874      -279.9201
  14   2.0000     -10.286576      -279.9120
  15   2.0000     -10.268357      -279.4162
  16   2.0000      -8.083960      -219.9757
  17   2.0000      -8.075662      -219.7499
  18   2.0000      -6.042482      -164.4243
  19   2.0000      -6.038522      -164.3165
  20   2.0000      -6.034567      -164.2089
  21   2.0000      -6.034255      -164.2004
  22   2.0000      -6.030043      -164.0858
  23   2.0000      -6.026470      -163.9886
  24   2.0000      -1.012223       -27.5440
  25   2.0000      -0.987779       -26.8788
  26   2.0000      -0.916960       -24.9518
  27   2.0000      -0.909833       -24.7578
  28   2.0000      -0.874921       -23.8078
  29   2.0000      -0.856139       -23.2967
  30   2.0000      -0.843020       -22.9397
  31   2.0000      -0.813558       -22.1380
  32   2.0000      -0.784171       -21.3384
  33   2.0000      -0.777676       -21.1616
  34   2.0000      -0.709342       -19.3022
  35   2.0000      -0.704157       -19.1611
  36   2.0000      -0.699544       -19.0355
  37   2.0000      -0.665023       -18.0962
  38   2.0000      -0.635435       -17.2911
  39   2.0000      -0.626437       -17.0462
  40   2.0000      -0.599690       -16.3184
  41   2.0000      -0.573683       -15.6107
  42   2.0000      -0.562973       -15.3193
  43   2.0000      -0.559560       -15.2264
  44   2.0000      -0.536190       -14.5905
  45   2.0000      -0.528854       -14.3909
  46   2.0000      -0.521849       -14.2002
  47   2.0000      -0.514678       -14.0051
  48   2.0000      -0.502660       -13.6781
  49   2.0000      -0.499940       -13.6041
  50   2.0000      -0.491628       -13.3779
  51   2.0000      -0.487119       -13.2552
  52   2.0000      -0.472409       -12.8549
  53   2.0000      -0.467435       -12.7196
  54   2.0000      -0.456747       -12.4287
  55   2.0000      -0.449451       -12.2302
  56   2.0000      -0.445474       -12.1220
  57   2.0000      -0.441828       -12.0228
  58   2.0000      -0.434653       -11.8275
  59   2.0000      -0.429202       -11.6792
  60   2.0000      -0.417233       -11.3535
  61   2.0000      -0.414443       -11.2776
  62   2.0000      -0.407858       -11.0984
  63   2.0000      -0.361108        -9.8262
  64   2.0000      -0.338414        -9.2087
  65   2.0000      -0.328670        -8.9436
  66   2.0000      -0.284196        -7.7334
  67   0.0000       0.017378         0.4729
  68   0.0000       0.080771         2.1979
  69   0.0000       0.097035         2.6405
  70   0.0000       0.116792         3.1781
  71   0.0000       0.124821         3.3965

MULLIKEN ATOMIC CHARGES
-----------------------
   0 S :    0.114568
   1 C :   -0.127060
   2 C :   -0.065709
   3 C :   -0.018332
   4 C :   -0.085976
   5 H :   -0.000218
   6 C :    0.034188
   7 H :    0.021983
   8 H :    0.020224
   9 C :   -0.065476
  10 H :    0.019333
  11 H :    0.033118
  12 C :    0.032133
  13 H :    0.005254
  14 H :    0.024680
  15 H :    0.026379
  16 S :    0.066393
  17 C :   -0.124868
  18 C :   -0.043477
  19 C :   -0.038572
  20 C :   -0.092636
  21 H :    0.027555
  22 C :    0.023786
  23 H :    0.004480
  24 H :    0.029932
  25 C :   -0.043482
  26 H :    0.005390
  27 H :    0.026907
  28 C :   -0.061888
  29 H :    0.029843
  30 H :    0.047152
  31 H :    0.041331
  32 H :    0.033580
  33 H :    0.099481
Sum of atomic charges:    0.0000000

LOEWDIN ATOMIC CHARGES
----------------------
   0 S :    0.416127
   1 C :   -0.187669
   2 C :   -0.069374
   3 C :   -0.066994
   4 C :   -0.189357
   5 H :    0.033233
   6 C :   -0.034276
   7 H :    0.028253
   8 H :    0.027633
   9 C :   -0.036252
  10 H :    0.025972
  11 H :    0.027521
  12 C :   -0.060492
  13 H :    0.023626
  14 H :    0.025949
  15 H :    0.025317
  16 S :    0.379068
  17 C :   -0.193053
  18 C :   -0.075398
  19 C :   -0.063008
  20 C :   -0.177972
  21 H :    0.032079
  22 C :   -0.032640
  23 H :    0.011956
  24 H :    0.037906
  25 C :   -0.045678
  26 H :    0.018212
  27 H :    0.024385
  28 C :   -0.068497
  29 H :    0.024322
  30 H :    0.035841
  31 H :    0.027876
  32 H :    0.024578
  33 H :    0.050808

  Mayer bond orders larger than 0.100000
B(  0-S ,  1-C ) :   1.1316 B(  0-S ,  4-C ) :   1.1551 B(  1-C ,  2-C ) :   1.6316
B(  1-C , 32-H ) :   0.9639 B(  2-C ,  3-C ) :   1.2673 B(  2-C ,  6-C ) :   1.0250
B(  3-C ,  4-C ) :   1.5417 B(  3-C ,  5-H ) :   0.9880 B(  4-C , 20-C ) :   1.0547
B(  6-C ,  7-H ) :   0.9377 B(  6-C ,  8-H ) :   0.9376 B(  6-C ,  9-C ) :   1.0564
B(  9-C , 10-H ) :   0.9558 B(  9-C , 11-H ) :   0.9549 B(  9-C , 12-C ) :   1.0897
B( 12-C , 13-H ) :   0.9646 B( 12-C , 14-H ) :   0.9714 B( 12-C , 15-H ) :   0.9705
B( 16-S , 17-C ) :   1.1625 B( 16-S , 20-C ) :   1.1217 B( 17-C , 18-C ) :   1.5621
B( 17-C , 20-C ) :   0.1034 B( 17-C , 33-H ) :   0.9629 B( 18-C , 19-C ) :   1.2614
B( 18-C , 21-H ) :   0.9915 B( 19-C , 20-C ) :   1.5902 B( 19-C , 22-C ) :   1.0416
B( 22-C , 23-H ) :   0.9400 B( 22-C , 24-H ) :   0.9369 B( 22-C , 25-C ) :   1.0564
B( 25-C , 26-H ) :   0.9458 B( 25-C , 27-H ) :   0.9491 B( 25-C , 28-C ) :   1.0630
B( 28-C , 29-H ) :   0.9749 B( 28-C , 30-H ) :   0.9754 B( 28-C , 31-H ) :   0.9741

Dispersion correction           -0.014439523
FINAL SINGLE POINT ENERGY     -1339.868191018385

DIPOLE MOMENT
-------------
                                X             Y             Z
Electronic contribution:     -6.52981      19.41570     -26.87433
Nuclear contribution   :      6.84507     -19.81781      27.48938
                        -----------------------------------------
Total Dipole Moment    :      0.31526      -0.40211       0.61505
                        -----------------------------------------
Magnitude (a.u.)       :      0.79961
Magnitude (Debye)      :      2.03244

Rotational constants in cm-1:     0.018108     0.009555     0.006538
Rotational constants in MHz :   542.862255   286.457381   195.998631

                             ****ORCA TERMINATED NORMALLY****
TOTAL RUN TIME: 0 days 0 hours 0 minutes 28 seconds 962 msec
