                         Program Version 4.2.1 -  RELEASE  -
|  1> ! wB97X-D3 SP def2-SVP
|  2> %pal
|  3> nprocs 16
|  4> end
|  5>
|  6> * xyz 0 1
|  7> S 	 -12.014 	 65.9709 	 53.4601
|  8> C 	 -11.9979 	 64.3638 	 52.9571
|  9> C 	 -10.8418 	 64.0551 	 52.2181
| 10> C 	 -9.94935 	 65.1333 	 52.2111
| 11> C 	 -10.3975 	 66.2637 	 52.7873
| 12> H 	 -8.97334 	 65.2232 	 51.8195
| 13> C 	 -10.5276 	 62.7425 	 51.5568
| 14> H 	 -11.2756 	 62.0741 	 51.9606
| 15> H 	 -9.66375 	 62.3528 	 52.0834
| 16> C 	 -10.4621 	 62.6172 	 49.987
| 17> H 	 -11.3031 	 63.1071 	 49.5195
| 18> H 	 -9.60713 	 63.2637 	 49.6742
| 19> C 	 -10.4021 	 61.2327 	 49.313
| 20> H 	 -9.99649 	 61.4464 	 48.3218
| 21> H 	 -9.64521 	 60.5722 	 49.6972
| 22> H 	 -11.3633 	 60.7478 	 49.116
| 23> S 	 -9.96183 	 68.4199 	 54.4027
| 24> C 	 -9.10959 	 69.7992 	 53.7798
| 25> C 	 -8.49878 	 69.4823 	 52.5586
| 26> C 	 -8.82636 	 68.174 	 52.0975
| 27> C 	 -9.66822 	 67.4924 	 52.9685
| 28> H 	 -7.77479 	 70.1805 	 52.1264
| 29> C 	 -8.27653 	 67.6876 	 50.7308
| 30> H 	 -7.50334 	 67.018 	 50.9194
| 31> H 	 -7.9215 	 68.5744 	 50.3301
| 32> C 	 -9.25103 	 67.2013 	 49.6541
| 33> H 	 -10.1609 	 67.7114 	 49.8721
| 34> H 	 -9.50289 	 66.1711 	 49.6597
| 35> C 	 -8.81232 	 67.5674 	 48.2154
| 36> H 	 -8.6293 	 68.628 	 48.026
| 37> H 	 -9.57239 	 67.315 	 47.4785
| 38> H 	 -7.90047 	 66.9935 	 48.0182
| 39> H 	 -12.7042 	 63.6341 	 53.2493
| 40> H 	 -8.83157 	 70.6727 	 54.3719
| 41> *
| 42>
| 43>                          ****END OF INPUT****

CARTESIAN COORDINATES (ANGSTROEM)
---------------------------------
  S    -12.014000   65.970900   53.460100
  C    -11.997900   64.363800   52.957100
  C    -10.841800   64.055100   52.218100
  C     -9.949350   65.133300   52.211100
  C    -10.397500   66.263700   52.787300
  H     -8.973340   65.223200   51.819500
  C    -10.527600   62.742500   51.556800
  H    -11.275600   62.074100   51.960600
  H     -9.663750   62.352800   52.083400
  C    -10.462100   62.617200   49.987000
  H    -11.303100   63.107100   49.519500
  H     -9.607130   63.263700   49.674200
  C    -10.402100   61.232700   49.313000
  H     -9.996490   61.446400   48.321800
  H     -9.645210   60.572200   49.697200
  H    -11.363300   60.747800   49.116000
  S     -9.961830   68.419900   54.402700
  C     -9.109590   69.799200   53.779800
  C     -8.498780   69.482300   52.558600
  C     -8.826360   68.174000   52.097500
  C     -9.668220   67.492400   52.968500
  H     -7.774790   70.180500   52.126400
  C     -8.276530   67.687600   50.730800
  H     -7.503340   67.018000   50.919400
  H     -7.921500   68.574400   50.330100
  C     -9.251030   67.201300   49.654100
  H    -10.160900   67.711400   49.872100
  H     -9.502890   66.171100   49.659700
  C     -8.812320   67.567400   48.215400
  H     -8.629300   68.628000   48.026000
  H     -9.572390   67.315000   47.478500
  H     -7.900470   66.993500   48.018200
  H    -12.704200   63.634100   53.249300
  H     -8.831570   70.672700   54.371900

 Total Charge           Charge          ....    0
 Multiplicity           Mult            ....    1
 Number of Electrons    NEL             ....  134
 Basis Dimension        Dim             ....  322

ORBITAL ENERGIES
----------------

  NO   OCC          E(Eh)            E(eV)
   0   2.0000     -88.966688     -2420.9067
   1   2.0000     -88.965033     -2420.8616
   2   2.0000     -10.323871      -280.9268
   3   2.0000     -10.321694      -280.8676
   4   2.0000     -10.318057      -280.7686
   5   2.0000     -10.308653      -280.5127
   6   2.0000     -10.303952      -280.3848
   7   2.0000     -10.298490      -280.2362
   8   2.0000     -10.297416      -280.2069
   9   2.0000     -10.295096      -280.1438
  10   2.0000     -10.289629      -279.9950
  11   2.0000     -10.283748      -279.8350
  12   2.0000     -10.281655      -279.7781
  13   2.0000     -10.281064      -279.7620
  14   2.0000     -10.277965      -279.6776
  15   2.0000     -10.277599      -279.6677
  16   2.0000      -8.081817      -219.9174
  17   2.0000      -8.080506      -219.8818
  18   2.0000      -6.040235      -164.3631
  19   2.0000      -6.038855      -164.3256
  20   2.0000      -6.036182      -164.2528
  21   2.0000      -6.034888      -164.2177
  22   2.0000      -6.032737      -164.1591
  23   2.0000      -6.031405      -164.1229
  24   2.0000      -1.012668       -27.5561
  25   2.0000      -0.988694       -26.9037
  26   2.0000      -0.910610       -24.7790
  27   2.0000      -0.903789       -24.5934
  28   2.0000      -0.873773       -23.7766
  29   2.0000      -0.857168       -23.3247
  30   2.0000      -0.849361       -23.1123
  31   2.0000      -0.818361       -22.2687
  32   2.0000      -0.784451       -21.3460
  33   2.0000      -0.771132       -20.9836
  34   2.0000      -0.711308       -19.3557
  35   2.0000      -0.705755       -19.2046
  36   2.0000      -0.692675       -18.8487
  37   2.0000      -0.666555       -18.1379
  38   2.0000      -0.646560       -17.5938
  39   2.0000      -0.621111       -16.9013
  40   2.0000      -0.592932       -16.1345
  41   2.0000      -0.574533       -15.6338
  42   2.0000      -0.566410       -15.4128
  43   2.0000      -0.554242       -15.0817
  44   2.0000      -0.527912       -14.3652
  45   2.0000      -0.525502       -14.2996
  46   2.0000      -0.519967       -14.1490
  47   2.0000      -0.509636       -13.8679
  48   2.0000      -0.506521       -13.7831
  49   2.0000      -0.505849       -13.7649
  50   2.0000      -0.490552       -13.3486
  51   2.0000      -0.481557       -13.1038
  52   2.0000      -0.477138       -12.9836
  53   2.0000      -0.468419       -12.7463
  54   2.0000      -0.461009       -12.5447
  55   2.0000      -0.447823       -12.1859
  56   2.0000      -0.443305       -12.0629
  57   2.0000      -0.436238       -11.8706
  58   2.0000      -0.433840       -11.8054
  59   2.0000      -0.431584       -11.7440
  60   2.0000      -0.424729       -11.5575
  61   2.0000      -0.412004       -11.2112
  62   2.0000      -0.408864       -11.1258
  63   2.0000      -0.357804        -9.7363
  64   2.0000      -0.333543        -9.0762
  65   2.0000      -0.329405        -8.9636
  66   2.0000      -0.283384        -7.7113
  67   0.0000       0.024187         0.6582
  68   0.0000       0.080421         2.1884
  69   0.0000       0.111152         3.0246
  70   0.0000       0.124513         3.3882
  71   0.0000       0.131605         3.5812

MULLIKEN ATOMIC CHARGES
-----------------------
   0 S :    0.121125
   1 C :   -0.101518
   2 C :   -0.108890
   3 C :    0.020753
   4 C :   -0.132255
   5 H :   -0.011854
   6 C :    0.108233
   7 H :   -0.007021
   8 H :    0.025880
   9 C :   -0.080159
  10 H :    0.028314
  11 H :    0.033741
  12 C :   -0.037326
  13 H :    0.022866
  14 H :    0.029551
  15 H :    0.046856
  16 S :    0.113939
  17 C :   -0.105339
  18 C :   -0.049861
  19 C :   -0.087945
  20 C :   -0.146532
  21 H :    0.029917
  22 C :    0.144731
  23 H :    0.032073
  24 H :   -0.016083
  25 C :   -0.057423
  26 H :    0.024545
  27 H :    0.028305
  28 C :   -0.069626
  29 H :    0.031812
  30 H :    0.034675
  31 H :    0.032566
  32 H :    0.035804
  33 H :    0.066148
Sum of atomic charges:    0.0000000

LOEWDIN ATOMIC CHARGES
----------------------
   0 S :    0.421770
   1 C :   -0.210172
   2 C :   -0.065236
   3 C :   -0.059696
   4 C :   -0.185268
   5 H :    0.026972
   6 C :   -0.039535
   7 H :    0.025227
   8 H :    0.032334
   9 C :   -0.041192
  10 H :    0.026738
  11 H :    0.025377
  12 C :   -0.068145
  13 H :    0.033070
  14 H :    0.023172
  15 H :    0.029580
  16 S :    0.423661
  17 C :   -0.197797
  18 C :   -0.073474
  19 C :   -0.056528
  20 C :   -0.204108
  21 H :    0.034807
  22 C :   -0.018268
  23 H :    0.022025
  24 H :    0.023757
  25 C :   -0.036429
  26 H :    0.025147
  27 H :    0.017414
  28 C :   -0.065161
  29 H :    0.022843
  30 H :    0.027438
  31 H :    0.024638
  32 H :    0.022201
  33 H :    0.032839

  Mayer bond orders larger than 0.100000
B(  0-S ,  1-C ) :   1.1666 B(  0-S ,  4-C ) :   1.1319 B(  1-C ,  2-C ) :   1.5719
B(  1-C , 32-H ) :   0.9694 B(  2-C ,  3-C ) :   1.2471 B(  2-C ,  6-C ) :   1.0339
B(  3-C ,  4-C ) :   1.5778 B(  3-C ,  5-H ) :   1.0042 B(  4-C , 20-C ) :   1.0760
B(  6-C ,  7-H ) :   0.9289 B(  6-C ,  8-H ) :   0.9332 B(  6-C ,  9-C ) :   1.0429
B(  9-C , 10-H ) :   0.9571 B(  9-C , 11-H ) :   0.9585 B(  9-C , 12-C ) :   1.0846
B( 12-C , 13-H ) :   0.9685 B( 12-C , 14-H ) :   0.9745 B( 12-C , 15-H ) :   0.9771
B( 16-S , 17-C ) :   1.1673 B( 16-S , 20-C ) :   1.1501 B( 17-C , 18-C ) :   1.5780
B( 17-C , 20-C ) :   0.1005 B( 17-C , 33-H ) :   0.9640 B( 18-C , 19-C ) :   1.2938
B( 18-C , 21-H ) :   0.9828 B( 19-C , 20-C ) :   1.5518 B( 19-C , 22-C ) :   1.0286
B( 22-C , 23-H ) :   0.9264 B( 22-C , 24-H ) :   0.9214 B( 22-C , 25-C ) :   1.0597
B( 25-C , 26-H ) :   0.9546 B( 25-C , 27-H ) :   0.9477 B( 25-C , 28-C ) :   1.0957
B( 28-C , 29-H ) :   0.9736 B( 28-C , 30-H ) :   0.9748 B( 28-C , 31-H ) :   0.9774

Dispersion correction           -0.014417284
FINAL SINGLE POINT ENERGY     -1339.871706405019

DIPOLE MOMENT
-------------
                                X             Y             Z
Electronic contribution:     -8.19013      15.54580      28.19097
Nuclear contribution   :      8.58666     -15.78757     -28.71332
                        -----------------------------------------
Total Dipole Moment    :      0.39653      -0.24176      -0.52235
                        -----------------------------------------
Magnitude (a.u.)       :      0.69895
Magnitude (Debye)      :      1.77660

Rotational constants in cm-1:     0.018701     0.009163     0.006582
Rotational constants in MHz :   560.632674   274.700626   197.313502

                             ****ORCA TERMINATED NORMALLY****
TOTAL RUN TIME: 0 days 0 hours 0 minutes 34 seconds 54 msec
