                         Program Version 4.2.1 -  RELEASE  -
|  1> ! wB97X-D3 SP def2-SVP
|  2> %pal
|  3> nprocs 16
|  4> end
|  5>
|  6> * xyz 0 1
|  7> S 	 -73.9398 	 53.1904 	 137.241
|  8> C 	 -73.2134 	 54.7219 	 137.986
|  9> C 	 -74.1115 	 55.4424 	 138.687
| 10> C 	 -75.3897 	 54.8062 	 138.769
| 11> C 	 -75.5084 	 53.6357 	 137.987
| 12> H 	 -76.2786 	 55.1664 	 139.142
| 13> C 	 -73.7873 	 56.7275 	 139.409
| 14> H 	 -74.7207 	 56.9818 	 139.861
| 15> H 	 -73.358 	 57.4192 	 138.718
| 16> C 	 -72.773 	 56.4797 	 140.634
| 17> H 	 -73.2521 	 55.6062 	 141.127
| 18> H 	 -71.8427 	 56.1147 	 140.226
| 19> C 	 -72.5453 	 57.6002 	 141.604
| 20> H 	 -71.9708 	 58.4273 	 141.235
| 21> H 	 -73.4669 	 57.9076 	 142.028
| 22> H 	 -72.078 	 57.0962 	 142.459
| 23> S 	 -77.2729 	 52.6088 	 136.118
| 24> C 	 -78.6632 	 51.7543 	 136.721
| 25> C 	 -78.7073 	 51.6843 	 138.127
| 26> C 	 -77.5606 	 52.3187 	 138.761
| 27> C 	 -76.7148 	 52.8275 	 137.777
| 28> H 	 -79.4327 	 51.0883 	 138.61
| 29> C 	 -77.2536 	 52.3468 	 140.261
| 30> H 	 -78.1144 	 52.0491 	 140.871
| 31> H 	 -77.0226 	 53.4347 	 140.456
| 32> C 	 -76.1334 	 51.4445 	 140.66
| 33> H 	 -75.7778 	 51.4596 	 141.685
| 34> H 	 -75.1441 	 51.7911 	 140.142
| 35> C 	 -76.3735 	 50.0145 	 140.241
| 36> H 	 -76.2396 	 49.9018 	 139.145
| 37> H 	 -77.2572 	 49.5522 	 140.604
| 38> H 	 -75.4837 	 49.476 	 140.619
| 39> H 	 -72.1974 	 55.0739 	 137.923
| 40> H 	 -79.3793 	 51.2212 	 136.118
| 41> *
| 42>
| 43>                          ****END OF INPUT****

CARTESIAN COORDINATES (ANGSTROEM)
---------------------------------
  S    -73.939800   53.190400  137.241000
  C    -73.213400   54.721900  137.986000
  C    -74.111500   55.442400  138.687000
  C    -75.389700   54.806200  138.769000
  C    -75.508400   53.635700  137.987000
  H    -76.278600   55.166400  139.142000
  C    -73.787300   56.727500  139.409000
  H    -74.720700   56.981800  139.861000
  H    -73.358000   57.419200  138.718000
  C    -72.773000   56.479700  140.634000
  H    -73.252100   55.606200  141.127000
  H    -71.842700   56.114700  140.226000
  C    -72.545300   57.600200  141.604000
  H    -71.970800   58.427300  141.235000
  H    -73.466900   57.907600  142.028000
  H    -72.078000   57.096200  142.459000
  S    -77.272900   52.608800  136.118000
  C    -78.663200   51.754300  136.721000
  C    -78.707300   51.684300  138.127000
  C    -77.560600   52.318700  138.761000
  C    -76.714800   52.827500  137.777000
  H    -79.432700   51.088300  138.610000
  C    -77.253600   52.346800  140.261000
  H    -78.114400   52.049100  140.871000
  H    -77.022600   53.434700  140.456000
  C    -76.133400   51.444500  140.660000
  H    -75.777800   51.459600  141.685000
  H    -75.144100   51.791100  140.142000
  C    -76.373500   50.014500  140.241000
  H    -76.239600   49.901800  139.145000
  H    -77.257200   49.552200  140.604000
  H    -75.483700   49.476000  140.619000
  H    -72.197400   55.073900  137.923000
  H    -79.379300   51.221200  136.118000

 Total Charge           Charge          ....    0
 Multiplicity           Mult            ....    1
 Number of Electrons    NEL             ....  134
 Basis Dimension        Dim             ....  322

ORBITAL ENERGIES
----------------

  NO   OCC          E(Eh)            E(eV)
   0   2.0000     -88.971053     -2421.0254
   1   2.0000     -88.968135     -2420.9460
   2   2.0000     -10.335277      -281.2372
   3   2.0000     -10.326870      -281.0084
   4   2.0000     -10.319502      -280.8079
   5   2.0000     -10.313776      -280.6521
   6   2.0000     -10.309271      -280.5295
   7   2.0000     -10.297564      -280.2110
   8   2.0000     -10.297201      -280.2011
   9   2.0000     -10.295803      -280.1630
  10   2.0000     -10.291743      -280.0526
  11   2.0000     -10.290746      -280.0254
  12   2.0000     -10.289828      -280.0005
  13   2.0000     -10.283482      -279.8278
  14   2.0000     -10.275587      -279.6129
  15   2.0000     -10.269659      -279.4516
  16   2.0000      -8.085463      -220.0166
  17   2.0000      -8.080455      -219.8804
  18   2.0000      -6.043907      -164.4631
  19   2.0000      -6.040065      -164.3585
  20   2.0000      -6.039204      -164.3351
  21   2.0000      -6.036263      -164.2551
  22   2.0000      -6.035399      -164.2316
  23   2.0000      -6.031005      -164.1120
  24   2.0000      -0.998709       -27.1763
  25   2.0000      -0.974392       -26.5146
  26   2.0000      -0.913294       -24.8520
  27   2.0000      -0.908350       -24.7175
  28   2.0000      -0.868043       -23.6207
  29   2.0000      -0.849335       -23.1116
  30   2.0000      -0.842578       -22.9277
  31   2.0000      -0.811669       -22.0866
  32   2.0000      -0.786295       -21.3962
  33   2.0000      -0.773728       -21.0542
  34   2.0000      -0.707585       -19.2544
  35   2.0000      -0.699972       -19.0472
  36   2.0000      -0.682950       -18.5840
  37   2.0000      -0.663851       -18.0643
  38   2.0000      -0.639251       -17.3949
  39   2.0000      -0.612508       -16.6672
  40   2.0000      -0.589571       -16.0430
  41   2.0000      -0.573322       -15.6009
  42   2.0000      -0.560208       -15.2440
  43   2.0000      -0.555088       -15.1047
  44   2.0000      -0.548281       -14.9195
  45   2.0000      -0.527050       -14.3418
  46   2.0000      -0.519713       -14.1421
  47   2.0000      -0.514692       -14.0055
  48   2.0000      -0.498844       -13.5742
  49   2.0000      -0.496468       -13.5096
  50   2.0000      -0.486745       -13.2450
  51   2.0000      -0.479544       -13.0491
  52   2.0000      -0.472145       -12.8477
  53   2.0000      -0.467538       -12.7224
  54   2.0000      -0.458700       -12.4819
  55   2.0000      -0.448885       -12.2148
  56   2.0000      -0.442804       -12.0493
  57   2.0000      -0.431443       -11.7402
  58   2.0000      -0.429467       -11.6864
  59   2.0000      -0.424655       -11.5555
  60   2.0000      -0.421996       -11.4831
  61   2.0000      -0.415462       -11.3053
  62   2.0000      -0.402158       -10.9433
  63   2.0000      -0.338486        -9.2107
  64   2.0000      -0.334491        -9.1020
  65   2.0000      -0.331594        -9.0231
  66   2.0000      -0.291494        -7.9320
  67   0.0000       0.025580         0.6961
  68   0.0000       0.064309         1.7499
  69   0.0000       0.100820         2.7435
  70   0.0000       0.116524         3.1708
  71   0.0000       0.127796         3.4775

MULLIKEN ATOMIC CHARGES
-----------------------
   0 S :    0.090803
   1 C :   -0.124134
   2 C :   -0.088099
   3 C :    0.059491
   4 C :   -0.176626
   5 H :   -0.008621
   6 C :    0.120731
   7 H :    0.007315
   8 H :    0.035705
   9 C :   -0.133951
  10 H :    0.033129
  11 H :    0.021647
  12 C :    0.014219
  13 H :    0.040775
  14 H :    0.012639
  15 H :    0.032219
  16 S :    0.130604
  17 C :   -0.091048
  18 C :   -0.024540
  19 C :   -0.055532
  20 C :   -0.176196
  21 H :    0.005288
  22 C :    0.115076
  23 H :    0.022129
  24 H :    0.031365
  25 C :   -0.106243
  26 H :    0.028199
  27 H :    0.039622
  28 C :   -0.049452
  29 H :    0.048910
  30 H :    0.027188
  31 H :    0.026489
  32 H :    0.036391
  33 H :    0.054508
Sum of atomic charges:   -0.0000000

LOEWDIN ATOMIC CHARGES
----------------------
   0 S :    0.345015
   1 C :   -0.167559
   2 C :   -0.062207
   3 C :   -0.057621
   4 C :   -0.169515
   5 H :    0.016432
   6 C :   -0.021008
   7 H :    0.025099
   8 H :    0.028027
   9 C :   -0.037984
  10 H :    0.028911
  11 H :    0.016040
  12 C :   -0.062244
  13 H :    0.025116
  14 H :    0.020643
  15 H :    0.036650
  16 S :    0.413973
  17 C :   -0.188353
  18 C :   -0.062858
  19 C :   -0.045319
  20 C :   -0.205495
  21 H :    0.023320
  22 C :   -0.035584
  23 H :    0.030223
  24 H :    0.037792
  25 C :   -0.053689
  26 H :    0.022261
  27 H :    0.035254
  28 C :   -0.068055
  29 H :    0.033196
  30 H :    0.015126
  31 H :    0.031370
  32 H :    0.025867
  33 H :    0.027176

  Mayer bond orders larger than 0.100000
B(  0-S ,  1-C ) :   1.0959 B(  0-S ,  4-C ) :   1.1275 B(  1-C ,  2-C ) :   1.6651
B(  1-C , 32-H ) :   0.9664 B(  2-C ,  3-C ) :   1.2069 B(  2-C ,  6-C ) :   1.0213
B(  3-C ,  4-C ) :   1.6071 B(  3-C ,  5-H ) :   0.9893 B(  4-C , 20-C ) :   1.0346
B(  6-C ,  7-H ) :   0.9364 B(  6-C ,  8-H ) :   0.9364 B(  6-C ,  9-C ) :   1.0553
B(  9-C , 10-H ) :   0.9584 B(  9-C , 11-H ) :   0.9569 B(  9-C , 12-C ) :   1.0935
B( 12-C , 13-H ) :   0.9736 B( 12-C , 14-H ) :   0.9681 B( 12-C , 15-H ) :   0.9673
B( 16-S , 17-C ) :   1.1538 B( 16-S , 20-C ) :   1.1464 B( 17-C , 18-C ) :   1.6150
B( 17-C , 33-H ) :   0.9672 B( 18-C , 19-C ) :   1.2319 B( 18-C , 21-H ) :   0.9924
B( 19-C , 20-C ) :   1.5891 B( 19-C , 22-C ) :   1.0310 B( 22-C , 23-H ) :   0.9372
B( 22-C , 24-H ) :   0.9250 B( 22-C , 25-C ) :   1.0714 B( 25-C , 26-H ) :   0.9604
B( 25-C , 27-H ) :   0.9470 B( 25-C , 28-C ) :   1.0773 B( 28-C , 29-H ) :   0.9691
B( 28-C , 30-H ) :   0.9779 B( 28-C , 31-H ) :   0.9697

Dispersion correction           -0.015139969
FINAL SINGLE POINT ENERGY     -1339.866944564545

DIPOLE MOMENT
-------------
                                X             Y             Z
Electronic contribution:     -7.11539      -6.05323     -24.70993
Nuclear contribution   :      7.07308       6.24894      25.33415
                        -----------------------------------------
Total Dipole Moment    :     -0.04231       0.19571       0.62422
                        -----------------------------------------
Magnitude (a.u.)       :      0.65555
Magnitude (Debye)      :      1.66628

Rotational constants in cm-1:     0.021911     0.007931     0.006894
Rotational constants in MHz :   656.885082   237.764673   206.672298

                             ****ORCA TERMINATED NORMALLY****
TOTAL RUN TIME: 0 days 0 hours 0 minutes 35 seconds 753 msec
