                         Program Version 4.2.1 -  RELEASE  -
|  1> ! wB97X-D3 SP def2-SVP
|  2> %pal
|  3> nprocs 16
|  4> end
|  5>
|  6> * xyz 0 1
|  7> S 	 -57.6651 	 40.292 	 133.662
|  8> C 	 -56.27 	 39.8602 	 134.593
|  9> C 	 -56.5587 	 39.6584 	 135.893
| 10> C 	 -57.9486 	 39.8744 	 136.201
| 11> C 	 -58.682 	 40.3305 	 135.084
| 12> H 	 -58.4716 	 39.7031 	 137.13
| 13> C 	 -55.5806 	 39.0058 	 136.825
| 14> H 	 -54.8256 	 38.4213 	 136.2
| 15> H 	 -56.035 	 38.1122 	 137.326
| 16> C 	 -54.8217 	 39.8679 	 137.758
| 17> H 	 -54.4885 	 40.8092 	 137.262
| 18> H 	 -55.4632 	 40.1725 	 138.569
| 19> C 	 -53.5804 	 39.2435 	 138.522
| 20> H 	 -53.0784 	 39.9911 	 139.162
| 21> H 	 -53.953 	 38.3029 	 139.102
| 22> H 	 -52.7606 	 38.8783 	 137.937
| 23> S 	 -60.8668 	 41.5853 	 136.277
| 24> C 	 -62.4707 	 41.3516 	 135.546
| 25> C 	 -62.3807 	 40.6802 	 134.393
| 26> C 	 -61.0687 	 40.1614 	 134.049
| 27> C 	 -60.1368 	 40.5617 	 135.039
| 28> H 	 -63.2661 	 40.5801 	 133.805
| 29> C 	 -60.8186 	 39.4567 	 132.75
| 30> H 	 -59.8774 	 38.9176 	 132.671
| 31> H 	 -60.7445 	 40.2266 	 132.096
| 32> C 	 -61.9739 	 38.5248 	 132.269
| 33> H 	 -62.9816 	 38.9967 	 132.314
| 34> H 	 -62.0764 	 37.7042 	 132.912
| 35> C 	 -61.7289 	 38.0251 	 130.874
| 36> H 	 -61.9284 	 38.862 	 130.217
| 37> H 	 -62.4092 	 37.1844 	 130.676
| 38> H 	 -60.6822 	 37.6929 	 130.774
| 39> H 	 -55.2747 	 39.805 	 134.137
| 40> H 	 -63.3834 	 41.9154 	 135.74
| 41> *
| 42>
| 43>                          ****END OF INPUT****

CARTESIAN COORDINATES (ANGSTROEM)
---------------------------------
  S    -57.665100   40.292000  133.662000
  C    -56.270000   39.860200  134.593000
  C    -56.558700   39.658400  135.893000
  C    -57.948600   39.874400  136.201000
  C    -58.682000   40.330500  135.084000
  H    -58.471600   39.703100  137.130000
  C    -55.580600   39.005800  136.825000
  H    -54.825600   38.421300  136.200000
  H    -56.035000   38.112200  137.326000
  C    -54.821700   39.867900  137.758000
  H    -54.488500   40.809200  137.262000
  H    -55.463200   40.172500  138.569000
  C    -53.580400   39.243500  138.522000
  H    -53.078400   39.991100  139.162000
  H    -53.953000   38.302900  139.102000
  H    -52.760600   38.878300  137.937000
  S    -60.866800   41.585300  136.277000
  C    -62.470700   41.351600  135.546000
  C    -62.380700   40.680200  134.393000
  C    -61.068700   40.161400  134.049000
  C    -60.136800   40.561700  135.039000
  H    -63.266100   40.580100  133.805000
  C    -60.818600   39.456700  132.750000
  H    -59.877400   38.917600  132.671000
  H    -60.744500   40.226600  132.096000
  C    -61.973900   38.524800  132.269000
  H    -62.981600   38.996700  132.314000
  H    -62.076400   37.704200  132.912000
  C    -61.728900   38.025100  130.874000
  H    -61.928400   38.862000  130.217000
  H    -62.409200   37.184400  130.676000
  H    -60.682200   37.692900  130.774000
  H    -55.274700   39.805000  134.137000
  H    -63.383400   41.915400  135.740000

 Total Charge           Charge          ....    0
 Multiplicity           Mult            ....    1
 Number of Electrons    NEL             ....  134
 Basis Dimension        Dim             ....  322

ORBITAL ENERGIES
----------------

  NO   OCC          E(Eh)            E(eV)
   0   2.0000     -88.967794     -2420.9367
   1   2.0000     -88.966311     -2420.8964
   2   2.0000     -10.332856      -281.1713
   3   2.0000     -10.331618      -281.1376
   4   2.0000     -10.313235      -280.6374
   5   2.0000     -10.311656      -280.5944
   6   2.0000     -10.307406      -280.4788
   7   2.0000     -10.299053      -280.2515
   8   2.0000     -10.297006      -280.1958
   9   2.0000     -10.294727      -280.1338
  10   2.0000     -10.288933      -279.9761
  11   2.0000     -10.287861      -279.9469
  12   2.0000     -10.286995      -279.9234
  13   2.0000     -10.285522      -279.8833
  14   2.0000     -10.281756      -279.7808
  15   2.0000     -10.277197      -279.6567
  16   2.0000      -8.082505      -219.9361
  17   2.0000      -8.080156      -219.8722
  18   2.0000      -6.041008      -164.3842
  19   2.0000      -6.038880      -164.3263
  20   2.0000      -6.036978      -164.2745
  21   2.0000      -6.034897      -164.2179
  22   2.0000      -6.033322      -164.1751
  23   2.0000      -6.030636      -164.1019
  24   2.0000      -1.004718       -27.3398
  25   2.0000      -0.983814       -26.7709
  26   2.0000      -0.914185       -24.8762
  27   2.0000      -0.911306       -24.7979
  28   2.0000      -0.870069       -23.6758
  29   2.0000      -0.853392       -23.2220
  30   2.0000      -0.844026       -22.9671
  31   2.0000      -0.817056       -22.2332
  32   2.0000      -0.782693       -21.2982
  33   2.0000      -0.770099       -20.9554
  34   2.0000      -0.705733       -19.2040
  35   2.0000      -0.702938       -19.1279
  36   2.0000      -0.692909       -18.8550
  37   2.0000      -0.657595       -17.8941
  38   2.0000      -0.639534       -17.4026
  39   2.0000      -0.615313       -16.7435
  40   2.0000      -0.599728       -16.3194
  41   2.0000      -0.574304       -15.6276
  42   2.0000      -0.570844       -15.5335
  43   2.0000      -0.551123       -14.9968
  44   2.0000      -0.530397       -14.4328
  45   2.0000      -0.525775       -14.3071
  46   2.0000      -0.518115       -14.0986
  47   2.0000      -0.511406       -13.9161
  48   2.0000      -0.511043       -13.9062
  49   2.0000      -0.496603       -13.5133
  50   2.0000      -0.489050       -13.3077
  51   2.0000      -0.477647       -12.9974
  52   2.0000      -0.468169       -12.7395
  53   2.0000      -0.463736       -12.6189
  54   2.0000      -0.460229       -12.5235
  55   2.0000      -0.454366       -12.3639
  56   2.0000      -0.443675       -12.0730
  57   2.0000      -0.441014       -12.0006
  58   2.0000      -0.430640       -11.7183
  59   2.0000      -0.423678       -11.5289
  60   2.0000      -0.420770       -11.4497
  61   2.0000      -0.417865       -11.3707
  62   2.0000      -0.404949       -11.0192
  63   2.0000      -0.354627        -9.6499
  64   2.0000      -0.333045        -9.0626
  65   2.0000      -0.328140        -8.9291
  66   2.0000      -0.288667        -7.8550
  67   0.0000       0.028781         0.7832
  68   0.0000       0.077234         2.1017
  69   0.0000       0.108132         2.9424
  70   0.0000       0.114529         3.1165
  71   0.0000       0.136287         3.7086

MULLIKEN ATOMIC CHARGES
-----------------------
   0 S :    0.102212
   1 C :   -0.133793
   2 C :   -0.036372
   3 C :    0.020090
   4 C :   -0.150153
   5 H :    0.017209
   6 C :    0.020025
   7 H :    0.018702
   8 H :    0.033541
   9 C :   -0.056097
  10 H :    0.034043
  11 H :    0.027969
  12 C :   -0.085964
  13 H :    0.043595
  14 H :    0.041104
  15 H :    0.025167
  16 S :    0.100613
  17 C :   -0.077666
  18 C :   -0.047058
  19 C :   -0.033618
  20 C :   -0.153197
  21 H :    0.010337
  22 C :    0.105740
  23 H :    0.027817
  24 H :    0.011369
  25 C :   -0.100536
  26 H :    0.028599
  27 H :    0.019458
  28 C :   -0.034718
  29 H :    0.031747
  30 H :    0.038781
  31 H :    0.032615
  32 H :    0.059599
  33 H :    0.058842
Sum of atomic charges:   -0.0000000

LOEWDIN ATOMIC CHARGES
----------------------
   0 S :    0.420137
   1 C :   -0.197576
   2 C :   -0.069531
   3 C :   -0.059405
   4 C :   -0.192235
   5 H :    0.030583
   6 C :   -0.044475
   7 H :    0.033644
   8 H :    0.036538
   9 C :   -0.047035
  10 H :    0.028534
  11 H :    0.023892
  12 C :   -0.074758
  13 H :    0.030982
  14 H :    0.034202
  15 H :    0.015924
  16 S :    0.386874
  17 C :   -0.183526
  18 C :   -0.067712
  19 C :   -0.049135
  20 C :   -0.193857
  21 H :    0.026584
  22 C :   -0.029768
  23 H :    0.025484
  24 H :    0.022467
  25 C :   -0.037807
  26 H :    0.024457
  27 H :    0.015528
  28 C :   -0.061028
  29 H :    0.024295
  30 H :    0.029967
  31 H :    0.026733
  32 H :    0.033924
  33 H :    0.037101

  Mayer bond orders larger than 0.100000
B(  0-S ,  1-C ) :   1.1409 B(  0-S ,  4-C ) :   1.1573 B(  1-C ,  2-C ) :   1.6193
B(  1-C , 32-H ) :   0.9645 B(  2-C ,  3-C ) :   1.2380 B(  2-C ,  6-C ) :   1.0179
B(  3-C ,  4-C ) :   1.5527 B(  3-C ,  5-H ) :   0.9964 B(  4-C , 20-C ) :   1.0455
B(  6-C ,  7-H ) :   0.9484 B(  6-C ,  8-H ) :   0.9383 B(  6-C ,  9-C ) :   1.0610
B(  9-C , 10-H ) :   0.9556 B(  9-C , 11-H ) :   0.9528 B(  9-C , 12-C ) :   1.0728
B( 12-C , 13-H ) :   0.9762 B( 12-C , 14-H ) :   0.9745 B( 12-C , 15-H ) :   0.9773
B( 16-S , 17-C ) :   1.1167 B( 16-S , 20-C ) :   1.1389 B( 17-C , 18-C ) :   1.6782
B( 17-C , 33-H ) :   0.9573 B( 18-C , 19-C ) :   1.2095 B( 18-C , 21-H ) :   0.9847
B( 19-C , 20-C ) :   1.5861 B( 19-C , 22-C ) :   1.0374 B( 22-C , 23-H ) :   0.9259
B( 22-C , 24-H ) :   0.9245 B( 22-C , 25-C ) :   1.0585 B( 25-C , 26-H ) :   0.9504
B( 25-C , 27-H ) :   0.9583 B( 25-C , 28-C ) :   1.0905 B( 28-C , 29-H ) :   0.9768
B( 28-C , 30-H ) :   0.9723 B( 28-C , 31-H ) :   0.9719

Dispersion correction           -0.013263845
FINAL SINGLE POINT ENERGY     -1339.874951971389

DIPOLE MOMENT
-------------
                                X             Y             Z
Electronic contribution:     -8.54191      13.01546       1.19161
Nuclear contribution   :      8.52906     -13.30273      -1.41689
                        -----------------------------------------
Total Dipole Moment    :     -0.01285      -0.28727      -0.22529
                        -----------------------------------------
Magnitude (a.u.)       :      0.36530
Magnitude (Debye)      :      0.92851

Rotational constants in cm-1:     0.022733     0.006845     0.005631
Rotational constants in MHz :   681.524369   205.214681   168.801246

                             ****ORCA TERMINATED NORMALLY****
TOTAL RUN TIME: 0 days 0 hours 0 minutes 32 seconds 910 msec
