                         Program Version 4.2.1 -  RELEASE  -
|  1> ! wB97X-D3 SP def2-SVP
|  2> %pal
|  3> nprocs 16
|  4> end
|  5>
|  6> * xyz 0 1
|  7> S 	 43.5379 	 26.0407 	 93.1578
|  8> C 	 44.8627 	 26.4128 	 94.2301
|  9> C 	 44.5529 	 26.258 	 95.5675
| 10> C 	 43.2015 	 25.8786 	 95.7525
| 11> C 	 42.5128 	 25.6857 	 94.5393
| 12> H 	 42.6552 	 25.6914 	 96.6833
| 13> C 	 45.4674 	 26.7824 	 96.6234
| 14> H 	 45.499 	 27.8867 	 96.5801
| 15> H 	 46.4282 	 26.3708 	 96.4341
| 16> C 	 45.0676 	 26.3544 	 98.0817
| 17> H 	 43.9413 	 26.3739 	 98.2294
| 18> H 	 45.2954 	 25.2505 	 98.1383
| 19> C 	 45.6701 	 27.1782 	 99.1755
| 20> H 	 46.7202 	 27.3788 	 98.8976
| 21> H 	 45.1773 	 28.1076 	 99.3774
| 22> H 	 45.6509 	 26.6281 	 100.146
| 23> S 	 40.146 	 26.8962 	 94.7694
| 24> C 	 38.7401 	 26.2539 	 93.9228
| 25> C 	 39.0089 	 25.0861 	 93.2634
| 26> C 	 40.3595 	 24.644 	 93.5177
| 27> C 	 41.1237 	 25.5098 	 94.2605
| 28> H 	 38.2687 	 24.6319 	 92.6596
| 29> C 	 40.9806 	 23.4172 	 92.8123
| 30> H 	 40.322 	 22.515 	 92.8282
| 31> H 	 41.9594 	 23.2555 	 93.2663
| 32> C 	 41.3181 	 23.7189 	 91.3854
| 33> H 	 42.2748 	 24.1758 	 91.4633
| 34> H 	 40.7199 	 24.4657 	 90.907
| 35> C 	 41.3026 	 22.4873 	 90.5057
| 36> H 	 40.2185 	 22.2229 	 90.5231
| 37> H 	 41.9753 	 21.633 	 90.8278
| 38> H 	 41.6023 	 22.6502 	 89.4882
| 39> H 	 45.6891 	 26.9985 	 93.8941
| 40> H 	 37.7263 	 26.6933 	 93.8563
| 41> *
| 42>
| 43>                          ****END OF INPUT****

CARTESIAN COORDINATES (ANGSTROEM)
---------------------------------
  S     43.537900   26.040700   93.157800
  C     44.862700   26.412800   94.230100
  C     44.552900   26.258000   95.567500
  C     43.201500   25.878600   95.752500
  C     42.512800   25.685700   94.539300
  H     42.655200   25.691400   96.683300
  C     45.467400   26.782400   96.623400
  H     45.499000   27.886700   96.580100
  H     46.428200   26.370800   96.434100
  C     45.067600   26.354400   98.081700
  H     43.941300   26.373900   98.229400
  H     45.295400   25.250500   98.138300
  C     45.670100   27.178200   99.175500
  H     46.720200   27.378800   98.897600
  H     45.177300   28.107600   99.377400
  H     45.650900   26.628100  100.146000
  S     40.146000   26.896200   94.769400
  C     38.740100   26.253900   93.922800
  C     39.008900   25.086100   93.263400
  C     40.359500   24.644000   93.517700
  C     41.123700   25.509800   94.260500
  H     38.268700   24.631900   92.659600
  C     40.980600   23.417200   92.812300
  H     40.322000   22.515000   92.828200
  H     41.959400   23.255500   93.266300
  C     41.318100   23.718900   91.385400
  H     42.274800   24.175800   91.463300
  H     40.719900   24.465700   90.907000
  C     41.302600   22.487300   90.505700
  H     40.218500   22.222900   90.523100
  H     41.975300   21.633000   90.827800
  H     41.602300   22.650200   89.488200
  H     45.689100   26.998500   93.894100
  H     37.726300   26.693300   93.856300

 Total Charge           Charge          ....    0
 Multiplicity           Mult            ....    1
 Number of Electrons    NEL             ....  134
 Basis Dimension        Dim             ....  322

ORBITAL ENERGIES
----------------

  NO   OCC          E(Eh)            E(eV)
   0   2.0000     -88.969020     -2420.9701
   1   2.0000     -88.961655     -2420.7697
   2   2.0000     -10.330787      -281.1150
   3   2.0000     -10.322379      -280.8862
   4   2.0000     -10.318433      -280.7788
   5   2.0000     -10.310025      -280.5500
   6   2.0000     -10.304336      -280.3952
   7   2.0000     -10.301145      -280.3084
   8   2.0000     -10.300432      -280.2890
   9   2.0000     -10.293755      -280.1073
  10   2.0000     -10.292987      -280.0864
  11   2.0000     -10.291484      -280.0455
  12   2.0000     -10.287687      -279.9422
  13   2.0000     -10.279867      -279.7294
  14   2.0000     -10.278742      -279.6988
  15   2.0000     -10.269679      -279.4522
  16   2.0000      -8.083368      -219.9596
  17   2.0000      -8.076140      -219.7630
  18   2.0000      -6.041715      -164.4034
  19   2.0000      -6.037858      -164.2985
  20   2.0000      -6.034814      -164.2156
  21   2.0000      -6.034384      -164.2039
  22   2.0000      -6.030710      -164.1040
  23   2.0000      -6.026691      -163.9946
  24   2.0000      -1.008064       -27.4308
  25   2.0000      -0.982638       -26.7389
  26   2.0000      -0.913774       -24.8651
  27   2.0000      -0.912931       -24.8421
  28   2.0000      -0.874624       -23.7997
  29   2.0000      -0.851698       -23.1759
  30   2.0000      -0.843286       -22.9470
  31   2.0000      -0.818207       -22.2645
  32   2.0000      -0.782528       -21.2937
  33   2.0000      -0.767622       -20.8881
  34   2.0000      -0.713113       -19.4048
  35   2.0000      -0.689362       -18.7585
  36   2.0000      -0.683939       -18.6109
  37   2.0000      -0.666137       -18.1265
  38   2.0000      -0.641346       -17.4519
  39   2.0000      -0.619497       -16.8574
  40   2.0000      -0.594801       -16.1853
  41   2.0000      -0.574591       -15.6354
  42   2.0000      -0.568921       -15.4811
  43   2.0000      -0.566888       -15.4258
  44   2.0000      -0.530192       -14.4272
  45   2.0000      -0.516983       -14.0678
  46   2.0000      -0.515443       -14.0259
  47   2.0000      -0.511684       -13.9236
  48   2.0000      -0.507691       -13.8150
  49   2.0000      -0.504614       -13.7312
  50   2.0000      -0.489438       -13.3183
  51   2.0000      -0.479744       -13.0545
  52   2.0000      -0.470610       -12.8059
  53   2.0000      -0.466159       -12.6848
  54   2.0000      -0.456847       -12.4314
  55   2.0000      -0.452749       -12.3199
  56   2.0000      -0.448143       -12.1946
  57   2.0000      -0.438616       -11.9354
  58   2.0000      -0.428319       -11.6551
  59   2.0000      -0.419842       -11.4245
  60   2.0000      -0.415417       -11.3041
  61   2.0000      -0.412122       -11.2144
  62   2.0000      -0.405932       -11.0460
  63   2.0000      -0.338870        -9.2211
  64   2.0000      -0.337822        -9.1926
  65   2.0000      -0.325289        -8.8516
  66   2.0000      -0.296403        -8.0655
  67   0.0000       0.032772         0.8918
  68   0.0000       0.058200         1.5837
  69   0.0000       0.107511         2.9255
  70   0.0000       0.112103         3.0505
  71   0.0000       0.130367         3.5475

MULLIKEN ATOMIC CHARGES
-----------------------
   0 S :    0.119679
   1 C :   -0.113403
   2 C :   -0.076149
   3 C :    0.013121
   4 C :   -0.173601
   5 H :    0.027929
   6 C :    0.072497
   7 H :    0.049161
   8 H :    0.029028
   9 C :   -0.146095
  10 H :    0.037784
  11 H :    0.040366
  12 C :   -0.029242
  13 H :    0.029517
  14 H :    0.035053
  15 H :    0.038391
  16 S :    0.101674
  17 C :   -0.096580
  18 C :   -0.020983
  19 C :   -0.039970
  20 C :   -0.150646
  21 H :    0.008035
  22 C :    0.052452
  23 H :    0.031295
  24 H :    0.031726
  25 C :   -0.043685
  26 H :    0.004551
  27 H :    0.022584
  28 C :   -0.066734
  29 H :    0.034055
  30 H :    0.041054
  31 H :    0.028492
  32 H :    0.044259
  33 H :    0.064384
Sum of atomic charges:    0.0000000

LOEWDIN ATOMIC CHARGES
----------------------
   0 S :    0.427843
   1 C :   -0.195486
   2 C :   -0.065330
   3 C :   -0.062314
   4 C :   -0.196317
   5 H :    0.036957
   6 C :   -0.029844
   7 H :    0.037052
   8 H :    0.029802
   9 C :   -0.053617
  10 H :    0.025629
  11 H :    0.029885
  12 C :   -0.068529
  13 H :    0.026287
  14 H :    0.023670
  15 H :    0.034356
  16 S :    0.390309
  17 C :   -0.180498
  18 C :   -0.069090
  19 C :   -0.050316
  20 C :   -0.202853
  21 H :    0.027557
  22 C :   -0.029125
  23 H :    0.030214
  24 H :    0.032398
  25 C :   -0.048620
  26 H :    0.006618
  27 H :    0.019899
  28 C :   -0.067750
  29 H :    0.028911
  30 H :    0.030999
  31 H :    0.021163
  32 H :    0.022731
  33 H :    0.037409

  Mayer bond orders larger than 0.100000
B(  0-S ,  1-C ) :   1.1539 B(  0-S ,  4-C ) :   1.1660 B(  1-C ,  2-C ) :   1.6022
B(  1-C ,  4-C ) :   0.1037 B(  1-C , 32-H ) :   0.9706 B(  2-C ,  3-C ) :   1.2474
B(  2-C ,  6-C ) :   1.0177 B(  3-C ,  4-C ) :   1.5510 B(  3-C ,  5-H ) :   0.9940
B(  4-C , 20-C ) :   1.0355 B(  6-C ,  7-H ) :   0.9445 B(  6-C ,  8-H ) :   0.9293
B(  6-C ,  9-C ) :   1.0664 B(  9-C , 10-H ) :   0.9528 B(  9-C , 11-H ) :   0.9587
B(  9-C , 12-C ) :   1.0854 B( 12-C , 13-H ) :   0.9729 B( 12-C , 14-H ) :   0.9739
B( 12-C , 15-H ) :   0.9697 B( 16-S , 17-C ) :   1.1428 B( 16-S , 20-C ) :   1.1127
B( 17-C , 18-C ) :   1.6464 B( 17-C , 33-H ) :   0.9603 B( 18-C , 19-C ) :   1.1993
B( 18-C , 21-H ) :   0.9983 B( 19-C , 20-C ) :   1.6323 B( 19-C , 22-C ) :   1.0560
B( 22-C , 23-H ) :   0.9470 B( 22-C , 24-H ) :   0.9321 B( 22-C , 25-C ) :   1.0425
B( 25-C , 26-H ) :   0.9426 B( 25-C , 27-H ) :   0.9619 B( 25-C , 28-C ) :   1.0797
B( 28-C , 29-H ) :   0.9771 B( 28-C , 30-H ) :   0.9729 B( 28-C , 31-H ) :   0.9723

Dispersion correction           -0.014096659
FINAL SINGLE POINT ENERGY     -1339.874624350665

DIPOLE MOMENT
-------------
                                X             Y             Z
Electronic contribution:     -9.62194       8.50900      -4.56214
Nuclear contribution   :      9.74573      -8.43742       4.61314
                        -----------------------------------------
Total Dipole Moment    :      0.12379       0.07158       0.05100
                        -----------------------------------------
Magnitude (a.u.)       :      0.15182
Magnitude (Debye)      :      0.38589

Rotational constants in cm-1:     0.022633     0.007647     0.006341
Rotational constants in MHz :   678.532683   229.260843   190.106954

                             ****ORCA TERMINATED NORMALLY****
TOTAL RUN TIME: 0 days 0 hours 0 minutes 29 seconds 602 msec
