                         Program Version 4.2.1 -  RELEASE  -
|  1> ! wB97X-D3 SP def2-SVP
|  2> %pal
|  3> nprocs 16
|  4> end
|  5>
|  6> * xyz 0 1
|  7> S 	 -61.7055 	 53.1952 	 125.041
|  8> C 	 -62.8178 	 52.7639 	 126.388
|  9> C 	 -64.1486 	 53.0681 	 125.942
| 10> C 	 -64.2124 	 53.5277 	 124.525
| 11> C 	 -62.9918 	 53.6945 	 123.935
| 12> H 	 -65.2014 	 53.7323 	 124.084
| 13> C 	 -65.4213 	 52.9848 	 126.812
| 14> H 	 -66.1745 	 53.6086 	 126.448
| 15> H 	 -65.0626 	 53.3678 	 127.723
| 16> C 	 -66.1031 	 51.5709 	 127.019
| 17> H 	 -65.3171 	 50.9296 	 127.459
| 18> H 	 -67.0211 	 51.6068 	 127.682
| 19> C 	 -66.6645 	 50.9216 	 125.684
| 20> H 	 -66.5128 	 49.8317 	 125.595
| 21> H 	 -67.6579 	 51.2915 	 125.661
| 22> H 	 -66.3727 	 51.4969 	 124.787
| 23> S 	 -61.8589 	 55.6021 	 122.336
| 24> C 	 -62.0589 	 55.5188 	 120.643
| 25> C 	 -62.8894 	 54.5008 	 120.304
| 26> C 	 -63.4054 	 53.7133 	 121.415
| 27> C 	 -62.7943 	 54.2053 	 122.591
| 28> H 	 -63.1828 	 54.4962 	 119.207
| 29> C 	 -64.3792 	 52.4976 	 121.399
| 30> H 	 -64.925 	 52.4279 	 120.421
| 31> H 	 -65.1652 	 52.6702 	 122.14
| 32> C 	 -63.6775 	 51.1242 	 121.665
| 33> H 	 -63.1559 	 51.2595 	 122.589
| 34> H 	 -62.9008 	 50.8568 	 120.881
| 35> C 	 -64.7398 	 50.0455 	 121.808
| 36> H 	 -64.2337 	 49.1057 	 121.568
| 37> H 	 -65.4571 	 50.2098 	 120.965
| 38> H 	 -65.2113 	 49.8973 	 122.755
| 39> H 	 -62.6044 	 52.273 	 127.342
| 40> H 	 -61.6993 	 56.275 	 119.998
| 41> *
| 42>
| 43>                          ****END OF INPUT****

CARTESIAN COORDINATES (ANGSTROEM)
---------------------------------
  S    -61.705500   53.195200  125.041000
  C    -62.817800   52.763900  126.388000
  C    -64.148600   53.068100  125.942000
  C    -64.212400   53.527700  124.525000
  C    -62.991800   53.694500  123.935000
  H    -65.201400   53.732300  124.084000
  C    -65.421300   52.984800  126.812000
  H    -66.174500   53.608600  126.448000
  H    -65.062600   53.367800  127.723000
  C    -66.103100   51.570900  127.019000
  H    -65.317100   50.929600  127.459000
  H    -67.021100   51.606800  127.682000
  C    -66.664500   50.921600  125.684000
  H    -66.512800   49.831700  125.595000
  H    -67.657900   51.291500  125.661000
  H    -66.372700   51.496900  124.787000
  S    -61.858900   55.602100  122.336000
  C    -62.058900   55.518800  120.643000
  C    -62.889400   54.500800  120.304000
  C    -63.405400   53.713300  121.415000
  C    -62.794300   54.205300  122.591000
  H    -63.182800   54.496200  119.207000
  C    -64.379200   52.497600  121.399000
  H    -64.925000   52.427900  120.421000
  H    -65.165200   52.670200  122.140000
  C    -63.677500   51.124200  121.665000
  H    -63.155900   51.259500  122.589000
  H    -62.900800   50.856800  120.881000
  C    -64.739800   50.045500  121.808000
  H    -64.233700   49.105700  121.568000
  H    -65.457100   50.209800  120.965000
  H    -65.211300   49.897300  122.755000
  H    -62.604400   52.273000  127.342000
  H    -61.699300   56.275000  119.998000

 Total Charge           Charge          ....    0
 Multiplicity           Mult            ....    1
 Number of Electrons    NEL             ....  134
 Basis Dimension        Dim             ....  322

ORBITAL ENERGIES
----------------

  NO   OCC          E(Eh)            E(eV)
   0   2.0000     -88.969469     -2420.9823
   1   2.0000     -88.965140     -2420.8645
   2   2.0000     -10.332821      -281.1703
   3   2.0000     -10.328045      -281.0404
   4   2.0000     -10.324299      -280.9385
   5   2.0000     -10.314960      -280.6843
   6   2.0000     -10.311364      -280.5865
   7   2.0000     -10.308309      -280.5034
   8   2.0000     -10.300563      -280.2926
   9   2.0000     -10.300376      -280.2875
  10   2.0000     -10.299860      -280.2734
  11   2.0000     -10.299012      -280.2504
  12   2.0000     -10.291038      -280.0334
  13   2.0000     -10.284541      -279.8566
  14   2.0000     -10.281303      -279.7685
  15   2.0000     -10.274370      -279.5798
  16   2.0000      -8.082627      -219.9395
  17   2.0000      -8.081667      -219.9133
  18   2.0000      -6.041499      -164.3975
  19   2.0000      -6.039943      -164.3552
  20   2.0000      -6.037197      -164.2805
  21   2.0000      -6.035864      -164.2442
  22   2.0000      -6.033208      -164.1719
  23   2.0000      -6.032620      -164.1559
  24   2.0000      -1.009948       -27.4821
  25   2.0000      -0.976972       -26.5848
  26   2.0000      -0.904965       -24.6253
  27   2.0000      -0.901700       -24.5365
  28   2.0000      -0.868066       -23.6213
  29   2.0000      -0.848940       -23.1008
  30   2.0000      -0.837837       -22.7987
  31   2.0000      -0.815560       -22.1925
  32   2.0000      -0.781715       -21.2716
  33   2.0000      -0.770074       -20.9548
  34   2.0000      -0.704697       -19.1758
  35   2.0000      -0.700001       -19.0480
  36   2.0000      -0.689550       -18.7636
  37   2.0000      -0.655888       -17.8476
  38   2.0000      -0.634048       -17.2533
  39   2.0000      -0.617618       -16.8062
  40   2.0000      -0.592886       -16.1333
  41   2.0000      -0.574277       -15.6269
  42   2.0000      -0.564051       -15.3486
  43   2.0000      -0.550682       -14.9848
  44   2.0000      -0.535487       -14.5713
  45   2.0000      -0.523218       -14.2375
  46   2.0000      -0.518075       -14.0975
  47   2.0000      -0.511412       -13.9162
  48   2.0000      -0.507875       -13.8200
  49   2.0000      -0.502626       -13.6771
  50   2.0000      -0.491942       -13.3864
  51   2.0000      -0.476374       -12.9628
  52   2.0000      -0.468560       -12.7502
  53   2.0000      -0.464447       -12.6383
  54   2.0000      -0.454661       -12.3719
  55   2.0000      -0.442097       -12.0301
  56   2.0000      -0.434875       -11.8336
  57   2.0000      -0.433256       -11.7895
  58   2.0000      -0.426438       -11.6040
  59   2.0000      -0.424530       -11.5521
  60   2.0000      -0.421434       -11.4678
  61   2.0000      -0.417241       -11.3537
  62   2.0000      -0.411195       -11.1892
  63   2.0000      -0.348061        -9.4712
  64   2.0000      -0.330518        -8.9938
  65   2.0000      -0.325534        -8.8582
  66   2.0000      -0.295615        -8.0441
  67   0.0000       0.031126         0.8470
  68   0.0000       0.066352         1.8055
  69   0.0000       0.113494         3.0883
  70   0.0000       0.115716         3.1488
  71   0.0000       0.125686         3.4201

MULLIKEN ATOMIC CHARGES
-----------------------
   0 S :    0.108255
   1 C :   -0.124930
   2 C :   -0.133310
   3 C :    0.027211
   4 C :   -0.142102
   5 H :    0.029139
   6 C :    0.095907
   7 H :    0.008241
   8 H :    0.023161
   9 C :   -0.106847
  10 H :    0.032895
  11 H :    0.050237
  12 C :   -0.051021
  13 H :    0.065156
  14 H :    0.013819
  15 H :    0.014110
  16 S :    0.131213
  17 C :   -0.090160
  18 C :   -0.062344
  19 C :   -0.014690
  20 C :   -0.180409
  21 H :    0.039182
  22 C :    0.051417
  23 H :    0.025800
  24 H :    0.022388
  25 C :   -0.082444
  26 H :    0.035173
  27 H :    0.045952
  28 C :   -0.032260
  29 H :    0.024692
  30 H :    0.025203
  31 H :    0.041056
  32 H :    0.064874
  33 H :    0.045435
Sum of atomic charges:   -0.0000000

LOEWDIN ATOMIC CHARGES
----------------------
   0 S :    0.384108
   1 C :   -0.197928
   2 C :   -0.050235
   3 C :   -0.067539
   4 C :   -0.192186
   5 H :    0.032516
   6 C :   -0.027084
   7 H :    0.019620
   8 H :    0.027914
   9 C :   -0.039729
  10 H :    0.020946
  11 H :    0.031274
  12 C :   -0.078367
  13 H :    0.034694
  14 H :    0.023060
  15 H :    0.025700
  16 S :    0.447954
  17 C :   -0.201317
  18 C :   -0.080627
  19 C :   -0.051024
  20 C :   -0.219042
  21 H :    0.042696
  22 C :   -0.033074
  23 H :    0.030928
  24 H :    0.027657
  25 C :   -0.038785
  26 H :    0.021301
  27 H :    0.033582
  28 C :   -0.067002
  29 H :    0.028501
  30 H :    0.027337
  31 H :    0.023171
  32 H :    0.037302
  33 H :    0.023677

  Mayer bond orders larger than 0.100000
B(  0-S ,  1-C ) :   1.1180 B(  0-S ,  4-C ) :   1.1306 B(  1-C ,  2-C ) :   1.6143
B(  1-C , 32-H ) :   0.9690 B(  2-C ,  3-C ) :   1.2283 B(  2-C ,  6-C ) :   1.0174
B(  3-C ,  4-C ) :   1.5832 B(  3-C ,  5-H ) :   0.9820 B(  4-C , 20-C ) :   1.0387
B(  6-C ,  7-H ) :   0.9466 B(  6-C ,  8-H ) :   0.9405 B(  6-C ,  9-C ) :   1.0632
B(  9-C , 10-H ) :   0.9645 B(  9-C , 11-H ) :   0.9667 B(  9-C , 12-C ) :   1.0426
B( 12-C , 13-H ) :   0.9777 B( 12-C , 14-H ) :   0.9713 B( 12-C , 15-H ) :   0.9755
B( 16-S , 17-C ) :   1.1570 B( 16-S , 20-C ) :   1.1863 B( 17-C , 18-C ) :   1.6120
B( 17-C , 33-H ) :   0.9729 B( 18-C , 19-C ) :   1.2526 B( 18-C , 21-H ) :   0.9785
B( 19-C , 20-C ) :   1.5466 B( 19-C , 22-C ) :   1.0379 B( 22-C , 23-H ) :   0.9333
B( 22-C , 24-H ) :   0.9353 B( 22-C , 25-C ) :   1.0604 B( 25-C , 26-H ) :   0.9542
B( 25-C , 27-H ) :   0.9579 B( 25-C , 28-C ) :   1.0779 B( 28-C , 29-H ) :   0.9719
B( 28-C , 30-H ) :   0.9720 B( 28-C , 31-H ) :   0.9743

Dispersion correction           -0.015613233
FINAL SINGLE POINT ENERGY     -1339.858579514846

DIPOLE MOMENT
-------------
                                X             Y             Z
Electronic contribution:     22.59544      20.65258      -2.02899
Nuclear contribution   :    -23.24115     -20.84945       2.01189
                        -----------------------------------------
Total Dipole Moment    :     -0.64570      -0.19687      -0.01710
                        -----------------------------------------
Magnitude (a.u.)       :      0.67527
Magnitude (Debye)      :      1.71639

Rotational constants in cm-1:     0.019069     0.009633     0.007460
Rotational constants in MHz :   571.688901   288.781146   223.656627

                             ****ORCA TERMINATED NORMALLY****
TOTAL RUN TIME: 0 days 0 hours 0 minutes 35 seconds 373 msec
