                         Program Version 4.2.1 -  RELEASE  -
|  1> ! wB97X-D3 SP def2-SVP
|  2> %pal
|  3> nprocs 16
|  4> end
|  5>
|  6> * xyz 0 1
|  7> S 	 31.6791 	 18.4457 	 70.7471
|  8> C 	 30.353 	 18.5724 	 71.9667
|  9> C 	 30.7963 	 18.2982 	 73.1837
| 10> C 	 32.2076 	 18.3263 	 73.302
| 11> C 	 32.8189 	 18.4033 	 72.0184
| 12> H 	 32.7867 	 18.2264 	 74.2204
| 13> C 	 29.9991 	 18.2485 	 74.4779
| 14> H 	 29.2659 	 19.0186 	 74.4976
| 15> H 	 30.6119 	 18.6111 	 75.2467
| 16> C 	 29.2969 	 16.962 	 74.7932
| 17> H 	 28.5437 	 16.6542 	 74.0941
| 18> H 	 30.1277 	 16.2585 	 74.689
| 19> C 	 28.4485 	 17.0264 	 76.1331
| 20> H 	 27.9928 	 15.9862 	 76.322
| 21> H 	 28.9931 	 17.2114 	 77.0004
| 22> H 	 27.6969 	 17.8097 	 76.1348
| 23> S 	 34.772 	 19.3026 	 70.478
| 24> C 	 36.3408 	 18.5117 	 70.4501
| 25> C 	 36.291 	 17.3553 	 71.2657
| 26> C 	 35.0284 	 17.1253 	 71.9859
| 27> C 	 34.2222 	 18.1964 	 71.7453
| 28> H 	 37.1038 	 16.6963 	 71.1976
| 29> C 	 34.7493 	 15.908 	 72.795
| 30> H 	 33.7797 	 15.9955 	 73.2868
| 31> H 	 35.464 	 15.8483 	 73.5733
| 32> C 	 34.7536 	 14.6459 	 71.8626
| 33> H 	 35.7598 	 14.5311 	 71.4589
| 34> H 	 34.1526 	 14.8959 	 70.9639
| 35> C 	 34.229 	 13.2816 	 72.5922
| 36> H 	 33.2824 	 13.4013 	 73.1951
| 37> H 	 35.0266 	 12.9621 	 73.2149
| 38> H 	 34.103 	 12.4978 	 71.8582
| 39> H 	 29.3394 	 18.734 	 71.6988
| 40> H 	 37.1833 	 18.5835 	 69.7172
| 41> *
| 42>
| 43>                          ****END OF INPUT****

CARTESIAN COORDINATES (ANGSTROEM)
---------------------------------
  S     31.679100   18.445700   70.747100
  C     30.353000   18.572400   71.966700
  C     30.796300   18.298200   73.183700
  C     32.207600   18.326300   73.302000
  C     32.818900   18.403300   72.018400
  H     32.786700   18.226400   74.220400
  C     29.999100   18.248500   74.477900
  H     29.265900   19.018600   74.497600
  H     30.611900   18.611100   75.246700
  C     29.296900   16.962000   74.793200
  H     28.543700   16.654200   74.094100
  H     30.127700   16.258500   74.689000
  C     28.448500   17.026400   76.133100
  H     27.992800   15.986200   76.322000
  H     28.993100   17.211400   77.000400
  H     27.696900   17.809700   76.134800
  S     34.772000   19.302600   70.478000
  C     36.340800   18.511700   70.450100
  C     36.291000   17.355300   71.265700
  C     35.028400   17.125300   71.985900
  C     34.222200   18.196400   71.745300
  H     37.103800   16.696300   71.197600
  C     34.749300   15.908000   72.795000
  H     33.779700   15.995500   73.286800
  H     35.464000   15.848300   73.573300
  C     34.753600   14.645900   71.862600
  H     35.759800   14.531100   71.458900
  H     34.152600   14.895900   70.963900
  C     34.229000   13.281600   72.592200
  H     33.282400   13.401300   73.195100
  H     35.026600   12.962100   73.214900
  H     34.103000   12.497800   71.858200
  H     29.339400   18.734000   71.698800
  H     37.183300   18.583500   69.717200

 Total Charge           Charge          ....    0
 Multiplicity           Mult            ....    1
 Number of Electrons    NEL             ....  134
 Basis Dimension        Dim             ....  322

ORBITAL ENERGIES
----------------

  NO   OCC          E(Eh)            E(eV)
   0   2.0000     -88.966759     -2420.9086
   1   2.0000     -88.964371     -2420.8436
   2   2.0000     -10.325717      -280.9771
   3   2.0000     -10.322858      -280.8993
   4   2.0000     -10.322341      -280.8852
   5   2.0000     -10.307168      -280.4723
   6   2.0000     -10.307149      -280.4718
   7   2.0000     -10.297633      -280.2128
   8   2.0000     -10.295951      -280.1671
   9   2.0000     -10.293123      -280.0901
  10   2.0000     -10.292408      -280.0707
  11   2.0000     -10.291421      -280.0438
  12   2.0000     -10.287152      -279.9276
  13   2.0000     -10.286661      -279.9143
  14   2.0000     -10.284406      -279.8529
  15   2.0000     -10.279559      -279.7210
  16   2.0000      -8.081387      -219.9057
  17   2.0000      -8.078779      -219.8348
  18   2.0000      -6.039878      -164.3534
  19   2.0000      -6.037491      -164.2885
  20   2.0000      -6.035991      -164.2477
  21   2.0000      -6.033381      -164.1766
  22   2.0000      -6.032083      -164.1413
  23   2.0000      -6.029269      -164.0647
  24   2.0000      -1.008744       -27.4493
  25   2.0000      -0.981091       -26.6968
  26   2.0000      -0.915068       -24.9003
  27   2.0000      -0.904230       -24.6053
  28   2.0000      -0.869032       -23.6476
  29   2.0000      -0.846594       -23.0370
  30   2.0000      -0.838459       -22.8156
  31   2.0000      -0.807315       -21.9682
  32   2.0000      -0.786172       -21.3928
  33   2.0000      -0.778126       -21.1739
  34   2.0000      -0.710317       -19.3287
  35   2.0000      -0.708805       -19.2876
  36   2.0000      -0.697409       -18.9775
  37   2.0000      -0.661550       -18.0017
  38   2.0000      -0.640358       -17.4250
  39   2.0000      -0.618768       -16.8375
  40   2.0000      -0.592230       -16.1154
  41   2.0000      -0.565702       -15.3935
  42   2.0000      -0.562683       -15.3114
  43   2.0000      -0.556519       -15.1437
  44   2.0000      -0.530358       -14.4318
  45   2.0000      -0.518816       -14.1177
  46   2.0000      -0.517320       -14.0770
  47   2.0000      -0.508071       -13.8253
  48   2.0000      -0.505992       -13.7687
  49   2.0000      -0.498526       -13.5656
  50   2.0000      -0.491001       -13.3608
  51   2.0000      -0.479924       -13.0594
  52   2.0000      -0.470916       -12.8143
  53   2.0000      -0.464524       -12.6403
  54   2.0000      -0.459712       -12.5094
  55   2.0000      -0.448458       -12.2032
  56   2.0000      -0.443167       -12.0592
  57   2.0000      -0.440301       -11.9812
  58   2.0000      -0.437325       -11.9002
  59   2.0000      -0.428274       -11.6539
  60   2.0000      -0.423621       -11.5273
  61   2.0000      -0.418365       -11.3843
  62   2.0000      -0.407448       -11.0872
  63   2.0000      -0.343979        -9.3602
  64   2.0000      -0.331238        -9.0134
  65   2.0000      -0.326303        -8.8792
  66   2.0000      -0.293825        -7.9954
  67   0.0000       0.028213         0.7677
  68   0.0000       0.068469         1.8631
  69   0.0000       0.101774         2.7694
  70   0.0000       0.123421         3.3585
  71   0.0000       0.127578         3.4716

MULLIKEN ATOMIC CHARGES
-----------------------
   0 S :    0.113880
   1 C :   -0.118581
   2 C :   -0.053718
   3 C :    0.006037
   4 C :   -0.135992
   5 H :    0.020320
   6 C :    0.098586
   7 H :   -0.003439
   8 H :    0.000355
   9 C :   -0.057307
  10 H :    0.030020
  11 H :    0.024510
  12 C :   -0.055388
  13 H :    0.046505
  14 H :    0.014770
  15 H :    0.034547
  16 S :    0.091500
  17 C :   -0.091583
  18 C :   -0.050930
  19 C :   -0.026996
  20 C :   -0.184453
  21 H :   -0.000049
  22 C :    0.138166
  23 H :    0.014468
  24 H :    0.024230
  25 C :   -0.135457
  26 H :    0.030637
  27 H :    0.046684
  28 C :   -0.042624
  29 H :    0.051534
  30 H :    0.028394
  31 H :    0.037164
  32 H :    0.029190
  33 H :    0.075021
Sum of atomic charges:   -0.0000000

LOEWDIN ATOMIC CHARGES
----------------------
   0 S :    0.402727
   1 C :   -0.171466
   2 C :   -0.063123
   3 C :   -0.069755
   4 C :   -0.205250
   5 H :    0.032286
   6 C :   -0.029751
   7 H :    0.022567
   8 H :    0.023550
   9 C :   -0.036761
  10 H :    0.023805
  11 H :    0.024545
  12 C :   -0.064605
  13 H :    0.038435
  14 H :    0.011985
  15 H :    0.026168
  16 S :    0.391504
  17 C :   -0.198579
  18 C :   -0.062778
  19 C :   -0.044670
  20 C :   -0.192259
  21 H :    0.016202
  22 C :   -0.026829
  23 H :    0.030048
  24 H :    0.027079
  25 C :   -0.033931
  26 H :    0.020956
  27 H :    0.028866
  28 C :   -0.065756
  29 H :    0.034126
  30 H :    0.020323
  31 H :    0.025939
  32 H :    0.020947
  33 H :    0.043454

  Mayer bond orders larger than 0.100000
B(  0-S ,  1-C ) :   1.1053 B(  0-S ,  4-C ) :   1.1761 B(  1-C ,  2-C ) :   1.6434
B(  1-C , 32-H ) :   0.9761 B(  2-C ,  3-C ) :   1.2224 B(  2-C ,  6-C ) :   1.0139
B(  3-C ,  4-C ) :   1.5469 B(  3-C ,  5-H ) :   0.9979 B(  4-C , 20-C ) :   1.0356
B(  6-C ,  7-H ) :   0.9332 B(  6-C ,  8-H ) :   0.9428 B(  6-C ,  9-C ) :   1.0527
B(  9-C , 10-H ) :   0.9597 B(  9-C , 11-H ) :   0.9584 B(  9-C , 12-C ) :   1.0625
B( 12-C , 13-H ) :   0.9769 B( 12-C , 14-H ) :   0.9786 B( 12-C , 15-H ) :   0.9746
B( 16-S , 17-C ) :   1.1317 B( 16-S , 20-C ) :   1.1241 B( 17-C , 18-C ) :   1.6498
B( 17-C , 33-H ) :   0.9590 B( 18-C , 19-C ) :   1.1865 B( 18-C , 21-H ) :   0.9893
B( 19-C , 20-C ) :   1.6209 B( 19-C , 22-C ) :   1.0544 B( 22-C , 23-H ) :   0.9259
B( 22-C , 24-H ) :   0.9274 B( 22-C , 25-C ) :   1.0403 B( 25-C , 26-H ) :   0.9604
B( 25-C , 27-H ) :   0.9633 B( 25-C , 28-C ) :   1.0638 B( 28-C , 29-H ) :   0.9785
B( 28-C , 30-H ) :   0.9768 B( 28-C , 31-H ) :   0.9783

Dispersion correction           -0.013913442
FINAL SINGLE POINT ENERGY     -1339.850125423244

DIPOLE MOMENT
-------------
                                X             Y             Z
Electronic contribution:     10.06139      20.40141     -20.09452
Nuclear contribution   :    -10.12491     -21.00736      20.47865
                        -----------------------------------------
Total Dipole Moment    :     -0.06352      -0.60595       0.38413
                        -----------------------------------------
Magnitude (a.u.)       :      0.72025
Magnitude (Debye)      :      1.83074

Rotational constants in cm-1:     0.018478     0.008448     0.006486
Rotational constants in MHz :   553.964795   253.252965   194.442332

                             ****ORCA TERMINATED NORMALLY****
TOTAL RUN TIME: 0 days 0 hours 0 minutes 27 seconds 940 msec
