                         Program Version 4.2.1 -  RELEASE  -
|  1> ! wB97X-D3 SP def2-SVP
|  2> %pal
|  3> nprocs 16
|  4> end
|  5>
|  6> * xyz 0 1
|  7> S 	 -20.5435 	 0.75837 	 77.4222
|  8> C 	 -20.3315 	 -0.861495 	 76.8121
|  9> C 	 -21.2297 	 -1.1985 	 75.8718
| 10> C 	 -22.337 	 -0.277635 	 75.8563
| 11> C 	 -22.2373 	 0.732892 	 76.7558
| 12> H 	 -23.1322 	 -0.375332 	 75.1239
| 13> C 	 -21.0272 	 -2.34963 	 74.9086
| 14> H 	 -21.5352 	 -2.22637 	 73.9153
| 15> H 	 -21.386 	 -3.22265 	 75.4227
| 16> C 	 -19.5733 	 -2.70788 	 74.5688
| 17> H 	 -18.9599 	 -2.83871 	 75.4475
| 18> H 	 -19.5021 	 -3.75965 	 74.1534
| 19> C 	 -18.9157 	 -1.78483 	 73.5776
| 20> H 	 -17.9769 	 -2.19587 	 73.0749
| 21> H 	 -19.5367 	 -1.68196 	 72.666
| 22> H 	 -18.6596 	 -0.783659 	 74.0461
| 23> S 	 -22.6733 	 3.47063 	 77.2987
| 24> C 	 -24.33 	 4.08267 	 77.3692
| 25> C 	 -25.1641 	 2.99672 	 77.0548
| 26> C 	 -24.6171 	 1.83417 	 76.6154
| 27> C 	 -23.1895 	 1.86207 	 76.8156
| 28> H 	 -26.1456 	 3.19164 	 77.1177
| 29> C 	 -25.5067 	 0.680274 	 76.3262
| 30> H 	 -25.3538 	 0.208641 	 75.375
| 31> H 	 -26.4962 	 1.11298 	 76.3174
| 32> C 	 -25.5362 	 -0.432108 	 77.2988
| 33> H 	 -25.7515 	 -0.117639 	 78.2791
| 34> H 	 -24.5137 	 -0.816172 	 77.4516
| 35> C 	 -26.4111 	 -1.6646 	 76.9495
| 36> H 	 -26.5043 	 -2.43233 	 77.7442
| 37> H 	 -25.9053 	 -2.18769 	 76.1556
| 38> H 	 -27.3453 	 -1.27859 	 76.6441
| 39> H 	 -19.4208 	 -1.43788 	 76.9643
| 40> H 	 -24.5845 	 5.11349 	 77.5987
| 41> *
| 42>
| 43>                          ****END OF INPUT****

CARTESIAN COORDINATES (ANGSTROEM)
---------------------------------
  S    -20.543500    0.758370   77.422200
  C    -20.331500   -0.861495   76.812100
  C    -21.229700   -1.198500   75.871800
  C    -22.337000   -0.277635   75.856300
  C    -22.237300    0.732892   76.755800
  H    -23.132200   -0.375332   75.123900
  C    -21.027200   -2.349630   74.908600
  H    -21.535200   -2.226370   73.915300
  H    -21.386000   -3.222650   75.422700
  C    -19.573300   -2.707880   74.568800
  H    -18.959900   -2.838710   75.447500
  H    -19.502100   -3.759650   74.153400
  C    -18.915700   -1.784830   73.577600
  H    -17.976900   -2.195870   73.074900
  H    -19.536700   -1.681960   72.666000
  H    -18.659600   -0.783659   74.046100
  S    -22.673300    3.470630   77.298700
  C    -24.330000    4.082670   77.369200
  C    -25.164100    2.996720   77.054800
  C    -24.617100    1.834170   76.615400
  C    -23.189500    1.862070   76.815600
  H    -26.145600    3.191640   77.117700
  C    -25.506700    0.680274   76.326200
  H    -25.353800    0.208641   75.375000
  H    -26.496200    1.112980   76.317400
  C    -25.536200   -0.432108   77.298800
  H    -25.751500   -0.117639   78.279100
  H    -24.513700   -0.816172   77.451600
  C    -26.411100   -1.664600   76.949500
  H    -26.504300   -2.432330   77.744200
  H    -25.905300   -2.187690   76.155600
  H    -27.345300   -1.278590   76.644100
  H    -19.420800   -1.437880   76.964300
  H    -24.584500    5.113490   77.598700

 Total Charge           Charge          ....    0
 Multiplicity           Mult            ....    1
 Number of Electrons    NEL             ....  134
 Basis Dimension        Dim             ....  322

ORBITAL ENERGIES
----------------

  NO   OCC          E(Eh)            E(eV)
   0   2.0000     -88.970189     -2421.0019
   1   2.0000     -88.966830     -2420.9105
   2   2.0000     -10.336979      -281.2835
   3   2.0000     -10.336035      -281.2578
   4   2.0000     -10.319327      -280.8032
   5   2.0000     -10.309054      -280.5236
   6   2.0000     -10.300812      -280.2994
   7   2.0000     -10.298793      -280.2444
   8   2.0000     -10.297794      -280.2172
   9   2.0000     -10.295294      -280.1492
  10   2.0000     -10.290901      -280.0297
  11   2.0000     -10.286054      -279.8978
  12   2.0000     -10.286029      -279.8971
  13   2.0000     -10.282658      -279.8054
  14   2.0000     -10.275014      -279.5973
  15   2.0000     -10.272342      -279.5246
  16   2.0000      -8.084018      -219.9773
  17   2.0000      -8.080734      -219.8880
  18   2.0000      -6.042417      -164.4225
  19   2.0000      -6.039539      -164.3442
  20   2.0000      -6.038439      -164.3143
  21   2.0000      -6.035857      -164.2440
  22   2.0000      -6.035200      -164.2261
  23   2.0000      -6.030736      -164.1047
  24   2.0000      -1.005998       -27.3746
  25   2.0000      -0.987100       -26.8604
  26   2.0000      -0.918641       -24.9975
  27   2.0000      -0.914153       -24.8754
  28   2.0000      -0.869186       -23.6517
  29   2.0000      -0.856656       -23.3108
  30   2.0000      -0.847113       -23.0511
  31   2.0000      -0.814258       -22.1571
  32   2.0000      -0.785179       -21.3658
  33   2.0000      -0.773147       -21.0384
  34   2.0000      -0.711917       -19.3722
  35   2.0000      -0.700918       -19.0729
  36   2.0000      -0.690801       -18.7976
  37   2.0000      -0.669436       -18.2163
  38   2.0000      -0.634715       -17.2715
  39   2.0000      -0.622147       -16.9295
  40   2.0000      -0.604090       -16.4381
  41   2.0000      -0.578522       -15.7424
  42   2.0000      -0.569772       -15.5043
  43   2.0000      -0.559767       -15.2320
  44   2.0000      -0.535141       -14.5619
  45   2.0000      -0.523067       -14.2334
  46   2.0000      -0.521362       -14.1870
  47   2.0000      -0.515322       -14.0226
  48   2.0000      -0.503733       -13.7073
  49   2.0000      -0.495604       -13.4861
  50   2.0000      -0.491565       -13.3762
  51   2.0000      -0.487314       -13.2605
  52   2.0000      -0.469056       -12.7637
  53   2.0000      -0.466680       -12.6990
  54   2.0000      -0.458599       -12.4791
  55   2.0000      -0.450330       -12.2541
  56   2.0000      -0.445860       -12.1325
  57   2.0000      -0.440458       -11.9855
  58   2.0000      -0.430418       -11.7123
  59   2.0000      -0.422911       -11.5080
  60   2.0000      -0.420865       -11.4523
  61   2.0000      -0.415268       -11.3000
  62   2.0000      -0.405425       -11.0322
  63   2.0000      -0.359732        -9.7888
  64   2.0000      -0.339195        -9.2300
  65   2.0000      -0.326095        -8.8735
  66   2.0000      -0.278090        -7.5672
  67   0.0000       0.012617         0.3433
  68   0.0000       0.072558         1.9744
  69   0.0000       0.097988         2.6664
  70   0.0000       0.128592         3.4992
  71   0.0000       0.133303         3.6274

MULLIKEN ATOMIC CHARGES
-----------------------
   0 S :    0.091468
   1 C :   -0.118057
   2 C :   -0.076771
   3 C :   -0.011413
   4 C :   -0.082488
   5 H :    0.010374
   6 C :    0.085918
   7 H :    0.038619
   8 H :    0.038703
   9 C :   -0.106064
  10 H :    0.019443
  11 H :    0.028461
  12 C :   -0.075568
  13 H :    0.037809
  14 H :    0.026951
  15 H :    0.054655
  16 S :    0.104227
  17 C :   -0.112099
  18 C :   -0.008776
  19 C :    0.003602
  20 C :   -0.158242
  21 H :   -0.028359
  22 C :    0.087333
  23 H :    0.016305
  24 H :    0.007377
  25 C :   -0.075407
  26 H :    0.004002
  27 H :    0.027805
  28 C :   -0.022455
  29 H :    0.041474
  30 H :    0.019858
  31 H :    0.020739
  32 H :    0.044658
  33 H :    0.065916
Sum of atomic charges:    0.0000000

LOEWDIN ATOMIC CHARGES
----------------------
   0 S :    0.368440
   1 C :   -0.191446
   2 C :   -0.066613
   3 C :   -0.056593
   4 C :   -0.164682
   5 H :    0.031660
   6 C :   -0.030463
   7 H :    0.037442
   8 H :    0.036806
   9 C :   -0.053180
  10 H :    0.017254
  11 H :    0.032100
  12 C :   -0.080166
  13 H :    0.032881
  14 H :    0.025049
  15 H :    0.033333
  16 S :    0.408718
  17 C :   -0.190686
  18 C :   -0.056107
  19 C :   -0.058296
  20 C :   -0.183228
  21 H :    0.011030
  22 C :   -0.030470
  23 H :    0.025946
  24 H :    0.031323
  25 C :   -0.043672
  26 H :    0.014090
  27 H :    0.025428
  28 C :   -0.056387
  29 H :    0.033472
  30 H :    0.021401
  31 H :    0.015724
  32 H :    0.026805
  33 H :    0.033088

  Mayer bond orders larger than 0.100000
B(  0-S ,  1-C ) :   1.1158 B(  0-S ,  4-C ) :   1.1132 B(  1-C ,  2-C ) :   1.6598
B(  1-C , 32-H ) :   0.9579 B(  2-C ,  3-C ) :   1.2236 B(  2-C ,  6-C ) :   1.0046
B(  3-C ,  4-C ) :   1.5646 B(  3-C ,  5-H ) :   0.9987 B(  4-C , 20-C ) :   1.1041
B(  6-C ,  7-H ) :   0.9518 B(  6-C ,  8-H ) :   0.9238 B(  6-C ,  9-C ) :   1.0859
B(  9-C , 10-H ) :   0.9479 B(  9-C , 11-H ) :   0.9496 B(  9-C , 12-C ) :   1.0806
B( 12-C , 13-H ) :   0.9726 B( 12-C , 14-H ) :   0.9708 B( 12-C , 15-H ) :   0.9738
B( 16-S , 17-C ) :   1.1583 B( 16-S , 20-C ) :   1.1799 B( 17-C , 18-C ) :   1.5235
B( 17-C , 20-C ) :   0.1238 B( 17-C , 33-H ) :   0.9737 B( 18-C , 19-C ) :   1.3414
B( 18-C , 21-H ) :   1.0037 B( 19-C , 20-C ) :   1.4560 B( 19-C , 22-C ) :   1.0566
B( 22-C , 23-H ) :   0.9219 B( 22-C , 24-H ) :   0.9195 B( 22-C , 25-C ) :   1.0716
B( 25-C , 26-H ) :   0.9487 B( 25-C , 27-H ) :   0.9486 B( 25-C , 28-C ) :   1.0757
B( 28-C , 29-H ) :   0.9739 B( 28-C , 30-H ) :   0.9750 B( 28-C , 31-H ) :   0.9776

Dispersion correction           -0.014410789
FINAL SINGLE POINT ENERGY     -1339.853372121231

DIPOLE MOMENT
-------------
                                X             Y             Z
Electronic contribution:      5.97571      23.16810      11.73024
Nuclear contribution   :     -6.24035     -23.66039     -12.10471
                        -----------------------------------------
Total Dipole Moment    :     -0.26464      -0.49229      -0.37447
                        -----------------------------------------
Magnitude (a.u.)       :      0.67277
Magnitude (Debye)      :      1.71005

Rotational constants in cm-1:     0.019317     0.008716     0.006653
Rotational constants in MHz :   579.122407   261.291331   199.451423

                             ****ORCA TERMINATED NORMALLY****
TOTAL RUN TIME: 0 days 0 hours 0 minutes 32 seconds 838 msec
