                         Program Version 4.2.1 -  RELEASE  -
|  1> ! wB97X-D3 SP def2-SVP
|  2> %pal
|  3> nprocs 16
|  4> end
|  5>
|  6> * xyz 0 1
|  7> S 	 -38.3519 	 75.1207 	 153.475
|  8> C 	 -36.9939 	 76.1988 	 153.332
|  9> C 	 -36.0469 	 75.6867 	 152.468
| 10> C 	 -36.3307 	 74.344 	 152.142
| 11> C 	 -37.4807 	 73.844 	 152.711
| 12> H 	 -35.7854 	 73.5706 	 151.609
| 13> C 	 -34.8883 	 76.5123 	 151.852
| 14> H 	 -34.468 	 76.9666 	 152.72
| 15> H 	 -35.2644 	 77.3231 	 151.281
| 16> C 	 -33.8507 	 75.7062 	 151.077
| 17> H 	 -33.5006 	 75.0558 	 151.871
| 18> H 	 -34.3757 	 75.0509 	 150.359
| 19> C 	 -32.7158 	 76.5763 	 150.425
| 20> H 	 -32.2367 	 77.2359 	 151.174
| 21> H 	 -31.9464 	 75.9141 	 149.85
| 22> H 	 -33.0369 	 77.3785 	 149.707
| 23> S 	 -39.7542 	 72.4709 	 152.232
| 24> C 	 -39.6433 	 70.8135 	 152.18
| 25> C 	 -38.3871 	 70.2782 	 152.215
| 26> C 	 -37.448 	 71.2793 	 152.596
| 27> C 	 -38.0352 	 72.5575 	 152.636
| 28> H 	 -38.1251 	 69.225 	 152.034
| 29> C 	 -35.9933 	 70.9321 	 152.849
| 30> H 	 -35.432 	 71.8269 	 153.141
| 31> H 	 -35.524 	 70.4659 	 151.944
| 32> C 	 -35.7754 	 69.9933 	 154.117
| 33> H 	 -34.6407 	 69.916 	 154.312
| 34> H 	 -36.0057 	 68.9608 	 153.977
| 35> C 	 -36.5153 	 70.5402 	 155.385
| 36> H 	 -36.7062 	 69.7955 	 156.173
| 37> H 	 -37.4867 	 70.9685 	 155.271
| 38> H 	 -35.989 	 71.4701 	 155.853
| 39> H 	 -37.0475 	 77.2273 	 153.718
| 40> H 	 -40.5556 	 70.2407 	 152.072
| 41> *
| 42>
| 43>                          ****END OF INPUT****

CARTESIAN COORDINATES (ANGSTROEM)
---------------------------------
  S    -38.351900   75.120700  153.475000
  C    -36.993900   76.198800  153.332000
  C    -36.046900   75.686700  152.468000
  C    -36.330700   74.344000  152.142000
  C    -37.480700   73.844000  152.711000
  H    -35.785400   73.570600  151.609000
  C    -34.888300   76.512300  151.852000
  H    -34.468000   76.966600  152.720000
  H    -35.264400   77.323100  151.281000
  C    -33.850700   75.706200  151.077000
  H    -33.500600   75.055800  151.871000
  H    -34.375700   75.050900  150.359000
  C    -32.715800   76.576300  150.425000
  H    -32.236700   77.235900  151.174000
  H    -31.946400   75.914100  149.850000
  H    -33.036900   77.378500  149.707000
  S    -39.754200   72.470900  152.232000
  C    -39.643300   70.813500  152.180000
  C    -38.387100   70.278200  152.215000
  C    -37.448000   71.279300  152.596000
  C    -38.035200   72.557500  152.636000
  H    -38.125100   69.225000  152.034000
  C    -35.993300   70.932100  152.849000
  H    -35.432000   71.826900  153.141000
  H    -35.524000   70.465900  151.944000
  C    -35.775400   69.993300  154.117000
  H    -34.640700   69.916000  154.312000
  H    -36.005700   68.960800  153.977000
  C    -36.515300   70.540200  155.385000
  H    -36.706200   69.795500  156.173000
  H    -37.486700   70.968500  155.271000
  H    -35.989000   71.470100  155.853000
  H    -37.047500   77.227300  153.718000
  H    -40.555600   70.240700  152.072000

 Total Charge           Charge          ....    0
 Multiplicity           Mult            ....    1
 Number of Electrons    NEL             ....  134
 Basis Dimension        Dim             ....  322

ORBITAL ENERGIES
----------------

  NO   OCC          E(Eh)            E(eV)
   0   2.0000     -88.965535     -2420.8753
   1   2.0000     -88.961647     -2420.7695
   2   2.0000     -10.321539      -280.8634
   3   2.0000     -10.318405      -280.7781
   4   2.0000     -10.312368      -280.6138
   5   2.0000     -10.310494      -280.5628
   6   2.0000     -10.305011      -280.4136
   7   2.0000     -10.303452      -280.3712
   8   2.0000     -10.301126      -280.3079
   9   2.0000     -10.297460      -280.2081
  10   2.0000     -10.296929      -280.1937
  11   2.0000     -10.292794      -280.0812
  12   2.0000     -10.292285      -280.0673
  13   2.0000     -10.288958      -279.9768
  14   2.0000     -10.287463      -279.9361
  15   2.0000     -10.279126      -279.7092
  16   2.0000      -8.082208      -219.9280
  17   2.0000      -8.077386      -219.7968
  18   2.0000      -6.040397      -164.3675
  19   2.0000      -6.036650      -164.2656
  20   2.0000      -6.035718      -164.2402
  21   2.0000      -6.032979      -164.1657
  22   2.0000      -6.031852      -164.1350
  23   2.0000      -6.028183      -164.0352
  24   2.0000      -1.016691       -27.6656
  25   2.0000      -0.991723       -26.9862
  26   2.0000      -0.911344       -24.7989
  27   2.0000      -0.902549       -24.5596
  28   2.0000      -0.873815       -23.7777
  29   2.0000      -0.848488       -23.0885
  30   2.0000      -0.840354       -22.8672
  31   2.0000      -0.810465       -22.0539
  32   2.0000      -0.783335       -21.3156
  33   2.0000      -0.770257       -20.9598
  34   2.0000      -0.715556       -19.4713
  35   2.0000      -0.699929       -19.0460
  36   2.0000      -0.689561       -18.7639
  37   2.0000      -0.660253       -17.9664
  38   2.0000      -0.643936       -17.5224
  39   2.0000      -0.616708       -16.7815
  40   2.0000      -0.599567       -16.3150
  41   2.0000      -0.568564       -15.4714
  42   2.0000      -0.558904       -15.2086
  43   2.0000      -0.550199       -14.9717
  44   2.0000      -0.532039       -14.4775
  45   2.0000      -0.518066       -14.0973
  46   2.0000      -0.509006       -13.8508
  47   2.0000      -0.503799       -13.7091
  48   2.0000      -0.501065       -13.6347
  49   2.0000      -0.499147       -13.5825
  50   2.0000      -0.488614       -13.2959
  51   2.0000      -0.484863       -13.1938
  52   2.0000      -0.473705       -12.8902
  53   2.0000      -0.462729       -12.5915
  54   2.0000      -0.459704       -12.5092
  55   2.0000      -0.452991       -12.3265
  56   2.0000      -0.446541       -12.1510
  57   2.0000      -0.435156       -11.8412
  58   2.0000      -0.432036       -11.7563
  59   2.0000      -0.426503       -11.6057
  60   2.0000      -0.420182       -11.4337
  61   2.0000      -0.414907       -11.2902
  62   2.0000      -0.408315       -11.1108
  63   2.0000      -0.351234        -9.5576
  64   2.0000      -0.334231        -9.0949
  65   2.0000      -0.330750        -9.0002
  66   2.0000      -0.280776        -7.6403
  67   0.0000       0.024533         0.6676
  68   0.0000       0.075343         2.0502
  69   0.0000       0.102844         2.7985
  70   0.0000       0.125259         3.4085
  71   0.0000       0.136330         3.7097

MULLIKEN ATOMIC CHARGES
-----------------------
   0 S :    0.102803
   1 C :   -0.138833
   2 C :   -0.077472
   3 C :    0.003201
   4 C :   -0.166622
   5 H :    0.011185
   6 C :    0.090876
   7 H :    0.017517
   8 H :    0.027497
   9 C :   -0.083703
  10 H :    0.031151
  11 H :    0.045463
  12 C :   -0.075559
  13 H :    0.032563
  14 H :    0.058177
  15 H :    0.037596
  16 S :    0.116863
  17 C :   -0.079035
  18 C :   -0.032234
  19 C :   -0.060979
  20 C :   -0.139930
  21 H :    0.027719
  22 C :    0.041224
  23 H :    0.034942
  24 H :    0.050689
  25 C :   -0.076285
  26 H :    0.042328
  27 H :    0.023491
  28 C :   -0.089064
  29 H :    0.036224
  30 H :    0.039427
  31 H :    0.039160
  32 H :    0.054545
  33 H :    0.055075
Sum of atomic charges:   -0.0000000

LOEWDIN ATOMIC CHARGES
----------------------
   0 S :    0.414255
   1 C :   -0.203480
   2 C :   -0.059756
   3 C :   -0.074553
   4 C :   -0.203217
   5 H :    0.032474
   6 C :   -0.026328
   7 H :    0.028891
   8 H :    0.024179
   9 C :   -0.045608
  10 H :    0.027305
  11 H :    0.026544
  12 C :   -0.080827
  13 H :    0.027547
  14 H :    0.039924
  15 H :    0.029840
  16 S :    0.434367
  17 C :   -0.201867
  18 C :   -0.073930
  19 C :   -0.052586
  20 C :   -0.201731
  21 H :    0.037535
  22 C :   -0.036299
  23 H :    0.031540
  24 H :    0.038712
  25 C :   -0.042896
  26 H :    0.034693
  27 H :    0.013893
  28 C :   -0.082387
  29 H :    0.027788
  30 H :    0.023486
  31 H :    0.036461
  32 H :    0.030771
  33 H :    0.025264

  Mayer bond orders larger than 0.100000
B(  0-S ,  1-C ) :   1.1472 B(  0-S ,  4-C ) :   1.1566 B(  1-C ,  2-C ) :   1.5986
B(  1-C ,  4-C ) :   0.1097 B(  1-C , 32-H ) :   0.9739 B(  2-C ,  3-C ) :   1.2425
B(  2-C ,  6-C ) :   0.9846 B(  3-C ,  4-C ) :   1.5559 B(  3-C ,  5-H ) :   0.9942
B(  4-C , 20-C ) :   1.0777 B(  6-C ,  7-H ) :   0.9332 B(  6-C ,  8-H ) :   0.9411
B(  6-C ,  9-C ) :   1.0803 B(  9-C , 10-H ) :   0.9566 B(  9-C , 11-H ) :   0.9497
B(  9-C , 12-C ) :   1.0657 B( 12-C , 13-H ) :   0.9730 B( 12-C , 14-H ) :   0.9745
B( 12-C , 15-H ) :   0.9752 B( 16-S , 17-C ) :   1.1864 B( 16-S , 20-C ) :   1.1382
B( 17-C , 18-C ) :   1.5793 B( 17-C , 33-H ) :   0.9662 B( 18-C , 19-C ) :   1.2452
B( 18-C , 21-H ) :   0.9943 B( 19-C , 20-C ) :   1.5736 B( 19-C , 22-C ) :   1.0529
B( 22-C , 23-H ) :   0.9375 B( 22-C , 24-H ) :   0.9383 B( 22-C , 25-C ) :   1.0531
B( 25-C , 26-H ) :   0.9609 B( 25-C , 27-H ) :   0.9619 B( 25-C , 28-C ) :   1.0541
B( 28-C , 29-H ) :   0.9774 B( 28-C , 30-H ) :   0.9747 B( 28-C , 31-H ) :   0.9756

Dispersion correction           -0.014392043
FINAL SINGLE POINT ENERGY     -1339.866384973134

DIPOLE MOMENT
-------------
                                X             Y             Z
Electronic contribution:    -26.41115       1.97863       0.33704
Nuclear contribution   :     26.85463      -2.11150      -0.54053
                        -----------------------------------------
Total Dipole Moment    :      0.44347      -0.13287      -0.20349
                        -----------------------------------------
Magnitude (a.u.)       :      0.50570
Magnitude (Debye)      :      1.28538

Rotational constants in cm-1:     0.019010     0.008379     0.006998
Rotational constants in MHz :   569.917871   251.210216   209.806600

                             ****ORCA TERMINATED NORMALLY****
TOTAL RUN TIME: 0 days 0 hours 0 minutes 34 seconds 521 msec
