                         Program Version 4.2.1 -  RELEASE  -
|  1> ! wB97X-D3 SP def2-SVP
|  2> %pal
|  3> nprocs 16
|  4> end
|  5>
|  6> * xyz 0 1
|  7> S 	 -30.0353 	 59.2919 	 110.781
|  8> C 	 -29.2313 	 59.4736 	 109.273
|  9> C 	 -29.5956 	 58.606 	 108.283
| 10> C 	 -30.6594 	 57.7969 	 108.796
| 11> C 	 -30.9381 	 57.9475 	 110.115
| 12> H 	 -31.1788 	 57.0745 	 108.219
| 13> C 	 -29.0738 	 58.6185 	 106.865
| 14> H 	 -28.9647 	 59.7368 	 106.558
| 15> H 	 -29.806 	 58.3026 	 106.134
| 16> C 	 -27.7917 	 57.7788 	 106.68
| 17> H 	 -27.1568 	 58.0803 	 107.508
| 18> H 	 -28.0781 	 56.7725 	 106.686
| 19> C 	 -27.028 	 58.2033 	 105.427
| 20> H 	 -27.5991 	 58.2143 	 104.462
| 21> H 	 -26.7118 	 59.2135 	 105.496
| 22> H 	 -26.1785 	 57.5709 	 105.234
| 23> S 	 -33.0945 	 58.3134 	 111.779
| 24> C 	 -34.0113 	 56.9136 	 112.313
| 25> C 	 -33.4611 	 55.7144 	 111.874
| 26> C 	 -32.4373 	 55.9457 	 110.903
| 27> C 	 -32.0105 	 57.3084 	 110.839
| 28> H 	 -33.8512 	 54.8196 	 112.307
| 29> C 	 -31.776 	 54.7871 	 110.364
| 30> H 	 -31.793 	 54.0026 	 111.192
| 31> H 	 -30.6844 	 54.9328 	 110.115
| 32> C 	 -32.359 	 54.2122 	 109.054
| 33> H 	 -31.9805 	 53.2436 	 109.017
| 34> H 	 -32.0407 	 54.669 	 108.088
| 35> C 	 -33.8494 	 53.95 	 109.068
| 36> H 	 -34.4869 	 54.9086 	 108.963
| 37> H 	 -34.2764 	 53.5719 	 110.071
| 38> H 	 -34.1111 	 53.2152 	 108.262
| 39> H 	 -28.3843 	 60.1523 	 109.136
| 40> H 	 -34.8558 	 56.9925 	 112.913
| 41> *
| 42>
| 43>                          ****END OF INPUT****

CARTESIAN COORDINATES (ANGSTROEM)
---------------------------------
  S    -30.035300   59.291900  110.781000
  C    -29.231300   59.473600  109.273000
  C    -29.595600   58.606000  108.283000
  C    -30.659400   57.796900  108.796000
  C    -30.938100   57.947500  110.115000
  H    -31.178800   57.074500  108.219000
  C    -29.073800   58.618500  106.865000
  H    -28.964700   59.736800  106.558000
  H    -29.806000   58.302600  106.134000
  C    -27.791700   57.778800  106.680000
  H    -27.156800   58.080300  107.508000
  H    -28.078100   56.772500  106.686000
  C    -27.028000   58.203300  105.427000
  H    -27.599100   58.214300  104.462000
  H    -26.711800   59.213500  105.496000
  H    -26.178500   57.570900  105.234000
  S    -33.094500   58.313400  111.779000
  C    -34.011300   56.913600  112.313000
  C    -33.461100   55.714400  111.874000
  C    -32.437300   55.945700  110.903000
  C    -32.010500   57.308400  110.839000
  H    -33.851200   54.819600  112.307000
  C    -31.776000   54.787100  110.364000
  H    -31.793000   54.002600  111.192000
  H    -30.684400   54.932800  110.115000
  C    -32.359000   54.212200  109.054000
  H    -31.980500   53.243600  109.017000
  H    -32.040700   54.669000  108.088000
  C    -33.849400   53.950000  109.068000
  H    -34.486900   54.908600  108.963000
  H    -34.276400   53.571900  110.071000
  H    -34.111100   53.215200  108.262000
  H    -28.384300   60.152300  109.136000
  H    -34.855800   56.992500  112.913000

 Total Charge           Charge          ....    0
 Multiplicity           Mult            ....    1
 Number of Electrons    NEL             ....  134
 Basis Dimension        Dim             ....  322

ORBITAL ENERGIES
----------------

  NO   OCC          E(Eh)            E(eV)
   0   2.0000     -88.967495     -2420.9286
   1   2.0000     -88.965278     -2420.8683
   2   2.0000     -10.328638      -281.0565
   3   2.0000     -10.324124      -280.9337
   4   2.0000     -10.312357      -280.6135
   5   2.0000     -10.310096      -280.5520
   6   2.0000     -10.301789      -280.3259
   7   2.0000     -10.298887      -280.2470
   8   2.0000     -10.298091      -280.2253
   9   2.0000     -10.293695      -280.1057
  10   2.0000     -10.293504      -280.1005
  11   2.0000     -10.288176      -279.9555
  12   2.0000     -10.288040      -279.9518
  13   2.0000     -10.285517      -279.8832
  14   2.0000     -10.283420      -279.8261
  15   2.0000     -10.277126      -279.6548
  16   2.0000      -8.082900      -219.9469
  17   2.0000      -8.079858      -219.8641
  18   2.0000      -6.041357      -164.3937
  19   2.0000      -6.038311      -164.3108
  20   2.0000      -6.037432      -164.2869
  21   2.0000      -6.034302      -164.2017
  22   2.0000      -6.033560      -164.1815
  23   2.0000      -6.030789      -164.1061
  24   2.0000      -1.010335       -27.4926
  25   2.0000      -0.985239       -26.8097
  26   2.0000      -0.915510       -24.9123
  27   2.0000      -0.912103       -24.8196
  28   2.0000      -0.872483       -23.7415
  29   2.0000      -0.854111       -23.2415
  30   2.0000      -0.848352       -23.0848
  31   2.0000      -0.816112       -22.2075
  32   2.0000      -0.781835       -21.2748
  33   2.0000      -0.767134       -20.8748
  34   2.0000      -0.709700       -19.3119
  35   2.0000      -0.704356       -19.1665
  36   2.0000      -0.687014       -18.6946
  37   2.0000      -0.667065       -18.1518
  38   2.0000      -0.641596       -17.4587
  39   2.0000      -0.620895       -16.8954
  40   2.0000      -0.589807       -16.0495
  41   2.0000      -0.579527       -15.7697
  42   2.0000      -0.564504       -15.3609
  43   2.0000      -0.553796       -15.0696
  44   2.0000      -0.547136       -14.8883
  45   2.0000      -0.525148       -14.2900
  46   2.0000      -0.523563       -14.2469
  47   2.0000      -0.503242       -13.6939
  48   2.0000      -0.502568       -13.6756
  49   2.0000      -0.496492       -13.5102
  50   2.0000      -0.485852       -13.2207
  51   2.0000      -0.484978       -13.1969
  52   2.0000      -0.471744       -12.8368
  53   2.0000      -0.464447       -12.6383
  54   2.0000      -0.456926       -12.4336
  55   2.0000      -0.447694       -12.1824
  56   2.0000      -0.440425       -11.9846
  57   2.0000      -0.436310       -11.8726
  58   2.0000      -0.432791       -11.7768
  59   2.0000      -0.431100       -11.7308
  60   2.0000      -0.420364       -11.4387
  61   2.0000      -0.418575       -11.3900
  62   2.0000      -0.405085       -11.0229
  63   2.0000      -0.353536        -9.6202
  64   2.0000      -0.333203        -9.0669
  65   2.0000      -0.328094        -8.9279
  66   2.0000      -0.283671        -7.7191
  67   0.0000       0.028460         0.7744
  68   0.0000       0.071108         1.9350
  69   0.0000       0.111819         3.0427
  70   0.0000       0.115130         3.1329
  71   0.0000       0.132120         3.5952

MULLIKEN ATOMIC CHARGES
-----------------------
   0 S :    0.118136
   1 C :   -0.119048
   2 C :   -0.063847
   3 C :    0.033599
   4 C :   -0.134929
   5 H :   -0.018938
   6 C :   -0.003560
   7 H :    0.040870
   8 H :    0.021783
   9 C :   -0.018628
  10 H :    0.032279
  11 H :    0.027719
  12 C :   -0.044207
  13 H :    0.024765
  14 H :    0.019458
  15 H :    0.033723
  16 S :    0.102985
  17 C :   -0.082510
  18 C :   -0.036194
  19 C :    0.012820
  20 C :   -0.134264
  21 H :    0.022119
  22 C :   -0.027083
  23 H :    0.042381
  24 H :    0.039769
  25 C :   -0.018654
  26 H :    0.008745
  27 H :    0.040582
  28 C :   -0.124453
  29 H :    0.048925
  30 H :    0.030452
  31 H :    0.046799
  32 H :    0.045098
  33 H :    0.033309
Sum of atomic charges:   -0.0000000

LOEWDIN ATOMIC CHARGES
----------------------
   0 S :    0.413811
   1 C :   -0.198422
   2 C :   -0.067775
   3 C :   -0.053005
   4 C :   -0.197143
   5 H :    0.022567
   6 C :   -0.037132
   7 H :    0.040225
   8 H :    0.026681
   9 C :   -0.028699
  10 H :    0.028433
  11 H :    0.019686
  12 C :   -0.066465
  13 H :    0.027013
  14 H :    0.020171
  15 H :    0.024149
  16 S :    0.403432
  17 C :   -0.172717
  18 C :   -0.062203
  19 C :   -0.061067
  20 C :   -0.195106
  21 H :    0.031087
  22 C :   -0.044058
  23 H :    0.041697
  24 H :    0.038033
  25 C :   -0.045330
  26 H :    0.019582
  27 H :    0.028065
  28 C :   -0.085214
  29 H :    0.031496
  30 H :    0.027852
  31 H :    0.030345
  32 H :    0.026655
  33 H :    0.013356

  Mayer bond orders larger than 0.100000
B(  0-S ,  1-C ) :   1.1477 B(  0-S ,  4-C ) :   1.1309 B(  1-C ,  2-C ) :   1.6283
B(  1-C , 32-H ) :   0.9563 B(  2-C ,  3-C ) :   1.2376 B(  2-C ,  6-C ) :   1.0136
B(  3-C ,  4-C ) :   1.5833 B(  3-C ,  5-H ) :   1.0011 B(  4-C , 20-C ) :   1.0632
B(  6-C ,  7-H ) :   0.9530 B(  6-C ,  8-H ) :   0.9414 B(  6-C ,  9-C ) :   1.0453
B(  9-C , 10-H ) :   0.9603 B(  9-C , 11-H ) :   0.9565 B(  9-C , 12-C ) :   1.0827
B( 12-C , 13-H ) :   0.9727 B( 12-C , 14-H ) :   0.9748 B( 12-C , 15-H ) :   0.9744
B( 16-S , 17-C ) :   1.1606 B( 16-S , 20-C ) :   1.1433 B( 17-C , 18-C ) :   1.5978
B( 17-C , 20-C ) :   0.1041 B( 17-C , 33-H ) :   0.9758 B( 18-C , 19-C ) :   1.2297
B( 18-C , 21-H ) :   0.9942 B( 19-C , 20-C ) :   1.5486 B( 19-C , 22-C ) :   1.0658
B( 22-C , 23-H ) :   0.9423 B( 22-C , 24-H ) :   0.9329 B( 22-C , 25-C ) :   1.0704
B( 25-C , 26-H ) :   0.9460 B( 25-C , 27-H ) :   0.9491 B( 25-C , 28-C ) :   1.0802
B( 28-C , 29-H ) :   0.9679 B( 28-C , 30-H ) :   0.9697 B( 28-C , 31-H ) :   0.9734

Dispersion correction           -0.014265880
FINAL SINGLE POINT ENERGY     -1339.867953219803

DIPOLE MOMENT
-------------
                                X             Y             Z
Electronic contribution:     -7.59362      15.98013      22.76354
Nuclear contribution   :      7.74895     -16.43436     -23.19883
                        -----------------------------------------
Total Dipole Moment    :      0.15534      -0.45423      -0.43528
                        -----------------------------------------
Magnitude (a.u.)       :      0.64802
Magnitude (Debye)      :      1.64713

Rotational constants in cm-1:     0.020451     0.008222     0.006197
Rotational constants in MHz :   613.110835   246.496783   185.773731

                             ****ORCA TERMINATED NORMALLY****
TOTAL RUN TIME: 0 days 0 hours 0 minutes 30 seconds 147 msec
