                         Program Version 4.2.1 -  RELEASE  -
|  1> ! wB97X-D3 SP def2-SVP
|  2> %pal
|  3> nprocs 16
|  4> end
|  5>
|  6> * xyz 0 1
|  7> S 	 -90.472 	 42.4189 	 112.073
|  8> C 	 -89.0557 	 43.5545 	 112.302
|  9> C 	 -89.3609 	 44.7325 	 112.964
| 10> C 	 -90.6789 	 44.5844 	 113.512
| 11> C 	 -91.3314 	 43.439 	 113.235
| 12> H 	 -91.1454 	 45.2873 	 114.165
| 13> C 	 -88.3831 	 45.8975 	 113.181
| 14> H 	 -89.0039 	 46.7872 	 113.547
| 15> H 	 -88.0529 	 46.1595 	 112.211
| 16> C 	 -87.3096 	 45.6042 	 114.242
| 17> H 	 -86.626 	 44.9797 	 113.739
| 18> H 	 -86.8328 	 46.44 	 114.657
| 19> C 	 -87.9832 	 44.8612 	 115.456
| 20> H 	 -87.3441 	 45.0569 	 116.353
| 21> H 	 -88.9893 	 45.2926 	 115.645
| 22> H 	 -88.1069 	 43.7613 	 115.203
| 23> S 	 -93.7644 	 42.3433 	 112.779
| 24> C 	 -94.9671 	 42.3906 	 114.098
| 25> C 	 -94.3607 	 42.6556 	 115.32
| 26> C 	 -92.9664 	 43.0204 	 115.229
| 27> C 	 -92.5823 	 42.9933 	 113.893
| 28> H 	 -94.9798 	 42.6335 	 116.168
| 29> C 	 -92.1923 	 43.337 	 116.478
| 30> H 	 -92.7687 	 44.113 	 116.959
| 31> H 	 -91.2282 	 43.6778 	 116.088
| 32> C 	 -92.0229 	 42.202 	 117.474
| 33> H 	 -91.3765 	 41.4713 	 117.096
| 34> H 	 -93.0763 	 41.7165 	 117.57
| 35> C 	 -91.5621 	 42.6062 	 118.87
| 36> H 	 -90.4581 	 42.8153 	 118.872
| 37> H 	 -91.9449 	 41.929 	 119.605
| 38> H 	 -92.089 	 43.5052 	 119.143
| 39> H 	 -88.1424 	 43.3118 	 111.879
| 40> H 	 -96.0673 	 42.1253 	 114.168
| 41> *
| 42>
| 43>                          ****END OF INPUT****

CARTESIAN COORDINATES (ANGSTROEM)
---------------------------------
  S    -90.472000   42.418900  112.073000
  C    -89.055700   43.554500  112.302000
  C    -89.360900   44.732500  112.964000
  C    -90.678900   44.584400  113.512000
  C    -91.331400   43.439000  113.235000
  H    -91.145400   45.287300  114.165000
  C    -88.383100   45.897500  113.181000
  H    -89.003900   46.787200  113.547000
  H    -88.052900   46.159500  112.211000
  C    -87.309600   45.604200  114.242000
  H    -86.626000   44.979700  113.739000
  H    -86.832800   46.440000  114.657000
  C    -87.983200   44.861200  115.456000
  H    -87.344100   45.056900  116.353000
  H    -88.989300   45.292600  115.645000
  H    -88.106900   43.761300  115.203000
  S    -93.764400   42.343300  112.779000
  C    -94.967100   42.390600  114.098000
  C    -94.360700   42.655600  115.320000
  C    -92.966400   43.020400  115.229000
  C    -92.582300   42.993300  113.893000
  H    -94.979800   42.633500  116.168000
  C    -92.192300   43.337000  116.478000
  H    -92.768700   44.113000  116.959000
  H    -91.228200   43.677800  116.088000
  C    -92.022900   42.202000  117.474000
  H    -91.376500   41.471300  117.096000
  H    -93.076300   41.716500  117.570000
  C    -91.562100   42.606200  118.870000
  H    -90.458100   42.815300  118.872000
  H    -91.944900   41.929000  119.605000
  H    -92.089000   43.505200  119.143000
  H    -88.142400   43.311800  111.879000
  H    -96.067300   42.125300  114.168000

 Total Charge           Charge          ....    0
 Multiplicity           Mult            ....    1
 Number of Electrons    NEL             ....  134
 Basis Dimension        Dim             ....  322

ORBITAL ENERGIES
----------------

  NO   OCC          E(Eh)            E(eV)
   0   2.0000     -88.967740     -2420.9353
   1   2.0000     -88.965170     -2420.8653
   2   2.0000     -10.328344      -281.0485
   3   2.0000     -10.326606      -281.0012
   4   2.0000     -10.321614      -280.8654
   5   2.0000     -10.315135      -280.6891
   6   2.0000     -10.306715      -280.4600
   7   2.0000     -10.304472      -280.3989
   8   2.0000     -10.300042      -280.2784
   9   2.0000     -10.290216      -280.0110
  10   2.0000     -10.290052      -280.0066
  11   2.0000     -10.289133      -279.9816
  12   2.0000     -10.287873      -279.9473
  13   2.0000     -10.286747      -279.9166
  14   2.0000     -10.284869      -279.8655
  15   2.0000     -10.278440      -279.6906
  16   2.0000      -8.081832      -219.9178
  17   2.0000      -8.078901      -219.8381
  18   2.0000      -6.040558      -164.3719
  19   2.0000      -6.037496      -164.2886
  20   2.0000      -6.036594      -164.2641
  21   2.0000      -6.033939      -164.1918
  22   2.0000      -6.032250      -164.1459
  23   2.0000      -6.029245      -164.0641
  24   2.0000      -1.002007       -27.2660
  25   2.0000      -0.977631       -26.6027
  26   2.0000      -0.914652       -24.8890
  27   2.0000      -0.911142       -24.7934
  28   2.0000      -0.862792       -23.4778
  29   2.0000      -0.853568       -23.2268
  30   2.0000      -0.840127       -22.8610
  31   2.0000      -0.814263       -22.1572
  32   2.0000      -0.783155       -21.3107
  33   2.0000      -0.771568       -20.9954
  34   2.0000      -0.707002       -19.2385
  35   2.0000      -0.702466       -19.1151
  36   2.0000      -0.690531       -18.7903
  37   2.0000      -0.660999       -17.9867
  38   2.0000      -0.642543       -17.4845
  39   2.0000      -0.615854       -16.7582
  40   2.0000      -0.586413       -15.9571
  41   2.0000      -0.576773       -15.6948
  42   2.0000      -0.572559       -15.5801
  43   2.0000      -0.555021       -15.1029
  44   2.0000      -0.543504       -14.7895
  45   2.0000      -0.523665       -14.2496
  46   2.0000      -0.518502       -14.1092
  47   2.0000      -0.511096       -13.9076
  48   2.0000      -0.500882       -13.6297
  49   2.0000      -0.493200       -13.4207
  50   2.0000      -0.488047       -13.2804
  51   2.0000      -0.471671       -12.8348
  52   2.0000      -0.466206       -12.6861
  53   2.0000      -0.457914       -12.4605
  54   2.0000      -0.453059       -12.3284
  55   2.0000      -0.451669       -12.2905
  56   2.0000      -0.448635       -12.2080
  57   2.0000      -0.439748       -11.9661
  58   2.0000      -0.433570       -11.7980
  59   2.0000      -0.430534       -11.7154
  60   2.0000      -0.426111       -11.5951
  61   2.0000      -0.416577       -11.3356
  62   2.0000      -0.411067       -11.1857
  63   2.0000      -0.345997        -9.4151
  64   2.0000      -0.334475        -9.1015
  65   2.0000      -0.328838        -8.9481
  66   2.0000      -0.287818        -7.8319
  67   0.0000       0.030559         0.8315
  68   0.0000       0.062329         1.6961
  69   0.0000       0.088135         2.3983
  70   0.0000       0.115186         3.1344
  71   0.0000       0.126786         3.4500

MULLIKEN ATOMIC CHARGES
-----------------------
   0 S :    0.087041
   1 C :   -0.114756
   2 C :   -0.090538
   3 C :   -0.000471
   4 C :   -0.106928
   5 H :    0.002810
   6 C :    0.067561
   7 H :    0.032695
   8 H :    0.030687
   9 C :   -0.018437
  10 H :    0.022616
  11 H :    0.027317
  12 C :   -0.104497
  13 H :    0.044111
  14 H :    0.034965
  15 H :    0.064497
  16 S :    0.104741
  17 C :   -0.101597
  18 C :   -0.051110
  19 C :   -0.036511
  20 C :   -0.170671
  21 H :    0.001856
  22 C :    0.121015
  23 H :    0.020066
  24 H :    0.019219
  25 C :   -0.108778
  26 H :    0.025817
  27 H :    0.030825
  28 C :   -0.012333
  29 H :    0.050385
  30 H :    0.031913
  31 H :    0.007721
  32 H :    0.017106
  33 H :    0.071661
Sum of atomic charges:   -0.0000000

LOEWDIN ATOMIC CHARGES
----------------------
   0 S :    0.349294
   1 C :   -0.152716
   2 C :   -0.052233
   3 C :   -0.065294
   4 C :   -0.182528
   5 H :    0.026102
   6 C :   -0.027068
   7 H :    0.036769
   8 H :    0.025338
   9 C :   -0.029081
  10 H :    0.017869
  11 H :    0.018694
  12 C :   -0.072016
  13 H :    0.028461
  14 H :    0.023370
  15 H :    0.037674
  16 S :    0.388103
  17 C :   -0.192016
  18 C :   -0.064952
  19 C :   -0.055124
  20 C :   -0.189151
  21 H :    0.020909
  22 C :   -0.030692
  23 H :    0.030667
  24 H :    0.030293
  25 C :   -0.039591
  26 H :    0.017982
  27 H :    0.030948
  28 C :   -0.065157
  29 H :    0.034725
  30 H :    0.027769
  31 H :    0.020486
  32 H :    0.005701
  33 H :    0.046468

  Mayer bond orders larger than 0.100000
B(  0-S ,  1-C ) :   1.1164 B(  0-S ,  4-C ) :   1.1113 B(  1-C ,  2-C ) :   1.6446
B(  1-C , 32-H ) :   0.9816 B(  2-C ,  3-C ) :   1.1819 B(  2-C ,  6-C ) :   1.0072
B(  3-C ,  4-C ) :   1.6460 B(  3-C ,  5-H ) :   1.0001 B(  4-C , 20-C ) :   1.0061
B(  6-C ,  7-H ) :   0.9416 B(  6-C ,  8-H ) :   0.9438 B(  6-C ,  9-C ) :   1.0650
B(  9-C , 10-H ) :   0.9582 B(  9-C , 11-H ) :   0.9632 B(  9-C , 12-C ) :   1.0711
B( 12-C , 13-H ) :   0.9748 B( 12-C , 14-H ) :   0.9762 B( 12-C , 15-H ) :   0.9671
B( 16-S , 17-C ) :   1.1189 B( 16-S , 20-C ) :   1.1303 B( 17-C , 18-C ) :   1.6756
B( 17-C , 33-H ) :   0.9556 B( 18-C , 19-C ) :   1.1862 B( 18-C , 21-H ) :   0.9876
B( 19-C , 20-C ) :   1.6293 B( 19-C , 22-C ) :   1.0422 B( 22-C , 23-H ) :   0.9225
B( 22-C , 24-H ) :   0.9218 B( 22-C , 25-C ) :   1.0766 B( 25-C , 26-H ) :   0.9537
B( 25-C , 27-H ) :   0.9556 B( 25-C , 28-C ) :   1.0829 B( 28-C , 29-H ) :   0.9737
B( 28-C , 30-H ) :   0.9715 B( 28-C , 31-H ) :   0.9705

Dispersion correction           -0.015006323
FINAL SINGLE POINT ENERGY     -1339.853450888731

DIPOLE MOMENT
-------------
                                X             Y             Z
Electronic contribution:    -13.71704      -9.19208     -24.96661
Nuclear contribution   :     13.99594       9.58136      25.63942
                        -----------------------------------------
Total Dipole Moment    :      0.27890       0.38928       0.67281
                        -----------------------------------------
Magnitude (a.u.)       :      0.82583
Magnitude (Debye)      :      2.09910

Rotational constants in cm-1:     0.016625     0.010229     0.007000
Rotational constants in MHz :   498.409576   306.659630   209.852906

                             ****ORCA TERMINATED NORMALLY****
TOTAL RUN TIME: 0 days 0 hours 0 minutes 35 seconds 280 msec
