                         Program Version 4.2.1 -  RELEASE  -
|  1> ! wB97X-D3 SP def2-SVP
|  2> %pal
|  3> nprocs 16
|  4> end
|  5>
|  6> * xyz 0 1
|  7> S 	 52.285 	 8.08388 	 84.3277
|  8> C 	 51.7145 	 9.50869 	 83.4713
|  9> C 	 50.6287 	 9.27788 	 82.6358
| 10> C 	 50.2682 	 7.88806 	 82.7731
| 11> C 	 50.9815 	 7.05548 	 83.617
| 12> H 	 49.4434 	 7.32419 	 82.3865
| 13> C 	 49.9353 	 10.2909 	 81.674
| 14> H 	 50.0034 	 11.2768 	 81.9314
| 15> H 	 48.8276 	 10.1246 	 81.7026
| 16> C 	 50.4723 	 10.1946 	 80.3315
| 17> H 	 51.6044 	 10.022 	 80.4069
| 18> H 	 50.0971 	 9.26581 	 79.9029
| 19> C 	 50.0532 	 11.4024 	 79.4222
| 20> H 	 50.5905 	 11.2667 	 78.4671
| 21> H 	 49.0445 	 11.5079 	 79.2998
| 22> H 	 50.3524 	 12.3702 	 79.8249
| 23> S 	 50.3922 	 4.5107 	 82.813
| 24> C 	 50.1704 	 3.16708 	 83.9851
| 25> C 	 50.3384 	 3.7191 	 85.2518
| 26> C 	 50.6358 	 5.13236 	 85.2977
| 27> C 	 50.7005 	 5.70052 	 84.0596
| 28> H 	 50.2927 	 3.12415 	 86.122
| 29> C 	 50.6323 	 5.93755 	 86.5488
| 30> H 	 49.7987 	 5.42707 	 87.0875
| 31> H 	 50.2686 	 6.96376 	 86.342
| 32> C 	 51.8249 	 5.78794 	 87.4977
| 33> H 	 52.0485 	 4.73409 	 87.5353
| 34> H 	 51.5647 	 5.88244 	 88.5149
| 35> C 	 53.107 	 6.47399 	 87.1625
| 36> H 	 53.0435 	 7.5354 	 87.085
| 37> H 	 53.6207 	 6.07785 	 86.2767
| 38> H 	 53.7942 	 6.23021 	 87.9737
| 39> H 	 52.1951 	 10.4708 	 83.6074
| 40> H 	 50.0469 	 2.11357 	 83.6353
| 41> *
| 42>
| 43>                          ****END OF INPUT****

CARTESIAN COORDINATES (ANGSTROEM)
---------------------------------
  S     52.285000    8.083880   84.327700
  C     51.714500    9.508690   83.471300
  C     50.628700    9.277880   82.635800
  C     50.268200    7.888060   82.773100
  C     50.981500    7.055480   83.617000
  H     49.443400    7.324190   82.386500
  C     49.935300   10.290900   81.674000
  H     50.003400   11.276800   81.931400
  H     48.827600   10.124600   81.702600
  C     50.472300   10.194600   80.331500
  H     51.604400   10.022000   80.406900
  H     50.097100    9.265810   79.902900
  C     50.053200   11.402400   79.422200
  H     50.590500   11.266700   78.467100
  H     49.044500   11.507900   79.299800
  H     50.352400   12.370200   79.824900
  S     50.392200    4.510700   82.813000
  C     50.170400    3.167080   83.985100
  C     50.338400    3.719100   85.251800
  C     50.635800    5.132360   85.297700
  C     50.700500    5.700520   84.059600
  H     50.292700    3.124150   86.122000
  C     50.632300    5.937550   86.548800
  H     49.798700    5.427070   87.087500
  H     50.268600    6.963760   86.342000
  C     51.824900    5.787940   87.497700
  H     52.048500    4.734090   87.535300
  H     51.564700    5.882440   88.514900
  C     53.107000    6.473990   87.162500
  H     53.043500    7.535400   87.085000
  H     53.620700    6.077850   86.276700
  H     53.794200    6.230210   87.973700
  H     52.195100   10.470800   83.607400
  H     50.046900    2.113570   83.635300

 Total Charge           Charge          ....    0
 Multiplicity           Mult            ....    1
 Number of Electrons    NEL             ....  134
 Basis Dimension        Dim             ....  322

ORBITAL ENERGIES
----------------

  NO   OCC          E(Eh)            E(eV)
   0   2.0000     -88.964935     -2420.8589
   1   2.0000     -88.961210     -2420.7576
   2   2.0000     -10.332801      -281.1698
   3   2.0000     -10.329800      -281.0882
   4   2.0000     -10.326657      -281.0026
   5   2.0000     -10.319194      -280.7996
   6   2.0000     -10.310999      -280.5765
   7   2.0000     -10.300766      -280.2981
   8   2.0000     -10.298394      -280.2336
   9   2.0000     -10.296069      -280.1703
  10   2.0000     -10.290287      -280.0130
  11   2.0000     -10.288195      -279.9560
  12   2.0000     -10.286164      -279.9008
  13   2.0000     -10.276596      -279.6404
  14   2.0000     -10.276450      -279.6364
  15   2.0000     -10.266489      -279.3654
  16   2.0000      -8.078179      -219.8184
  17   2.0000      -8.075603      -219.7483
  18   2.0000      -6.036796      -164.2696
  19   2.0000      -6.034294      -164.2015
  20   2.0000      -6.032789      -164.1605
  21   2.0000      -6.030042      -164.0858
  22   2.0000      -6.028987      -164.0571
  23   2.0000      -6.026289      -163.9837
  24   2.0000      -1.003038       -27.2940
  25   2.0000      -0.979156       -26.6442
  26   2.0000      -0.919490       -25.0206
  27   2.0000      -0.910641       -24.7798
  28   2.0000      -0.871732       -23.7210
  29   2.0000      -0.851892       -23.1812
  30   2.0000      -0.841273       -22.8922
  31   2.0000      -0.814497       -22.1636
  32   2.0000      -0.787709       -21.4346
  33   2.0000      -0.774464       -21.0742
  34   2.0000      -0.707615       -19.2552
  35   2.0000      -0.700784       -19.0693
  36   2.0000      -0.692264       -18.8375
  37   2.0000      -0.671503       -18.2725
  38   2.0000      -0.644871       -17.5478
  39   2.0000      -0.615826       -16.7575
  40   2.0000      -0.595424       -16.2023
  41   2.0000      -0.571332       -15.5467
  42   2.0000      -0.561168       -15.2702
  43   2.0000      -0.552592       -15.0368
  44   2.0000      -0.539361       -14.6768
  45   2.0000      -0.529832       -14.4175
  46   2.0000      -0.527218       -14.3463
  47   2.0000      -0.512705       -13.9514
  48   2.0000      -0.504874       -13.7383
  49   2.0000      -0.499761       -13.5992
  50   2.0000      -0.489759       -13.3270
  51   2.0000      -0.479327       -13.0431
  52   2.0000      -0.471289       -12.8244
  53   2.0000      -0.466089       -12.6829
  54   2.0000      -0.462741       -12.5918
  55   2.0000      -0.447150       -12.1676
  56   2.0000      -0.440905       -11.9976
  57   2.0000      -0.433297       -11.7906
  58   2.0000      -0.430143       -11.7048
  59   2.0000      -0.422927       -11.5084
  60   2.0000      -0.414834       -11.2882
  61   2.0000      -0.408214       -11.1081
  62   2.0000      -0.404280       -11.0010
  63   2.0000      -0.352715        -9.5979
  64   2.0000      -0.330941        -9.0054
  65   2.0000      -0.325699        -8.8627
  66   2.0000      -0.294225        -8.0063
  67   0.0000       0.027064         0.7365
  68   0.0000       0.071868         1.9556
  69   0.0000       0.103943         2.8284
  70   0.0000       0.115616         3.1461
  71   0.0000       0.133625         3.6361

MULLIKEN ATOMIC CHARGES
-----------------------
   0 S :    0.091273
   1 C :   -0.124307
   2 C :   -0.067378
   3 C :    0.029981
   4 C :   -0.161224
   5 H :   -0.001446
   6 C :    0.126988
   7 H :   -0.016930
   8 H :    0.031243
   9 C :   -0.110500
  10 H :    0.046168
  11 H :    0.025583
  12 C :   -0.013649
  13 H :    0.043751
  14 H :    0.015661
  15 H :    0.022192
  16 S :    0.078237
  17 C :   -0.114215
  18 C :   -0.004373
  19 C :   -0.034821
  20 C :   -0.150284
  21 H :    0.005286
  22 C :    0.025629
  23 H :    0.025054
  24 H :    0.046295
  25 C :   -0.023231
  26 H :   -0.001389
  27 H :    0.009518
  28 C :   -0.025833
  29 H :    0.028794
  30 H :    0.034692
  31 H :    0.023554
  32 H :    0.052502
  33 H :    0.087183
Sum of atomic charges:   -0.0000000

LOEWDIN ATOMIC CHARGES
----------------------
   0 S :    0.397425
   1 C :   -0.184183
   2 C :   -0.058243
   3 C :   -0.060272
   4 C :   -0.181135
   5 H :    0.024305
   6 C :   -0.028411
   7 H :    0.013782
   8 H :    0.037262
   9 C :   -0.045844
  10 H :    0.035066
  11 H :    0.023269
  12 C :   -0.056970
  13 H :    0.034790
  14 H :    0.012617
  15 H :    0.023841
  16 S :    0.381661
  17 C :   -0.175385
  18 C :   -0.062602
  19 C :   -0.064187
  20 C :   -0.194638
  21 H :    0.022552
  22 C :   -0.038206
  23 H :    0.041720
  24 H :    0.033171
  25 C :   -0.044468
  26 H :    0.025304
  27 H :    0.020193
  28 C :   -0.070217
  29 H :    0.012117
  30 H :    0.024875
  31 H :    0.029406
  32 H :    0.027493
  33 H :    0.043912

  Mayer bond orders larger than 0.100000
B(  0-S ,  1-C ) :   1.1565 B(  0-S ,  4-C ) :   1.1062 B(  1-C ,  2-C ) :   1.6098
B(  1-C , 32-H ) :   0.9663 B(  2-C ,  3-C ) :   1.2138 B(  2-C ,  6-C ) :   1.0184
B(  3-C ,  4-C ) :   1.6178 B(  3-C ,  5-H ) :   0.9857 B(  4-C , 20-C ) :   1.0396
B(  6-C ,  7-H ) :   0.9381 B(  6-C ,  8-H ) :   0.9339 B(  6-C ,  9-C ) :   1.0627
B(  9-C , 10-H ) :   0.9555 B(  9-C , 11-H ) :   0.9517 B(  9-C , 12-C ) :   1.0755
B( 12-C , 13-H ) :   0.9747 B( 12-C , 14-H ) :   0.9740 B( 12-C , 15-H ) :   0.9744
B( 16-S , 17-C ) :   1.1393 B( 16-S , 20-C ) :   1.1304 B( 17-C , 18-C ) :   1.5957
B( 17-C , 33-H ) :   0.9677 B( 18-C , 19-C ) :   1.2367 B( 18-C , 21-H ) :   0.9901
B( 19-C , 20-C ) :   1.5947 B( 19-C , 22-C ) :   1.0380 B( 22-C , 23-H ) :   0.9260
B( 22-C , 24-H ) :   0.9446 B( 22-C , 25-C ) :   1.0678 B( 25-C , 26-H ) :   0.9430
B( 25-C , 27-H ) :   0.9507 B( 25-C , 28-C ) :   1.0914 B( 28-C , 29-H ) :   0.9713
B( 28-C , 30-H ) :   0.9711 B( 28-C , 31-H ) :   0.9645

Dispersion correction           -0.014467756
FINAL SINGLE POINT ENERGY     -1339.862514944014

DIPOLE MOMENT
-------------
                                X             Y             Z
Electronic contribution:      0.36217     -13.73602      -0.13605
Nuclear contribution   :     -0.61732      13.89517       0.31714
                        -----------------------------------------
Total Dipole Moment    :     -0.25515       0.15915       0.18109
                        -----------------------------------------
Magnitude (a.u.)       :      0.35103
Magnitude (Debye)      :      0.89225

Rotational constants in cm-1:     0.022855     0.007823     0.006189
Rotational constants in MHz :   685.173435   234.529755   185.555469

                             ****ORCA TERMINATED NORMALLY****
TOTAL RUN TIME: 0 days 0 hours 0 minutes 27 seconds 800 msec
