                         Program Version 4.2.1 -  RELEASE  -
|  1> ! wB97X-D3 SP def2-SVP
|  2> %pal
|  3> nprocs 16
|  4> end
|  5>
|  6> * xyz 0 1
|  7> S 	 -37.0228 	 26.6446 	 84.165
|  8> C 	 -37.9733 	 25.3163 	 83.4749
|  9> C 	 -37.2809 	 24.116 	 83.6322
| 10> C 	 -35.9452 	 24.2861 	 84.2197
| 11> C 	 -35.6285 	 25.6446 	 84.4557
| 12> H 	 -35.2169 	 23.5678 	 84.4513
| 13> C 	 -37.8951 	 22.7638 	 83.2692
| 14> H 	 -37.0825 	 22.1232 	 83.0445
| 15> H 	 -38.3681 	 22.8754 	 82.3232
| 16> C 	 -38.6783 	 22.0372 	 84.3195
| 17> H 	 -38.8907 	 20.9378 	 84.1568
| 18> H 	 -38.0838 	 22.022 	 85.21
| 19> C 	 -39.9686 	 22.673 	 84.6964
| 20> H 	 -39.9022 	 23.7575 	 84.8884
| 21> H 	 -40.6981 	 22.6341 	 83.9182
| 22> H 	 -40.4383 	 22.2446 	 85.5571
| 23> S 	 -34.6551 	 26.2516 	 87.0088
| 24> C 	 -32.9097 	 26.4815 	 87.1467
| 25> C 	 -32.2552 	 26.3653 	 85.9842
| 26> C 	 -33.1521 	 26.0949 	 84.8879
| 27> C 	 -34.4798 	 26.1027 	 85.2647
| 28> H 	 -31.1438 	 26.4871 	 85.9946
| 29> C 	 -32.7335 	 25.8681 	 83.4412
| 30> H 	 -33.4201 	 25.1905 	 82.9871
| 31> H 	 -31.8113 	 25.335 	 83.6063
| 32> C 	 -32.68 	 27.1834 	 82.6095
| 33> H 	 -33.7474 	 27.411 	 82.3727
| 34> H 	 -32.2078 	 27.1425 	 81.6047
| 35> C 	 -31.9698 	 28.3299 	 83.4795
| 36> H 	 -32.0944 	 29.1931 	 82.8866
| 37> H 	 -30.9225 	 28.1711 	 83.6247
| 38> H 	 -32.51 	 28.4236 	 84.4302
| 39> H 	 -38.9955 	 25.3823 	 83.1368
| 40> H 	 -32.3639 	 26.5592 	 88.0989
| 41> *
| 42>
| 43>                          ****END OF INPUT****

CARTESIAN COORDINATES (ANGSTROEM)
---------------------------------
  S    -37.022800   26.644600   84.165000
  C    -37.973300   25.316300   83.474900
  C    -37.280900   24.116000   83.632200
  C    -35.945200   24.286100   84.219700
  C    -35.628500   25.644600   84.455700
  H    -35.216900   23.567800   84.451300
  C    -37.895100   22.763800   83.269200
  H    -37.082500   22.123200   83.044500
  H    -38.368100   22.875400   82.323200
  C    -38.678300   22.037200   84.319500
  H    -38.890700   20.937800   84.156800
  H    -38.083800   22.022000   85.210000
  C    -39.968600   22.673000   84.696400
  H    -39.902200   23.757500   84.888400
  H    -40.698100   22.634100   83.918200
  H    -40.438300   22.244600   85.557100
  S    -34.655100   26.251600   87.008800
  C    -32.909700   26.481500   87.146700
  C    -32.255200   26.365300   85.984200
  C    -33.152100   26.094900   84.887900
  C    -34.479800   26.102700   85.264700
  H    -31.143800   26.487100   85.994600
  C    -32.733500   25.868100   83.441200
  H    -33.420100   25.190500   82.987100
  H    -31.811300   25.335000   83.606300
  C    -32.680000   27.183400   82.609500
  H    -33.747400   27.411000   82.372700
  H    -32.207800   27.142500   81.604700
  C    -31.969800   28.329900   83.479500
  H    -32.094400   29.193100   82.886600
  H    -30.922500   28.171100   83.624700
  H    -32.510000   28.423600   84.430200
  H    -38.995500   25.382300   83.136800
  H    -32.363900   26.559200   88.098900

 Total Charge           Charge          ....    0
 Multiplicity           Mult            ....    1
 Number of Electrons    NEL             ....  134
 Basis Dimension        Dim             ....  322

ORBITAL ENERGIES
----------------

  NO   OCC          E(Eh)            E(eV)
   0   2.0000     -88.968006     -2420.9425
   1   2.0000     -88.964578     -2420.8492
   2   2.0000     -10.333138      -281.1790
   3   2.0000     -10.324734      -280.9503
   4   2.0000     -10.319313      -280.8028
   5   2.0000     -10.316853      -280.7358
   6   2.0000     -10.310060      -280.5510
   7   2.0000     -10.303074      -280.3609
   8   2.0000     -10.300456      -280.2897
   9   2.0000     -10.296198      -280.1738
  10   2.0000     -10.292358      -280.0693
  11   2.0000     -10.285579      -279.8848
  12   2.0000     -10.284815      -279.8640
  13   2.0000     -10.283872      -279.8384
  14   2.0000     -10.269414      -279.4450
  15   2.0000     -10.266236      -279.3585
  16   2.0000      -8.082247      -219.9291
  17   2.0000      -8.079175      -219.8455
  18   2.0000      -6.040796      -164.3784
  19   2.0000      -6.037745      -164.2954
  20   2.0000      -6.036661      -164.2659
  21   2.0000      -6.033886      -164.1904
  22   2.0000      -6.033153      -164.1704
  23   2.0000      -6.029680      -164.0759
  24   2.0000      -1.004106       -27.3231
  25   2.0000      -0.981050       -26.6957
  26   2.0000      -0.918242       -24.9866
  27   2.0000      -0.900754       -24.5108
  28   2.0000      -0.870021       -23.6745
  29   2.0000      -0.846324       -23.0296
  30   2.0000      -0.837079       -22.7781
  31   2.0000      -0.815564       -22.1926
  32   2.0000      -0.788079       -21.4447
  33   2.0000      -0.773935       -21.0599
  34   2.0000      -0.710437       -19.3320
  35   2.0000      -0.698539       -19.0082
  36   2.0000      -0.688175       -18.7262
  37   2.0000      -0.654974       -17.8227
  38   2.0000      -0.646946       -17.6043
  39   2.0000      -0.613009       -16.6808
  40   2.0000      -0.584510       -15.9053
  41   2.0000      -0.572354       -15.5745
  42   2.0000      -0.553312       -15.0564
  43   2.0000      -0.551756       -15.0140
  44   2.0000      -0.546972       -14.8839
  45   2.0000      -0.541776       -14.7425
  46   2.0000      -0.519888       -14.1469
  47   2.0000      -0.513917       -13.9844
  48   2.0000      -0.501113       -13.6360
  49   2.0000      -0.488845       -13.3022
  50   2.0000      -0.485427       -13.2091
  51   2.0000      -0.478105       -13.0099
  52   2.0000      -0.472008       -12.8440
  53   2.0000      -0.465506       -12.6671
  54   2.0000      -0.455739       -12.4013
  55   2.0000      -0.446687       -12.1550
  56   2.0000      -0.444654       -12.0997
  57   2.0000      -0.436882       -11.8882
  58   2.0000      -0.436086       -11.8665
  59   2.0000      -0.421984       -11.4828
  60   2.0000      -0.417827       -11.3697
  61   2.0000      -0.409058       -11.1310
  62   2.0000      -0.407067       -11.0769
  63   2.0000      -0.342009        -9.3065
  64   2.0000      -0.328436        -8.9372
  65   2.0000      -0.326050        -8.8723
  66   2.0000      -0.307423        -8.3654
  67   0.0000       0.038442         1.0461
  68   0.0000       0.055880         1.5206
  69   0.0000       0.112910         3.0724
  70   0.0000       0.119529         3.2525
  71   0.0000       0.124906         3.3989

MULLIKEN ATOMIC CHARGES
-----------------------
   0 S :    0.106829
   1 C :   -0.107418
   2 C :   -0.128115
   3 C :    0.073213
   4 C :   -0.195558
   5 H :    0.002378
   6 C :    0.112970
   7 H :    0.005000
   8 H :    0.019612
   9 C :   -0.042707
  10 H :    0.037719
  11 H :    0.016139
  12 C :   -0.044158
  13 H :    0.024401
  14 H :    0.008352
  15 H :    0.024644
  16 S :    0.108193
  17 C :   -0.098054
  18 C :   -0.043250
  19 C :   -0.120337
  20 C :   -0.131687
  21 H :    0.038365
  22 C :    0.134899
  23 H :    0.019029
  24 H :    0.018378
  25 C :   -0.097050
  26 H :    0.036763
  27 H :    0.038410
  28 C :   -0.052862
  29 H :    0.023671
  30 H :    0.030646
  31 H :    0.066040
  32 H :    0.054373
  33 H :    0.061171
Sum of atomic charges:    0.0000000

LOEWDIN ATOMIC CHARGES
----------------------
   0 S :    0.406917
   1 C :   -0.191564
   2 C :   -0.055388
   3 C :   -0.049448
   4 C :   -0.202925
   5 H :    0.024224
   6 C :   -0.029915
   7 H :    0.029199
   8 H :    0.027361
   9 C :   -0.044308
  10 H :    0.034254
  11 H :    0.024105
  12 C :   -0.068636
  13 H :    0.025572
  14 H :    0.016080
  15 H :    0.023709
  16 S :    0.389129
  17 C :   -0.177241
  18 C :   -0.081390
  19 C :   -0.051653
  20 C :   -0.206277
  21 H :    0.043659
  22 C :   -0.030791
  23 H :    0.025075
  24 H :    0.026298
  25 C :   -0.035881
  26 H :    0.028737
  27 H :    0.025461
  28 C :   -0.061157
  29 H :    0.019248
  30 H :    0.019710
  31 H :    0.032962
  32 H :    0.029451
  33 H :    0.035421

  Mayer bond orders larger than 0.100000
B(  0-S ,  1-C ) :   1.1370 B(  0-S ,  4-C ) :   1.1622 B(  1-C ,  2-C ) :   1.6025
B(  1-C , 32-H ) :   0.9695 B(  2-C ,  3-C ) :   1.2345 B(  2-C ,  6-C ) :   1.0207
B(  3-C ,  4-C ) :   1.5614 B(  3-C ,  5-H ) :   1.0002 B(  4-C , 20-C ) :   1.0085
B(  6-C ,  7-H ) :   0.9269 B(  6-C ,  8-H ) :   0.9439 B(  6-C ,  9-C ) :   1.0726
B(  9-C , 10-H ) :   0.9518 B(  9-C , 11-H ) :   0.9467 B(  9-C , 12-C ) :   1.0920
B( 12-C , 13-H ) :   0.9695 B( 12-C , 14-H ) :   0.9727 B( 12-C , 15-H ) :   0.9709
B( 16-S , 17-C ) :   1.1402 B( 16-S , 20-C ) :   1.1272 B( 17-C , 18-C ) :   1.6676
B( 17-C , 33-H ) :   0.9578 B( 18-C , 19-C ) :   1.2025 B( 18-C , 21-H ) :   0.9842
B( 19-C , 20-C ) :   1.6350 B( 19-C , 22-C ) :   1.0307 B( 22-C , 23-H ) :   0.9290
B( 22-C , 24-H ) :   0.9342 B( 22-C , 25-C ) :   1.0547 B( 25-C , 26-H ) :   0.9565
B( 25-C , 27-H ) :   0.9615 B( 25-C , 28-C ) :   1.0723 B( 28-C , 29-H ) :   0.9748
B( 28-C , 30-H ) :   0.9785 B( 28-C , 31-H ) :   0.9670

Dispersion correction           -0.015313092
FINAL SINGLE POINT ENERGY     -1339.872690601488

DIPOLE MOMENT
-------------
                                X             Y             Z
Electronic contribution:      0.56372       8.94110      10.48154
Nuclear contribution   :     -0.34478      -9.42962     -10.61601
                        -----------------------------------------
Total Dipole Moment    :      0.21894      -0.48852      -0.13447
                        -----------------------------------------
Magnitude (a.u.)       :      0.55197
Magnitude (Debye)      :      1.40299

Rotational constants in cm-1:     0.024718     0.007630     0.006926
Rotational constants in MHz :   741.024763   228.752818   207.642574

                             ****ORCA TERMINATED NORMALLY****
TOTAL RUN TIME: 0 days 0 hours 0 minutes 31 seconds 90 msec
