                         Program Version 4.2.1 -  RELEASE  -
|  1> ! wB97X-D3 SP def2-SVP
|  2> %pal
|  3> nprocs 16
|  4> end
|  5>
|  6> * xyz 0 1
|  7> S 	 -107.383 	 51.63 	 113.866
|  8> C 	 -108.825 	 52.0383 	 114.662
|  9> C 	 -108.569 	 53.0994 	 115.461
| 10> C 	 -107.288 	 53.7095 	 115.235
| 11> C 	 -106.541 	 53.0322 	 114.321
| 12> H 	 -107.068 	 54.696 	 115.48
| 13> C 	 -109.597 	 53.6116 	 116.422
| 14> H 	 -109.158 	 54.2998 	 117.127
| 15> H 	 -109.955 	 52.8261 	 117.04
| 16> C 	 -110.777 	 54.3094 	 115.711
| 17> H 	 -111.152 	 53.603 	 115.028
| 18> H 	 -111.527 	 54.5572 	 116.466
| 19> C 	 -110.299 	 55.5389 	 114.842
| 20> H 	 -111.21 	 56.1364 	 114.613
| 21> H 	 -109.692 	 56.2919 	 115.323
| 22> H 	 -109.835 	 55.2445 	 113.86
| 23> S 	 -104.055 	 52.0321 	 113.806
| 24> C 	 -102.74 	 53.104 	 113.195
| 25> C 	 -103.31 	 54.3136 	 112.826
| 26> C 	 -104.722 	 54.4181 	 113.161
| 27> C 	 -105.202 	 53.2936 	 113.784
| 28> H 	 -102.687 	 55.0205 	 112.309
| 29> C 	 -105.529 	 55.6246 	 112.925
| 30> H 	 -105.255 	 56.3515 	 113.659
| 31> H 	 -106.607 	 55.3284 	 113.089
| 32> C 	 -105.461 	 56.3484 	 111.544
| 33> H 	 -104.593 	 56.8913 	 111.671
| 34> H 	 -106.33 	 57.0627 	 111.542
| 35> C 	 -105.485 	 55.5361 	 110.269
| 36> H 	 -106.511 	 55.1887 	 110.205
| 37> H 	 -104.855 	 54.626 	 110.186
| 38> H 	 -105.399 	 56.1424 	 109.42
| 39> H 	 -109.663 	 51.3119 	 114.796
| 40> H 	 -101.709 	 52.8465 	 112.94
| 41> *
| 42>
| 43>                          ****END OF INPUT****

CARTESIAN COORDINATES (ANGSTROEM)
---------------------------------
  S    -107.383000   51.630000  113.866000
  C    -108.825000   52.038300  114.662000
  C    -108.569000   53.099400  115.461000
  C    -107.288000   53.709500  115.235000
  C    -106.541000   53.032200  114.321000
  H    -107.068000   54.696000  115.480000
  C    -109.597000   53.611600  116.422000
  H    -109.158000   54.299800  117.127000
  H    -109.955000   52.826100  117.040000
  C    -110.777000   54.309400  115.711000
  H    -111.152000   53.603000  115.028000
  H    -111.527000   54.557200  116.466000
  C    -110.299000   55.538900  114.842000
  H    -111.210000   56.136400  114.613000
  H    -109.692000   56.291900  115.323000
  H    -109.835000   55.244500  113.860000
  S    -104.055000   52.032100  113.806000
  C    -102.740000   53.104000  113.195000
  C    -103.310000   54.313600  112.826000
  C    -104.722000   54.418100  113.161000
  C    -105.202000   53.293600  113.784000
  H    -102.687000   55.020500  112.309000
  C    -105.529000   55.624600  112.925000
  H    -105.255000   56.351500  113.659000
  H    -106.607000   55.328400  113.089000
  C    -105.461000   56.348400  111.544000
  H    -104.593000   56.891300  111.671000
  H    -106.330000   57.062700  111.542000
  C    -105.485000   55.536100  110.269000
  H    -106.511000   55.188700  110.205000
  H    -104.855000   54.626000  110.186000
  H    -105.399000   56.142400  109.420000
  H    -109.663000   51.311900  114.796000
  H    -101.709000   52.846500  112.940000

 Total Charge           Charge          ....    0
 Multiplicity           Mult            ....    1
 Number of Electrons    NEL             ....  134
 Basis Dimension        Dim             ....  322

ORBITAL ENERGIES
----------------

  NO   OCC          E(Eh)            E(eV)
   0   2.0000     -88.964370     -2420.8436
   1   2.0000     -88.959472     -2420.7103
   2   2.0000     -10.325145      -280.9615
   3   2.0000     -10.323630      -280.9203
   4   2.0000     -10.323305      -280.9114
   5   2.0000     -10.308177      -280.4998
   6   2.0000     -10.300227      -280.2834
   7   2.0000     -10.297679      -280.2141
   8   2.0000     -10.295055      -280.1427
   9   2.0000     -10.287410      -279.9347
  10   2.0000     -10.286748      -279.9166
  11   2.0000     -10.286691      -279.9151
  12   2.0000     -10.283753      -279.8351
  13   2.0000     -10.283315      -279.8232
  14   2.0000     -10.281984      -279.7870
  15   2.0000     -10.270723      -279.4806
  16   2.0000      -8.079116      -219.8439
  17   2.0000      -8.076557      -219.7743
  18   2.0000      -6.037802      -164.2969
  19   2.0000      -6.034972      -164.2199
  20   2.0000      -6.033599      -164.1826
  21   2.0000      -6.030540      -164.0993
  22   2.0000      -6.029700      -164.0765
  23   2.0000      -6.027450      -164.0153
  24   2.0000      -1.019955       -27.7544
  25   2.0000      -0.990971       -26.9657
  26   2.0000      -0.913174       -24.8487
  27   2.0000      -0.909083       -24.7374
  28   2.0000      -0.871845       -23.7241
  29   2.0000      -0.851053       -23.1583
  30   2.0000      -0.841409       -22.8959
  31   2.0000      -0.822955       -22.3937
  32   2.0000      -0.784307       -21.3421
  33   2.0000      -0.775180       -21.0937
  34   2.0000      -0.706986       -19.2381
  35   2.0000      -0.703241       -19.1362
  36   2.0000      -0.694882       -18.9087
  37   2.0000      -0.661111       -17.9897
  38   2.0000      -0.644945       -17.5498
  39   2.0000      -0.618792       -16.8382
  40   2.0000      -0.589690       -16.0463
  41   2.0000      -0.579606       -15.7719
  42   2.0000      -0.563441       -15.3320
  43   2.0000      -0.545224       -14.8363
  44   2.0000      -0.541246       -14.7280
  45   2.0000      -0.536908       -14.6100
  46   2.0000      -0.524882       -14.2828
  47   2.0000      -0.512831       -13.9548
  48   2.0000      -0.508955       -13.8494
  49   2.0000      -0.497783       -13.5454
  50   2.0000      -0.495171       -13.4743
  51   2.0000      -0.477829       -13.0024
  52   2.0000      -0.472977       -12.8704
  53   2.0000      -0.467770       -12.7287
  54   2.0000      -0.460123       -12.5206
  55   2.0000      -0.445145       -12.1130
  56   2.0000      -0.442304       -12.0357
  57   2.0000      -0.440098       -11.9757
  58   2.0000      -0.427550       -11.6342
  59   2.0000      -0.425653       -11.5826
  60   2.0000      -0.420433       -11.4406
  61   2.0000      -0.413088       -11.2407
  62   2.0000      -0.404910       -11.0182
  63   2.0000      -0.352089        -9.5808
  64   2.0000      -0.328799        -8.9471
  65   2.0000      -0.324544        -8.8313
  66   2.0000      -0.298705        -8.1282
  67   0.0000       0.035607         0.9689
  68   0.0000       0.071334         1.9411
  69   0.0000       0.108337         2.9480
  70   0.0000       0.121041         3.2937
  71   0.0000       0.132216         3.5978

MULLIKEN ATOMIC CHARGES
-----------------------
   0 S :    0.110377
   1 C :   -0.131487
   2 C :   -0.133994
   3 C :    0.078675
   4 C :   -0.172611
   5 H :   -0.009587
   6 C :    0.084571
   7 H :    0.010310
   8 H :    0.018697
   9 C :   -0.041125
  10 H :    0.017500
  11 H :    0.036514
  12 C :   -0.094703
  13 H :    0.031590
  14 H :    0.027937
  15 H :    0.058675
  16 S :    0.100623
  17 C :   -0.100789
  18 C :   -0.033661
  19 C :   -0.033855
  20 C :   -0.128856
  21 H :    0.019319
  22 C :    0.033971
  23 H :    0.036009
  24 H :    0.039054
  25 C :   -0.077016
  26 H :    0.009072
  27 H :    0.036890
  28 C :   -0.015340
  29 H :    0.017634
  30 H :    0.049919
  31 H :    0.021174
  32 H :    0.071090
  33 H :    0.063422
Sum of atomic charges:    0.0000000

LOEWDIN ATOMIC CHARGES
----------------------
   0 S :    0.444609
   1 C :   -0.223173
   2 C :   -0.064159
   3 C :   -0.061115
   4 C :   -0.201552
   5 H :    0.020309
   6 C :   -0.032256
   7 H :    0.024400
   8 H :    0.025432
   9 C :   -0.026914
  10 H :    0.016791
  11 H :    0.025109
  12 C :   -0.076413
  13 H :    0.030119
  14 H :    0.018910
  15 H :    0.034410
  16 S :    0.400883
  17 C :   -0.174730
  18 C :   -0.065157
  19 C :   -0.062843
  20 C :   -0.209425
  21 H :    0.029796
  22 C :   -0.037488
  23 H :    0.031857
  24 H :    0.034921
  25 C :   -0.036518
  26 H :    0.006845
  27 H :    0.035275
  28 C :   -0.066748
  29 H :    0.028758
  30 H :    0.032758
  31 H :    0.020876
  32 H :    0.040932
  33 H :    0.035501

  Mayer bond orders larger than 0.100000
B(  0-S ,  1-C ) :   1.1466 B(  0-S ,  4-C ) :   1.1880 B(  1-C ,  2-C ) :   1.6014
B(  1-C , 32-H ) :   0.9625 B(  2-C ,  3-C ) :   1.2508 B(  2-C ,  6-C ) :   1.0283
B(  3-C ,  4-C ) :   1.5600 B(  3-C ,  5-H ) :   1.0048 B(  4-C , 20-C ) :   1.0010
B(  6-C ,  7-H ) :   0.9424 B(  6-C ,  8-H ) :   0.9366 B(  6-C ,  9-C ) :   1.0758
B(  9-C , 10-H ) :   0.9567 B(  9-C , 11-H ) :   0.9602 B(  9-C , 12-C ) :   1.0638
B( 12-C , 13-H ) :   0.9740 B( 12-C , 14-H ) :   0.9793 B( 12-C , 15-H ) :   0.9735
B( 16-S , 17-C ) :   1.1333 B( 16-S , 20-C ) :   1.1408 B( 17-C , 18-C ) :   1.6333
B( 17-C , 33-H ) :   0.9666 B( 18-C , 19-C ) :   1.2021 B( 18-C , 21-H ) :   0.9913
B( 19-C , 20-C ) :   1.6082 B( 19-C , 22-C ) :   1.0644 B( 22-C , 23-H ) :   0.9308
B( 22-C , 24-H ) :   0.9271 B( 22-C , 25-C ) :   1.0621 B( 25-C , 26-H ) :   0.9556
B( 25-C , 27-H ) :   0.9568 B( 25-C , 28-C ) :   1.0837 B( 28-C , 29-H ) :   0.9718
B( 28-C , 30-H ) :   0.9714 B( 28-C , 31-H ) :   0.9701

Dispersion correction           -0.015095200
FINAL SINGLE POINT ENERGY     -1339.869643372233

DIPOLE MOMENT
-------------
                                X             Y             Z
Electronic contribution:     14.56259     -21.58454       4.24707
Nuclear contribution   :    -14.81686      22.17226      -4.26555
                        -----------------------------------------
Total Dipole Moment    :     -0.25427       0.58773      -0.01848
                        -----------------------------------------
Magnitude (a.u.)       :      0.64064
Magnitude (Debye)      :      1.62837

Rotational constants in cm-1:     0.020285     0.009145     0.007160
Rotational constants in MHz :   608.130854   274.152187   214.658405

                             ****ORCA TERMINATED NORMALLY****
TOTAL RUN TIME: 0 days 0 hours 0 minutes 34 seconds 612 msec
