                         Program Version 4.2.1 -  RELEASE  -
|  1> ! wB97X-D3 SP def2-SVP
|  2> %pal
|  3> nprocs 16
|  4> end
|  5>
|  6> * xyz 0 1
|  7> S 	 -24.5307 	 50.9233 	 64.9686
|  8> C 	 -23.8426 	 49.8029 	 63.8085
|  9> C 	 -24.042 	 48.4893 	 64.1098
| 10> C 	 -24.541 	 48.376 	 65.4109
| 11> C 	 -24.9673 	 49.5752 	 65.938
| 12> H 	 -24.7561 	 47.4878 	 65.931
| 13> C 	 -23.5788 	 47.3285 	 63.3245
| 14> H 	 -22.9208 	 46.7781 	 63.9249
| 15> H 	 -22.9706 	 47.5412 	 62.4051
| 16> C 	 -24.7414 	 46.3187 	 63.0168
| 17> H 	 -24.2436 	 45.5522 	 62.5106
| 18> H 	 -25.1506 	 45.9183 	 64.0057
| 19> C 	 -25.9202 	 46.9831 	 62.2897
| 20> H 	 -25.7047 	 47.2337 	 61.3107
| 21> H 	 -26.6748 	 46.2256 	 62.3695
| 22> H 	 -26.1217 	 47.948 	 62.721
| 23> S 	 -24.7793 	 50.4548 	 68.5088
| 24> C 	 -26.0184 	 50.0169 	 69.6202
| 25> C 	 -27.0772 	 49.5174 	 68.9458
| 26> C 	 -26.9338 	 49.2502 	 67.5404
| 27> C 	 -25.665 	 49.7209 	 67.1497
| 28> H 	 -27.9131 	 49.1857 	 69.5927
| 29> C 	 -27.9953 	 48.508 	 66.6819
| 30> H 	 -27.5033 	 48.3264 	 65.7167
| 31> H 	 -28.7386 	 49.2831 	 66.5195
| 32> C 	 -28.5176 	 47.2155 	 67.3611
| 33> H 	 -28.8164 	 47.3275 	 68.4165
| 34> H 	 -27.6588 	 46.5133 	 67.4919
| 35> C 	 -29.6236 	 46.4839 	 66.5464
| 36> H 	 -29.8535 	 45.5084 	 66.9722
| 37> H 	 -29.2079 	 46.2428 	 65.5939
| 38> H 	 -30.4919 	 47.1268 	 66.3732
| 39> H 	 -23.3135 	 50.116 	 62.982
| 40> H 	 -25.9794 	 50.2261 	 70.6436
| 41> *
| 42>
| 43>                          ****END OF INPUT****

CARTESIAN COORDINATES (ANGSTROEM)
---------------------------------
  S    -24.530700   50.923300   64.968600
  C    -23.842600   49.802900   63.808500
  C    -24.042000   48.489300   64.109800
  C    -24.541000   48.376000   65.410900
  C    -24.967300   49.575200   65.938000
  H    -24.756100   47.487800   65.931000
  C    -23.578800   47.328500   63.324500
  H    -22.920800   46.778100   63.924900
  H    -22.970600   47.541200   62.405100
  C    -24.741400   46.318700   63.016800
  H    -24.243600   45.552200   62.510600
  H    -25.150600   45.918300   64.005700
  C    -25.920200   46.983100   62.289700
  H    -25.704700   47.233700   61.310700
  H    -26.674800   46.225600   62.369500
  H    -26.121700   47.948000   62.721000
  S    -24.779300   50.454800   68.508800
  C    -26.018400   50.016900   69.620200
  C    -27.077200   49.517400   68.945800
  C    -26.933800   49.250200   67.540400
  C    -25.665000   49.720900   67.149700
  H    -27.913100   49.185700   69.592700
  C    -27.995300   48.508000   66.681900
  H    -27.503300   48.326400   65.716700
  H    -28.738600   49.283100   66.519500
  C    -28.517600   47.215500   67.361100
  H    -28.816400   47.327500   68.416500
  H    -27.658800   46.513300   67.491900
  C    -29.623600   46.483900   66.546400
  H    -29.853500   45.508400   66.972200
  H    -29.207900   46.242800   65.593900
  H    -30.491900   47.126800   66.373200
  H    -23.313500   50.116000   62.982000
  H    -25.979400   50.226100   70.643600

 Total Charge           Charge          ....    0
 Multiplicity           Mult            ....    1
 Number of Electrons    NEL             ....  134
 Basis Dimension        Dim             ....  322

ORBITAL ENERGIES
----------------

  NO   OCC          E(Eh)            E(eV)
   0   2.0000     -88.964707     -2420.8527
   1   2.0000     -88.958550     -2420.6852
   2   2.0000     -10.321219      -280.8547
   3   2.0000     -10.316774      -280.7337
   4   2.0000     -10.308678      -280.5134
   5   2.0000     -10.307707      -280.4870
   6   2.0000     -10.302568      -280.3471
   7   2.0000     -10.300342      -280.2866
   8   2.0000     -10.296022      -280.1690
   9   2.0000     -10.292568      -280.0750
  10   2.0000     -10.289520      -279.9921
  11   2.0000     -10.288609      -279.9673
  12   2.0000     -10.287838      -279.9463
  13   2.0000     -10.284129      -279.8454
  14   2.0000     -10.279454      -279.7182
  15   2.0000     -10.266088      -279.3545
  16   2.0000      -8.080216      -219.8738
  17   2.0000      -8.073894      -219.7018
  18   2.0000      -6.038484      -164.3155
  19   2.0000      -6.034762      -164.2142
  20   2.0000      -6.032336      -164.1482
  21   2.0000      -6.031047      -164.1131
  22   2.0000      -6.028359      -164.0400
  23   2.0000      -6.024638      -163.9387
  24   2.0000      -1.012136       -27.5416
  25   2.0000      -0.986132       -26.8340
  26   2.0000      -0.916748       -24.9460
  27   2.0000      -0.903934       -24.5973
  28   2.0000      -0.873616       -23.7723
  29   2.0000      -0.852590       -23.2001
  30   2.0000      -0.845086       -22.9959
  31   2.0000      -0.813173       -22.1276
  32   2.0000      -0.789141       -21.4736
  33   2.0000      -0.776368       -21.1261
  34   2.0000      -0.712203       -19.3800
  35   2.0000      -0.703808       -19.1516
  36   2.0000      -0.697583       -18.9822
  37   2.0000      -0.651585       -17.7305
  38   2.0000      -0.644831       -17.5468
  39   2.0000      -0.624655       -16.9977
  40   2.0000      -0.597064       -16.2469
  41   2.0000      -0.567626       -15.4459
  42   2.0000      -0.559759       -15.2318
  43   2.0000      -0.554266       -15.0824
  44   2.0000      -0.541461       -14.7339
  45   2.0000      -0.533222       -14.5097
  46   2.0000      -0.523855       -14.2548
  47   2.0000      -0.512765       -13.9530
  48   2.0000      -0.508969       -13.8497
  49   2.0000      -0.496890       -13.5211
  50   2.0000      -0.491337       -13.3700
  51   2.0000      -0.483480       -13.1562
  52   2.0000      -0.468088       -12.7373
  53   2.0000      -0.465971       -12.6797
  54   2.0000      -0.459826       -12.5125
  55   2.0000      -0.450776       -12.2662
  56   2.0000      -0.444963       -12.1081
  57   2.0000      -0.442712       -12.0468
  58   2.0000      -0.430770       -11.7218
  59   2.0000      -0.424005       -11.5378
  60   2.0000      -0.420986       -11.4556
  61   2.0000      -0.418642       -11.3918
  62   2.0000      -0.415754       -11.3132
  63   2.0000      -0.335446        -9.1280
  64   2.0000      -0.329957        -8.9786
  65   2.0000      -0.325659        -8.8616
  66   2.0000      -0.298122        -8.1123
  67   0.0000       0.040685         1.1071
  68   0.0000       0.065723         1.7884
  69   0.0000       0.120381         3.2757
  70   0.0000       0.121024         3.2932
  71   0.0000       0.128397         3.4939

MULLIKEN ATOMIC CHARGES
-----------------------
   0 S :    0.124802
   1 C :   -0.098356
   2 C :   -0.062766
   3 C :    0.055975
   4 C :   -0.189229
   5 H :   -0.009288
   6 C :    0.074330
   7 H :    0.016284
   8 H :    0.027320
   9 C :   -0.111296
  10 H :    0.020306
  11 H :    0.032987
  12 C :    0.006463
  13 H :    0.007959
  14 H :    0.034701
  15 H :    0.041125
  16 S :    0.100575
  17 C :   -0.070826
  18 C :   -0.059080
  19 C :   -0.025093
  20 C :   -0.193861
  21 H :    0.024705
  22 C :    0.119163
  23 H :    0.032202
  24 H :    0.041169
  25 C :   -0.128051
  26 H :    0.035777
  27 H :    0.030872
  28 C :   -0.012760
  29 H :    0.034254
  30 H :    0.015553
  31 H :    0.038717
  32 H :    0.006867
  33 H :    0.038500
Sum of atomic charges:   -0.0000000

LOEWDIN ATOMIC CHARGES
----------------------
   0 S :    0.418222
   1 C :   -0.182269
   2 C :   -0.064808
   3 C :   -0.048933
   4 C :   -0.210695
   5 H :    0.022900
   6 C :   -0.031767
   7 H :    0.026235
   8 H :    0.033467
   9 C :   -0.030374
  10 H :    0.014593
  11 H :    0.026759
  12 C :   -0.056222
  13 H :    0.014725
  14 H :    0.026996
  15 H :    0.028754
  16 S :    0.397910
  17 C :   -0.183002
  18 C :   -0.083047
  19 C :   -0.045388
  20 C :   -0.199369
  21 H :    0.032018
  22 C :   -0.024991
  23 H :    0.034174
  24 H :    0.035854
  25 C :   -0.046176
  26 H :    0.023243
  27 H :    0.029028
  28 C :   -0.062061
  29 H :    0.028310
  30 H :    0.020657
  31 H :    0.027117
  32 H :    0.007451
  33 H :    0.020691

  Mayer bond orders larger than 0.100000
B(  0-S ,  1-C ) :   1.1352 B(  0-S ,  4-C ) :   1.1611 B(  1-C ,  2-C ) :   1.6013
B(  1-C , 32-H ) :   0.9773 B(  2-C ,  3-C ) :   1.2228 B(  2-C ,  6-C ) :   1.0362
B(  3-C ,  4-C ) :   1.5782 B(  3-C ,  5-H ) :   1.0024 B(  4-C , 20-C ) :   1.0419
B(  6-C ,  7-H ) :   0.9319 B(  6-C ,  8-H ) :   0.9454 B(  6-C ,  9-C ) :   1.0690
B(  9-C , 10-H ) :   0.9577 B(  9-C , 11-H ) :   0.9593 B(  9-C , 12-C ) :   1.0654
B( 12-C , 13-H ) :   0.9718 B( 12-C , 14-H ) :   0.9766 B( 12-C , 15-H ) :   0.9693
B( 16-S , 17-C ) :   1.1456 B( 16-S , 20-C ) :   1.1475 B( 17-C , 18-C ) :   1.6404
B( 17-C , 20-C ) :   0.1015 B( 17-C , 33-H ) :   0.9743 B( 18-C , 19-C ) :   1.2136
B( 18-C , 21-H ) :   0.9781 B( 19-C , 20-C ) :   1.5952 B( 19-C , 22-C ) :   1.0279
B( 22-C , 23-H ) :   0.9309 B( 22-C , 24-H ) :   0.9322 B( 22-C , 25-C ) :   1.0489
B( 25-C , 26-H ) :   0.9589 B( 25-C , 27-H ) :   0.9546 B( 25-C , 28-C ) :   1.0846
B( 28-C , 29-H ) :   0.9735 B( 28-C , 30-H ) :   0.9721 B( 28-C , 31-H ) :   0.9765

Dispersion correction           -0.014934056
FINAL SINGLE POINT ENERGY     -1339.869452846473

DIPOLE MOMENT
-------------
                                X             Y             Z
Electronic contribution:     14.77869      23.81350      12.15096
Nuclear contribution   :    -15.02734     -24.48610     -12.30190
                        -----------------------------------------
Total Dipole Moment    :     -0.24865      -0.67259      -0.15094
                        -----------------------------------------
Magnitude (a.u.)       :      0.73280
Magnitude (Debye)      :      1.86262

Rotational constants in cm-1:     0.015991     0.010730     0.007156
Rotational constants in MHz :   479.385107   321.691477   214.516902

                             ****ORCA TERMINATED NORMALLY****
TOTAL RUN TIME: 0 days 0 hours 0 minutes 31 seconds 924 msec
