                         Program Version 4.2.1 -  RELEASE  -
|  1> ! wB97X-D3 SP def2-SVP
|  2> %pal
|  3> nprocs 16
|  4> end
|  5>
|  6> * xyz 0 1
|  7> S 	 33.7884 	 12.4472 	 70.6959
|  8> C 	 32.599 	 13.5156 	 70.0764
|  9> C 	 32.1649 	 13.0777 	 68.8451
| 10> C 	 32.7598 	 11.8392 	 68.4087
| 11> C 	 33.5798 	 11.3197 	 69.3735
| 12> H 	 32.5577 	 11.2907 	 67.5091
| 13> C 	 31.0318 	 13.7383 	 68.0447
| 14> H 	 31.0281 	 13.2352 	 67.0951
| 15> H 	 31.283 	 14.8264 	 67.8891
| 16> C 	 29.659 	 13.5941 	 68.7382
| 17> H 	 29.5127 	 12.5848 	 69.1103
| 18> H 	 29.5182 	 14.2091 	 69.6996
| 19> C 	 28.558 	 14.0167 	 67.7747
| 20> H 	 27.5889 	 14.1505 	 68.2815
| 21> H 	 28.8276 	 15.0109 	 67.3516
| 22> H 	 28.434 	 13.2945 	 66.9697
| 23> S 	 35.9728 	 10.1803 	 68.7439
| 24> C 	 36.0011 	 8.48896 	 68.2954
| 25> C 	 34.7554 	 7.95516 	 68.4175
| 26> C 	 33.7524 	 8.7846 	 68.9972
| 27> C 	 34.2675 	 10.0767 	 69.2238
| 28> H 	 34.6743 	 6.84452 	 68.2255
| 29> C 	 32.2642 	 8.32654 	 69.2351
| 30> H 	 31.7571 	 9.25304 	 69.342
| 31> H 	 32.2039 	 7.82009 	 70.1894
| 32> C 	 31.7126 	 7.3289 	 68.1801
| 33> H 	 32.2523 	 6.39881 	 68.0714
| 34> H 	 31.9243 	 7.84114 	 67.2254
| 35> C 	 30.3025 	 6.9014 	 68.5335
| 36> H 	 30.3799 	 6.48137 	 69.5918
| 37> H 	 29.7517 	 6.34835 	 67.7253
| 38> H 	 29.6477 	 7.80756 	 68.7304
| 39> H 	 32.2531 	 14.461 	 70.486
| 40> H 	 36.8457 	 7.95229 	 67.8702
| 41> *
| 42>
| 43>                          ****END OF INPUT****

CARTESIAN COORDINATES (ANGSTROEM)
---------------------------------
  S     33.788400   12.447200   70.695900
  C     32.599000   13.515600   70.076400
  C     32.164900   13.077700   68.845100
  C     32.759800   11.839200   68.408700
  C     33.579800   11.319700   69.373500
  H     32.557700   11.290700   67.509100
  C     31.031800   13.738300   68.044700
  H     31.028100   13.235200   67.095100
  H     31.283000   14.826400   67.889100
  C     29.659000   13.594100   68.738200
  H     29.512700   12.584800   69.110300
  H     29.518200   14.209100   69.699600
  C     28.558000   14.016700   67.774700
  H     27.588900   14.150500   68.281500
  H     28.827600   15.010900   67.351600
  H     28.434000   13.294500   66.969700
  S     35.972800   10.180300   68.743900
  C     36.001100    8.488960   68.295400
  C     34.755400    7.955160   68.417500
  C     33.752400    8.784600   68.997200
  C     34.267500   10.076700   69.223800
  H     34.674300    6.844520   68.225500
  C     32.264200    8.326540   69.235100
  H     31.757100    9.253040   69.342000
  H     32.203900    7.820090   70.189400
  C     31.712600    7.328900   68.180100
  H     32.252300    6.398810   68.071400
  H     31.924300    7.841140   67.225400
  C     30.302500    6.901400   68.533500
  H     30.379900    6.481370   69.591800
  H     29.751700    6.348350   67.725300
  H     29.647700    7.807560   68.730400
  H     32.253100   14.461000   70.486000
  H     36.845700    7.952290   67.870200

 Total Charge           Charge          ....    0
 Multiplicity           Mult            ....    1
 Number of Electrons    NEL             ....  134
 Basis Dimension        Dim             ....  322

ORBITAL ENERGIES
----------------

  NO   OCC          E(Eh)            E(eV)
   0   2.0000     -88.965909     -2420.8855
   1   2.0000     -88.963458     -2420.8188
   2   2.0000     -10.326056      -280.9863
   3   2.0000     -10.323673      -280.9214
   4   2.0000     -10.316270      -280.7200
   5   2.0000     -10.310300      -280.5575
   6   2.0000     -10.309887      -280.5463
   7   2.0000     -10.298065      -280.2246
   8   2.0000     -10.295376      -280.1514
   9   2.0000     -10.295005      -280.1413
  10   2.0000     -10.293934      -280.1122
  11   2.0000     -10.293410      -280.0979
  12   2.0000     -10.292581      -280.0754
  13   2.0000     -10.291483      -280.0455
  14   2.0000     -10.289947      -280.0037
  15   2.0000     -10.280426      -279.7446
  16   2.0000      -8.081132      -219.8988
  17   2.0000      -8.078034      -219.8145
  18   2.0000      -6.039601      -164.3459
  19   2.0000      -6.036551      -164.2629
  20   2.0000      -6.035493      -164.2341
  21   2.0000      -6.032541      -164.1538
  22   2.0000      -6.031980      -164.1385
  23   2.0000      -6.028806      -164.0522
  24   2.0000      -1.008694       -27.4480
  25   2.0000      -0.983835       -26.7715
  26   2.0000      -0.909267       -24.7424
  27   2.0000      -0.907862       -24.7042
  28   2.0000      -0.874822       -23.8051
  29   2.0000      -0.850141       -23.1335
  30   2.0000      -0.845317       -23.0022
  31   2.0000      -0.813042       -22.1240
  32   2.0000      -0.777756       -21.1638
  33   2.0000      -0.766300       -20.8521
  34   2.0000      -0.705136       -19.1877
  35   2.0000      -0.702880       -19.1263
  36   2.0000      -0.696509       -18.9530
  37   2.0000      -0.651457       -17.7270
  38   2.0000      -0.641577       -17.4582
  39   2.0000      -0.614548       -16.7227
  40   2.0000      -0.593786       -16.1577
  41   2.0000      -0.568607       -15.4726
  42   2.0000      -0.566869       -15.4253
  43   2.0000      -0.558685       -15.2026
  44   2.0000      -0.533404       -14.5147
  45   2.0000      -0.521330       -14.1861
  46   2.0000      -0.518855       -14.1188
  47   2.0000      -0.512492       -13.9456
  48   2.0000      -0.505784       -13.7631
  49   2.0000      -0.496707       -13.5161
  50   2.0000      -0.490905       -13.3582
  51   2.0000      -0.480711       -13.0808
  52   2.0000      -0.472701       -12.8628
  53   2.0000      -0.460982       -12.5440
  54   2.0000      -0.460386       -12.5277
  55   2.0000      -0.446442       -12.1483
  56   2.0000      -0.445789       -12.1305
  57   2.0000      -0.435799       -11.8587
  58   2.0000      -0.434287       -11.8176
  59   2.0000      -0.420840       -11.4516
  60   2.0000      -0.418890       -11.3986
  61   2.0000      -0.416291       -11.3278
  62   2.0000      -0.411620       -11.2008
  63   2.0000      -0.342846        -9.3293
  64   2.0000      -0.329183        -8.9575
  65   2.0000      -0.324472        -8.8293
  66   2.0000      -0.301349        -8.2001
  67   0.0000       0.037417         1.0182
  68   0.0000       0.059789         1.6269
  69   0.0000       0.122462         3.3324
  70   0.0000       0.125463         3.4140
  71   0.0000       0.127572         3.4714

MULLIKEN ATOMIC CHARGES
-----------------------
   0 S :    0.125567
   1 C :   -0.103644
   2 C :   -0.116125
   3 C :    0.057948
   4 C :   -0.192944
   5 H :    0.013655
   6 C :    0.065306
   7 H :    0.015301
   8 H :    0.043166
   9 C :   -0.092374
  10 H :    0.028474
  11 H :    0.035103
  12 C :   -0.049536
  13 H :    0.035344
  14 H :    0.029723
  15 H :    0.035180
  16 S :    0.103542
  17 C :   -0.090249
  18 C :   -0.071130
  19 C :   -0.040934
  20 C :   -0.164732
  21 H :    0.038880
  22 C :    0.105150
  23 H :    0.022840
  24 H :    0.029094
  25 C :   -0.088537
  26 H :    0.033535
  27 H :    0.030895
  28 C :   -0.073602
  29 H :    0.042881
  30 H :    0.058575
  31 H :    0.027266
  32 H :    0.045727
  33 H :    0.060652
Sum of atomic charges:   -0.0000000

LOEWDIN ATOMIC CHARGES
----------------------
   0 S :    0.422094
   1 C :   -0.210528
   2 C :   -0.066664
   3 C :   -0.054300
   4 C :   -0.207589
   5 H :    0.032307
   6 C :   -0.031216
   7 H :    0.025975
   8 H :    0.036666
   9 C :   -0.047181
  10 H :    0.021498
  11 H :    0.030126
  12 C :   -0.068828
  13 H :    0.026940
  14 H :    0.027500
  15 H :    0.022695
  16 S :    0.398567
  17 C :   -0.185568
  18 C :   -0.088620
  19 C :   -0.048678
  20 C :   -0.198286
  21 H :    0.039766
  22 C :   -0.019373
  23 H :    0.026434
  24 H :    0.030749
  25 C :   -0.050130
  26 H :    0.023491
  27 H :    0.024646
  28 C :   -0.079686
  29 H :    0.037590
  30 H :    0.035590
  31 H :    0.027007
  32 H :    0.032857
  33 H :    0.034149

  Mayer bond orders larger than 0.100000
B(  0-S ,  1-C ) :   1.1385 B(  0-S ,  4-C ) :   1.1544 B(  1-C ,  2-C ) :   1.6122
B(  1-C , 32-H ) :   0.9708 B(  2-C ,  3-C ) :   1.2384 B(  2-C ,  6-C ) :   1.0257
B(  3-C ,  4-C ) :   1.5669 B(  3-C ,  5-H ) :   0.9991 B(  4-C , 20-C ) :   1.0262
B(  6-C ,  7-H ) :   0.9458 B(  6-C ,  8-H ) :   0.9348 B(  6-C ,  9-C ) :   1.0581
B(  9-C , 10-H ) :   0.9577 B(  9-C , 11-H ) :   0.9536 B(  9-C , 12-C ) :   1.0825
B( 12-C , 13-H ) :   0.9741 B( 12-C , 14-H ) :   0.9716 B( 12-C , 15-H ) :   0.9766
B( 16-S , 17-C ) :   1.1490 B( 16-S , 20-C ) :   1.1518 B( 17-C , 18-C ) :   1.6290
B( 17-C , 33-H ) :   0.9638 B( 18-C , 19-C ) :   1.2465 B( 18-C , 21-H ) :   0.9745
B( 19-C , 20-C ) :   1.5871 B( 19-C , 22-C ) :   1.0201 B( 22-C , 23-H ) :   0.9349
B( 22-C , 24-H ) :   0.9308 B( 22-C , 25-C ) :   1.0610 B( 25-C , 26-H ) :   0.9488
B( 25-C , 27-H ) :   0.9589 B( 25-C , 28-C ) :   1.0745 B( 28-C , 29-H ) :   0.9674
B( 28-C , 30-H ) :   0.9715 B( 28-C , 31-H ) :   0.9742

Dispersion correction           -0.013837140
FINAL SINGLE POINT ENERGY     -1339.878358221613

DIPOLE MOMENT
-------------
                                X             Y             Z
Electronic contribution:     29.89325       4.21800       8.91791
Nuclear contribution   :    -30.48887      -4.43339      -9.28968
                        -----------------------------------------
Total Dipole Moment    :     -0.59561      -0.21539      -0.37177
                        -----------------------------------------
Magnitude (a.u.)       :      0.73442
Magnitude (Debye)      :      1.86673

Rotational constants in cm-1:     0.016270     0.008971     0.006440
Rotational constants in MHz :   487.774187   268.933379   193.068985

                             ****ORCA TERMINATED NORMALLY****
TOTAL RUN TIME: 0 days 0 hours 0 minutes 29 seconds 496 msec
