                         Program Version 4.2.1 -  RELEASE  -
|  1> ! wB97X-D3 SP def2-SVP
|  2> %pal
|  3> nprocs 16
|  4> end
|  5>
|  6> * xyz 0 1
|  7> S 	 -52.4665 	 38.5541 	 86.1417
|  8> C 	 -52.9746 	 37.3115 	 85.133
|  9> C 	 -53.6388 	 36.3425 	 85.8816
| 10> C 	 -53.7724 	 36.6571 	 87.2717
| 11> C 	 -53.3448 	 37.9554 	 87.5318
| 12> H 	 -54.0888 	 35.9938 	 88.0994
| 13> C 	 -54.0225 	 34.9882 	 85.3539
| 14> H 	 -54.1781 	 34.2613 	 86.1721
| 15> H 	 -53.1738 	 34.5984 	 84.7715
| 16> C 	 -55.1785 	 35.0691 	 84.4013
| 17> H 	 -55.0046 	 35.7914 	 83.5941
| 18> H 	 -55.3283 	 34.1382 	 83.9763
| 19> C 	 -56.4993 	 35.4796 	 85.033
| 20> H 	 -56.3523 	 36.3558 	 85.6351
| 21> H 	 -57.1951 	 35.7724 	 84.286
| 22> H 	 -56.9639 	 34.6961 	 85.6499
| 23> S 	 -52.2518 	 39.6244 	 89.5931
| 24> C 	 -53.2686 	 40.2157 	 90.816
| 25> C 	 -54.4955 	 39.5725 	 90.7556
| 26> C 	 -54.6139 	 38.6844 	 89.6792
| 27> C 	 -53.55 	 38.7133 	 88.7623
| 28> H 	 -55.2023 	 39.6756 	 91.556
| 29> C 	 -55.9342 	 38.0098 	 89.4258
| 30> H 	 -56.1246 	 37.4907 	 88.4181
| 31> H 	 -56.6707 	 38.8178 	 89.3019
| 32> C 	 -56.2049 	 37.1066 	 90.6536
| 33> H 	 -56.5038 	 37.796 	 91.4571
| 34> H 	 -55.2918 	 36.5672 	 90.9254
| 35> C 	 -57.294 	 36.0374 	 90.5118
| 36> H 	 -58.284 	 36.4911 	 90.3285
| 37> H 	 -57.1691 	 35.3134 	 91.242
| 38> H 	 -57.0095 	 35.6371 	 89.5549
| 39> H 	 -52.8065 	 37.2212 	 84.1664
| 40> H 	 -53.0389 	 40.9477 	 91.5945
| 41> *
| 42>
| 43>                          ****END OF INPUT****

CARTESIAN COORDINATES (ANGSTROEM)
---------------------------------
  S    -52.466500   38.554100   86.141700
  C    -52.974600   37.311500   85.133000
  C    -53.638800   36.342500   85.881600
  C    -53.772400   36.657100   87.271700
  C    -53.344800   37.955400   87.531800
  H    -54.088800   35.993800   88.099400
  C    -54.022500   34.988200   85.353900
  H    -54.178100   34.261300   86.172100
  H    -53.173800   34.598400   84.771500
  C    -55.178500   35.069100   84.401300
  H    -55.004600   35.791400   83.594100
  H    -55.328300   34.138200   83.976300
  C    -56.499300   35.479600   85.033000
  H    -56.352300   36.355800   85.635100
  H    -57.195100   35.772400   84.286000
  H    -56.963900   34.696100   85.649900
  S    -52.251800   39.624400   89.593100
  C    -53.268600   40.215700   90.816000
  C    -54.495500   39.572500   90.755600
  C    -54.613900   38.684400   89.679200
  C    -53.550000   38.713300   88.762300
  H    -55.202300   39.675600   91.556000
  C    -55.934200   38.009800   89.425800
  H    -56.124600   37.490700   88.418100
  H    -56.670700   38.817800   89.301900
  C    -56.204900   37.106600   90.653600
  H    -56.503800   37.796000   91.457100
  H    -55.291800   36.567200   90.925400
  C    -57.294000   36.037400   90.511800
  H    -58.284000   36.491100   90.328500
  H    -57.169100   35.313400   91.242000
  H    -57.009500   35.637100   89.554900
  H    -52.806500   37.221200   84.166400
  H    -53.038900   40.947700   91.594500

 Total Charge           Charge          ....    0
 Multiplicity           Mult            ....    1
 Number of Electrons    NEL             ....  134
 Basis Dimension        Dim             ....  322

ORBITAL ENERGIES
----------------

  NO   OCC          E(Eh)            E(eV)
   0   2.0000     -88.967190     -2420.9203
   1   2.0000     -88.963644     -2420.8238
   2   2.0000     -10.330909      -281.1183
   3   2.0000     -10.330028      -281.0943
   4   2.0000     -10.316986      -280.7394
   5   2.0000     -10.302395      -280.3424
   6   2.0000     -10.302104      -280.3345
   7   2.0000     -10.298697      -280.2418
   8   2.0000     -10.297500      -280.2092
   9   2.0000     -10.293868      -280.1104
  10   2.0000     -10.288586      -279.9666
  11   2.0000     -10.288515      -279.9647
  12   2.0000     -10.286759      -279.9169
  13   2.0000     -10.276351      -279.6337
  14   2.0000     -10.272257      -279.5223
  15   2.0000     -10.267547      -279.3942
  16   2.0000      -8.083034      -219.9505
  17   2.0000      -8.078708      -219.8328
  18   2.0000      -6.041416      -164.3953
  19   2.0000      -6.037314      -164.2837
  20   2.0000      -6.037160      -164.2795
  21   2.0000      -6.033925      -164.1914
  22   2.0000      -6.033113      -164.1694
  23   2.0000      -6.029551      -164.0724
  24   2.0000      -1.010849       -27.5066
  25   2.0000      -0.992605       -27.0102
  26   2.0000      -0.918501       -24.9937
  27   2.0000      -0.911464       -24.8022
  28   2.0000      -0.873483       -23.7687
  29   2.0000      -0.853795       -23.2330
  30   2.0000      -0.848441       -23.0873
  31   2.0000      -0.815799       -22.1990
  32   2.0000      -0.783418       -21.3179
  33   2.0000      -0.772960       -21.0333
  34   2.0000      -0.708467       -19.2784
  35   2.0000      -0.700551       -19.0629
  36   2.0000      -0.694649       -18.9024
  37   2.0000      -0.657858       -17.9012
  38   2.0000      -0.645945       -17.5771
  39   2.0000      -0.614802       -16.7296
  40   2.0000      -0.597630       -16.2623
  41   2.0000      -0.582989       -15.8639
  42   2.0000      -0.564484       -15.3604
  43   2.0000      -0.553359       -15.0577
  44   2.0000      -0.551260       -15.0006
  45   2.0000      -0.540677       -14.7126
  46   2.0000      -0.520157       -14.1542
  47   2.0000      -0.515185       -14.0189
  48   2.0000      -0.509533       -13.8651
  49   2.0000      -0.503913       -13.7122
  50   2.0000      -0.491970       -13.3872
  51   2.0000      -0.480577       -13.0772
  52   2.0000      -0.471904       -12.8412
  53   2.0000      -0.468291       -12.7428
  54   2.0000      -0.457498       -12.4492
  55   2.0000      -0.446808       -12.1583
  56   2.0000      -0.440546       -11.9879
  57   2.0000      -0.439199       -11.9512
  58   2.0000      -0.435944       -11.8626
  59   2.0000      -0.421998       -11.4832
  60   2.0000      -0.417761       -11.3679
  61   2.0000      -0.414553       -11.2806
  62   2.0000      -0.403653       -10.9840
  63   2.0000      -0.352961        -9.6046
  64   2.0000      -0.328778        -8.9465
  65   2.0000      -0.327269        -8.9054
  66   2.0000      -0.284638        -7.7454
  67   0.0000       0.020820         0.5666
  68   0.0000       0.074626         2.0307
  69   0.0000       0.109492         2.9794
  70   0.0000       0.126769         3.4496
  71   0.0000       0.129193         3.5155

MULLIKEN ATOMIC CHARGES
-----------------------
   0 S :    0.132726
   1 C :   -0.034189
   2 C :   -0.125476
   3 C :    0.007854
   4 C :   -0.166472
   5 H :    0.037682
   6 C :    0.067897
   7 H :    0.024077
   8 H :    0.030799
   9 C :   -0.042634
  10 H :    0.023674
  11 H :    0.008374
  12 C :   -0.046507
  13 H :    0.028399
  14 H :    0.022382
  15 H :    0.028642
  16 S :    0.100370
  17 C :   -0.083471
  18 C :   -0.036700
  19 C :   -0.026376
  20 C :   -0.118689
  21 H :    0.014798
  22 C :    0.001288
  23 H :    0.041671
  24 H :    0.037375
  25 C :   -0.147901
  26 H :    0.036962
  27 H :    0.038534
  28 C :    0.032681
  29 H :    0.033189
  30 H :    0.029321
  31 H :    0.002407
  32 H :   -0.017656
  33 H :    0.064969
Sum of atomic charges:    0.0000000

LOEWDIN ATOMIC CHARGES
----------------------
   0 S :    0.446863
   1 C :   -0.196359
   2 C :   -0.062799
   3 C :   -0.064582
   4 C :   -0.196686
   5 H :    0.040406
   6 C :   -0.033422
   7 H :    0.031258
   8 H :    0.034136
   9 C :   -0.035949
  10 H :    0.025776
  11 H :    0.013251
  12 C :   -0.062758
  13 H :    0.020745
  14 H :    0.022211
  15 H :    0.024226
  16 S :    0.409572
  17 C :   -0.196655
  18 C :   -0.076835
  19 C :   -0.054569
  20 C :   -0.194441
  21 H :    0.028292
  22 C :   -0.044276
  23 H :    0.034380
  24 H :    0.032736
  25 C :   -0.041577
  26 H :    0.022144
  27 H :    0.026042
  28 C :   -0.057162
  29 H :    0.029652
  30 H :    0.018408
  31 H :    0.021124
  32 H :   -0.001127
  33 H :    0.037976

  Mayer bond orders larger than 0.100000
B(  0-S ,  1-C ) :   1.1608 B(  0-S ,  4-C ) :   1.1758 B(  1-C ,  2-C ) :   1.5613
B(  1-C ,  4-C ) :   0.1029 B(  1-C , 32-H ) :   0.9882 B(  2-C ,  3-C ) :   1.2667
B(  2-C ,  6-C ) :   1.0204 B(  3-C ,  4-C ) :   1.5196 B(  3-C ,  5-H ) :   0.9912
B(  4-C , 20-C ) :   1.0698 B(  6-C ,  7-H ) :   0.9478 B(  6-C ,  8-H ) :   0.9379
B(  6-C ,  9-C ) :   1.0798 B(  9-C , 10-H ) :   0.9569 B(  9-C , 11-H ) :   0.9511
B(  9-C , 12-C ) :   1.0816 B( 12-C , 13-H ) :   0.9745 B( 12-C , 14-H ) :   0.9705
B( 12-C , 15-H ) :   0.9747 B( 16-S , 17-C ) :   1.1830 B( 16-S , 20-C ) :   1.1266
B( 17-C , 18-C ) :   1.5665 B( 17-C , 20-C ) :   0.1040 B( 17-C , 33-H ) :   0.9659
B( 18-C , 19-C ) :   1.2779 B( 18-C , 21-H ) :   0.9923 B( 19-C , 20-C ) :   1.5481
B( 19-C , 22-C ) :   1.0381 B( 22-C , 23-H ) :   0.9491 B( 22-C , 24-H ) :   0.9406
B( 22-C , 25-C ) :   1.0291 B( 25-C , 26-H ) :   0.9520 B( 25-C , 27-H ) :   0.9646
B( 25-C , 28-C ) :   1.0863 B( 28-C , 29-H ) :   0.9701 B( 28-C , 30-H ) :   0.9744
B( 28-C , 31-H ) :   0.9724

Dispersion correction           -0.014786234
FINAL SINGLE POINT ENERGY     -1339.858953917260

DIPOLE MOMENT
-------------
                                X             Y             Z
Electronic contribution:     24.30317      19.37089       1.71024
Nuclear contribution   :    -24.77706     -19.81013      -1.63074
                        -----------------------------------------
Total Dipole Moment    :     -0.47389      -0.43924       0.07950
                        -----------------------------------------
Magnitude (a.u.)       :      0.65102
Magnitude (Debye)      :      1.65476

Rotational constants in cm-1:     0.017640     0.010038     0.006767
Rotational constants in MHz :   528.823888   300.945127   202.883270

                             ****ORCA TERMINATED NORMALLY****
TOTAL RUN TIME: 0 days 0 hours 0 minutes 31 seconds 545 msec
