                         Program Version 4.2.1 -  RELEASE  -
|  1> ! wB97X-D3 SP def2-SVP
|  2> %pal
|  3> nprocs 16
|  4> end
|  5>
|  6> * xyz 0 1
|  7> S 	 15.1474 	 35.378 	 63.9513
|  8> C 	 16.576 	 36.3906 	 63.9119
|  9> C 	 17.6865 	 35.8511 	 63.3663
| 10> C 	 17.4595 	 34.5216 	 62.9629
| 11> C 	 16.1837 	 34.068 	 63.343
| 12> H 	 18.1674 	 33.8225 	 62.5193
| 13> C 	 19.0116 	 36.6049 	 63.1856
| 14> H 	 19.7043 	 35.9433 	 62.7193
| 15> H 	 19.4421 	 36.7638 	 64.1653
| 16> C 	 18.98 	 37.9454 	 62.5237
| 17> H 	 18.417 	 38.6861 	 63.0389
| 18> H 	 20.0169 	 38.304 	 62.4681
| 19> C 	 18.4196 	 38.0415 	 61.0986
| 20> H 	 17.2827 	 37.8996 	 61.1322
| 21> H 	 18.7048 	 39.0278 	 60.6329
| 22> H 	 18.8646 	 37.2798 	 60.4362
| 23> S 	 14.3712 	 32.5525 	 61.9122
| 24> C 	 14.4442 	 30.825 	 62.0057
| 25> C 	 15.4487 	 30.4044 	 62.8235
| 26> C 	 16.1127 	 31.475 	 63.4468
| 27> C 	 15.6817 	 32.7128 	 63.0946
| 28> H 	 15.6328 	 29.3684 	 63.1647
| 29> C 	 17.2639 	 31.0685 	 64.3042
| 30> H 	 17.9817 	 31.9637 	 64.346
| 31> H 	 17.8814 	 30.3392 	 63.7368
| 32> C 	 16.764 	 30.7362 	 65.7445
| 33> H 	 17.5935 	 30.237 	 66.2991
| 34> H 	 15.84 	 30.0699 	 65.7378
| 35> C 	 16.3938 	 32.0304 	 66.4572
| 36> H 	 15.5742 	 32.4758 	 65.9222
| 37> H 	 17.2555 	 32.6297 	 66.7904
| 38> H 	 15.9337 	 31.6732 	 67.3944
| 39> H 	 16.5874 	 37.4312 	 64.1827
| 40> H 	 13.6971 	 30.0951 	 61.6145
| 41> *
| 42>
| 43>                          ****END OF INPUT****

CARTESIAN COORDINATES (ANGSTROEM)
---------------------------------
  S     15.147400   35.378000   63.951300
  C     16.576000   36.390600   63.911900
  C     17.686500   35.851100   63.366300
  C     17.459500   34.521600   62.962900
  C     16.183700   34.068000   63.343000
  H     18.167400   33.822500   62.519300
  C     19.011600   36.604900   63.185600
  H     19.704300   35.943300   62.719300
  H     19.442100   36.763800   64.165300
  C     18.980000   37.945400   62.523700
  H     18.417000   38.686100   63.038900
  H     20.016900   38.304000   62.468100
  C     18.419600   38.041500   61.098600
  H     17.282700   37.899600   61.132200
  H     18.704800   39.027800   60.632900
  H     18.864600   37.279800   60.436200
  S     14.371200   32.552500   61.912200
  C     14.444200   30.825000   62.005700
  C     15.448700   30.404400   62.823500
  C     16.112700   31.475000   63.446800
  C     15.681700   32.712800   63.094600
  H     15.632800   29.368400   63.164700
  C     17.263900   31.068500   64.304200
  H     17.981700   31.963700   64.346000
  H     17.881400   30.339200   63.736800
  C     16.764000   30.736200   65.744500
  H     17.593500   30.237000   66.299100
  H     15.840000   30.069900   65.737800
  C     16.393800   32.030400   66.457200
  H     15.574200   32.475800   65.922200
  H     17.255500   32.629700   66.790400
  H     15.933700   31.673200   67.394400
  H     16.587400   37.431200   64.182700
  H     13.697100   30.095100   61.614500

 Total Charge           Charge          ....    0
 Multiplicity           Mult            ....    1
 Number of Electrons    NEL             ....  134
 Basis Dimension        Dim             ....  322

ORBITAL ENERGIES
----------------

  NO   OCC          E(Eh)            E(eV)
   0   2.0000     -88.972444     -2421.0633
   1   2.0000     -88.960954     -2420.7506
   2   2.0000     -10.332117      -281.1512
   3   2.0000     -10.322060      -280.8775
   4   2.0000     -10.315849      -280.7085
   5   2.0000     -10.308199      -280.5004
   6   2.0000     -10.297150      -280.1997
   7   2.0000     -10.296518      -280.1825
   8   2.0000     -10.293470      -280.0996
   9   2.0000     -10.293017      -280.0872
  10   2.0000     -10.291280      -280.0400
  11   2.0000     -10.290694      -280.0240
  12   2.0000     -10.286251      -279.9031
  13   2.0000     -10.284266      -279.8491
  14   2.0000     -10.283743      -279.8349
  15   2.0000     -10.270904      -279.4855
  16   2.0000      -8.086386      -220.0418
  17   2.0000      -8.075975      -219.7585
  18   2.0000      -6.044791      -164.4871
  19   2.0000      -6.041228      -164.3902
  20   2.0000      -6.037087      -164.2775
  21   2.0000      -6.034547      -164.2084
  22   2.0000      -6.030453      -164.0970
  23   2.0000      -6.026645      -163.9933
  24   2.0000      -1.007798       -27.4236
  25   2.0000      -0.988094       -26.8874
  26   2.0000      -0.915303       -24.9067
  27   2.0000      -0.907448       -24.6929
  28   2.0000      -0.867126       -23.5957
  29   2.0000      -0.852288       -23.1919
  30   2.0000      -0.846769       -23.0418
  31   2.0000      -0.809690       -22.0328
  32   2.0000      -0.784526       -21.3480
  33   2.0000      -0.769846       -20.9486
  34   2.0000      -0.703739       -19.1497
  35   2.0000      -0.695951       -18.9378
  36   2.0000      -0.684617       -18.6294
  37   2.0000      -0.662415       -18.0252
  38   2.0000      -0.638452       -17.3732
  39   2.0000      -0.610961       -16.6251
  40   2.0000      -0.596231       -16.2243
  41   2.0000      -0.577536       -15.7155
  42   2.0000      -0.551834       -15.0162
  43   2.0000      -0.550612       -14.9829
  44   2.0000      -0.541464       -14.7340
  45   2.0000      -0.534793       -14.5525
  46   2.0000      -0.516076       -14.0432
  47   2.0000      -0.507533       -13.8107
  48   2.0000      -0.499557       -13.5936
  49   2.0000      -0.490553       -13.3486
  50   2.0000      -0.483511       -13.1570
  51   2.0000      -0.477203       -12.9854
  52   2.0000      -0.467669       -12.7259
  53   2.0000      -0.466796       -12.7022
  54   2.0000      -0.459155       -12.4942
  55   2.0000      -0.448636       -12.2080
  56   2.0000      -0.443223       -12.0607
  57   2.0000      -0.438749       -11.9390
  58   2.0000      -0.424781       -11.5589
  59   2.0000      -0.421515       -11.4700
  60   2.0000      -0.418254       -11.3813
  61   2.0000      -0.414432       -11.2773
  62   2.0000      -0.409763       -11.1502
  63   2.0000      -0.341361        -9.2889
  64   2.0000      -0.334725        -9.1083
  65   2.0000      -0.328329        -8.9343
  66   2.0000      -0.297321        -8.0905
  67   0.0000       0.032583         0.8866
  68   0.0000       0.067080         1.8254
  69   0.0000       0.107773         2.9327
  70   0.0000       0.122826         3.3423
  71   0.0000       0.133155         3.6233

MULLIKEN ATOMIC CHARGES
-----------------------
   0 S :    0.126398
   1 C :   -0.113167
   2 C :   -0.086375
   3 C :    0.035581
   4 C :   -0.178074
   5 H :    0.021271
   6 C :    0.135085
   7 H :    0.003684
   8 H :    0.034294
   9 C :   -0.079768
  10 H :    0.022072
  11 H :    0.028665
  12 C :   -0.095508
  13 H :    0.054816
  14 H :    0.042626
  15 H :    0.029389
  16 S :    0.096660
  17 C :   -0.091386
  18 C :   -0.038812
  19 C :   -0.065129
  20 C :   -0.156589
  21 H :    0.029420
  22 C :    0.028539
  23 H :    0.022612
  24 H :    0.037701
  25 C :   -0.095000
  26 H :    0.036115
  27 H :    0.041252
  28 C :   -0.034152
  29 H :    0.039297
  30 H :    0.047302
  31 H :    0.019926
  32 H :    0.031204
  33 H :    0.070049
Sum of atomic charges:   -0.0000000

LOEWDIN ATOMIC CHARGES
----------------------
   0 S :    0.400046
   1 C :   -0.190364
   2 C :   -0.067303
   3 C :   -0.050493
   4 C :   -0.186232
   5 H :    0.034498
   6 C :   -0.025679
   7 H :    0.025612
   8 H :    0.038697
   9 C :   -0.046306
  10 H :    0.018414
  11 H :    0.029273
  12 C :   -0.075161
  13 H :    0.033966
  14 H :    0.031364
  15 H :    0.021443
  16 S :    0.396577
  17 C :   -0.192442
  18 C :   -0.079100
  19 C :   -0.067394
  20 C :   -0.199670
  21 H :    0.036954
  22 C :   -0.044052
  23 H :    0.032552
  24 H :    0.031605
  25 C :   -0.041565
  26 H :    0.024960
  27 H :    0.029691
  28 C :   -0.065065
  29 H :    0.024745
  30 H :    0.030510
  31 H :    0.027181
  32 H :    0.022077
  33 H :    0.040661

  Mayer bond orders larger than 0.100000
B(  0-S ,  1-C ) :   1.1313 B(  0-S ,  4-C ) :   1.1474 B(  1-C ,  2-C ) :   1.6431
B(  1-C , 32-H ) :   0.9620 B(  2-C ,  3-C ) :   1.2408 B(  2-C ,  6-C ) :   1.0037
B(  3-C ,  4-C ) :   1.5778 B(  3-C ,  5-H ) :   0.9888 B(  4-C , 20-C ) :   1.0225
B(  6-C ,  7-H ) :   0.9363 B(  6-C ,  8-H ) :   0.9284 B(  6-C ,  9-C ) :   1.0888
B(  9-C , 10-H ) :   0.9540 B(  9-C , 11-H ) :   0.9502 B(  9-C , 12-C ) :   1.0775
B( 12-C , 13-H ) :   0.9725 B( 12-C , 14-H ) :   0.9744 B( 12-C , 15-H ) :   0.9765
B( 16-S , 17-C ) :   1.1569 B( 16-S , 20-C ) :   1.1200 B( 17-C , 18-C ) :   1.6114
B( 17-C , 33-H ) :   0.9569 B( 18-C , 19-C ) :   1.2541 B( 18-C , 21-H ) :   0.9783
B( 19-C , 20-C ) :   1.6367 B( 19-C , 22-C ) :   1.0309 B( 22-C , 23-H ) :   0.9356
B( 22-C , 24-H ) :   0.9462 B( 22-C , 25-C ) :   1.0426 B( 25-C , 26-H ) :   0.9555
B( 25-C , 27-H ) :   0.9611 B( 25-C , 28-C ) :   1.0817 B( 28-C , 29-H ) :   0.9712
B( 28-C , 30-H ) :   0.9737 B( 28-C , 31-H ) :   0.9689

Dispersion correction           -0.015210116
FINAL SINGLE POINT ENERGY     -1339.879362085032

DIPOLE MOMENT
-------------
                                X             Y             Z
Electronic contribution:    -17.91442      -4.64028      -5.76601
Nuclear contribution   :     18.52169       4.58502       5.94518
                        -----------------------------------------
Total Dipole Moment    :      0.60728      -0.05526       0.17917
                        -----------------------------------------
Magnitude (a.u.)       :      0.63556
Magnitude (Debye)      :      1.61548

Rotational constants in cm-1:     0.022347     0.008113     0.007218
Rotational constants in MHz :   669.948662   243.225560   216.402440

                             ****ORCA TERMINATED NORMALLY****
TOTAL RUN TIME: 0 days 0 hours 0 minutes 36 seconds 248 msec
