                         Program Version 4.2.1 -  RELEASE  -
|  1> ! wB97X-D3 SP def2-SVP
|  2> %pal
|  3> nprocs 16
|  4> end
|  5>
|  6> * xyz 0 1
|  7> S 	 -18.1934 	 57.0307 	 64.8082
|  8> C 	 -17.9624 	 55.7206 	 63.7136
|  9> C 	 -17.1577 	 54.7728 	 64.2454
| 10> C 	 -16.6267 	 55.1388 	 65.5332
| 11> C 	 -17.1903 	 56.301 	 66.0212
| 12> H 	 -15.8133 	 54.5852 	 66.0805
| 13> C 	 -16.6514 	 53.5131 	 63.5425
| 14> H 	 -15.8154 	 53.0356 	 63.923
| 15> H 	 -16.2693 	 53.8268 	 62.5524
| 16> C 	 -17.6998 	 52.4664 	 63.1275
| 17> H 	 -18.2553 	 52.2478 	 64.0075
| 18> H 	 -18.3657 	 52.9628 	 62.4492
| 19> C 	 -17.112 	 51.1435 	 62.526
| 20> H 	 -16.6473 	 51.2925 	 61.4631
| 21> H 	 -16.524 	 50.6056 	 63.1746
| 22> H 	 -17.9105 	 50.4728 	 62.2274
| 23> S 	 -16.5521 	 58.7496 	 67.1359
| 24> C 	 -16.324 	 58.9006 	 68.8732
| 25> C 	 -16.5475 	 57.6651 	 69.443
| 26> C 	 -16.7808 	 56.6038 	 68.5117
| 27> C 	 -16.8468 	 57.0411 	 67.2232
| 28> H 	 -16.6048 	 57.5169 	 70.4941
| 29> C 	 -16.9282 	 55.1687 	 68.9964
| 30> H 	 -16.8492 	 55.2817 	 70.0578
| 31> H 	 -16.0913 	 54.6043 	 68.5827
| 32> C 	 -18.269 	 54.401 	 68.8301
| 33> H 	 -18.3755 	 54.1609 	 67.7761
| 34> H 	 -19.0895 	 55.059 	 69.0868
| 35> C 	 -18.4458 	 53.0929 	 69.5927
| 36> H 	 -18.3166 	 53.2716 	 70.6457
| 37> H 	 -17.7552 	 52.3535 	 69.2322
| 38> H 	 -19.4334 	 52.7017 	 69.4371
| 39> H 	 -18.5722 	 55.6402 	 62.8043
| 40> H 	 -16.358 	 59.7745 	 69.5198
| 41> *
| 42>
| 43>                          ****END OF INPUT****

CARTESIAN COORDINATES (ANGSTROEM)
---------------------------------
  S    -18.193400   57.030700   64.808200
  C    -17.962400   55.720600   63.713600
  C    -17.157700   54.772800   64.245400
  C    -16.626700   55.138800   65.533200
  C    -17.190300   56.301000   66.021200
  H    -15.813300   54.585200   66.080500
  C    -16.651400   53.513100   63.542500
  H    -15.815400   53.035600   63.923000
  H    -16.269300   53.826800   62.552400
  C    -17.699800   52.466400   63.127500
  H    -18.255300   52.247800   64.007500
  H    -18.365700   52.962800   62.449200
  C    -17.112000   51.143500   62.526000
  H    -16.647300   51.292500   61.463100
  H    -16.524000   50.605600   63.174600
  H    -17.910500   50.472800   62.227400
  S    -16.552100   58.749600   67.135900
  C    -16.324000   58.900600   68.873200
  C    -16.547500   57.665100   69.443000
  C    -16.780800   56.603800   68.511700
  C    -16.846800   57.041100   67.223200
  H    -16.604800   57.516900   70.494100
  C    -16.928200   55.168700   68.996400
  H    -16.849200   55.281700   70.057800
  H    -16.091300   54.604300   68.582700
  C    -18.269000   54.401000   68.830100
  H    -18.375500   54.160900   67.776100
  H    -19.089500   55.059000   69.086800
  C    -18.445800   53.092900   69.592700
  H    -18.316600   53.271600   70.645700
  H    -17.755200   52.353500   69.232200
  H    -19.433400   52.701700   69.437100
  H    -18.572200   55.640200   62.804300
  H    -16.358000   59.774500   69.519800

 Total Charge           Charge          ....    0
 Multiplicity           Mult            ....    1
 Number of Electrons    NEL             ....  134
 Basis Dimension        Dim             ....  322

ORBITAL ENERGIES
----------------

  NO   OCC          E(Eh)            E(eV)
   0   2.0000     -88.966310     -2420.8964
   1   2.0000     -88.965942     -2420.8864
   2   2.0000     -10.329509      -281.0802
   3   2.0000     -10.322917      -280.9008
   4   2.0000     -10.316463      -280.7252
   5   2.0000     -10.313048      -280.6323
   6   2.0000     -10.303342      -280.3682
   7   2.0000     -10.300219      -280.2832
   8   2.0000     -10.297548      -280.2105
   9   2.0000     -10.290657      -280.0230
  10   2.0000     -10.289238      -279.9844
  11   2.0000     -10.285781      -279.8903
  12   2.0000     -10.285147      -279.8731
  13   2.0000     -10.284464      -279.8545
  14   2.0000     -10.279112      -279.7089
  15   2.0000     -10.271890      -279.5123
  16   2.0000      -8.081964      -219.9214
  17   2.0000      -8.080579      -219.8837
  18   2.0000      -6.040435      -164.3686
  19   2.0000      -6.039261      -164.3366
  20   2.0000      -6.036273      -164.2553
  21   2.0000      -6.035023      -164.2213
  22   2.0000      -6.032775      -164.1602
  23   2.0000      -6.031218      -164.1178
  24   2.0000      -1.013883       -27.5891
  25   2.0000      -0.990002       -26.9393
  26   2.0000      -0.910664       -24.7804
  27   2.0000      -0.905136       -24.6300
  28   2.0000      -0.872740       -23.7485
  29   2.0000      -0.854409       -23.2497
  30   2.0000      -0.846620       -23.0377
  31   2.0000      -0.817135       -22.2354
  32   2.0000      -0.784940       -21.3593
  33   2.0000      -0.775786       -21.1102
  34   2.0000      -0.709338       -19.3021
  35   2.0000      -0.705694       -19.2029
  36   2.0000      -0.688791       -18.7430
  37   2.0000      -0.668539       -18.1919
  38   2.0000      -0.643442       -17.5090
  39   2.0000      -0.618090       -16.8191
  40   2.0000      -0.590380       -16.0651
  41   2.0000      -0.575212       -15.6523
  42   2.0000      -0.569657       -15.5011
  43   2.0000      -0.563673       -15.3383
  44   2.0000      -0.526620       -14.3301
  45   2.0000      -0.521379       -14.1875
  46   2.0000      -0.515097       -14.0165
  47   2.0000      -0.512509       -13.9461
  48   2.0000      -0.509091       -13.8531
  49   2.0000      -0.497247       -13.5308
  50   2.0000      -0.495283       -13.4773
  51   2.0000      -0.485046       -13.1988
  52   2.0000      -0.479344       -13.0436
  53   2.0000      -0.467735       -12.7277
  54   2.0000      -0.462384       -12.5821
  55   2.0000      -0.452193       -12.3048
  56   2.0000      -0.447722       -12.1831
  57   2.0000      -0.433709       -11.8018
  58   2.0000      -0.427877       -11.6431
  59   2.0000      -0.424225       -11.5437
  60   2.0000      -0.422160       -11.4876
  61   2.0000      -0.416791       -11.3415
  62   2.0000      -0.408152       -11.1064
  63   2.0000      -0.353836        -9.6284
  64   2.0000      -0.330880        -9.0037
  65   2.0000      -0.330347        -8.9892
  66   2.0000      -0.294468        -8.0129
  67   0.0000       0.027191         0.7399
  68   0.0000       0.074193         2.0189
  69   0.0000       0.115374         3.1395
  70   0.0000       0.126615         3.4454
  71   0.0000       0.130911         3.5623

MULLIKEN ATOMIC CHARGES
-----------------------
   0 S :    0.110070
   1 C :   -0.138636
   2 C :   -0.055161
   3 C :   -0.000202
   4 C :   -0.150567
   5 H :    0.038637
   6 C :    0.084399
   7 H :   -0.004905
   8 H :    0.021277
   9 C :   -0.072251
  10 H :    0.022966
  11 H :    0.020662
  12 C :   -0.051465
  13 H :    0.040012
  14 H :    0.027118
  15 H :    0.028159
  16 S :    0.106751
  17 C :   -0.078255
  18 C :   -0.041437
  19 C :   -0.061614
  20 C :   -0.138275
  21 H :    0.009049
  22 C :    0.090976
  23 H :   -0.003674
  24 H :    0.035789
  25 C :   -0.082316
  26 H :    0.031187
  27 H :    0.024580
  28 C :   -0.019247
  29 H :    0.023948
  30 H :    0.024562
  31 H :    0.031284
  32 H :    0.063266
  33 H :    0.063311
Sum of atomic charges:    0.0000000

LOEWDIN ATOMIC CHARGES
----------------------
   0 S :    0.424364
   1 C :   -0.204654
   2 C :   -0.063617
   3 C :   -0.065998
   4 C :   -0.193402
   5 H :    0.041969
   6 C :   -0.031228
   7 H :    0.015652
   8 H :    0.035274
   9 C :   -0.032971
  10 H :    0.017706
  11 H :    0.018552
  12 C :   -0.066375
  13 H :    0.037848
  14 H :    0.012668
  15 H :    0.028760
  16 S :    0.408655
  17 C :   -0.194293
  18 C :   -0.064568
  19 C :   -0.062219
  20 C :   -0.202199
  21 H :    0.024607
  22 C :   -0.029099
  23 H :    0.024223
  24 H :    0.031117
  25 C :   -0.040575
  26 H :    0.021533
  27 H :    0.023347
  28 C :   -0.057466
  29 H :    0.020389
  30 H :    0.022202
  31 H :    0.027842
  32 H :    0.034010
  33 H :    0.037947

  Mayer bond orders larger than 0.100000
B(  0-S ,  1-C ) :   1.1418 B(  0-S ,  4-C ) :   1.1637 B(  1-C ,  2-C ) :   1.6142
B(  1-C , 32-H ) :   0.9653 B(  2-C ,  3-C ) :   1.2434 B(  2-C ,  6-C ) :   1.0158
B(  3-C ,  4-C ) :   1.5606 B(  3-C ,  5-H ) :   0.9871 B(  4-C , 20-C ) :   1.0440
B(  6-C ,  7-H ) :   0.9520 B(  6-C ,  8-H ) :   0.9398 B(  6-C ,  9-C ) :   1.0483
B(  9-C , 10-H ) :   0.9594 B(  9-C , 11-H ) :   0.9600 B(  9-C , 12-C ) :   1.0859
B( 12-C , 13-H ) :   0.9730 B( 12-C , 14-H ) :   0.9771 B( 12-C , 15-H ) :   0.9722
B( 16-S , 17-C ) :   1.1405 B( 16-S , 20-C ) :   1.1380 B( 17-C , 18-C ) :   1.6144
B( 17-C , 33-H ) :   0.9610 B( 18-C , 19-C ) :   1.2720 B( 18-C , 21-H ) :   0.9833
B( 19-C , 20-C ) :   1.5986 B( 19-C , 22-C ) :   1.0366 B( 22-C , 23-H ) :   0.9270
B( 22-C , 24-H ) :   0.9306 B( 22-C , 25-C ) :   1.0640 B( 25-C , 26-H ) :   0.9512
B( 25-C , 27-H ) :   0.9558 B( 25-C , 28-C ) :   1.0959 B( 28-C , 29-H ) :   0.9744
B( 28-C , 30-H ) :   0.9741 B( 28-C , 31-H ) :   0.9720

Dispersion correction           -0.013905643
FINAL SINGLE POINT ENERGY     -1339.876325137154

DIPOLE MOMENT
-------------
                                X             Y             Z
Electronic contribution:      2.37068      31.45864       0.17686
Nuclear contribution   :     -2.45347     -32.11557      -0.06634
                        -----------------------------------------
Total Dipole Moment    :     -0.08279      -0.65693       0.11053
                        -----------------------------------------
Magnitude (a.u.)       :      0.67129
Magnitude (Debye)      :      1.70628

Rotational constants in cm-1:     0.019323     0.008317     0.006335
Rotational constants in MHz :   579.277224   249.336548   189.932057

                             ****ORCA TERMINATED NORMALLY****
TOTAL RUN TIME: 0 days 0 hours 0 minutes 31 seconds 367 msec
