                         Program Version 4.2.1 -  RELEASE  -
|  1> ! wB97X-D3 SP def2-SVP
|  2> %pal
|  3> nprocs 16
|  4> end
|  5>
|  6> * xyz 0 1
|  7> S 	 -37.798 	 52.4558 	 108.049
|  8> C 	 -39.3645 	 53.2305 	 107.946
|  9> C 	 -39.951 	 53.0892 	 106.748
| 10> C 	 -39.2442 	 52.2278 	 105.839
| 11> C 	 -38.0659 	 51.7627 	 106.434
| 12> H 	 -39.5142 	 51.9478 	 104.833
| 13> C 	 -41.3099 	 53.6777 	 106.473
| 14> H 	 -41.3331 	 53.8685 	 105.36
| 15> H 	 -41.4351 	 54.6239 	 107.094
| 16> C 	 -42.5538 	 52.7407 	 106.718
| 17> H 	 -42.496 	 51.849 	 106.204
| 18> H 	 -42.5849 	 52.5716 	 107.771
| 19> C 	 -43.8383 	 53.4534 	 106.451
| 20> H 	 -44.6571 	 52.9206 	 106.926
| 21> H 	 -43.7882 	 54.4686 	 106.918
| 22> H 	 -44.0268 	 53.6807 	 105.285
| 23> S 	 -36.6555 	 49.4329 	 106.091
| 24> C 	 -35.0878 	 49.6155 	 105.285
| 25> C 	 -35.1402 	 50.7658 	 104.487
| 26> C 	 -36.2067 	 51.6315 	 104.749
| 27> C 	 -37.0061 	 51.1053 	 105.717
| 28> H 	 -34.3257 	 50.7663 	 103.782
| 29> C 	 -36.451 	 52.9433 	 103.997
| 30> H 	 -36.0725 	 53.7525 	 104.669
| 31> H 	 -37.4791 	 52.9503 	 103.697
| 32> C 	 -35.6211 	 53.133 	 102.714
| 33> H 	 -35.5934 	 52.2478 	 102.113
| 34> H 	 -34.5717 	 53.2721 	 102.956
| 35> C 	 -36.2405 	 54.3386 	 102.002
| 36> H 	 -35.8172 	 54.5101 	 101.078
| 37> H 	 -36.0366 	 55.1824 	 102.515
| 38> H 	 -37.3314 	 54.2884 	 101.953
| 39> H 	 -39.823 	 53.9145 	 108.663
| 40> H 	 -34.3473 	 48.9126 	 105.112
| 41> *
| 42>
| 43>                          ****END OF INPUT****

CARTESIAN COORDINATES (ANGSTROEM)
---------------------------------
  S    -37.798000   52.455800  108.049000
  C    -39.364500   53.230500  107.946000
  C    -39.951000   53.089200  106.748000
  C    -39.244200   52.227800  105.839000
  C    -38.065900   51.762700  106.434000
  H    -39.514200   51.947800  104.833000
  C    -41.309900   53.677700  106.473000
  H    -41.333100   53.868500  105.360000
  H    -41.435100   54.623900  107.094000
  C    -42.553800   52.740700  106.718000
  H    -42.496000   51.849000  106.204000
  H    -42.584900   52.571600  107.771000
  C    -43.838300   53.453400  106.451000
  H    -44.657100   52.920600  106.926000
  H    -43.788200   54.468600  106.918000
  H    -44.026800   53.680700  105.285000
  S    -36.655500   49.432900  106.091000
  C    -35.087800   49.615500  105.285000
  C    -35.140200   50.765800  104.487000
  C    -36.206700   51.631500  104.749000
  C    -37.006100   51.105300  105.717000
  H    -34.325700   50.766300  103.782000
  C    -36.451000   52.943300  103.997000
  H    -36.072500   53.752500  104.669000
  H    -37.479100   52.950300  103.697000
  C    -35.621100   53.133000  102.714000
  H    -35.593400   52.247800  102.113000
  H    -34.571700   53.272100  102.956000
  C    -36.240500   54.338600  102.002000
  H    -35.817200   54.510100  101.078000
  H    -36.036600   55.182400  102.515000
  H    -37.331400   54.288400  101.953000
  H    -39.823000   53.914500  108.663000
  H    -34.347300   48.912600  105.112000

 Total Charge           Charge          ....    0
 Multiplicity           Mult            ....    1
 Number of Electrons    NEL             ....  134
 Basis Dimension        Dim             ....  322

ORBITAL ENERGIES
----------------

  NO   OCC          E(Eh)            E(eV)
   0   2.0000     -88.966535     -2420.9025
   1   2.0000     -88.963214     -2420.8121
   2   2.0000     -10.327028      -281.0127
   3   2.0000     -10.316191      -280.7178
   4   2.0000     -10.310337      -280.5585
   5   2.0000     -10.307501      -280.4814
   6   2.0000     -10.300388      -280.2878
   7   2.0000     -10.297752      -280.2161
   8   2.0000     -10.297452      -280.2079
   9   2.0000     -10.293570      -280.1023
  10   2.0000     -10.292639      -280.0769
  11   2.0000     -10.289312      -279.9864
  12   2.0000     -10.287857      -279.9468
  13   2.0000     -10.282739      -279.8076
  14   2.0000     -10.277728      -279.6712
  15   2.0000     -10.264249      -279.3044
  16   2.0000      -8.080726      -219.8877
  17   2.0000      -8.077637      -219.8037
  18   2.0000      -6.039236      -164.3360
  19   2.0000      -6.036074      -164.2499
  20   2.0000      -6.035471      -164.2335
  21   2.0000      -6.032442      -164.1511
  22   2.0000      -6.031351      -164.1214
  23   2.0000      -6.028244      -164.0368
  24   2.0000      -1.006697       -27.3936
  25   2.0000      -0.983297       -26.7569
  26   2.0000      -0.913160       -24.8483
  27   2.0000      -0.910781       -24.7836
  28   2.0000      -0.872431       -23.7401
  29   2.0000      -0.853409       -23.2224
  30   2.0000      -0.848380       -23.0856
  31   2.0000      -0.813783       -22.1442
  32   2.0000      -0.782037       -21.2803
  33   2.0000      -0.765738       -20.8368
  34   2.0000      -0.711344       -19.3567
  35   2.0000      -0.706761       -19.2319
  36   2.0000      -0.694056       -18.8862
  37   2.0000      -0.651814       -17.7368
  38   2.0000      -0.640001       -17.4153
  39   2.0000      -0.615493       -16.7484
  40   2.0000      -0.595809       -16.2128
  41   2.0000      -0.580015       -15.7830
  42   2.0000      -0.573000       -15.5921
  43   2.0000      -0.563395       -15.3308
  44   2.0000      -0.531250       -14.4560
  45   2.0000      -0.523896       -14.2559
  46   2.0000      -0.513608       -13.9760
  47   2.0000      -0.511033       -13.9059
  48   2.0000      -0.502854       -13.6833
  49   2.0000      -0.496444       -13.5089
  50   2.0000      -0.492322       -13.3968
  51   2.0000      -0.480574       -13.0771
  52   2.0000      -0.471863       -12.8400
  53   2.0000      -0.462972       -12.5981
  54   2.0000      -0.458751       -12.4833
  55   2.0000      -0.444909       -12.1066
  56   2.0000      -0.441757       -12.0208
  57   2.0000      -0.436581       -11.8800
  58   2.0000      -0.433007       -11.7827
  59   2.0000      -0.427912       -11.6441
  60   2.0000      -0.424723       -11.5573
  61   2.0000      -0.420775       -11.4499
  62   2.0000      -0.413661       -11.2563
  63   2.0000      -0.333759        -9.0820
  64   2.0000      -0.329694        -8.9714
  65   2.0000      -0.322348        -8.7715
  66   2.0000      -0.301705        -8.2098
  67   0.0000       0.033746         0.9183
  68   0.0000       0.058044         1.5795
  69   0.0000       0.107672         2.9299
  70   0.0000       0.112029         3.0485
  71   0.0000       0.135664         3.6916

MULLIKEN ATOMIC CHARGES
-----------------------
   0 S :    0.119988
   1 C :   -0.112147
   2 C :   -0.066651
   3 C :    0.042259
   4 C :   -0.144183
   5 H :    0.015573
   6 C :   -0.007787
   7 H :    0.028158
   8 H :    0.033998
   9 C :   -0.002562
  10 H :    0.018114
  11 H :    0.015447
  12 C :   -0.086490
  13 H :    0.042857
  14 H :    0.026920
  15 H :    0.043942
  16 S :    0.115635
  17 C :   -0.062986
  18 C :   -0.083189
  19 C :    0.021118
  20 C :   -0.235557
  21 H :    0.012545
  22 C :    0.089874
  23 H :    0.052902
  24 H :    0.024812
  25 C :   -0.101978
  26 H :    0.021470
  27 H :    0.026500
  28 C :    0.057533
  29 H :    0.009013
  30 H :   -0.005398
  31 H :    0.023612
  32 H :    0.041879
  33 H :    0.024778
Sum of atomic charges:    0.0000000

LOEWDIN ATOMIC CHARGES
----------------------
   0 S :    0.397538
   1 C :   -0.198259
   2 C :   -0.074525
   3 C :   -0.049780
   4 C :   -0.184209
   5 H :    0.030809
   6 C :   -0.034521
   7 H :    0.032229
   8 H :    0.034645
   9 C :   -0.034571
  10 H :    0.014617
  11 H :    0.022917
  12 C :   -0.073729
  13 H :    0.026287
  14 H :    0.025770
  15 H :    0.033748
  16 S :    0.398180
  17 C :   -0.172562
  18 C :   -0.070756
  19 C :   -0.056151
  20 C :   -0.209069
  21 H :    0.028972
  22 C :   -0.022097
  23 H :    0.047750
  24 H :    0.026670
  25 C :   -0.037249
  26 H :    0.016048
  27 H :    0.022883
  28 C :   -0.045973
  29 H :    0.017232
  30 H :    0.013755
  31 H :    0.028437
  32 H :    0.031623
  33 H :    0.013339

  Mayer bond orders larger than 0.100000
B(  0-S ,  1-C ) :   1.1165 B(  0-S ,  4-C ) :   1.1454 B(  1-C ,  2-C ) :   1.6616
B(  1-C , 32-H ) :   0.9590 B(  2-C ,  3-C ) :   1.2084 B(  2-C ,  6-C ) :   1.0333
B(  3-C ,  4-C ) :   1.5868 B(  3-C ,  5-H ) :   0.9951 B(  4-C , 20-C ) :   1.0413
B(  6-C ,  7-H ) :   0.9381 B(  6-C ,  8-H ) :   0.9399 B(  6-C ,  9-C ) :   1.0671
B(  9-C , 10-H ) :   0.9541 B(  9-C , 11-H ) :   0.9491 B(  9-C , 12-C ) :   1.0883
B( 12-C , 13-H ) :   0.9729 B( 12-C , 14-H ) :   0.9700 B( 12-C , 15-H ) :   0.9715
B( 16-S , 17-C ) :   1.1449 B( 16-S , 20-C ) :   1.1519 B( 17-C , 18-C ) :   1.6157
B( 17-C , 20-C ) :   0.1053 B( 17-C , 33-H ) :   0.9699 B( 18-C , 19-C ) :   1.2317
B( 18-C , 21-H ) :   0.9898 B( 19-C , 20-C ) :   1.5983 B( 19-C , 22-C ) :   1.0157
B( 22-C , 23-H ) :   0.9172 B( 22-C , 24-H ) :   0.9429 B( 22-C , 25-C ) :   1.0954
B( 25-C , 26-H ) :   0.9562 B( 25-C , 27-H ) :   0.9441 B( 25-C , 28-C ) :   1.0819
B( 28-C , 29-H ) :   0.9658 B( 28-C , 30-H ) :   0.9652 B( 28-C , 31-H ) :   0.9734

Dispersion correction           -0.013739588
FINAL SINGLE POINT ENERGY     -1339.845831123792

DIPOLE MOMENT
-------------
                                X             Y             Z
Electronic contribution:     14.93469     -16.75996      15.67211
Nuclear contribution   :    -15.08312      17.16863     -16.20094
                        -----------------------------------------
Total Dipole Moment    :     -0.14843       0.40867      -0.52883
                        -----------------------------------------
Magnitude (a.u.)       :      0.68462
Magnitude (Debye)      :      1.74016

Rotational constants in cm-1:     0.018202     0.007879     0.006400
Rotational constants in MHz :   545.667575   236.207419   191.860911

                             ****ORCA TERMINATED NORMALLY****
TOTAL RUN TIME: 0 days 0 hours 0 minutes 28 seconds 118 msec
