                         Program Version 4.2.1 -  RELEASE  -
|  1> ! wB97X-D3 SP def2-SVP
|  2> %pal
|  3> nprocs 16
|  4> end
|  5>
|  6> * xyz 0 1
|  7> S 	 -24.1906 	 51.4279 	 65.078
|  8> C 	 -22.6872 	 52.2583 	 64.7384
|  9> C 	 -21.6199 	 51.7527 	 65.4378
| 10> C 	 -22.0464 	 50.7502 	 66.3305
| 11> C 	 -23.4069 	 50.4667 	 66.305
| 12> H 	 -21.347 	 50.1637 	 66.8947
| 13> C 	 -20.1402 	 52.0783 	 65.1205
| 14> H 	 -19.7247 	 52.4882 	 66.0061
| 15> H 	 -20.1559 	 52.9733 	 64.4389
| 16> C 	 -19.3046 	 50.9026 	 64.6337
| 17> H 	 -18.2709 	 51.2003 	 64.7335
| 18> H 	 -19.3584 	 50.1803 	 65.4221
| 19> C 	 -19.7521 	 50.3262 	 63.2429
| 20> H 	 -19.2542 	 49.3654 	 62.9987
| 21> H 	 -20.7594 	 50.2514 	 63.1035
| 22> H 	 -19.2588 	 50.9989 	 62.549
| 23> S 	 -25.303 	 50.0508 	 68.2981
| 24> C 	 -25.5297 	 48.3972 	 68.8433
| 25> C 	 -24.6087 	 47.5503 	 68.307
| 26> C 	 -23.7043 	 48.1632 	 67.4089
| 27> C 	 -24.1101 	 49.4784 	 67.1396
| 28> H 	 -24.5967 	 46.5384 	 68.5878
| 29> C 	 -22.5659 	 47.3674 	 66.7901
| 30> H 	 -21.6848 	 47.975 	 66.442
| 31> H 	 -22.8956 	 47.1033 	 65.7865
| 32> C 	 -21.977 	 46.177 	 67.5801
| 33> H 	 -22.6368 	 45.3837 	 67.7066
| 34> H 	 -21.7422 	 46.5634 	 68.55
| 35> C 	 -20.7176 	 45.4838 	 66.9845
| 36> H 	 -20.9745 	 44.9447 	 66.1163
| 37> H 	 -20.3862 	 44.7452 	 67.6928
| 38> H 	 -19.9645 	 46.1756 	 66.7747
| 39> H 	 -22.6339 	 52.9901 	 63.9393
| 40> H 	 -26.384 	 48.0918 	 69.4293
| 41> *
| 42>
| 43>                          ****END OF INPUT****

CARTESIAN COORDINATES (ANGSTROEM)
---------------------------------
  S    -24.190600   51.427900   65.078000
  C    -22.687200   52.258300   64.738400
  C    -21.619900   51.752700   65.437800
  C    -22.046400   50.750200   66.330500
  C    -23.406900   50.466700   66.305000
  H    -21.347000   50.163700   66.894700
  C    -20.140200   52.078300   65.120500
  H    -19.724700   52.488200   66.006100
  H    -20.155900   52.973300   64.438900
  C    -19.304600   50.902600   64.633700
  H    -18.270900   51.200300   64.733500
  H    -19.358400   50.180300   65.422100
  C    -19.752100   50.326200   63.242900
  H    -19.254200   49.365400   62.998700
  H    -20.759400   50.251400   63.103500
  H    -19.258800   50.998900   62.549000
  S    -25.303000   50.050800   68.298100
  C    -25.529700   48.397200   68.843300
  C    -24.608700   47.550300   68.307000
  C    -23.704300   48.163200   67.408900
  C    -24.110100   49.478400   67.139600
  H    -24.596700   46.538400   68.587800
  C    -22.565900   47.367400   66.790100
  H    -21.684800   47.975000   66.442000
  H    -22.895600   47.103300   65.786500
  C    -21.977000   46.177000   67.580100
  H    -22.636800   45.383700   67.706600
  H    -21.742200   46.563400   68.550000
  C    -20.717600   45.483800   66.984500
  H    -20.974500   44.944700   66.116300
  H    -20.386200   44.745200   67.692800
  H    -19.964500   46.175600   66.774700
  H    -22.633900   52.990100   63.939300
  H    -26.384000   48.091800   69.429300

 Total Charge           Charge          ....    0
 Multiplicity           Mult            ....    1
 Number of Electrons    NEL             ....  134
 Basis Dimension        Dim             ....  322

ORBITAL ENERGIES
----------------

  NO   OCC          E(Eh)            E(eV)
   0   2.0000     -88.965233     -2420.8671
   1   2.0000     -88.964373     -2420.8437
   2   2.0000     -10.326466      -280.9974
   3   2.0000     -10.325411      -280.9687
   4   2.0000     -10.312855      -280.6271
   5   2.0000     -10.311076      -280.5786
   6   2.0000     -10.305337      -280.4225
   7   2.0000     -10.296534      -280.1829
   8   2.0000     -10.296297      -280.1765
   9   2.0000     -10.294287      -280.1218
  10   2.0000     -10.289023      -279.9785
  11   2.0000     -10.288795      -279.9723
  12   2.0000     -10.285905      -279.8937
  13   2.0000     -10.283885      -279.8387
  14   2.0000     -10.275914      -279.6218
  15   2.0000     -10.272968      -279.5417
  16   2.0000      -8.080050      -219.8693
  17   2.0000      -8.078983      -219.8403
  18   2.0000      -6.038432      -164.3141
  19   2.0000      -6.037426      -164.2867
  20   2.0000      -6.034527      -164.2078
  21   2.0000      -6.033689      -164.1850
  22   2.0000      -6.030978      -164.1113
  23   2.0000      -6.029647      -164.0750
  24   2.0000      -1.004654       -27.3380
  25   2.0000      -0.984578       -26.7917
  26   2.0000      -0.910223       -24.7684
  27   2.0000      -0.907643       -24.6982
  28   2.0000      -0.865604       -23.5543
  29   2.0000      -0.854431       -23.2502
  30   2.0000      -0.844350       -22.9759
  31   2.0000      -0.811846       -22.0915
  32   2.0000      -0.789033       -21.4707
  33   2.0000      -0.776858       -21.1394
  34   2.0000      -0.714476       -19.4419
  35   2.0000      -0.707017       -19.2389
  36   2.0000      -0.692800       -18.8521
  37   2.0000      -0.654542       -17.8110
  38   2.0000      -0.638218       -17.3668
  39   2.0000      -0.623497       -16.9662
  40   2.0000      -0.602197       -16.3866
  41   2.0000      -0.572547       -15.5798
  42   2.0000      -0.566675       -15.4200
  43   2.0000      -0.550062       -14.9680
  44   2.0000      -0.544264       -14.8102
  45   2.0000      -0.528038       -14.3687
  46   2.0000      -0.514699       -14.0057
  47   2.0000      -0.512259       -13.9393
  48   2.0000      -0.498316       -13.5599
  49   2.0000      -0.494652       -13.4602
  50   2.0000      -0.486519       -13.2389
  51   2.0000      -0.479356       -13.0439
  52   2.0000      -0.473873       -12.8947
  53   2.0000      -0.464020       -12.6266
  54   2.0000      -0.460100       -12.5200
  55   2.0000      -0.456633       -12.4256
  56   2.0000      -0.450330       -12.2541
  57   2.0000      -0.440647       -11.9906
  58   2.0000      -0.431019       -11.7286
  59   2.0000      -0.429184       -11.6787
  60   2.0000      -0.423803       -11.5323
  61   2.0000      -0.423068       -11.5123
  62   2.0000      -0.414050       -11.2669
  63   2.0000      -0.340620        -9.2687
  64   2.0000      -0.331436        -9.0188
  65   2.0000      -0.327163        -8.9026
  66   2.0000      -0.292876        -7.9696
  67   0.0000       0.030791         0.8379
  68   0.0000       0.070542         1.9195
  69   0.0000       0.114032         3.1030
  70   0.0000       0.116450         3.1688
  71   0.0000       0.130076         3.5396

MULLIKEN ATOMIC CHARGES
-----------------------
   0 S :    0.114275
   1 C :   -0.137502
   2 C :   -0.089767
   3 C :    0.036863
   4 C :   -0.179667
   5 H :    0.002048
   6 C :    0.074627
   7 H :    0.019121
   8 H :    0.018085
   9 C :   -0.051133
  10 H :    0.023597
  11 H :    0.007666
  12 C :   -0.013323
  13 H :    0.032075
  14 H :    0.036408
  15 H :    0.026173
  16 S :    0.110174
  17 C :   -0.085787
  18 C :   -0.022179
  19 C :   -0.009377
  20 C :   -0.147587
  21 H :   -0.000444
  22 C :    0.057315
  23 H :    0.010683
  24 H :    0.029937
  25 C :   -0.079541
  26 H :    0.020418
  27 H :    0.027882
  28 C :   -0.005497
  29 H :    0.022478
  30 H :    0.030400
  31 H :    0.021119
  32 H :    0.045066
  33 H :    0.055390
Sum of atomic charges:   -0.0000000

LOEWDIN ATOMIC CHARGES
----------------------
   0 S :    0.409431
   1 C :   -0.194932
   2 C :   -0.068473
   3 C :   -0.059352
   4 C :   -0.201882
   5 H :    0.023884
   6 C :   -0.026184
   7 H :    0.026466
   8 H :    0.030429
   9 C :   -0.037727
  10 H :    0.026489
  11 H :    0.015436
  12 C :   -0.053172
  13 H :    0.031623
  14 H :    0.014621
  15 H :    0.029135
  16 S :    0.401823
  17 C :   -0.178809
  18 C :   -0.066522
  19 C :   -0.047563
  20 C :   -0.202268
  21 H :    0.024630
  22 C :   -0.041609
  23 H :    0.034082
  24 H :    0.035878
  25 C :   -0.032265
  26 H :    0.013507
  27 H :    0.022812
  28 C :   -0.046870
  29 H :    0.020660
  30 H :    0.029667
  31 H :    0.015277
  32 H :    0.023749
  33 H :    0.028030

  Mayer bond orders larger than 0.100000
B(  0-S ,  1-C ) :   1.1495 B(  0-S ,  4-C ) :   1.1622 B(  1-C ,  2-C ) :   1.5983
B(  1-C , 32-H ) :   0.9664 B(  2-C ,  3-C ) :   1.2691 B(  2-C ,  6-C ) :   1.0117
B(  3-C ,  4-C ) :   1.5593 B(  3-C ,  5-H ) :   0.9930 B(  4-C , 20-C ) :   1.0210
B(  6-C ,  7-H ) :   0.9307 B(  6-C ,  8-H ) :   0.9446 B(  6-C ,  9-C ) :   1.0769
B(  9-C , 10-H ) :   0.9541 B(  9-C , 11-H ) :   0.9525 B(  9-C , 12-C ) :   1.0537
B( 12-C , 13-H ) :   0.9748 B( 12-C , 14-H ) :   0.9830 B( 12-C , 15-H ) :   0.9764
B( 16-S , 17-C ) :   1.1489 B( 16-S , 20-C ) :   1.1544 B( 17-C , 18-C ) :   1.6115
B( 17-C , 20-C ) :   0.1020 B( 17-C , 33-H ) :   0.9653 B( 18-C , 19-C ) :   1.2446
B( 18-C , 21-H ) :   0.9971 B( 19-C , 20-C ) :   1.5836 B( 19-C , 22-C ) :   1.0381
B( 22-C , 23-H ) :   0.9314 B( 22-C , 24-H ) :   0.9231 B( 22-C , 25-C ) :   1.0603
B( 25-C , 26-H ) :   0.9485 B( 25-C , 27-H ) :   0.9606 B( 25-C , 28-C ) :   1.0924
B( 28-C , 29-H ) :   0.9754 B( 28-C , 30-H ) :   0.9729 B( 28-C , 31-H ) :   0.9760

Dispersion correction           -0.014474639
FINAL SINGLE POINT ENERGY     -1339.872482497607

DIPOLE MOMENT
-------------
                                X             Y             Z
Electronic contribution:    -26.83337      14.61254       7.54604
Nuclear contribution   :     27.52322     -15.12100      -7.65048
                        -----------------------------------------
Total Dipole Moment    :      0.68985      -0.50847      -0.10444
                        -----------------------------------------
Magnitude (a.u.)       :      0.86333
Magnitude (Debye)      :      2.19442

Rotational constants in cm-1:     0.016002     0.010119     0.006729
Rotational constants in MHz :   479.728920   303.368847   201.736998

                             ****ORCA TERMINATED NORMALLY****
TOTAL RUN TIME: 0 days 0 hours 0 minutes 34 seconds 807 msec
