                         Program Version 4.2.1 -  RELEASE  -
|  1> ! wB97X-D3 SP def2-SVP
|  2> %pal
|  3> nprocs 16
|  4> end
|  5>
|  6> * xyz 0 1
|  7> S 	 -42.3499 	 56.1336 	 108.052
|  8> C 	 -43.7922 	 57.0295 	 108.169
|  9> C 	 -43.7155 	 58.2764 	 107.579
| 10> C 	 -42.4022 	 58.4386 	 107.017
| 11> C 	 -41.5851 	 57.3142 	 107.151
| 12> H 	 -42.0811 	 59.3216 	 106.528
| 13> C 	 -44.8035 	 59.2708 	 107.415
| 14> H 	 -45.605 	 58.8252 	 106.859
| 15> H 	 -44.3377 	 60.1844 	 106.994
| 16> C 	 -45.3853 	 59.7872 	 108.813
| 17> H 	 -45.8617 	 58.9658 	 109.263
| 18> H 	 -44.5374 	 60.0076 	 109.497
| 19> C 	 -46.357 	 60.9888 	 108.72
| 20> H 	 -47.2744 	 60.7793 	 108.251
| 21> H 	 -46.6707 	 61.4046 	 109.734
| 22> H 	 -45.8398 	 61.7901 	 108.112
| 23> S 	 -38.948 	 58.0524 	 107.259
| 24> C 	 -37.824 	 56.9759 	 106.566
| 25> C 	 -38.392 	 56.1284 	 105.667
| 26> C 	 -39.8113 	 56.1848 	 105.748
| 27> C 	 -40.2301 	 57.0796 	 106.661
| 28> H 	 -37.7572 	 55.4971 	 105.041
| 29> C 	 -40.7408 	 55.3775 	 104.891
| 30> H 	 -41.5242 	 55.041 	 105.575
| 31> H 	 -40.333 	 54.4678 	 104.378
| 32> C 	 -41.4552 	 56.1729 	 103.677
| 33> H 	 -40.7298 	 56.5038 	 102.995
| 34> H 	 -41.9196 	 57.0206 	 104.157
| 35> C 	 -42.4355 	 55.3734 	 102.926
| 36> H 	 -43.3038 	 55.1169 	 103.624
| 37> H 	 -41.9777 	 54.4388 	 102.564
| 38> H 	 -42.7828 	 55.9783 	 102.115
| 39> H 	 -44.6128 	 56.6738 	 108.747
| 40> H 	 -36.7768 	 57.1229 	 106.612
| 41> *
| 42>
| 43>                          ****END OF INPUT****

CARTESIAN COORDINATES (ANGSTROEM)
---------------------------------
  S    -42.349900   56.133600  108.052000
  C    -43.792200   57.029500  108.169000
  C    -43.715500   58.276400  107.579000
  C    -42.402200   58.438600  107.017000
  C    -41.585100   57.314200  107.151000
  H    -42.081100   59.321600  106.528000
  C    -44.803500   59.270800  107.415000
  H    -45.605000   58.825200  106.859000
  H    -44.337700   60.184400  106.994000
  C    -45.385300   59.787200  108.813000
  H    -45.861700   58.965800  109.263000
  H    -44.537400   60.007600  109.497000
  C    -46.357000   60.988800  108.720000
  H    -47.274400   60.779300  108.251000
  H    -46.670700   61.404600  109.734000
  H    -45.839800   61.790100  108.112000
  S    -38.948000   58.052400  107.259000
  C    -37.824000   56.975900  106.566000
  C    -38.392000   56.128400  105.667000
  C    -39.811300   56.184800  105.748000
  C    -40.230100   57.079600  106.661000
  H    -37.757200   55.497100  105.041000
  C    -40.740800   55.377500  104.891000
  H    -41.524200   55.041000  105.575000
  H    -40.333000   54.467800  104.378000
  C    -41.455200   56.172900  103.677000
  H    -40.729800   56.503800  102.995000
  H    -41.919600   57.020600  104.157000
  C    -42.435500   55.373400  102.926000
  H    -43.303800   55.116900  103.624000
  H    -41.977700   54.438800  102.564000
  H    -42.782800   55.978300  102.115000
  H    -44.612800   56.673800  108.747000
  H    -36.776800   57.122900  106.612000

 Total Charge           Charge          ....    0
 Multiplicity           Mult            ....    1
 Number of Electrons    NEL             ....  134
 Basis Dimension        Dim             ....  322

ORBITAL ENERGIES
----------------

  NO   OCC          E(Eh)            E(eV)
   0   2.0000     -88.966465     -2420.9006
   1   2.0000     -88.962375     -2420.7893
   2   2.0000     -10.321286      -280.8565
   3   2.0000     -10.314522      -280.6724
   4   2.0000     -10.306131      -280.4441
   5   2.0000     -10.305198      -280.4187
   6   2.0000     -10.298615      -280.2396
   7   2.0000     -10.295653      -280.1590
   8   2.0000     -10.295551      -280.1562
   9   2.0000     -10.290416      -280.0164
  10   2.0000     -10.289926      -280.0031
  11   2.0000     -10.289241      -279.9845
  12   2.0000     -10.288776      -279.9718
  13   2.0000     -10.285877      -279.8930
  14   2.0000     -10.274609      -279.5863
  15   2.0000     -10.273734      -279.5625
  16   2.0000      -8.083135      -219.9533
  17   2.0000      -8.078905      -219.8382
  18   2.0000      -6.041315      -164.3925
  19   2.0000      -6.037263      -164.2823
  20   2.0000      -6.037189      -164.2803
  21   2.0000      -6.034306      -164.2018
  22   2.0000      -6.033367      -164.1763
  23   2.0000      -6.029525      -164.0717
  24   2.0000      -1.021101       -27.7856
  25   2.0000      -0.998261       -27.1641
  26   2.0000      -0.911869       -24.8132
  27   2.0000      -0.904522       -24.6133
  28   2.0000      -0.869542       -23.6614
  29   2.0000      -0.858375       -23.3576
  30   2.0000      -0.851084       -23.1592
  31   2.0000      -0.814666       -22.1682
  32   2.0000      -0.782383       -21.2897
  33   2.0000      -0.768572       -20.9139
  34   2.0000      -0.705972       -19.2105
  35   2.0000      -0.698730       -19.0134
  36   2.0000      -0.687431       -18.7059
  37   2.0000      -0.664105       -18.0712
  38   2.0000      -0.648440       -17.6449
  39   2.0000      -0.616567       -16.7777
  40   2.0000      -0.596513       -16.2319
  41   2.0000      -0.575179       -15.6514
  42   2.0000      -0.568938       -15.4816
  43   2.0000      -0.562362       -15.3026
  44   2.0000      -0.526450       -14.3254
  45   2.0000      -0.519758       -14.1433
  46   2.0000      -0.519163       -14.1271
  47   2.0000      -0.510061       -13.8795
  48   2.0000      -0.508302       -13.8316
  49   2.0000      -0.501598       -13.6492
  50   2.0000      -0.488786       -13.3005
  51   2.0000      -0.483990       -13.1700
  52   2.0000      -0.472558       -12.8590
  53   2.0000      -0.465482       -12.6664
  54   2.0000      -0.463333       -12.6079
  55   2.0000      -0.450758       -12.2658
  56   2.0000      -0.444305       -12.0902
  57   2.0000      -0.433274       -11.7900
  58   2.0000      -0.432751       -11.7758
  59   2.0000      -0.429034       -11.6746
  60   2.0000      -0.421985       -11.4828
  61   2.0000      -0.418844       -11.3973
  62   2.0000      -0.410121       -11.1600
  63   2.0000      -0.338976        -9.2240
  64   2.0000      -0.330620        -8.9966
  65   2.0000      -0.327394        -8.9088
  66   2.0000      -0.298602        -8.1254
  67   0.0000       0.043853         1.1933
  68   0.0000       0.067494         1.8366
  69   0.0000       0.110426         3.0049
  70   0.0000       0.129747         3.5306
  71   0.0000       0.134613         3.6630

MULLIKEN ATOMIC CHARGES
-----------------------
   0 S :    0.146582
   1 C :   -0.135286
   2 C :   -0.083925
   3 C :    0.042829
   4 C :   -0.180796
   5 H :   -0.010366
   6 C :    0.083550
   7 H :    0.045403
   8 H :    0.024873
   9 C :   -0.102388
  10 H :    0.015099
  11 H :    0.039437
  12 C :   -0.051558
  13 H :    0.022881
  14 H :    0.045380
  15 H :    0.036220
  16 S :    0.127516
  17 C :   -0.074751
  18 C :   -0.042779
  19 C :    0.003166
  20 C :   -0.172581
  21 H :    0.019289
  22 C :    0.043495
  23 H :    0.015715
  24 H :    0.020700
  25 C :   -0.057348
  26 H :    0.014576
  27 H :    0.025558
  28 C :   -0.035828
  29 H :    0.038460
  30 H :    0.028195
  31 H :    0.034274
  32 H :    0.035984
  33 H :    0.038425
Sum of atomic charges:    0.0000000

LOEWDIN ATOMIC CHARGES
----------------------
   0 S :    0.478886
   1 C :   -0.214831
   2 C :   -0.063692
   3 C :   -0.063691
   4 C :   -0.221509
   5 H :    0.021431
   6 C :   -0.026059
   7 H :    0.034132
   8 H :    0.033768
   9 C :   -0.039078
  10 H :    0.010722
  11 H :    0.029504
  12 C :   -0.071221
  13 H :    0.015641
  14 H :    0.036127
  15 H :    0.030139
  16 S :    0.434996
  17 C :   -0.188917
  18 C :   -0.068327
  19 C :   -0.059300
  20 C :   -0.217190
  21 H :    0.034712
  22 C :   -0.036315
  23 H :    0.021772
  24 H :    0.028447
  25 C :   -0.033838
  26 H :    0.014531
  27 H :    0.021807
  28 C :   -0.064513
  29 H :    0.033279
  30 H :    0.024097
  31 H :    0.025710
  32 H :    0.018756
  33 H :    0.020024

  Mayer bond orders larger than 0.100000
B(  0-S ,  1-C ) :   1.1718 B(  0-S ,  4-C ) :   1.2101 B(  1-C ,  2-C ) :   1.5572
B(  1-C , 32-H ) :   0.9760 B(  2-C ,  3-C ) :   1.2805 B(  2-C ,  6-C ) :   1.0321
B(  3-C ,  4-C ) :   1.5327 B(  3-C ,  5-H ) :   1.0038 B(  4-C , 20-C ) :   0.9897
B(  6-C ,  7-H ) :   0.9380 B(  6-C ,  8-H ) :   0.9398 B(  6-C ,  9-C ) :   1.0506
B(  9-C , 10-H ) :   0.9570 B(  9-C , 11-H ) :   0.9618 B(  9-C , 12-C ) :   1.0807
B( 12-C , 13-H ) :   0.9749 B( 12-C , 14-H ) :   0.9740 B( 12-C , 15-H ) :   0.9751
B( 16-S , 17-C ) :   1.1662 B( 16-S , 20-C ) :   1.1451 B( 17-C , 18-C ) :   1.6143
B( 17-C , 33-H ) :   0.9690 B( 18-C , 19-C ) :   1.2273 B( 18-C , 21-H ) :   0.9961
B( 19-C , 20-C ) :   1.6106 B( 19-C , 22-C ) :   1.0545 B( 22-C , 23-H ) :   0.9171
B( 22-C , 24-H ) :   0.9420 B( 22-C , 25-C ) :   1.0561 B( 25-C , 26-H ) :   0.9541
B( 25-C , 27-H ) :   0.9532 B( 25-C , 28-C ) :   1.1013 B( 28-C , 29-H ) :   0.9725
B( 28-C , 30-H ) :   0.9697 B( 28-C , 31-H ) :   0.9698

Dispersion correction           -0.014272993
FINAL SINGLE POINT ENERGY     -1339.880026390029

DIPOLE MOMENT
-------------
                                X             Y             Z
Electronic contribution:     20.47872      -5.74591       9.94564
Nuclear contribution   :    -20.75264       5.86658     -10.22871
                        -----------------------------------------
Total Dipole Moment    :     -0.27392       0.12067      -0.28307
                        -----------------------------------------
Magnitude (a.u.)       :      0.41198
Magnitude (Debye)      :      1.04717

Rotational constants in cm-1:     0.020658     0.007803     0.006607
Rotational constants in MHz :   619.314730   233.922161   198.058736

                             ****ORCA TERMINATED NORMALLY****
TOTAL RUN TIME: 0 days 0 hours 0 minutes 29 seconds 614 msec
