                         Program Version 4.2.1 -  RELEASE  -
|  1> ! wB97X-D3 SP def2-SVP
|  2> %pal
|  3> nprocs 16
|  4> end
|  5>
|  6> * xyz 0 1
|  7> S 	 -14.6566 	 36.0074 	 35.7583
|  8> C 	 -13.5967 	 34.6268 	 35.9002
|  9> C 	 -14.2847 	 33.4765 	 36.2649
| 10> C 	 -15.6279 	 33.7072 	 36.6204
| 11> C 	 -15.93 	 35.0651 	 36.5551
| 12> H 	 -16.3127 	 33.0591 	 37.0576
| 13> C 	 -13.7004 	 32.1078 	 36.1845
| 14> H 	 -14.2444 	 31.509 	 36.9333
| 15> H 	 -12.6959 	 32.0929 	 36.5599
| 16> C 	 -13.7933 	 31.4403 	 34.8684
| 17> H 	 -13.4724 	 32.147 	 34.1093
| 18> H 	 -12.9663 	 30.6813 	 34.7177
| 19> C 	 -15.1653 	 30.8389 	 34.4993
| 20> H 	 -15.3136 	 30.6387 	 33.4282
| 21> H 	 -15.4856 	 29.8872 	 34.9305
| 22> H 	 -15.9799 	 31.4998 	 34.8173
| 23> S 	 -17.9287 	 36.4739 	 35.3011
| 24> C 	 -19.5585 	 36.5358 	 35.9891
| 25> C 	 -19.5574 	 36.0306 	 37.2769
| 26> C 	 -18.2821 	 35.5263 	 37.6716
| 27> C 	 -17.2923 	 35.6314 	 36.6914
| 28> H 	 -20.4403 	 36.1648 	 37.8964
| 29> C 	 -18.1463 	 34.9959 	 39.0873
| 30> H 	 -17.5989 	 34.0521 	 39.014
| 31> H 	 -19.104 	 34.6397 	 39.4573
| 32> C 	 -17.4213 	 35.9781 	 40.0381
| 33> H 	 -17.9684 	 36.9079 	 40.0617
| 34> H 	 -16.5207 	 36.3228 	 39.586
| 35> C 	 -17.0839 	 35.533 	 41.3929
| 36> H 	 -16.2953 	 36.1338 	 41.8138
| 37> H 	 -16.6553 	 34.5136 	 41.4824
| 38> H 	 -17.9781 	 35.5905 	 42.0514
| 39> H 	 -12.6212 	 34.566 	 35.3874
| 40> H 	 -20.4287 	 37.0407 	 35.6399
| 41> *
| 42>
| 43>                          ****END OF INPUT****

CARTESIAN COORDINATES (ANGSTROEM)
---------------------------------
  S    -14.656600   36.007400   35.758300
  C    -13.596700   34.626800   35.900200
  C    -14.284700   33.476500   36.264900
  C    -15.627900   33.707200   36.620400
  C    -15.930000   35.065100   36.555100
  H    -16.312700   33.059100   37.057600
  C    -13.700400   32.107800   36.184500
  H    -14.244400   31.509000   36.933300
  H    -12.695900   32.092900   36.559900
  C    -13.793300   31.440300   34.868400
  H    -13.472400   32.147000   34.109300
  H    -12.966300   30.681300   34.717700
  C    -15.165300   30.838900   34.499300
  H    -15.313600   30.638700   33.428200
  H    -15.485600   29.887200   34.930500
  H    -15.979900   31.499800   34.817300
  S    -17.928700   36.473900   35.301100
  C    -19.558500   36.535800   35.989100
  C    -19.557400   36.030600   37.276900
  C    -18.282100   35.526300   37.671600
  C    -17.292300   35.631400   36.691400
  H    -20.440300   36.164800   37.896400
  C    -18.146300   34.995900   39.087300
  H    -17.598900   34.052100   39.014000
  H    -19.104000   34.639700   39.457300
  C    -17.421300   35.978100   40.038100
  H    -17.968400   36.907900   40.061700
  H    -16.520700   36.322800   39.586000
  C    -17.083900   35.533000   41.392900
  H    -16.295300   36.133800   41.813800
  H    -16.655300   34.513600   41.482400
  H    -17.978100   35.590500   42.051400
  H    -12.621200   34.566000   35.387400
  H    -20.428700   37.040700   35.639900

 Total Charge           Charge          ....    0
 Multiplicity           Mult            ....    1
 Number of Electrons    NEL             ....  134
 Basis Dimension        Dim             ....  322

ORBITAL ENERGIES
----------------

  NO   OCC          E(Eh)            E(eV)
   0   2.0000     -88.971504     -2421.0377
   1   2.0000     -88.966138     -2420.8917
   2   2.0000     -10.335512      -281.2436
   3   2.0000     -10.329279      -281.0740
   4   2.0000     -10.315125      -280.6888
   5   2.0000     -10.315041      -280.6865
   6   2.0000     -10.302753      -280.3522
   7   2.0000     -10.299717      -280.2695
   8   2.0000     -10.293072      -280.0887
   9   2.0000     -10.292244      -280.0662
  10   2.0000     -10.289776      -279.9991
  11   2.0000     -10.289141      -279.9818
  12   2.0000     -10.285965      -279.8953
  13   2.0000     -10.278476      -279.6915
  14   2.0000     -10.274696      -279.5887
  15   2.0000     -10.273444      -279.5546
  16   2.0000      -8.085750      -220.0244
  17   2.0000      -8.080492      -219.8814
  18   2.0000      -6.044156      -164.4698
  19   2.0000      -6.040479      -164.3698
  20   2.0000      -6.039158      -164.3338
  21   2.0000      -6.036506      -164.2617
  22   2.0000      -6.034977      -164.2201
  23   2.0000      -6.031170      -164.1165
  24   2.0000      -1.006418       -27.3860
  25   2.0000      -0.984161       -26.7804
  26   2.0000      -0.918283       -24.9878
  27   2.0000      -0.908951       -24.7338
  28   2.0000      -0.866708       -23.5843
  29   2.0000      -0.855442       -23.2778
  30   2.0000      -0.848568       -23.0907
  31   2.0000      -0.817310       -22.2401
  32   2.0000      -0.783755       -21.3271
  33   2.0000      -0.770075       -20.9548
  34   2.0000      -0.707449       -19.2507
  35   2.0000      -0.705351       -19.1936
  36   2.0000      -0.693571       -18.8730
  37   2.0000      -0.664159       -18.0727
  38   2.0000      -0.643610       -17.5135
  39   2.0000      -0.620086       -16.8734
  40   2.0000      -0.592140       -16.1129
  41   2.0000      -0.571601       -15.5540
  42   2.0000      -0.560682       -15.2569
  43   2.0000      -0.557009       -15.1570
  44   2.0000      -0.533360       -14.5135
  45   2.0000      -0.525600       -14.3023
  46   2.0000      -0.513899       -13.9839
  47   2.0000      -0.509999       -13.8778
  48   2.0000      -0.507047       -13.7974
  49   2.0000      -0.495825       -13.4921
  50   2.0000      -0.494195       -13.4477
  51   2.0000      -0.486134       -13.2284
  52   2.0000      -0.478455       -13.0194
  53   2.0000      -0.463112       -12.6019
  54   2.0000      -0.457508       -12.4494
  55   2.0000      -0.453589       -12.3428
  56   2.0000      -0.442295       -12.0354
  57   2.0000      -0.437072       -11.8933
  58   2.0000      -0.431150       -11.7322
  59   2.0000      -0.425925       -11.5900
  60   2.0000      -0.419552       -11.4166
  61   2.0000      -0.407577       -11.0907
  62   2.0000      -0.406343       -11.0571
  63   2.0000      -0.349254        -9.5037
  64   2.0000      -0.336056        -9.1446
  65   2.0000      -0.327728        -8.9179
  66   2.0000      -0.290418        -7.9027
  67   0.0000       0.023562         0.6412
  68   0.0000       0.063278         1.7219
  69   0.0000       0.101368         2.7584
  70   0.0000       0.123835         3.3697
  71   0.0000       0.135581         3.6894

MULLIKEN ATOMIC CHARGES
-----------------------
   0 S :    0.104699
   1 C :   -0.108098
   2 C :   -0.105032
   3 C :    0.065063
   4 C :   -0.148889
   5 H :   -0.000785
   6 C :    0.075416
   7 H :    0.015837
   8 H :    0.021275
   9 C :   -0.038533
  10 H :    0.016153
  11 H :    0.029663
  12 C :   -0.061672
  13 H :    0.033730
  14 H :    0.025085
  15 H :    0.028264
  16 S :    0.101007
  17 C :   -0.080120
  18 C :   -0.045240
  19 C :   -0.072634
  20 C :   -0.143964
  21 H :    0.025874
  22 C :    0.099044
  23 H :    0.004756
  24 H :    0.010312
  25 C :   -0.039686
  26 H :    0.013527
  27 H :    0.015389
  28 C :   -0.032004
  29 H :    0.027933
  30 H :    0.026683
  31 H :    0.032141
  32 H :    0.059138
  33 H :    0.045670
Sum of atomic charges:   -0.0000000

LOEWDIN ATOMIC CHARGES
----------------------
   0 S :    0.401875
   1 C :   -0.205515
   2 C :   -0.059500
   3 C :   -0.048119
   4 C :   -0.178261
   5 H :    0.023231
   6 C :   -0.037118
   7 H :    0.031269
   8 H :    0.032721
   9 C :   -0.045699
  10 H :    0.024327
  11 H :    0.030958
  12 C :   -0.074613
  13 H :    0.030275
  14 H :    0.024423
  15 H :    0.026768
  16 S :    0.401598
  17 C :   -0.181142
  18 C :   -0.071009
  19 C :   -0.061018
  20 C :   -0.201376
  21 H :    0.034344
  22 C :   -0.028941
  23 H :    0.026371
  24 H :    0.025742
  25 C :   -0.044957
  26 H :    0.025280
  27 H :    0.024593
  28 C :   -0.068242
  29 H :    0.028043
  30 H :    0.027532
  31 H :    0.026785
  32 H :    0.032709
  33 H :    0.026666

  Mayer bond orders larger than 0.100000
B(  0-S ,  1-C ) :   1.1353 B(  0-S ,  4-C ) :   1.1615 B(  1-C ,  2-C ) :   1.6070
B(  1-C , 32-H ) :   0.9587 B(  2-C ,  3-C ) :   1.2576 B(  2-C ,  6-C ) :   1.0346
B(  3-C ,  4-C ) :   1.5531 B(  3-C ,  5-H ) :   0.9960 B(  4-C , 20-C ) :   1.0237
B(  6-C ,  7-H ) :   0.9385 B(  6-C ,  8-H ) :   0.9316 B(  6-C ,  9-C ) :   1.0738
B(  9-C , 10-H ) :   0.9514 B(  9-C , 11-H ) :   0.9511 B(  9-C , 12-C ) :   1.0681
B( 12-C , 13-H ) :   0.9742 B( 12-C , 14-H ) :   0.9745 B( 12-C , 15-H ) :   0.9750
B( 16-S , 17-C ) :   1.1489 B( 16-S , 20-C ) :   1.1379 B( 17-C , 18-C ) :   1.6136
B( 17-C , 33-H ) :   0.9670 B( 18-C , 19-C ) :   1.2589 B( 18-C , 21-H ) :   0.9866
B( 19-C , 20-C ) :   1.5950 B( 19-C , 22-C ) :   1.0478 B( 22-C , 23-H ) :   0.9243
B( 22-C , 24-H ) :   0.9342 B( 22-C , 25-C ) :   1.0587 B( 25-C , 26-H ) :   0.9465
B( 25-C , 27-H ) :   0.9531 B( 25-C , 28-C ) :   1.0997 B( 28-C , 29-H ) :   0.9699
B( 28-C , 30-H ) :   0.9700 B( 28-C , 31-H ) :   0.9729

Dispersion correction           -0.014278944
FINAL SINGLE POINT ENERGY     -1339.874498030808

DIPOLE MOMENT
-------------
                                X             Y             Z
Electronic contribution:     -2.17770      17.76694     -13.11960
Nuclear contribution   :      2.11640     -18.18273      13.36658
                        -----------------------------------------
Total Dipole Moment    :     -0.06130      -0.41579       0.24698
                        -----------------------------------------
Magnitude (a.u.)       :      0.48748
Magnitude (Debye)      :      1.23908

Rotational constants in cm-1:     0.017722     0.008568     0.007434
Rotational constants in MHz :   531.293186   256.877078   222.855447

                             ****ORCA TERMINATED NORMALLY****
TOTAL RUN TIME: 0 days 0 hours 0 minutes 33 seconds 824 msec
