                         Program Version 4.2.1 -  RELEASE  -
|  1> ! wB97X-D3 SP def2-SVP
|  2> %pal
|  3> nprocs 16
|  4> end
|  5>
|  6> * xyz 0 1
|  7> S 	 -16.1231 	 -2.49145 	 83.8906
|  8> C 	 -15.5529 	 -3.47682 	 82.5815
|  9> C 	 -15.6292 	 -4.83089 	 82.8415
| 10> C 	 -16.1074 	 -5.01616 	 84.1663
| 11> C 	 -16.2237 	 -3.89196 	 84.9525
| 12> H 	 -16.1928 	 -5.97918 	 84.6745
| 13> C 	 -15.2534 	 -5.93112 	 81.8927
| 14> H 	 -15.2932 	 -6.94858 	 82.3467
| 15> H 	 -14.2103 	 -5.71471 	 81.5442
| 16> C 	 -16.1323 	 -5.90681 	 80.6122
| 17> H 	 -17.1304 	 -6.23607 	 80.9141
| 18> H 	 -16.2977 	 -4.90582 	 80.1878
| 19> C 	 -15.7114 	 -6.89706 	 79.4371
| 20> H 	 -15.6565 	 -7.87854 	 79.8266
| 21> H 	 -16.4821 	 -6.8399 	 78.6997
| 22> H 	 -14.7446 	 -6.64081 	 78.9631
| 23> S 	 -17.6782 	 -5.0655 	 87.0849
| 24> C 	 -18.0058 	 -4.02546 	 88.4231
| 25> C 	 -17.2828 	 -2.8464 	 88.4542
| 26> C 	 -16.4435 	 -2.69756 	 87.2638
| 27> C 	 -16.6894 	 -3.75856 	 86.3679
| 28> H 	 -17.3711 	 -2.12819 	 89.3123
| 29> C 	 -15.5008 	 -1.52712 	 87.1096
| 30> H 	 -14.6626 	 -1.97074 	 86.5387
| 31> H 	 -15.045 	 -1.22635 	 87.9863
| 32> C 	 -16.167 	 -0.266567 	 86.5406
| 33> H 	 -16.6506 	 0.321025 	 87.3291
| 34> H 	 -16.9951 	 -0.523267 	 85.8816
| 35> C 	 -15.1267 	 0.73651 	 85.8797
| 36> H 	 -15.7081 	 1.53947 	 85.3059
| 37> H 	 -14.4585 	 0.269701 	 85.2275
| 38> H 	 -14.5222 	 1.04863 	 86.7164
| 39> H 	 -15.283 	 -3.03403 	 81.6421
| 40> H 	 -18.7007 	 -4.43517 	 89.1504
| 41> *
| 42>
| 43>                          ****END OF INPUT****

CARTESIAN COORDINATES (ANGSTROEM)
---------------------------------
  S    -16.123100   -2.491450   83.890600
  C    -15.552900   -3.476820   82.581500
  C    -15.629200   -4.830890   82.841500
  C    -16.107400   -5.016160   84.166300
  C    -16.223700   -3.891960   84.952500
  H    -16.192800   -5.979180   84.674500
  C    -15.253400   -5.931120   81.892700
  H    -15.293200   -6.948580   82.346700
  H    -14.210300   -5.714710   81.544200
  C    -16.132300   -5.906810   80.612200
  H    -17.130400   -6.236070   80.914100
  H    -16.297700   -4.905820   80.187800
  C    -15.711400   -6.897060   79.437100
  H    -15.656500   -7.878540   79.826600
  H    -16.482100   -6.839900   78.699700
  H    -14.744600   -6.640810   78.963100
  S    -17.678200   -5.065500   87.084900
  C    -18.005800   -4.025460   88.423100
  C    -17.282800   -2.846400   88.454200
  C    -16.443500   -2.697560   87.263800
  C    -16.689400   -3.758560   86.367900
  H    -17.371100   -2.128190   89.312300
  C    -15.500800   -1.527120   87.109600
  H    -14.662600   -1.970740   86.538700
  H    -15.045000   -1.226350   87.986300
  C    -16.167000   -0.266567   86.540600
  H    -16.650600    0.321025   87.329100
  H    -16.995100   -0.523267   85.881600
  C    -15.126700    0.736510   85.879700
  H    -15.708100    1.539470   85.305900
  H    -14.458500    0.269701   85.227500
  H    -14.522200    1.048630   86.716400
  H    -15.283000   -3.034030   81.642100
  H    -18.700700   -4.435170   89.150400

 Total Charge           Charge          ....    0
 Multiplicity           Mult            ....    1
 Number of Electrons    NEL             ....  134
 Basis Dimension        Dim             ....  322

ORBITAL ENERGIES
----------------

  NO   OCC          E(Eh)            E(eV)
   0   2.0000     -88.967645     -2420.9327
   1   2.0000     -88.964945     -2420.8592
   2   2.0000     -10.334612      -281.2191
   3   2.0000     -10.329760      -281.0871
   4   2.0000     -10.318529      -280.7814
   5   2.0000     -10.310742      -280.5696
   6   2.0000     -10.309133      -280.5258
   7   2.0000     -10.302037      -280.3327
   8   2.0000     -10.300709      -280.2965
   9   2.0000     -10.300157      -280.2815
  10   2.0000     -10.290524      -280.0194
  11   2.0000     -10.290419      -280.0165
  12   2.0000     -10.287827      -279.9460
  13   2.0000     -10.286568      -279.9118
  14   2.0000     -10.278027      -279.6793
  15   2.0000     -10.277720      -279.6710
  16   2.0000      -8.082381      -219.9328
  17   2.0000      -8.079258      -219.8478
  18   2.0000      -6.040857      -164.3801
  19   2.0000      -6.037776      -164.2962
  20   2.0000      -6.037126      -164.2785
  21   2.0000      -6.033828      -164.1888
  22   2.0000      -6.032973      -164.1655
  23   2.0000      -6.030040      -164.0857
  24   2.0000      -1.003104       -27.2958
  25   2.0000      -0.982643       -26.7391
  26   2.0000      -0.908524       -24.7222
  27   2.0000      -0.904490       -24.6124
  28   2.0000      -0.860605       -23.4182
  29   2.0000      -0.848441       -23.0872
  30   2.0000      -0.844071       -22.9683
  31   2.0000      -0.809815       -22.0362
  32   2.0000      -0.785096       -21.3635
  33   2.0000      -0.769587       -20.9415
  34   2.0000      -0.703318       -19.1382
  35   2.0000      -0.700434       -19.0598
  36   2.0000      -0.688583       -18.7373
  37   2.0000      -0.664611       -18.0850
  38   2.0000      -0.635495       -17.2927
  39   2.0000      -0.613745       -16.7008
  40   2.0000      -0.600056       -16.3283
  41   2.0000      -0.570344       -15.5199
  42   2.0000      -0.561255       -15.2725
  43   2.0000      -0.550172       -14.9709
  44   2.0000      -0.526783       -14.3345
  45   2.0000      -0.521230       -14.1834
  46   2.0000      -0.515981       -14.0406
  47   2.0000      -0.507916       -13.8211
  48   2.0000      -0.502565       -13.6755
  49   2.0000      -0.495499       -13.4832
  50   2.0000      -0.487943       -13.2776
  51   2.0000      -0.478920       -13.0321
  52   2.0000      -0.467453       -12.7200
  53   2.0000      -0.466290       -12.6884
  54   2.0000      -0.462052       -12.5731
  55   2.0000      -0.450119       -12.2484
  56   2.0000      -0.444384       -12.0923
  57   2.0000      -0.439116       -11.9490
  58   2.0000      -0.432660       -11.7733
  59   2.0000      -0.423894       -11.5347
  60   2.0000      -0.420688       -11.4475
  61   2.0000      -0.419374       -11.4118
  62   2.0000      -0.408276       -11.1098
  63   2.0000      -0.353565        -9.6210
  64   2.0000      -0.331485        -9.0202
  65   2.0000      -0.328520        -8.9395
  66   2.0000      -0.281810        -7.6684
  67   0.0000       0.022408         0.6097
  68   0.0000       0.078651         2.1402
  69   0.0000       0.097866         2.6631
  70   0.0000       0.113466         3.0876
  71   0.0000       0.135849         3.6966

MULLIKEN ATOMIC CHARGES
-----------------------
   0 S :    0.098246
   1 C :   -0.124815
   2 C :   -0.056178
   3 C :   -0.020904
   4 C :   -0.124589
   5 H :    0.010620
   6 C :    0.076411
   7 H :    0.034580
   8 H :    0.040392
   9 C :   -0.126125
  10 H :    0.025331
  11 H :    0.033600
  12 C :   -0.026357
  13 H :    0.023438
  14 H :    0.031479
  15 H :    0.035420
  16 S :    0.099697
  17 C :   -0.098630
  18 C :   -0.024399
  19 C :   -0.087615
  20 C :   -0.130755
  21 H :    0.040755
  22 C :    0.095038
  23 H :    0.038261
  24 H :    0.002710
  25 C :   -0.094339
  26 H :    0.028691
  27 H :    0.035759
  28 C :   -0.036561
  29 H :    0.053564
  30 H :    0.019454
  31 H :    0.025978
  32 H :    0.040934
  33 H :    0.060909
Sum of atomic charges:   -0.0000000

LOEWDIN ATOMIC CHARGES
----------------------
   0 S :    0.422497
   1 C :   -0.196970
   2 C :   -0.062850
   3 C :   -0.076971
   4 C :   -0.185020
   5 H :    0.026273
   6 C :   -0.034538
   7 H :    0.035396
   8 H :    0.038556
   9 C :   -0.040274
  10 H :    0.023104
  11 H :    0.022002
  12 C :   -0.059898
  13 H :    0.018040
  14 H :    0.024270
  15 H :    0.025614
  16 S :    0.395860
  17 C :   -0.184635
  18 C :   -0.075902
  19 C :   -0.047408
  20 C :   -0.188046
  21 H :    0.041806
  22 C :   -0.036128
  23 H :    0.036482
  24 H :    0.021910
  25 C :   -0.040665
  26 H :    0.024627
  27 H :    0.013901
  28 C :   -0.060402
  29 H :    0.038661
  30 H :    0.011102
  31 H :    0.023462
  32 H :    0.020796
  33 H :    0.025347

  Mayer bond orders larger than 0.100000
B(  0-S ,  1-C ) :   1.1522 B(  0-S ,  4-C ) :   1.1462 B(  1-C ,  2-C ) :   1.5866
B(  1-C , 32-H ) :   0.9691 B(  2-C ,  3-C ) :   1.2687 B(  2-C ,  6-C ) :   1.0217
B(  3-C ,  4-C ) :   1.5707 B(  3-C ,  5-H ) :   0.9857 B(  4-C , 20-C ) :   1.0643
B(  6-C ,  7-H ) :   0.9442 B(  6-C ,  8-H ) :   0.9385 B(  6-C ,  9-C ) :   1.0506
B(  9-C , 10-H ) :   0.9558 B(  9-C , 11-H ) :   0.9645 B(  9-C , 12-C ) :   1.0752
B( 12-C , 13-H ) :   0.9760 B( 12-C , 14-H ) :   0.9764 B( 12-C , 15-H ) :   0.9777
B( 16-S , 17-C ) :   1.1588 B( 16-S , 20-C ) :   1.1273 B( 17-C , 18-C ) :   1.6163
B( 17-C , 33-H ) :   0.9678 B( 18-C , 19-C ) :   1.2103 B( 18-C , 21-H ) :   0.9852
B( 19-C , 20-C ) :   1.5873 B( 19-C , 22-C ) :   1.0549 B( 22-C , 23-H ) :   0.9385
B( 22-C , 24-H ) :   0.9291 B( 22-C , 25-C ) :   1.0372 B( 25-C , 26-H ) :   0.9552
B( 25-C , 27-H ) :   0.9645 B( 25-C , 28-C ) :   1.0643 B( 28-C , 29-H ) :   0.9757
B( 28-C , 30-H ) :   0.9815 B( 28-C , 31-H ) :   0.9751

Dispersion correction           -0.014115748
FINAL SINGLE POINT ENERGY     -1339.877773305093

DIPOLE MOMENT
-------------
                                X             Y             Z
Electronic contribution:     -7.56290      -3.79992      14.74575
Nuclear contribution   :      7.66659       3.78946     -14.77599
                        -----------------------------------------
Total Dipole Moment    :      0.10369      -0.01046      -0.03024
                        -----------------------------------------
Magnitude (a.u.)       :      0.10852
Magnitude (Debye)      :      0.27582

Rotational constants in cm-1:     0.021603     0.007688     0.005864
Rotational constants in MHz :   647.653113   230.471273   175.806072

                             ****ORCA TERMINATED NORMALLY****
TOTAL RUN TIME: 0 days 0 hours 0 minutes 33 seconds 445 msec
