                         Program Version 4.2.1 -  RELEASE  -
|  1> ! wB97X-D3 SP def2-SVP
|  2> %pal
|  3> nprocs 16
|  4> end
|  5>
|  6> * xyz 0 1
|  7> S 	 46.4737 	 17.5403 	 81.8381
|  8> C 	 45.9708 	 19.0971 	 81.3846
|  9> C 	 46.9098 	 19.8457 	 80.6892
| 10> C 	 48.1828 	 19.1088 	 80.5442
| 11> C 	 48.116 	 17.9086 	 81.2443
| 12> H 	 49.0799 	 19.2249 	 80.0049
| 13> C 	 46.7405 	 21.1943 	 80.11
| 14> H 	 45.734 	 21.5178 	 80.1862
| 15> H 	 46.9878 	 21.1701 	 79.061
| 16> C 	 47.5295 	 22.3388 	 80.7438
| 17> H 	 48.5561 	 22.2209 	 80.3053
| 18> H 	 47.0599 	 23.2224 	 80.2063
| 19> C 	 47.3854 	 22.492 	 82.2664
| 20> H 	 46.2548 	 22.508 	 82.4538
| 21> H 	 47.8518 	 21.6549 	 82.866
| 22> H 	 47.6699 	 23.4279 	 82.7454
| 23> S 	 48.9985 	 15.49 	 80.4616
| 24> C 	 50.5782 	 14.9079 	 80.9011
| 25> C 	 51.2505 	 15.7878 	 81.7051
| 26> C 	 50.4889 	 17.0273 	 81.9677
| 27> C 	 49.2158 	 16.9912 	 81.3907
| 28> H 	 52.2149 	 15.6008 	 82.0767
| 29> C 	 50.947 	 18.0333 	 82.9559
| 30> H 	 50.5275 	 18.9872 	 82.7017
| 31> H 	 52.1017 	 18.036 	 82.8948
| 32> C 	 50.5746 	 17.7371 	 84.4479
| 33> H 	 51.4101 	 17.8847 	 85.136
| 34> H 	 50.3693 	 16.7393 	 84.5741
| 35> C 	 49.4088 	 18.5923 	 84.9058
| 36> H 	 48.5087 	 18.4343 	 84.3566
| 37> H 	 49.6163 	 19.6787 	 84.6514
| 38> H 	 49.2284 	 18.4633 	 85.9864
| 39> H 	 45.0111 	 19.4891 	 81.7189
| 40> H 	 51.045 	 14.0024 	 80.556
| 41> *
| 42>
| 43>                          ****END OF INPUT****

CARTESIAN COORDINATES (ANGSTROEM)
---------------------------------
  S     46.473700   17.540300   81.838100
  C     45.970800   19.097100   81.384600
  C     46.909800   19.845700   80.689200
  C     48.182800   19.108800   80.544200
  C     48.116000   17.908600   81.244300
  H     49.079900   19.224900   80.004900
  C     46.740500   21.194300   80.110000
  H     45.734000   21.517800   80.186200
  H     46.987800   21.170100   79.061000
  C     47.529500   22.338800   80.743800
  H     48.556100   22.220900   80.305300
  H     47.059900   23.222400   80.206300
  C     47.385400   22.492000   82.266400
  H     46.254800   22.508000   82.453800
  H     47.851800   21.654900   82.866000
  H     47.669900   23.427900   82.745400
  S     48.998500   15.490000   80.461600
  C     50.578200   14.907900   80.901100
  C     51.250500   15.787800   81.705100
  C     50.488900   17.027300   81.967700
  C     49.215800   16.991200   81.390700
  H     52.214900   15.600800   82.076700
  C     50.947000   18.033300   82.955900
  H     50.527500   18.987200   82.701700
  H     52.101700   18.036000   82.894800
  C     50.574600   17.737100   84.447900
  H     51.410100   17.884700   85.136000
  H     50.369300   16.739300   84.574100
  C     49.408800   18.592300   84.905800
  H     48.508700   18.434300   84.356600
  H     49.616300   19.678700   84.651400
  H     49.228400   18.463300   85.986400
  H     45.011100   19.489100   81.718900
  H     51.045000   14.002400   80.556000

 Total Charge           Charge          ....    0
 Multiplicity           Mult            ....    1
 Number of Electrons    NEL             ....  134
 Basis Dimension        Dim             ....  322

ORBITAL ENERGIES
----------------

  NO   OCC          E(Eh)            E(eV)
   0   2.0000     -88.967894     -2420.9395
   1   2.0000     -88.960817     -2420.7469
   2   2.0000     -10.329787      -281.0878
   3   2.0000     -10.325692      -280.9764
   4   2.0000     -10.315930      -280.7107
   5   2.0000     -10.313705      -280.6502
   6   2.0000     -10.307513      -280.4817
   7   2.0000     -10.305917      -280.4383
   8   2.0000     -10.298067      -280.2246
   9   2.0000     -10.295647      -280.1588
  10   2.0000     -10.293341      -280.0960
  11   2.0000     -10.292554      -280.0746
  12   2.0000     -10.289602      -279.9943
  13   2.0000     -10.284147      -279.8459
  14   2.0000     -10.276557      -279.6393
  15   2.0000     -10.273623      -279.5595
  16   2.0000      -8.082981      -219.9491
  17   2.0000      -8.075679      -219.7504
  18   2.0000      -6.041415      -164.3952
  19   2.0000      -6.037508      -164.2889
  20   2.0000      -6.034310      -164.2019
  21   2.0000      -6.033728      -164.1861
  22   2.0000      -6.030076      -164.0867
  23   2.0000      -6.026392      -163.9865
  24   2.0000      -1.004204       -27.3258
  25   2.0000      -0.980681       -26.6857
  26   2.0000      -0.915553       -24.9135
  27   2.0000      -0.907607       -24.6972
  28   2.0000      -0.873682       -23.7741
  29   2.0000      -0.848531       -23.0897
  30   2.0000      -0.844339       -22.9756
  31   2.0000      -0.814444       -22.1621
  32   2.0000      -0.782476       -21.2922
  33   2.0000      -0.766704       -20.8631
  34   2.0000      -0.708877       -19.2895
  35   2.0000      -0.698271       -19.0009
  36   2.0000      -0.690814       -18.7980
  37   2.0000      -0.662078       -18.0161
  38   2.0000      -0.650071       -17.6893
  39   2.0000      -0.616553       -16.7773
  40   2.0000      -0.595618       -16.2076
  41   2.0000      -0.566735       -15.4216
  42   2.0000      -0.558592       -15.2001
  43   2.0000      -0.551135       -14.9971
  44   2.0000      -0.541642       -14.7388
  45   2.0000      -0.526205       -14.3188
  46   2.0000      -0.516047       -14.0423
  47   2.0000      -0.512385       -13.9427
  48   2.0000      -0.498373       -13.5614
  49   2.0000      -0.496408       -13.5080
  50   2.0000      -0.490283       -13.3413
  51   2.0000      -0.480675       -13.0798
  52   2.0000      -0.467591       -12.7238
  53   2.0000      -0.464126       -12.6295
  54   2.0000      -0.461029       -12.5452
  55   2.0000      -0.452134       -12.3032
  56   2.0000      -0.441282       -12.0079
  57   2.0000      -0.439490       -11.9591
  58   2.0000      -0.430578       -11.7166
  59   2.0000      -0.427333       -11.6283
  60   2.0000      -0.417963       -11.3734
  61   2.0000      -0.412991       -11.2380
  62   2.0000      -0.408037       -11.1032
  63   2.0000      -0.344135        -9.3644
  64   2.0000      -0.326862        -8.8944
  65   2.0000      -0.324783        -8.8378
  66   2.0000      -0.296221        -8.0606
  67   0.0000       0.037162         1.0112
  68   0.0000       0.059844         1.6284
  69   0.0000       0.110635         3.0105
  70   0.0000       0.117337         3.1929
  71   0.0000       0.124460         3.3867

MULLIKEN ATOMIC CHARGES
-----------------------
   0 S :    0.121611
   1 C :   -0.110924
   2 C :   -0.077618
   3 C :    0.066130
   4 C :   -0.194519
   5 H :    0.009416
   6 C :    0.083940
   7 H :   -0.000046
   8 H :    0.033339
   9 C :   -0.099008
  10 H :    0.035407
  11 H :    0.037941
  12 C :   -0.069281
  13 H :    0.023723
  14 H :    0.059705
  15 H :    0.039733
  16 S :    0.091694
  17 C :   -0.067531
  18 C :   -0.020786
  19 C :   -0.036761
  20 C :   -0.169784
  21 H :    0.000001
  22 C :    0.042707
  23 H :    0.014352
  24 H :    0.034071
  25 C :   -0.001766
  26 H :    0.020678
  27 H :    0.006444
  28 C :   -0.071974
  29 H :    0.025823
  30 H :    0.030988
  31 H :    0.040189
  32 H :    0.049588
  33 H :    0.052518
Sum of atomic charges:    0.0000000

LOEWDIN ATOMIC CHARGES
----------------------
   0 S :    0.409242
   1 C :   -0.210082
   2 C :   -0.058562
   3 C :   -0.046062
   4 C :   -0.191785
   5 H :    0.030574
   6 C :   -0.037078
   7 H :    0.021098
   8 H :    0.036404
   9 C :   -0.047118
  10 H :    0.022692
  11 H :    0.032800
  12 C :   -0.078664
  13 H :    0.032345
  14 H :    0.035111
  15 H :    0.026464
  16 S :    0.391452
  17 C :   -0.180514
  18 C :   -0.067107
  19 C :   -0.051717
  20 C :   -0.195814
  21 H :    0.022222
  22 C :   -0.032576
  23 H :    0.024924
  24 H :    0.040763
  25 C :   -0.032617
  26 H :    0.025155
  27 H :    0.012888
  28 C :   -0.065973
  29 H :    0.017249
  30 H :    0.027733
  31 H :    0.028386
  32 H :    0.028566
  33 H :    0.029600

  Mayer bond orders larger than 0.100000
B(  0-S ,  1-C ) :   1.1386 B(  0-S ,  4-C ) :   1.1337 B(  1-C ,  2-C ) :   1.6363
B(  1-C , 32-H ) :   0.9615 B(  2-C ,  3-C ) :   1.1590 B(  2-C ,  6-C ) :   1.0505
B(  3-C ,  4-C ) :   1.6196 B(  3-C ,  5-H ) :   0.9987 B(  4-C , 20-C ) :   1.0234
B(  6-C ,  7-H ) :   0.9355 B(  6-C ,  8-H ) :   0.9334 B(  6-C ,  9-C ) :   1.0685
B(  9-C , 10-H ) :   0.9575 B(  9-C , 11-H ) :   0.9580 B(  9-C , 12-C ) :   1.0600
B( 12-C , 13-H ) :   0.9706 B( 12-C , 14-H ) :   0.9709 B( 12-C , 15-H ) :   0.9764
B( 16-S , 17-C ) :   1.1444 B( 16-S , 20-C ) :   1.1276 B( 17-C , 18-C ) :   1.6365
B( 17-C , 33-H ) :   0.9668 B( 18-C , 19-C ) :   1.1977 B( 18-C , 21-H ) :   0.9959
B( 19-C , 20-C ) :   1.6146 B( 19-C , 22-C ) :   1.0847 B( 22-C , 23-H ) :   0.9351
B( 22-C , 24-H ) :   0.9293 B( 22-C , 25-C ) :   1.0441 B( 25-C , 26-H ) :   0.9554
B( 25-C , 27-H ) :   0.9541 B( 25-C , 28-C ) :   1.0852 B( 28-C , 29-H ) :   0.9732
B( 28-C , 30-H ) :   0.9754 B( 28-C , 31-H ) :   0.9710

Dispersion correction           -0.015657165
FINAL SINGLE POINT ENERGY     -1339.871999680478

DIPOLE MOMENT
-------------
                                X             Y             Z
Electronic contribution:     -5.02414     -23.33875     -11.48371
Nuclear contribution   :      5.28656      23.77028      11.56876
                        -----------------------------------------
Total Dipole Moment    :      0.26241       0.43153       0.08505
                        -----------------------------------------
Magnitude (a.u.)       :      0.51216
Magnitude (Debye)      :      1.30182

Rotational constants in cm-1:     0.019781     0.009382     0.007828
Rotational constants in MHz :   593.004804   281.266391   234.671171

                             ****ORCA TERMINATED NORMALLY****
TOTAL RUN TIME: 0 days 0 hours 0 minutes 32 seconds 512 msec
