                         Program Version 4.2.1 -  RELEASE  -
|  1> ! wB97X-D3 SP def2-SVP
|  2> %pal
|  3> nprocs 16
|  4> end
|  5>
|  6> * xyz 0 1
|  7> S 	 66.6984 	 26.1914 	 72.0628
|  8> C 	 67.9424 	 25.1694 	 71.3445
|  9> C 	 69.2055 	 25.4869 	 71.7228
| 10> C 	 69.2113 	 26.552 	 72.7318
| 11> C 	 67.9788 	 26.982 	 73.0913
| 12> H 	 70.0922 	 27.0952 	 73.0823
| 13> C 	 70.4788 	 24.6733 	 71.4231
| 14> H 	 70.1325 	 23.6478 	 71.2046
| 15> H 	 70.9415 	 24.4715 	 72.4057
| 16> C 	 71.3609 	 25.2941 	 70.3267
| 17> H 	 71.7383 	 26.2868 	 70.6287
| 18> H 	 72.1917 	 24.5874 	 70.2839
| 19> C 	 70.7069 	 25.4911 	 68.9303
| 20> H 	 69.8588 	 26.1942 	 68.9664
| 21> H 	 71.4198 	 25.8731 	 68.1899
| 22> H 	 70.4092 	 24.4765 	 68.5064
| 23> S 	 66.6045 	 29.4226 	 73.0347
| 24> C 	 66.3715 	 30.356 	 74.4402
| 25> C 	 67.2064 	 29.9187 	 75.4312
| 26> C 	 67.8771 	 28.6781 	 75.1271
| 27> C 	 67.6172 	 28.1957 	 73.8272
| 28> H 	 67.198 	 30.526 	 76.3466
| 29> C 	 68.7616 	 28.0361 	 76.153
| 30> H 	 68.9305 	 27.0918 	 75.6494
| 31> H 	 68.2354 	 27.7021 	 77.0723
| 32> C 	 70.1425 	 28.6598 	 76.5164
| 33> H 	 70.7301 	 27.8562 	 76.9586
| 34> H 	 70.0973 	 29.4184 	 77.2884
| 35> C 	 70.9466 	 29.1476 	 75.2169
| 36> H 	 70.6477 	 30.0938 	 74.7988
| 37> H 	 71.0129 	 28.3672 	 74.4289
| 38> H 	 71.9092 	 29.4861 	 75.5023
| 39> H 	 67.6356 	 24.2965 	 70.742
| 40> H 	 65.8465 	 31.1745 	 74.6205
| 41> *
| 42>
| 43>                          ****END OF INPUT****

CARTESIAN COORDINATES (ANGSTROEM)
---------------------------------
  S     66.698400   26.191400   72.062800
  C     67.942400   25.169400   71.344500
  C     69.205500   25.486900   71.722800
  C     69.211300   26.552000   72.731800
  C     67.978800   26.982000   73.091300
  H     70.092200   27.095200   73.082300
  C     70.478800   24.673300   71.423100
  H     70.132500   23.647800   71.204600
  H     70.941500   24.471500   72.405700
  C     71.360900   25.294100   70.326700
  H     71.738300   26.286800   70.628700
  H     72.191700   24.587400   70.283900
  C     70.706900   25.491100   68.930300
  H     69.858800   26.194200   68.966400
  H     71.419800   25.873100   68.189900
  H     70.409200   24.476500   68.506400
  S     66.604500   29.422600   73.034700
  C     66.371500   30.356000   74.440200
  C     67.206400   29.918700   75.431200
  C     67.877100   28.678100   75.127100
  C     67.617200   28.195700   73.827200
  H     67.198000   30.526000   76.346600
  C     68.761600   28.036100   76.153000
  H     68.930500   27.091800   75.649400
  H     68.235400   27.702100   77.072300
  C     70.142500   28.659800   76.516400
  H     70.730100   27.856200   76.958600
  H     70.097300   29.418400   77.288400
  C     70.946600   29.147600   75.216900
  H     70.647700   30.093800   74.798800
  H     71.012900   28.367200   74.428900
  H     71.909200   29.486100   75.502300
  H     67.635600   24.296500   70.742000
  H     65.846500   31.174500   74.620500

 Total Charge           Charge          ....    0
 Multiplicity           Mult            ....    1
 Number of Electrons    NEL             ....  134
 Basis Dimension        Dim             ....  322

ORBITAL ENERGIES
----------------

  NO   OCC          E(Eh)            E(eV)
   0   2.0000     -88.963229     -2420.8125
   1   2.0000     -88.961612     -2420.7685
   2   2.0000     -10.335518      -281.2437
   3   2.0000     -10.331071      -281.1227
   4   2.0000     -10.318693      -280.7859
   5   2.0000     -10.304232      -280.3924
   6   2.0000     -10.304065      -280.3879
   7   2.0000     -10.300907      -280.3019
   8   2.0000     -10.300607      -280.2938
   9   2.0000     -10.299829      -280.2726
  10   2.0000     -10.294739      -280.1341
  11   2.0000     -10.294612      -280.1306
  12   2.0000     -10.287427      -279.9351
  13   2.0000     -10.287410      -279.9347
  14   2.0000     -10.286582      -279.9121
  15   2.0000     -10.279301      -279.7140
  16   2.0000      -8.077198      -219.7917
  17   2.0000      -8.076618      -219.7759
  18   2.0000      -6.035845      -164.2437
  19   2.0000      -6.035217      -164.2266
  20   2.0000      -6.032025      -164.1398
  21   2.0000      -6.030965      -164.1109
  22   2.0000      -6.027619      -164.0198
  23   2.0000      -6.027354      -164.0126
  24   2.0000      -1.002632       -27.2830
  25   2.0000      -0.981636       -26.7117
  26   2.0000      -0.906843       -24.6764
  27   2.0000      -0.901051       -24.5188
  28   2.0000      -0.869861       -23.6701
  29   2.0000      -0.843749       -22.9596
  30   2.0000      -0.838680       -22.8217
  31   2.0000      -0.818712       -22.2783
  32   2.0000      -0.782204       -21.2849
  33   2.0000      -0.775087       -21.0912
  34   2.0000      -0.714158       -19.4332
  35   2.0000      -0.702122       -19.1057
  36   2.0000      -0.694825       -18.9072
  37   2.0000      -0.652386       -17.7523
  38   2.0000      -0.643276       -17.5044
  39   2.0000      -0.620686       -16.8897
  40   2.0000      -0.587984       -15.9999
  41   2.0000      -0.570856       -15.5338
  42   2.0000      -0.553889       -15.0721
  43   2.0000      -0.546424       -14.8689
  44   2.0000      -0.541301       -14.7295
  45   2.0000      -0.531789       -14.4707
  46   2.0000      -0.519711       -14.1420
  47   2.0000      -0.510844       -13.9008
  48   2.0000      -0.507668       -13.8143
  49   2.0000      -0.490798       -13.3553
  50   2.0000      -0.487888       -13.2761
  51   2.0000      -0.475804       -12.9473
  52   2.0000      -0.467255       -12.7147
  53   2.0000      -0.461404       -12.5554
  54   2.0000      -0.457052       -12.4370
  55   2.0000      -0.447839       -12.1863
  56   2.0000      -0.443493       -12.0681
  57   2.0000      -0.439410       -11.9569
  58   2.0000      -0.431316       -11.7367
  59   2.0000      -0.419072       -11.4035
  60   2.0000      -0.417234       -11.3535
  61   2.0000      -0.410391       -11.1673
  62   2.0000      -0.408790       -11.1237
  63   2.0000      -0.353675        -9.6240
  64   2.0000      -0.329781        -8.9738
  65   2.0000      -0.322664        -8.7801
  66   2.0000      -0.296522        -8.0688
  67   0.0000       0.029629         0.8062
  68   0.0000       0.067414         1.8344
  69   0.0000       0.108255         2.9458
  70   0.0000       0.117828         3.2063
  71   0.0000       0.129662         3.5283

MULLIKEN ATOMIC CHARGES
-----------------------
   0 S :    0.084371
   1 C :   -0.131398
   2 C :   -0.086592
   3 C :    0.040846
   4 C :   -0.137377
   5 H :    0.010643
   6 C :    0.036216
   7 H :    0.018150
   8 H :    0.037893
   9 C :   -0.050322
  10 H :    0.034128
  11 H :    0.032759
  12 C :   -0.079147
  13 H :    0.054839
  14 H :    0.040303
  15 H :    0.032482
  16 S :    0.105653
  17 C :   -0.016709
  18 C :   -0.057596
  19 C :   -0.042235
  20 C :   -0.150598
  21 H :    0.023179
  22 C :    0.055242
  23 H :    0.005042
  24 H :    0.038795
  25 C :   -0.051078
  26 H :    0.032432
  27 H :    0.029853
  28 C :   -0.043049
  29 H :    0.031292
  30 H :    0.033523
  31 H :    0.011715
  32 H :    0.064127
  33 H :   -0.007382
Sum of atomic charges:   -0.0000000

LOEWDIN ATOMIC CHARGES
----------------------
   0 S :    0.360023
   1 C :   -0.181187
   2 C :   -0.069736
   3 C :   -0.051672
   4 C :   -0.169329
   5 H :    0.032389
   6 C :   -0.035691
   7 H :    0.030463
   8 H :    0.036696
   9 C :   -0.040901
  10 H :    0.025949
  11 H :    0.025747
  12 C :   -0.071187
  13 H :    0.029698
  14 H :    0.028655
  15 H :    0.028874
  16 S :    0.413044
  17 C :   -0.179389
  18 C :   -0.074784
  19 C :   -0.057704
  20 C :   -0.195089
  21 H :    0.034517
  22 C :   -0.045250
  23 H :    0.028017
  24 H :    0.036162
  25 C :   -0.029497
  26 H :    0.028030
  27 H :    0.020343
  28 C :   -0.068544
  29 H :    0.027231
  30 H :    0.024737
  31 H :    0.021220
  32 H :    0.033798
  33 H :    0.004368

  Mayer bond orders larger than 0.100000
B(  0-S ,  1-C ) :   1.1233 B(  0-S ,  4-C ) :   1.1072 B(  1-C ,  2-C ) :   1.6644
B(  1-C , 32-H ) :   0.9595 B(  2-C ,  3-C ) :   1.1929 B(  2-C ,  6-C ) :   1.0029
B(  3-C ,  4-C ) :   1.6364 B(  3-C ,  5-H ) :   0.9830 B(  4-C , 20-C ) :   1.0377
B(  6-C ,  7-H ) :   0.9475 B(  6-C ,  8-H ) :   0.9506 B(  6-C ,  9-C ) :   1.0535
B(  9-C , 10-H ) :   0.9586 B(  9-C , 11-H ) :   0.9559 B(  9-C , 12-C ) :   1.0748
B( 12-C , 13-H ) :   0.9728 B( 12-C , 14-H ) :   0.9744 B( 12-C , 15-H ) :   0.9754
B( 16-S , 17-C ) :   1.1541 B( 16-S , 20-C ) :   1.1362 B( 17-C , 18-C ) :   1.6209
B( 17-C , 33-H ) :   0.9773 B( 18-C , 19-C ) :   1.2287 B( 18-C , 21-H ) :   0.9912
B( 19-C , 20-C ) :   1.5784 B( 19-C , 22-C ) :   1.0585 B( 22-C , 23-H ) :   0.9250
B( 22-C , 24-H ) :   0.9366 B( 22-C , 25-C ) :   1.0648 B( 25-C , 26-H ) :   0.9575
B( 25-C , 27-H ) :   0.9584 B( 25-C , 28-C ) :   1.0704 B( 28-C , 29-H ) :   0.9694
B( 28-C , 30-H ) :   0.9772 B( 28-C , 31-H ) :   0.9665

Dispersion correction           -0.014954271
FINAL SINGLE POINT ENERGY     -1339.862802901141

DIPOLE MOMENT
-------------
                                X             Y             Z
Electronic contribution:    -24.55568       4.86170      -0.64089
Nuclear contribution   :     25.23271      -4.96787       0.84284
                        -----------------------------------------
Total Dipole Moment    :      0.67704      -0.10618       0.20195
                        -----------------------------------------
Magnitude (a.u.)       :      0.71445
Magnitude (Debye)      :      1.81598

Rotational constants in cm-1:     0.020032     0.008608     0.006948
Rotational constants in MHz :   600.541555   258.070412   208.304444

                             ****ORCA TERMINATED NORMALLY****
TOTAL RUN TIME: 0 days 0 hours 0 minutes 30 seconds 507 msec
