                         Program Version 4.2.1 -  RELEASE  -
|  1> ! wB97X-D3 SP def2-SVP
|  2> %pal
|  3> nprocs 16
|  4> end
|  5>
|  6> * xyz 0 1
|  7> S 	 -79.751 	 42.6596 	 141.254
|  8> C 	 -79.2534 	 41.0957 	 141.656
|  9> C 	 -78.6711 	 40.4336 	 140.608
| 10> C 	 -78.2799 	 41.3471 	 139.552
| 11> C 	 -78.9719 	 42.5317 	 139.727
| 12> H 	 -77.5902 	 41.2152 	 138.712
| 13> C 	 -78.2281 	 38.9814 	 140.81
| 14> H 	 -78.3059 	 38.6219 	 141.846
| 15> H 	 -77.187 	 38.8076 	 140.473
| 16> C 	 -78.992 	 37.9931 	 139.872
| 17> H 	 -79.044 	 38.54 	 138.908
| 18> H 	 -78.5949 	 36.9953 	 139.693
| 19> C 	 -80.349 	 37.7161 	 140.491
| 20> H 	 -80.9824 	 37.2433 	 139.767
| 21> H 	 -80.2781 	 37.1919 	 141.485
| 22> H 	 -80.8311 	 38.6831 	 140.814
| 23> S 	 -77.6421 	 44.76 	 139.254
| 24> C 	 -77.4377 	 45.3064 	 137.639
| 25> C 	 -78.4131 	 44.7408 	 136.824
| 26> C 	 -79.0074 	 43.606 	 137.355
| 27> C 	 -78.7454 	 43.5622 	 138.728
| 28> H 	 -78.5768 	 45.1173 	 135.829
| 29> C 	 -79.8997 	 42.6927 	 136.496
| 30> H 	 -79.2637 	 41.8111 	 135.976
| 31> H 	 -80.1639 	 43.3519 	 135.643
| 32> C 	 -81.1225 	 42.0517 	 137.168
| 33> H 	 -80.7318 	 41.5404 	 138.085
| 34> H 	 -81.4914 	 41.1784 	 136.573
| 35> C 	 -82.1372 	 43.1758 	 137.379
| 36> H 	 -83.1112 	 42.8603 	 137.807
| 37> H 	 -82.4429 	 43.6648 	 136.466
| 38> H 	 -81.6152 	 43.8354 	 138.11
| 39> H 	 -79.4725 	 40.6309 	 142.518
| 40> H 	 -76.9612 	 46.2374 	 137.268
| 41> *
| 42>
| 43>                          ****END OF INPUT****

CARTESIAN COORDINATES (ANGSTROEM)
---------------------------------
  S    -79.751000   42.659600  141.254000
  C    -79.253400   41.095700  141.656000
  C    -78.671100   40.433600  140.608000
  C    -78.279900   41.347100  139.552000
  C    -78.971900   42.531700  139.727000
  H    -77.590200   41.215200  138.712000
  C    -78.228100   38.981400  140.810000
  H    -78.305900   38.621900  141.846000
  H    -77.187000   38.807600  140.473000
  C    -78.992000   37.993100  139.872000
  H    -79.044000   38.540000  138.908000
  H    -78.594900   36.995300  139.693000
  C    -80.349000   37.716100  140.491000
  H    -80.982400   37.243300  139.767000
  H    -80.278100   37.191900  141.485000
  H    -80.831100   38.683100  140.814000
  S    -77.642100   44.760000  139.254000
  C    -77.437700   45.306400  137.639000
  C    -78.413100   44.740800  136.824000
  C    -79.007400   43.606000  137.355000
  C    -78.745400   43.562200  138.728000
  H    -78.576800   45.117300  135.829000
  C    -79.899700   42.692700  136.496000
  H    -79.263700   41.811100  135.976000
  H    -80.163900   43.351900  135.643000
  C    -81.122500   42.051700  137.168000
  H    -80.731800   41.540400  138.085000
  H    -81.491400   41.178400  136.573000
  C    -82.137200   43.175800  137.379000
  H    -83.111200   42.860300  137.807000
  H    -82.442900   43.664800  136.466000
  H    -81.615200   43.835400  138.110000
  H    -79.472500   40.630900  142.518000
  H    -76.961200   46.237400  137.268000

 Total Charge           Charge          ....    0
 Multiplicity           Mult            ....    1
 Number of Electrons    NEL             ....  134
 Basis Dimension        Dim             ....  322

ORBITAL ENERGIES
----------------

  NO   OCC          E(Eh)            E(eV)
   0   2.0000     -88.970863     -2421.0203
   1   2.0000     -88.967544     -2420.9299
   2   2.0000     -10.323667      -280.9213
   3   2.0000     -10.320817      -280.8437
   4   2.0000     -10.313347      -280.6404
   5   2.0000     -10.305596      -280.4295
   6   2.0000     -10.303957      -280.3849
   7   2.0000     -10.302476      -280.3446
   8   2.0000     -10.301583      -280.3203
   9   2.0000     -10.298158      -280.2271
  10   2.0000     -10.295243      -280.1478
  11   2.0000     -10.288015      -279.9511
  12   2.0000     -10.287470      -279.9363
  13   2.0000     -10.285399      -279.8799
  14   2.0000     -10.275980      -279.6236
  15   2.0000     -10.275943      -279.6226
  16   2.0000      -8.087025      -220.0591
  17   2.0000      -8.083349      -219.9591
  18   2.0000      -6.045329      -164.5018
  19   2.0000      -6.041635      -164.4013
  20   2.0000      -6.041374      -164.3942
  21   2.0000      -6.037887      -164.2993
  22   2.0000      -6.037705      -164.2943
  23   2.0000      -6.034265      -164.2007
  24   2.0000      -1.020091       -27.7581
  25   2.0000      -0.996439       -27.1145
  26   2.0000      -0.910977       -24.7890
  27   2.0000      -0.907066       -24.6825
  28   2.0000      -0.876603       -23.8536
  29   2.0000      -0.852972       -23.2105
  30   2.0000      -0.848106       -23.0781
  31   2.0000      -0.809712       -22.0334
  32   2.0000      -0.776099       -21.1187
  33   2.0000      -0.768738       -20.9184
  34   2.0000      -0.710839       -19.3429
  35   2.0000      -0.692758       -18.8509
  36   2.0000      -0.685093       -18.6423
  37   2.0000      -0.661222       -17.9928
  38   2.0000      -0.650080       -17.6896
  39   2.0000      -0.615511       -16.7489
  40   2.0000      -0.589723       -16.0472
  41   2.0000      -0.571656       -15.5555
  42   2.0000      -0.551737       -15.0135
  43   2.0000      -0.549115       -14.9422
  44   2.0000      -0.542627       -14.7656
  45   2.0000      -0.535097       -14.5607
  46   2.0000      -0.518702       -14.1146
  47   2.0000      -0.511740       -13.9252
  48   2.0000      -0.502930       -13.6854
  49   2.0000      -0.493794       -13.4368
  50   2.0000      -0.488732       -13.2991
  51   2.0000      -0.474315       -12.9068
  52   2.0000      -0.470602       -12.8057
  53   2.0000      -0.468458       -12.7474
  54   2.0000      -0.461503       -12.5581
  55   2.0000      -0.448295       -12.1987
  56   2.0000      -0.445289       -12.1169
  57   2.0000      -0.432731       -11.7752
  58   2.0000      -0.429308       -11.6821
  59   2.0000      -0.423780       -11.5316
  60   2.0000      -0.422281       -11.4909
  61   2.0000      -0.412382       -11.2215
  62   2.0000      -0.406303       -11.0561
  63   2.0000      -0.342318        -9.3149
  64   2.0000      -0.329446        -8.9647
  65   2.0000      -0.322978        -8.7887
  66   2.0000      -0.300621        -8.1803
  67   0.0000       0.036708         0.9989
  68   0.0000       0.065383         1.7792
  69   0.0000       0.112955         3.0737
  70   0.0000       0.116438         3.1684
  71   0.0000       0.127359         3.4656

MULLIKEN ATOMIC CHARGES
-----------------------
   0 S :    0.136104
   1 C :   -0.065649
   2 C :   -0.055063
   3 C :    0.013534
   4 C :   -0.164253
   5 H :    0.037407
   6 C :    0.037180
   7 H :    0.023873
   8 H :    0.032616
   9 C :   -0.080425
  10 H :    0.032329
  11 H :    0.034243
  12 C :   -0.073795
  13 H :    0.036307
  14 H :    0.032970
  15 H :    0.026201
  16 S :    0.138737
  17 C :   -0.100423
  18 C :   -0.050455
  19 C :   -0.029964
  20 C :   -0.198072
  21 H :    0.013176
  22 C :    0.007817
  23 H :    0.054764
  24 H :    0.019815
  25 C :   -0.062870
  26 H :    0.051495
  27 H :    0.027735
  28 C :   -0.049118
  29 H :    0.032874
  30 H :    0.028030
  31 H :    0.047777
  32 H :   -0.000054
  33 H :    0.065159
Sum of atomic charges:   -0.0000000

LOEWDIN ATOMIC CHARGES
----------------------
   0 S :    0.441604
   1 C :   -0.194467
   2 C :   -0.056624
   3 C :   -0.052321
   4 C :   -0.220018
   5 H :    0.039795
   6 C :   -0.031118
   7 H :    0.026372
   8 H :    0.033206
   9 C :   -0.046325
  10 H :    0.025653
  11 H :    0.022818
  12 C :   -0.075651
  13 H :    0.020466
  14 H :    0.028486
  15 H :    0.025219
  16 S :    0.451045
  17 C :   -0.213498
  18 C :   -0.068398
  19 C :   -0.062358
  20 C :   -0.213876
  21 H :    0.027384
  22 C :   -0.037694
  23 H :    0.045028
  24 H :    0.028764
  25 C :   -0.053709
  26 H :    0.032677
  27 H :    0.025180
  28 C :   -0.068606
  29 H :    0.025432
  30 H :    0.022530
  31 H :    0.033691
  32 H :    0.002760
  33 H :    0.036555

  Mayer bond orders larger than 0.100000
B(  0-S ,  1-C ) :   1.1427 B(  0-S ,  4-C ) :   1.1575 B(  1-C ,  2-C ) :   1.6089
B(  1-C , 32-H ) :   0.9806 B(  2-C ,  3-C ) :   1.2072 B(  2-C ,  6-C ) :   1.0317
B(  3-C ,  4-C ) :   1.5725 B(  3-C ,  5-H ) :   0.9936 B(  4-C , 20-C ) :   1.0095
B(  6-C ,  7-H ) :   0.9552 B(  6-C ,  8-H ) :   0.9434 B(  6-C ,  9-C ) :   1.0454
B(  9-C , 10-H ) :   0.9565 B(  9-C , 11-H ) :   0.9603 B(  9-C , 12-C ) :   1.0733
B( 12-C , 13-H ) :   0.9733 B( 12-C , 14-H ) :   0.9721 B( 12-C , 15-H ) :   0.9751
B( 16-S , 17-C ) :   1.1752 B( 16-S , 20-C ) :   1.1847 B( 17-C , 18-C ) :   1.5890
B( 17-C , 20-C ) :   0.1093 B( 17-C , 33-H ) :   0.9569 B( 18-C , 19-C ) :   1.2819
B( 18-C , 21-H ) :   0.9806 B( 19-C , 20-C ) :   1.5588 B( 19-C , 22-C ) :   1.0232
B( 22-C , 23-H ) :   0.9297 B( 22-C , 24-H ) :   0.9397 B( 22-C , 25-C ) :   1.0659
B( 25-C , 26-H ) :   0.9490 B( 25-C , 27-H ) :   0.9511 B( 25-C , 28-C ) :   1.0620
B( 28-C , 29-H ) :   0.9751 B( 28-C , 30-H ) :   0.9754 B( 28-C , 31-H ) :   0.9738

Dispersion correction           -0.015738978
FINAL SINGLE POINT ENERGY     -1339.851362555152

DIPOLE MOMENT
-------------
                                X             Y             Z
Electronic contribution:     11.25570      20.98186       9.04832
Nuclear contribution   :    -11.24003     -21.31457      -9.35421
                        -----------------------------------------
Total Dipole Moment    :      0.01567      -0.33271      -0.30589
                        -----------------------------------------
Magnitude (a.u.)       :      0.45223
Magnitude (Debye)      :      1.14947

Rotational constants in cm-1:     0.020623     0.009369     0.007984
Rotational constants in MHz :   618.249360   280.872915   239.359189

                             ****ORCA TERMINATED NORMALLY****
TOTAL RUN TIME: 0 days 0 hours 0 minutes 37 seconds 539 msec
