                         Program Version 4.2.1 -  RELEASE  -
|  1> ! wB97X-D3 SP def2-SVP
|  2> %pal
|  3> nprocs 16
|  4> end
|  5>
|  6> * xyz 0 1
|  7> S 	 -103.83 	 47.4846 	 119.124
|  8> C 	 -104.137 	 48.7594 	 120.256
|  9> C 	 -103.9 	 48.396 	 121.573
| 10> C 	 -103.381 	 47.0603 	 121.646
| 11> C 	 -103.307 	 46.4334 	 120.405
| 12> H 	 -103.095 	 46.4527 	 122.537
| 13> C 	 -104.233 	 49.311 	 122.784
| 14> H 	 -105.231 	 49.0424 	 123.145
| 15> H 	 -104.402 	 50.3437 	 122.46
| 16> C 	 -103.197 	 49.3385 	 123.921
| 17> H 	 -103.627 	 49.6753 	 124.88
| 18> H 	 -102.697 	 48.3722 	 124.153
| 19> C 	 -102.067 	 50.3115 	 123.606
| 20> H 	 -101.203 	 50.3172 	 124.227
| 21> H 	 -101.664 	 50.0719 	 122.62
| 22> H 	 -102.423 	 51.2716 	 123.499
| 23> S 	 -104.108 	 43.902 	 119.589
| 24> C 	 -102.988 	 42.659 	 119.821
| 25> C 	 -101.795 	 43.0187 	 120.328
| 26> C 	 -101.731 	 44.4015 	 120.532
| 27> C 	 -102.944 	 45.0648 	 120.163
| 28> H 	 -100.923 	 42.3576 	 120.458
| 29> C 	 -100.48 	 45.1033 	 121.145
| 30> H 	 -100.562 	 44.9987 	 122.185
| 31> H 	 -100.483 	 46.1421 	 120.806
| 32> C 	 -99.1212 	 44.5952 	 120.588
| 33> H 	 -99.1153 	 44.556 	 119.491
| 34> H 	 -99.0655 	 43.557 	 120.787
| 35> C 	 -97.9125 	 45.3758 	 121.07
| 36> H 	 -97.7028 	 45.0041 	 122.064
| 37> H 	 -97.9721 	 46.4775 	 121.081
| 38> H 	 -97.0773 	 45.1456 	 120.443
| 39> H 	 -104.529 	 49.7179 	 119.894
| 40> H 	 -103.198 	 41.6493 	 119.643
| 41> *
| 42>
| 43>                          ****END OF INPUT****

CARTESIAN COORDINATES (ANGSTROEM)
---------------------------------
  S    -103.830000   47.484600  119.124000
  C    -104.137000   48.759400  120.256000
  C    -103.900000   48.396000  121.573000
  C    -103.381000   47.060300  121.646000
  C    -103.307000   46.433400  120.405000
  H    -103.095000   46.452700  122.537000
  C    -104.233000   49.311000  122.784000
  H    -105.231000   49.042400  123.145000
  H    -104.402000   50.343700  122.460000
  C    -103.197000   49.338500  123.921000
  H    -103.627000   49.675300  124.880000
  H    -102.697000   48.372200  124.153000
  C    -102.067000   50.311500  123.606000
  H    -101.203000   50.317200  124.227000
  H    -101.664000   50.071900  122.620000
  H    -102.423000   51.271600  123.499000
  S    -104.108000   43.902000  119.589000
  C    -102.988000   42.659000  119.821000
  C    -101.795000   43.018700  120.328000
  C    -101.731000   44.401500  120.532000
  C    -102.944000   45.064800  120.163000
  H    -100.923000   42.357600  120.458000
  C    -100.480000   45.103300  121.145000
  H    -100.562000   44.998700  122.185000
  H    -100.483000   46.142100  120.806000
  C    -99.121200   44.595200  120.588000
  H    -99.115300   44.556000  119.491000
  H    -99.065500   43.557000  120.787000
  C    -97.912500   45.375800  121.070000
  H    -97.702800   45.004100  122.064000
  H    -97.972100   46.477500  121.081000
  H    -97.077300   45.145600  120.443000
  H    -104.529000   49.717900  119.894000
  H    -103.198000   41.649300  119.643000

 Total Charge           Charge          ....    0
 Multiplicity           Mult            ....    1
 Number of Electrons    NEL             ....  134
 Basis Dimension        Dim             ....  322

ORBITAL ENERGIES
----------------

  NO   OCC          E(Eh)            E(eV)
   0   2.0000     -88.967377     -2420.9254
   1   2.0000     -88.964104     -2420.8363
   2   2.0000     -10.323308      -280.9115
   3   2.0000     -10.320691      -280.8403
   4   2.0000     -10.313376      -280.6412
   5   2.0000     -10.306716      -280.4600
   6   2.0000     -10.304915      -280.4110
   7   2.0000     -10.301738      -280.3246
   8   2.0000     -10.298760      -280.2435
   9   2.0000     -10.297630      -280.2128
  10   2.0000     -10.289750      -279.9983
  11   2.0000     -10.287811      -279.9456
  12   2.0000     -10.286361      -279.9061
  13   2.0000     -10.282101      -279.7902
  14   2.0000     -10.275894      -279.6213
  15   2.0000     -10.263207      -279.2761
  16   2.0000      -8.083313      -219.9581
  17   2.0000      -8.079567      -219.8562
  18   2.0000      -6.041595      -164.4002
  19   2.0000      -6.037901      -164.2996
  20   2.0000      -6.037630      -164.2923
  21   2.0000      -6.034277      -164.2010
  22   2.0000      -6.033955      -164.1923
  23   2.0000      -6.030500      -164.0982
  24   2.0000      -1.010104       -27.4863
  25   2.0000      -0.987877       -26.8815
  26   2.0000      -0.909254       -24.7421
  27   2.0000      -0.907163       -24.6852
  28   2.0000      -0.871302       -23.7093
  29   2.0000      -0.854305       -23.2468
  30   2.0000      -0.845818       -23.0159
  31   2.0000      -0.812396       -22.1064
  32   2.0000      -0.785757       -21.3815
  33   2.0000      -0.770531       -20.9672
  34   2.0000      -0.708923       -19.2908
  35   2.0000      -0.702512       -19.1163
  36   2.0000      -0.690340       -18.7851
  37   2.0000      -0.650485       -17.7006
  38   2.0000      -0.643023       -17.4975
  39   2.0000      -0.617726       -16.8092
  40   2.0000      -0.601469       -16.3668
  41   2.0000      -0.569276       -15.4908
  42   2.0000      -0.565337       -15.3836
  43   2.0000      -0.553642       -15.0654
  44   2.0000      -0.534663       -14.5489
  45   2.0000      -0.526243       -14.3198
  46   2.0000      -0.515248       -14.0206
  47   2.0000      -0.510974       -13.9043
  48   2.0000      -0.500736       -13.6257
  49   2.0000      -0.492071       -13.3899
  50   2.0000      -0.488344       -13.2885
  51   2.0000      -0.480475       -13.0744
  52   2.0000      -0.474051       -12.8996
  53   2.0000      -0.469962       -12.7883
  54   2.0000      -0.460307       -12.5256
  55   2.0000      -0.456099       -12.4111
  56   2.0000      -0.443379       -12.0650
  57   2.0000      -0.441274       -12.0077
  58   2.0000      -0.429722       -11.6933
  59   2.0000      -0.427851       -11.6424
  60   2.0000      -0.424627       -11.5547
  61   2.0000      -0.413720       -11.2579
  62   2.0000      -0.407950       -11.1009
  63   2.0000      -0.344598        -9.3770
  64   2.0000      -0.331498        -9.0205
  65   2.0000      -0.329882        -8.9765
  66   2.0000      -0.291776        -7.9396
  67   0.0000       0.037673         1.0251
  68   0.0000       0.069269         1.8849
  69   0.0000       0.126381         3.4390
  70   0.0000       0.128914         3.5079
  71   0.0000       0.132435         3.6037

MULLIKEN ATOMIC CHARGES
-----------------------
   0 S :    0.116548
   1 C :   -0.138160
   2 C :   -0.068748
   3 C :    0.022284
   4 C :   -0.197730
   5 H :    0.032270
   6 C :    0.076567
   7 H :    0.042272
   8 H :    0.013587
   9 C :   -0.081168
  10 H :    0.028797
  11 H :    0.035545
  12 C :   -0.019346
  13 H :    0.026074
  14 H :    0.018199
  15 H :    0.004255
  16 S :    0.137053
  17 C :   -0.053658
  18 C :   -0.050234
  19 C :   -0.055263
  20 C :   -0.172461
  21 H :    0.027492
  22 C :    0.104606
  23 H :    0.030920
  24 H :    0.036478
  25 C :   -0.109666
  26 H :    0.026642
  27 H :    0.009731
  28 C :   -0.016439
  29 H :    0.026393
  30 H :    0.038205
  31 H :    0.026277
  32 H :    0.053986
  33 H :    0.028691
Sum of atomic charges:    0.0000000

LOEWDIN ATOMIC CHARGES
----------------------
   0 S :    0.417276
   1 C :   -0.205032
   2 C :   -0.062831
   3 C :   -0.063302
   4 C :   -0.205537
   5 H :    0.040352
   6 C :   -0.026922
   7 H :    0.035394
   8 H :    0.030532
   9 C :   -0.043628
  10 H :    0.025598
  11 H :    0.026569
  12 C :   -0.060985
  13 H :    0.021365
  14 H :    0.026626
  15 H :    0.010850
  16 S :    0.443312
  17 C :   -0.190878
  18 C :   -0.082558
  19 C :   -0.044960
  20 C :   -0.223162
  21 H :    0.037559
  22 C :   -0.022011
  23 H :    0.023097
  24 H :    0.034410
  25 C :   -0.043912
  26 H :    0.025598
  27 H :    0.012198
  28 C :   -0.061198
  29 H :    0.025247
  30 H :    0.029450
  31 H :    0.025576
  32 H :    0.028218
  33 H :    0.017693

  Mayer bond orders larger than 0.100000
B(  0-S ,  1-C ) :   1.1509 B(  0-S ,  4-C ) :   1.1624 B(  1-C ,  2-C ) :   1.6007
B(  1-C , 32-H ) :   0.9677 B(  2-C ,  3-C ) :   1.2380 B(  2-C ,  6-C ) :   1.0120
B(  3-C ,  4-C ) :   1.5774 B(  3-C ,  5-H ) :   0.9865 B(  4-C , 20-C ) :   1.0406
B(  6-C ,  7-H ) :   0.9397 B(  6-C ,  8-H ) :   0.9457 B(  6-C ,  9-C ) :   1.0563
B(  9-C , 10-H ) :   0.9564 B(  9-C , 11-H ) :   0.9615 B(  9-C , 12-C ) :   1.0744
B( 12-C , 13-H ) :   0.9747 B( 12-C , 14-H ) :   0.9740 B( 12-C , 15-H ) :   0.9728
B( 16-S , 17-C ) :   1.1830 B( 16-S , 20-C ) :   1.1578 B( 17-C , 18-C ) :   1.5815
B( 17-C , 33-H ) :   0.9657 B( 18-C , 19-C ) :   1.2905 B( 18-C , 21-H ) :   0.9861
B( 19-C , 20-C ) :   1.5617 B( 19-C , 22-C ) :   1.0236 B( 22-C , 23-H ) :   0.9376
B( 22-C , 24-H ) :   0.9375 B( 22-C , 25-C ) :   1.0598 B( 25-C , 26-H ) :   0.9618
B( 25-C , 27-H ) :   0.9488 B( 25-C , 28-C ) :   1.0887 B( 28-C , 29-H ) :   0.9741
B( 28-C , 30-H ) :   0.9755 B( 28-C , 31-H ) :   0.9725

Dispersion correction           -0.013899384
FINAL SINGLE POINT ENERGY     -1339.884658408133

DIPOLE MOMENT
-------------
                                X             Y             Z
Electronic contribution:    -20.45852     -11.52864     -17.88052
Nuclear contribution   :     20.77758      11.56510      18.33087
                        -----------------------------------------
Total Dipole Moment    :      0.31907       0.03646       0.45035
                        -----------------------------------------
Magnitude (a.u.)       :      0.55313
Magnitude (Debye)      :      1.40593

Rotational constants in cm-1:     0.016258     0.009083     0.006752
Rotational constants in MHz :   487.412446   272.291425   202.429255

                             ****ORCA TERMINATED NORMALLY****
TOTAL RUN TIME: 0 days 0 hours 0 minutes 32 seconds 706 msec
