                         Program Version 4.2.1 -  RELEASE  -
|  1> ! wB97X-D3 SP def2-SVP
|  2> %pal
|  3> nprocs 16
|  4> end
|  5>
|  6> * xyz 0 1
|  7> S 	 -95.5058 	 60.0655 	 129.694
|  8> C 	 -95.3398 	 59.4127 	 131.322
|  9> C 	 -94.0899 	 59.7227 	 131.842
| 10> C 	 -93.1929 	 60.2014 	 130.81
| 11> C 	 -93.7859 	 60.399 	 129.565
| 12> H 	 -92.1674 	 60.5157 	 131.025
| 13> C 	 -93.6583 	 59.4487 	 133.309
| 14> H 	 -94.3534 	 58.8306 	 133.898
| 15> H 	 -93.6777 	 60.4096 	 133.829
| 16> C 	 -92.2107 	 58.817 	 133.424
| 17> H 	 -92.2485 	 57.8781 	 132.765
| 18> H 	 -91.4199 	 59.4519 	 132.89
| 19> C 	 -91.648 	 58.2918 	 134.779
| 20> H 	 -91.4491 	 59.1823 	 135.362
| 21> H 	 -92.3069 	 57.5554 	 135.225
| 22> H 	 -90.7421 	 57.7787 	 134.549
| 23> S 	 -94.172 	 61.5545 	 127.084
| 24> C 	 -92.7974 	 62.1515 	 126.156
| 25> C 	 -91.6734 	 61.8991 	 126.82
| 26> C 	 -91.8575 	 61.0785 	 127.975
| 27> C 	 -93.1964 	 61.0055 	 128.382
| 28> H 	 -90.6733 	 62.2382 	 126.44
| 29> C 	 -90.6675 	 60.5186 	 128.67
| 30> H 	 -91.0031 	 59.7541 	 129.396
| 31> H 	 -90.1553 	 61.278 	 129.19
| 32> C 	 -89.6894 	 59.9072 	 127.714
| 33> H 	 -89.1543 	 60.6924 	 127.168
| 34> H 	 -90.1349 	 59.316 	 126.995
| 35> C 	 -88.6886 	 58.9735 	 128.403
| 36> H 	 -89.0456 	 58.1684 	 129.086
| 37> H 	 -88.0043 	 59.5369 	 129.095
| 38> H 	 -88.0418 	 58.5105 	 127.701
| 39> H 	 -96.1713 	 59.0357 	 131.988
| 40> H 	 -92.8906 	 62.8421 	 125.301
| 41> *
| 42>
| 43>                          ****END OF INPUT****

CARTESIAN COORDINATES (ANGSTROEM)
---------------------------------
  S    -95.505800   60.065500  129.694000
  C    -95.339800   59.412700  131.322000
  C    -94.089900   59.722700  131.842000
  C    -93.192900   60.201400  130.810000
  C    -93.785900   60.399000  129.565000
  H    -92.167400   60.515700  131.025000
  C    -93.658300   59.448700  133.309000
  H    -94.353400   58.830600  133.898000
  H    -93.677700   60.409600  133.829000
  C    -92.210700   58.817000  133.424000
  H    -92.248500   57.878100  132.765000
  H    -91.419900   59.451900  132.890000
  C    -91.648000   58.291800  134.779000
  H    -91.449100   59.182300  135.362000
  H    -92.306900   57.555400  135.225000
  H    -90.742100   57.778700  134.549000
  S    -94.172000   61.554500  127.084000
  C    -92.797400   62.151500  126.156000
  C    -91.673400   61.899100  126.820000
  C    -91.857500   61.078500  127.975000
  C    -93.196400   61.005500  128.382000
  H    -90.673300   62.238200  126.440000
  C    -90.667500   60.518600  128.670000
  H    -91.003100   59.754100  129.396000
  H    -90.155300   61.278000  129.190000
  C    -89.689400   59.907200  127.714000
  H    -89.154300   60.692400  127.168000
  H    -90.134900   59.316000  126.995000
  C    -88.688600   58.973500  128.403000
  H    -89.045600   58.168400  129.086000
  H    -88.004300   59.536900  129.095000
  H    -88.041800   58.510500  127.701000
  H    -96.171300   59.035700  131.988000
  H    -92.890600   62.842100  125.301000

 Total Charge           Charge          ....    0
 Multiplicity           Mult            ....    1
 Number of Electrons    NEL             ....  134
 Basis Dimension        Dim             ....  322

ORBITAL ENERGIES
----------------

  NO   OCC          E(Eh)            E(eV)
   0   2.0000     -88.967387     -2420.9257
   1   2.0000     -88.961595     -2420.7681
   2   2.0000     -10.335911      -281.2544
   3   2.0000     -10.328216      -281.0450
   4   2.0000     -10.320499      -280.8351
   5   2.0000     -10.315722      -280.7051
   6   2.0000     -10.308882      -280.5189
   7   2.0000     -10.303896      -280.3833
   8   2.0000     -10.301428      -280.3161
   9   2.0000     -10.299873      -280.2738
  10   2.0000     -10.299102      -280.2528
  11   2.0000     -10.293139      -280.0906
  12   2.0000     -10.283484      -279.8278
  13   2.0000     -10.281073      -279.7622
  14   2.0000     -10.279527      -279.7202
  15   2.0000     -10.279191      -279.7110
  16   2.0000      -8.081732      -219.9151
  17   2.0000      -8.077188      -219.7915
  18   2.0000      -6.040413      -164.3680
  19   2.0000      -6.036414      -164.2592
  20   2.0000      -6.035867      -164.2443
  21   2.0000      -6.032210      -164.1448
  22   2.0000      -6.031631      -164.1290
  23   2.0000      -6.027658      -164.0209
  24   2.0000      -1.011638       -27.5281
  25   2.0000      -0.985581       -26.8190
  26   2.0000      -0.919436       -25.0191
  27   2.0000      -0.901236       -24.5239
  28   2.0000      -0.873204       -23.7611
  29   2.0000      -0.851171       -23.1616
  30   2.0000      -0.842363       -22.9219
  31   2.0000      -0.818521       -22.2731
  32   2.0000      -0.783374       -21.3167
  33   2.0000      -0.772888       -21.0313
  34   2.0000      -0.710774       -19.3411
  35   2.0000      -0.703509       -19.1435
  36   2.0000      -0.685554       -18.6549
  37   2.0000      -0.655973       -17.8499
  38   2.0000      -0.633159       -17.2291
  39   2.0000      -0.622357       -16.9352
  40   2.0000      -0.602172       -16.3859
  41   2.0000      -0.574925       -15.6445
  42   2.0000      -0.564541       -15.3619
  43   2.0000      -0.559501       -15.2248
  44   2.0000      -0.527890       -14.3646
  45   2.0000      -0.524573       -14.2744
  46   2.0000      -0.515876       -14.0377
  47   2.0000      -0.512105       -13.9351
  48   2.0000      -0.506326       -13.7778
  49   2.0000      -0.503411       -13.6985
  50   2.0000      -0.492304       -13.3963
  51   2.0000      -0.483429       -13.1548
  52   2.0000      -0.472683       -12.8624
  53   2.0000      -0.468774       -12.7560
  54   2.0000      -0.462356       -12.5814
  55   2.0000      -0.451578       -12.2881
  56   2.0000      -0.448562       -12.2060
  57   2.0000      -0.436150       -11.8682
  58   2.0000      -0.428295       -11.6545
  59   2.0000      -0.424691       -11.5564
  60   2.0000      -0.420389       -11.4394
  61   2.0000      -0.411439       -11.1958
  62   2.0000      -0.406818       -11.0701
  63   2.0000      -0.366959        -9.9855
  64   2.0000      -0.333015        -9.0618
  65   2.0000      -0.324265        -8.8237
  66   2.0000      -0.283021        -7.7014
  67   0.0000       0.018979         0.5165
  68   0.0000       0.089656         2.4397
  69   0.0000       0.097810         2.6615
  70   0.0000       0.119158         3.2424
  71   0.0000       0.133667         3.6373

MULLIKEN ATOMIC CHARGES
-----------------------
   0 S :    0.098210
   1 C :   -0.135320
   2 C :   -0.088645
   3 C :   -0.024897
   4 C :   -0.102191
   5 H :    0.021942
   6 C :    0.093114
   7 H :    0.022171
   8 H :    0.039610
   9 C :   -0.198020
  10 H :    0.039419
  11 H :    0.042011
  12 C :   -0.004255
  13 H :    0.038764
  14 H :    0.036624
  15 H :    0.030913
  16 S :    0.077500
  17 C :   -0.086153
  18 C :   -0.034335
  19 C :   -0.104821
  20 C :   -0.092728
  21 H :    0.038386
  22 C :    0.083951
  23 H :    0.029277
  24 H :    0.025050
  25 C :   -0.052951
  26 H :    0.026797
  27 H :    0.018069
  28 C :   -0.059039
  29 H :    0.038320
  30 H :    0.017259
  31 H :    0.024655
  32 H :    0.072483
  33 H :    0.068827
Sum of atomic charges:    0.0000000

LOEWDIN ATOMIC CHARGES
----------------------
   0 S :    0.394452
   1 C :   -0.205874
   2 C :   -0.059261
   3 C :   -0.071229
   4 C :   -0.180660
   5 H :    0.030354
   6 C :   -0.033294
   7 H :    0.030423
   8 H :    0.032564
   9 C :   -0.058072
  10 H :    0.028531
  11 H :    0.025560
  12 C :   -0.059786
  13 H :    0.025388
  14 H :    0.026070
  15 H :    0.027295
  16 S :    0.400380
  17 C :   -0.181736
  18 C :   -0.074389
  19 C :   -0.059149
  20 C :   -0.203592
  21 H :    0.040712
  22 C :   -0.033782
  23 H :    0.034306
  24 H :    0.027729
  25 C :   -0.033313
  26 H :    0.025635
  27 H :    0.016854
  28 C :   -0.068820
  29 H :    0.029427
  30 H :    0.024255
  31 H :    0.020212
  32 H :    0.044152
  33 H :    0.038657

  Mayer bond orders larger than 0.100000
B(  0-S ,  1-C ) :   1.1269 B(  0-S ,  4-C ) :   1.1385 B(  1-C ,  2-C ) :   1.6247
B(  1-C , 32-H ) :   0.9579 B(  2-C ,  3-C ) :   1.2465 B(  2-C ,  6-C ) :   1.0199
B(  3-C ,  4-C ) :   1.5527 B(  3-C ,  5-H ) :   0.9821 B(  4-C , 20-C ) :   1.1011
B(  6-C ,  7-H ) :   0.9492 B(  6-C ,  8-H ) :   0.9335 B(  6-C ,  9-C ) :   1.0434
B(  9-C , 10-H ) :   0.9631 B(  9-C , 11-H ) :   0.9526 B(  9-C , 12-C ) :   1.0816
B( 12-C , 13-H ) :   0.9767 B( 12-C , 14-H ) :   0.9743 B( 12-C , 15-H ) :   0.9722
B( 16-S , 17-C ) :   1.1353 B( 16-S , 20-C ) :   1.1298 B( 17-C , 18-C ) :   1.6433
B( 17-C , 33-H ) :   0.9623 B( 18-C , 19-C ) :   1.2280 B( 18-C , 21-H ) :   0.9770
B( 19-C , 20-C ) :   1.5734 B( 19-C , 22-C ) :   1.0640 B( 22-C , 23-H ) :   0.9299
B( 22-C , 24-H ) :   0.9217 B( 22-C , 25-C ) :   1.0683 B( 25-C , 26-H ) :   0.9418
B( 25-C , 27-H ) :   0.9591 B( 25-C , 28-C ) :   1.0922 B( 28-C , 29-H ) :   0.9745
B( 28-C , 30-H ) :   0.9713 B( 28-C , 31-H ) :   0.9741

Dispersion correction           -0.013444424
FINAL SINGLE POINT ENERGY     -1339.871730197711

DIPOLE MOMENT
-------------
                                X             Y             Z
Electronic contribution:    -26.07497      11.12288     -17.65025
Nuclear contribution   :     26.78558     -11.12738      18.06529
                        -----------------------------------------
Total Dipole Moment    :      0.71061      -0.00450       0.41504
                        -----------------------------------------
Magnitude (a.u.)       :      0.82295
Magnitude (Debye)      :      2.09177

Rotational constants in cm-1:     0.016469     0.009199     0.006166
Rotational constants in MHz :   493.741268   275.793796   184.862519

                             ****ORCA TERMINATED NORMALLY****
TOTAL RUN TIME: 0 days 0 hours 0 minutes 33 seconds 903 msec
