                         Program Version 4.2.1 -  RELEASE  -
|  1> ! wB97X-D3 SP def2-SVP
|  2> %pal
|  3> nprocs 16
|  4> end
|  5>
|  6> * xyz 0 1
|  7> S 	 -28.0143 	 69.6056 	 104.81
|  8> C 	 -28.6544 	 68.5007 	 103.66
|  9> C 	 -29.1942 	 67.391 	 104.297
| 10> C 	 -29.1933 	 67.4816 	 105.736
| 11> C 	 -28.6795 	 68.6697 	 106.18
| 12> H 	 -29.6433 	 66.6631 	 106.391
| 13> C 	 -29.9414 	 66.3049 	 103.563
| 14> H 	 -30.6487 	 66.8263 	 102.919
| 15> H 	 -30.6389 	 65.8922 	 104.286
| 16> C 	 -28.9942 	 65.3197 	 102.77
| 17> H 	 -28.3291 	 65.943 	 102.137
| 18> H 	 -28.2943 	 64.8142 	 103.435
| 19> C 	 -29.7933 	 64.1985 	 102.057
| 20> H 	 -30.4361 	 63.629 	 102.762
| 21> H 	 -30.3976 	 64.6761 	 101.206
| 22> H 	 -29.2736 	 63.4791 	 101.625
| 23> S 	 -27.0047 	 68.8536 	 108.258
| 24> C 	 -27.4404 	 69.7347 	 109.693
| 25> C 	 -28.7496 	 70.2549 	 109.577
| 26> C 	 -29.4137 	 69.8262 	 108.399
| 27> C 	 -28.5602 	 69.1436 	 107.542
| 28> H 	 -29.1899 	 70.8721 	 110.34
| 29> C 	 -30.8537 	 70.3232 	 108.002
| 30> H 	 -31.6125 	 69.7899 	 108.533
| 31> H 	 -31.04 	 70.0034 	 106.941
| 32> C 	 -31.0677 	 71.8256 	 108.003
| 33> H 	 -30.4785 	 72.3047 	 107.254
| 34> H 	 -30.7414 	 72.3459 	 108.941
| 35> C 	 -32.4867 	 72.3083 	 107.771
| 36> H 	 -33.0337 	 72.1275 	 108.685
| 37> H 	 -33.051 	 71.6988 	 106.987
| 38> H 	 -32.679 	 73.4339 	 107.599
| 39> H 	 -28.3922 	 68.6564 	 102.603
| 40> H 	 -26.7487 	 69.841 	 110.534
| 41> *
| 42>
| 43>                          ****END OF INPUT****

CARTESIAN COORDINATES (ANGSTROEM)
---------------------------------
  S    -28.014300   69.605600  104.810000
  C    -28.654400   68.500700  103.660000
  C    -29.194200   67.391000  104.297000
  C    -29.193300   67.481600  105.736000
  C    -28.679500   68.669700  106.180000
  H    -29.643300   66.663100  106.391000
  C    -29.941400   66.304900  103.563000
  H    -30.648700   66.826300  102.919000
  H    -30.638900   65.892200  104.286000
  C    -28.994200   65.319700  102.770000
  H    -28.329100   65.943000  102.137000
  H    -28.294300   64.814200  103.435000
  C    -29.793300   64.198500  102.057000
  H    -30.436100   63.629000  102.762000
  H    -30.397600   64.676100  101.206000
  H    -29.273600   63.479100  101.625000
  S    -27.004700   68.853600  108.258000
  C    -27.440400   69.734700  109.693000
  C    -28.749600   70.254900  109.577000
  C    -29.413700   69.826200  108.399000
  C    -28.560200   69.143600  107.542000
  H    -29.189900   70.872100  110.340000
  C    -30.853700   70.323200  108.002000
  H    -31.612500   69.789900  108.533000
  H    -31.040000   70.003400  106.941000
  C    -31.067700   71.825600  108.003000
  H    -30.478500   72.304700  107.254000
  H    -30.741400   72.345900  108.941000
  C    -32.486700   72.308300  107.771000
  H    -33.033700   72.127500  108.685000
  H    -33.051000   71.698800  106.987000
  H    -32.679000   73.433900  107.599000
  H    -28.392200   68.656400  102.603000
  H    -26.748700   69.841000  110.534000

 Total Charge           Charge          ....    0
 Multiplicity           Mult            ....    1
 Number of Electrons    NEL             ....  134
 Basis Dimension        Dim             ....  322

ORBITAL ENERGIES
----------------

  NO   OCC          E(Eh)            E(eV)
   0   2.0000     -88.965051     -2420.8621
   1   2.0000     -88.962575     -2420.7947
   2   2.0000     -10.328206      -281.0448
   3   2.0000     -10.322550      -280.8909
   4   2.0000     -10.320328      -280.8304
   5   2.0000     -10.313523      -280.6452
   6   2.0000     -10.307373      -280.4779
   7   2.0000     -10.301003      -280.3045
   8   2.0000     -10.299211      -280.2558
   9   2.0000     -10.296307      -280.1768
  10   2.0000     -10.295914      -280.1661
  11   2.0000     -10.295083      -280.1435
  12   2.0000     -10.290962      -280.0313
  13   2.0000     -10.284496      -279.8554
  14   2.0000     -10.283754      -279.8352
  15   2.0000     -10.277164      -279.6558
  16   2.0000      -8.080238      -219.8745
  17   2.0000      -8.077577      -219.8021
  18   2.0000      -6.038597      -164.3186
  19   2.0000      -6.036066      -164.2497
  20   2.0000      -6.034514      -164.2075
  21   2.0000      -6.031972      -164.1383
  22   2.0000      -6.031308      -164.1202
  23   2.0000      -6.028425      -164.0418
  24   2.0000      -1.006044       -27.3759
  25   2.0000      -0.983099       -26.7515
  26   2.0000      -0.906000       -24.6535
  27   2.0000      -0.903173       -24.5766
  28   2.0000      -0.867553       -23.6073
  29   2.0000      -0.849587       -23.1184
  30   2.0000      -0.848226       -23.0814
  31   2.0000      -0.812157       -22.0999
  32   2.0000      -0.779605       -21.2141
  33   2.0000      -0.765483       -20.8299
  34   2.0000      -0.708681       -19.2842
  35   2.0000      -0.697677       -18.9848
  36   2.0000      -0.692777       -18.8514
  37   2.0000      -0.660806       -17.9815
  38   2.0000      -0.642808       -17.4917
  39   2.0000      -0.615569       -16.7505
  40   2.0000      -0.596963       -16.2442
  41   2.0000      -0.562208       -15.2985
  42   2.0000      -0.557988       -15.1836
  43   2.0000      -0.549704       -14.9582
  44   2.0000      -0.527440       -14.3524
  45   2.0000      -0.520049       -14.1513
  46   2.0000      -0.517651       -14.0860
  47   2.0000      -0.509965       -13.8769
  48   2.0000      -0.506130       -13.7725
  49   2.0000      -0.502225       -13.6662
  50   2.0000      -0.490477       -13.3466
  51   2.0000      -0.472951       -12.8697
  52   2.0000      -0.467885       -12.7318
  53   2.0000      -0.459743       -12.5102
  54   2.0000      -0.457203       -12.4411
  55   2.0000      -0.450877       -12.2690
  56   2.0000      -0.448947       -12.2165
  57   2.0000      -0.437477       -11.9043
  58   2.0000      -0.430138       -11.7046
  59   2.0000      -0.423001       -11.5105
  60   2.0000      -0.417182       -11.3521
  61   2.0000      -0.414742       -11.2857
  62   2.0000      -0.406585       -11.0637
  63   2.0000      -0.339897        -9.2491
  64   2.0000      -0.331685        -9.0256
  65   2.0000      -0.316877        -8.6226
  66   2.0000      -0.307031        -8.3548
  67   0.0000       0.044778         1.2185
  68   0.0000       0.051041         1.3889
  69   0.0000       0.119121         3.2415
  70   0.0000       0.125932         3.4268
  71   0.0000       0.128402         3.4940

MULLIKEN ATOMIC CHARGES
-----------------------
   0 S :    0.110157
   1 C :   -0.132857
   2 C :   -0.105631
   3 C :    0.037779
   4 C :   -0.175109
   5 H :    0.046596
   6 C :    0.056646
   7 H :    0.029838
   8 H :    0.009392
   9 C :   -0.070933
  10 H :    0.031264
  11 H :    0.029183
  12 C :   -0.011280
  13 H :    0.033144
  14 H :    0.036399
  15 H :   -0.001279
  16 S :    0.123287
  17 C :   -0.108873
  18 C :   -0.040630
  19 C :    0.011800
  20 C :   -0.204510
  21 H :    0.018586
  22 C :    0.083955
  23 H :    0.023745
  24 H :    0.033351
  25 C :   -0.067971
  26 H :    0.028765
  27 H :    0.027519
  28 C :   -0.097750
  29 H :    0.021408
  30 H :    0.036748
  31 H :    0.052442
  32 H :    0.067700
  33 H :    0.067118
Sum of atomic charges:    0.0000000

LOEWDIN ATOMIC CHARGES
----------------------
   0 S :    0.403096
   1 C :   -0.207640
   2 C :   -0.070444
   3 C :   -0.062407
   4 C :   -0.197085
   5 H :    0.048741
   6 C :   -0.035387
   7 H :    0.033127
   8 H :    0.026272
   9 C :   -0.035549
  10 H :    0.026114
  11 H :    0.024496
  12 C :   -0.061984
  13 H :    0.032380
  14 H :    0.034356
  15 H :    0.001801
  16 S :    0.428528
  17 C :   -0.192535
  18 C :   -0.069531
  19 C :   -0.050707
  20 C :   -0.211558
  21 H :    0.029136
  22 C :   -0.025950
  23 H :    0.025577
  24 H :    0.039091
  25 C :   -0.049454
  26 H :    0.022932
  27 H :    0.025551
  28 C :   -0.080410
  29 H :    0.018807
  30 H :    0.028695
  31 H :    0.038631
  32 H :    0.032685
  33 H :    0.030626

  Mayer bond orders larger than 0.100000
B(  0-S ,  1-C ) :   1.1528 B(  0-S ,  4-C ) :   1.1469 B(  1-C ,  2-C ) :   1.5940
B(  1-C , 32-H ) :   0.9669 B(  2-C ,  3-C ) :   1.2537 B(  2-C ,  6-C ) :   1.0127
B(  3-C ,  4-C ) :   1.5902 B(  3-C ,  5-H ) :   0.9814 B(  4-C , 20-C ) :   1.0041
B(  6-C ,  7-H ) :   0.9473 B(  6-C ,  8-H ) :   0.9471 B(  6-C ,  9-C ) :   1.0344
B(  9-C , 10-H ) :   0.9616 B(  9-C , 11-H ) :   0.9595 B(  9-C , 12-C ) :   1.0759
B( 12-C , 13-H ) :   0.9726 B( 12-C , 14-H ) :   0.9752 B( 12-C , 15-H ) :   0.9749
B( 16-S , 17-C ) :   1.1732 B( 16-S , 20-C ) :   1.1771 B( 17-C , 18-C ) :   1.5667
B( 17-C , 20-C ) :   0.1130 B( 17-C , 33-H ) :   0.9700 B( 18-C , 19-C ) :   1.2625
B( 18-C , 21-H ) :   0.9924 B( 19-C , 20-C ) :   1.5877 B( 19-C , 22-C ) :   1.0285
B( 22-C , 23-H ) :   0.9397 B( 22-C , 24-H ) :   0.9335 B( 22-C , 25-C ) :   1.0565
B( 25-C , 26-H ) :   0.9558 B( 25-C , 27-H ) :   0.9553 B( 25-C , 28-C ) :   1.0748
B( 28-C , 29-H ) :   0.9748 B( 28-C , 30-H ) :   0.9734 B( 28-C , 31-H ) :   0.9737

Dispersion correction           -0.013583493
FINAL SINGLE POINT ENERGY     -1339.870499830477

DIPOLE MOMENT
-------------
                                X             Y             Z
Electronic contribution:     20.16229       4.84335       9.10377
Nuclear contribution   :    -20.53736      -5.03168      -9.15263
                        -----------------------------------------
Total Dipole Moment    :     -0.37506      -0.18832      -0.04887
                        -----------------------------------------
Magnitude (a.u.)       :      0.42252
Magnitude (Debye)      :      1.07397

Rotational constants in cm-1:     0.020178     0.007124     0.006070
Rotational constants in MHz :   604.931763   213.571811   181.981419

                             ****ORCA TERMINATED NORMALLY****
TOTAL RUN TIME: 0 days 0 hours 0 minutes 27 seconds 109 msec
