                         Program Version 4.2.1 -  RELEASE  -
|  1> ! wB97X-D3 SP def2-SVP
|  2> %pal
|  3> nprocs 16
|  4> end
|  5>
|  6> * xyz 0 1
|  7> S 	 -34.6143 	 55.4631 	 107.113
|  8> C 	 -34.8648 	 57.1635 	 106.668
|  9> C 	 -33.8372 	 57.6095 	 105.837
| 10> C 	 -32.7964 	 56.6488 	 105.65
| 11> C 	 -33.0936 	 55.3818 	 106.301
| 12> H 	 -31.9731 	 56.619 	 104.92
| 13> C 	 -33.6459 	 59.051 	 105.305
| 14> H 	 -32.8691 	 59.5703 	 105.76
| 15> H 	 -34.6083 	 59.4747 	 105.626
| 16> C 	 -33.6221 	 59.177 	 103.768
| 17> H 	 -32.8927 	 58.4633 	 103.399
| 18> H 	 -34.5391 	 58.765 	 103.443
| 19> C 	 -33.402 	 60.57 	 103.193
| 20> H 	 -33.974 	 61.4044 	 103.585
| 21> H 	 -32.4009 	 60.9491 	 103.289
| 22> H 	 -33.3814 	 60.5602 	 102.136
| 23> S 	 -32.9428 	 52.5677 	 106.309
| 24> C 	 -31.4038 	 51.7526 	 106.302
| 25> C 	 -30.4412 	 52.6753 	 106.671
| 26> C 	 -30.8797 	 54.062 	 106.572
| 27> C 	 -32.2617 	 54.198 	 106.396
| 28> H 	 -29.5001 	 52.2343 	 106.925
| 29> C 	 -29.8785 	 55.1821 	 106.715
| 30> H 	 -30.0083 	 55.9689 	 105.979
| 31> H 	 -28.9332 	 54.8073 	 106.44
| 32> C 	 -29.8766 	 55.7583 	 108.105
| 33> H 	 -29.6464 	 54.9497 	 108.87
| 34> H 	 -30.8362 	 56.2424 	 108.388
| 35> C 	 -28.775 	 56.7999 	 108.33
| 36> H 	 -27.7592 	 56.4216 	 108.386
| 37> H 	 -29.044 	 57.3411 	 109.197
| 38> H 	 -28.8904 	 57.5579 	 107.503
| 39> H 	 -35.6639 	 57.7144 	 107.093
| 40> H 	 -31.1931 	 50.7276 	 106.102
| 41> *
| 42>
| 43>                          ****END OF INPUT****

CARTESIAN COORDINATES (ANGSTROEM)
---------------------------------
  S    -34.614300   55.463100  107.113000
  C    -34.864800   57.163500  106.668000
  C    -33.837200   57.609500  105.837000
  C    -32.796400   56.648800  105.650000
  C    -33.093600   55.381800  106.301000
  H    -31.973100   56.619000  104.920000
  C    -33.645900   59.051000  105.305000
  H    -32.869100   59.570300  105.760000
  H    -34.608300   59.474700  105.626000
  C    -33.622100   59.177000  103.768000
  H    -32.892700   58.463300  103.399000
  H    -34.539100   58.765000  103.443000
  C    -33.402000   60.570000  103.193000
  H    -33.974000   61.404400  103.585000
  H    -32.400900   60.949100  103.289000
  H    -33.381400   60.560200  102.136000
  S    -32.942800   52.567700  106.309000
  C    -31.403800   51.752600  106.302000
  C    -30.441200   52.675300  106.671000
  C    -30.879700   54.062000  106.572000
  C    -32.261700   54.198000  106.396000
  H    -29.500100   52.234300  106.925000
  C    -29.878500   55.182100  106.715000
  H    -30.008300   55.968900  105.979000
  H    -28.933200   54.807300  106.440000
  C    -29.876600   55.758300  108.105000
  H    -29.646400   54.949700  108.870000
  H    -30.836200   56.242400  108.388000
  C    -28.775000   56.799900  108.330000
  H    -27.759200   56.421600  108.386000
  H    -29.044000   57.341100  109.197000
  H    -28.890400   57.557900  107.503000
  H    -35.663900   57.714400  107.093000
  H    -31.193100   50.727600  106.102000

 Total Charge           Charge          ....    0
 Multiplicity           Mult            ....    1
 Number of Electrons    NEL             ....  134
 Basis Dimension        Dim             ....  322

ORBITAL ENERGIES
----------------

  NO   OCC          E(Eh)            E(eV)
   0   2.0000     -88.970157     -2421.0010
   1   2.0000     -88.963075     -2420.8083
   2   2.0000     -10.338582      -281.3271
   3   2.0000     -10.331665      -281.1389
   4   2.0000     -10.318373      -280.7772
   5   2.0000     -10.317930      -280.7651
   6   2.0000     -10.309054      -280.5236
   7   2.0000     -10.309024      -280.5228
   8   2.0000     -10.301864      -280.3280
   9   2.0000     -10.296145      -280.1723
  10   2.0000     -10.289333      -279.9870
  11   2.0000     -10.286002      -279.8964
  12   2.0000     -10.284253      -279.8488
  13   2.0000     -10.283933      -279.8400
  14   2.0000     -10.273848      -279.5656
  15   2.0000     -10.273722      -279.5622
  16   2.0000      -8.084775      -219.9979
  17   2.0000      -8.077818      -219.8086
  18   2.0000      -6.043194      -164.4437
  19   2.0000      -6.039173      -164.3342
  20   2.0000      -6.036530      -164.2623
  21   2.0000      -6.035762      -164.2414
  22   2.0000      -6.032279      -164.1466
  23   2.0000      -6.028378      -164.0405
  24   2.0000      -1.003705       -27.3122
  25   2.0000      -0.980882       -26.6912
  26   2.0000      -0.912116       -24.8199
  27   2.0000      -0.911202       -24.7951
  28   2.0000      -0.871712       -23.7205
  29   2.0000      -0.850255       -23.1366
  30   2.0000      -0.842993       -22.9390
  31   2.0000      -0.813196       -22.1282
  32   2.0000      -0.787478       -21.4284
  33   2.0000      -0.774950       -21.0874
  34   2.0000      -0.713912       -19.4265
  35   2.0000      -0.702184       -19.1074
  36   2.0000      -0.688738       -18.7415
  37   2.0000      -0.662462       -18.0265
  38   2.0000      -0.643006       -17.4971
  39   2.0000      -0.617514       -16.8034
  40   2.0000      -0.595654       -16.2086
  41   2.0000      -0.573882       -15.6161
  42   2.0000      -0.567136       -15.4325
  43   2.0000      -0.560238       -15.2448
  44   2.0000      -0.531400       -14.4601
  45   2.0000      -0.526433       -14.3250
  46   2.0000      -0.519241       -14.1293
  47   2.0000      -0.514663       -14.0047
  48   2.0000      -0.508476       -13.8363
  49   2.0000      -0.503402       -13.6983
  50   2.0000      -0.495354       -13.4793
  51   2.0000      -0.485756       -13.2181
  52   2.0000      -0.474019       -12.8987
  53   2.0000      -0.465073       -12.6553
  54   2.0000      -0.461939       -12.5700
  55   2.0000      -0.444155       -12.0861
  56   2.0000      -0.441690       -12.0190
  57   2.0000      -0.433718       -11.8021
  58   2.0000      -0.429838       -11.6965
  59   2.0000      -0.426522       -11.6063
  60   2.0000      -0.413977       -11.2649
  61   2.0000      -0.411154       -11.1881
  62   2.0000      -0.409128       -11.1329
  63   2.0000      -0.354720        -9.6524
  64   2.0000      -0.334412        -9.0998
  65   2.0000      -0.324724        -8.8362
  66   2.0000      -0.283988        -7.7277
  67   0.0000       0.020588         0.5602
  68   0.0000       0.067342         1.8325
  69   0.0000       0.108329         2.9478
  70   0.0000       0.115140         3.1331
  71   0.0000       0.136462         3.7133

MULLIKEN ATOMIC CHARGES
-----------------------
   0 S :    0.111096
   1 C :   -0.127210
   2 C :   -0.079216
   3 C :    0.001353
   4 C :   -0.168101
   5 H :    0.042280
   6 C :    0.091545
   7 H :    0.027666
   8 H :    0.008729
   9 C :   -0.058260
  10 H :    0.020906
  11 H :    0.016288
  12 C :   -0.008897
  13 H :    0.033031
  14 H :    0.006259
  15 H :    0.019465
  16 S :    0.092966
  17 C :   -0.089680
  18 C :   -0.031644
  19 C :   -0.058954
  20 C :   -0.117379
  21 H :    0.015267
  22 C :    0.130387
  23 H :    0.004756
  24 H :   -0.003968
  25 C :   -0.115467
  26 H :    0.032231
  27 H :    0.046376
  28 C :   -0.025657
  29 H :    0.039786
  30 H :    0.023585
  31 H :    0.020448
  32 H :    0.043507
  33 H :    0.056503
Sum of atomic charges:    0.0000000

LOEWDIN ATOMIC CHARGES
----------------------
   0 S :    0.417737
   1 C :   -0.192747
   2 C :   -0.057130
   3 C :   -0.076609
   4 C :   -0.191817
   5 H :    0.034315
   6 C :   -0.020289
   7 H :    0.019952
   8 H :    0.029494
   9 C :   -0.035209
  10 H :    0.022730
  11 H :    0.021335
  12 C :   -0.070205
  13 H :    0.027537
  14 H :    0.024996
  15 H :    0.026851
  16 S :    0.393749
  17 C :   -0.179782
  18 C :   -0.069889
  19 C :   -0.046889
  20 C :   -0.200811
  21 H :    0.028519
  22 C :   -0.033047
  23 H :    0.026781
  24 H :    0.023898
  25 C :   -0.041442
  26 H :    0.029077
  27 H :    0.031362
  28 C :   -0.065609
  29 H :    0.022951
  30 H :    0.021707
  31 H :    0.026178
  32 H :    0.021792
  33 H :    0.030513

  Mayer bond orders larger than 0.100000
B(  0-S ,  1-C ) :   1.1371 B(  0-S ,  4-C ) :   1.1843 B(  1-C ,  2-C ) :   1.5870
B(  1-C ,  4-C ) :   0.1085 B(  1-C , 32-H ) :   0.9758 B(  2-C ,  3-C ) :   1.2588
B(  2-C ,  6-C ) :   1.0138 B(  3-C ,  4-C ) :   1.5249 B(  3-C ,  5-H ) :   0.9794
B(  4-C , 20-C ) :   1.0814 B(  6-C ,  7-H ) :   0.9520 B(  6-C ,  8-H ) :   0.9387
B(  6-C ,  9-C ) :   1.0580 B(  9-C , 10-H ) :   0.9585 B(  9-C , 11-H ) :   0.9533
B(  9-C , 12-C ) :   1.0864 B( 12-C , 13-H ) :   0.9752 B( 12-C , 14-H ) :   0.9650
B( 12-C , 15-H ) :   0.9679 B( 16-S , 17-C ) :   1.1556 B( 16-S , 20-C ) :   1.1199
B( 17-C , 18-C ) :   1.6114 B( 17-C , 33-H ) :   0.9725 B( 18-C , 19-C ) :   1.2284
B( 18-C , 21-H ) :   0.9940 B( 19-C , 20-C ) :   1.5727 B( 19-C , 22-C ) :   1.0533
B( 22-C , 23-H ) :   0.9257 B( 22-C , 24-H ) :   0.9221 B( 22-C , 25-C ) :   1.0686
B( 25-C , 26-H ) :   0.9530 B( 25-C , 27-H ) :   0.9567 B( 25-C , 28-C ) :   1.0855
B( 28-C , 29-H ) :   0.9766 B( 28-C , 30-H ) :   0.9727 B( 28-C , 31-H ) :   0.9704

Dispersion correction           -0.013898328
FINAL SINGLE POINT ENERGY     -1339.861019125661

DIPOLE MOMENT
-------------
                                X             Y             Z
Electronic contribution:    -14.70514     -25.60718       5.29806
Nuclear contribution   :     15.26021      25.97883      -5.40318
                        -----------------------------------------
Total Dipole Moment    :      0.55507       0.37165      -0.10512
                        -----------------------------------------
Magnitude (a.u.)       :      0.67622
Magnitude (Debye)      :      1.71882

Rotational constants in cm-1:     0.017873     0.008250     0.006702
Rotational constants in MHz :   535.818330   247.331590   200.922574

                             ****ORCA TERMINATED NORMALLY****
TOTAL RUN TIME: 0 days 0 hours 0 minutes 29 seconds 741 msec
