                         Program Version 4.2.1 -  RELEASE  -
|  1> ! wB97X-D3 SP def2-SVP
|  2> %pal
|  3> nprocs 16
|  4> end
|  5>
|  6> * xyz 0 1
|  7> S 	 6.98435 	 23.4812 	 41.7609
|  8> C 	 5.63997 	 24.1379 	 40.9179
|  9> C 	 5.03826 	 23.146 	 40.1123
| 10> C 	 5.73283 	 21.8895 	 40.2315
| 11> C 	 6.82284 	 21.8529 	 41.1134
| 12> H 	 5.49497 	 20.9402 	 39.7068
| 13> C 	 3.86593 	 23.3646 	 39.1695
| 14> H 	 3.33546 	 24.2971 	 39.5654
| 15> H 	 3.09153 	 22.6123 	 39.3475
| 16> C 	 4.29908 	 23.5678 	 37.7643
| 17> H 	 4.95307 	 24.4078 	 37.7509
| 18> H 	 4.877 	 22.7771 	 37.3419
| 19> C 	 3.04556 	 23.7868 	 36.9269
| 20> H 	 2.33956 	 22.9201 	 37.0113
| 21> H 	 2.48966 	 24.6644 	 37.33
| 22> H 	 3.29489 	 24.0285 	 35.873
| 23> S 	 7.74207 	 20.1289 	 43.0727
| 24> C 	 9.00898 	 18.9989 	 42.7501
| 25> C 	 9.14955 	 18.8571 	 41.3977
| 26> C 	 8.44705 	 19.8609 	 40.5983
| 27> C 	 7.71522 	 20.7082 	 41.4276
| 28> H 	 9.80242 	 18.0632 	 40.9936
| 29> C 	 8.52593 	 19.9037 	 39.0695
| 30> H 	 8.91152 	 20.8997 	 38.821
| 31> H 	 7.5163 	 19.9279 	 38.7797
| 32> C 	 9.4074 	 18.8225 	 38.4044
| 33> H 	 9.01073 	 17.8748 	 38.6645
| 34> H 	 10.4395 	 18.7966 	 38.6751
| 35> C 	 9.23216 	 18.894 	 36.8523
| 36> H 	 9.81547 	 19.6688 	 36.3642
| 37> H 	 8.24111 	 18.9987 	 36.5209
| 38> H 	 9.65616 	 18.0399 	 36.4236
| 39> H 	 5.24264 	 25.1753 	 40.9949
| 40> H 	 9.49518 	 18.3444 	 43.4318
| 41> *
| 42>
| 43>                          ****END OF INPUT****

CARTESIAN COORDINATES (ANGSTROEM)
---------------------------------
  S      6.984350   23.481200   41.760900
  C      5.639970   24.137900   40.917900
  C      5.038260   23.146000   40.112300
  C      5.732830   21.889500   40.231500
  C      6.822840   21.852900   41.113400
  H      5.494970   20.940200   39.706800
  C      3.865930   23.364600   39.169500
  H      3.335460   24.297100   39.565400
  H      3.091530   22.612300   39.347500
  C      4.299080   23.567800   37.764300
  H      4.953070   24.407800   37.750900
  H      4.877000   22.777100   37.341900
  C      3.045560   23.786800   36.926900
  H      2.339560   22.920100   37.011300
  H      2.489660   24.664400   37.330000
  H      3.294890   24.028500   35.873000
  S      7.742070   20.128900   43.072700
  C      9.008980   18.998900   42.750100
  C      9.149550   18.857100   41.397700
  C      8.447050   19.860900   40.598300
  C      7.715220   20.708200   41.427600
  H      9.802420   18.063200   40.993600
  C      8.525930   19.903700   39.069500
  H      8.911520   20.899700   38.821000
  H      7.516300   19.927900   38.779700
  C      9.407400   18.822500   38.404400
  H      9.010730   17.874800   38.664500
  H     10.439500   18.796600   38.675100
  C      9.232160   18.894000   36.852300
  H      9.815470   19.668800   36.364200
  H      8.241110   18.998700   36.520900
  H      9.656160   18.039900   36.423600
  H      5.242640   25.175300   40.994900
  H      9.495180   18.344400   43.431800

 Total Charge           Charge          ....    0
 Multiplicity           Mult            ....    1
 Number of Electrons    NEL             ....  134
 Basis Dimension        Dim             ....  322

ORBITAL ENERGIES
----------------

  NO   OCC          E(Eh)            E(eV)
   0   2.0000     -88.966022     -2420.8885
   1   2.0000     -88.961857     -2420.7752
   2   2.0000     -10.332556      -281.1632
   3   2.0000     -10.327280      -281.0196
   4   2.0000     -10.319747      -280.8146
   5   2.0000     -10.311858      -280.5999
   6   2.0000     -10.307244      -280.4744
   7   2.0000     -10.304027      -280.3868
   8   2.0000     -10.298992      -280.2498
   9   2.0000     -10.295357      -280.1509
  10   2.0000     -10.294013      -280.1143
  11   2.0000     -10.291774      -280.0534
  12   2.0000     -10.288796      -279.9724
  13   2.0000     -10.284635      -279.8591
  14   2.0000     -10.279516      -279.7198
  15   2.0000     -10.271092      -279.4906
  16   2.0000      -8.080739      -219.8881
  17   2.0000      -8.077131      -219.7899
  18   2.0000      -6.039210      -164.3352
  19   2.0000      -6.035639      -164.2381
  20   2.0000      -6.034971      -164.2199
  21   2.0000      -6.031794      -164.1335
  22   2.0000      -6.031627      -164.1289
  23   2.0000      -6.027780      -164.0242
  24   2.0000      -1.003271       -27.3004
  25   2.0000      -0.984028       -26.7768
  26   2.0000      -0.919925       -25.0324
  27   2.0000      -0.909058       -24.7367
  28   2.0000      -0.868338       -23.6287
  29   2.0000      -0.848966       -23.1015
  30   2.0000      -0.842797       -22.9337
  31   2.0000      -0.813764       -22.1436
  32   2.0000      -0.781019       -21.2526
  33   2.0000      -0.767720       -20.8907
  34   2.0000      -0.718055       -19.5393
  35   2.0000      -0.705596       -19.2002
  36   2.0000      -0.695064       -18.9136
  37   2.0000      -0.648925       -17.6581
  38   2.0000      -0.640593       -17.4314
  39   2.0000      -0.615727       -16.7548
  40   2.0000      -0.595097       -16.1934
  41   2.0000      -0.573268       -15.5994
  42   2.0000      -0.571229       -15.5439
  43   2.0000      -0.562466       -15.3055
  44   2.0000      -0.534577       -14.5466
  45   2.0000      -0.530006       -14.4222
  46   2.0000      -0.514156       -13.9909
  47   2.0000      -0.506762       -13.7897
  48   2.0000      -0.505097       -13.7444
  49   2.0000      -0.496993       -13.5239
  50   2.0000      -0.492050       -13.3894
  51   2.0000      -0.477308       -12.9882
  52   2.0000      -0.474473       -12.9111
  53   2.0000      -0.462070       -12.5736
  54   2.0000      -0.455992       -12.4082
  55   2.0000      -0.452977       -12.3261
  56   2.0000      -0.448534       -12.2052
  57   2.0000      -0.448398       -12.2015
  58   2.0000      -0.436539       -11.8788
  59   2.0000      -0.424081       -11.5398
  60   2.0000      -0.418994       -11.4014
  61   2.0000      -0.414797       -11.2872
  62   2.0000      -0.413777       -11.2594
  63   2.0000      -0.340609        -9.2684
  64   2.0000      -0.327253        -8.9050
  65   2.0000      -0.324413        -8.8277
  66   2.0000      -0.298793        -8.1306
  67   0.0000       0.032434         0.8826
  68   0.0000       0.070159         1.9091
  69   0.0000       0.116735         3.1765
  70   0.0000       0.124872         3.3979
  71   0.0000       0.132925         3.6171

MULLIKEN ATOMIC CHARGES
-----------------------
   0 S :    0.123944
   1 C :   -0.128078
   2 C :   -0.103763
   3 C :    0.024908
   4 C :   -0.178099
   5 H :    0.025044
   6 C :    0.016548
   7 H :    0.021414
   8 H :    0.031945
   9 C :   -0.010529
  10 H :    0.016957
  11 H :    0.022695
  12 C :   -0.060476
  13 H :    0.038184
  14 H :    0.026054
  15 H :    0.040986
  16 S :    0.111593
  17 C :   -0.057811
  18 C :   -0.075771
  19 C :   -0.052946
  20 C :   -0.172827
  21 H :    0.028446
  22 C :    0.116593
  23 H :    0.037210
  24 H :    0.007111
  25 C :   -0.071863
  26 H :    0.021360
  27 H :    0.035914
  28 C :   -0.000873
  29 H :    0.022979
  30 H :    0.019989
  31 H :    0.011022
  32 H :    0.067741
  33 H :    0.044398
Sum of atomic charges:   -0.0000000

LOEWDIN ATOMIC CHARGES
----------------------
   0 S :    0.425192
   1 C :   -0.217247
   2 C :   -0.068868
   3 C :   -0.067378
   4 C :   -0.207067
   5 H :    0.033320
   6 C :   -0.037000
   7 H :    0.035455
   8 H :    0.029702
   9 C :   -0.038732
  10 H :    0.024461
  11 H :    0.021686
  12 C :   -0.068033
  13 H :    0.029175
  14 H :    0.025828
  15 H :    0.026950
  16 S :    0.416896
  17 C :   -0.187757
  18 C :   -0.081366
  19 C :   -0.047733
  20 C :   -0.211550
  21 H :    0.033416
  22 C :   -0.026224
  23 H :    0.039723
  24 H :    0.024914
  25 C :   -0.029293
  26 H :    0.019668
  27 H :    0.024490
  28 C :   -0.053947
  29 H :    0.025187
  30 H :    0.018739
  31 H :    0.019155
  32 H :    0.041041
  33 H :    0.027200

  Mayer bond orders larger than 0.100000
B(  0-S ,  1-C ) :   1.1686 B(  0-S ,  4-C ) :   1.1622 B(  1-C ,  2-C ) :   1.5680
B(  1-C ,  4-C ) :   0.1042 B(  1-C , 32-H ) :   0.9622 B(  2-C ,  3-C ) :   1.2734
B(  2-C ,  6-C ) :   1.0242 B(  3-C ,  4-C ) :   1.5536 B(  3-C ,  5-H ) :   0.9843
B(  4-C , 20-C ) :   1.0282 B(  6-C ,  7-H ) :   0.9400 B(  6-C ,  8-H ) :   0.9442
B(  6-C ,  9-C ) :   1.0618 B(  9-C , 10-H ) :   0.9460 B(  9-C , 11-H ) :   0.9553
B(  9-C , 12-C ) :   1.0816 B( 12-C , 13-H ) :   0.9738 B( 12-C , 14-H ) :   0.9727
B( 12-C , 15-H ) :   0.9733 B( 16-S , 17-C ) :   1.1533 B( 16-S , 20-C ) :   1.1542
B( 17-C , 18-C ) :   1.6098 B( 17-C , 33-H ) :   0.9671 B( 18-C , 19-C ) :   1.2458
B( 18-C , 21-H ) :   0.9788 B( 19-C , 20-C ) :   1.5965 B( 19-C , 22-C ) :   1.0160
B( 22-C , 23-H ) :   0.9248 B( 22-C , 24-H ) :   0.9269 B( 22-C , 25-C ) :   1.0879
B( 25-C , 26-H ) :   0.9494 B( 25-C , 27-H ) :   0.9529 B( 25-C , 28-C ) :   1.0844
B( 28-C , 29-H ) :   0.9741 B( 28-C , 30-H ) :   0.9764 B( 28-C , 31-H ) :   0.9716

Dispersion correction           -0.013406209
FINAL SINGLE POINT ENERGY     -1339.879029335175

DIPOLE MOMENT
-------------
                                X             Y             Z
Electronic contribution:      6.78356       2.45971      30.16738
Nuclear contribution   :     -6.87311      -2.71368     -30.90225
                        -----------------------------------------
Total Dipole Moment    :     -0.08955      -0.25398      -0.73487
                        -----------------------------------------
Magnitude (a.u.)       :      0.78266
Magnitude (Debye)      :      1.98936

Rotational constants in cm-1:     0.016617     0.008419     0.006044
Rotational constants in MHz :   498.158430   252.409383   181.184988

                             ****ORCA TERMINATED NORMALLY****
TOTAL RUN TIME: 0 days 0 hours 0 minutes 33 seconds 550 msec
