                         Program Version 4.2.1 -  RELEASE  -
|  1> ! wB97X-D3 SP def2-SVP
|  2> %pal
|  3> nprocs 16
|  4> end
|  5>
|  6> * xyz 0 1
|  7> S 	 -2.24865 	 -24.8803 	 61.553
|  8> C 	 -3.51406 	 -24.9562 	 60.3967
|  9> C 	 -3.65679 	 -23.7905 	 59.6633
| 10> C 	 -2.74008 	 -22.8044 	 60.1363
| 11> C 	 -1.98006 	 -23.2152 	 61.1716
| 12> H 	 -2.61741 	 -21.7413 	 59.8517
| 13> C 	 -4.7487 	 -23.4163 	 58.7163
| 14> H 	 -5.10628 	 -24.3512 	 58.2277
| 15> H 	 -4.43772 	 -22.8941 	 57.8281
| 16> C 	 -5.95085 	 -22.6857 	 59.3978
| 17> H 	 -6.73446 	 -22.6758 	 58.6715
| 18> H 	 -6.28091 	 -23.1553 	 60.2636
| 19> C 	 -5.88594 	 -21.1594 	 59.6632
| 20> H 	 -5.7437 	 -20.7398 	 58.6873
| 21> H 	 -6.79101 	 -20.7741 	 60.1159
| 22> H 	 -5.05377 	 -20.8194 	 60.2578
| 23> S 	 -0.917091 	 -22.4992 	 63.5673
| 24> C 	 0.270268 	 -21.2626 	 63.6216
| 25> C 	 0.680456 	 -20.8988 	 62.3478
| 26> C 	 0.0324208 	 -21.6185 	 61.3384
| 27> C 	 -0.967957 	 -22.4643 	 61.8461
| 28> H 	 1.54536 	 -20.3145 	 62.2664
| 29> C 	 0.631325 	 -21.5713 	 59.9726
| 30> H 	 0.103917 	 -22.2553 	 59.2958
| 31> H 	 1.58916 	 -22.0884 	 60.0225
| 32> C 	 0.745776 	 -20.2154 	 59.2775
| 33> H 	 1.48338 	 -20.4743 	 58.441
| 34> H 	 1.14907 	 -19.459 	 59.8817
| 35> C 	 -0.550126 	 -19.6188 	 58.6393
| 36> H 	 -1.09494 	 -18.8825 	 59.3452
| 37> H 	 -1.25573 	 -20.3184 	 58.163
| 38> H 	 -0.222191 	 -18.9303 	 57.7922
| 39> H 	 -4.10268 	 -25.8155 	 60.249
| 40> H 	 0.832488 	 -20.804 	 64.4226
| 41> *
| 42>
| 43>                          ****END OF INPUT****

CARTESIAN COORDINATES (ANGSTROEM)
---------------------------------
  S     -2.248650  -24.880300   61.553000
  C     -3.514060  -24.956200   60.396700
  C     -3.656790  -23.790500   59.663300
  C     -2.740080  -22.804400   60.136300
  C     -1.980060  -23.215200   61.171600
  H     -2.617410  -21.741300   59.851700
  C     -4.748700  -23.416300   58.716300
  H     -5.106280  -24.351200   58.227700
  H     -4.437720  -22.894100   57.828100
  C     -5.950850  -22.685700   59.397800
  H     -6.734460  -22.675800   58.671500
  H     -6.280910  -23.155300   60.263600
  C     -5.885940  -21.159400   59.663200
  H     -5.743700  -20.739800   58.687300
  H     -6.791010  -20.774100   60.115900
  H     -5.053770  -20.819400   60.257800
  S     -0.917091  -22.499200   63.567300
  C      0.270268  -21.262600   63.621600
  C      0.680456  -20.898800   62.347800
  C      0.032421  -21.618500   61.338400
  C     -0.967957  -22.464300   61.846100
  H      1.545360  -20.314500   62.266400
  C      0.631325  -21.571300   59.972600
  H      0.103917  -22.255300   59.295800
  H      1.589160  -22.088400   60.022500
  C      0.745776  -20.215400   59.277500
  H      1.483380  -20.474300   58.441000
  H      1.149070  -19.459000   59.881700
  C     -0.550126  -19.618800   58.639300
  H     -1.094940  -18.882500   59.345200
  H     -1.255730  -20.318400   58.163000
  H     -0.222191  -18.930300   57.792200
  H     -4.102680  -25.815500   60.249000
  H      0.832488  -20.804000   64.422600

 Total Charge           Charge          ....    0
 Multiplicity           Mult            ....    1
 Number of Electrons    NEL             ....  134
 Basis Dimension        Dim             ....  322

ORBITAL ENERGIES
----------------

  NO   OCC          E(Eh)            E(eV)
   0   2.0000     -88.968049     -2420.9437
   1   2.0000     -88.963181     -2420.8112
   2   2.0000     -10.320343      -280.8308
   3   2.0000     -10.317440      -280.7518
   4   2.0000     -10.311994      -280.6036
   5   2.0000     -10.307629      -280.4848
   6   2.0000     -10.298698      -280.2418
   7   2.0000     -10.296706      -280.1876
   8   2.0000     -10.294274      -280.1214
   9   2.0000     -10.292372      -280.0697
  10   2.0000     -10.292006      -280.0597
  11   2.0000     -10.287598      -279.9398
  12   2.0000     -10.287002      -279.9236
  13   2.0000     -10.282084      -279.7897
  14   2.0000     -10.279857      -279.7291
  15   2.0000     -10.271303      -279.4964
  16   2.0000      -8.083490      -219.9629
  17   2.0000      -8.079227      -219.8469
  18   2.0000      -6.041874      -164.4078
  19   2.0000      -6.037794      -164.2967
  20   2.0000      -6.037553      -164.2902
  21   2.0000      -6.034470      -164.2063
  22   2.0000      -6.033632      -164.1835
  23   2.0000      -6.030048      -164.0859
  24   2.0000      -1.015609       -27.6361
  25   2.0000      -0.991564       -26.9818
  26   2.0000      -0.910679       -24.7808
  27   2.0000      -0.907978       -24.7073
  28   2.0000      -0.873245       -23.7622
  29   2.0000      -0.852209       -23.1898
  30   2.0000      -0.847132       -23.0516
  31   2.0000      -0.817150       -22.2358
  32   2.0000      -0.785040       -21.3620
  33   2.0000      -0.772468       -21.0199
  34   2.0000      -0.707056       -19.2400
  35   2.0000      -0.702912       -19.1272
  36   2.0000      -0.693982       -18.8842
  37   2.0000      -0.661152       -17.9909
  38   2.0000      -0.645903       -17.5759
  39   2.0000      -0.618534       -16.8312
  40   2.0000      -0.601454       -16.3664
  41   2.0000      -0.578498       -15.7417
  42   2.0000      -0.547369       -14.8947
  43   2.0000      -0.544221       -14.8090
  44   2.0000      -0.539526       -14.6812
  45   2.0000      -0.530853       -14.4452
  46   2.0000      -0.520135       -14.1536
  47   2.0000      -0.512727       -13.9520
  48   2.0000      -0.506562       -13.7842
  49   2.0000      -0.497771       -13.5450
  50   2.0000      -0.489510       -13.3203
  51   2.0000      -0.477098       -12.9825
  52   2.0000      -0.468906       -12.7596
  53   2.0000      -0.465925       -12.6785
  54   2.0000      -0.461930       -12.5698
  55   2.0000      -0.446707       -12.1555
  56   2.0000      -0.443444       -12.0667
  57   2.0000      -0.441948       -12.0260
  58   2.0000      -0.438775       -11.9397
  59   2.0000      -0.425927       -11.5901
  60   2.0000      -0.421608       -11.4725
  61   2.0000      -0.410214       -11.1625
  62   2.0000      -0.407256       -11.0820
  63   2.0000      -0.349464        -9.5094
  64   2.0000      -0.331983        -9.0337
  65   2.0000      -0.329276        -8.9601
  66   2.0000      -0.286861        -7.8059
  67   0.0000       0.032313         0.8793
  68   0.0000       0.076808         2.0901
  69   0.0000       0.113038         3.0759
  70   0.0000       0.122101         3.3225
  71   0.0000       0.130188         3.5426

MULLIKEN ATOMIC CHARGES
-----------------------
   0 S :    0.113870
   1 C :   -0.100217
   2 C :   -0.064289
   3 C :   -0.004496
   4 C :   -0.142469
   5 H :    0.021527
   6 C :    0.067735
   7 H :    0.017274
   8 H :    0.015818
   9 C :   -0.035852
  10 H :    0.018511
  11 H :    0.018206
  12 C :   -0.046700
  13 H :    0.013673
  14 H :    0.036604
  15 H :    0.031555
  16 S :    0.130410
  17 C :   -0.075130
  18 C :   -0.048599
  19 C :   -0.002431
  20 C :   -0.171266
  21 H :    0.001973
  22 C :    0.047899
  23 H :    0.014471
  24 H :    0.039065
  25 C :   -0.062442
  26 H :    0.038896
  27 H :    0.023510
  28 C :   -0.106319
  29 H :    0.052246
  30 H :    0.043182
  31 H :    0.039454
  32 H :    0.025855
  33 H :    0.048476
Sum of atomic charges:    0.0000000

LOEWDIN ATOMIC CHARGES
----------------------
   0 S :    0.419740
   1 C :   -0.196345
   2 C :   -0.063022
   3 C :   -0.065983
   4 C :   -0.201646
   5 H :    0.038471
   6 C :   -0.033637
   7 H :    0.034886
   8 H :    0.028386
   9 C :   -0.026249
  10 H :    0.023801
  11 H :    0.014370
  12 C :   -0.060517
  13 H :    0.019450
  14 H :    0.028151
  15 H :    0.018794
  16 S :    0.440455
  17 C :   -0.199455
  18 C :   -0.068752
  19 C :   -0.059861
  20 C :   -0.214827
  21 H :    0.022185
  22 C :   -0.038921
  23 H :    0.030089
  24 H :    0.038169
  25 C :   -0.038555
  26 H :    0.035530
  27 H :    0.015535
  28 C :   -0.083800
  29 H :    0.035718
  30 H :    0.023089
  31 H :    0.034728
  32 H :    0.017021
  33 H :    0.033004

  Mayer bond orders larger than 0.100000
B(  0-S ,  1-C ) :   1.1447 B(  0-S ,  4-C ) :   1.1464 B(  1-C ,  2-C ) :   1.6080
B(  1-C , 32-H ) :   0.9754 B(  2-C ,  3-C ) :   1.2108 B(  2-C ,  6-C ) :   1.0490
B(  3-C ,  4-C ) :   1.6128 B(  3-C ,  5-H ) :   0.9915 B(  4-C , 20-C ) :   1.0368
B(  6-C ,  7-H ) :   0.9316 B(  6-C ,  8-H ) :   0.9363 B(  6-C ,  9-C ) :   1.0661
B(  9-C , 10-H ) :   0.9568 B(  9-C , 11-H ) :   0.9596 B(  9-C , 12-C ) :   1.0735
B( 12-C , 13-H ) :   0.9779 B( 12-C , 14-H ) :   0.9734 B( 12-C , 15-H ) :   0.9750
B( 16-S , 17-C ) :   1.1696 B( 16-S , 20-C ) :   1.1543 B( 17-C , 18-C ) :   1.5943
B( 17-C , 20-C ) :   0.1049 B( 17-C , 33-H ) :   0.9638 B( 18-C , 19-C ) :   1.2748
B( 18-C , 21-H ) :   0.9911 B( 19-C , 20-C ) :   1.5360 B( 19-C , 22-C ) :   1.0459
B( 22-C , 23-H ) :   0.9302 B( 22-C , 24-H ) :   0.9374 B( 22-C , 25-C ) :   1.0663
B( 25-C , 26-H ) :   0.9569 B( 25-C , 27-H ) :   0.9598 B( 25-C , 28-C ) :   1.0659
B( 28-C , 29-H ) :   0.9756 B( 28-C , 30-H ) :   0.9722 B( 28-C , 31-H ) :   0.9735

Dispersion correction           -0.014809604
FINAL SINGLE POINT ENERGY     -1339.870493914995

DIPOLE MOMENT
-------------
                                X             Y             Z
Electronic contribution:      8.06310     -16.68437      21.10535
Nuclear contribution   :     -7.98129      17.00828     -21.58717
                        -----------------------------------------
Total Dipole Moment    :      0.08180       0.32391      -0.48181
                        -----------------------------------------
Magnitude (a.u.)       :      0.58631
Magnitude (Debye)      :      1.49027

Rotational constants in cm-1:     0.017114     0.009869     0.007662
Rotational constants in MHz :   513.074025   295.861990   229.689521

                             ****ORCA TERMINATED NORMALLY****
TOTAL RUN TIME: 0 days 0 hours 0 minutes 35 seconds 861 msec
