                         Program Version 4.2.1 -  RELEASE  -
|  1> ! wB97X-D3 SP def2-SVP
|  2> %pal
|  3> nprocs 16
|  4> end
|  5>
|  6> * xyz 0 1
|  7> S 	 5.81745 	 -16.7386 	 50.828
|  8> C 	 4.07285 	 -16.7735 	 50.5808
|  9> C 	 3.40331 	 -16.6502 	 51.7398
| 10> C 	 4.27327 	 -16.6005 	 52.8556
| 11> C 	 5.63025 	 -16.7013 	 52.5458
| 12> H 	 4.09892 	 -16.5624 	 53.9297
| 13> C 	 1.91158 	 -16.6719 	 51.9354
| 14> H 	 1.60984 	 -17.1766 	 52.8861
| 15> H 	 1.58744 	 -17.2961 	 51.0988
| 16> C 	 1.32814 	 -15.2823 	 51.8611
| 17> H 	 0.335279 	 -15.3413 	 52.2669
| 18> H 	 1.83376 	 -14.5999 	 52.6118
| 19> C 	 1.32471 	 -14.5469 	 50.5485
| 20> H 	 0.542818 	 -14.9865 	 49.955
| 21> H 	 1.08298 	 -13.5 	 50.6906
| 22> H 	 2.31218 	 -14.5307 	 50.058
| 23> S 	 7.89222 	 -17.9843 	 53.3609
| 24> C 	 9.04091 	 -17.1151 	 54.3447
| 25> C 	 8.47714 	 -15.9482 	 54.776
| 26> C 	 7.19452 	 -15.5777 	 54.1828
| 27> C 	 6.74236 	 -16.6364 	 53.3805
| 28> H 	 9.07142 	 -15.4704 	 55.6111
| 29> C 	 6.4704 	 -14.3158 	 54.5869
| 30> H 	 6.84664 	 -14.0507 	 55.576
| 31> H 	 5.43648 	 -14.5044 	 54.7289
| 32> C 	 6.65497 	 -13.1304 	 53.6612
| 33> H 	 6.0791 	 -13.2877 	 52.7534
| 34> H 	 7.70221 	 -13.0803 	 53.4349
| 35> C 	 6.1526 	 -11.8428 	 54.3182
| 36> H 	 5.08481 	 -11.7885 	 54.3212
| 37> H 	 6.48586 	 -10.8955 	 53.9548
| 38> H 	 6.53662 	 -11.7045 	 55.3248
| 39> H 	 3.63808 	 -16.9014 	 49.5676
| 40> H 	 9.88887 	 -17.4936 	 54.8048
| 41> *
| 42>
| 43>                          ****END OF INPUT****

CARTESIAN COORDINATES (ANGSTROEM)
---------------------------------
  S      5.817450  -16.738600   50.828000
  C      4.072850  -16.773500   50.580800
  C      3.403310  -16.650200   51.739800
  C      4.273270  -16.600500   52.855600
  C      5.630250  -16.701300   52.545800
  H      4.098920  -16.562400   53.929700
  C      1.911580  -16.671900   51.935400
  H      1.609840  -17.176600   52.886100
  H      1.587440  -17.296100   51.098800
  C      1.328140  -15.282300   51.861100
  H      0.335279  -15.341300   52.266900
  H      1.833760  -14.599900   52.611800
  C      1.324710  -14.546900   50.548500
  H      0.542818  -14.986500   49.955000
  H      1.082980  -13.500000   50.690600
  H      2.312180  -14.530700   50.058000
  S      7.892220  -17.984300   53.360900
  C      9.040910  -17.115100   54.344700
  C      8.477140  -15.948200   54.776000
  C      7.194520  -15.577700   54.182800
  C      6.742360  -16.636400   53.380500
  H      9.071420  -15.470400   55.611100
  C      6.470400  -14.315800   54.586900
  H      6.846640  -14.050700   55.576000
  H      5.436480  -14.504400   54.728900
  C      6.654970  -13.130400   53.661200
  H      6.079100  -13.287700   52.753400
  H      7.702210  -13.080300   53.434900
  C      6.152600  -11.842800   54.318200
  H      5.084810  -11.788500   54.321200
  H      6.485860  -10.895500   53.954800
  H      6.536620  -11.704500   55.324800
  H      3.638080  -16.901400   49.567600
  H      9.888870  -17.493600   54.804800

 Total Charge           Charge          ....    0
 Multiplicity           Mult            ....    1
 Number of Electrons    NEL             ....  134
 Basis Dimension        Dim             ....  322

ORBITAL ENERGIES
----------------

  NO   OCC          E(Eh)            E(eV)
   0   2.0000     -88.963610     -2420.8229
   1   2.0000     -88.961516     -2420.7659
   2   2.0000     -10.324804      -280.9522
   3   2.0000     -10.319967      -280.8206
   4   2.0000     -10.313216      -280.6369
   5   2.0000     -10.310499      -280.5630
   6   2.0000     -10.309827      -280.5446
   7   2.0000     -10.297823      -280.2180
   8   2.0000     -10.296173      -280.1731
   9   2.0000     -10.293737      -280.1068
  10   2.0000     -10.291700      -280.0514
  11   2.0000     -10.287039      -279.9246
  12   2.0000     -10.284540      -279.8566
  13   2.0000     -10.281008      -279.7605
  14   2.0000     -10.274578      -279.5855
  15   2.0000     -10.270929      -279.4862
  16   2.0000      -8.078255      -219.8205
  17   2.0000      -8.076732      -219.7791
  18   2.0000      -6.036863      -164.2714
  19   2.0000      -6.035182      -164.2257
  20   2.0000      -6.032705      -164.1582
  21   2.0000      -6.031156      -164.1161
  22   2.0000      -6.028973      -164.0567
  23   2.0000      -6.027515      -164.0170
  24   2.0000      -1.010477       -27.4965
  25   2.0000      -0.984193       -26.7812
  26   2.0000      -0.919126       -25.0107
  27   2.0000      -0.913633       -24.8612
  28   2.0000      -0.877415       -23.8757
  29   2.0000      -0.850731       -23.1496
  30   2.0000      -0.844251       -22.9732
  31   2.0000      -0.814236       -22.1565
  32   2.0000      -0.788338       -21.4518
  33   2.0000      -0.777214       -21.1491
  34   2.0000      -0.716804       -19.5052
  35   2.0000      -0.699923       -19.0459
  36   2.0000      -0.693351       -18.8670
  37   2.0000      -0.656115       -17.8538
  38   2.0000      -0.644287       -17.5319
  39   2.0000      -0.616645       -16.7798
  40   2.0000      -0.597734       -16.2652
  41   2.0000      -0.573811       -15.6142
  42   2.0000      -0.569156       -15.4875
  43   2.0000      -0.548243       -14.9185
  44   2.0000      -0.543865       -14.7993
  45   2.0000      -0.527694       -14.3593
  46   2.0000      -0.523092       -14.2341
  47   2.0000      -0.510316       -13.8864
  48   2.0000      -0.508465       -13.8360
  49   2.0000      -0.501687       -13.6516
  50   2.0000      -0.492062       -13.3897
  51   2.0000      -0.478392       -13.0177
  52   2.0000      -0.473743       -12.8912
  53   2.0000      -0.464720       -12.6457
  54   2.0000      -0.457150       -12.4397
  55   2.0000      -0.448834       -12.2134
  56   2.0000      -0.444847       -12.1049
  57   2.0000      -0.436822       -11.8865
  58   2.0000      -0.427574       -11.6349
  59   2.0000      -0.425978       -11.5915
  60   2.0000      -0.421237       -11.4624
  61   2.0000      -0.418436       -11.3862
  62   2.0000      -0.407677       -11.0934
  63   2.0000      -0.338865        -9.2210
  64   2.0000      -0.333770        -9.0823
  65   2.0000      -0.325615        -8.8604
  66   2.0000      -0.299014        -8.1366
  67   0.0000       0.031316         0.8521
  68   0.0000       0.066815         1.8181
  69   0.0000       0.111537         3.0351
  70   0.0000       0.124912         3.3990
  71   0.0000       0.128264         3.4902

MULLIKEN ATOMIC CHARGES
-----------------------
   0 S :    0.114429
   1 C :   -0.156012
   2 C :   -0.056563
   3 C :    0.025372
   4 C :   -0.168931
   5 H :    0.011194
   6 C :    0.079581
   7 H :    0.038752
   8 H :    0.021433
   9 C :   -0.080237
  10 H :    0.019990
  11 H :    0.021446
  12 C :   -0.033006
  13 H :    0.028154
  14 H :    0.029999
  15 H :    0.040895
  16 S :    0.108472
  17 C :   -0.059604
  18 C :   -0.076253
  19 C :    0.000146
  20 C :   -0.200390
  21 H :    0.038663
  22 C :    0.089547
  23 H :    0.010816
  24 H :    0.007218
  25 C :   -0.042134
  26 H :    0.039502
  27 H :    0.024341
  28 C :   -0.026591
  29 H :    0.026364
  30 H :    0.017085
  31 H :    0.011871
  32 H :    0.061117
  33 H :    0.033333
Sum of atomic charges:   -0.0000000

LOEWDIN ATOMIC CHARGES
----------------------
   0 S :    0.410460
   1 C :   -0.197030
   2 C :   -0.069937
   3 C :   -0.062283
   4 C :   -0.207724
   5 H :    0.031907
   6 C :   -0.029421
   7 H :    0.039030
   8 H :    0.030849
   9 C :   -0.047304
  10 H :    0.020446
  11 H :    0.026542
  12 C :   -0.065275
  13 H :    0.022905
  14 H :    0.028840
  15 H :    0.028861
  16 S :    0.398953
  17 C :   -0.181596
  18 C :   -0.078430
  19 C :   -0.043011
  20 C :   -0.201591
  21 H :    0.040361
  22 C :   -0.027044
  23 H :    0.030901
  24 H :    0.023171
  25 C :   -0.030556
  26 H :    0.028984
  27 H :    0.022750
  28 C :   -0.067444
  29 H :    0.022882
  30 H :    0.023595
  31 H :    0.023572
  32 H :    0.034798
  33 H :    0.018841

  Mayer bond orders larger than 0.100000
B(  0-S ,  1-C ) :   1.1350 B(  0-S ,  4-C ) :   1.1524 B(  1-C ,  2-C ) :   1.6204
B(  1-C , 32-H ) :   0.9634 B(  2-C ,  3-C ) :   1.2195 B(  2-C ,  6-C ) :   1.0088
B(  3-C ,  4-C ) :   1.5819 B(  3-C ,  5-H ) :   0.9986 B(  4-C , 20-C ) :   1.0748
B(  6-C ,  7-H ) :   0.9427 B(  6-C ,  8-H ) :   0.9401 B(  6-C ,  9-C ) :   1.0713
B(  9-C , 10-H ) :   0.9536 B(  9-C , 11-H ) :   0.9535 B(  9-C , 12-C ) :   1.0857
B( 12-C , 13-H ) :   0.9746 B( 12-C , 14-H ) :   0.9693 B( 12-C , 15-H ) :   0.9700
B( 16-S , 17-C ) :   1.1376 B( 16-S , 20-C ) :   1.1396 B( 17-C , 18-C ) :   1.6559
B( 17-C , 33-H ) :   0.9692 B( 18-C , 19-C ) :   1.2101 B( 18-C , 21-H ) :   0.9736
B( 19-C , 20-C ) :   1.5835 B( 19-C , 22-C ) :   1.0422 B( 22-C , 23-H ) :   0.9323
B( 22-C , 24-H ) :   0.9310 B( 22-C , 25-C ) :   1.0659 B( 25-C , 26-H ) :   0.9543
B( 25-C , 27-H ) :   0.9561 B( 25-C , 28-C ) :   1.0831 B( 28-C , 29-H ) :   0.9753
B( 28-C , 30-H ) :   0.9723 B( 28-C , 31-H ) :   0.9707

Dispersion correction           -0.014474390
FINAL SINGLE POINT ENERGY     -1339.878558167651

DIPOLE MOMENT
-------------
                                X             Y             Z
Electronic contribution:     18.41130     -22.13087      -3.73355
Nuclear contribution   :    -18.81455      22.54772       4.13521
                        -----------------------------------------
Total Dipole Moment    :     -0.40325       0.41685       0.40166
                        -----------------------------------------
Magnitude (a.u.)       :      0.70548
Magnitude (Debye)      :      1.79319

Rotational constants in cm-1:     0.018668     0.009233     0.006975
Rotational constants in MHz :   559.652873   276.811157   209.112971

                             ****ORCA TERMINATED NORMALLY****
TOTAL RUN TIME: 0 days 0 hours 0 minutes 31 seconds 982 msec
