                         Program Version 4.2.1 -  RELEASE  -
|  1> ! wB97X-D3 SP def2-SVP
|  2> %pal
|  3> nprocs 16
|  4> end
|  5>
|  6> * xyz 0 1
|  7> S 	 43.751 	 8.14966 	 80.9189
|  8> C 	 44.1846 	 7.65272 	 82.5721
|  9> C 	 44.8687 	 8.65821 	 83.1894
| 10> C 	 45.3238 	 9.6587 	 82.2788
| 11> C 	 44.9205 	 9.44086 	 80.967
| 12> H 	 45.9792 	 10.4419 	 82.5298
| 13> C 	 45.4151 	 8.50189 	 84.6449
| 14> H 	 45.159 	 7.50464 	 84.9417
| 15> H 	 44.8763 	 9.20915 	 85.2863
| 16> C 	 46.938 	 8.60979 	 84.7627
| 17> H 	 47.2412 	 9.54495 	 84.3509
| 18> H 	 47.3519 	 8.67806 	 85.7661
| 19> C 	 47.6296 	 7.5051 	 84.0838
| 20> H 	 47.1788 	 7.36741 	 83.1382
| 21> H 	 48.6929 	 7.6785 	 84.0157
| 22> H 	 47.4152 	 6.59648 	 84.5668
| 23> S 	 45.7383 	 9.24002 	 78.3618
| 24> C 	 45.8208 	 10.5569 	 77.3496
| 25> C 	 45.5838 	 11.6855 	 78.0739
| 26> C 	 45.1576 	 11.5315 	 79.4149
| 27> C 	 45.2099 	 10.1782 	 79.7611
| 28> H 	 45.5044 	 12.5997 	 77.4922
| 29> C 	 44.8314 	 12.6715 	 80.331
| 30> H 	 44.4755 	 12.3393 	 81.322
| 31> H 	 43.8307 	 13.0209 	 80.095
| 32> C 	 45.8758 	 13.845 	 80.6322
| 33> H 	 46.8688 	 13.3987 	 80.6988
| 34> H 	 45.8537 	 14.1353 	 81.6619
| 35> C 	 45.7914 	 15.0802 	 79.7941
| 36> H 	 46.746 	 15.5034 	 79.7835
| 37> H 	 45.2693 	 15.8905 	 80.3694
| 38> H 	 45.3897 	 14.8247 	 78.7616
| 39> H 	 43.7562 	 6.81573 	 83.1081
| 40> H 	 46.1224 	 10.51 	 76.2513
| 41> *
| 42>
| 43>                          ****END OF INPUT****

CARTESIAN COORDINATES (ANGSTROEM)
---------------------------------
  S     43.751000    8.149660   80.918900
  C     44.184600    7.652720   82.572100
  C     44.868700    8.658210   83.189400
  C     45.323800    9.658700   82.278800
  C     44.920500    9.440860   80.967000
  H     45.979200   10.441900   82.529800
  C     45.415100    8.501890   84.644900
  H     45.159000    7.504640   84.941700
  H     44.876300    9.209150   85.286300
  C     46.938000    8.609790   84.762700
  H     47.241200    9.544950   84.350900
  H     47.351900    8.678060   85.766100
  C     47.629600    7.505100   84.083800
  H     47.178800    7.367410   83.138200
  H     48.692900    7.678500   84.015700
  H     47.415200    6.596480   84.566800
  S     45.738300    9.240020   78.361800
  C     45.820800   10.556900   77.349600
  C     45.583800   11.685500   78.073900
  C     45.157600   11.531500   79.414900
  C     45.209900   10.178200   79.761100
  H     45.504400   12.599700   77.492200
  C     44.831400   12.671500   80.331000
  H     44.475500   12.339300   81.322000
  H     43.830700   13.020900   80.095000
  C     45.875800   13.845000   80.632200
  H     46.868800   13.398700   80.698800
  H     45.853700   14.135300   81.661900
  C     45.791400   15.080200   79.794100
  H     46.746000   15.503400   79.783500
  H     45.269300   15.890500   80.369400
  H     45.389700   14.824700   78.761600
  H     43.756200    6.815730   83.108100
  H     46.122400   10.510000   76.251300

 Total Charge           Charge          ....    0
 Multiplicity           Mult            ....    1
 Number of Electrons    NEL             ....  134
 Basis Dimension        Dim             ....  322

ORBITAL ENERGIES
----------------

  NO   OCC          E(Eh)            E(eV)
   0   2.0000     -88.962646     -2420.7967
   1   2.0000     -88.962023     -2420.7797
   2   2.0000     -10.329332      -281.0754
   3   2.0000     -10.325813      -280.9797
   4   2.0000     -10.315763      -280.7062
   5   2.0000     -10.312570      -280.6193
   6   2.0000     -10.306892      -280.4648
   7   2.0000     -10.300703      -280.2964
   8   2.0000     -10.294229      -280.1202
   9   2.0000     -10.293483      -280.0999
  10   2.0000     -10.291702      -280.0515
  11   2.0000     -10.287420      -279.9349
  12   2.0000     -10.286842      -279.9192
  13   2.0000     -10.279630      -279.7229
  14   2.0000     -10.275970      -279.6234
  15   2.0000     -10.258122      -279.1377
  16   2.0000      -8.078477      -219.8265
  17   2.0000      -8.077277      -219.7939
  18   2.0000      -6.036730      -164.2678
  19   2.0000      -6.035791      -164.2422
  20   2.0000      -6.032553      -164.1541
  21   2.0000      -6.031882      -164.1359
  22   2.0000      -6.029551      -164.0724
  23   2.0000      -6.027936      -164.0285
  24   2.0000      -1.013100       -27.5678
  25   2.0000      -0.989084       -26.9143
  26   2.0000      -0.917940       -24.9784
  27   2.0000      -0.906811       -24.6756
  28   2.0000      -0.874443       -23.7948
  29   2.0000      -0.858924       -23.3725
  30   2.0000      -0.841318       -22.8934
  31   2.0000      -0.815426       -22.1889
  32   2.0000      -0.788656       -21.4604
  33   2.0000      -0.775197       -21.0942
  34   2.0000      -0.713194       -19.4070
  35   2.0000      -0.702053       -19.1038
  36   2.0000      -0.691398       -18.8139
  37   2.0000      -0.655127       -17.8269
  38   2.0000      -0.638964       -17.3871
  39   2.0000      -0.625640       -17.0245
  40   2.0000      -0.602780       -16.4025
  41   2.0000      -0.564578       -15.3630
  42   2.0000      -0.562725       -15.3125
  43   2.0000      -0.554480       -15.0882
  44   2.0000      -0.543284       -14.7835
  45   2.0000      -0.534512       -14.5448
  46   2.0000      -0.517822       -14.0906
  47   2.0000      -0.512018       -13.9327
  48   2.0000      -0.507113       -13.7993
  49   2.0000      -0.501155       -13.6371
  50   2.0000      -0.488455       -13.2915
  51   2.0000      -0.481018       -13.0892
  52   2.0000      -0.476462       -12.9652
  53   2.0000      -0.470756       -12.8099
  54   2.0000      -0.458097       -12.4654
  55   2.0000      -0.446833       -12.1589
  56   2.0000      -0.443126       -12.0581
  57   2.0000      -0.441988       -12.0271
  58   2.0000      -0.431777       -11.7492
  59   2.0000      -0.423816       -11.5326
  60   2.0000      -0.414801       -11.2873
  61   2.0000      -0.406113       -11.0509
  62   2.0000      -0.401673       -10.9301
  63   2.0000      -0.345467        -9.4006
  64   2.0000      -0.333701        -9.0805
  65   2.0000      -0.327034        -8.8990
  66   2.0000      -0.295690        -8.0461
  67   0.0000       0.027493         0.7481
  68   0.0000       0.075424         2.0524
  69   0.0000       0.112722         3.0673
  70   0.0000       0.124960         3.4003
  71   0.0000       0.135021         3.6741

MULLIKEN ATOMIC CHARGES
-----------------------
   0 S :    0.106333
   1 C :   -0.121293
   2 C :   -0.108455
   3 C :    0.052796
   4 C :   -0.147310
   5 H :   -0.007050
   6 C :    0.089264
   7 H :    0.001392
   8 H :    0.039379
   9 C :   -0.060286
  10 H :    0.006891
  11 H :    0.020239
  12 C :   -0.003170
  13 H :    0.022959
  14 H :    0.034990
  15 H :    0.005912
  16 S :    0.120444
  17 C :   -0.117134
  18 C :   -0.055196
  19 C :    0.029319
  20 C :   -0.191124
  21 H :    0.016229
  22 C :    0.041868
  23 H :    0.006215
  24 H :    0.023937
  25 C :   -0.056078
  26 H :    0.021987
  27 H :    0.009034
  28 C :   -0.027476
  29 H :    0.015266
  30 H :    0.034576
  31 H :    0.055714
  32 H :    0.050143
  33 H :    0.089685
Sum of atomic charges:   -0.0000000

LOEWDIN ATOMIC CHARGES
----------------------
   0 S :    0.394115
   1 C :   -0.188992
   2 C :   -0.063879
   3 C :   -0.058921
   4 C :   -0.188711
   5 H :    0.021896
   6 C :   -0.018650
   7 H :    0.021768
   8 H :    0.032792
   9 C :   -0.043374
  10 H :    0.014508
  11 H :    0.024514
  12 C :   -0.055102
  13 H :    0.023188
  14 H :    0.028140
  15 H :    0.017830
  16 S :    0.441241
  17 C :   -0.220828
  18 C :   -0.086681
  19 C :   -0.050093
  20 C :   -0.204072
  21 H :    0.028166
  22 C :   -0.046012
  23 H :    0.036987
  24 H :    0.036418
  25 C :   -0.045393
  26 H :    0.026154
  27 H :    0.024048
  28 C :   -0.071239
  29 H :    0.021074
  30 H :    0.034537
  31 H :    0.034889
  32 H :    0.028290
  33 H :    0.051393

  Mayer bond orders larger than 0.100000
B(  0-S ,  1-C ) :   1.1232 B(  0-S ,  4-C ) :   1.1601 B(  1-C ,  2-C ) :   1.6250
B(  1-C , 32-H ) :   0.9663 B(  2-C ,  3-C ) :   1.2193 B(  2-C ,  6-C ) :   1.0145
B(  3-C ,  4-C ) :   1.5716 B(  3-C ,  5-H ) :   1.0088 B(  4-C , 20-C ) :   1.0481
B(  6-C ,  7-H ) :   0.9498 B(  6-C ,  8-H ) :   0.9357 B(  6-C ,  9-C ) :   1.0703
B(  9-C , 10-H ) :   0.9517 B(  9-C , 11-H ) :   0.9510 B(  9-C , 12-C ) :   1.0846
B( 12-C , 13-H ) :   0.9729 B( 12-C , 14-H ) :   0.9697 B( 12-C , 15-H ) :   0.9685
B( 16-S , 17-C ) :   1.1852 B( 16-S , 20-C ) :   1.1643 B( 17-C , 18-C ) :   1.5820
B( 17-C , 33-H ) :   0.9566 B( 18-C , 19-C ) :   1.2615 B( 18-C , 21-H ) :   0.9854
B( 19-C , 20-C ) :   1.5447 B( 19-C , 22-C ) :   1.0665 B( 22-C , 23-H ) :   0.9242
B( 22-C , 24-H ) :   0.9245 B( 22-C , 25-C ) :   1.0420 B( 25-C , 26-H ) :   0.9604
B( 25-C , 27-H ) :   0.9544 B( 25-C , 28-C ) :   1.0756 B( 28-C , 29-H ) :   0.9673
B( 28-C , 30-H ) :   0.9726 B( 28-C , 31-H ) :   0.9778

Dispersion correction           -0.014267536
FINAL SINGLE POINT ENERGY     -1339.855107923279

DIPOLE MOMENT
-------------
                                X             Y             Z
Electronic contribution:    -10.21638     -14.67017     -16.50545
Nuclear contribution   :     10.43642      15.17732      16.87373
                        -----------------------------------------
Total Dipole Moment    :      0.22004       0.50715       0.36829
                        -----------------------------------------
Magnitude (a.u.)       :      0.66427
Magnitude (Debye)      :      1.68843

Rotational constants in cm-1:     0.018501     0.008491     0.006878
Rotational constants in MHz :   554.652067   254.551975   206.207420

                             ****ORCA TERMINATED NORMALLY****
TOTAL RUN TIME: 0 days 0 hours 0 minutes 30 seconds 380 msec
