                         Program Version 4.2.1 -  RELEASE  -
|  1> ! wB97X-D3 SP def2-SVP
|  2> %pal
|  3> nprocs 16
|  4> end
|  5>
|  6> * xyz 0 1
|  7> S 	 12.6727 	 24.9126 	 65.7034
|  8> C 	 12.7069 	 26.4531 	 64.8607
|  9> C 	 12.7849 	 27.5356 	 65.7338
| 10> C 	 12.7219 	 27.1464 	 67.1401
| 11> C 	 12.746 	 25.791 	 67.2747
| 12> H 	 12.7987 	 27.8156 	 67.9368
| 13> C 	 13.0156 	 28.9909 	 65.3199
| 14> H 	 12.4201 	 29.6406 	 65.9437
| 15> H 	 12.6383 	 29.183 	 64.3284
| 16> C 	 14.5186 	 29.4111 	 65.2281
| 17> H 	 14.5168 	 30.5 	 65.2024
| 18> H 	 14.8767 	 29.2013 	 66.243
| 19> C 	 15.2984 	 28.5417 	 64.2101
| 20> H 	 16.2702 	 28.8937 	 64.0136
| 21> H 	 15.6104 	 27.5504 	 64.567
| 22> H 	 14.7004 	 28.3636 	 63.3026
| 23> S 	 11.6666 	 23.5219 	 68.3192
| 24> C 	 11.7496 	 23.086 	 69.9728
| 25> C 	 12.7228 	 23.907 	 70.5745
| 26> C 	 13.1794 	 24.9654 	 69.7589
| 27> C 	 12.633 	 24.9581 	 68.4864
| 28> H 	 12.8826 	 23.7363 	 71.6034
| 29> C 	 14.1497 	 26.0848 	 70.23
| 30> H 	 14.5863 	 26.7123 	 69.4243
| 31> H 	 14.9899 	 25.5002 	 70.6622
| 32> C 	 13.4991 	 26.9705 	 71.3157
| 33> H 	 14.2391 	 27.6731 	 71.7372
| 34> H 	 13.2207 	 26.2392 	 72.0742
| 35> C 	 12.3156 	 27.81 	 70.9117
| 36> H 	 12.6211 	 28.4954 	 70.1219
| 37> H 	 12.0926 	 28.3952 	 71.7875
| 38> H 	 11.361 	 27.2806 	 70.7009
| 39> H 	 12.8628 	 26.5866 	 63.8202
| 40> H 	 11.1042 	 22.422 	 70.5628
| 41> *
| 42>
| 43>                          ****END OF INPUT****

CARTESIAN COORDINATES (ANGSTROEM)
---------------------------------
  S     12.672700   24.912600   65.703400
  C     12.706900   26.453100   64.860700
  C     12.784900   27.535600   65.733800
  C     12.721900   27.146400   67.140100
  C     12.746000   25.791000   67.274700
  H     12.798700   27.815600   67.936800
  C     13.015600   28.990900   65.319900
  H     12.420100   29.640600   65.943700
  H     12.638300   29.183000   64.328400
  C     14.518600   29.411100   65.228100
  H     14.516800   30.500000   65.202400
  H     14.876700   29.201300   66.243000
  C     15.298400   28.541700   64.210100
  H     16.270200   28.893700   64.013600
  H     15.610400   27.550400   64.567000
  H     14.700400   28.363600   63.302600
  S     11.666600   23.521900   68.319200
  C     11.749600   23.086000   69.972800
  C     12.722800   23.907000   70.574500
  C     13.179400   24.965400   69.758900
  C     12.633000   24.958100   68.486400
  H     12.882600   23.736300   71.603400
  C     14.149700   26.084800   70.230000
  H     14.586300   26.712300   69.424300
  H     14.989900   25.500200   70.662200
  C     13.499100   26.970500   71.315700
  H     14.239100   27.673100   71.737200
  H     13.220700   26.239200   72.074200
  C     12.315600   27.810000   70.911700
  H     12.621100   28.495400   70.121900
  H     12.092600   28.395200   71.787500
  H     11.361000   27.280600   70.700900
  H     12.862800   26.586600   63.820200
  H     11.104200   22.422000   70.562800

 Total Charge           Charge          ....    0
 Multiplicity           Mult            ....    1
 Number of Electrons    NEL             ....  134
 Basis Dimension        Dim             ....  322

ORBITAL ENERGIES
----------------

  NO   OCC          E(Eh)            E(eV)
   0   2.0000     -88.966761     -2420.9086
   1   2.0000     -88.962988     -2420.8060
   2   2.0000     -10.336393      -281.2676
   3   2.0000     -10.325906      -280.9822
   4   2.0000     -10.318839      -280.7899
   5   2.0000     -10.311406      -280.5876
   6   2.0000     -10.305325      -280.4222
   7   2.0000     -10.303865      -280.3824
   8   2.0000     -10.296664      -280.1865
   9   2.0000     -10.293332      -280.0958
  10   2.0000     -10.293021      -280.0873
  11   2.0000     -10.292033      -280.0605
  12   2.0000     -10.290384      -280.0156
  13   2.0000     -10.286868      -279.9199
  14   2.0000     -10.279508      -279.7196
  15   2.0000     -10.277350      -279.6609
  16   2.0000      -8.080654      -219.8858
  17   2.0000      -8.078545      -219.8284
  18   2.0000      -6.039409      -164.3407
  19   2.0000      -6.036984      -164.2747
  20   2.0000      -6.035453      -164.2330
  21   2.0000      -6.032731      -164.1590
  22   2.0000      -6.031017      -164.1123
  23   2.0000      -6.029497      -164.0710
  24   2.0000      -1.008381       -27.4395
  25   2.0000      -0.980985       -26.6940
  26   2.0000      -0.909255       -24.7421
  27   2.0000      -0.906745       -24.6738
  28   2.0000      -0.865822       -23.5602
  29   2.0000      -0.852057       -23.1857
  30   2.0000      -0.843421       -22.9506
  31   2.0000      -0.814999       -22.1773
  32   2.0000      -0.784393       -21.3444
  33   2.0000      -0.777116       -21.1464
  34   2.0000      -0.709293       -19.3008
  35   2.0000      -0.697697       -18.9853
  36   2.0000      -0.690923       -18.8010
  37   2.0000      -0.658905       -17.9297
  38   2.0000      -0.641437       -17.4544
  39   2.0000      -0.626405       -17.0454
  40   2.0000      -0.596140       -16.2218
  41   2.0000      -0.568048       -15.4574
  42   2.0000      -0.556543       -15.1443
  43   2.0000      -0.548678       -14.9303
  44   2.0000      -0.547212       -14.8904
  45   2.0000      -0.537015       -14.6129
  46   2.0000      -0.521245       -14.1838
  47   2.0000      -0.510928       -13.9031
  48   2.0000      -0.502933       -13.6855
  49   2.0000      -0.496897       -13.5212
  50   2.0000      -0.488502       -13.2928
  51   2.0000      -0.480470       -13.0742
  52   2.0000      -0.473496       -12.8845
  53   2.0000      -0.466547       -12.6954
  54   2.0000      -0.459493       -12.5035
  55   2.0000      -0.452208       -12.3052
  56   2.0000      -0.442072       -12.0294
  57   2.0000      -0.437033       -11.8923
  58   2.0000      -0.431841       -11.7510
  59   2.0000      -0.423343       -11.5197
  60   2.0000      -0.419655       -11.4194
  61   2.0000      -0.412311       -11.2195
  62   2.0000      -0.403709       -10.9855
  63   2.0000      -0.355921        -9.6851
  64   2.0000      -0.332419        -9.0456
  65   2.0000      -0.327455        -8.9105
  66   2.0000      -0.285817        -7.7775
  67   0.0000       0.028061         0.7636
  68   0.0000       0.066630         1.8131
  69   0.0000       0.102390         2.7862
  70   0.0000       0.119131         3.2417
  71   0.0000       0.131985         3.5915

MULLIKEN ATOMIC CHARGES
-----------------------
   0 S :    0.092690
   1 C :   -0.089252
   2 C :   -0.111310
   3 C :    0.068029
   4 C :   -0.104448
   5 H :   -0.038228
   6 C :    0.042429
   7 H :    0.021807
   8 H :    0.014181
   9 C :   -0.050068
  10 H :    0.035816
  11 H :    0.015861
  12 C :   -0.028500
  13 H :    0.021735
  14 H :    0.037499
  15 H :    0.029849
  16 S :    0.099815
  17 C :   -0.101431
  18 C :   -0.055507
  19 C :   -0.027781
  20 C :   -0.144691
  21 H :    0.007560
  22 C :    0.052407
  23 H :    0.030596
  24 H :    0.035517
  25 C :   -0.088384
  26 H :    0.034817
  27 H :    0.022596
  28 C :   -0.043443
  29 H :    0.036190
  30 H :    0.026373
  31 H :    0.052448
  32 H :    0.033796
  33 H :    0.071033
Sum of atomic charges:   -0.0000000

LOEWDIN ATOMIC CHARGES
----------------------
   0 S :    0.375086
   1 C :   -0.191624
   2 C :   -0.052795
   3 C :   -0.055121
   4 C :   -0.157921
   5 H :    0.018474
   6 C :   -0.033441
   7 H :    0.027234
   8 H :    0.023253
   9 C :   -0.037956
  10 H :    0.025729
  11 H :    0.021919
  12 C :   -0.066222
  13 H :    0.022392
  14 H :    0.035400
  15 H :    0.024447
  16 S :    0.426151
  17 C :   -0.202775
  18 C :   -0.073995
  19 C :   -0.061386
  20 C :   -0.201636
  21 H :    0.022709
  22 C :   -0.033019
  23 H :    0.028013
  24 H :    0.036431
  25 C :   -0.044619
  26 H :    0.027080
  27 H :    0.021917
  28 C :   -0.068377
  29 H :    0.022008
  30 H :    0.028339
  31 H :    0.033630
  32 H :    0.020404
  33 H :    0.040272

  Mayer bond orders larger than 0.100000
B(  0-S ,  1-C ) :   1.1119 B(  0-S ,  4-C ) :   1.1256 B(  1-C ,  2-C ) :   1.6541
B(  1-C , 32-H ) :   0.9662 B(  2-C ,  3-C ) :   1.1973 B(  2-C ,  6-C ) :   1.0331
B(  3-C ,  4-C ) :   1.6131 B(  3-C ,  5-H ) :   0.9983 B(  4-C , 20-C ) :   1.0350
B(  6-C ,  7-H ) :   0.9414 B(  6-C ,  8-H ) :   0.9438 B(  6-C ,  9-C ) :   1.0617
B(  9-C , 10-H ) :   0.9622 B(  9-C , 11-H ) :   0.9561 B(  9-C , 12-C ) :   1.0598
B( 12-C , 13-H ) :   0.9708 B( 12-C , 14-H ) :   0.9672 B( 12-C , 15-H ) :   0.9791
B( 16-S , 17-C ) :   1.1812 B( 16-S , 20-C ) :   1.1520 B( 17-C , 18-C ) :   1.5695
B( 17-C , 20-C ) :   0.1076 B( 17-C , 33-H ) :   0.9673 B( 18-C , 19-C ) :   1.2628
B( 18-C , 21-H ) :   0.9966 B( 19-C , 20-C ) :   1.5671 B( 19-C , 22-C ) :   1.0231
B( 22-C , 23-H ) :   0.9441 B( 22-C , 24-H ) :   0.9355 B( 22-C , 25-C ) :   1.0723
B( 25-C , 26-H ) :   0.9558 B( 25-C , 27-H ) :   0.9538 B( 25-C , 28-C ) :   1.0868
B( 28-C , 29-H ) :   0.9660 B( 28-C , 30-H ) :   0.9665 B( 28-C , 31-H ) :   0.9718

Dispersion correction           -0.015345810
FINAL SINGLE POINT ENERGY     -1339.873093572673

DIPOLE MOMENT
-------------
                                X             Y             Z
Electronic contribution:    -10.23679     -23.82680      -4.70630
Nuclear contribution   :     10.50151      24.40493       5.13881
                        -----------------------------------------
Total Dipole Moment    :      0.26472       0.57813       0.43251
                        -----------------------------------------
Magnitude (a.u.)       :      0.76901
Magnitude (Debye)      :      1.95466

Rotational constants in cm-1:     0.020634     0.009204     0.006999
Rotational constants in MHz :   618.587824   275.937224   209.813219

                             ****ORCA TERMINATED NORMALLY****
TOTAL RUN TIME: 0 days 0 hours 0 minutes 34 seconds 639 msec
