                         Program Version 4.2.1 -  RELEASE  -
|  1> ! wB97X-D3 SP def2-SVP
|  2> %pal
|  3> nprocs 16
|  4> end
|  5>
|  6> * xyz 0 1
|  7> S 	 -51.1465 	 42.3421 	 107.939
|  8> C 	 -50.1042 	 43.6913 	 108.378
|  9> C 	 -50.7289 	 44.9301 	 108.139
| 10> C 	 -52.0844 	 44.7007 	 107.614
| 11> C 	 -52.3353 	 43.4077 	 107.255
| 12> H 	 -52.7763 	 45.4481 	 107.348
| 13> C 	 -50.2448 	 46.3385 	 108.607
| 14> H 	 -50.101 	 46.218 	 109.718
| 15> H 	 -51.144 	 46.9259 	 108.422
| 16> C 	 -49.0938 	 46.9077 	 107.759
| 17> H 	 -48.2672 	 46.2283 	 107.814
| 18> H 	 -49.4189 	 46.9395 	 106.657
| 19> C 	 -48.6612 	 48.2984 	 108.156
| 20> H 	 -49.3114 	 49.0839 	 107.726
| 21> H 	 -48.5196 	 48.4485 	 109.199
| 22> H 	 -47.6393 	 48.396 	 107.708
| 23> S 	 -53.5165 	 43.3825 	 104.741
| 24> C 	 -55.0992 	 42.6499 	 104.601
| 25> C 	 -55.5181 	 42.0588 	 105.765
| 26> C 	 -54.5304 	 42.2076 	 106.781
| 27> C 	 -53.5148 	 43.0196 	 106.475
| 28> H 	 -56.4207 	 41.5194 	 105.545
| 29> C 	 -54.6058 	 41.1855 	 108.027
| 30> H 	 -53.7004 	 41.3922 	 108.583
| 31> H 	 -54.411 	 40.1653 	 107.752
| 32> C 	 -55.9268 	 41.2374 	 108.872
| 33> H 	 -55.7149 	 40.5433 	 109.713
| 34> H 	 -56.6898 	 40.8142 	 108.153
| 35> C 	 -56.4434 	 42.5765 	 109.404
| 36> H 	 -56.3696 	 43.4042 	 108.618
| 37> H 	 -55.9085 	 42.8357 	 110.347
| 38> H 	 -57.4747 	 42.5156 	 109.588
| 39> H 	 -49.1382 	 43.5163 	 108.788
| 40> H 	 -55.5658 	 42.5007 	 103.583
| 41> *
| 42>
| 43>                          ****END OF INPUT****

CARTESIAN COORDINATES (ANGSTROEM)
---------------------------------
  S    -51.146500   42.342100  107.939000
  C    -50.104200   43.691300  108.378000
  C    -50.728900   44.930100  108.139000
  C    -52.084400   44.700700  107.614000
  C    -52.335300   43.407700  107.255000
  H    -52.776300   45.448100  107.348000
  C    -50.244800   46.338500  108.607000
  H    -50.101000   46.218000  109.718000
  H    -51.144000   46.925900  108.422000
  C    -49.093800   46.907700  107.759000
  H    -48.267200   46.228300  107.814000
  H    -49.418900   46.939500  106.657000
  C    -48.661200   48.298400  108.156000
  H    -49.311400   49.083900  107.726000
  H    -48.519600   48.448500  109.199000
  H    -47.639300   48.396000  107.708000
  S    -53.516500   43.382500  104.741000
  C    -55.099200   42.649900  104.601000
  C    -55.518100   42.058800  105.765000
  C    -54.530400   42.207600  106.781000
  C    -53.514800   43.019600  106.475000
  H    -56.420700   41.519400  105.545000
  C    -54.605800   41.185500  108.027000
  H    -53.700400   41.392200  108.583000
  H    -54.411000   40.165300  107.752000
  C    -55.926800   41.237400  108.872000
  H    -55.714900   40.543300  109.713000
  H    -56.689800   40.814200  108.153000
  C    -56.443400   42.576500  109.404000
  H    -56.369600   43.404200  108.618000
  H    -55.908500   42.835700  110.347000
  H    -57.474700   42.515600  109.588000
  H    -49.138200   43.516300  108.788000
  H    -55.565800   42.500700  103.583000

 Total Charge           Charge          ....    0
 Multiplicity           Mult            ....    1
 Number of Electrons    NEL             ....  134
 Basis Dimension        Dim             ....  322

ORBITAL ENERGIES
----------------

  NO   OCC          E(Eh)            E(eV)
   0   2.0000     -88.965215     -2420.8666
   1   2.0000     -88.961977     -2420.7785
   2   2.0000     -10.323683      -280.9217
   3   2.0000     -10.322366      -280.8859
   4   2.0000     -10.319129      -280.7978
   5   2.0000     -10.314765      -280.6790
   6   2.0000     -10.307604      -280.4842
   7   2.0000     -10.304776      -280.4072
   8   2.0000     -10.298586      -280.2388
   9   2.0000     -10.292927      -280.0848
  10   2.0000     -10.292583      -280.0754
  11   2.0000     -10.291482      -280.0455
  12   2.0000     -10.290624      -280.0221
  13   2.0000     -10.289362      -279.9878
  14   2.0000     -10.278181      -279.6835
  15   2.0000     -10.276766      -279.6450
  16   2.0000      -8.079642      -219.8582
  17   2.0000      -8.076851      -219.7823
  18   2.0000      -6.038192      -164.3076
  19   2.0000      -6.035330      -164.2297
  20   2.0000      -6.034199      -164.1989
  21   2.0000      -6.031570      -164.1274
  22   2.0000      -6.030389      -164.0952
  23   2.0000      -6.027384      -164.0135
  24   2.0000      -1.006131       -27.3782
  25   2.0000      -0.981813       -26.7165
  26   2.0000      -0.907468       -24.6935
  27   2.0000      -0.893837       -24.3225
  28   2.0000      -0.869569       -23.6622
  29   2.0000      -0.847587       -23.0640
  30   2.0000      -0.841521       -22.8990
  31   2.0000      -0.815528       -22.1917
  32   2.0000      -0.782879       -21.3032
  33   2.0000      -0.772785       -21.0286
  34   2.0000      -0.701026       -19.0759
  35   2.0000      -0.694767       -18.9056
  36   2.0000      -0.683836       -18.6081
  37   2.0000      -0.654578       -17.8120
  38   2.0000      -0.644064       -17.5259
  39   2.0000      -0.612999       -16.6806
  40   2.0000      -0.589799       -16.0492
  41   2.0000      -0.569367       -15.4933
  42   2.0000      -0.560401       -15.2493
  43   2.0000      -0.546845       -14.8804
  44   2.0000      -0.531515       -14.4633
  45   2.0000      -0.525296       -14.2940
  46   2.0000      -0.519561       -14.1380
  47   2.0000      -0.512033       -13.9331
  48   2.0000      -0.504986       -13.7414
  49   2.0000      -0.494514       -13.4564
  50   2.0000      -0.489635       -13.3237
  51   2.0000      -0.474750       -12.9186
  52   2.0000      -0.468299       -12.7431
  53   2.0000      -0.461987       -12.5713
  54   2.0000      -0.453787       -12.3482
  55   2.0000      -0.447329       -12.1724
  56   2.0000      -0.442484       -12.0406
  57   2.0000      -0.434817       -11.8320
  58   2.0000      -0.432080       -11.7575
  59   2.0000      -0.418897       -11.3988
  60   2.0000      -0.414797       -11.2872
  61   2.0000      -0.408261       -11.1094
  62   2.0000      -0.407553       -11.0901
  63   2.0000      -0.336005        -9.1432
  64   2.0000      -0.332670        -9.0524
  65   2.0000      -0.324159        -8.8208
  66   2.0000      -0.303419        -8.2564
  67   0.0000       0.041774         1.1367
  68   0.0000       0.059686         1.6241
  69   0.0000       0.104574         2.8456
  70   0.0000       0.108258         2.9459
  71   0.0000       0.135724         3.6932

MULLIKEN ATOMIC CHARGES
-----------------------
   0 S :    0.112397
   1 C :   -0.126294
   2 C :   -0.098784
   3 C :    0.041299
   4 C :   -0.159648
   5 H :    0.002318
   6 C :    0.059725
   7 H :    0.056680
   8 H :    0.018667
   9 C :   -0.098656
  10 H :    0.024812
  11 H :    0.046552
  12 C :   -0.031258
  13 H :    0.043049
  14 H :    0.025387
  15 H :    0.033326
  16 S :    0.102829
  17 C :   -0.139282
  18 C :   -0.025199
  19 C :   -0.013039
  20 C :   -0.170420
  21 H :    0.021817
  22 C :    0.085775
  23 H :   -0.001503
  24 H :    0.035897
  25 C :   -0.122765
  26 H :    0.042061
  27 H :    0.038724
  28 C :   -0.036408
  29 H :    0.045200
  30 H :    0.043003
  31 H :    0.022661
  32 H :    0.042270
  33 H :    0.078804
Sum of atomic charges:   -0.0000000

LOEWDIN ATOMIC CHARGES
----------------------
   0 S :    0.406455
   1 C :   -0.192393
   2 C :   -0.057350
   3 C :   -0.057044
   4 C :   -0.200170
   5 H :    0.023277
   6 C :   -0.034347
   7 H :    0.040437
   8 H :    0.028791
   9 C :   -0.045729
  10 H :    0.017802
  11 H :    0.039497
  12 C :   -0.068273
  13 H :    0.029495
  14 H :    0.018804
  15 H :    0.034742
  16 S :    0.390697
  17 C :   -0.183569
  18 C :   -0.081478
  19 C :   -0.053196
  20 C :   -0.194027
  21 H :    0.037593
  22 C :   -0.026407
  23 H :    0.012093
  24 H :    0.031517
  25 C :   -0.048653
  26 H :    0.030635
  27 H :    0.027061
  28 C :   -0.070266
  29 H :    0.035501
  30 H :    0.031347
  31 H :    0.018925
  32 H :    0.019406
  33 H :    0.038829

  Mayer bond orders larger than 0.100000
B(  0-S ,  1-C ) :   1.1427 B(  0-S ,  4-C ) :   1.1357 B(  1-C ,  2-C ) :   1.6033
B(  1-C , 32-H ) :   0.9773 B(  2-C ,  3-C ) :   1.2290 B(  2-C ,  6-C ) :   1.0029
B(  3-C ,  4-C ) :   1.6077 B(  3-C ,  5-H ) :   0.9913 B(  4-C , 20-C ) :   1.0176
B(  6-C ,  7-H ) :   0.9453 B(  6-C ,  8-H ) :   0.9437 B(  6-C ,  9-C ) :   1.0559
B(  9-C , 10-H ) :   0.9634 B(  9-C , 11-H ) :   0.9529 B(  9-C , 12-C ) :   1.0867
B( 12-C , 13-H ) :   0.9754 B( 12-C , 14-H ) :   0.9738 B( 12-C , 15-H ) :   0.9730
B( 16-S , 17-C ) :   1.1545 B( 16-S , 20-C ) :   1.1260 B( 17-C , 18-C ) :   1.6508
B( 17-C , 33-H ) :   0.9557 B( 18-C , 19-C ) :   1.1674 B( 18-C , 21-H ) :   0.9984
B( 19-C , 20-C ) :   1.6712 B( 19-C , 22-C ) :   1.0100 B( 22-C , 23-H ) :   0.9289
B( 22-C , 24-H ) :   0.9494 B( 22-C , 25-C ) :   1.0587 B( 25-C , 26-H ) :   0.9563
B( 25-C , 27-H ) :   0.9586 B( 25-C , 28-C ) :   1.0832 B( 28-C , 29-H ) :   0.9690
B( 28-C , 30-H ) :   0.9755 B( 28-C , 31-H ) :   0.9728

Dispersion correction           -0.013886849
FINAL SINGLE POINT ENERGY     -1339.855319114928

DIPOLE MOMENT
-------------
                                X             Y             Z
Electronic contribution:      0.63837     -11.41558     -13.16118
Nuclear contribution   :     -0.70355      11.48159      13.32580
                        -----------------------------------------
Total Dipole Moment    :     -0.06518       0.06601       0.16462
                        -----------------------------------------
Magnitude (a.u.)       :      0.18896
Magnitude (Debye)      :      0.48029

Rotational constants in cm-1:     0.021898     0.007046     0.006328
Rotational constants in MHz :   656.497519   211.238270   189.717621

                             ****ORCA TERMINATED NORMALLY****
TOTAL RUN TIME: 0 days 0 hours 0 minutes 27 seconds 293 msec
