                         Program Version 4.2.1 -  RELEASE  -
|  1> ! wB97X-D3 SP def2-SVP
|  2> %pal
|  3> nprocs 16
|  4> end
|  5>
|  6> * xyz 0 1
|  7> S 	 -5.6602 	 56.8831 	 28.1539
|  8> C 	 -6.06173 	 55.2533 	 27.7108
|  9> C 	 -5.85496 	 54.3866 	 28.7597
| 10> C 	 -5.67681 	 55.0999 	 30.0324
| 11> C 	 -5.63879 	 56.4463 	 29.9079
| 12> H 	 -5.58696 	 54.634 	 30.9793
| 13> C 	 -5.83919 	 52.8962 	 28.6575
| 14> H 	 -5.03979 	 52.5702 	 29.3132
| 15> H 	 -5.52125 	 52.5733 	 27.6869
| 16> C 	 -7.15859 	 52.1334 	 28.9921
| 17> H 	 -7.5198 	 52.495 	 29.9729
| 18> H 	 -7.91862 	 52.4187 	 28.2397
| 19> C 	 -7.05801 	 50.6254 	 29.0264
| 20> H 	 -6.1068 	 50.2667 	 28.6729
| 21> H 	 -7.0616 	 50.0981 	 29.9664
| 22> H 	 -7.90305 	 50.1618 	 28.5537
| 23> S 	 -4.73135 	 58.8479 	 30.5469
| 24> C 	 -4.74643 	 59.3503 	 32.2388
| 25> C 	 -5.40532 	 58.5203 	 33.0386
| 26> C 	 -5.87503 	 57.3519 	 32.3254
| 27> C 	 -5.58595 	 57.4221 	 30.9319
| 28> H 	 -5.56831 	 58.7478 	 34.0896
| 29> C 	 -6.54453 	 56.1247 	 33.0217
| 30> H 	 -5.78336 	 55.3953 	 33.3054
| 31> H 	 -7.3142 	 55.6554 	 32.4101
| 32> C 	 -7.25128 	 56.3964 	 34.3034
| 33> H 	 -7.94418 	 57.2113 	 34.2559
| 34> H 	 -6.57435 	 56.4686 	 35.1493
| 35> C 	 -8.12831 	 55.2055 	 34.7851
| 36> H 	 -7.44368 	 54.4261 	 35.1046
| 37> H 	 -8.96676 	 54.9949 	 34.1569
| 38> H 	 -8.57457 	 55.5051 	 35.7899
| 39> H 	 -6.31962 	 54.9198 	 26.725
| 40> H 	 -4.25065 	 60.2987 	 32.4981
| 41> *
| 42>
| 43>                          ****END OF INPUT****

CARTESIAN COORDINATES (ANGSTROEM)
---------------------------------
  S     -5.660200   56.883100   28.153900
  C     -6.061730   55.253300   27.710800
  C     -5.854960   54.386600   28.759700
  C     -5.676810   55.099900   30.032400
  C     -5.638790   56.446300   29.907900
  H     -5.586960   54.634000   30.979300
  C     -5.839190   52.896200   28.657500
  H     -5.039790   52.570200   29.313200
  H     -5.521250   52.573300   27.686900
  C     -7.158590   52.133400   28.992100
  H     -7.519800   52.495000   29.972900
  H     -7.918620   52.418700   28.239700
  C     -7.058010   50.625400   29.026400
  H     -6.106800   50.266700   28.672900
  H     -7.061600   50.098100   29.966400
  H     -7.903050   50.161800   28.553700
  S     -4.731350   58.847900   30.546900
  C     -4.746430   59.350300   32.238800
  C     -5.405320   58.520300   33.038600
  C     -5.875030   57.351900   32.325400
  C     -5.585950   57.422100   30.931900
  H     -5.568310   58.747800   34.089600
  C     -6.544530   56.124700   33.021700
  H     -5.783360   55.395300   33.305400
  H     -7.314200   55.655400   32.410100
  C     -7.251280   56.396400   34.303400
  H     -7.944180   57.211300   34.255900
  H     -6.574350   56.468600   35.149300
  C     -8.128310   55.205500   34.785100
  H     -7.443680   54.426100   35.104600
  H     -8.966760   54.994900   34.156900
  H     -8.574570   55.505100   35.789900
  H     -6.319620   54.919800   26.725000
  H     -4.250650   60.298700   32.498100

 Total Charge           Charge          ....    0
 Multiplicity           Mult            ....    1
 Number of Electrons    NEL             ....  134
 Basis Dimension        Dim             ....  322

ORBITAL ENERGIES
----------------

  NO   OCC          E(Eh)            E(eV)
   0   2.0000     -88.962749     -2420.7995
   1   2.0000     -88.960653     -2420.7424
   2   2.0000     -10.327188      -281.0171
   3   2.0000     -10.324415      -280.9416
   4   2.0000     -10.315785      -280.7068
   5   2.0000     -10.311801      -280.5984
   6   2.0000     -10.311658      -280.5945
   7   2.0000     -10.300758      -280.2979
   8   2.0000     -10.295261      -280.1483
   9   2.0000     -10.294197      -280.1193
  10   2.0000     -10.290287      -280.0129
  11   2.0000     -10.290049      -280.0065
  12   2.0000     -10.289006      -279.9781
  13   2.0000     -10.282612      -279.8041
  14   2.0000     -10.281881      -279.7842
  15   2.0000     -10.271983      -279.5149
  16   2.0000      -8.078716      -219.8330
  17   2.0000      -8.075228      -219.7381
  18   2.0000      -6.037157      -164.2794
  19   2.0000      -6.034029      -164.1943
  20   2.0000      -6.033152      -164.1704
  21   2.0000      -6.029996      -164.0845
  22   2.0000      -6.029380      -164.0678
  23   2.0000      -6.025456      -163.9610
  24   2.0000      -1.009992       -27.4833
  25   2.0000      -0.982556       -26.7367
  26   2.0000      -0.916049       -24.9270
  27   2.0000      -0.909646       -24.7527
  28   2.0000      -0.879556       -23.9339
  29   2.0000      -0.852989       -23.2110
  30   2.0000      -0.844114       -22.9695
  31   2.0000      -0.820460       -22.3258
  32   2.0000      -0.782941       -21.3049
  33   2.0000      -0.770652       -20.9705
  34   2.0000      -0.708829       -19.2882
  35   2.0000      -0.701877       -19.0990
  36   2.0000      -0.694140       -18.8885
  37   2.0000      -0.657653       -17.8957
  38   2.0000      -0.637789       -17.3551
  39   2.0000      -0.623565       -16.9681
  40   2.0000      -0.603011       -16.4088
  41   2.0000      -0.590139       -16.0585
  42   2.0000      -0.566586       -15.4176
  43   2.0000      -0.557197       -15.1621
  44   2.0000      -0.528165       -14.3721
  45   2.0000      -0.526417       -14.3245
  46   2.0000      -0.518953       -14.1214
  47   2.0000      -0.512196       -13.9376
  48   2.0000      -0.505668       -13.7599
  49   2.0000      -0.502431       -13.6719
  50   2.0000      -0.492584       -13.4039
  51   2.0000      -0.488978       -13.3058
  52   2.0000      -0.475830       -12.9480
  53   2.0000      -0.463077       -12.6010
  54   2.0000      -0.454771       -12.3749
  55   2.0000      -0.453578       -12.3425
  56   2.0000      -0.446220       -12.1423
  57   2.0000      -0.435885       -11.8610
  58   2.0000      -0.433080       -11.7847
  59   2.0000      -0.427566       -11.6347
  60   2.0000      -0.414766       -11.2864
  61   2.0000      -0.410873       -11.1804
  62   2.0000      -0.408776       -11.1234
  63   2.0000      -0.368234       -10.0202
  64   2.0000      -0.334772        -9.1096
  65   2.0000      -0.320858        -8.7310
  66   2.0000      -0.280948        -7.6450
  67   0.0000       0.023212         0.6316
  68   0.0000       0.076040         2.0692
  69   0.0000       0.103401         2.8137
  70   0.0000       0.121801         3.3144
  71   0.0000       0.133775         3.6402

MULLIKEN ATOMIC CHARGES
-----------------------
   0 S :    0.087693
   1 C :   -0.100741
   2 C :   -0.088406
   3 C :   -0.006631
   4 C :   -0.093404
   5 H :   -0.005291
   6 C :    0.073566
   7 H :    0.022654
   8 H :    0.010379
   9 C :   -0.072559
  10 H :    0.027788
  11 H :    0.033568
  12 C :   -0.021358
  13 H :    0.016773
  14 H :    0.017790
  15 H :    0.030380
  16 S :    0.086751
  17 C :   -0.093053
  18 C :   -0.011662
  19 C :   -0.064963
  20 C :   -0.107886
  21 H :    0.027778
  22 C :    0.056394
  23 H :    0.041331
  24 H :    0.037869
  25 C :   -0.097263
  26 H :    0.028952
  27 H :    0.024199
  28 C :   -0.067792
  29 H :    0.030041
  30 H :    0.043907
  31 H :    0.029804
  32 H :    0.039284
  33 H :    0.064105
Sum of atomic charges:   -0.0000000

LOEWDIN ATOMIC CHARGES
----------------------
   0 S :    0.365138
   1 C :   -0.187771
   2 C :   -0.059553
   3 C :   -0.056516
   4 C :   -0.169326
   5 H :    0.025449
   6 C :   -0.033829
   7 H :    0.031539
   8 H :    0.024478
   9 C :   -0.040681
  10 H :    0.024797
  11 H :    0.028140
  12 C :   -0.074159
  13 H :    0.023727
  14 H :    0.026664
  15 H :    0.028298
  16 S :    0.411597
  17 C :   -0.174648
  18 C :   -0.072060
  19 C :   -0.051822
  20 C :   -0.206435
  21 H :    0.039337
  22 C :   -0.038609
  23 H :    0.033745
  24 H :    0.033851
  25 C :   -0.044488
  26 H :    0.019553
  27 H :    0.022036
  28 C :   -0.063395
  29 H :    0.023381
  30 H :    0.019996
  31 H :    0.033302
  32 H :    0.026435
  33 H :    0.031830

  Mayer bond orders larger than 0.100000
B(  0-S ,  1-C ) :   1.1215 B(  0-S ,  4-C ) :   1.0939 B(  1-C ,  2-C ) :   1.6465
B(  1-C , 32-H ) :   0.9705 B(  2-C ,  3-C ) :   1.1775 B(  2-C ,  6-C ) :   1.0410
B(  3-C ,  4-C ) :   1.6214 B(  3-C ,  5-H ) :   0.9999 B(  4-C , 20-C ) :   1.0968
B(  6-C ,  7-H ) :   0.9352 B(  6-C ,  8-H ) :   0.9343 B(  6-C ,  9-C ) :   1.0666
B(  9-C , 10-H ) :   0.9598 B(  9-C , 11-H ) :   0.9620 B(  9-C , 12-C ) :   1.0652
B( 12-C , 13-H ) :   0.9746 B( 12-C , 14-H ) :   0.9713 B( 12-C , 15-H ) :   0.9759
B( 16-S , 17-C ) :   1.1475 B( 16-S , 20-C ) :   1.1419 B( 17-C , 18-C ) :   1.6191
B( 17-C , 33-H ) :   0.9627 B( 18-C , 19-C ) :   1.2331 B( 18-C , 21-H ) :   0.9937
B( 19-C , 20-C ) :   1.5829 B( 19-C , 22-C ) :   1.0272 B( 22-C , 23-H ) :   0.9225
B( 22-C , 24-H ) :   0.9447 B( 22-C , 25-C ) :   1.0818 B( 25-C , 26-H ) :   0.9581
B( 25-C , 27-H ) :   0.9460 B( 25-C , 28-C ) :   1.0933 B( 28-C , 29-H ) :   0.9752
B( 28-C , 30-H ) :   0.9747 B( 28-C , 31-H ) :   0.9732

Dispersion correction           -0.013204924
FINAL SINGLE POINT ENERGY     -1339.867190138529

DIPOLE MOMENT
-------------
                                X             Y             Z
Electronic contribution:     12.75832      27.46399     -14.54828
Nuclear contribution   :    -12.89352     -28.04892      15.14106
                        -----------------------------------------
Total Dipole Moment    :     -0.13519      -0.58493       0.59278
                        -----------------------------------------
Magnitude (a.u.)       :      0.84369
Magnitude (Debye)      :      2.14449

Rotational constants in cm-1:     0.016142     0.009037     0.006014
Rotational constants in MHz :   483.932639   270.927105   180.282196

                             ****ORCA TERMINATED NORMALLY****
TOTAL RUN TIME: 0 days 0 hours 0 minutes 32 seconds 575 msec
