                         Program Version 4.2.1 -  RELEASE  -
|  1> ! wB97X-D3 SP def2-SVP
|  2> %pal
|  3> nprocs 16
|  4> end
|  5>
|  6> * xyz 0 1
|  7> S 	 -52.3837 	 28.7816 	 92.2213
|  8> C 	 -52.4536 	 27.4699 	 93.3017
|  9> C 	 -52.8753 	 26.3044 	 92.6882
| 10> C 	 -53.331 	 26.5059 	 91.3585
| 11> C 	 -53.1266 	 27.8337 	 90.9587
| 12> H 	 -53.7896 	 25.8028 	 90.7191
| 13> C 	 -53.0836 	 24.9759 	 93.3226
| 14> H 	 -52.5209 	 24.8973 	 94.2783
| 15> H 	 -52.5933 	 24.298 	 92.6592
| 16> C 	 -54.5405 	 24.5347 	 93.6628
| 17> H 	 -54.9583 	 23.9424 	 92.7982
| 18> H 	 -54.4391 	 23.683 	 94.3828
| 19> C 	 -55.5239 	 25.4658 	 94.2565
| 20> H 	 -55.311 	 25.7131 	 95.3185
| 21> H 	 -55.739 	 26.2623 	 93.5795
| 22> H 	 -56.5118 	 24.9688 	 94.2823
| 23> S 	 -52.2819 	 29.1511 	 88.6431
| 24> C 	 -53.5521 	 29.4887 	 87.4275
| 25> C 	 -54.8257 	 29.1743 	 87.8677
| 26> C 	 -54.8299 	 28.533 	 89.1766
| 27> C 	 -53.5332 	 28.4439 	 89.6971
| 28> H 	 -55.5744 	 29.4413 	 87.1182
| 29> C 	 -56.091 	 27.8924 	 89.7203
| 30> H 	 -55.9146 	 26.8203 	 89.5986
| 31> H 	 -56.8906 	 28.2207 	 89.0377
| 32> C 	 -56.5498 	 28.2715 	 91.1467
| 33> H 	 -56.739 	 29.3834 	 91.1759
| 34> H 	 -55.6897 	 28.1889 	 91.8032
| 35> C 	 -57.8282 	 27.5142 	 91.5876
| 36> H 	 -57.8126 	 26.4796 	 91.725
| 37> H 	 -58.5808 	 27.5954 	 90.8256
| 38> H 	 -58.2137 	 27.9089 	 92.542
| 39> H 	 -52.2472 	 27.5185 	 94.3374
| 40> H 	 -53.164 	 29.8157 	 86.5117
| 41> *
| 42>
| 43>                          ****END OF INPUT****

CARTESIAN COORDINATES (ANGSTROEM)
---------------------------------
  S    -52.383700   28.781600   92.221300
  C    -52.453600   27.469900   93.301700
  C    -52.875300   26.304400   92.688200
  C    -53.331000   26.505900   91.358500
  C    -53.126600   27.833700   90.958700
  H    -53.789600   25.802800   90.719100
  C    -53.083600   24.975900   93.322600
  H    -52.520900   24.897300   94.278300
  H    -52.593300   24.298000   92.659200
  C    -54.540500   24.534700   93.662800
  H    -54.958300   23.942400   92.798200
  H    -54.439100   23.683000   94.382800
  C    -55.523900   25.465800   94.256500
  H    -55.311000   25.713100   95.318500
  H    -55.739000   26.262300   93.579500
  H    -56.511800   24.968800   94.282300
  S    -52.281900   29.151100   88.643100
  C    -53.552100   29.488700   87.427500
  C    -54.825700   29.174300   87.867700
  C    -54.829900   28.533000   89.176600
  C    -53.533200   28.443900   89.697100
  H    -55.574400   29.441300   87.118200
  C    -56.091000   27.892400   89.720300
  H    -55.914600   26.820300   89.598600
  H    -56.890600   28.220700   89.037700
  C    -56.549800   28.271500   91.146700
  H    -56.739000   29.383400   91.175900
  H    -55.689700   28.188900   91.803200
  C    -57.828200   27.514200   91.587600
  H    -57.812600   26.479600   91.725000
  H    -58.580800   27.595400   90.825600
  H    -58.213700   27.908900   92.542000
  H    -52.247200   27.518500   94.337400
  H    -53.164000   29.815700   86.511700

 Total Charge           Charge          ....    0
 Multiplicity           Mult            ....    1
 Number of Electrons    NEL             ....  134
 Basis Dimension        Dim             ....  322

ORBITAL ENERGIES
----------------

  NO   OCC          E(Eh)            E(eV)
   0   2.0000     -88.966944     -2420.9136
   1   2.0000     -88.962100     -2420.7818
   2   2.0000     -10.327396      -281.0227
   3   2.0000     -10.327008      -281.0122
   4   2.0000     -10.317253      -280.7467
   5   2.0000     -10.310177      -280.5542
   6   2.0000     -10.306066      -280.4423
   7   2.0000     -10.301020      -280.3050
   8   2.0000     -10.294967      -280.1403
   9   2.0000     -10.294443      -280.1260
  10   2.0000     -10.291016      -280.0328
  11   2.0000     -10.290806      -280.0271
  12   2.0000     -10.289339      -279.9871
  13   2.0000     -10.288778      -279.9719
  14   2.0000     -10.276687      -279.6429
  15   2.0000     -10.275254      -279.6039
  16   2.0000      -8.082391      -219.9330
  17   2.0000      -8.076261      -219.7662
  18   2.0000      -6.040714      -164.3762
  19   2.0000      -6.036710      -164.2672
  20   2.0000      -6.034689      -164.2122
  21   2.0000      -6.033403      -164.1772
  22   2.0000      -6.030994      -164.1117
  23   2.0000      -6.027008      -164.0032
  24   2.0000      -1.005377       -27.3577
  25   2.0000      -0.978403       -26.6237
  26   2.0000      -0.911163       -24.7940
  27   2.0000      -0.903373       -24.5820
  28   2.0000      -0.867431       -23.6040
  29   2.0000      -0.855706       -23.2850
  30   2.0000      -0.846982       -23.0476
  31   2.0000      -0.814453       -22.1624
  32   2.0000      -0.785807       -21.3829
  33   2.0000      -0.773160       -21.0387
  34   2.0000      -0.712350       -19.3840
  35   2.0000      -0.695688       -18.9306
  36   2.0000      -0.691210       -18.8088
  37   2.0000      -0.662634       -18.0312
  38   2.0000      -0.644269       -17.5315
  39   2.0000      -0.615959       -16.7611
  40   2.0000      -0.589945       -16.0532
  41   2.0000      -0.566458       -15.4141
  42   2.0000      -0.561204       -15.2711
  43   2.0000      -0.556490       -15.1429
  44   2.0000      -0.542802       -14.7704
  45   2.0000      -0.524105       -14.2616
  46   2.0000      -0.515160       -14.0182
  47   2.0000      -0.510962       -13.9040
  48   2.0000      -0.506623       -13.7859
  49   2.0000      -0.497158       -13.5283
  50   2.0000      -0.491426       -13.3724
  51   2.0000      -0.482845       -13.1389
  52   2.0000      -0.471911       -12.8413
  53   2.0000      -0.465907       -12.6780
  54   2.0000      -0.459774       -12.5111
  55   2.0000      -0.450369       -12.2552
  56   2.0000      -0.442651       -12.0451
  57   2.0000      -0.436882       -11.8882
  58   2.0000      -0.431710       -11.7474
  59   2.0000      -0.425388       -11.5754
  60   2.0000      -0.416136       -11.3236
  61   2.0000      -0.411618       -11.2007
  62   2.0000      -0.403642       -10.9836
  63   2.0000      -0.341690        -9.2979
  64   2.0000      -0.331143        -9.0109
  65   2.0000      -0.328404        -8.9363
  66   2.0000      -0.290962        -7.9175
  67   0.0000       0.036261         0.9867
  68   0.0000       0.060373         1.6428
  69   0.0000       0.110561         3.0085
  70   0.0000       0.121519         3.3067
  71   0.0000       0.124517         3.3883

MULLIKEN ATOMIC CHARGES
-----------------------
   0 S :    0.133631
   1 C :   -0.104723
   2 C :   -0.089418
   3 C :    0.042000
   4 C :   -0.181563
   5 H :   -0.003067
   6 C :    0.092241
   7 H :    0.015949
   8 H :    0.025692
   9 C :   -0.122802
  10 H :    0.024169
  11 H :    0.025236
  12 C :   -0.006703
  13 H :    0.040688
  14 H :    0.029810
  15 H :    0.023960
  16 S :    0.086642
  17 C :   -0.101276
  18 C :   -0.027097
  19 C :   -0.018601
  20 C :   -0.162960
  21 H :    0.032876
  22 C :    0.057702
  23 H :    0.042875
  24 H :    0.022120
  25 C :   -0.083242
  26 H :    0.034360
  27 H :    0.046344
  28 C :   -0.009948
  29 H :    0.012291
  30 H :    0.014474
  31 H :    0.035719
  32 H :    0.029230
  33 H :    0.043390
Sum of atomic charges:    0.0000000

LOEWDIN ATOMIC CHARGES
----------------------
   0 S :    0.434005
   1 C :   -0.209176
   2 C :   -0.067304
   3 C :   -0.052770
   4 C :   -0.197487
   5 H :    0.025699
   6 C :   -0.036535
   7 H :    0.030514
   8 H :    0.032762
   9 C :   -0.054175
  10 H :    0.025215
  11 H :    0.028300
  12 C :   -0.069190
  13 H :    0.031500
  14 H :    0.023928
  15 H :    0.034464
  16 S :    0.366526
  17 C :   -0.156515
  18 C :   -0.072189
  19 C :   -0.050405
  20 C :   -0.194952
  21 H :    0.040259
  22 C :   -0.033957
  23 H :    0.034048
  24 H :    0.032252
  25 C :   -0.040516
  26 H :    0.033648
  27 H :    0.021149
  28 C :   -0.064340
  29 H :    0.015290
  30 H :    0.023592
  31 H :    0.031957
  32 H :    0.021349
  33 H :    0.013057

  Mayer bond orders larger than 0.100000
B(  0-S ,  1-C ) :   1.1504 B(  0-S ,  4-C ) :   1.1697 B(  1-C ,  2-C ) :   1.5882
B(  1-C , 32-H ) :   0.9715 B(  2-C ,  3-C ) :   1.2325 B(  2-C ,  6-C ) :   1.0436
B(  3-C ,  4-C ) :   1.5537 B(  3-C ,  5-H ) :   1.0107 B(  4-C , 20-C ) :   1.0312
B(  6-C ,  7-H ) :   0.9402 B(  6-C ,  8-H ) :   0.9325 B(  6-C ,  9-C ) :   1.0595
B(  9-C , 10-H ) :   0.9524 B(  9-C , 11-H ) :   0.9538 B(  9-C , 12-C ) :   1.0993
B( 12-C , 13-H ) :   0.9698 B( 12-C , 14-H ) :   0.9642 B( 12-C , 15-H ) :   0.9601
B( 16-S , 17-C ) :   1.1414 B( 16-S , 20-C ) :   1.1358 B( 17-C , 18-C ) :   1.6308
B( 17-C , 33-H ) :   0.9771 B( 18-C , 19-C ) :   1.1906 B( 18-C , 21-H ) :   0.9899
B( 19-C , 20-C ) :   1.6161 B( 19-C , 22-C ) :   1.0329 B( 22-C , 23-H ) :   0.9366
B( 22-C , 24-H ) :   0.9318 B( 22-C , 25-C ) :   1.0586 B( 25-C , 26-H ) :   0.9494
B( 25-C , 27-H ) :   0.9601 B( 25-C , 28-C ) :   1.0726 B( 28-C , 29-H ) :   0.9741
B( 28-C , 30-H ) :   0.9696 B( 28-C , 31-H ) :   0.9745

Dispersion correction           -0.016417796
FINAL SINGLE POINT ENERGY     -1339.875451606442

DIPOLE MOMENT
-------------
                                X             Y             Z
Electronic contribution:     23.23120      16.09018     -13.45844
Nuclear contribution   :    -23.81171     -16.54959      13.51545
                        -----------------------------------------
Total Dipole Moment    :     -0.58051      -0.45941       0.05701
                        -----------------------------------------
Magnitude (a.u.)       :      0.74249
Magnitude (Debye)      :      1.88727

Rotational constants in cm-1:     0.019497     0.010157     0.007642
Rotational constants in MHz :   584.500989   304.493472   229.102737

                             ****ORCA TERMINATED NORMALLY****
TOTAL RUN TIME: 0 days 0 hours 0 minutes 32 seconds 698 msec
