                         Program Version 4.2.1 -  RELEASE  -
|  1> ! wB97X-D3 SP def2-SVP
|  2> %pal
|  3> nprocs 16
|  4> end
|  5>
|  6> * xyz 0 1
|  7> S 	 -94.0634 	 58.4254 	 126.174
|  8> C 	 -92.4323 	 57.7572 	 126.247
|  9> C 	 -91.9608 	 57.8102 	 127.571
| 10> C 	 -92.9085 	 58.2547 	 128.524
| 11> C 	 -94.1293 	 58.5564 	 127.94
| 12> H 	 -92.928 	 58.227 	 129.576
| 13> C 	 -90.5044 	 57.5159 	 127.953
| 14> H 	 -90.2155 	 58.3743 	 128.644
| 15> H 	 -90.0227 	 57.5801 	 126.938
| 16> C 	 -90.1774 	 56.1184 	 128.574
| 17> H 	 -91.0837 	 55.6134 	 128.97
| 18> H 	 -89.7006 	 55.5229 	 127.791
| 19> C 	 -89.1224 	 56.2677 	 129.705
| 20> H 	 -88.7823 	 55.3501 	 130.092
| 21> H 	 -88.2656 	 56.8533 	 129.308
| 22> H 	 -89.5839 	 56.7962 	 130.476
| 23> S 	 -96.8509 	 58.4817 	 127.985
| 24> C 	 -97.6794 	 59.5099 	 129.074
| 25> C 	 -96.8431 	 60.1201 	 129.999
| 26> C 	 -95.4532 	 59.8069 	 129.754
| 27> C 	 -95.3247 	 58.9859 	 128.646
| 28> H 	 -97.2248 	 60.8092 	 130.76
| 29> C 	 -94.4123 	 60.5503 	 130.573
| 30> H 	 -94.8285 	 61.5602 	 130.691
| 31> H 	 -93.5192 	 60.588 	 129.923
| 32> C 	 -94.1933 	 59.9906 	 131.911
| 33> H 	 -93.6783 	 58.9753 	 131.852
| 34> H 	 -95.1392 	 59.6892 	 132.472
| 35> C 	 -93.3598 	 60.9742 	 132.694
| 36> H 	 -93.0947 	 60.7553 	 133.678
| 37> H 	 -93.6497 	 62.1088 	 132.605
| 38> H 	 -92.3372 	 60.9976 	 132.277
| 39> H 	 -91.8015 	 57.3939 	 125.398
| 40> H 	 -98.742 	 59.5547 	 128.998
| 41> *
| 42>
| 43>                          ****END OF INPUT****

CARTESIAN COORDINATES (ANGSTROEM)
---------------------------------
  S    -94.063400   58.425400  126.174000
  C    -92.432300   57.757200  126.247000
  C    -91.960800   57.810200  127.571000
  C    -92.908500   58.254700  128.524000
  C    -94.129300   58.556400  127.940000
  H    -92.928000   58.227000  129.576000
  C    -90.504400   57.515900  127.953000
  H    -90.215500   58.374300  128.644000
  H    -90.022700   57.580100  126.938000
  C    -90.177400   56.118400  128.574000
  H    -91.083700   55.613400  128.970000
  H    -89.700600   55.522900  127.791000
  C    -89.122400   56.267700  129.705000
  H    -88.782300   55.350100  130.092000
  H    -88.265600   56.853300  129.308000
  H    -89.583900   56.796200  130.476000
  S    -96.850900   58.481700  127.985000
  C    -97.679400   59.509900  129.074000
  C    -96.843100   60.120100  129.999000
  C    -95.453200   59.806900  129.754000
  C    -95.324700   58.985900  128.646000
  H    -97.224800   60.809200  130.760000
  C    -94.412300   60.550300  130.573000
  H    -94.828500   61.560200  130.691000
  H    -93.519200   60.588000  129.923000
  C    -94.193300   59.990600  131.911000
  H    -93.678300   58.975300  131.852000
  H    -95.139200   59.689200  132.472000
  C    -93.359800   60.974200  132.694000
  H    -93.094700   60.755300  133.678000
  H    -93.649700   62.108800  132.605000
  H    -92.337200   60.997600  132.277000
  H    -91.801500   57.393900  125.398000
  H    -98.742000   59.554700  128.998000

 Total Charge           Charge          ....    0
 Multiplicity           Mult            ....    1
 Number of Electrons    NEL             ....  134
 Basis Dimension        Dim             ....  322

ORBITAL ENERGIES
----------------

  NO   OCC          E(Eh)            E(eV)
   0   2.0000     -88.967948     -2420.9409
   1   2.0000     -88.964990     -2420.8605
   2   2.0000     -10.329651      -281.0841
   3   2.0000     -10.324710      -280.9496
   4   2.0000     -10.318480      -280.7801
   5   2.0000     -10.314510      -280.6721
   6   2.0000     -10.303625      -280.3759
   7   2.0000     -10.302660      -280.3496
   8   2.0000     -10.299679      -280.2685
   9   2.0000     -10.297077      -280.1977
  10   2.0000     -10.297025      -280.1963
  11   2.0000     -10.293169      -280.0914
  12   2.0000     -10.290162      -280.0095
  13   2.0000     -10.288633      -279.9679
  14   2.0000     -10.282652      -279.8052
  15   2.0000     -10.272104      -279.5182
  16   2.0000      -8.081770      -219.9161
  17   2.0000      -8.080968      -219.8943
  18   2.0000      -6.040340      -164.3660
  19   2.0000      -6.039282      -164.3372
  20   2.0000      -6.036435      -164.2597
  21   2.0000      -6.035340      -164.2299
  22   2.0000      -6.032486      -164.1523
  23   2.0000      -6.031830      -164.1344
  24   2.0000      -1.008721       -27.4487
  25   2.0000      -0.982082       -26.7238
  26   2.0000      -0.924367       -25.1533
  27   2.0000      -0.903384       -24.5823
  28   2.0000      -0.868057       -23.6210
  29   2.0000      -0.857394       -23.3309
  30   2.0000      -0.846513       -23.0348
  31   2.0000      -0.812686       -22.1143
  32   2.0000      -0.783609       -21.3231
  33   2.0000      -0.765811       -20.8388
  34   2.0000      -0.705155       -19.1882
  35   2.0000      -0.696985       -18.9659
  36   2.0000      -0.694254       -18.8916
  37   2.0000      -0.667734       -18.1700
  38   2.0000      -0.638867       -17.3845
  39   2.0000      -0.616236       -16.7686
  40   2.0000      -0.600589       -16.3429
  41   2.0000      -0.569693       -15.5021
  42   2.0000      -0.562798       -15.3145
  43   2.0000      -0.557374       -15.1669
  44   2.0000      -0.532776       -14.4976
  45   2.0000      -0.525286       -14.2938
  46   2.0000      -0.520886       -14.1740
  47   2.0000      -0.513963       -13.9857
  48   2.0000      -0.501859       -13.6563
  49   2.0000      -0.496436       -13.5087
  50   2.0000      -0.491169       -13.3654
  51   2.0000      -0.478991       -13.0340
  52   2.0000      -0.470441       -12.8014
  53   2.0000      -0.462903       -12.5962
  54   2.0000      -0.454920       -12.3790
  55   2.0000      -0.453105       -12.3296
  56   2.0000      -0.450708       -12.2644
  57   2.0000      -0.439963       -11.9720
  58   2.0000      -0.434426       -11.8213
  59   2.0000      -0.426913       -11.6169
  60   2.0000      -0.418080       -11.3765
  61   2.0000      -0.414692       -11.2843
  62   2.0000      -0.409040       -11.1305
  63   2.0000      -0.352995        -9.6055
  64   2.0000      -0.332890        -9.0584
  65   2.0000      -0.329654        -8.9704
  66   2.0000      -0.284940        -7.7536
  67   0.0000       0.025263         0.6875
  68   0.0000       0.080067         2.1787
  69   0.0000       0.105294         2.8652
  70   0.0000       0.115462         3.1419
  71   0.0000       0.125951         3.4273

MULLIKEN ATOMIC CHARGES
-----------------------
   0 S :    0.110013
   1 C :   -0.138305
   2 C :   -0.089499
   3 C :    0.032835
   4 C :   -0.142353
   5 H :   -0.013210
   6 C :    0.015402
   7 H :    0.049884
   8 H :    0.029680
   9 C :   -0.064453
  10 H :    0.046464
  11 H :    0.033446
  12 C :   -0.039865
  13 H :    0.023854
  14 H :    0.036721
  15 H :    0.020014
  16 S :    0.114025
  17 C :   -0.089637
  18 C :   -0.030923
  19 C :   -0.043522
  20 C :   -0.160094
  21 H :    0.027391
  22 C :    0.055258
  23 H :    0.028242
  24 H :    0.038339
  25 C :   -0.089334
  26 H :    0.036227
  27 H :    0.044370
  28 C :   -0.034279
  29 H :    0.018272
  30 H :    0.042646
  31 H :    0.016321
  32 H :    0.066072
  33 H :    0.049997
Sum of atomic charges:   -0.0000000

LOEWDIN ATOMIC CHARGES
----------------------
   0 S :    0.390575
   1 C :   -0.213625
   2 C :   -0.063195
   3 C :   -0.070336
   4 C :   -0.175515
   5 H :    0.024436
   6 C :   -0.039429
   7 H :    0.039067
   8 H :    0.036439
   9 C :   -0.040892
  10 H :    0.027486
  11 H :    0.024845
  12 C :   -0.056589
  13 H :    0.017771
  14 H :    0.029637
  15 H :    0.014372
  16 S :    0.423398
  17 C :   -0.187729
  18 C :   -0.070524
  19 C :   -0.052391
  20 C :   -0.207185
  21 H :    0.034720
  22 C :   -0.033042
  23 H :    0.035111
  24 H :    0.035619
  25 C :   -0.052534
  26 H :    0.030882
  27 H :    0.032242
  28 C :   -0.076792
  29 H :    0.015005
  30 H :    0.037773
  31 H :    0.029528
  32 H :    0.040360
  33 H :    0.020511

  Mayer bond orders larger than 0.100000
B(  0-S ,  1-C ) :   1.1212 B(  0-S ,  4-C ) :   1.1496 B(  1-C ,  2-C ) :   1.6120
B(  1-C , 32-H ) :   0.9598 B(  2-C ,  3-C ) :   1.2275 B(  2-C ,  6-C ) :   1.0166
B(  3-C ,  4-C ) :   1.5725 B(  3-C ,  5-H ) :   1.0007 B(  4-C , 20-C ) :   1.0668
B(  6-C ,  7-H ) :   0.9542 B(  6-C ,  8-H ) :   0.9405 B(  6-C ,  9-C ) :   1.0299
B(  9-C , 10-H ) :   0.9677 B(  9-C , 11-H ) :   0.9596 B(  9-C , 12-C ) :   1.0762
B( 12-C , 13-H ) :   0.9744 B( 12-C , 14-H ) :   0.9765 B( 12-C , 15-H ) :   0.9799
B( 16-S , 17-C ) :   1.1668 B( 16-S , 20-C ) :   1.1423 B( 17-C , 18-C ) :   1.5926
B( 17-C , 33-H ) :   0.9739 B( 18-C , 19-C ) :   1.2397 B( 18-C , 21-H ) :   0.9890
B( 19-C , 20-C ) :   1.5905 B( 19-C , 22-C ) :   1.0300 B( 22-C , 23-H ) :   0.9377
B( 22-C , 24-H ) :   0.9277 B( 22-C , 25-C ) :   1.0648 B( 25-C , 26-H ) :   0.9405
B( 25-C , 27-H ) :   0.9557 B( 25-C , 28-C ) :   1.0765 B( 28-C , 29-H ) :   0.9721
B( 28-C , 30-H ) :   0.9728 B( 28-C , 31-H ) :   0.9637

Dispersion correction           -0.013713931
FINAL SINGLE POINT ENERGY     -1339.871491614672

DIPOLE MOMENT
-------------
                                X             Y             Z
Electronic contribution:    -23.82713      -0.75405     -21.37167
Nuclear contribution   :     24.16238       0.86866      21.89081
                        -----------------------------------------
Total Dipole Moment    :      0.33525       0.11461       0.51914
                        -----------------------------------------
Magnitude (a.u.)       :      0.62852
Magnitude (Debye)      :      1.59757

Rotational constants in cm-1:     0.016363     0.009285     0.006402
Rotational constants in MHz :   490.550922   278.353518   191.933655

                             ****ORCA TERMINATED NORMALLY****
TOTAL RUN TIME: 0 days 0 hours 0 minutes 32 seconds 306 msec
