                         Program Version 4.2.1 -  RELEASE  -
|  1> ! wB97X-D3 SP def2-SVP
|  2> %pal
|  3> nprocs 16
|  4> end
|  5>
|  6> * xyz 0 1
|  7> S 	 -38.0318 	 74.3093 	 152.547
|  8> C 	 -37.2161 	 75.8406 	 152.255
|  9> C 	 -35.9226 	 75.8558 	 152.826
| 10> C 	 -35.6484 	 74.6166 	 153.511
| 11> C 	 -36.6174 	 73.6796 	 153.393
| 12> H 	 -34.7895 	 74.3619 	 154.053
| 13> C 	 -34.8811 	 76.937 	 152.636
| 14> H 	 -35.4284 	 77.7607 	 152.185
| 15> H 	 -34.2173 	 76.4629 	 151.879
| 16> C 	 -34.1632 	 77.3532 	 153.928
| 17> H 	 -34.9527 	 77.5228 	 154.685
| 18> H 	 -33.5825 	 76.4535 	 154.247
| 19> C 	 -33.3316 	 78.6364 	 153.739
| 20> H 	 -32.7818 	 79.0221 	 154.665
| 21> H 	 -32.5922 	 78.6872 	 153.007
| 22> H 	 -34.022 	 79.4516 	 153.387
| 23> S 	 -37.2412 	 71.119 	 153.01
| 24> C 	 -37.1498 	 69.963 	 154.317
| 25> C 	 -36.541 	 70.5013 	 155.411
| 26> C 	 -36.358 	 71.9096 	 155.306
| 27> C 	 -36.6651 	 72.3706 	 154.026
| 28> H 	 -36.4519 	 69.9578 	 156.335
| 29> C 	 -35.907 	 72.6919 	 156.557
| 30> H 	 -36.3582 	 72.1977 	 157.442
| 31> H 	 -36.2775 	 73.7579 	 156.463
| 32> C 	 -34.3846 	 72.7054 	 156.77
| 33> H 	 -33.9924 	 73.0846 	 155.848
| 34> H 	 -33.9413 	 71.6431 	 156.874
| 35> C 	 -33.8755 	 73.434 	 158.017
| 36> H 	 -34.2589 	 73.01 	 158.97
| 37> H 	 -33.9215 	 74.4964 	 157.89
| 38> H 	 -32.7787 	 73.2463 	 158.022
| 39> H 	 -37.6832 	 76.6418 	 151.676
| 40> H 	 -37.7264 	 69.0333 	 154.298
| 41> *
| 42>
| 43>                          ****END OF INPUT****

CARTESIAN COORDINATES (ANGSTROEM)
---------------------------------
  S    -38.031800   74.309300  152.547000
  C    -37.216100   75.840600  152.255000
  C    -35.922600   75.855800  152.826000
  C    -35.648400   74.616600  153.511000
  C    -36.617400   73.679600  153.393000
  H    -34.789500   74.361900  154.053000
  C    -34.881100   76.937000  152.636000
  H    -35.428400   77.760700  152.185000
  H    -34.217300   76.462900  151.879000
  C    -34.163200   77.353200  153.928000
  H    -34.952700   77.522800  154.685000
  H    -33.582500   76.453500  154.247000
  C    -33.331600   78.636400  153.739000
  H    -32.781800   79.022100  154.665000
  H    -32.592200   78.687200  153.007000
  H    -34.022000   79.451600  153.387000
  S    -37.241200   71.119000  153.010000
  C    -37.149800   69.963000  154.317000
  C    -36.541000   70.501300  155.411000
  C    -36.358000   71.909600  155.306000
  C    -36.665100   72.370600  154.026000
  H    -36.451900   69.957800  156.335000
  C    -35.907000   72.691900  156.557000
  H    -36.358200   72.197700  157.442000
  H    -36.277500   73.757900  156.463000
  C    -34.384600   72.705400  156.770000
  H    -33.992400   73.084600  155.848000
  H    -33.941300   71.643100  156.874000
  C    -33.875500   73.434000  158.017000
  H    -34.258900   73.010000  158.970000
  H    -33.921500   74.496400  157.890000
  H    -32.778700   73.246300  158.022000
  H    -37.683200   76.641800  151.676000
  H    -37.726400   69.033300  154.298000

 Total Charge           Charge          ....    0
 Multiplicity           Mult            ....    1
 Number of Electrons    NEL             ....  134
 Basis Dimension        Dim             ....  322

ORBITAL ENERGIES
----------------

  NO   OCC          E(Eh)            E(eV)
   0   2.0000     -88.964718     -2420.8531
   1   2.0000     -88.962549     -2420.7940
   2   2.0000     -10.325813      -280.9796
   3   2.0000     -10.323227      -280.9093
   4   2.0000     -10.318903      -280.7916
   5   2.0000     -10.314369      -280.6683
   6   2.0000     -10.306307      -280.4489
   7   2.0000     -10.303944      -280.3846
   8   2.0000     -10.299228      -280.2563
   9   2.0000     -10.298676      -280.2412
  10   2.0000     -10.295519      -280.1553
  11   2.0000     -10.291441      -280.0443
  12   2.0000     -10.290622      -280.0221
  13   2.0000     -10.288795      -279.9723
  14   2.0000     -10.286073      -279.8983
  15   2.0000     -10.283140      -279.8185
  16   2.0000      -8.079167      -219.8453
  17   2.0000      -8.078387      -219.8241
  18   2.0000      -6.037708      -164.2944
  19   2.0000      -6.036818      -164.2702
  20   2.0000      -6.033742      -164.1865
  21   2.0000      -6.032671      -164.1573
  22   2.0000      -6.029880      -164.0814
  23   2.0000      -6.029232      -164.0637
  24   2.0000      -1.010043       -27.4847
  25   2.0000      -0.983591       -26.7649
  26   2.0000      -0.912883       -24.8408
  27   2.0000      -0.906147       -24.6575
  28   2.0000      -0.870489       -23.6872
  29   2.0000      -0.852666       -23.2022
  30   2.0000      -0.845591       -23.0097
  31   2.0000      -0.817545       -22.2465
  32   2.0000      -0.781162       -21.2565
  33   2.0000      -0.769620       -20.9424
  34   2.0000      -0.711065       -19.3491
  35   2.0000      -0.695072       -18.9139
  36   2.0000      -0.686007       -18.6672
  37   2.0000      -0.665791       -18.1171
  38   2.0000      -0.644243       -17.5307
  39   2.0000      -0.622127       -16.9289
  40   2.0000      -0.594329       -16.1725
  41   2.0000      -0.570684       -15.5291
  42   2.0000      -0.567894       -15.4532
  43   2.0000      -0.555742       -15.1225
  44   2.0000      -0.523707       -14.2508
  45   2.0000      -0.518221       -14.1015
  46   2.0000      -0.515548       -14.0288
  47   2.0000      -0.514199       -13.9921
  48   2.0000      -0.509542       -13.8653
  49   2.0000      -0.501360       -13.6427
  50   2.0000      -0.494151       -13.4465
  51   2.0000      -0.480354       -13.0711
  52   2.0000      -0.475455       -12.9378
  53   2.0000      -0.465375       -12.6635
  54   2.0000      -0.456074       -12.4104
  55   2.0000      -0.450891       -12.2694
  56   2.0000      -0.447767       -12.1844
  57   2.0000      -0.434797       -11.8314
  58   2.0000      -0.427830       -11.6419
  59   2.0000      -0.425470       -11.5776
  60   2.0000      -0.424545       -11.5524
  61   2.0000      -0.418778       -11.3955
  62   2.0000      -0.414426       -11.2771
  63   2.0000      -0.348147        -9.4736
  64   2.0000      -0.331214        -9.0128
  65   2.0000      -0.328459        -8.9378
  66   2.0000      -0.291584        -7.9344
  67   0.0000       0.030136         0.8200
  68   0.0000       0.075456         2.0533
  69   0.0000       0.112532         3.0622
  70   0.0000       0.120404         3.2764
  71   0.0000       0.123319         3.3557

MULLIKEN ATOMIC CHARGES
-----------------------
   0 S :    0.107070
   1 C :   -0.136689
   2 C :   -0.095746
   3 C :    0.031664
   4 C :   -0.110649
   5 H :   -0.028596
   6 C :    0.068084
   7 H :    0.012487
   8 H :    0.057253
   9 C :   -0.091610
  10 H :    0.044234
  11 H :    0.043386
  12 C :   -0.045492
  13 H :    0.045371
  14 H :    0.015774
  15 H :    0.028861
  16 S :    0.103240
  17 C :   -0.102995
  18 C :   -0.018330
  19 C :   -0.040370
  20 C :   -0.172312
  21 H :    0.015751
  22 C :    0.056826
  23 H :    0.023133
  24 H :    0.043100
  25 C :   -0.109154
  26 H :    0.016223
  27 H :    0.033759
  28 C :   -0.027949
  29 H :    0.045018
  30 H :    0.031858
  31 H :    0.031493
  32 H :    0.055717
  33 H :    0.069590
Sum of atomic charges:   -0.0000000

LOEWDIN ATOMIC CHARGES
----------------------
   0 S :    0.392253
   1 C :   -0.200741
   2 C :   -0.057792
   3 C :   -0.062014
   4 C :   -0.187350
   5 H :    0.019583
   6 C :   -0.033824
   7 H :    0.026518
   8 H :    0.042245
   9 C :   -0.043467
  10 H :    0.032402
  11 H :    0.027192
  12 C :   -0.074158
  13 H :    0.035683
  14 H :    0.014385
  15 H :    0.032178
  16 S :    0.420411
  17 C :   -0.187769
  18 C :   -0.067657
  19 C :   -0.057989
  20 C :   -0.211261
  21 H :    0.030378
  22 C :   -0.034309
  23 H :    0.030149
  24 H :    0.037713
  25 C :   -0.048489
  26 H :    0.014583
  27 H :    0.030995
  28 C :   -0.068636
  29 H :    0.031356
  30 H :    0.021434
  31 H :    0.033168
  32 H :    0.029441
  33 H :    0.033391

  Mayer bond orders larger than 0.100000
B(  0-S ,  1-C ) :   1.1333 B(  0-S ,  4-C ) :   1.1415 B(  1-C ,  2-C ) :   1.6080
B(  1-C , 32-H ) :   0.9676 B(  2-C ,  3-C ) :   1.2048 B(  2-C ,  6-C ) :   1.0230
B(  3-C ,  4-C ) :   1.6127 B(  3-C ,  5-H ) :   1.0092 B(  4-C , 20-C ) :   1.0200
B(  6-C ,  7-H ) :   0.9389 B(  6-C ,  8-H ) :   0.9359 B(  6-C ,  9-C ) :   1.0533
B(  9-C , 10-H ) :   0.9609 B(  9-C , 11-H ) :   0.9506 B(  9-C , 12-C ) :   1.0764
B( 12-C , 13-H ) :   0.9756 B( 12-C , 14-H ) :   0.9760 B( 12-C , 15-H ) :   0.9717
B( 16-S , 17-C ) :   1.1530 B( 16-S , 20-C ) :   1.1581 B( 17-C , 18-C ) :   1.6048
B( 17-C , 33-H ) :   0.9659 B( 18-C , 19-C ) :   1.2539 B( 18-C , 21-H ) :   0.9849
B( 19-C , 20-C ) :   1.5848 B( 19-C , 22-C ) :   1.0440 B( 22-C , 23-H ) :   0.9322
B( 22-C , 24-H ) :   0.9357 B( 22-C , 25-C ) :   1.0631 B( 25-C , 26-H ) :   0.9520
B( 25-C , 27-H ) :   0.9549 B( 25-C , 28-C ) :   1.0860 B( 28-C , 29-H ) :   0.9719
B( 28-C , 30-H ) :   0.9736 B( 28-C , 31-H ) :   0.9716

Dispersion correction           -0.013993443
FINAL SINGLE POINT ENERGY     -1339.884808106946

DIPOLE MOMENT
-------------
                                X             Y             Z
Electronic contribution:    -21.78826     -17.78648     -16.85969
Nuclear contribution   :     22.19899      18.09094      17.27688
                        -----------------------------------------
Total Dipole Moment    :      0.41074       0.30446       0.41720
                        -----------------------------------------
Magnitude (a.u.)       :      0.65989
Magnitude (Debye)      :      1.67730

Rotational constants in cm-1:     0.016676     0.009467     0.006398
Rotational constants in MHz :   499.936576   283.806587   191.800940

                             ****ORCA TERMINATED NORMALLY****
TOTAL RUN TIME: 0 days 0 hours 0 minutes 33 seconds 462 msec
