                         Program Version 4.2.1 -  RELEASE  -
|  1> ! wB97X-D3 SP def2-SVP
|  2> %pal
|  3> nprocs 16
|  4> end
|  5>
|  6> * xyz 0 1
|  7> S 	 0.36253 	 25.6978 	 36.5047
|  8> C 	 0.188042 	 24.9609 	 34.9172
|  9> C 	 -0.155242 	 25.7892 	 33.8777
| 10> C 	 -0.390053 	 27.1004 	 34.4318
| 11> C 	 -0.291782 	 27.1772 	 35.8301
| 12> H 	 -0.666102 	 27.9828 	 33.8285
| 13> C 	 -0.340173 	 25.584 	 32.3965
| 14> H 	 -1.41509 	 25.4194 	 32.2797
| 15> H 	 0.0636166 	 24.6582 	 32.0598
| 16> C 	 0.206327 	 26.6037 	 31.3008
| 17> H 	 -0.362299 	 27.5353 	 31.2668
| 18> H 	 1.21791 	 26.7008 	 31.7607
| 19> C 	 0.342332 	 25.8835 	 29.9086
| 20> H 	 -0.526544 	 25.3098 	 29.685
| 21> H 	 0.546613 	 26.684 	 29.1404
| 22> H 	 1.09215 	 25.0995 	 30.0397
| 23> S 	 -1.47462 	 28.0897 	 38.1544
| 24> C 	 -1.87927 	 29.7618 	 38.3942
| 25> C 	 -1.36317 	 30.4783 	 37.339
| 26> C 	 -0.69883 	 29.7338 	 36.3409
| 27> C 	 -0.716495 	 28.3491 	 36.5751
| 28> H 	 -1.3851 	 31.5278 	 37.3147
| 29> C 	 -0.103997 	 30.4365 	 35.1464
| 30> H 	 -0.94064 	 30.8369 	 34.5258
| 31> H 	 0.392844 	 29.6573 	 34.583
| 32> C 	 0.764413 	 31.6554 	 35.4904
| 33> H 	 0.156774 	 32.5326 	 35.8635
| 34> H 	 1.24786 	 31.9802 	 34.5191
| 35> C 	 1.86101 	 31.4199 	 36.512
| 36> H 	 1.4964 	 30.8806 	 37.3831
| 37> H 	 2.34183 	 32.3475 	 36.7568
| 38> H 	 2.59072 	 30.7932 	 36.0273
| 39> H 	 0.307704 	 23.9086 	 34.6704
| 40> H 	 -2.54231 	 30.2275 	 39.1266
| 41> *
| 42>
| 43>                          ****END OF INPUT****

CARTESIAN COORDINATES (ANGSTROEM)
---------------------------------
  S      0.362530   25.697800   36.504700
  C      0.188042   24.960900   34.917200
  C     -0.155242   25.789200   33.877700
  C     -0.390053   27.100400   34.431800
  C     -0.291782   27.177200   35.830100
  H     -0.666102   27.982800   33.828500
  C     -0.340173   25.584000   32.396500
  H     -1.415090   25.419400   32.279700
  H      0.063617   24.658200   32.059800
  C      0.206327   26.603700   31.300800
  H     -0.362299   27.535300   31.266800
  H      1.217910   26.700800   31.760700
  C      0.342332   25.883500   29.908600
  H     -0.526544   25.309800   29.685000
  H      0.546613   26.684000   29.140400
  H      1.092150   25.099500   30.039700
  S     -1.474620   28.089700   38.154400
  C     -1.879270   29.761800   38.394200
  C     -1.363170   30.478300   37.339000
  C     -0.698830   29.733800   36.340900
  C     -0.716495   28.349100   36.575100
  H     -1.385100   31.527800   37.314700
  C     -0.103997   30.436500   35.146400
  H     -0.940640   30.836900   34.525800
  H      0.392844   29.657300   34.583000
  C      0.764413   31.655400   35.490400
  H      0.156774   32.532600   35.863500
  H      1.247860   31.980200   34.519100
  C      1.861010   31.419900   36.512000
  H      1.496400   30.880600   37.383100
  H      2.341830   32.347500   36.756800
  H      2.590720   30.793200   36.027300
  H      0.307704   23.908600   34.670400
  H     -2.542310   30.227500   39.126600

 Total Charge           Charge          ....    0
 Multiplicity           Mult            ....    1
 Number of Electrons    NEL             ....  134
 Basis Dimension        Dim             ....  322

ORBITAL ENERGIES
----------------

  NO   OCC          E(Eh)            E(eV)
   0   2.0000     -88.974421     -2421.1171
   1   2.0000     -88.962395     -2420.7898
   2   2.0000     -10.333472      -281.1881
   3   2.0000     -10.330260      -281.1007
   4   2.0000     -10.316892      -280.7369
   5   2.0000     -10.314391      -280.6688
   6   2.0000     -10.303683      -280.3775
   7   2.0000     -10.301266      -280.3117
   8   2.0000     -10.299435      -280.2619
   9   2.0000     -10.295963      -280.1674
  10   2.0000     -10.295754      -280.1617
  11   2.0000     -10.292535      -280.0741
  12   2.0000     -10.291830      -280.0549
  13   2.0000     -10.290168      -280.0097
  14   2.0000     -10.285079      -279.8712
  15   2.0000     -10.267090      -279.3817
  16   2.0000      -8.088506      -220.0994
  17   2.0000      -8.077094      -219.7889
  18   2.0000      -6.047172      -164.5519
  19   2.0000      -6.043372      -164.4485
  20   2.0000      -6.038874      -164.3261
  21   2.0000      -6.035645      -164.2383
  22   2.0000      -6.031496      -164.1253
  23   2.0000      -6.027910      -164.0278
  24   2.0000      -1.005515       -27.3615
  25   2.0000      -0.984119       -26.7793
  26   2.0000      -0.911089       -24.7920
  27   2.0000      -0.908750       -24.7284
  28   2.0000      -0.870855       -23.6972
  29   2.0000      -0.852862       -23.2076
  30   2.0000      -0.843572       -22.9548
  31   2.0000      -0.810035       -22.0422
  32   2.0000      -0.784124       -21.3371
  33   2.0000      -0.775562       -21.1041
  34   2.0000      -0.711577       -19.3630
  35   2.0000      -0.698939       -19.0191
  36   2.0000      -0.691847       -18.8261
  37   2.0000      -0.657454       -17.8902
  38   2.0000      -0.634934       -17.2774
  39   2.0000      -0.621575       -16.9139
  40   2.0000      -0.592658       -16.1270
  41   2.0000      -0.574379       -15.6296
  42   2.0000      -0.566206       -15.4072
  43   2.0000      -0.553580       -15.0637
  44   2.0000      -0.540423       -14.7056
  45   2.0000      -0.526738       -14.3333
  46   2.0000      -0.522099       -14.2070
  47   2.0000      -0.508520       -13.8375
  48   2.0000      -0.503041       -13.6884
  49   2.0000      -0.497865       -13.5476
  50   2.0000      -0.488249       -13.2859
  51   2.0000      -0.483877       -13.1670
  52   2.0000      -0.468237       -12.7414
  53   2.0000      -0.464115       -12.6292
  54   2.0000      -0.459270       -12.4974
  55   2.0000      -0.454506       -12.3677
  56   2.0000      -0.440445       -11.9851
  57   2.0000      -0.436928       -11.8894
  58   2.0000      -0.435040       -11.8380
  59   2.0000      -0.431919       -11.7531
  60   2.0000      -0.417332       -11.3562
  61   2.0000      -0.415694       -11.3116
  62   2.0000      -0.407458       -11.0875
  63   2.0000      -0.354137        -9.6366
  64   2.0000      -0.332679        -9.0526
  65   2.0000      -0.327402        -8.9091
  66   2.0000      -0.282200        -7.6790
  67   0.0000       0.023259         0.6329
  68   0.0000       0.075839         2.0637
  69   0.0000       0.103166         2.8073
  70   0.0000       0.122923         3.3449
  71   0.0000       0.131876         3.5885

MULLIKEN ATOMIC CHARGES
-----------------------
   0 S :    0.137733
   1 C :   -0.124179
   2 C :   -0.064464
   3 C :   -0.030640
   4 C :   -0.124529
   5 H :    0.025731
   6 C :    0.054303
   7 H :    0.041766
   8 H :   -0.006539
   9 C :   -0.108400
  10 H :    0.049725
  11 H :    0.049372
  12 C :   -0.047190
  13 H :    0.028216
  14 H :    0.059986
  15 H :    0.035620
  16 S :    0.089797
  17 C :   -0.078580
  18 C :   -0.025397
  19 C :   -0.077802
  20 C :   -0.154185
  21 H :   -0.005635
  22 C :    0.086240
  23 H :    0.046533
  24 H :    0.020068
  25 C :   -0.133089
  26 H :    0.037111
  27 H :    0.036441
  28 C :   -0.019070
  29 H :    0.048266
  30 H :    0.029799
  31 H :    0.021880
  32 H :    0.035823
  33 H :    0.065287
Sum of atomic charges:    0.0000000

LOEWDIN ATOMIC CHARGES
----------------------
   0 S :    0.404497
   1 C :   -0.197627
   2 C :   -0.062366
   3 C :   -0.062469
   4 C :   -0.194620
   5 H :    0.031771
   6 C :   -0.038937
   7 H :    0.035712
   8 H :    0.021245
   9 C :   -0.038098
  10 H :    0.021469
  11 H :    0.033987
  12 C :   -0.064329
  13 H :    0.020114
  14 H :    0.039340
  15 H :    0.028836
  16 S :    0.400412
  17 C :   -0.192499
  18 C :   -0.070003
  19 C :   -0.064447
  20 C :   -0.188968
  21 H :    0.020487
  22 C :   -0.037302
  23 H :    0.041044
  24 H :    0.026149
  25 C :   -0.048395
  26 H :    0.024042
  27 H :    0.031300
  28 C :   -0.063376
  29 H :    0.028146
  30 H :    0.024249
  31 H :    0.023910
  32 H :    0.027239
  33 H :    0.039489

  Mayer bond orders larger than 0.100000
B(  0-S ,  1-C ) :   1.1187 B(  0-S ,  4-C ) :   1.1320 B(  1-C ,  2-C ) :   1.6531
B(  1-C , 32-H ) :   0.9548 B(  2-C ,  3-C ) :   1.2265 B(  2-C ,  6-C ) :   1.0223
B(  3-C ,  4-C ) :   1.5671 B(  3-C ,  5-H ) :   0.9827 B(  4-C , 20-C ) :   1.0843
B(  6-C ,  7-H ) :   0.9229 B(  6-C ,  8-H ) :   0.9405 B(  6-C ,  9-C ) :   1.0395
B(  9-C , 10-H ) :   0.9556 B(  9-C , 11-H ) :   0.9661 B(  9-C , 12-C ) :   1.0726
B( 12-C , 13-H ) :   0.9775 B( 12-C , 14-H ) :   0.9739 B( 12-C , 15-H ) :   0.9730
B( 16-S , 17-C ) :   1.1562 B( 16-S , 20-C ) :   1.1367 B( 17-C , 18-C ) :   1.5812
B( 17-C , 20-C ) :   0.1021 B( 17-C , 33-H ) :   0.9663 B( 18-C , 19-C ) :   1.2740
B( 18-C , 21-H ) :   0.9942 B( 19-C , 20-C ) :   1.5492 B( 19-C , 22-C ) :   1.0429
B( 22-C , 23-H ) :   0.9311 B( 22-C , 24-H ) :   0.9268 B( 22-C , 25-C ) :   1.0685
B( 25-C , 26-H ) :   0.9527 B( 25-C , 27-H ) :   0.9538 B( 25-C , 28-C ) :   1.0815
B( 28-C , 29-H ) :   0.9702 B( 28-C , 30-H ) :   0.9725 B( 28-C , 31-H ) :   0.9742

Dispersion correction           -0.013959269
FINAL SINGLE POINT ENERGY     -1339.868486565511

DIPOLE MOMENT
-------------
                                X             Y             Z
Electronic contribution:     -7.68256     -10.93759      24.87271
Nuclear contribution   :      7.65612      11.23871     -25.61622
                        -----------------------------------------
Total Dipole Moment    :     -0.02644       0.30112      -0.74351
                        -----------------------------------------
Magnitude (a.u.)       :      0.80261
Magnitude (Debye)      :      2.04007

Rotational constants in cm-1:     0.018675     0.008264     0.006458
Rotational constants in MHz :   559.847840   247.746768   193.593518

                             ****ORCA TERMINATED NORMALLY****
TOTAL RUN TIME: 0 days 0 hours 0 minutes 35 seconds 2 msec
