                         Program Version 4.2.1 -  RELEASE  -
|  1> ! wB97X-D3 SP def2-SVP
|  2> %pal
|  3> nprocs 16
|  4> end
|  5>
|  6> * xyz 0 1
|  7> S 	 12.9743 	 25.5094 	 47.2765
|  8> C 	 13.914 	 24.3873 	 48.2063
|  9> C 	 14.4215 	 23.3189 	 47.4647
| 10> C 	 13.6938 	 23.2308 	 46.2173
| 11> C 	 12.9609 	 24.3351 	 45.9454
| 12> H 	 13.735 	 22.5122 	 45.4455
| 13> C 	 15.2724 	 22.1732 	 47.9389
| 14> H 	 14.9327 	 21.1947 	 47.5601
| 15> H 	 15.0083 	 22.022 	 48.9981
| 16> C 	 16.7843 	 22.2104 	 47.7622
| 17> H 	 17.1679 	 22.8903 	 48.4761
| 18> H 	 17.1677 	 21.2424 	 48.046
| 19> C 	 17.2366 	 22.7509 	 46.4551
| 20> H 	 16.9048 	 23.7244 	 46.402
| 21> H 	 18.3337 	 22.7733 	 46.2042
| 22> H 	 16.794 	 22.1721 	 45.7023
| 23> S 	 12.6145 	 24.1974 	 43.3042
| 24> C 	 11.0637 	 24.6802 	 42.5563
| 25> C 	 10.2114 	 25.1911 	 43.4909
| 26> C 	 10.637 	 25.0502 	 44.8347
| 27> C 	 11.9746 	 24.4916 	 44.8813
| 28> H 	 9.18713 	 25.5687 	 43.2328
| 29> C 	 9.92341 	 25.5766 	 46.0795
| 30> H 	 10.2444 	 25.1304 	 47.0052
| 31> H 	 8.87201 	 25.3485 	 45.8921
| 32> C 	 10.0052 	 27.116 	 46.2081
| 33> H 	 9.37069 	 27.5934 	 45.4898
| 34> H 	 10.9552 	 27.6357 	 45.9874
| 35> C 	 9.45347 	 27.4771 	 47.5911
| 36> H 	 9.99396 	 27.1551 	 48.4476
| 37> H 	 8.37736 	 27.1697 	 47.7158
| 38> H 	 9.32332 	 28.5488 	 47.6533
| 39> H 	 14.1423 	 24.5043 	 49.3017
| 40> H 	 10.7456 	 24.7615 	 41.4857
| 41> *
| 42>
| 43>                          ****END OF INPUT****

CARTESIAN COORDINATES (ANGSTROEM)
---------------------------------
  S     12.974300   25.509400   47.276500
  C     13.914000   24.387300   48.206300
  C     14.421500   23.318900   47.464700
  C     13.693800   23.230800   46.217300
  C     12.960900   24.335100   45.945400
  H     13.735000   22.512200   45.445500
  C     15.272400   22.173200   47.938900
  H     14.932700   21.194700   47.560100
  H     15.008300   22.022000   48.998100
  C     16.784300   22.210400   47.762200
  H     17.167900   22.890300   48.476100
  H     17.167700   21.242400   48.046000
  C     17.236600   22.750900   46.455100
  H     16.904800   23.724400   46.402000
  H     18.333700   22.773300   46.204200
  H     16.794000   22.172100   45.702300
  S     12.614500   24.197400   43.304200
  C     11.063700   24.680200   42.556300
  C     10.211400   25.191100   43.490900
  C     10.637000   25.050200   44.834700
  C     11.974600   24.491600   44.881300
  H      9.187130   25.568700   43.232800
  C      9.923410   25.576600   46.079500
  H     10.244400   25.130400   47.005200
  H      8.872010   25.348500   45.892100
  C     10.005200   27.116000   46.208100
  H      9.370690   27.593400   45.489800
  H     10.955200   27.635700   45.987400
  C      9.453470   27.477100   47.591100
  H      9.993960   27.155100   48.447600
  H      8.377360   27.169700   47.715800
  H      9.323320   28.548800   47.653300
  H     14.142300   24.504300   49.301700
  H     10.745600   24.761500   41.485700

 Total Charge           Charge          ....    0
 Multiplicity           Mult            ....    1
 Number of Electrons    NEL             ....  134
 Basis Dimension        Dim             ....  322

ORBITAL ENERGIES
----------------

  NO   OCC          E(Eh)            E(eV)
   0   2.0000     -88.968906     -2420.9670
   1   2.0000     -88.968498     -2420.9559
   2   2.0000     -10.327029      -281.0128
   3   2.0000     -10.325097      -280.9602
   4   2.0000     -10.321046      -280.8499
   5   2.0000     -10.319280      -280.8019
   6   2.0000     -10.306572      -280.4561
   7   2.0000     -10.306092      -280.4430
   8   2.0000     -10.295978      -280.1678
   9   2.0000     -10.291665      -280.0504
  10   2.0000     -10.290629      -280.0223
  11   2.0000     -10.290383      -280.0156
  12   2.0000     -10.284587      -279.8578
  13   2.0000     -10.276009      -279.6244
  14   2.0000     -10.273547      -279.5574
  15   2.0000     -10.262920      -279.2683
  16   2.0000      -8.082894      -219.9467
  17   2.0000      -8.082736      -219.9424
  18   2.0000      -6.041480      -164.3970
  19   2.0000      -6.041208      -164.3896
  20   2.0000      -6.037440      -164.2871
  21   2.0000      -6.037428      -164.2868
  22   2.0000      -6.033700      -164.1853
  23   2.0000      -6.033454      -164.1786
  24   2.0000      -1.006098       -27.3773
  25   2.0000      -0.981200       -26.6998
  26   2.0000      -0.917576       -24.9685
  27   2.0000      -0.907486       -24.6939
  28   2.0000      -0.872771       -23.7493
  29   2.0000      -0.854236       -23.2449
  30   2.0000      -0.843505       -22.9529
  31   2.0000      -0.816019       -22.2050
  32   2.0000      -0.784406       -21.3448
  33   2.0000      -0.764776       -20.8106
  34   2.0000      -0.705043       -19.1852
  35   2.0000      -0.702845       -19.1254
  36   2.0000      -0.692640       -18.8477
  37   2.0000      -0.659760       -17.9530
  38   2.0000      -0.638323       -17.3697
  39   2.0000      -0.611380       -16.6365
  40   2.0000      -0.593216       -16.1422
  41   2.0000      -0.578486       -15.7414
  42   2.0000      -0.562890       -15.3170
  43   2.0000      -0.548302       -14.9201
  44   2.0000      -0.546789       -14.8789
  45   2.0000      -0.519347       -14.1322
  46   2.0000      -0.514723       -14.0063
  47   2.0000      -0.508487       -13.8366
  48   2.0000      -0.503215       -13.6932
  49   2.0000      -0.492681       -13.4065
  50   2.0000      -0.486966       -13.2510
  51   2.0000      -0.475539       -12.9401
  52   2.0000      -0.470923       -12.8145
  53   2.0000      -0.465028       -12.6541
  54   2.0000      -0.460513       -12.5312
  55   2.0000      -0.450241       -12.2517
  56   2.0000      -0.444065       -12.0836
  57   2.0000      -0.440102       -11.9758
  58   2.0000      -0.438930       -11.9439
  59   2.0000      -0.426421       -11.6035
  60   2.0000      -0.419578       -11.4173
  61   2.0000      -0.412969       -11.2375
  62   2.0000      -0.405164       -11.0251
  63   2.0000      -0.352231        -9.5847
  64   2.0000      -0.335230        -9.1221
  65   2.0000      -0.323633        -8.8065
  66   2.0000      -0.286100        -7.7852
  67   0.0000       0.023713         0.6453
  68   0.0000       0.074615         2.0304
  69   0.0000       0.108878         2.9627
  70   0.0000       0.112158         3.0520
  71   0.0000       0.119611         3.2548

MULLIKEN ATOMIC CHARGES
-----------------------
   0 S :    0.107539
   1 C :   -0.142578
   2 C :   -0.064104
   3 C :    0.029902
   4 C :   -0.124100
   5 H :    0.001032
   6 C :    0.019441
   7 H :    0.024281
   8 H :    0.021251
   9 C :   -0.017642
  10 H :    0.009250
  11 H :    0.020831
  12 C :   -0.021648
  13 H :    0.027743
  14 H :    0.039376
  15 H :    0.008584
  16 S :    0.108472
  17 C :   -0.095397
  18 C :   -0.065069
  19 C :   -0.035545
  20 C :   -0.165156
  21 H :    0.034963
  22 C :    0.064967
  23 H :    0.035708
  24 H :    0.023925
  25 C :   -0.066126
  26 H :    0.013479
  27 H :    0.037709
  28 C :   -0.046352
  29 H :    0.033860
  30 H :    0.023881
  31 H :    0.019903
  32 H :    0.068389
  33 H :    0.069229
Sum of atomic charges:    0.0000000

LOEWDIN ATOMIC CHARGES
----------------------
   0 S :    0.413141
   1 C :   -0.201645
   2 C :   -0.064175
   3 C :   -0.051165
   4 C :   -0.189365
   5 H :    0.023358
   6 C :   -0.038495
   7 H :    0.032087
   8 H :    0.034957
   9 C :   -0.035558
  10 H :    0.017448
  11 H :    0.022289
  12 C :   -0.058493
  13 H :    0.019382
  14 H :    0.034731
  15 H :    0.015336
  16 S :    0.413455
  17 C :   -0.195589
  18 C :   -0.078256
  19 C :   -0.057247
  20 C :   -0.205403
  21 H :    0.039543
  22 C :   -0.033252
  23 H :    0.021180
  24 H :    0.033651
  25 C :   -0.042968
  26 H :    0.020835
  27 H :    0.024792
  28 C :   -0.067307
  29 H :    0.017874
  30 H :    0.030087
  31 H :    0.023310
  32 H :    0.037573
  33 H :    0.043890

  Mayer bond orders larger than 0.100000
B(  0-S ,  1-C ) :   1.1494 B(  0-S ,  4-C ) :   1.1121 B(  1-C ,  2-C ) :   1.6222
B(  1-C , 32-H ) :   0.9559 B(  2-C ,  3-C ) :   1.1935 B(  2-C ,  6-C ) :   1.0197
B(  3-C ,  4-C ) :   1.6275 B(  3-C ,  5-H ) :   0.9895 B(  4-C , 20-C ) :   1.0231
B(  6-C ,  7-H ) :   0.9465 B(  6-C ,  8-H ) :   0.9420 B(  6-C ,  9-C ) :   1.0703
B(  9-C , 10-H ) :   0.9527 B(  9-C , 11-H ) :   0.9529 B(  9-C , 12-C ) :   1.0868
B( 12-C , 13-H ) :   0.9635 B( 12-C , 14-H ) :   0.9722 B( 12-C , 15-H ) :   0.9759
B( 16-S , 17-C ) :   1.1364 B( 16-S , 20-C ) :   1.1650 B( 17-C , 18-C ) :   1.6186
B( 17-C , 20-C ) :   0.1025 B( 17-C , 33-H ) :   0.9589 B( 18-C , 19-C ) :   1.2735
B( 18-C , 21-H ) :   0.9731 B( 19-C , 20-C ) :   1.5316 B( 19-C , 22-C ) :   1.0469
B( 22-C , 23-H ) :   0.9475 B( 22-C , 24-H ) :   0.9209 B( 22-C , 25-C ) :   1.0505
B( 25-C , 26-H ) :   0.9471 B( 25-C , 27-H ) :   0.9601 B( 25-C , 28-C ) :   1.0885
B( 28-C , 29-H ) :   0.9778 B( 28-C , 30-H ) :   0.9693 B( 28-C , 31-H ) :   0.9710

Dispersion correction           -0.014714304
FINAL SINGLE POINT ENERGY     -1339.860607892939

DIPOLE MOMENT
-------------
                                X             Y             Z
Electronic contribution:     -2.27466      -0.12945     -11.17457
Nuclear contribution   :      2.09964       0.09717      11.39646
                        -----------------------------------------
Total Dipole Moment    :     -0.17502      -0.03229       0.22189
                        -----------------------------------------
Magnitude (a.u.)       :      0.28444
Magnitude (Debye)      :      0.72300

Rotational constants in cm-1:     0.021278     0.008808     0.006601
Rotational constants in MHz :   637.895743   264.054338   197.904574

                             ****ORCA TERMINATED NORMALLY****
TOTAL RUN TIME: 0 days 0 hours 0 minutes 33 seconds 285 msec
