                         Program Version 4.2.1 -  RELEASE  -
|  1> ! wB97X-D3 SP def2-SVP
|  2> %pal
|  3> nprocs 16
|  4> end
|  5>
|  6> * xyz 0 1
|  7> S 	 11.9357 	 -4.86418 	 67.0934
|  8> C 	 11.0585 	 -4.73916 	 65.58
|  9> C 	 11.8598 	 -4.50376 	 64.5727
| 10> C 	 13.1752 	 -4.07449 	 64.976
| 11> C 	 13.3642 	 -4.1886 	 66.3831
| 12> H 	 13.9579 	 -3.73638 	 64.3083
| 13> C 	 11.4367 	 -4.58283 	 63.099
| 14> H 	 10.5475 	 -4.07079 	 62.9615
| 15> H 	 11.0611 	 -5.54162 	 62.8871
| 16> C 	 12.4096 	 -4.12196 	 62.0052
| 17> H 	 12.4367 	 -3.01622 	 62.0449
| 18> H 	 13.3153 	 -4.60165 	 62.4187
| 19> C 	 12.0847 	 -4.61851 	 60.5941
| 20> H 	 11.8501 	 -5.64944 	 60.5015
| 21> H 	 11.3274 	 -3.98863 	 60.0692
| 22> H 	 12.9491 	 -4.41236 	 60.054
| 23> S 	 14.9116 	 -5.15952 	 68.3681
| 24> C 	 16.3265 	 -4.24704 	 68.86
| 25> C 	 16.4682 	 -3.05606 	 68.1374
| 26> C 	 15.4361 	 -2.88383 	 67.1767
| 27> C 	 14.5205 	 -3.93472 	 67.1579
| 28> H 	 17.2882 	 -2.40161 	 68.4609
| 29> C 	 15.3843 	 -1.55078 	 66.4111
| 30> H 	 14.9163 	 -1.84697 	 65.4518
| 31> H 	 16.4211 	 -1.30241 	 66.0774
| 32> C 	 14.674 	 -0.307609 	 66.9901
| 33> H 	 14.5415 	 0.341063 	 66.1438
| 34> H 	 15.3356 	 0.0826395 	 67.7188
| 35> C 	 13.2775 	 -0.454583 	 67.7074
| 36> H 	 12.8533 	 0.511797 	 68.0072
| 37> H 	 13.4522 	 -1.08392 	 68.6369
| 38> H 	 12.5674 	 -0.965894 	 67.1114
| 39> H 	 10.008 	 -5.1101 	 65.4591
| 40> H 	 17.0349 	 -4.60428 	 69.6032
| 41> *
| 42>
| 43>                          ****END OF INPUT****

CARTESIAN COORDINATES (ANGSTROEM)
---------------------------------
  S     11.935700   -4.864180   67.093400
  C     11.058500   -4.739160   65.580000
  C     11.859800   -4.503760   64.572700
  C     13.175200   -4.074490   64.976000
  C     13.364200   -4.188600   66.383100
  H     13.957900   -3.736380   64.308300
  C     11.436700   -4.582830   63.099000
  H     10.547500   -4.070790   62.961500
  H     11.061100   -5.541620   62.887100
  C     12.409600   -4.121960   62.005200
  H     12.436700   -3.016220   62.044900
  H     13.315300   -4.601650   62.418700
  C     12.084700   -4.618510   60.594100
  H     11.850100   -5.649440   60.501500
  H     11.327400   -3.988630   60.069200
  H     12.949100   -4.412360   60.054000
  S     14.911600   -5.159520   68.368100
  C     16.326500   -4.247040   68.860000
  C     16.468200   -3.056060   68.137400
  C     15.436100   -2.883830   67.176700
  C     14.520500   -3.934720   67.157900
  H     17.288200   -2.401610   68.460900
  C     15.384300   -1.550780   66.411100
  H     14.916300   -1.846970   65.451800
  H     16.421100   -1.302410   66.077400
  C     14.674000   -0.307609   66.990100
  H     14.541500    0.341063   66.143800
  H     15.335600    0.082640   67.718800
  C     13.277500   -0.454583   67.707400
  H     12.853300    0.511797   68.007200
  H     13.452200   -1.083920   68.636900
  H     12.567400   -0.965894   67.111400
  H     10.008000   -5.110100   65.459100
  H     17.034900   -4.604280   69.603200

 Total Charge           Charge          ....    0
 Multiplicity           Mult            ....    1
 Number of Electrons    NEL             ....  134
 Basis Dimension        Dim             ....  322

ORBITAL ENERGIES
----------------

  NO   OCC          E(Eh)            E(eV)
   0   2.0000     -88.967034     -2420.9161
   1   2.0000     -88.963201     -2420.8118
   2   2.0000     -10.330167      -281.0981
   3   2.0000     -10.327088      -281.0143
   4   2.0000     -10.318793      -280.7886
   5   2.0000     -10.306242      -280.4471
   6   2.0000     -10.305949      -280.4391
   7   2.0000     -10.296648      -280.1860
   8   2.0000     -10.295828      -280.1637
   9   2.0000     -10.295656      -280.1590
  10   2.0000     -10.295300      -280.1493
  11   2.0000     -10.291329      -280.0413
  12   2.0000     -10.284155      -279.8461
  13   2.0000     -10.278471      -279.6914
  14   2.0000     -10.276513      -279.6381
  15   2.0000     -10.275558      -279.6121
  16   2.0000      -8.081615      -219.9119
  17   2.0000      -8.078473      -219.8264
  18   2.0000      -6.040072      -164.3587
  19   2.0000      -6.037036      -164.2761
  20   2.0000      -6.036167      -164.2524
  21   2.0000      -6.033023      -164.1669
  22   2.0000      -6.032413      -164.1503
  23   2.0000      -6.029011      -164.0577
  24   2.0000      -1.009572       -27.4718
  25   2.0000      -0.983979       -26.7754
  26   2.0000      -0.914523       -24.8854
  27   2.0000      -0.899145       -24.4670
  28   2.0000      -0.876940       -23.8627
  29   2.0000      -0.846813       -23.0429
  30   2.0000      -0.842327       -22.9209
  31   2.0000      -0.811263       -22.0756
  32   2.0000      -0.788342       -21.4519
  33   2.0000      -0.776540       -21.1307
  34   2.0000      -0.718403       -19.5487
  35   2.0000      -0.695863       -18.9354
  36   2.0000      -0.687431       -18.7059
  37   2.0000      -0.660991       -17.9865
  38   2.0000      -0.635136       -17.2829
  39   2.0000      -0.622175       -16.9302
  40   2.0000      -0.589482       -16.0406
  41   2.0000      -0.573822       -15.6145
  42   2.0000      -0.563694       -15.3389
  43   2.0000      -0.547204       -14.8902
  44   2.0000      -0.538597       -14.6560
  45   2.0000      -0.525277       -14.2935
  46   2.0000      -0.513509       -13.9733
  47   2.0000      -0.508921       -13.8484
  48   2.0000      -0.503725       -13.7071
  49   2.0000      -0.499227       -13.5847
  50   2.0000      -0.493800       -13.4370
  51   2.0000      -0.486455       -13.2371
  52   2.0000      -0.472646       -12.8613
  53   2.0000      -0.465745       -12.6736
  54   2.0000      -0.456113       -12.4115
  55   2.0000      -0.449049       -12.2192
  56   2.0000      -0.442121       -12.0307
  57   2.0000      -0.440003       -11.9731
  58   2.0000      -0.436614       -11.8809
  59   2.0000      -0.420813       -11.4509
  60   2.0000      -0.413509       -11.2522
  61   2.0000      -0.411219       -11.1898
  62   2.0000      -0.408144       -11.1062
  63   2.0000      -0.353795        -9.6273
  64   2.0000      -0.334103        -9.0914
  65   2.0000      -0.328743        -8.9456
  66   2.0000      -0.283231        -7.7071
  67   0.0000       0.023412         0.6371
  68   0.0000       0.070370         1.9149
  69   0.0000       0.105448         2.8694
  70   0.0000       0.126104         3.4315
  71   0.0000       0.137906         3.7526

MULLIKEN ATOMIC CHARGES
-----------------------
   0 S :    0.100719
   1 C :   -0.156277
   2 C :   -0.045051
   3 C :   -0.006010
   4 C :   -0.140934
   5 H :    0.024486
   6 C :    0.104071
   7 H :   -0.002385
   8 H :    0.002210
   9 C :   -0.127908
  10 H :    0.042982
  11 H :    0.041767
  12 C :    0.004299
  13 H :    0.030923
  14 H :    0.034057
  15 H :    0.017741
  16 S :    0.102907
  17 C :   -0.103069
  18 C :   -0.048194
  19 C :   -0.045792
  20 C :   -0.148913
  21 H :    0.031487
  22 C :    0.061360
  23 H :    0.003731
  24 H :    0.029857
  25 C :   -0.035386
  26 H :    0.032270
  27 H :    0.022740
  28 C :   -0.065306
  29 H :    0.038035
  30 H :    0.046380
  31 H :    0.033352
  32 H :    0.059532
  33 H :    0.060315
Sum of atomic charges:   -0.0000000

LOEWDIN ATOMIC CHARGES
----------------------
   0 S :    0.404990
   1 C :   -0.202993
   2 C :   -0.063035
   3 C :   -0.070121
   4 C :   -0.193442
   5 H :    0.027927
   6 C :   -0.033039
   7 H :    0.020942
   8 H :    0.024474
   9 C :   -0.041205
  10 H :    0.030326
  11 H :    0.026938
  12 C :   -0.057999
  13 H :    0.022652
  14 H :    0.032372
  15 H :    0.022807
  16 S :    0.399555
  17 C :   -0.183777
  18 C :   -0.074258
  19 C :   -0.058749
  20 C :   -0.195006
  21 H :    0.038423
  22 C :   -0.036874
  23 H :    0.026593
  24 H :    0.036576
  25 C :   -0.032250
  26 H :    0.025439
  27 H :    0.018295
  28 C :   -0.064247
  29 H :    0.027756
  30 H :    0.034760
  31 H :    0.018652
  32 H :    0.038853
  33 H :    0.028666

  Mayer bond orders larger than 0.100000
B(  0-S ,  1-C ) :   1.1101 B(  0-S ,  4-C ) :   1.1565 B(  1-C ,  2-C ) :   1.6692
B(  1-C , 32-H ) :   0.9634 B(  2-C ,  3-C ) :   1.2352 B(  2-C ,  6-C ) :   0.9967
B(  3-C ,  4-C ) :   1.5395 B(  3-C ,  5-H ) :   0.9846 B(  4-C , 20-C ) :   1.0950
B(  6-C ,  7-H ) :   0.9269 B(  6-C ,  8-H ) :   0.9280 B(  6-C ,  9-C ) :   1.0676
B(  9-C , 10-H ) :   0.9532 B(  9-C , 11-H ) :   0.9526 B(  9-C , 12-C ) :   1.0889
B( 12-C , 13-H ) :   0.9740 B( 12-C , 14-H ) :   0.9714 B( 12-C , 15-H ) :   0.9687
B( 16-S , 17-C ) :   1.1546 B( 16-S , 20-C ) :   1.1351 B( 17-C , 18-C ) :   1.6053
B( 17-C , 20-C ) :   0.1073 B( 17-C , 33-H ) :   0.9664 B( 18-C , 19-C ) :   1.2330
B( 18-C , 21-H ) :   0.9913 B( 19-C , 20-C ) :   1.5795 B( 19-C , 22-C ) :   1.0365
B( 22-C , 23-H ) :   0.9271 B( 22-C , 24-H ) :   0.9358 B( 22-C , 25-C ) :   1.0636
B( 25-C , 26-H ) :   0.9542 B( 25-C , 27-H ) :   0.9579 B( 25-C , 28-C ) :   1.0812
B( 28-C , 29-H ) :   0.9751 B( 28-C , 30-H ) :   0.9725 B( 28-C , 31-H ) :   0.9789

Dispersion correction           -0.014410997
FINAL SINGLE POINT ENERGY     -1339.863436754433

DIPOLE MOMENT
-------------
                                X             Y             Z
Electronic contribution:      2.76103     -14.99881      20.99632
Nuclear contribution   :     -2.65419      15.30084     -21.52962
                        -----------------------------------------
Total Dipole Moment    :      0.10684       0.30203      -0.53330
                        -----------------------------------------
Magnitude (a.u.)       :      0.62213
Magnitude (Debye)      :      1.58133

Rotational constants in cm-1:     0.019276     0.008189     0.007218
Rotational constants in MHz :   577.880816   245.491748   216.402086

                             ****ORCA TERMINATED NORMALLY****
TOTAL RUN TIME: 0 days 0 hours 0 minutes 35 seconds 215 msec
