                         Program Version 4.2.1 -  RELEASE  -
|  1> ! wB97X-D3 SP def2-SVP
|  2> %pal
|  3> nprocs 16
|  4> end
|  5>
|  6> * xyz 0 1
|  7> S 	 -100.847 	 43.1237 	 126.312
|  8> C 	 -99.3531 	 42.4359 	 126.951
|  9> C 	 -98.2933 	 42.8746 	 126.149
| 10> C 	 -98.6341 	 43.8293 	 125.176
| 11> C 	 -99.9789 	 44.0014 	 125.091
| 12> H 	 -97.9745 	 44.3626 	 124.445
| 13> C 	 -96.8282 	 42.4822 	 126.358
| 14> H 	 -96.7933 	 41.4359 	 126.168
| 15> H 	 -96.4956 	 42.6469 	 127.438
| 16> C 	 -95.7777 	 43.0301 	 125.354
| 17> H 	 -95.9899 	 42.9562 	 124.284
| 18> H 	 -95.7285 	 44.0994 	 125.566
| 19> C 	 -94.4897 	 42.4922 	 125.718
| 20> H 	 -94.5255 	 41.3663 	 125.575
| 21> H 	 -93.8748 	 42.8566 	 124.89
| 22> H 	 -94.0845 	 42.7885 	 126.709
| 23> S 	 -101.743 	 46.2037 	 125.101
| 24> C 	 -101.633 	 47.3675 	 123.829
| 25> C 	 -100.911 	 46.9104 	 122.75
| 26> C 	 -100.456 	 45.5641 	 122.979
| 27> C 	 -100.672 	 45.061 	 124.272
| 28> H 	 -100.747 	 47.5355 	 121.841
| 29> C 	 -99.5955 	 44.797 	 121.979
| 30> H 	 -99.575 	 43.7467 	 122.297
| 31> H 	 -98.5269 	 45.1267 	 122.147
| 32> C 	 -100.046 	 44.8115 	 120.502
| 33> H 	 -100.133 	 45.7977 	 120.055
| 34> H 	 -101.104 	 44.3847 	 120.406
| 35> C 	 -99.0485 	 44.0725 	 119.621
| 36> H 	 -99.0549 	 42.9553 	 119.834
| 37> H 	 -98.0428 	 44.4705 	 119.792
| 38> H 	 -99.3033 	 43.9628 	 118.586
| 39> H 	 -99.2334 	 41.7476 	 127.758
| 40> H 	 -102.109 	 48.3515 	 123.838
| 41> *
| 42>
| 43>                          ****END OF INPUT****

CARTESIAN COORDINATES (ANGSTROEM)
---------------------------------
  S    -100.847000   43.123700  126.312000
  C    -99.353100   42.435900  126.951000
  C    -98.293300   42.874600  126.149000
  C    -98.634100   43.829300  125.176000
  C    -99.978900   44.001400  125.091000
  H    -97.974500   44.362600  124.445000
  C    -96.828200   42.482200  126.358000
  H    -96.793300   41.435900  126.168000
  H    -96.495600   42.646900  127.438000
  C    -95.777700   43.030100  125.354000
  H    -95.989900   42.956200  124.284000
  H    -95.728500   44.099400  125.566000
  C    -94.489700   42.492200  125.718000
  H    -94.525500   41.366300  125.575000
  H    -93.874800   42.856600  124.890000
  H    -94.084500   42.788500  126.709000
  S    -101.743000   46.203700  125.101000
  C    -101.633000   47.367500  123.829000
  C    -100.911000   46.910400  122.750000
  C    -100.456000   45.564100  122.979000
  C    -100.672000   45.061000  124.272000
  H    -100.747000   47.535500  121.841000
  C    -99.595500   44.797000  121.979000
  H    -99.575000   43.746700  122.297000
  H    -98.526900   45.126700  122.147000
  C    -100.046000   44.811500  120.502000
  H    -100.133000   45.797700  120.055000
  H    -101.104000   44.384700  120.406000
  C    -99.048500   44.072500  119.621000
  H    -99.054900   42.955300  119.834000
  H    -98.042800   44.470500  119.792000
  H    -99.303300   43.962800  118.586000
  H    -99.233400   41.747600  127.758000
  H    -102.109000   48.351500  123.838000

 Total Charge           Charge          ....    0
 Multiplicity           Mult            ....    1
 Number of Electrons    NEL             ....  134
 Basis Dimension        Dim             ....  322

ORBITAL ENERGIES
----------------

  NO   OCC          E(Eh)            E(eV)
   0   2.0000     -88.968228     -2420.9485
   1   2.0000     -88.962309     -2420.7875
   2   2.0000     -10.331729      -281.1406
   3   2.0000     -10.330345      -281.1030
   4   2.0000     -10.317606      -280.7563
   5   2.0000     -10.314749      -280.6786
   6   2.0000     -10.306441      -280.4525
   7   2.0000     -10.301398      -280.3153
   8   2.0000     -10.297882      -280.2196
   9   2.0000     -10.296340      -280.1777
  10   2.0000     -10.293426      -280.0983
  11   2.0000     -10.293190      -280.0919
  12   2.0000     -10.292993      -280.0866
  13   2.0000     -10.283893      -279.8390
  14   2.0000     -10.281166      -279.7647
  15   2.0000     -10.280730      -279.7529
  16   2.0000      -8.082694      -219.9413
  17   2.0000      -8.077245      -219.7930
  18   2.0000      -6.041219      -164.3899
  19   2.0000      -6.037163      -164.2796
  20   2.0000      -6.035774      -164.2418
  21   2.0000      -6.033541      -164.1810
  22   2.0000      -6.031600      -164.1282
  23   2.0000      -6.028089      -164.0326
  24   2.0000      -1.006171       -27.3793
  25   2.0000      -0.984777       -26.7971
  26   2.0000      -0.921743       -25.0819
  27   2.0000      -0.905435       -24.6381
  28   2.0000      -0.869581       -23.6625
  29   2.0000      -0.854855       -23.2618
  30   2.0000      -0.845238       -23.0001
  31   2.0000      -0.817552       -22.2467
  32   2.0000      -0.776997       -21.1432
  33   2.0000      -0.766025       -20.8446
  34   2.0000      -0.704833       -19.1795
  35   2.0000      -0.698733       -19.0135
  36   2.0000      -0.687270       -18.7016
  37   2.0000      -0.648463       -17.6456
  38   2.0000      -0.641900       -17.4670
  39   2.0000      -0.618879       -16.8405
  40   2.0000      -0.595273       -16.1982
  41   2.0000      -0.581477       -15.8228
  42   2.0000      -0.569519       -15.4974
  43   2.0000      -0.563017       -15.3205
  44   2.0000      -0.531534       -14.4638
  45   2.0000      -0.524516       -14.2728
  46   2.0000      -0.516573       -14.0567
  47   2.0000      -0.508022       -13.8240
  48   2.0000      -0.499921       -13.6035
  49   2.0000      -0.496332       -13.5059
  50   2.0000      -0.493620       -13.4321
  51   2.0000      -0.482704       -13.1351
  52   2.0000      -0.471954       -12.8425
  53   2.0000      -0.462328       -12.5806
  54   2.0000      -0.454657       -12.3718
  55   2.0000      -0.453325       -12.3356
  56   2.0000      -0.449408       -12.2290
  57   2.0000      -0.440030       -11.9738
  58   2.0000      -0.435013       -11.8373
  59   2.0000      -0.417025       -11.3478
  60   2.0000      -0.416531       -11.3344
  61   2.0000      -0.410667       -11.1748
  62   2.0000      -0.405394       -11.0313
  63   2.0000      -0.348995        -9.4966
  64   2.0000      -0.333315        -9.0700
  65   2.0000      -0.326249        -8.8777
  66   2.0000      -0.290022        -7.8919
  67   0.0000       0.028345         0.7713
  68   0.0000       0.071661         1.9500
  69   0.0000       0.111024         3.0211
  70   0.0000       0.125685         3.4201
  71   0.0000       0.135756         3.6941

MULLIKEN ATOMIC CHARGES
-----------------------
   0 S :    0.107997
   1 C :   -0.112153
   2 C :   -0.068523
   3 C :   -0.009728
   4 C :   -0.123392
   5 H :    0.035219
   6 C :    0.026316
   7 H :    0.021454
   8 H :    0.050347
   9 C :   -0.107860
  10 H :    0.040330
  11 H :    0.027090
  12 C :   -0.029662
  13 H :    0.030370
  14 H :    0.027807
  15 H :    0.048062
  16 S :    0.100281
  17 C :   -0.097868
  18 C :   -0.040649
  19 C :   -0.060505
  20 C :   -0.124649
  21 H :    0.041110
  22 C :    0.007973
  23 H :    0.033814
  24 H :    0.045208
  25 C :   -0.078007
  26 H :    0.028869
  27 H :    0.044889
  28 C :   -0.055484
  29 H :    0.025259
  30 H :    0.036522
  31 H :    0.029023
  32 H :    0.037074
  33 H :    0.063468
Sum of atomic charges:    0.0000000

LOEWDIN ATOMIC CHARGES
----------------------
   0 S :    0.408998
   1 C :   -0.195498
   2 C :   -0.060958
   3 C :   -0.072986
   4 C :   -0.191544
   5 H :    0.043695
   6 C :   -0.036986
   7 H :    0.025647
   8 H :    0.041672
   9 C :   -0.054157
  10 H :    0.027334
  11 H :    0.024134
  12 C :   -0.065755
  13 H :    0.028555
  14 H :    0.030112
  15 H :    0.030871
  16 S :    0.402978
  17 C :   -0.188692
  18 C :   -0.082853
  19 C :   -0.058895
  20 C :   -0.197556
  21 H :    0.041687
  22 C :   -0.041447
  23 H :    0.033098
  24 H :    0.033409
  25 C :   -0.046966
  26 H :    0.019388
  27 H :    0.036003
  28 C :   -0.073258
  29 H :    0.030191
  30 H :    0.026241
  31 H :    0.023522
  32 H :    0.025978
  33 H :    0.034038

  Mayer bond orders larger than 0.100000
B(  0-S ,  1-C ) :   1.1278 B(  0-S ,  4-C ) :   1.1680 B(  1-C ,  2-C ) :   1.5998
B(  1-C , 32-H ) :   0.9815 B(  2-C ,  3-C ) :   1.2679 B(  2-C ,  6-C ) :   0.9916
B(  3-C ,  4-C ) :   1.5574 B(  3-C ,  5-H ) :   0.9771 B(  4-C , 20-C ) :   1.0017
B(  6-C ,  7-H ) :   0.9363 B(  6-C ,  8-H ) :   0.9453 B(  6-C ,  9-C ) :   1.0837
B(  9-C , 10-H ) :   0.9509 B(  9-C , 11-H ) :   0.9387 B(  9-C , 12-C ) :   1.0965
B( 12-C , 13-H ) :   0.9681 B( 12-C , 14-H ) :   0.9660 B( 12-C , 15-H ) :   0.9712
B( 16-S , 17-C ) :   1.1748 B( 16-S , 20-C ) :   1.1256 B( 17-C , 18-C ) :   1.5972
B( 17-C , 33-H ) :   0.9632 B( 18-C , 19-C ) :   1.2432 B( 18-C , 21-H ) :   0.9872
B( 19-C , 20-C ) :   1.6002 B( 19-C , 22-C ) :   1.0418 B( 22-C , 23-H ) :   0.9419
B( 22-C , 24-H ) :   0.9331 B( 22-C , 25-C ) :   1.0525 B( 25-C , 26-H ) :   0.9544
B( 25-C , 27-H ) :   0.9541 B( 25-C , 28-C ) :   1.0864 B( 28-C , 29-H ) :   0.9716
B( 28-C , 30-H ) :   0.9734 B( 28-C , 31-H ) :   0.9722

Dispersion correction           -0.013459644
FINAL SINGLE POINT ENERGY     -1339.867521107077

DIPOLE MOMENT
-------------
                                X             Y             Z
Electronic contribution:    -25.38966       7.17248      16.68306
Nuclear contribution   :     26.07467      -7.13511     -17.06812
                        -----------------------------------------
Total Dipole Moment    :      0.68501       0.03737      -0.38506
                        -----------------------------------------
Magnitude (a.u.)       :      0.78670
Magnitude (Debye)      :      1.99964

Rotational constants in cm-1:     0.015415     0.009015     0.006545
Rotational constants in MHz :   462.119670   270.258334   196.224664

                             ****ORCA TERMINATED NORMALLY****
TOTAL RUN TIME: 0 days 0 hours 0 minutes 33 seconds 136 msec
