                         Program Version 4.2.1 -  RELEASE  -
|  1> ! wB97X-D3 SP def2-SVP
|  2> %pal
|  3> nprocs 16
|  4> end
|  5>
|  6> * xyz 0 1
|  7> S 	 35.8231 	 29.9152 	 91.039
|  8> C 	 34.9737 	 29.6944 	 89.4772
|  9> C 	 34.2712 	 28.5694 	 89.4585
| 10> C 	 34.2224 	 27.9387 	 90.7583
| 11> C 	 34.9034 	 28.5604 	 91.7822
| 12> H 	 33.7257 	 27.1302 	 91.1143
| 13> C 	 33.5577 	 27.924 	 88.3145
| 14> H 	 34.012 	 28.1461 	 87.3189
| 15> H 	 32.6048 	 28.516 	 88.2738
| 16> C 	 33.2044 	 26.4049 	 88.3034
| 17> H 	 32.4927 	 26.1876 	 89.0327
| 18> H 	 32.6933 	 26.1196 	 87.3475
| 19> C 	 34.4393 	 25.5013 	 88.5315
| 20> H 	 34.8123 	 25.4935 	 89.5335
| 21> H 	 34.1942 	 24.5262 	 88.3012
| 22> H 	 35.3031 	 25.7827 	 87.8773
| 23> S 	 35.4264 	 29.3231 	 94.3114
| 24> C 	 35.7825 	 28.0808 	 95.5622
| 25> C 	 35.4502 	 26.8328 	 95.0787
| 26> C 	 35.1718 	 26.8097 	 93.6766
| 27> C 	 35.137 	 28.0465 	 93.1167
| 28> H 	 35.4007 	 26.0184 	 95.844
| 29> C 	 34.9389 	 25.4445 	 93.0859
| 30> H 	 34.1943 	 25.4678 	 92.244
| 31> H 	 34.4255 	 24.8815 	 93.8398
| 32> C 	 36.3225 	 24.7328 	 92.731
| 33> H 	 37.1745 	 24.9064 	 93.366
| 34> H 	 36.6441 	 25.2111 	 91.7954
| 35> C 	 36.2623 	 23.2193 	 92.4145
| 36> H 	 37.2149 	 22.9096 	 92.0373
| 37> H 	 35.3825 	 23.0789 	 91.7366
| 38> H 	 35.9884 	 22.6199 	 93.2885
| 39> H 	 35.2324 	 30.1097 	 88.5241
| 40> H 	 35.953 	 28.3602 	 96.5803
| 41> *
| 42>
| 43>                          ****END OF INPUT****

CARTESIAN COORDINATES (ANGSTROEM)
---------------------------------
  S     35.823100   29.915200   91.039000
  C     34.973700   29.694400   89.477200
  C     34.271200   28.569400   89.458500
  C     34.222400   27.938700   90.758300
  C     34.903400   28.560400   91.782200
  H     33.725700   27.130200   91.114300
  C     33.557700   27.924000   88.314500
  H     34.012000   28.146100   87.318900
  H     32.604800   28.516000   88.273800
  C     33.204400   26.404900   88.303400
  H     32.492700   26.187600   89.032700
  H     32.693300   26.119600   87.347500
  C     34.439300   25.501300   88.531500
  H     34.812300   25.493500   89.533500
  H     34.194200   24.526200   88.301200
  H     35.303100   25.782700   87.877300
  S     35.426400   29.323100   94.311400
  C     35.782500   28.080800   95.562200
  C     35.450200   26.832800   95.078700
  C     35.171800   26.809700   93.676600
  C     35.137000   28.046500   93.116700
  H     35.400700   26.018400   95.844000
  C     34.938900   25.444500   93.085900
  H     34.194300   25.467800   92.244000
  H     34.425500   24.881500   93.839800
  C     36.322500   24.732800   92.731000
  H     37.174500   24.906400   93.366000
  H     36.644100   25.211100   91.795400
  C     36.262300   23.219300   92.414500
  H     37.214900   22.909600   92.037300
  H     35.382500   23.078900   91.736600
  H     35.988400   22.619900   93.288500
  H     35.232400   30.109700   88.524100
  H     35.953000   28.360200   96.580300

 Total Charge           Charge          ....    0
 Multiplicity           Mult            ....    1
 Number of Electrons    NEL             ....  134
 Basis Dimension        Dim             ....  322

ORBITAL ENERGIES
----------------

  NO   OCC          E(Eh)            E(eV)
   0   2.0000     -88.962515     -2420.7931
   1   2.0000     -88.962109     -2420.7820
   2   2.0000     -10.331176      -281.1256
   3   2.0000     -10.330439      -281.1055
   4   2.0000     -10.320835      -280.8442
   5   2.0000     -10.307987      -280.4946
   6   2.0000     -10.306326      -280.4494
   7   2.0000     -10.303404      -280.3699
   8   2.0000     -10.300709      -280.2966
   9   2.0000     -10.299946      -280.2758
  10   2.0000     -10.299120      -280.2533
  11   2.0000     -10.292908      -280.0843
  12   2.0000     -10.290956      -280.0311
  13   2.0000     -10.285174      -279.8738
  14   2.0000     -10.282149      -279.7915
  15   2.0000     -10.273664      -279.5606
  16   2.0000      -8.076316      -219.7677
  17   2.0000      -8.075860      -219.7553
  18   2.0000      -6.034963      -164.2197
  19   2.0000      -6.034729      -164.2133
  20   2.0000      -6.031027      -164.1126
  21   2.0000      -6.030722      -164.1043
  22   2.0000      -6.026803      -163.9977
  23   2.0000      -6.026108      -163.9787
  24   2.0000      -1.005236       -27.3539
  25   2.0000      -0.982385       -26.7321
  26   2.0000      -0.909903       -24.7597
  27   2.0000      -0.903236       -24.5783
  28   2.0000      -0.876259       -23.8442
  29   2.0000      -0.852599       -23.2004
  30   2.0000      -0.839903       -22.8549
  31   2.0000      -0.820424       -22.3249
  32   2.0000      -0.783718       -21.3260
  33   2.0000      -0.777053       -21.1447
  34   2.0000      -0.713356       -19.4114
  35   2.0000      -0.703895       -19.1540
  36   2.0000      -0.698626       -19.0106
  37   2.0000      -0.668650       -18.1949
  38   2.0000      -0.643105       -17.4998
  39   2.0000      -0.621232       -16.9046
  40   2.0000      -0.596787       -16.2394
  41   2.0000      -0.566004       -15.4018
  42   2.0000      -0.555209       -15.1080
  43   2.0000      -0.550122       -14.9696
  44   2.0000      -0.538125       -14.6431
  45   2.0000      -0.536650       -14.6030
  46   2.0000      -0.519303       -14.1310
  47   2.0000      -0.516039       -14.0421
  48   2.0000      -0.506098       -13.7716
  49   2.0000      -0.499371       -13.5886
  50   2.0000      -0.493333       -13.4243
  51   2.0000      -0.484917       -13.1953
  52   2.0000      -0.473754       -12.8915
  53   2.0000      -0.459136       -12.4937
  54   2.0000      -0.454357       -12.3637
  55   2.0000      -0.447157       -12.1678
  56   2.0000      -0.444301       -12.0900
  57   2.0000      -0.440320       -11.9817
  58   2.0000      -0.431876       -11.7520
  59   2.0000      -0.428698       -11.6655
  60   2.0000      -0.420704       -11.4479
  61   2.0000      -0.415757       -11.3133
  62   2.0000      -0.411846       -11.2069
  63   2.0000      -0.357741        -9.7346
  64   2.0000      -0.330311        -8.9882
  65   2.0000      -0.324652        -8.8342
  66   2.0000      -0.291821        -7.9409
  67   0.0000       0.021960         0.5976
  68   0.0000       0.075605         2.0573
  69   0.0000       0.095485         2.5983
  70   0.0000       0.109352         2.9756
  71   0.0000       0.126867         3.4522

MULLIKEN ATOMIC CHARGES
-----------------------
   0 S :    0.085090
   1 C :   -0.103570
   2 C :   -0.035940
   3 C :    0.022500
   4 C :   -0.081900
   5 H :   -0.058185
   6 C :    0.014640
   7 H :    0.029109
   8 H :    0.052310
   9 C :   -0.053249
  10 H :    0.016225
  11 H :    0.037813
  12 C :   -0.030107
  13 H :    0.025028
  14 H :    0.014269
  15 H :    0.033960
  16 S :    0.076572
  17 C :   -0.087071
  18 C :   -0.052354
  19 C :   -0.041168
  20 C :   -0.150211
  21 H :    0.042147
  22 C :    0.063388
  23 H :    0.030040
  24 H :    0.016779
  25 C :   -0.082655
  26 H :    0.032298
  27 H :    0.031310
  28 C :   -0.038767
  29 H :    0.041320
  30 H :    0.029266
  31 H :    0.029532
  32 H :    0.036711
  33 H :    0.054870
Sum of atomic charges:   -0.0000000

LOEWDIN ATOMIC CHARGES
----------------------
   0 S :    0.360235
   1 C :   -0.182857
   2 C :   -0.061410
   3 C :   -0.056115
   4 C :   -0.170382
   5 H :    0.006415
   6 C :   -0.041631
   7 H :    0.031948
   8 H :    0.045504
   9 C :   -0.035727
  10 H :    0.013504
  11 H :    0.035236
  12 C :   -0.060542
  13 H :    0.020652
  14 H :    0.015196
  15 H :    0.032235
  16 S :    0.370178
  17 C :   -0.161103
  18 C :   -0.068895
  19 C :   -0.060783
  20 C :   -0.181104
  21 H :    0.042529
  22 C :   -0.027290
  23 H :    0.030045
  24 H :    0.026646
  25 C :   -0.038649
  26 H :    0.023942
  27 H :    0.027423
  28 C :   -0.064936
  29 H :    0.025797
  30 H :    0.028104
  31 H :    0.021916
  32 H :    0.029827
  33 H :    0.024091

  Mayer bond orders larger than 0.100000
B(  0-S ,  1-C ) :   1.0969 B(  0-S ,  4-C ) :   1.1138 B(  1-C ,  2-C ) :   1.6894
B(  1-C , 32-H ) :   0.9599 B(  2-C ,  3-C ) :   1.1716 B(  2-C ,  6-C ) :   1.0059
B(  3-C ,  4-C ) :   1.6299 B(  3-C ,  5-H ) :   1.0140 B(  4-C , 20-C ) :   1.0615
B(  6-C ,  7-H ) :   0.9451 B(  6-C ,  8-H ) :   0.9341 B(  6-C ,  9-C ) :   1.0835
B(  9-C , 10-H ) :   0.9455 B(  9-C , 11-H ) :   0.9549 B(  9-C , 12-C ) :   1.0804
B( 12-C , 13-H ) :   0.9722 B( 12-C , 14-H ) :   0.9720 B( 12-C , 15-H ) :   0.9752
B( 16-S , 17-C ) :   1.1318 B( 16-S , 20-C ) :   1.1195 B( 17-C , 18-C ) :   1.6462
B( 17-C , 33-H ) :   0.9706 B( 18-C , 19-C ) :   1.2011 B( 18-C , 21-H ) :   0.9794
B( 19-C , 20-C ) :   1.6398 B( 19-C , 22-C ) :   1.0404 B( 22-C , 23-H ) :   0.9386
B( 22-C , 24-H ) :   0.9339 B( 22-C , 25-C ) :   1.0345 B( 25-C , 26-H ) :   0.9634
B( 25-C , 27-H ) :   0.9537 B( 25-C , 28-C ) :   1.0816 B( 28-C , 29-H ) :   0.9740
B( 28-C , 30-H ) :   0.9734 B( 28-C , 31-H ) :   0.9764

Dispersion correction           -0.015150894
FINAL SINGLE POINT ENERGY     -1339.855501089384

DIPOLE MOMENT
-------------
                                X             Y             Z
Electronic contribution:      3.61363      28.21532      13.78992
Nuclear contribution   :     -3.84936     -29.11789     -13.96029
                        -----------------------------------------
Total Dipole Moment    :     -0.23572      -0.90256      -0.17036
                        -----------------------------------------
Magnitude (a.u.)       :      0.94826
Magnitude (Debye)      :      2.41030

Rotational constants in cm-1:     0.016035     0.011018     0.007118
Rotational constants in MHz :   480.727784   330.313210   213.406089

                             ****ORCA TERMINATED NORMALLY****
TOTAL RUN TIME: 0 days 0 hours 0 minutes 32 seconds 417 msec
