                         Program Version 4.2.1 -  RELEASE  -
|  1> ! wB97X-D3 SP def2-SVP
|  2> %pal
|  3> nprocs 16
|  4> end
|  5>
|  6> * xyz 0 1
|  7> S 	 -42.7595 	 55.2475 	 107.406
|  8> C 	 -44.1282 	 56.3344 	 107.537
|  9> C 	 -43.8075 	 57.4541 	 108.322
| 10> C 	 -42.4503 	 57.4685 	 108.671
| 11> C 	 -41.7434 	 56.4802 	 108.152
| 12> H 	 -41.919 	 58.1916 	 109.355
| 13> C 	 -44.7838 	 58.5464 	 108.768
| 14> H 	 -44.3267 	 59.0805 	 109.621
| 15> H 	 -45.7082 	 58.1085 	 109.235
| 16> C 	 -45.2504 	 59.523 	 107.624
| 17> H 	 -44.3618 	 60.1233 	 107.27
| 18> H 	 -45.5865 	 59.0293 	 106.71
| 19> C 	 -46.2544 	 60.4948 	 108.266
| 20> H 	 -47.1787 	 60.0155 	 108.626
| 21> H 	 -45.8039 	 61.0854 	 109.094
| 22> H 	 -46.6248 	 61.2529 	 107.614
| 23> S 	 -39.8946 	 55.0071 	 109.209
| 24> C 	 -38.1843 	 55.4619 	 108.994
| 25> C 	 -38.0323 	 56.4378 	 108.053
| 26> C 	 -39.2874 	 57.045 	 107.729
| 27> C 	 -40.3552 	 56.298 	 108.263
| 28> H 	 -37.0775 	 56.718 	 107.684
| 29> C 	 -39.4294 	 58.1731 	 106.777
| 30> H 	 -40.2096 	 57.8547 	 106.074
| 31> H 	 -38.5041 	 58.3951 	 106.227
| 32> C 	 -39.9313 	 59.5435 	 107.35
| 33> H 	 -39.1966 	 59.8516 	 108.125
| 34> H 	 -40.9281 	 59.4266 	 107.786
| 35> C 	 -39.9266 	 60.7017 	 106.343
| 36> H 	 -40.6977 	 60.5952 	 105.587
| 37> H 	 -38.905 	 60.7759 	 105.985
| 38> H 	 -40.1041 	 61.7003 	 106.803
| 39> H 	 -45.1961 	 56.0312 	 107.427
| 40> H 	 -37.2995 	 54.9267 	 109.319
| 41> *
| 42>
| 43>                          ****END OF INPUT****

CARTESIAN COORDINATES (ANGSTROEM)
---------------------------------
  S    -42.759500   55.247500  107.406000
  C    -44.128200   56.334400  107.537000
  C    -43.807500   57.454100  108.322000
  C    -42.450300   57.468500  108.671000
  C    -41.743400   56.480200  108.152000
  H    -41.919000   58.191600  109.355000
  C    -44.783800   58.546400  108.768000
  H    -44.326700   59.080500  109.621000
  H    -45.708200   58.108500  109.235000
  C    -45.250400   59.523000  107.624000
  H    -44.361800   60.123300  107.270000
  H    -45.586500   59.029300  106.710000
  C    -46.254400   60.494800  108.266000
  H    -47.178700   60.015500  108.626000
  H    -45.803900   61.085400  109.094000
  H    -46.624800   61.252900  107.614000
  S    -39.894600   55.007100  109.209000
  C    -38.184300   55.461900  108.994000
  C    -38.032300   56.437800  108.053000
  C    -39.287400   57.045000  107.729000
  C    -40.355200   56.298000  108.263000
  H    -37.077500   56.718000  107.684000
  C    -39.429400   58.173100  106.777000
  H    -40.209600   57.854700  106.074000
  H    -38.504100   58.395100  106.227000
  C    -39.931300   59.543500  107.350000
  H    -39.196600   59.851600  108.125000
  H    -40.928100   59.426600  107.786000
  C    -39.926600   60.701700  106.343000
  H    -40.697700   60.595200  105.587000
  H    -38.905000   60.775900  105.985000
  H    -40.104100   61.700300  106.803000
  H    -45.196100   56.031200  107.427000
  H    -37.299500   54.926700  109.319000

 Total Charge           Charge          ....    0
 Multiplicity           Mult            ....    1
 Number of Electrons    NEL             ....  134
 Basis Dimension        Dim             ....  322

ORBITAL ENERGIES
----------------

  NO   OCC          E(Eh)            E(eV)
   0   2.0000     -88.967141     -2420.9190
   1   2.0000     -88.966656     -2420.9058
   2   2.0000     -10.316785      -280.7340
   3   2.0000     -10.316593      -280.7288
   4   2.0000     -10.313373      -280.6411
   5   2.0000     -10.312943      -280.6295
   6   2.0000     -10.301648      -280.3221
   7   2.0000     -10.300701      -280.2963
   8   2.0000     -10.300595      -280.2934
   9   2.0000     -10.296552      -280.1834
  10   2.0000     -10.290588      -280.0211
  11   2.0000     -10.289487      -279.9912
  12   2.0000     -10.288951      -279.9766
  13   2.0000     -10.285751      -279.8895
  14   2.0000     -10.280239      -279.7395
  15   2.0000     -10.277815      -279.6736
  16   2.0000      -8.082914      -219.9473
  17   2.0000      -8.081263      -219.9024
  18   2.0000      -6.041396      -164.3947
  19   2.0000      -6.039760      -164.3502
  20   2.0000      -6.037261      -164.2822
  21   2.0000      -6.035948      -164.2465
  22   2.0000      -6.033640      -164.1837
  23   2.0000      -6.031882      -164.1359
  24   2.0000      -1.018717       -27.7207
  25   2.0000      -0.987647       -26.8752
  26   2.0000      -0.907042       -24.6819
  27   2.0000      -0.904279       -24.6067
  28   2.0000      -0.877446       -23.8765
  29   2.0000      -0.853011       -23.2116
  30   2.0000      -0.849291       -23.1104
  31   2.0000      -0.818188       -22.2640
  32   2.0000      -0.778055       -21.1719
  33   2.0000      -0.762600       -20.7514
  34   2.0000      -0.705359       -19.1938
  35   2.0000      -0.704213       -19.1626
  36   2.0000      -0.686846       -18.6900
  37   2.0000      -0.666896       -18.1472
  38   2.0000      -0.643297       -17.5050
  39   2.0000      -0.617169       -16.7940
  40   2.0000      -0.591843       -16.1049
  41   2.0000      -0.572788       -15.5864
  42   2.0000      -0.565326       -15.3833
  43   2.0000      -0.551730       -15.0133
  44   2.0000      -0.525022       -14.2866
  45   2.0000      -0.521066       -14.1789
  46   2.0000      -0.514401       -13.9976
  47   2.0000      -0.509947       -13.8764
  48   2.0000      -0.501056       -13.6344
  49   2.0000      -0.498324       -13.5601
  50   2.0000      -0.493427       -13.4268
  51   2.0000      -0.475025       -12.9261
  52   2.0000      -0.472363       -12.8537
  53   2.0000      -0.461730       -12.5643
  54   2.0000      -0.459171       -12.4947
  55   2.0000      -0.454500       -12.3676
  56   2.0000      -0.446558       -12.1515
  57   2.0000      -0.437812       -11.9135
  58   2.0000      -0.432135       -11.7590
  59   2.0000      -0.425203       -11.5704
  60   2.0000      -0.423058       -11.5120
  61   2.0000      -0.419654       -11.4194
  62   2.0000      -0.413222       -11.2443
  63   2.0000      -0.348437        -9.4815
  64   2.0000      -0.333788        -9.0828
  65   2.0000      -0.320099        -8.7103
  66   2.0000      -0.294146        -8.0041
  67   0.0000       0.033835         0.9207
  68   0.0000       0.059838         1.6283
  69   0.0000       0.105144         2.8611
  70   0.0000       0.117057         3.1853
  71   0.0000       0.135370         3.6836

MULLIKEN ATOMIC CHARGES
-----------------------
   0 S :    0.114386
   1 C :   -0.120189
   2 C :   -0.084088
   3 C :    0.024444
   4 C :   -0.172132
   5 H :    0.046285
   6 C :    0.024172
   7 H :    0.025635
   8 H :    0.033193
   9 C :   -0.069901
  10 H :    0.036701
  11 H :    0.039435
  12 C :   -0.052329
  13 H :    0.032290
  14 H :    0.034007
  15 H :    0.023206
  16 S :    0.127263
  17 C :   -0.083731
  18 C :   -0.029607
  19 C :   -0.002764
  20 C :   -0.185397
  21 H :    0.006797
  22 C :    0.060428
  23 H :    0.037671
  24 H :    0.014772
  25 C :   -0.105618
  26 H :    0.027255
  27 H :    0.032350
  28 C :   -0.040243
  29 H :    0.035437
  30 H :    0.024492
  31 H :    0.032713
  32 H :    0.064018
  33 H :    0.049050
Sum of atomic charges:   -0.0000000

LOEWDIN ATOMIC CHARGES
----------------------
   0 S :    0.396878
   1 C :   -0.208352
   2 C :   -0.063984
   3 C :   -0.067655
   4 C :   -0.197837
   5 H :    0.046490
   6 C :   -0.035525
   7 H :    0.031516
   8 H :    0.033005
   9 C :   -0.039172
  10 H :    0.030515
  11 H :    0.025402
  12 C :   -0.072714
  13 H :    0.025704
  14 H :    0.030589
  15 H :    0.020403
  16 S :    0.439927
  17 C :   -0.184709
  18 C :   -0.057710
  19 C :   -0.054989
  20 C :   -0.230290
  21 H :    0.027742
  22 C :   -0.036109
  23 H :    0.036967
  24 H :    0.029426
  25 C :   -0.042491
  26 H :    0.024297
  27 H :    0.018878
  28 C :   -0.067364
  29 H :    0.022668
  30 H :    0.023059
  31 H :    0.030364
  32 H :    0.036615
  33 H :    0.028456

  Mayer bond orders larger than 0.100000
B(  0-S ,  1-C ) :   1.1342 B(  0-S ,  4-C ) :   1.1318 B(  1-C ,  2-C ) :   1.6127
B(  1-C ,  4-C ) :   0.1043 B(  1-C , 32-H ) :   0.9588 B(  2-C ,  3-C ) :   1.2461
B(  2-C ,  6-C ) :   1.0128 B(  3-C ,  4-C ) :   1.6234 B(  3-C ,  5-H ) :   0.9716
B(  4-C , 20-C ) :   1.0248 B(  6-C ,  7-H ) :   0.9487 B(  6-C ,  8-H ) :   0.9444
B(  6-C ,  9-C ) :   1.0473 B(  9-C , 10-H ) :   0.9542 B(  9-C , 11-H ) :   0.9616
B(  9-C , 12-C ) :   1.0740 B( 12-C , 13-H ) :   0.9754 B( 12-C , 14-H ) :   0.9738
B( 12-C , 15-H ) :   0.9732 B( 16-S , 17-C ) :   1.1379 B( 16-S , 20-C ) :   1.1796
B( 17-C , 18-C ) :   1.6268 B( 17-C , 20-C ) :   0.1017 B( 17-C , 33-H ) :   0.9635
B( 18-C , 19-C ) :   1.2417 B( 18-C , 21-H ) :   0.9917 B( 19-C , 20-C ) :   1.5584
B( 19-C , 22-C ) :   1.0619 B( 22-C , 23-H ) :   0.9250 B( 22-C , 24-H ) :   0.9369
B( 22-C , 25-C ) :   1.0598 B( 25-C , 26-H ) :   0.9561 B( 25-C , 27-H ) :   0.9481
B( 25-C , 28-C ) :   1.0892 B( 28-C , 29-H ) :   0.9759 B( 28-C , 30-H ) :   0.9724
B( 28-C , 31-H ) :   0.9734

Dispersion correction           -0.014446974
FINAL SINGLE POINT ENERGY     -1339.872204918255

DIPOLE MOMENT
-------------
                                X             Y             Z
Electronic contribution:      9.63736     -30.29928       5.18661
Nuclear contribution   :     -9.67698      30.86953      -5.16462
                        -----------------------------------------
Total Dipole Moment    :     -0.03963       0.57025       0.02199
                        -----------------------------------------
Magnitude (a.u.)       :      0.57205
Magnitude (Debye)      :      1.45403

Rotational constants in cm-1:     0.018983     0.009080     0.006791
Rotational constants in MHz :   569.090187   272.225577   203.584870

                             ****ORCA TERMINATED NORMALLY****
TOTAL RUN TIME: 0 days 0 hours 0 minutes 30 seconds 589 msec
