                         Program Version 4.2.1 -  RELEASE  -
|  1> ! wB97X-D3 SP def2-SVP
|  2> %pal
|  3> nprocs 16
|  4> end
|  5>
|  6> * xyz 0 1
|  7> S 	 -76.4173 	 48.3608 	 122.863
|  8> C 	 -77.7823 	 48.9827 	 123.681
|  9> C 	 -78.9616 	 48.4134 	 123.283
| 10> C 	 -78.6914 	 47.3226 	 122.378
| 11> C 	 -77.3743 	 47.1248 	 122.033
| 12> H 	 -79.3904 	 46.6533 	 122.011
| 13> C 	 -80.323 	 48.6714 	 123.914
| 14> H 	 -80.9293 	 49.3299 	 123.33
| 15> H 	 -80.0618 	 49.2928 	 124.821
| 16> C 	 -81.1446 	 47.4256 	 124.316
| 17> H 	 -82.1531 	 47.8431 	 124.242
| 18> H 	 -81.0562 	 46.5785 	 123.633
| 19> C 	 -80.887 	 46.8977 	 125.725
| 20> H 	 -81.6062 	 46.1187 	 125.924
| 21> H 	 -79.858 	 46.4994 	 125.786
| 22> H 	 -80.9757 	 47.7052 	 126.378
| 23> S 	 -75.8452 	 46.9558 	 119.744
| 24> C 	 -75.4962 	 45.3782 	 119.024
| 25> C 	 -76.0324 	 44.4042 	 119.797
| 26> C 	 -76.7373 	 44.8708 	 120.962
| 27> C 	 -76.7942 	 46.2645 	 121.04
| 28> H 	 -76.0008 	 43.2955 	 119.534
| 29> C 	 -77.4695 	 43.8926 	 121.822
| 30> H 	 -77.2907 	 42.912 	 121.378
| 31> H 	 -78.5215 	 43.9548 	 121.604
| 32> C 	 -77.2001 	 44.049 	 123.367
| 33> H 	 -77.3156 	 45.0672 	 123.677
| 34> H 	 -76.1409 	 43.8144 	 123.474
| 35> C 	 -77.9862 	 43.1998 	 124.33
| 36> H 	 -77.6394 	 43.4327 	 125.363
| 37> H 	 -77.9236 	 42.1175 	 124.071
| 38> H 	 -79.0646 	 43.4897 	 124.289
| 39> H 	 -77.7538 	 49.7206 	 124.5
| 40> H 	 -74.8501 	 45.2493 	 118.107
| 41> *
| 42>
| 43>                          ****END OF INPUT****

CARTESIAN COORDINATES (ANGSTROEM)
---------------------------------
  S    -76.417300   48.360800  122.863000
  C    -77.782300   48.982700  123.681000
  C    -78.961600   48.413400  123.283000
  C    -78.691400   47.322600  122.378000
  C    -77.374300   47.124800  122.033000
  H    -79.390400   46.653300  122.011000
  C    -80.323000   48.671400  123.914000
  H    -80.929300   49.329900  123.330000
  H    -80.061800   49.292800  124.821000
  C    -81.144600   47.425600  124.316000
  H    -82.153100   47.843100  124.242000
  H    -81.056200   46.578500  123.633000
  C    -80.887000   46.897700  125.725000
  H    -81.606200   46.118700  125.924000
  H    -79.858000   46.499400  125.786000
  H    -80.975700   47.705200  126.378000
  S    -75.845200   46.955800  119.744000
  C    -75.496200   45.378200  119.024000
  C    -76.032400   44.404200  119.797000
  C    -76.737300   44.870800  120.962000
  C    -76.794200   46.264500  121.040000
  H    -76.000800   43.295500  119.534000
  C    -77.469500   43.892600  121.822000
  H    -77.290700   42.912000  121.378000
  H    -78.521500   43.954800  121.604000
  C    -77.200100   44.049000  123.367000
  H    -77.315600   45.067200  123.677000
  H    -76.140900   43.814400  123.474000
  C    -77.986200   43.199800  124.330000
  H    -77.639400   43.432700  125.363000
  H    -77.923600   42.117500  124.071000
  H    -79.064600   43.489700  124.289000
  H    -77.753800   49.720600  124.500000
  H    -74.850100   45.249300  118.107000

 Total Charge           Charge          ....    0
 Multiplicity           Mult            ....    1
 Number of Electrons    NEL             ....  134
 Basis Dimension        Dim             ....  322

ORBITAL ENERGIES
----------------

  NO   OCC          E(Eh)            E(eV)
   0   2.0000     -88.964156     -2420.8378
   1   2.0000     -88.963569     -2420.8218
   2   2.0000     -10.328174      -281.0439
   3   2.0000     -10.326001      -280.9848
   4   2.0000     -10.322082      -280.8781
   5   2.0000     -10.313394      -280.6417
   6   2.0000     -10.301624      -280.3214
   7   2.0000     -10.299983      -280.2768
   8   2.0000     -10.297585      -280.2115
   9   2.0000     -10.296959      -280.1945
  10   2.0000     -10.290022      -280.0057
  11   2.0000     -10.289597      -279.9942
  12   2.0000     -10.288622      -279.9676
  13   2.0000     -10.282587      -279.8034
  14   2.0000     -10.280156      -279.7373
  15   2.0000     -10.274208      -279.5754
  16   2.0000      -8.079400      -219.8516
  17   2.0000      -8.078190      -219.8187
  18   2.0000      -6.037891      -164.2994
  19   2.0000      -6.036813      -164.2700
  20   2.0000      -6.033733      -164.1862
  21   2.0000      -6.032611      -164.1557
  22   2.0000      -6.030233      -164.0910
  23   2.0000      -6.028922      -164.0553
  24   2.0000      -1.008565       -27.4444
  25   2.0000      -0.986028       -26.8312
  26   2.0000      -0.912800       -24.8386
  27   2.0000      -0.904655       -24.6169
  28   2.0000      -0.875098       -23.8126
  29   2.0000      -0.851713       -23.1763
  30   2.0000      -0.847190       -23.0532
  31   2.0000      -0.819221       -22.2921
  32   2.0000      -0.783599       -21.3228
  33   2.0000      -0.770140       -20.9566
  34   2.0000      -0.712761       -19.3952
  35   2.0000      -0.697446       -18.9785
  36   2.0000      -0.685555       -18.6549
  37   2.0000      -0.658033       -17.9060
  38   2.0000      -0.643934       -17.5223
  39   2.0000      -0.624161       -16.9843
  40   2.0000      -0.595080       -16.1929
  41   2.0000      -0.571547       -15.5526
  42   2.0000      -0.559410       -15.2223
  43   2.0000      -0.553654       -15.0657
  44   2.0000      -0.538205       -14.6453
  45   2.0000      -0.525622       -14.3029
  46   2.0000      -0.518278       -14.1031
  47   2.0000      -0.511205       -13.9106
  48   2.0000      -0.504264       -13.7217
  49   2.0000      -0.499989       -13.6054
  50   2.0000      -0.494775       -13.4635
  51   2.0000      -0.487126       -13.2554
  52   2.0000      -0.469805       -12.7840
  53   2.0000      -0.467034       -12.7086
  54   2.0000      -0.457721       -12.4552
  55   2.0000      -0.448482       -12.2038
  56   2.0000      -0.442938       -12.0530
  57   2.0000      -0.439250       -11.9526
  58   2.0000      -0.427917       -11.6442
  59   2.0000      -0.426980       -11.6187
  60   2.0000      -0.421547       -11.4709
  61   2.0000      -0.413588       -11.2543
  62   2.0000      -0.411134       -11.1875
  63   2.0000      -0.348229        -9.4758
  64   2.0000      -0.328815        -8.9475
  65   2.0000      -0.327902        -8.9227
  66   2.0000      -0.295315        -8.0359
  67   0.0000       0.034231         0.9315
  68   0.0000       0.063972         1.7408
  69   0.0000       0.115889         3.1535
  70   0.0000       0.121108         3.2955
  71   0.0000       0.130012         3.5378

MULLIKEN ATOMIC CHARGES
-----------------------
   0 S :    0.114757
   1 C :   -0.126915
   2 C :   -0.073714
   3 C :    0.056729
   4 C :   -0.180966
   5 H :   -0.022748
   6 C :    0.063735
   7 H :    0.033658
   8 H :    0.017727
   9 C :   -0.102646
  10 H :    0.026793
  11 H :    0.036413
  12 C :   -0.012607
  13 H :    0.037643
  14 H :    0.039339
  15 H :    0.014100
  16 S :    0.102025
  17 C :   -0.118363
  18 C :   -0.039438
  19 C :   -0.049831
  20 C :   -0.150754
  21 H :    0.042953
  22 C :    0.087098
  23 H :   -0.000770
  24 H :    0.020698
  25 C :   -0.083284
  26 H :    0.046012
  27 H :    0.028684
  28 C :   -0.052251
  29 H :    0.043749
  30 H :    0.037297
  31 H :    0.027234
  32 H :    0.054353
  33 H :    0.083290
Sum of atomic charges:    0.0000000

LOEWDIN ATOMIC CHARGES
----------------------
   0 S :    0.411024
   1 C :   -0.207245
   2 C :   -0.070361
   3 C :   -0.049331
   4 C :   -0.191513
   5 H :    0.016271
   6 C :   -0.030660
   7 H :    0.028243
   8 H :    0.035288
   9 C :   -0.040797
  10 H :    0.026516
  11 H :    0.022756
  12 C :   -0.054267
  13 H :    0.027053
  14 H :    0.030335
  15 H :    0.014028
  16 S :    0.399713
  17 C :   -0.189091
  18 C :   -0.083134
  19 C :   -0.057136
  20 C :   -0.203130
  21 H :    0.042799
  22 C :   -0.035694
  23 H :    0.027707
  24 H :    0.027573
  25 C :   -0.040891
  26 H :    0.024563
  27 H :    0.025708
  28 C :   -0.070091
  29 H :    0.033426
  30 H :    0.026573
  31 H :    0.024302
  32 H :    0.033563
  33 H :    0.045897

  Mayer bond orders larger than 0.100000
B(  0-S ,  1-C ) :   1.1545 B(  0-S ,  4-C ) :   1.1290 B(  1-C ,  2-C ) :   1.6201
B(  1-C , 32-H ) :   0.9573 B(  2-C ,  3-C ) :   1.2310 B(  2-C ,  6-C ) :   1.0162
B(  3-C ,  4-C ) :   1.5898 B(  3-C ,  5-H ) :   1.0051 B(  4-C , 20-C ) :   1.0569
B(  6-C ,  7-H ) :   0.9374 B(  6-C ,  8-H ) :   0.9447 B(  6-C ,  9-C ) :   1.0581
B(  9-C , 10-H ) :   0.9542 B(  9-C , 11-H ) :   0.9594 B(  9-C , 12-C ) :   1.0845
B( 12-C , 13-H ) :   0.9737 B( 12-C , 14-H ) :   0.9761 B( 12-C , 15-H ) :   0.9734
B( 16-S , 17-C ) :   1.1468 B( 16-S , 20-C ) :   1.1396 B( 17-C , 18-C ) :   1.6099
B( 17-C , 33-H ) :   0.9602 B( 18-C , 19-C ) :   1.2595 B( 18-C , 21-H ) :   0.9724
B( 19-C , 20-C ) :   1.5774 B( 19-C , 22-C ) :   1.0484 B( 22-C , 23-H ) :   0.9270
B( 22-C , 24-H ) :   0.9304 B( 22-C , 25-C ) :   1.0344 B( 25-C , 26-H ) :   0.9566
B( 25-C , 27-H ) :   0.9558 B( 25-C , 28-C ) :   1.0958 B( 28-C , 29-H ) :   0.9715
B( 28-C , 30-H ) :   0.9730 B( 28-C , 31-H ) :   0.9715

Dispersion correction           -0.015117824
FINAL SINGLE POINT ENERGY     -1339.886395764276

DIPOLE MOMENT
-------------
                                X             Y             Z
Electronic contribution:     19.55818      13.52528     -19.32973
Nuclear contribution   :    -20.09943     -13.86783      19.58633
                        -----------------------------------------
Total Dipole Moment    :     -0.54125      -0.34255       0.25660
                        -----------------------------------------
Magnitude (a.u.)       :      0.69003
Magnitude (Debye)      :      1.75392

Rotational constants in cm-1:     0.019180     0.009649     0.007348
Rotational constants in MHz :   574.996126   289.259368   220.279950

                             ****ORCA TERMINATED NORMALLY****
TOTAL RUN TIME: 0 days 0 hours 0 minutes 36 seconds 21 msec
