                         Program Version 4.2.1 -  RELEASE  -
|  1> ! wB97X-D3 SP def2-SVP
|  2> %pal
|  3> nprocs 16
|  4> end
|  5>
|  6> * xyz 0 1
|  7> S 	 1.45442 	 21.0945 	 52.5571
|  8> C 	 1.71389 	 20.2511 	 50.9987
|  9> C 	 0.633375 	 20.3343 	 50.1832
| 10> C 	 -0.434343 	 21.0587 	 50.7599
| 11> C 	 -0.130775 	 21.477 	 52.0447
| 12> H 	 -1.42164 	 21.1441 	 50.2692
| 13> C 	 0.510166 	 19.7266 	 48.8304
| 14> H 	 -0.406999 	 20.112 	 48.3697
| 15> H 	 0.410561 	 18.6444 	 48.9012
| 16> C 	 1.78609 	 19.8716 	 47.9474
| 17> H 	 2.04233 	 20.8802 	 47.7577
| 18> H 	 2.66645 	 19.5606 	 48.5082
| 19> C 	 1.58814 	 19.3321 	 46.539
| 20> H 	 2.5209 	 19.557 	 45.8918
| 21> H 	 1.49353 	 18.2237 	 46.4765
| 22> H 	 0.777259 	 19.7453 	 45.9905
| 23> S 	 -1.26922 	 21.4531 	 54.5499
| 24> C 	 -2.31307 	 22.7 	 55.1362
| 25> C 	 -2.26214 	 23.7527 	 54.2016
| 26> C 	 -1.66541 	 23.3888 	 52.9204
| 27> C 	 -1.02223 	 22.1483 	 52.948
| 28> H 	 -2.64487 	 24.7629 	 54.4317
| 29> C 	 -1.67879 	 24.3508 	 51.6409
| 30> H 	 -2.69572 	 24.7569 	 51.5222
| 31> H 	 -1.40572 	 23.7881 	 50.6792
| 32> C 	 -0.827588 	 25.6748 	 51.713
| 33> H 	 -1.08 	 26.0994 	 52.6996
| 34> H 	 -1.09721 	 26.5011 	 50.9994
| 35> C 	 0.670483 	 25.4283 	 51.7938
| 36> H 	 1.22643 	 26.3066 	 51.678
| 37> H 	 1.07683 	 24.7935 	 51.0695
| 38> H 	 0.942886 	 25.1305 	 52.7829
| 39> H 	 2.50115 	 19.5214 	 50.8057
| 40> H 	 -2.86943 	 22.7068 	 56.0352
| 41> *
| 42>
| 43>                          ****END OF INPUT****

CARTESIAN COORDINATES (ANGSTROEM)
---------------------------------
  S      1.454420   21.094500   52.557100
  C      1.713890   20.251100   50.998700
  C      0.633375   20.334300   50.183200
  C     -0.434343   21.058700   50.759900
  C     -0.130775   21.477000   52.044700
  H     -1.421640   21.144100   50.269200
  C      0.510166   19.726600   48.830400
  H     -0.406999   20.112000   48.369700
  H      0.410561   18.644400   48.901200
  C      1.786090   19.871600   47.947400
  H      2.042330   20.880200   47.757700
  H      2.666450   19.560600   48.508200
  C      1.588140   19.332100   46.539000
  H      2.520900   19.557000   45.891800
  H      1.493530   18.223700   46.476500
  H      0.777259   19.745300   45.990500
  S     -1.269220   21.453100   54.549900
  C     -2.313070   22.700000   55.136200
  C     -2.262140   23.752700   54.201600
  C     -1.665410   23.388800   52.920400
  C     -1.022230   22.148300   52.948000
  H     -2.644870   24.762900   54.431700
  C     -1.678790   24.350800   51.640900
  H     -2.695720   24.756900   51.522200
  H     -1.405720   23.788100   50.679200
  C     -0.827588   25.674800   51.713000
  H     -1.080000   26.099400   52.699600
  H     -1.097210   26.501100   50.999400
  C      0.670483   25.428300   51.793800
  H      1.226430   26.306600   51.678000
  H      1.076830   24.793500   51.069500
  H      0.942886   25.130500   52.782900
  H      2.501150   19.521400   50.805700
  H     -2.869430   22.706800   56.035200

 Total Charge           Charge          ....    0
 Multiplicity           Mult            ....    1
 Number of Electrons    NEL             ....  134
 Basis Dimension        Dim             ....  322

ORBITAL ENERGIES
----------------

  NO   OCC          E(Eh)            E(eV)
   0   2.0000     -88.969901     -2420.9941
   1   2.0000     -88.963591     -2420.8224
   2   2.0000     -10.328266      -281.0464
   3   2.0000     -10.327976      -281.0385
   4   2.0000     -10.320871      -280.8452
   5   2.0000     -10.314942      -280.6839
   6   2.0000     -10.309683      -280.5407
   7   2.0000     -10.304553      -280.4011
   8   2.0000     -10.303738      -280.3790
   9   2.0000     -10.294440      -280.1260
  10   2.0000     -10.293368      -280.0968
  11   2.0000     -10.292844      -280.0825
  12   2.0000     -10.289499      -279.9915
  13   2.0000     -10.285623      -279.8860
  14   2.0000     -10.285260      -279.8761
  15   2.0000     -10.256126      -279.0834
  16   2.0000      -8.084614      -219.9935
  17   2.0000      -8.078553      -219.8286
  18   2.0000      -6.043079      -164.4405
  19   2.0000      -6.039215      -164.3354
  20   2.0000      -6.037087      -164.2775
  21   2.0000      -6.035312      -164.2292
  22   2.0000      -6.032855      -164.1623
  23   2.0000      -6.029406      -164.0685
  24   2.0000      -1.010352       -27.4931
  25   2.0000      -0.983820       -26.7711
  26   2.0000      -0.916084       -24.9279
  27   2.0000      -0.895774       -24.3752
  28   2.0000      -0.871326       -23.7100
  29   2.0000      -0.852512       -23.1980
  30   2.0000      -0.839529       -22.8447
  31   2.0000      -0.811550       -22.0834
  32   2.0000      -0.782198       -21.2847
  33   2.0000      -0.773888       -21.0586
  34   2.0000      -0.715008       -19.4564
  35   2.0000      -0.701682       -19.0937
  36   2.0000      -0.690925       -18.8010
  37   2.0000      -0.656823       -17.8731
  38   2.0000      -0.636578       -17.3222
  39   2.0000      -0.620283       -16.8788
  40   2.0000      -0.591291       -16.0899
  41   2.0000      -0.570460       -15.5230
  42   2.0000      -0.561195       -15.2709
  43   2.0000      -0.544555       -14.8181
  44   2.0000      -0.539902       -14.6915
  45   2.0000      -0.522506       -14.2181
  46   2.0000      -0.516237       -14.0475
  47   2.0000      -0.513060       -13.9611
  48   2.0000      -0.505100       -13.7445
  49   2.0000      -0.499904       -13.6031
  50   2.0000      -0.492609       -13.4046
  51   2.0000      -0.479462       -13.0468
  52   2.0000      -0.469468       -12.7749
  53   2.0000      -0.463613       -12.6156
  54   2.0000      -0.459580       -12.5058
  55   2.0000      -0.457981       -12.4623
  56   2.0000      -0.439745       -11.9661
  57   2.0000      -0.434770       -11.8307
  58   2.0000      -0.427456       -11.6317
  59   2.0000      -0.424308       -11.5460
  60   2.0000      -0.416635       -11.3372
  61   2.0000      -0.415650       -11.3104
  62   2.0000      -0.406952       -11.0737
  63   2.0000      -0.341782        -9.3004
  64   2.0000      -0.335520        -9.1300
  65   2.0000      -0.324856        -8.8398
  66   2.0000      -0.293796        -7.9946
  67   0.0000       0.030607         0.8329
  68   0.0000       0.062082         1.6893
  69   0.0000       0.109541         2.9807
  70   0.0000       0.119615         3.2549
  71   0.0000       0.129294         3.5183

MULLIKEN ATOMIC CHARGES
-----------------------
   0 S :    0.127255
   1 C :   -0.149063
   2 C :   -0.065947
   3 C :    0.011540
   4 C :   -0.143072
   5 H :    0.029029
   6 C :    0.082297
   7 H :    0.016784
   8 H :    0.037850
   9 C :   -0.064901
  10 H :    0.017820
  11 H :    0.025665
  12 C :   -0.073974
  13 H :    0.040080
  14 H :    0.031730
  15 H :    0.031699
  16 S :    0.101918
  17 C :   -0.081965
  18 C :   -0.055043
  19 C :   -0.025258
  20 C :   -0.166602
  21 H :    0.035431
  22 C :    0.044021
  23 H :    0.032815
  24 H :    0.043865
  25 C :   -0.110455
  26 H :    0.017402
  27 H :    0.043255
  28 C :    0.009658
  29 H :    0.003866
  30 H :    0.020484
  31 H :    0.023078
  32 H :    0.052124
  33 H :    0.056615
Sum of atomic charges:   -0.0000000

LOEWDIN ATOMIC CHARGES
----------------------
   0 S :    0.416168
   1 C :   -0.199082
   2 C :   -0.062028
   3 C :   -0.067422
   4 C :   -0.199429
   5 H :    0.038769
   6 C :   -0.028641
   7 H :    0.029333
   8 H :    0.036285
   9 C :   -0.041166
  10 H :    0.021349
  11 H :    0.025220
  12 C :   -0.070949
  13 H :    0.036773
  14 H :    0.023485
  15 H :    0.021006
  16 S :    0.410812
  17 C :   -0.188804
  18 C :   -0.075174
  19 C :   -0.053848
  20 C :   -0.200991
  21 H :    0.032779
  22 C :   -0.033424
  23 H :    0.031795
  24 H :    0.035063
  25 C :   -0.048379
  26 H :    0.022993
  27 H :    0.029582
  28 C :   -0.061699
  29 H :    0.019906
  30 H :    0.017613
  31 H :    0.025857
  32 H :    0.028430
  33 H :    0.027818

  Mayer bond orders larger than 0.100000
B(  0-S ,  1-C ) :   1.1075 B(  0-S ,  4-C ) :   1.1747 B(  1-C ,  2-C ) :   1.6351
B(  1-C , 32-H ) :   0.9615 B(  2-C ,  3-C ) :   1.2539 B(  2-C ,  6-C ) :   1.0248
B(  3-C ,  4-C ) :   1.5562 B(  3-C ,  5-H ) :   0.9893 B(  4-C , 20-C ) :   1.0431
B(  6-C ,  7-H ) :   0.9439 B(  6-C ,  8-H ) :   0.9289 B(  6-C ,  9-C ) :   1.0567
B(  9-C , 10-H ) :   0.9558 B(  9-C , 11-H ) :   0.9521 B(  9-C , 12-C ) :   1.0804
B( 12-C , 13-H ) :   0.9737 B( 12-C , 14-H ) :   0.9755 B( 12-C , 15-H ) :   0.9744
B( 16-S , 17-C ) :   1.1672 B( 16-S , 20-C ) :   1.1420 B( 17-C , 18-C ) :   1.5733
B( 17-C , 20-C ) :   0.1069 B( 17-C , 33-H ) :   0.9788 B( 18-C , 19-C ) :   1.2615
B( 18-C , 21-H ) :   0.9816 B( 19-C , 20-C ) :   1.5723 B( 19-C , 22-C ) :   1.0222
B( 22-C , 23-H ) :   0.9392 B( 22-C , 24-H ) :   0.9474 B( 22-C , 25-C ) :   1.0611
B( 25-C , 26-H ) :   0.9567 B( 25-C , 27-H ) :   0.9615 B( 25-C , 28-C ) :   1.0760
B( 28-C , 29-H ) :   0.9671 B( 28-C , 30-H ) :   0.9774 B( 28-C , 31-H ) :   0.9739

Dispersion correction           -0.014370375
FINAL SINGLE POINT ENERGY     -1339.864094006495

DIPOLE MOMENT
-------------
                                X             Y             Z
Electronic contribution:     -4.28804      -7.19085      25.10215
Nuclear contribution   :      4.13892       7.39125     -25.53375
                        -----------------------------------------
Total Dipole Moment    :     -0.14913       0.20039      -0.43159
                        -----------------------------------------
Magnitude (a.u.)       :      0.49867
Magnitude (Debye)      :      1.26751

Rotational constants in cm-1:     0.021979     0.007688     0.006613
Rotational constants in MHz :   658.918119   230.494055   198.252975

                             ****ORCA TERMINATED NORMALLY****
TOTAL RUN TIME: 0 days 0 hours 0 minutes 35 seconds 88 msec
