                         Program Version 4.2.1 -  RELEASE  -
|  1> ! wB97X-D3 SP def2-SVP
|  2> %pal
|  3> nprocs 16
|  4> end
|  5>
|  6> * xyz 0 1
|  7> S 	 1.91435 	 -5.3929 	 74.7286
|  8> C 	 2.33218 	 -6.5656 	 76.0012
|  9> C 	 1.75414 	 -6.26375 	 77.1797
| 10> C 	 1.19401 	 -4.97515 	 77.1914
| 11> C 	 1.07419 	 -4.40404 	 75.9485
| 12> H 	 0.785401 	 -4.48195 	 78.0453
| 13> C 	 1.81793 	 -7.09367 	 78.4731
| 14> H 	 2.08123 	 -6.50733 	 79.3761
| 15> H 	 2.62969 	 -7.79796 	 78.4849
| 16> C 	 0.493317 	 -7.96858 	 78.806
| 17> H 	 0.651285 	 -8.46083 	 79.8312
| 18> H 	 -0.375045 	 -7.28355 	 78.8539
| 19> C 	 0.215716 	 -9.18859 	 77.8101
| 20> H 	 0.324173 	 -8.82625 	 76.7574
| 21> H 	 0.910583 	 -9.95452 	 77.9097
| 22> H 	 -0.844758 	 -9.55703 	 77.9566
| 23> S 	 1.55734 	 -2.02042 	 74.751
| 24> C 	 0.397693 	 -0.760905 	 74.7829
| 25> C 	 -0.788509 	 -1.17299 	 75.4016
| 26> C 	 -0.770969 	 -2.56537 	 75.8389
| 27> C 	 0.451393 	 -3.12506 	 75.5731
| 28> H 	 -1.59809 	 -0.452738 	 75.5139
| 29> C 	 -1.82786 	 -3.21887 	 76.6279
| 30> H 	 -2.36785 	 -2.40562 	 76.9069
| 31> H 	 -1.44385 	 -3.7737 	 77.4859
| 32> C 	 -2.68266 	 -4.13255 	 75.7812
| 33> H 	 -2.04521 	 -4.86485 	 75.3848
| 34> H 	 -3.11266 	 -3.62374 	 74.8459
| 35> C 	 -3.74572 	 -4.86994 	 76.5367
| 36> H 	 -4.22445 	 -4.18612 	 77.2275
| 37> H 	 -3.20492 	 -5.6728 	 77.1498
| 38> H 	 -4.56206 	 -5.3788 	 76.051
| 39> H 	 2.8765 	 -7.4339 	 75.8961
| 40> H 	 0.499115 	 0.313582 	 74.6227
| 41> *
| 42>
| 43>                          ****END OF INPUT****

CARTESIAN COORDINATES (ANGSTROEM)
---------------------------------
  S      1.914350   -5.392900   74.728600
  C      2.332180   -6.565600   76.001200
  C      1.754140   -6.263750   77.179700
  C      1.194010   -4.975150   77.191400
  C      1.074190   -4.404040   75.948500
  H      0.785401   -4.481950   78.045300
  C      1.817930   -7.093670   78.473100
  H      2.081230   -6.507330   79.376100
  H      2.629690   -7.797960   78.484900
  C      0.493317   -7.968580   78.806000
  H      0.651285   -8.460830   79.831200
  H     -0.375045   -7.283550   78.853900
  C      0.215716   -9.188590   77.810100
  H      0.324173   -8.826250   76.757400
  H      0.910583   -9.954520   77.909700
  H     -0.844758   -9.557030   77.956600
  S      1.557340   -2.020420   74.751000
  C      0.397693   -0.760905   74.782900
  C     -0.788509   -1.172990   75.401600
  C     -0.770969   -2.565370   75.838900
  C      0.451393   -3.125060   75.573100
  H     -1.598090   -0.452738   75.513900
  C     -1.827860   -3.218870   76.627900
  H     -2.367850   -2.405620   76.906900
  H     -1.443850   -3.773700   77.485900
  C     -2.682660   -4.132550   75.781200
  H     -2.045210   -4.864850   75.384800
  H     -3.112660   -3.623740   74.845900
  C     -3.745720   -4.869940   76.536700
  H     -4.224450   -4.186120   77.227500
  H     -3.204920   -5.672800   77.149800
  H     -4.562060   -5.378800   76.051000
  H      2.876500   -7.433900   75.896100
  H      0.499115    0.313582   74.622700

 Total Charge           Charge          ....    0
 Multiplicity           Mult            ....    1
 Number of Electrons    NEL             ....  134
 Basis Dimension        Dim             ....  322

ORBITAL ENERGIES
----------------

  NO   OCC          E(Eh)            E(eV)
   0   2.0000     -88.967556     -2420.9303
   1   2.0000     -88.966423     -2420.8994
   2   2.0000     -10.332706      -281.1672
   3   2.0000     -10.325117      -280.9607
   4   2.0000     -10.317370      -280.7499
   5   2.0000     -10.309219      -280.5281
   6   2.0000     -10.305066      -280.4151
   7   2.0000     -10.304124      -280.3895
   8   2.0000     -10.300762      -280.2980
   9   2.0000     -10.299105      -280.2529
  10   2.0000     -10.298807      -280.2448
  11   2.0000     -10.290388      -280.0157
  12   2.0000     -10.283012      -279.8150
  13   2.0000     -10.282316      -279.7960
  14   2.0000     -10.280340      -279.7423
  15   2.0000     -10.276950      -279.6500
  16   2.0000      -8.081460      -219.9077
  17   2.0000      -8.081403      -219.9062
  18   2.0000      -6.040010      -164.3570
  19   2.0000      -6.039975      -164.3561
  20   2.0000      -6.036179      -164.2528
  21   2.0000      -6.035788      -164.2421
  22   2.0000      -6.032306      -164.1474
  23   2.0000      -6.031969      -164.1382
  24   2.0000      -1.008131       -27.4326
  25   2.0000      -0.986191       -26.8356
  26   2.0000      -0.922694       -25.1078
  27   2.0000      -0.896629       -24.3985
  28   2.0000      -0.864825       -23.5331
  29   2.0000      -0.855916       -23.2907
  30   2.0000      -0.842894       -22.9363
  31   2.0000      -0.814560       -22.1653
  32   2.0000      -0.785178       -21.3658
  33   2.0000      -0.776416       -21.1274
  34   2.0000      -0.709390       -19.3035
  35   2.0000      -0.695826       -18.9344
  36   2.0000      -0.693836       -18.8802
  37   2.0000      -0.665139       -18.0994
  38   2.0000      -0.644986       -17.5510
  39   2.0000      -0.624336       -16.9891
  40   2.0000      -0.596873       -16.2418
  41   2.0000      -0.572816       -15.5871
  42   2.0000      -0.565620       -15.3913
  43   2.0000      -0.536023       -14.5859
  44   2.0000      -0.534131       -14.5344
  45   2.0000      -0.525551       -14.3010
  46   2.0000      -0.519262       -14.1298
  47   2.0000      -0.513899       -13.9839
  48   2.0000      -0.506569       -13.7844
  49   2.0000      -0.500770       -13.6266
  50   2.0000      -0.488499       -13.2927
  51   2.0000      -0.484178       -13.1752
  52   2.0000      -0.473300       -12.8791
  53   2.0000      -0.466695       -12.6994
  54   2.0000      -0.457169       -12.4402
  55   2.0000      -0.453255       -12.3337
  56   2.0000      -0.441464       -12.0128
  57   2.0000      -0.432694       -11.7742
  58   2.0000      -0.430355       -11.7105
  59   2.0000      -0.429033       -11.6746
  60   2.0000      -0.422688       -11.5019
  61   2.0000      -0.414492       -11.2789
  62   2.0000      -0.412358       -11.2208
  63   2.0000      -0.345120        -9.3912
  64   2.0000      -0.335316        -9.1244
  65   2.0000      -0.330524        -8.9940
  66   2.0000      -0.296272        -8.0620
  67   0.0000       0.031897         0.8680
  68   0.0000       0.065843         1.7917
  69   0.0000       0.107687         2.9303
  70   0.0000       0.116073         3.1585
  71   0.0000       0.122598         3.3361

MULLIKEN ATOMIC CHARGES
-----------------------
   0 S :    0.102856
   1 C :   -0.079399
   2 C :   -0.056934
   3 C :    0.039772
   4 C :   -0.145811
   5 H :    0.006603
   6 C :    0.043253
   7 H :    0.037079
   8 H :    0.009701
   9 C :   -0.115126
  10 H :    0.045469
  11 H :    0.039665
  12 C :   -0.065140
  13 H :    0.040356
  14 H :    0.023036
  15 H :    0.050591
  16 S :    0.117879
  17 C :   -0.073615
  18 C :   -0.078006
  19 C :   -0.046515
  20 C :   -0.174206
  21 H :    0.022102
  22 C :    0.162801
  23 H :   -0.017207
  24 H :    0.022006
  25 C :   -0.085114
  26 H :    0.020407
  27 H :    0.034693
  28 C :   -0.039257
  29 H :    0.017823
  30 H :    0.031952
  31 H :    0.036205
  32 H :    0.011009
  33 H :    0.061071
Sum of atomic charges:   -0.0000000

LOEWDIN ATOMIC CHARGES
----------------------
   0 S :    0.376756
   1 C :   -0.169767
   2 C :   -0.065058
   3 C :   -0.059541
   4 C :   -0.179015
   5 H :    0.027803
   6 C :   -0.034147
   7 H :    0.035679
   8 H :    0.022756
   9 C :   -0.040751
  10 H :    0.031022
  11 H :    0.020986
  12 C :   -0.071122
  13 H :    0.029214
  14 H :    0.012070
  15 H :    0.035921
  16 S :    0.418861
  17 C :   -0.203934
  18 C :   -0.073427
  19 C :   -0.047245
  20 C :   -0.195074
  21 H :    0.030131
  22 C :   -0.020424
  23 H :    0.018094
  24 H :    0.033911
  25 C :   -0.042016
  26 H :    0.018096
  27 H :    0.031866
  28 C :   -0.070401
  29 H :    0.019975
  30 H :    0.032527
  31 H :    0.025276
  32 H :    0.013354
  33 H :    0.037622

  Mayer bond orders larger than 0.100000
B(  0-S ,  1-C ) :   1.1151 B(  0-S ,  4-C ) :   1.1325 B(  1-C ,  2-C ) :   1.6518
B(  1-C , 32-H ) :   0.9708 B(  2-C ,  3-C ) :   1.2127 B(  2-C ,  6-C ) :   1.0190
B(  3-C ,  4-C ) :   1.6089 B(  3-C ,  5-H ) :   0.9945 B(  4-C , 20-C ) :   1.0147
B(  6-C ,  7-H ) :   0.9490 B(  6-C ,  8-H ) :   0.9467 B(  6-C ,  9-C ) :   1.0485
B(  9-C , 10-H ) :   0.9597 B(  9-C , 11-H ) :   0.9645 B(  9-C , 12-C ) :   1.0583
B( 12-C , 13-H ) :   0.9782 B( 12-C , 14-H ) :   0.9789 B( 12-C , 15-H ) :   0.9765
B( 16-S , 17-C ) :   1.1574 B( 16-S , 20-C ) :   1.1423 B( 17-C , 18-C ) :   1.6289
B( 17-C , 33-H ) :   0.9608 B( 18-C , 19-C ) :   1.2252 B( 18-C , 21-H ) :   0.9828
B( 19-C , 20-C ) :   1.6135 B( 19-C , 22-C ) :   1.0429 B( 22-C , 23-H ) :   0.8996
B( 22-C , 24-H ) :   0.9328 B( 22-C , 25-C ) :   1.0634 B( 25-C , 26-H ) :   0.9608
B( 25-C , 27-H ) :   0.9503 B( 25-C , 28-C ) :   1.0787 B( 28-C , 29-H ) :   0.9724
B( 28-C , 30-H ) :   0.9730 B( 28-C , 31-H ) :   0.9755

Dispersion correction           -0.014639706
FINAL SINGLE POINT ENERGY     -1339.864835375243

DIPOLE MOMENT
-------------
                                X             Y             Z
Electronic contribution:     18.50177      17.56213     -16.16469
Nuclear contribution   :    -18.84567     -17.63798      16.75377
                        -----------------------------------------
Total Dipole Moment    :     -0.34390      -0.07585       0.58908
                        -----------------------------------------
Magnitude (a.u.)       :      0.68632
Magnitude (Debye)      :      1.74449

Rotational constants in cm-1:     0.018660     0.009404     0.007051
Rotational constants in MHz :   559.402085   281.928371   211.389644

                             ****ORCA TERMINATED NORMALLY****
TOTAL RUN TIME: 0 days 0 hours 0 minutes 35 seconds 267 msec
