                         Program Version 4.2.1 -  RELEASE  -
|  1> ! wB97X-D3 SP def2-SVP
|  2> %pal
|  3> nprocs 16
|  4> end
|  5>
|  6> * xyz 0 1
|  7> S 	 -107.48 	 40.3998 	 127.909
|  8> C 	 -106.415 	 39.2836 	 128.788
|  9> C 	 -105.887 	 38.4261 	 127.859
| 10> C 	 -106.308 	 38.6527 	 126.447
| 11> C 	 -107.158 	 39.7468 	 126.335
| 12> H 	 -105.891 	 38.2352 	 125.619
| 13> C 	 -104.855 	 37.3248 	 128.11
| 14> H 	 -105.327 	 36.4035 	 128.367
| 15> H 	 -104.276 	 37.4914 	 129.056
| 16> C 	 -103.8 	 37.1246 	 127.006
| 17> H 	 -102.945 	 36.4722 	 127.421
| 18> H 	 -104.167 	 36.6184 	 126.094
| 19> C 	 -103.047 	 38.3987 	 126.52
| 20> H 	 -103.792 	 39.1722 	 126.396
| 21> H 	 -102.343 	 38.7724 	 127.216
| 22> H 	 -102.351 	 38.3367 	 125.636
| 23> S 	 -106.874 	 42.2618 	 125.255
| 24> C 	 -107.117 	 42.4328 	 123.562
| 25> C 	 -107.822 	 41.372 	 123.066
| 26> C 	 -107.808 	 40.2355 	 123.954
| 27> C 	 -107.326 	 40.5773 	 125.155
| 28> H 	 -108.05 	 41.3231 	 122.016
| 29> C 	 -108.311 	 38.8768 	 123.533
| 30> H 	 -107.874 	 38.0622 	 124.124
| 31> H 	 -108.053 	 38.8913 	 122.508
| 32> C 	 -109.835 	 38.5792 	 123.489
| 33> H 	 -110.239 	 39.1172 	 122.684
| 34> H 	 -110.204 	 38.9262 	 124.448
| 35> C 	 -109.995 	 37.0819 	 123.179
| 36> H 	 -109.288 	 36.715 	 122.308
| 37> H 	 -111.022 	 36.6868 	 123.129
| 38> H 	 -109.61 	 36.4642 	 124.006
| 39> H 	 -106.173 	 39.159 	 129.857
| 40> H 	 -107.109 	 43.397 	 123.039
| 41> *
| 42>
| 43>                          ****END OF INPUT****

CARTESIAN COORDINATES (ANGSTROEM)
---------------------------------
  S    -107.480000   40.399800  127.909000
  C    -106.415000   39.283600  128.788000
  C    -105.887000   38.426100  127.859000
  C    -106.308000   38.652700  126.447000
  C    -107.158000   39.746800  126.335000
  H    -105.891000   38.235200  125.619000
  C    -104.855000   37.324800  128.110000
  H    -105.327000   36.403500  128.367000
  H    -104.276000   37.491400  129.056000
  C    -103.800000   37.124600  127.006000
  H    -102.945000   36.472200  127.421000
  H    -104.167000   36.618400  126.094000
  C    -103.047000   38.398700  126.520000
  H    -103.792000   39.172200  126.396000
  H    -102.343000   38.772400  127.216000
  H    -102.351000   38.336700  125.636000
  S    -106.874000   42.261800  125.255000
  C    -107.117000   42.432800  123.562000
  C    -107.822000   41.372000  123.066000
  C    -107.808000   40.235500  123.954000
  C    -107.326000   40.577300  125.155000
  H    -108.050000   41.323100  122.016000
  C    -108.311000   38.876800  123.533000
  H    -107.874000   38.062200  124.124000
  H    -108.053000   38.891300  122.508000
  C    -109.835000   38.579200  123.489000
  H    -110.239000   39.117200  122.684000
  H    -110.204000   38.926200  124.448000
  C    -109.995000   37.081900  123.179000
  H    -109.288000   36.715000  122.308000
  H    -111.022000   36.686800  123.129000
  H    -109.610000   36.464200  124.006000
  H    -106.173000   39.159000  129.857000
  H    -107.109000   43.397000  123.039000

 Total Charge           Charge          ....    0
 Multiplicity           Mult            ....    1
 Number of Electrons    NEL             ....  134
 Basis Dimension        Dim             ....  322

ORBITAL ENERGIES
----------------

  NO   OCC          E(Eh)            E(eV)
   0   2.0000     -88.965299     -2420.8689
   1   2.0000     -88.964347     -2420.8430
   2   2.0000     -10.330945      -281.1193
   3   2.0000     -10.321388      -280.8593
   4   2.0000     -10.319897      -280.8187
   5   2.0000     -10.314625      -280.6752
   6   2.0000     -10.308268      -280.5022
   7   2.0000     -10.297560      -280.2108
   8   2.0000     -10.297438      -280.2075
   9   2.0000     -10.296427      -280.1800
  10   2.0000     -10.293752      -280.1072
  11   2.0000     -10.291924      -280.0575
  12   2.0000     -10.289676      -279.9963
  13   2.0000     -10.287500      -279.9371
  14   2.0000     -10.284393      -279.8526
  15   2.0000     -10.272279      -279.5229
  16   2.0000      -8.079946      -219.8665
  17   2.0000      -8.079822      -219.8631
  18   2.0000      -6.038608      -164.3189
  19   2.0000      -6.038468      -164.3151
  20   2.0000      -6.034512      -164.2074
  21   2.0000      -6.034179      -164.1984
  22   2.0000      -6.030447      -164.0968
  23   2.0000      -6.030411      -164.0958
  24   2.0000      -1.014527       -27.6067
  25   2.0000      -0.985775       -26.8243
  26   2.0000      -0.913362       -24.8538
  27   2.0000      -0.907598       -24.6970
  28   2.0000      -0.873118       -23.7587
  29   2.0000      -0.853565       -23.2267
  30   2.0000      -0.834725       -22.7140
  31   2.0000      -0.818758       -22.2795
  32   2.0000      -0.783385       -21.3170
  33   2.0000      -0.774585       -21.0775
  34   2.0000      -0.709356       -19.3025
  35   2.0000      -0.698373       -19.0037
  36   2.0000      -0.692290       -18.8382
  37   2.0000      -0.665370       -18.1056
  38   2.0000      -0.640747       -17.4356
  39   2.0000      -0.624823       -17.0023
  40   2.0000      -0.598292       -16.2804
  41   2.0000      -0.576123       -15.6771
  42   2.0000      -0.565420       -15.3859
  43   2.0000      -0.551449       -15.0057
  44   2.0000      -0.534062       -14.5326
  45   2.0000      -0.525299       -14.2941
  46   2.0000      -0.517889       -14.0925
  47   2.0000      -0.511400       -13.9159
  48   2.0000      -0.503449       -13.6995
  49   2.0000      -0.501702       -13.6520
  50   2.0000      -0.486953       -13.2507
  51   2.0000      -0.476974       -12.9791
  52   2.0000      -0.471332       -12.8256
  53   2.0000      -0.460558       -12.5324
  54   2.0000      -0.458377       -12.4731
  55   2.0000      -0.449832       -12.2406
  56   2.0000      -0.446566       -12.1517
  57   2.0000      -0.432229       -11.7615
  58   2.0000      -0.429793       -11.6953
  59   2.0000      -0.426992       -11.6190
  60   2.0000      -0.421898       -11.4804
  61   2.0000      -0.413895       -11.2626
  62   2.0000      -0.404693       -11.0123
  63   2.0000      -0.356203        -9.6928
  64   2.0000      -0.329591        -8.9686
  65   2.0000      -0.324730        -8.8364
  66   2.0000      -0.297121        -8.0851
  67   0.0000       0.030822         0.8387
  68   0.0000       0.067271         1.8305
  69   0.0000       0.115992         3.1563
  70   0.0000       0.121912         3.3174
  71   0.0000       0.123879         3.3709

MULLIKEN ATOMIC CHARGES
-----------------------
   0 S :    0.087285
   1 C :   -0.108521
   2 C :   -0.125466
   3 C :    0.066573
   4 C :   -0.141942
   5 H :   -0.010296
   6 C :    0.096988
   7 H :    0.036903
   8 H :    0.020033
   9 C :   -0.141387
  10 H :    0.043729
  11 H :    0.043966
  12 C :   -0.058603
  13 H :    0.040308
  14 H :    0.013556
  15 H :    0.039263
  16 S :    0.118161
  17 C :   -0.096235
  18 C :   -0.026598
  19 C :   -0.061490
  20 C :   -0.134907
  21 H :    0.017911
  22 C :    0.048968
  23 H :    0.024286
  24 H :    0.009557
  25 C :   -0.004971
  26 H :    0.018192
  27 H :    0.037549
  28 C :   -0.095412
  29 H :    0.043292
  30 H :    0.044535
  31 H :    0.026981
  32 H :    0.059573
  33 H :    0.068218
Sum of atomic charges:    0.0000000

LOEWDIN ATOMIC CHARGES
----------------------
   0 S :    0.396784
   1 C :   -0.200541
   2 C :   -0.059079
   3 C :   -0.051567
   4 C :   -0.188603
   5 H :    0.011903
   6 C :   -0.037819
   7 H :    0.032192
   8 H :    0.035000
   9 C :   -0.051870
  10 H :    0.036053
  11 H :    0.022767
  12 C :   -0.076848
  13 H :    0.023831
  14 H :    0.017714
  15 H :    0.034849
  16 S :    0.414629
  17 C :   -0.194373
  18 C :   -0.068555
  19 C :   -0.060115
  20 C :   -0.198478
  21 H :    0.027707
  22 C :   -0.027659
  23 H :    0.030774
  24 H :    0.025825
  25 C :   -0.027169
  26 H :    0.016025
  27 H :    0.026614
  28 C :   -0.082152
  29 H :    0.039286
  30 H :    0.028678
  31 H :    0.024869
  32 H :    0.044050
  33 H :    0.035281

  Mayer bond orders larger than 0.100000
B(  0-S ,  1-C ) :   1.0992 B(  0-S ,  4-C ) :   1.1512 B(  1-C ,  2-C ) :   1.6585
B(  1-C , 32-H ) :   0.9664 B(  2-C ,  3-C ) :   1.2104 B(  2-C ,  6-C ) :   1.0144
B(  3-C ,  4-C ) :   1.5777 B(  3-C ,  5-H ) :   0.9929 B(  4-C , 20-C ) :   1.0345
B(  6-C ,  7-H ) :   0.9360 B(  6-C ,  8-H ) :   0.9450 B(  6-C ,  9-C ) :   1.0674
B(  9-C , 10-H ) :   0.9587 B(  9-C , 11-H ) :   0.9550 B(  9-C , 12-C ) :   1.0631
B( 12-C , 13-H ) :   0.9737 B( 12-C , 14-H ) :   0.9736 B( 12-C , 15-H ) :   0.9751
B( 16-S , 17-C ) :   1.1525 B( 16-S , 20-C ) :   1.1211 B( 17-C , 18-C ) :   1.6440
B( 17-C , 33-H ) :   0.9591 B( 18-C , 19-C ) :   1.2235 B( 18-C , 21-H ) :   0.9805
B( 19-C , 20-C ) :   1.6438 B( 19-C , 22-C ) :   1.0460 B( 22-C , 23-H ) :   0.9400
B( 22-C , 24-H ) :   0.9192 B( 22-C , 25-C ) :   1.0666 B( 25-C , 26-H ) :   0.9532
B( 25-C , 27-H ) :   0.9578 B( 25-C , 28-C ) :   1.0750 B( 28-C , 29-H ) :   0.9690
B( 28-C , 30-H ) :   0.9728 B( 28-C , 31-H ) :   0.9721

Dispersion correction           -0.014368108
FINAL SINGLE POINT ENERGY     -1339.849506601410

DIPOLE MOMENT
-------------
                                X             Y             Z
Electronic contribution:     -5.03705      21.67317       8.88548
Nuclear contribution   :      5.24549     -22.11703      -9.14591
                        -----------------------------------------
Total Dipole Moment    :      0.20844      -0.44385      -0.26043
                        -----------------------------------------
Magnitude (a.u.)       :      0.55523
Magnitude (Debye)      :      1.41127

Rotational constants in cm-1:     0.016454     0.009439     0.007974
Rotational constants in MHz :   493.293136   282.964869   239.057502

                             ****ORCA TERMINATED NORMALLY****
TOTAL RUN TIME: 0 days 0 hours 0 minutes 33 seconds 316 msec
