                         Program Version 4.2.1 -  RELEASE  -
|  1> ! wB97X-D3 SP def2-SVP
|  2> %pal
|  3> nprocs 16
|  4> end
|  5>
|  6> * xyz 0 1
|  7> S 	 -37.5077 	 -1.19072 	 101.342
|  8> C 	 -37.2855 	 -2.10538 	 99.8856
|  9> C 	 -36.1686 	 -1.6147 	 99.1585
| 10> C 	 -35.5523 	 -0.527874 	 99.8165
| 11> C 	 -36.2162 	 -0.107667 	 100.921
| 12> H 	 -34.6926 	 0.0258863 	 99.3729
| 13> C 	 -35.7458 	 -2.25031 	 97.8451
| 14> H 	 -36.1585 	 -3.26328 	 97.7676
| 15> H 	 -34.7105 	 -2.1473 	 97.7329
| 16> C 	 -36.2528 	 -1.50663 	 96.5607
| 17> H 	 -35.7016 	 -0.617388 	 96.3628
| 18> H 	 -35.9357 	 -2.22751 	 95.6954
| 19> C 	 -37.7458 	 -1.30989 	 96.6
| 20> H 	 -37.8862 	 -0.340943 	 97.0704
| 21> H 	 -38.0689 	 -1.19643 	 95.5682
| 22> H 	 -38.2554 	 -2.05271 	 97.1077
| 23> S 	 -36.092 	 0.95837 	 103.525
| 24> C 	 -35.5367 	 2.61175 	 103.682
| 25> C 	 -35.2866 	 3.2178 	 102.495
| 26> C 	 -35.4387 	 2.33119 	 101.401
| 27> C 	 -35.8523 	 1.04218 	 101.732
| 28> H 	 -34.8926 	 4.23181 	 102.493
| 29> C 	 -35.0348 	 2.85181 	 100.052
| 30> H 	 -35.3751 	 3.87969 	 99.7485
| 31> H 	 -35.5277 	 2.17739 	 99.4584
| 32> C 	 -33.4977 	 2.69473 	 99.8611
| 33> H 	 -33.2849 	 1.69828 	 100.268
| 34> H 	 -32.9063 	 3.29566 	 100.532
| 35> C 	 -32.9453 	 2.85268 	 98.4497
| 36> H 	 -32.8667 	 3.92681 	 98.1924
| 37> H 	 -33.6085 	 2.46916 	 97.6418
| 38> H 	 -31.961 	 2.30705 	 98.4728
| 39> H 	 -37.9681 	 -2.92395 	 99.5334
| 40> H 	 -35.5873 	 3.17067 	 104.587
| 41> *
| 42>
| 43>                          ****END OF INPUT****

CARTESIAN COORDINATES (ANGSTROEM)
---------------------------------
  S    -37.507700   -1.190720  101.342000
  C    -37.285500   -2.105380   99.885600
  C    -36.168600   -1.614700   99.158500
  C    -35.552300   -0.527874   99.816500
  C    -36.216200   -0.107667  100.921000
  H    -34.692600    0.025886   99.372900
  C    -35.745800   -2.250310   97.845100
  H    -36.158500   -3.263280   97.767600
  H    -34.710500   -2.147300   97.732900
  C    -36.252800   -1.506630   96.560700
  H    -35.701600   -0.617388   96.362800
  H    -35.935700   -2.227510   95.695400
  C    -37.745800   -1.309890   96.600000
  H    -37.886200   -0.340943   97.070400
  H    -38.068900   -1.196430   95.568200
  H    -38.255400   -2.052710   97.107700
  S    -36.092000    0.958370  103.525000
  C    -35.536700    2.611750  103.682000
  C    -35.286600    3.217800  102.495000
  C    -35.438700    2.331190  101.401000
  C    -35.852300    1.042180  101.732000
  H    -34.892600    4.231810  102.493000
  C    -35.034800    2.851810  100.052000
  H    -35.375100    3.879690   99.748500
  H    -35.527700    2.177390   99.458400
  C    -33.497700    2.694730   99.861100
  H    -33.284900    1.698280  100.268000
  H    -32.906300    3.295660  100.532000
  C    -32.945300    2.852680   98.449700
  H    -32.866700    3.926810   98.192400
  H    -33.608500    2.469160   97.641800
  H    -31.961000    2.307050   98.472800
  H    -37.968100   -2.923950   99.533400
  H    -35.587300    3.170670  104.587000

 Total Charge           Charge          ....    0
 Multiplicity           Mult            ....    1
 Number of Electrons    NEL             ....  134
 Basis Dimension        Dim             ....  322

ORBITAL ENERGIES
----------------

  NO   OCC          E(Eh)            E(eV)
   0   2.0000     -88.969765     -2420.9904
   1   2.0000     -88.964886     -2420.8576
   2   2.0000     -10.332725      -281.1677
   3   2.0000     -10.328998      -281.0663
   4   2.0000     -10.319497      -280.8078
   5   2.0000     -10.312841      -280.6267
   6   2.0000     -10.302897      -280.3561
   7   2.0000     -10.302861      -280.3551
   8   2.0000     -10.294844      -280.1369
   9   2.0000     -10.289559      -279.9931
  10   2.0000     -10.289045      -279.9792
  11   2.0000     -10.288406      -279.9618
  12   2.0000     -10.287998      -279.9507
  13   2.0000     -10.287488      -279.9368
  14   2.0000     -10.286887      -279.9204
  15   2.0000     -10.266974      -279.3786
  16   2.0000      -8.084790      -219.9983
  17   2.0000      -8.078902      -219.8381
  18   2.0000      -6.043199      -164.4438
  19   2.0000      -6.039284      -164.3373
  20   2.0000      -6.037509      -164.2890
  21   2.0000      -6.035607      -164.2372
  22   2.0000      -6.033651      -164.1840
  23   2.0000      -6.029477      -164.0704
  24   2.0000      -1.009451       -27.4686
  25   2.0000      -0.985431       -26.8149
  26   2.0000      -0.913928       -24.8692
  27   2.0000      -0.910697       -24.7813
  28   2.0000      -0.869963       -23.6729
  29   2.0000      -0.854783       -23.2598
  30   2.0000      -0.847942       -23.0737
  31   2.0000      -0.816701       -22.2236
  32   2.0000      -0.786011       -21.3884
  33   2.0000      -0.771951       -21.0058
  34   2.0000      -0.707762       -19.2592
  35   2.0000      -0.699608       -19.0373
  36   2.0000      -0.691359       -18.8128
  37   2.0000      -0.660706       -17.9787
  38   2.0000      -0.638189       -17.3660
  39   2.0000      -0.624654       -16.9977
  40   2.0000      -0.595090       -16.1932
  41   2.0000      -0.567180       -15.4337
  42   2.0000      -0.563078       -15.3221
  43   2.0000      -0.557244       -15.1634
  44   2.0000      -0.540968       -14.7205
  45   2.0000      -0.532473       -14.4893
  46   2.0000      -0.525177       -14.2908
  47   2.0000      -0.510313       -13.8863
  48   2.0000      -0.506910       -13.7937
  49   2.0000      -0.500954       -13.6316
  50   2.0000      -0.489327       -13.3153
  51   2.0000      -0.484649       -13.1880
  52   2.0000      -0.475083       -12.9277
  53   2.0000      -0.465721       -12.6729
  54   2.0000      -0.462224       -12.5778
  55   2.0000      -0.454745       -12.3742
  56   2.0000      -0.441385       -12.0107
  57   2.0000      -0.438769       -11.9395
  58   2.0000      -0.432483       -11.7685
  59   2.0000      -0.423253       -11.5173
  60   2.0000      -0.417979       -11.3738
  61   2.0000      -0.411566       -11.1993
  62   2.0000      -0.408157       -11.1065
  63   2.0000      -0.356192        -9.6925
  64   2.0000      -0.333985        -9.0882
  65   2.0000      -0.330347        -8.9892
  66   2.0000      -0.285293        -7.7632
  67   0.0000       0.024484         0.6662
  68   0.0000       0.072796         1.9809
  69   0.0000       0.104580         2.8458
  70   0.0000       0.119128         3.2416
  71   0.0000       0.127495         3.4693

MULLIKEN ATOMIC CHARGES
-----------------------
   0 S :    0.122893
   1 C :   -0.151949
   2 C :   -0.106893
   3 C :   -0.000943
   4 C :   -0.121235
   5 H :    0.021695
   6 C :    0.101010
   7 H :    0.032033
   8 H :    0.012683
   9 C :   -0.135734
  10 H :    0.022365
  11 H :    0.035143
  12 C :    0.012295
  13 H :    0.038106
  14 H :    0.030061
  15 H :    0.008826
  16 S :    0.085144
  17 C :   -0.070109
  18 C :   -0.027287
  19 C :   -0.075734
  20 C :   -0.137700
  21 H :    0.024848
  22 C :    0.114514
  23 H :    0.035764
  24 H :   -0.012619
  25 C :   -0.092254
  26 H :    0.023834
  27 H :    0.020510
  28 C :   -0.052395
  29 H :    0.038082
  30 H :    0.031647
  31 H :    0.053040
  32 H :    0.073249
  33 H :    0.047111
Sum of atomic charges:    0.0000000

LOEWDIN ATOMIC CHARGES
----------------------
   0 S :    0.422229
   1 C :   -0.216014
   2 C :   -0.061723
   3 C :   -0.072828
   4 C :   -0.195349
   5 H :    0.039315
   6 C :   -0.026195
   7 H :    0.033318
   8 H :    0.024169
   9 C :   -0.039212
  10 H :    0.013938
  11 H :    0.027828
  12 C :   -0.058361
  13 H :    0.032849
  14 H :    0.028466
  15 H :    0.011140
  16 S :    0.371030
  17 C :   -0.171281
  18 C :   -0.073149
  19 C :   -0.050080
  20 C :   -0.177669
  21 H :    0.036964
  22 C :   -0.028009
  23 H :    0.034767
  24 H :    0.012974
  25 C :   -0.044851
  26 H :    0.022509
  27 H :    0.022078
  28 C :   -0.073633
  29 H :    0.027989
  30 H :    0.025255
  31 H :    0.038917
  32 H :    0.038173
  33 H :    0.024448

  Mayer bond orders larger than 0.100000
B(  0-S ,  1-C ) :   1.1494 B(  0-S ,  4-C ) :   1.1556 B(  1-C ,  2-C ) :   1.5654
B(  1-C , 32-H ) :   0.9606 B(  2-C ,  3-C ) :   1.2728 B(  2-C ,  6-C ) :   1.0408
B(  3-C ,  4-C ) :   1.5435 B(  3-C ,  5-H ) :   0.9870 B(  4-C , 20-C ) :   1.0671
B(  6-C ,  7-H ) :   0.9439 B(  6-C ,  8-H ) :   0.9343 B(  6-C ,  9-C ) :   1.0673
B(  9-C , 10-H ) :   0.9596 B(  9-C , 11-H ) :   0.9614 B(  9-C , 12-C ) :   1.0707
B( 12-C , 13-H ) :   0.9681 B( 12-C , 14-H ) :   0.9715 B( 12-C , 15-H ) :   0.9781
B( 16-S , 17-C ) :   1.1473 B( 16-S , 20-C ) :   1.1081 B( 17-C , 18-C ) :   1.6377
B( 17-C , 33-H ) :   0.9629 B( 18-C , 19-C ) :   1.2255 B( 18-C , 21-H ) :   0.9904
B( 19-C , 20-C ) :   1.6072 B( 19-C , 22-C ) :   1.0492 B( 22-C , 23-H ) :   0.9387
B( 22-C , 24-H ) :   0.9158 B( 22-C , 25-C ) :   1.0531 B( 25-C , 26-H ) :   0.9541
B( 25-C , 27-H ) :   0.9517 B( 25-C , 28-C ) :   1.0755 B( 28-C , 29-H ) :   0.9734
B( 28-C , 30-H ) :   0.9759 B( 28-C , 31-H ) :   0.9736

Dispersion correction           -0.014939198
FINAL SINGLE POINT ENERGY     -1339.870287575025

DIPOLE MOMENT
-------------
                                X             Y             Z
Electronic contribution:     -9.80412      -4.38990      28.27218
Nuclear contribution   :     10.07939       4.70934     -28.87753
                        -----------------------------------------
Total Dipole Moment    :      0.27527       0.31943      -0.60535
                        -----------------------------------------
Magnitude (a.u.)       :      0.73774
Magnitude (Debye)      :      1.87519

Rotational constants in cm-1:     0.018149     0.009883     0.006895
Rotational constants in MHz :   544.105554   296.297705   206.696223

                             ****ORCA TERMINATED NORMALLY****
TOTAL RUN TIME: 0 days 0 hours 0 minutes 31 seconds 266 msec
