                         Program Version 4.2.1 -  RELEASE  -
|  1> ! wB97X-D3 SP def2-SVP
|  2> %pal
|  3> nprocs 16
|  4> end
|  5>
|  6> * xyz 0 1
|  7> S 	 -13.1237 	 38.1246 	 33.762
|  8> C 	 -14.2582 	 37.2103 	 34.6862
|  9> C 	 -14.9011 	 36.2344 	 33.9054
| 10> C 	 -14.4593 	 36.2996 	 32.5644
| 11> C 	 -13.5784 	 37.3828 	 32.2742
| 12> H 	 -14.7323 	 35.6138 	 31.7464
| 13> C 	 -15.9434 	 35.2576 	 34.3777
| 14> H 	 -16.1635 	 35.3009 	 35.4556
| 15> H 	 -15.6331 	 34.2428 	 34.2287
| 16> C 	 -17.3897 	 35.3808 	 33.885
| 17> H 	 -17.5152 	 35.1364 	 32.8587
| 18> H 	 -17.9968 	 34.6285 	 34.3273
| 19> C 	 -18.0374 	 36.7378 	 34.3207
| 20> H 	 -19.0309 	 36.8884 	 33.9361
| 21> H 	 -18.327 	 36.7005 	 35.3624
| 22> H 	 -17.5687 	 37.7288 	 34.0198
| 23> S 	 -11.5771 	 38.5073 	 30.7032
| 24> C 	 -11.9139 	 38.8002 	 29.0042
| 25> C 	 -13.1705 	 38.3134 	 28.6686
| 26> C 	 -13.9295 	 37.8161 	 29.7722
| 27> C 	 -13.2305 	 37.916 	 30.96
| 28> H 	 -13.5286 	 38.4128 	 27.7045
| 29> C 	 -15.3725 	 37.3808 	 29.5727
| 30> H 	 -15.8833 	 38.1427 	 28.9893
| 31> H 	 -15.8336 	 37.3474 	 30.5544
| 32> C 	 -15.5063 	 36.0405 	 28.7448
| 33> H 	 -15.3001 	 35.2296 	 29.4279
| 34> H 	 -14.7225 	 35.9145 	 28.0257
| 35> C 	 -16.8714 	 36.0489 	 28.0904
| 36> H 	 -17.0392 	 36.9992 	 27.5684
| 37> H 	 -17.6377 	 35.7938 	 28.8763
| 38> H 	 -16.986 	 35.265 	 27.3892
| 39> H 	 -14.4402 	 37.3092 	 35.7228
| 40> H 	 -11.319 	 39.3138 	 28.2873
| 41> *
| 42>
| 43>                          ****END OF INPUT****

CARTESIAN COORDINATES (ANGSTROEM)
---------------------------------
  S    -13.123700   38.124600   33.762000
  C    -14.258200   37.210300   34.686200
  C    -14.901100   36.234400   33.905400
  C    -14.459300   36.299600   32.564400
  C    -13.578400   37.382800   32.274200
  H    -14.732300   35.613800   31.746400
  C    -15.943400   35.257600   34.377700
  H    -16.163500   35.300900   35.455600
  H    -15.633100   34.242800   34.228700
  C    -17.389700   35.380800   33.885000
  H    -17.515200   35.136400   32.858700
  H    -17.996800   34.628500   34.327300
  C    -18.037400   36.737800   34.320700
  H    -19.030900   36.888400   33.936100
  H    -18.327000   36.700500   35.362400
  H    -17.568700   37.728800   34.019800
  S    -11.577100   38.507300   30.703200
  C    -11.913900   38.800200   29.004200
  C    -13.170500   38.313400   28.668600
  C    -13.929500   37.816100   29.772200
  C    -13.230500   37.916000   30.960000
  H    -13.528600   38.412800   27.704500
  C    -15.372500   37.380800   29.572700
  H    -15.883300   38.142700   28.989300
  H    -15.833600   37.347400   30.554400
  C    -15.506300   36.040500   28.744800
  H    -15.300100   35.229600   29.427900
  H    -14.722500   35.914500   28.025700
  C    -16.871400   36.048900   28.090400
  H    -17.039200   36.999200   27.568400
  H    -17.637700   35.793800   28.876300
  H    -16.986000   35.265000   27.389200
  H    -14.440200   37.309200   35.722800
  H    -11.319000   39.313800   28.287300

 Total Charge           Charge          ....    0
 Multiplicity           Mult            ....    1
 Number of Electrons    NEL             ....  134
 Basis Dimension        Dim             ....  322

ORBITAL ENERGIES
----------------

  NO   OCC          E(Eh)            E(eV)
   0   2.0000     -88.968530     -2420.9568
   1   2.0000     -88.965449     -2420.8730
   2   2.0000     -10.330467      -281.1063
   3   2.0000     -10.328621      -281.0561
   4   2.0000     -10.317693      -280.7587
   5   2.0000     -10.312791      -280.6253
   6   2.0000     -10.303536      -280.3735
   7   2.0000     -10.301558      -280.3196
   8   2.0000     -10.297355      -280.2053
   9   2.0000     -10.291587      -280.0483
  10   2.0000     -10.291581      -280.0482
  11   2.0000     -10.288384      -279.9612
  12   2.0000     -10.286809      -279.9183
  13   2.0000     -10.286228      -279.9025
  14   2.0000     -10.280779      -279.7542
  15   2.0000     -10.278956      -279.7046
  16   2.0000      -8.083823      -219.9720
  17   2.0000      -8.079766      -219.8616
  18   2.0000      -6.042174      -164.4159
  19   2.0000      -6.038384      -164.3128
  20   2.0000      -6.038085      -164.3046
  21   2.0000      -6.034896      -164.2179
  22   2.0000      -6.034420      -164.2049
  23   2.0000      -6.030355      -164.0943
  24   2.0000      -1.006165       -27.3791
  25   2.0000      -0.983569       -26.7643
  26   2.0000      -0.912519       -24.8309
  27   2.0000      -0.909010       -24.7354
  28   2.0000      -0.867846       -23.6153
  29   2.0000      -0.854385       -23.2490
  30   2.0000      -0.844940       -22.9920
  31   2.0000      -0.810093       -22.0437
  32   2.0000      -0.784976       -21.3603
  33   2.0000      -0.772747       -21.0275
  34   2.0000      -0.712004       -19.3746
  35   2.0000      -0.705496       -19.1975
  36   2.0000      -0.698631       -19.0107
  37   2.0000      -0.665886       -18.1197
  38   2.0000      -0.640379       -17.4256
  39   2.0000      -0.621363       -16.9082
  40   2.0000      -0.595632       -16.2080
  41   2.0000      -0.571155       -15.5419
  42   2.0000      -0.567283       -15.4366
  43   2.0000      -0.554902       -15.0996
  44   2.0000      -0.543215       -14.7816
  45   2.0000      -0.527359       -14.3502
  46   2.0000      -0.516970       -14.0675
  47   2.0000      -0.510947       -13.9036
  48   2.0000      -0.506501       -13.7826
  49   2.0000      -0.497324       -13.5329
  50   2.0000      -0.489806       -13.3283
  51   2.0000      -0.470705       -12.8085
  52   2.0000      -0.466488       -12.6938
  53   2.0000      -0.465039       -12.6544
  54   2.0000      -0.457759       -12.4563
  55   2.0000      -0.454660       -12.3719
  56   2.0000      -0.445492       -12.1225
  57   2.0000      -0.438306       -11.9269
  58   2.0000      -0.436235       -11.8705
  59   2.0000      -0.427309       -11.6277
  60   2.0000      -0.424542       -11.5524
  61   2.0000      -0.417412       -11.3584
  62   2.0000      -0.414272       -11.2729
  63   2.0000      -0.351174        -9.5559
  64   2.0000      -0.332693        -9.0530
  65   2.0000      -0.329324        -8.9614
  66   2.0000      -0.283496        -7.7143
  67   0.0000       0.021528         0.5858
  68   0.0000       0.079015         2.1501
  69   0.0000       0.105933         2.8826
  70   0.0000       0.120954         3.2913
  71   0.0000       0.127664         3.4739

MULLIKEN ATOMIC CHARGES
-----------------------
   0 S :    0.125516
   1 C :   -0.098554
   2 C :   -0.063437
   3 C :    0.000718
   4 C :   -0.160503
   5 H :    0.016000
   6 C :    0.063968
   7 H :    0.013748
   8 H :    0.028373
   9 C :   -0.035731
  10 H :    0.013676
  11 H :    0.015338
  12 C :   -0.081525
  13 H :    0.013221
  14 H :    0.023457
  15 H :    0.058956
  16 S :    0.095653
  17 C :   -0.069831
  18 C :   -0.010998
  19 C :   -0.050981
  20 C :   -0.115465
  21 H :   -0.012882
  22 C :    0.043263
  23 H :    0.021746
  24 H :    0.037406
  25 C :   -0.057715
  26 H :    0.019231
  27 H :    0.024148
  28 C :   -0.038495
  29 H :    0.040394
  30 H :    0.040270
  31 H :    0.020517
  32 H :    0.033177
  33 H :    0.047341
Sum of atomic charges:   -0.0000000

LOEWDIN ATOMIC CHARGES
----------------------
   0 S :    0.436615
   1 C :   -0.198175
   2 C :   -0.063204
   3 C :   -0.065468
   4 C :   -0.207086
   5 H :    0.032523
   6 C :   -0.034324
   7 H :    0.033524
   8 H :    0.030383
   9 C :   -0.033625
  10 H :    0.013062
  11 H :    0.024814
  12 C :   -0.081256
  13 H :    0.023654
  14 H :    0.024659
  15 H :    0.037153
  16 S :    0.386254
  17 C :   -0.174414
  18 C :   -0.058875
  19 C :   -0.055035
  20 C :   -0.191257
  21 H :    0.017250
  22 C :   -0.024362
  23 H :    0.027810
  24 H :    0.030085
  25 C :   -0.035972
  26 H :    0.020067
  27 H :    0.019815
  28 C :   -0.064101
  29 H :    0.028037
  30 H :    0.035266
  31 H :    0.017948
  32 H :    0.021778
  33 H :    0.026452

  Mayer bond orders larger than 0.100000
B(  0-S ,  1-C ) :   1.1646 B(  0-S ,  4-C ) :   1.1763 B(  1-C ,  2-C ) :   1.5571
B(  1-C ,  4-C ) :   0.1061 B(  1-C , 32-H ) :   0.9729 B(  2-C ,  3-C ) :   1.2843
B(  2-C ,  6-C ) :   1.0354 B(  3-C ,  4-C ) :   1.5105 B(  3-C ,  5-H ) :   0.9901
B(  4-C , 20-C ) :   1.0463 B(  6-C ,  7-H ) :   0.9436 B(  6-C ,  8-H ) :   0.9363
B(  6-C ,  9-C ) :   1.0755 B(  9-C , 10-H ) :   0.9572 B(  9-C , 11-H ) :   0.9506
B(  9-C , 12-C ) :   1.0694 B( 12-C , 13-H ) :   0.9698 B( 12-C , 14-H ) :   0.9731
B( 12-C , 15-H ) :   0.9771 B( 16-S , 17-C ) :   1.1408 B( 16-S , 20-C ) :   1.1223
B( 17-C , 18-C ) :   1.6185 B( 17-C , 33-H ) :   0.9707 B( 18-C , 19-C ) :   1.2313
B( 18-C , 21-H ) :   0.9984 B( 19-C , 20-C ) :   1.6113 B( 19-C , 22-C ) :   1.0357
B( 22-C , 23-H ) :   0.9461 B( 22-C , 24-H ) :   0.9336 B( 22-C , 25-C ) :   1.0389
B( 25-C , 26-H ) :   0.9486 B( 25-C , 27-H ) :   0.9624 B( 25-C , 28-C ) :   1.0814
B( 28-C , 29-H ) :   0.9760 B( 28-C , 30-H ) :   0.9725 B( 28-C , 31-H ) :   0.9726

Dispersion correction           -0.014561922
FINAL SINGLE POINT ENERGY     -1339.873797473890

DIPOLE MOMENT
-------------
                                X             Y             Z
Electronic contribution:     29.12085      13.15536       4.95907
Nuclear contribution   :    -29.84238     -13.52581      -5.25206
                        -----------------------------------------
Total Dipole Moment    :     -0.72153      -0.37045      -0.29299
                        -----------------------------------------
Magnitude (a.u.)       :      0.86237
Magnitude (Debye)      :      2.19198

Rotational constants in cm-1:     0.016727     0.010262     0.006779
Rotational constants in MHz :   501.455031   307.661884   203.240183

                             ****ORCA TERMINATED NORMALLY****
TOTAL RUN TIME: 0 days 0 hours 0 minutes 34 seconds 792 msec
