                         Program Version 4.2.1 -  RELEASE  -
|  1> ! wB97X-D3 SP def2-SVP
|  2> %pal
|  3> nprocs 16
|  4> end
|  5>
|  6> * xyz 0 1
|  7> S 	 -45.4547 	 38.9032 	 77.7262
|  8> C 	 -46.4593 	 39.647 	 78.9615
|  9> C 	 -45.7019 	 40.4708 	 79.8012
| 10> C 	 -44.3068 	 40.3719 	 79.5248
| 11> C 	 -44.0126 	 39.5082 	 78.489
| 12> H 	 -43.5144 	 40.9217 	 79.9756
| 13> C 	 -46.2732 	 41.2967 	 80.9019
| 14> H 	 -47.3334 	 41.1819 	 80.8708
| 15> H 	 -46.1053 	 42.3931 	 80.8354
| 16> C 	 -45.8112 	 40.7662 	 82.2452
| 17> H 	 -45.9137 	 39.7492 	 82.1716
| 18> H 	 -44.7639 	 40.9905 	 82.3206
| 19> C 	 -46.5942 	 41.3682 	 83.4714
| 20> H 	 -46.1862 	 41.1007 	 84.4028
| 21> H 	 -46.469 	 42.4531 	 83.5574
| 22> H 	 -47.6972 	 41.0354 	 83.4503
| 23> S 	 -42.1083 	 40.5755 	 76.9357
| 24> C 	 -40.5631 	 39.8114 	 76.7315
| 25> C 	 -40.4323 	 38.8742 	 77.7466
| 26> C 	 -41.6714 	 38.4857 	 78.3565
| 27> C 	 -42.7213 	 39.2774 	 77.9198
| 28> H 	 -39.4231 	 38.4631 	 77.9099
| 29> C 	 -41.6313 	 37.3628 	 79.3865
| 30> H 	 -42.3167 	 37.583 	 80.129
| 31> H 	 -40.6592 	 37.2405 	 79.8172
| 32> C 	 -42.0345 	 36.0233 	 78.7956
| 33> H 	 -43.0476 	 35.7683 	 78.8634
| 34> H 	 -41.5747 	 35.2292 	 79.4643
| 35> C 	 -41.5048 	 35.6348 	 77.4071
| 36> H 	 -41.9866 	 36.2321 	 76.6096
| 37> H 	 -41.5851 	 34.5686 	 77.3149
| 38> H 	 -40.4764 	 35.7884 	 77.2686
| 39> H 	 -47.5781 	 39.5113 	 79.0275
| 40> H 	 -39.7522 	 40.22 	 76.0504
| 41> *
| 42>
| 43>                          ****END OF INPUT****

CARTESIAN COORDINATES (ANGSTROEM)
---------------------------------
  S    -45.454700   38.903200   77.726200
  C    -46.459300   39.647000   78.961500
  C    -45.701900   40.470800   79.801200
  C    -44.306800   40.371900   79.524800
  C    -44.012600   39.508200   78.489000
  H    -43.514400   40.921700   79.975600
  C    -46.273200   41.296700   80.901900
  H    -47.333400   41.181900   80.870800
  H    -46.105300   42.393100   80.835400
  C    -45.811200   40.766200   82.245200
  H    -45.913700   39.749200   82.171600
  H    -44.763900   40.990500   82.320600
  C    -46.594200   41.368200   83.471400
  H    -46.186200   41.100700   84.402800
  H    -46.469000   42.453100   83.557400
  H    -47.697200   41.035400   83.450300
  S    -42.108300   40.575500   76.935700
  C    -40.563100   39.811400   76.731500
  C    -40.432300   38.874200   77.746600
  C    -41.671400   38.485700   78.356500
  C    -42.721300   39.277400   77.919800
  H    -39.423100   38.463100   77.909900
  C    -41.631300   37.362800   79.386500
  H    -42.316700   37.583000   80.129000
  H    -40.659200   37.240500   79.817200
  C    -42.034500   36.023300   78.795600
  H    -43.047600   35.768300   78.863400
  H    -41.574700   35.229200   79.464300
  C    -41.504800   35.634800   77.407100
  H    -41.986600   36.232100   76.609600
  H    -41.585100   34.568600   77.314900
  H    -40.476400   35.788400   77.268600
  H    -47.578100   39.511300   79.027500
  H    -39.752200   40.220000   76.050400

 Total Charge           Charge          ....    0
 Multiplicity           Mult            ....    1
 Number of Electrons    NEL             ....  134
 Basis Dimension        Dim             ....  322

ORBITAL ENERGIES
----------------

  NO   OCC          E(Eh)            E(eV)
   0   2.0000     -88.965781     -2420.8820
   1   2.0000     -88.960504     -2420.7384
   2   2.0000     -10.323784      -280.9244
   3   2.0000     -10.321263      -280.8559
   4   2.0000     -10.320224      -280.8276
   5   2.0000     -10.319619      -280.8111
   6   2.0000     -10.305250      -280.4201
   7   2.0000     -10.301019      -280.3050
   8   2.0000     -10.294851      -280.1371
   9   2.0000     -10.291580      -280.0481
  10   2.0000     -10.285894      -279.8934
  11   2.0000     -10.283648      -279.8323
  12   2.0000     -10.283333      -279.8237
  13   2.0000     -10.279029      -279.7066
  14   2.0000     -10.278022      -279.6792
  15   2.0000     -10.265871      -279.3486
  16   2.0000      -8.080511      -219.8819
  17   2.0000      -8.075958      -219.7580
  18   2.0000      -6.038922      -164.3274
  19   2.0000      -6.035018      -164.2212
  20   2.0000      -6.034434      -164.2053
  21   2.0000      -6.031376      -164.1221
  22   2.0000      -6.030462      -164.0972
  23   2.0000      -6.026588      -163.9918
  24   2.0000      -1.010197       -27.4889
  25   2.0000      -0.985048       -26.8045
  26   2.0000      -0.916741       -24.9458
  27   2.0000      -0.910216       -24.7682
  28   2.0000      -0.869667       -23.6648
  29   2.0000      -0.845707       -23.0128
  30   2.0000      -0.843482       -22.9523
  31   2.0000      -0.810907       -22.0659
  32   2.0000      -0.788575       -21.4582
  33   2.0000      -0.773284       -21.0421
  34   2.0000      -0.711867       -19.3709
  35   2.0000      -0.698046       -18.9948
  36   2.0000      -0.685688       -18.6585
  37   2.0000      -0.658901       -17.9296
  38   2.0000      -0.645314       -17.5599
  39   2.0000      -0.620214       -16.8769
  40   2.0000      -0.590990       -16.0817
  41   2.0000      -0.575291       -15.6545
  42   2.0000      -0.563835       -15.3427
  43   2.0000      -0.554784       -15.0965
  44   2.0000      -0.547668       -14.9028
  45   2.0000      -0.517056       -14.0698
  46   2.0000      -0.516301       -14.0493
  47   2.0000      -0.506939       -13.7945
  48   2.0000      -0.502746       -13.6804
  49   2.0000      -0.499903       -13.6031
  50   2.0000      -0.487449       -13.2642
  51   2.0000      -0.481367       -13.0987
  52   2.0000      -0.474854       -12.9214
  53   2.0000      -0.465247       -12.6600
  54   2.0000      -0.456472       -12.4212
  55   2.0000      -0.450488       -12.2584
  56   2.0000      -0.436182       -11.8691
  57   2.0000      -0.432424       -11.7669
  58   2.0000      -0.431042       -11.7293
  59   2.0000      -0.428187       -11.6516
  60   2.0000      -0.425681       -11.5834
  61   2.0000      -0.422560       -11.4984
  62   2.0000      -0.402717       -10.9585
  63   2.0000      -0.335067        -9.1176
  64   2.0000      -0.323674        -8.8076
  65   2.0000      -0.317636        -8.6433
  66   2.0000      -0.311962        -8.4889
  67   0.0000       0.042701         1.1620
  68   0.0000       0.048840         1.3290
  69   0.0000       0.104921         2.8550
  70   0.0000       0.117363         3.1936
  71   0.0000       0.138027         3.7559

MULLIKEN ATOMIC CHARGES
-----------------------
   0 S :    0.118879
   1 C :   -0.144087
   2 C :   -0.092815
   3 C :    0.050977
   4 C :   -0.186238
   5 H :    0.005815
   6 C :    0.088841
   7 H :   -0.005119
   8 H :    0.039370
   9 C :   -0.062031
  10 H :    0.014798
  11 H :    0.024336
  12 C :   -0.044886
  13 H :    0.017698
  14 H :    0.027705
  15 H :    0.048366
  16 S :    0.108216
  17 C :   -0.120087
  18 C :   -0.058617
  19 C :   -0.053952
  20 C :   -0.167805
  21 H :    0.029462
  22 C :    0.204210
  23 H :    0.006477
  24 H :    0.014858
  25 C :   -0.119016
  26 H :    0.023549
  27 H :    0.019371
  28 C :   -0.018009
  29 H :    0.046125
  30 H :    0.025542
  31 H :    0.002407
  32 H :    0.070299
  33 H :    0.085361
Sum of atomic charges:    0.0000000

LOEWDIN ATOMIC CHARGES
----------------------
   0 S :    0.413223
   1 C :   -0.206438
   2 C :   -0.061554
   3 C :   -0.054789
   4 C :   -0.206205
   5 H :    0.028820
   6 C :   -0.032077
   7 H :    0.022010
   8 H :    0.034623
   9 C :   -0.029440
  10 H :    0.013777
  11 H :    0.020635
  12 C :   -0.069379
  13 H :    0.018033
  14 H :    0.027049
  15 H :    0.035991
  16 S :    0.418427
  17 C :   -0.197893
  18 C :   -0.078821
  19 C :   -0.045329
  20 C :   -0.218471
  21 H :    0.032502
  22 C :   -0.017755
  23 H :    0.024743
  24 H :    0.031570
  25 C :   -0.039567
  26 H :    0.016286
  27 H :    0.028987
  28 C :   -0.064304
  29 H :    0.030518
  30 H :    0.026310
  31 H :    0.014065
  32 H :    0.039809
  33 H :    0.044643

  Mayer bond orders larger than 0.100000
B(  0-S ,  1-C ) :   1.1466 B(  0-S ,  4-C ) :   1.1592 B(  1-C ,  2-C ) :   1.5987
B(  1-C , 32-H ) :   0.9597 B(  2-C ,  3-C ) :   1.2249 B(  2-C ,  6-C ) :   1.0461
B(  3-C ,  4-C ) :   1.5829 B(  3-C ,  5-H ) :   1.0045 B(  4-C , 20-C ) :   1.0178
B(  6-C ,  7-H ) :   0.9330 B(  6-C ,  8-H ) :   0.9354 B(  6-C ,  9-C ) :   1.0561
B(  9-C , 10-H ) :   0.9572 B(  9-C , 11-H ) :   0.9555 B(  9-C , 12-C ) :   1.0842
B( 12-C , 13-H ) :   0.9736 B( 12-C , 14-H ) :   0.9723 B( 12-C , 15-H ) :   0.9750
B( 16-S , 17-C ) :   1.1667 B( 16-S , 20-C ) :   1.1595 B( 17-C , 18-C ) :   1.5871
B( 17-C , 20-C ) :   0.1059 B( 17-C , 33-H ) :   0.9620 B( 18-C , 19-C ) :   1.2459
B( 18-C , 21-H ) :   0.9872 B( 19-C , 20-C ) :   1.5701 B( 19-C , 22-C ) :   1.0469
B( 22-C , 23-H ) :   0.9187 B( 22-C , 24-H ) :   0.9307 B( 22-C , 25-C ) :   1.0743
B( 25-C , 26-H ) :   0.9577 B( 25-C , 27-H ) :   0.9566 B( 25-C , 28-C ) :   1.0890
B( 28-C , 29-H ) :   0.9668 B( 28-C , 30-H ) :   0.9723 B( 28-C , 31-H ) :   0.9715

Dispersion correction           -0.014593899
FINAL SINGLE POINT ENERGY     -1339.860774638609

DIPOLE MOMENT
-------------
                                X             Y             Z
Electronic contribution:      1.39376       6.93827     -19.38158
Nuclear contribution   :     -1.13569      -6.93502      19.97309
                        -----------------------------------------
Total Dipole Moment    :      0.25807       0.00325       0.59151
                        -----------------------------------------
Magnitude (a.u.)       :      0.64536
Magnitude (Debye)      :      1.64039

Rotational constants in cm-1:     0.021142     0.007578     0.007163
Rotational constants in MHz :   633.810298   227.168002   214.729498

                             ****ORCA TERMINATED NORMALLY****
TOTAL RUN TIME: 0 days 0 hours 0 minutes 28 seconds 573 msec
