                         Program Version 4.2.1 -  RELEASE  -
|  1> ! wB97X-D3 SP def2-SVP
|  2> %pal
|  3> nprocs 16
|  4> end
|  5>
|  6> * xyz 0 1
|  7> S 	 -3.2192 	 79.1779 	 53.6327
|  8> C 	 -1.64574 	 79.8825 	 53.7332
|  9> C 	 -0.792384 	 79.28 	 52.7601
| 10> C 	 -1.45587 	 78.296 	 52.0061
| 11> C 	 -2.80379 	 78.1332 	 52.3037
| 12> H 	 -1.01241 	 77.6247 	 51.2264
| 13> C 	 0.691321 	 79.4812 	 52.7826
| 14> H 	 1.10939 	 78.5391 	 53.1566
| 15> H 	 0.900562 	 80.2686 	 53.5173
| 16> C 	 1.44171 	 79.665 	 51.4442
| 17> H 	 2.42017 	 79.782 	 51.788
| 18> H 	 1.40311 	 78.8457 	 50.6863
| 19> C 	 0.870733 	 80.8663 	 50.6991
| 20> H 	 -0.146407 	 80.6661 	 50.4105
| 21> H 	 0.871952 	 81.71 	 51.3576
| 22> H 	 1.45985 	 81.1446 	 49.8634
| 23> S 	 -4.49124 	 76.0043 	 52.9394
| 24> C 	 -5.16429 	 74.9976 	 51.715
| 25> C 	 -4.83229 	 75.4522 	 50.4695
| 26> C 	 -3.97668 	 76.6416 	 50.5307
| 27> C 	 -3.73481 	 77.146 	 51.7929
| 28> H 	 -5.12539 	 75.039 	 49.614
| 29> C 	 -3.41242 	 77.2758 	 49.2238
| 30> H 	 -2.9303 	 78.2593 	 49.4206
| 31> H 	 -4.18007 	 77.4425 	 48.4363
| 32> C 	 -2.43833 	 76.3348 	 48.458
| 33> H 	 -2.04936 	 76.8607 	 47.5731
| 34> H 	 -3.05202 	 75.4634 	 48.2231
| 35> C 	 -1.20725 	 75.8562 	 49.0909
| 36> H 	 -1.39187 	 75.4378 	 50.0824
| 37> H 	 -0.331583 	 76.5828 	 49.1298
| 38> H 	 -0.926837 	 74.9874 	 48.5069
| 39> H 	 -1.32999 	 80.5521 	 54.4903
| 40> H 	 -5.77402 	 74.1618 	 51.8709
| 41> *
| 42>
| 43>                          ****END OF INPUT****

CARTESIAN COORDINATES (ANGSTROEM)
---------------------------------
  S     -3.219200   79.177900   53.632700
  C     -1.645740   79.882500   53.733200
  C     -0.792384   79.280000   52.760100
  C     -1.455870   78.296000   52.006100
  C     -2.803790   78.133200   52.303700
  H     -1.012410   77.624700   51.226400
  C      0.691321   79.481200   52.782600
  H      1.109390   78.539100   53.156600
  H      0.900562   80.268600   53.517300
  C      1.441710   79.665000   51.444200
  H      2.420170   79.782000   51.788000
  H      1.403110   78.845700   50.686300
  C      0.870733   80.866300   50.699100
  H     -0.146407   80.666100   50.410500
  H      0.871952   81.710000   51.357600
  H      1.459850   81.144600   49.863400
  S     -4.491240   76.004300   52.939400
  C     -5.164290   74.997600   51.715000
  C     -4.832290   75.452200   50.469500
  C     -3.976680   76.641600   50.530700
  C     -3.734810   77.146000   51.792900
  H     -5.125390   75.039000   49.614000
  C     -3.412420   77.275800   49.223800
  H     -2.930300   78.259300   49.420600
  H     -4.180070   77.442500   48.436300
  C     -2.438330   76.334800   48.458000
  H     -2.049360   76.860700   47.573100
  H     -3.052020   75.463400   48.223100
  C     -1.207250   75.856200   49.090900
  H     -1.391870   75.437800   50.082400
  H     -0.331583   76.582800   49.129800
  H     -0.926837   74.987400   48.506900
  H     -1.329990   80.552100   54.490300
  H     -5.774020   74.161800   51.870900

 Total Charge           Charge          ....    0
 Multiplicity           Mult            ....    1
 Number of Electrons    NEL             ....  134
 Basis Dimension        Dim             ....  322

ORBITAL ENERGIES
----------------

  NO   OCC          E(Eh)            E(eV)
   0   2.0000     -88.967412     -2420.9264
   1   2.0000     -88.962425     -2420.7907
   2   2.0000     -10.330615      -281.1103
   3   2.0000     -10.330287      -281.1014
   4   2.0000     -10.316520      -280.7268
   5   2.0000     -10.315027      -280.6861
   6   2.0000     -10.309747      -280.5425
   7   2.0000     -10.302475      -280.3446
   8   2.0000     -10.296792      -280.1900
   9   2.0000     -10.296214      -280.1742
  10   2.0000     -10.292680      -280.0780
  11   2.0000     -10.289213      -279.9837
  12   2.0000     -10.284567      -279.8573
  13   2.0000     -10.284521      -279.8560
  14   2.0000     -10.276619      -279.6410
  15   2.0000     -10.265468      -279.3376
  16   2.0000      -8.082419      -219.9338
  17   2.0000      -8.077410      -219.7975
  18   2.0000      -6.040721      -164.3764
  19   2.0000      -6.036719      -164.2675
  20   2.0000      -6.036031      -164.2487
  21   2.0000      -6.033543      -164.1810
  22   2.0000      -6.031782      -164.1331
  23   2.0000      -6.028101      -164.0330
  24   2.0000      -1.007426       -27.4135
  25   2.0000      -0.985757       -26.8238
  26   2.0000      -0.915501       -24.9120
  27   2.0000      -0.911054       -24.7910
  28   2.0000      -0.874343       -23.7921
  29   2.0000      -0.851487       -23.1701
  30   2.0000      -0.845569       -23.0091
  31   2.0000      -0.819581       -22.3019
  32   2.0000      -0.785203       -21.3664
  33   2.0000      -0.775282       -21.0965
  34   2.0000      -0.712825       -19.3969
  35   2.0000      -0.696791       -18.9607
  36   2.0000      -0.688027       -18.7222
  37   2.0000      -0.661797       -18.0084
  38   2.0000      -0.641140       -17.4463
  39   2.0000      -0.622464       -16.9381
  40   2.0000      -0.600784       -16.3482
  41   2.0000      -0.575833       -15.6692
  42   2.0000      -0.560441       -15.2504
  43   2.0000      -0.553200       -15.0533
  44   2.0000      -0.544330       -14.8120
  45   2.0000      -0.542645       -14.7661
  46   2.0000      -0.523991       -14.2585
  47   2.0000      -0.522466       -14.2170
  48   2.0000      -0.512761       -13.9529
  49   2.0000      -0.500521       -13.6199
  50   2.0000      -0.490421       -13.3450
  51   2.0000      -0.475945       -12.9511
  52   2.0000      -0.472612       -12.8604
  53   2.0000      -0.467495       -12.7212
  54   2.0000      -0.464279       -12.6337
  55   2.0000      -0.446391       -12.1469
  56   2.0000      -0.438076       -11.9207
  57   2.0000      -0.435603       -11.8534
  58   2.0000      -0.432847       -11.7784
  59   2.0000      -0.421855       -11.4793
  60   2.0000      -0.417525       -11.3614
  61   2.0000      -0.415710       -11.3120
  62   2.0000      -0.405047       -11.0219
  63   2.0000      -0.351438        -9.5631
  64   2.0000      -0.329333        -8.9616
  65   2.0000      -0.327453        -8.9104
  66   2.0000      -0.293450        -7.9852
  67   0.0000       0.028243         0.7685
  68   0.0000       0.070606         1.9213
  69   0.0000       0.117211         3.1895
  70   0.0000       0.120571         3.2809
  71   0.0000       0.125637         3.4188

MULLIKEN ATOMIC CHARGES
-----------------------
   0 S :    0.118993
   1 C :   -0.109087
   2 C :   -0.098963
   3 C :    0.031712
   4 C :   -0.171298
   5 H :    0.005567
   6 C :    0.044365
   7 H :    0.041804
   8 H :    0.022876
   9 C :   -0.065780
  10 H :    0.019061
  11 H :    0.037469
  12 C :   -0.021816
  13 H :    0.037204
  14 H :    0.011738
  15 H :    0.023423
  16 S :    0.090948
  17 C :   -0.051165
  18 C :    0.028732
  19 C :   -0.068612
  20 C :   -0.112534
  21 H :   -0.037117
  22 C :    0.052621
  23 H :    0.033960
  24 H :    0.037024
  25 C :   -0.101163
  26 H :    0.034196
  27 H :    0.025628
  28 C :   -0.057174
  29 H :    0.036695
  30 H :    0.047637
  31 H :    0.028526
  32 H :    0.042052
  33 H :    0.042477
Sum of atomic charges:    0.0000000

LOEWDIN ATOMIC CHARGES
----------------------
   0 S :    0.430861
   1 C :   -0.204372
   2 C :   -0.066341
   3 C :   -0.066743
   4 C :   -0.201832
   5 H :    0.039429
   6 C :   -0.031742
   7 H :    0.038644
   8 H :    0.031627
   9 C :   -0.037583
  10 H :    0.017881
  11 H :    0.027647
  12 C :   -0.057988
  13 H :    0.025532
  14 H :    0.019216
  15 H :    0.018950
  16 S :    0.398306
  17 C :   -0.170673
  18 C :   -0.057442
  19 C :   -0.050032
  20 C :   -0.193720
  21 H :    0.005977
  22 C :   -0.037344
  23 H :    0.029544
  24 H :    0.035996
  25 C :   -0.048767
  26 H :    0.030412
  27 H :    0.023239
  28 C :   -0.076616
  29 H :    0.023481
  30 H :    0.027979
  31 H :    0.031236
  32 H :    0.021913
  33 H :    0.023325

  Mayer bond orders larger than 0.100000
B(  0-S ,  1-C ) :   1.1664 B(  0-S ,  4-C ) :   1.1733 B(  1-C ,  2-C ) :   1.5380
B(  1-C ,  4-C ) :   0.1092 B(  1-C , 32-H ) :   0.9751 B(  2-C ,  3-C ) :   1.2799
B(  2-C ,  6-C ) :   1.0371 B(  3-C ,  4-C ) :   1.5356 B(  3-C ,  5-H ) :   0.9811
B(  4-C , 20-C ) :   1.0354 B(  6-C ,  7-H ) :   0.9356 B(  6-C ,  8-H ) :   0.9421
B(  6-C ,  9-C ) :   1.0666 B(  9-C , 10-H ) :   0.9537 B(  9-C , 11-H ) :   0.9555
B(  9-C , 12-C ) :   1.0803 B( 12-C , 13-H ) :   0.9712 B( 12-C , 14-H ) :   0.9752
B( 12-C , 15-H ) :   0.9744 B( 16-S , 17-C ) :   1.1646 B( 16-S , 20-C ) :   1.1136
B( 17-C , 18-C ) :   1.5966 B( 17-C , 33-H ) :   0.9741 B( 18-C , 19-C ) :   1.2220
B( 18-C , 21-H ) :   1.0134 B( 19-C , 20-C ) :   1.6230 B( 19-C , 22-C ) :   1.0389
B( 22-C , 23-H ) :   0.9417 B( 22-C , 24-H ) :   0.9416 B( 22-C , 25-C ) :   1.0636
B( 25-C , 26-H ) :   0.9523 B( 25-C , 27-H ) :   0.9578 B( 25-C , 28-C ) :   1.1001
B( 28-C , 29-H ) :   0.9596 B( 28-C , 30-H ) :   0.9651 B( 28-C , 31-H ) :   0.9634

Dispersion correction           -0.015376067
FINAL SINGLE POINT ENERGY     -1339.873640707602

DIPOLE MOMENT
-------------
                                X             Y             Z
Electronic contribution:    -21.82891      -3.62024      19.47675
Nuclear contribution   :     22.32602       3.40788     -19.93904
                        -----------------------------------------
Total Dipole Moment    :      0.49710      -0.21236      -0.46229
                        -----------------------------------------
Magnitude (a.u.)       :      0.71128
Magnitude (Debye)      :      1.80792

Rotational constants in cm-1:     0.019084     0.009943     0.007196
Rotational constants in MHz :   572.111254   298.072894   215.732032

                             ****ORCA TERMINATED NORMALLY****
TOTAL RUN TIME: 0 days 0 hours 0 minutes 35 seconds 948 msec
