                         Program Version 4.2.1 -  RELEASE  -
|  1> ! wB97X-D3 SP def2-SVP
|  2> %pal
|  3> nprocs 16
|  4> end
|  5>
|  6> * xyz 0 1
|  7> S 	 46.6283 	 5.56056 	 87.1164
|  8> C 	 45.8195 	 4.88662 	 85.6986
|  9> C 	 45.9542 	 3.54616 	 85.6435
| 10> C 	 46.6816 	 3.03436 	 86.7081
| 11> C 	 47.0525 	 3.98011 	 87.6449
| 12> H 	 46.808 	 1.99748 	 86.8762
| 13> C 	 45.3684 	 2.69621 	 84.4779
| 14> H 	 45.5513 	 3.33718 	 83.598
| 15> H 	 44.35 	 2.68231 	 84.4715
| 16> C 	 45.925 	 1.24017 	 84.2962
| 17> H 	 45.567 	 0.491614 	 84.9906
| 18> H 	 45.4134 	 0.910089 	 83.4457
| 19> C 	 47.4134 	 1.14912 	 84.0081
| 20> H 	 47.8089 	 1.87675 	 83.2207
| 21> H 	 48.0788 	 1.35294 	 84.9026
| 22> H 	 47.6507 	 0.0981528 	 83.7357
| 23> S 	 47.3645 	 4.64902 	 90.4271
| 24> C 	 48.8191 	 4.27834 	 91.3055
| 25> C 	 49.5541 	 3.48273 	 90.477
| 26> C 	 49.0577 	 3.30364 	 89.1401
| 27> C 	 47.8781 	 3.89971 	 88.8733
| 28> H 	 50.443 	 2.9941 	 90.9391
| 29> C 	 49.7906 	 2.47707 	 88.1567
| 30> H 	 49.1943 	 1.59657 	 87.894
| 31> H 	 50.6961 	 2.15788 	 88.6812
| 32> C 	 50.3151 	 3.23424 	 86.9201
| 33> H 	 49.4779 	 3.82703 	 86.3652
| 34> H 	 50.6366 	 2.51564 	 86.2247
| 35> C 	 51.4473 	 4.14029 	 87.2449
| 36> H 	 52.446 	 3.61385 	 87.2901
| 37> H 	 51.3754 	 4.90917 	 88.0754
| 38> H 	 51.508 	 4.65925 	 86.325
| 39> H 	 45.2955 	 5.52105 	 84.9437
| 40> H 	 49.1733 	 4.59402 	 92.3142
| 41> *
| 42>
| 43>                          ****END OF INPUT****

CARTESIAN COORDINATES (ANGSTROEM)
---------------------------------
  S     46.628300    5.560560   87.116400
  C     45.819500    4.886620   85.698600
  C     45.954200    3.546160   85.643500
  C     46.681600    3.034360   86.708100
  C     47.052500    3.980110   87.644900
  H     46.808000    1.997480   86.876200
  C     45.368400    2.696210   84.477900
  H     45.551300    3.337180   83.598000
  H     44.350000    2.682310   84.471500
  C     45.925000    1.240170   84.296200
  H     45.567000    0.491614   84.990600
  H     45.413400    0.910089   83.445700
  C     47.413400    1.149120   84.008100
  H     47.808900    1.876750   83.220700
  H     48.078800    1.352940   84.902600
  H     47.650700    0.098153   83.735700
  S     47.364500    4.649020   90.427100
  C     48.819100    4.278340   91.305500
  C     49.554100    3.482730   90.477000
  C     49.057700    3.303640   89.140100
  C     47.878100    3.899710   88.873300
  H     50.443000    2.994100   90.939100
  C     49.790600    2.477070   88.156700
  H     49.194300    1.596570   87.894000
  H     50.696100    2.157880   88.681200
  C     50.315100    3.234240   86.920100
  H     49.477900    3.827030   86.365200
  H     50.636600    2.515640   86.224700
  C     51.447300    4.140290   87.244900
  H     52.446000    3.613850   87.290100
  H     51.375400    4.909170   88.075400
  H     51.508000    4.659250   86.325000
  H     45.295500    5.521050   84.943700
  H     49.173300    4.594020   92.314200

 Total Charge           Charge          ....    0
 Multiplicity           Mult            ....    1
 Number of Electrons    NEL             ....  134
 Basis Dimension        Dim             ....  322

ORBITAL ENERGIES
----------------

  NO   OCC          E(Eh)            E(eV)
   0   2.0000     -88.965811     -2420.8828
   1   2.0000     -88.957720     -2420.6626
   2   2.0000     -10.331337      -281.1300
   3   2.0000     -10.325973      -280.9840
   4   2.0000     -10.318898      -280.7915
   5   2.0000     -10.312817      -280.6260
   6   2.0000     -10.296396      -280.1792
   7   2.0000     -10.294115      -280.1171
   8   2.0000     -10.293879      -280.1107
   9   2.0000     -10.291257      -280.0394
  10   2.0000     -10.291007      -280.0325
  11   2.0000     -10.289842      -280.0008
  12   2.0000     -10.289582      -279.9938
  13   2.0000     -10.282392      -279.7981
  14   2.0000     -10.281858      -279.7836
  15   2.0000     -10.272724      -279.5350
  16   2.0000      -8.080853      -219.8912
  17   2.0000      -8.072090      -219.6527
  18   2.0000      -6.039201      -164.3350
  19   2.0000      -6.035232      -164.2270
  20   2.0000      -6.031824      -164.1343
  21   2.0000      -6.030844      -164.1076
  22   2.0000      -6.026518      -163.9899
  23   2.0000      -6.022686      -163.8856
  24   2.0000      -1.010718       -27.5030
  25   2.0000      -0.989196       -26.9174
  26   2.0000      -0.911873       -24.8133
  27   2.0000      -0.910564       -24.7777
  28   2.0000      -0.871216       -23.7070
  29   2.0000      -0.851391       -23.1675
  30   2.0000      -0.840712       -22.8769
  31   2.0000      -0.819523       -22.3004
  32   2.0000      -0.785438       -21.3729
  33   2.0000      -0.771921       -21.0050
  34   2.0000      -0.714431       -19.4406
  35   2.0000      -0.698675       -19.0119
  36   2.0000      -0.682932       -18.5835
  37   2.0000      -0.656702       -17.8698
  38   2.0000      -0.641831       -17.4651
  39   2.0000      -0.628264       -17.0959
  40   2.0000      -0.584307       -15.8998
  41   2.0000      -0.566737       -15.4217
  42   2.0000      -0.558018       -15.1844
  43   2.0000      -0.555283       -15.1100
  44   2.0000      -0.545888       -14.8544
  45   2.0000      -0.530735       -14.4420
  46   2.0000      -0.518293       -14.1035
  47   2.0000      -0.507008       -13.7964
  48   2.0000      -0.502591       -13.6762
  49   2.0000      -0.497212       -13.5298
  50   2.0000      -0.494425       -13.4540
  51   2.0000      -0.481218       -13.0946
  52   2.0000      -0.475259       -12.9324
  53   2.0000      -0.466625       -12.6975
  54   2.0000      -0.459515       -12.5040
  55   2.0000      -0.447846       -12.1865
  56   2.0000      -0.441564       -12.0156
  57   2.0000      -0.435074       -11.8390
  58   2.0000      -0.432421       -11.7668
  59   2.0000      -0.423206       -11.5160
  60   2.0000      -0.413401       -11.2492
  61   2.0000      -0.409436       -11.1413
  62   2.0000      -0.398332       -10.8392
  63   2.0000      -0.343699        -9.3525
  64   2.0000      -0.336996        -9.1701
  65   2.0000      -0.321829        -8.7574
  66   2.0000      -0.298171        -8.1136
  67   0.0000       0.029231         0.7954
  68   0.0000       0.073623         2.0034
  69   0.0000       0.119056         3.2397
  70   0.0000       0.119768         3.2591
  71   0.0000       0.136400         3.7116

MULLIKEN ATOMIC CHARGES
-----------------------
   0 S :    0.119326
   1 C :   -0.163555
   2 C :   -0.055940
   3 C :    0.021213
   4 C :   -0.152327
   5 H :    0.000746
   6 C :    0.096831
   7 H :    0.021207
   8 H :    0.013488
   9 C :   -0.040304
  10 H :    0.031732
  11 H :    0.010761
  12 C :   -0.094369
  13 H :    0.047883
  14 H :    0.037790
  15 H :    0.038182
  16 S :    0.081298
  17 C :   -0.100560
  18 C :   -0.058578
  19 C :   -0.039897
  20 C :   -0.137425
  21 H :    0.030057
  22 C :    0.083210
  23 H :    0.034858
  24 H :    0.003628
  25 C :   -0.088331
  26 H :    0.058890
  27 H :    0.015885
  28 C :   -0.055906
  29 H :    0.031682
  30 H :    0.058075
  31 H :    0.017028
  32 H :    0.057487
  33 H :    0.075933
Sum of atomic charges:    0.0000000

LOEWDIN ATOMIC CHARGES
----------------------
   0 S :    0.423902
   1 C :   -0.197766
   2 C :   -0.067049
   3 C :   -0.062827
   4 C :   -0.192114
   5 H :    0.026027
   6 C :   -0.018497
   7 H :    0.036708
   8 H :    0.019033
   9 C :   -0.046089
  10 H :    0.028188
  11 H :    0.024226
  12 C :   -0.077121
  13 H :    0.035414
  14 H :    0.026971
  15 H :    0.029725
  16 S :    0.379508
  17 C :   -0.193307
  18 C :   -0.087630
  19 C :   -0.067180
  20 C :   -0.186852
  21 H :    0.035680
  22 C :   -0.035090
  23 H :    0.029088
  24 H :    0.029172
  25 C :   -0.042186
  26 H :    0.035199
  27 H :    0.018911
  28 C :   -0.076493
  29 H :    0.029032
  30 H :    0.035042
  31 H :    0.024868
  32 H :    0.035107
  33 H :    0.048400

  Mayer bond orders larger than 0.100000
B(  0-S ,  1-C ) :   1.1416 B(  0-S ,  4-C ) :   1.1837 B(  1-C ,  2-C ) :   1.6142
B(  1-C ,  4-C ) :   0.1065 B(  1-C , 32-H ) :   0.9669 B(  2-C ,  3-C ) :   1.2806
B(  2-C ,  6-C ) :   0.9796 B(  3-C ,  4-C ) :   1.5425 B(  3-C ,  5-H ) :   1.0063
B(  4-C , 20-C ) :   1.0137 B(  6-C ,  7-H ) :   0.9399 B(  6-C ,  8-H ) :   0.9377
B(  6-C ,  9-C ) :   1.0841 B(  9-C , 10-H ) :   0.9482 B(  9-C , 11-H ) :   0.9431
B(  9-C , 12-C ) :   1.0765 B( 12-C , 13-H ) :   0.9733 B( 12-C , 14-H ) :   0.9738
B( 12-C , 15-H ) :   0.9714 B( 16-S , 17-C ) :   1.1519 B( 16-S , 20-C ) :   1.1166
B( 17-C , 18-C ) :   1.6176 B( 17-C , 33-H ) :   0.9605 B( 18-C , 19-C ) :   1.2359
B( 18-C , 21-H ) :   0.9809 B( 19-C , 20-C ) :   1.6111 B( 19-C , 22-C ) :   1.0512
B( 22-C , 23-H ) :   0.9322 B( 22-C , 24-H ) :   0.9242 B( 22-C , 25-C ) :   1.0716
B( 25-C , 26-H ) :   0.9612 B( 25-C , 27-H ) :   0.9456 B( 25-C , 28-C ) :   1.0748
B( 28-C , 29-H ) :   0.9682 B( 28-C , 30-H ) :   0.9747 B( 28-C , 31-H ) :   0.9676

Dispersion correction           -0.015853707
FINAL SINGLE POINT ENERGY     -1339.861378186613

DIPOLE MOMENT
-------------
                                X             Y             Z
Electronic contribution:    -11.44977      15.57558      19.45029
Nuclear contribution   :     11.63395     -16.12947     -20.02159
                        -----------------------------------------
Total Dipole Moment    :      0.18418      -0.55389      -0.57130
                        -----------------------------------------
Magnitude (a.u.)       :      0.81676
Magnitude (Debye)      :      2.07605

Rotational constants in cm-1:     0.020097     0.009554     0.007795
Rotational constants in MHz :   602.490871   286.426198   233.693266

                             ****ORCA TERMINATED NORMALLY****
TOTAL RUN TIME: 0 days 0 hours 0 minutes 33 seconds 249 msec
