                         Program Version 4.2.1 -  RELEASE  -
|  1> ! wB97X-D3 SP def2-SVP
|  2> %pal
|  3> nprocs 16
|  4> end
|  5>
|  6> * xyz 0 1
|  7> S 	 43.0606 	 11.3651 	 86.1488
|  8> C 	 44.2174 	 11.1899 	 84.8051
|  9> C 	 43.8585 	 11.9476 	 83.7441
| 10> C 	 42.5891 	 12.5564 	 83.8857
| 11> C 	 42.0904 	 12.4711 	 85.2101
| 12> H 	 42.0005 	 13.2147 	 83.1894
| 13> C 	 44.5202 	 11.9138 	 82.4179
| 14> H 	 45.1908 	 11.1106 	 82.3679
| 15> H 	 45.1428 	 12.8114 	 82.2893
| 16> C 	 43.6815 	 11.9179 	 81.1223
| 17> H 	 42.8066 	 11.2246 	 81.2363
| 18> H 	 43.312 	 12.893 	 80.8835
| 19> C 	 44.4983 	 11.3963 	 79.9214
| 20> H 	 45.4474 	 11.9426 	 79.7859
| 21> H 	 44.7687 	 10.3292 	 80.0044
| 22> H 	 43.9397 	 11.5305 	 79.0137
| 23> S 	 41.0103 	 13.4618 	 87.5362
| 24> C 	 39.5592 	 14.4855 	 87.4365
| 25> C 	 38.9374 	 14.3786 	 86.1847
| 26> C 	 39.7587 	 13.6889 	 85.2162
| 27> C 	 40.9863 	 13.2024 	 85.7968
| 28> H 	 38.0621 	 14.9893 	 86.0234
| 29> C 	 39.386 	 13.7725 	 83.7023
| 30> H 	 40.2213 	 14.2471 	 83.2428
| 31> H 	 38.5849 	 14.5032 	 83.4747
| 32> C 	 39.0538 	 12.411 	 83.0482
| 33> H 	 38.0706 	 12.0373 	 83.3814
| 34> H 	 39.8992 	 11.7888 	 83.4793
| 35> C 	 39.0011 	 12.5337 	 81.5547
| 36> H 	 38.603 	 11.4965 	 81.2026
| 37> H 	 39.9447 	 12.5772 	 81.001
| 38> H 	 38.3705 	 13.3025 	 81.081
| 39> H 	 45.1643 	 10.6741 	 84.8747
| 40> H 	 39.1204 	 15.072 	 88.2233
| 41> *
| 42>
| 43>                          ****END OF INPUT****

CARTESIAN COORDINATES (ANGSTROEM)
---------------------------------
  S     43.060600   11.365100   86.148800
  C     44.217400   11.189900   84.805100
  C     43.858500   11.947600   83.744100
  C     42.589100   12.556400   83.885700
  C     42.090400   12.471100   85.210100
  H     42.000500   13.214700   83.189400
  C     44.520200   11.913800   82.417900
  H     45.190800   11.110600   82.367900
  H     45.142800   12.811400   82.289300
  C     43.681500   11.917900   81.122300
  H     42.806600   11.224600   81.236300
  H     43.312000   12.893000   80.883500
  C     44.498300   11.396300   79.921400
  H     45.447400   11.942600   79.785900
  H     44.768700   10.329200   80.004400
  H     43.939700   11.530500   79.013700
  S     41.010300   13.461800   87.536200
  C     39.559200   14.485500   87.436500
  C     38.937400   14.378600   86.184700
  C     39.758700   13.688900   85.216200
  C     40.986300   13.202400   85.796800
  H     38.062100   14.989300   86.023400
  C     39.386000   13.772500   83.702300
  H     40.221300   14.247100   83.242800
  H     38.584900   14.503200   83.474700
  C     39.053800   12.411000   83.048200
  H     38.070600   12.037300   83.381400
  H     39.899200   11.788800   83.479300
  C     39.001100   12.533700   81.554700
  H     38.603000   11.496500   81.202600
  H     39.944700   12.577200   81.001000
  H     38.370500   13.302500   81.081000
  H     45.164300   10.674100   84.874700
  H     39.120400   15.072000   88.223300

 Total Charge           Charge          ....    0
 Multiplicity           Mult            ....    1
 Number of Electrons    NEL             ....  134
 Basis Dimension        Dim             ....  322

ORBITAL ENERGIES
----------------

  NO   OCC          E(Eh)            E(eV)
   0   2.0000     -88.971198     -2421.0294
   1   2.0000     -88.967374     -2420.9253
   2   2.0000     -10.336168      -281.2614
   3   2.0000     -10.334658      -281.2203
   4   2.0000     -10.321459      -280.8612
   5   2.0000     -10.315566      -280.7008
   6   2.0000     -10.312087      -280.6061
   7   2.0000     -10.299073      -280.2520
   8   2.0000     -10.298252      -280.2297
   9   2.0000     -10.297909      -280.2203
  10   2.0000     -10.295024      -280.1418
  11   2.0000     -10.291451      -280.0446
  12   2.0000     -10.290856      -280.0284
  13   2.0000     -10.285734      -279.8890
  14   2.0000     -10.285611      -279.8857
  15   2.0000     -10.281444      -279.7723
  16   2.0000      -8.085022      -220.0046
  17   2.0000      -8.081723      -219.9149
  18   2.0000      -6.043596      -164.4546
  19   2.0000      -6.040314      -164.3653
  20   2.0000      -6.039691      -164.3483
  21   2.0000      -6.036307      -164.2563
  22   2.0000      -6.035728      -164.2405
  23   2.0000      -6.032409      -164.1502
  24   2.0000      -1.004172       -27.3249
  25   2.0000      -0.978716       -26.6322
  26   2.0000      -0.914873       -24.8950
  27   2.0000      -0.907205       -24.6863
  28   2.0000      -0.871970       -23.7275
  29   2.0000      -0.849052       -23.1039
  30   2.0000      -0.844526       -22.9807
  31   2.0000      -0.812596       -22.1119
  32   2.0000      -0.782660       -21.2973
  33   2.0000      -0.770789       -20.9742
  34   2.0000      -0.713722       -19.4214
  35   2.0000      -0.697591       -18.9824
  36   2.0000      -0.689718       -18.7682
  37   2.0000      -0.661740       -18.0069
  38   2.0000      -0.638337       -17.3700
  39   2.0000      -0.619312       -16.8523
  40   2.0000      -0.591341       -16.0912
  41   2.0000      -0.573885       -15.6162
  42   2.0000      -0.567716       -15.4483
  43   2.0000      -0.562559       -15.3080
  44   2.0000      -0.526233       -14.3195
  45   2.0000      -0.522266       -14.2116
  46   2.0000      -0.511121       -13.9083
  47   2.0000      -0.506697       -13.7879
  48   2.0000      -0.504661       -13.7325
  49   2.0000      -0.499424       -13.5900
  50   2.0000      -0.493664       -13.4333
  51   2.0000      -0.484204       -13.1758
  52   2.0000      -0.476403       -12.9636
  53   2.0000      -0.470477       -12.8023
  54   2.0000      -0.457715       -12.4550
  55   2.0000      -0.448703       -12.2098
  56   2.0000      -0.441945       -12.0259
  57   2.0000      -0.436660       -11.8821
  58   2.0000      -0.434253       -11.8166
  59   2.0000      -0.425951       -11.5907
  60   2.0000      -0.421184       -11.4610
  61   2.0000      -0.415481       -11.3058
  62   2.0000      -0.405573       -11.0362
  63   2.0000      -0.355569        -9.6755
  64   2.0000      -0.335224        -9.1219
  65   2.0000      -0.330277        -8.9873
  66   2.0000      -0.278057        -7.5663
  67   0.0000       0.013842         0.3767
  68   0.0000       0.072886         1.9833
  69   0.0000       0.101140         2.7522
  70   0.0000       0.118362         3.2208
  71   0.0000       0.127285         3.4636

MULLIKEN ATOMIC CHARGES
-----------------------
   0 S :    0.096498
   1 C :   -0.128539
   2 C :   -0.036527
   3 C :   -0.023230
   4 C :   -0.127375
   5 H :    0.020836
   6 C :    0.082740
   7 H :   -0.001777
   8 H :    0.032118
   9 C :   -0.097869
  10 H :    0.042806
  11 H :    0.029401
  12 C :   -0.056889
  13 H :    0.028604
  14 H :    0.038860
  15 H :    0.031018
  16 S :    0.106922
  17 C :   -0.098833
  18 C :   -0.027693
  19 C :   -0.031770
  20 C :   -0.133755
  21 H :    0.024615
  22 C :    0.020861
  23 H :    0.028893
  24 H :    0.019160
  25 C :   -0.071021
  26 H :    0.039370
  27 H :    0.060273
  28 C :   -0.077086
  29 H :    0.036743
  30 H :    0.028612
  31 H :    0.040370
  32 H :    0.048069
  33 H :    0.055596
Sum of atomic charges:    0.0000000

LOEWDIN ATOMIC CHARGES
----------------------
   0 S :    0.389719
   1 C :   -0.188992
   2 C :   -0.063866
   3 C :   -0.076218
   4 C :   -0.186280
   5 H :    0.037037
   6 C :   -0.031058
   7 H :    0.020005
   8 H :    0.038356
   9 C :   -0.038008
  10 H :    0.028410
  11 H :    0.017908
  12 C :   -0.064779
  13 H :    0.024844
  14 H :    0.027622
  15 H :    0.024320
  16 S :    0.396852
  17 C :   -0.177633
  18 C :   -0.066911
  19 C :   -0.049091
  20 C :   -0.198063
  21 H :    0.032876
  22 C :   -0.035748
  23 H :    0.022623
  24 H :    0.028900
  25 C :   -0.046907
  26 H :    0.029656
  27 H :    0.039495
  28 C :   -0.080934
  29 H :    0.037709
  30 H :    0.023005
  31 H :    0.027361
  32 H :    0.029698
  33 H :    0.028094

  Mayer bond orders larger than 0.100000
B(  0-S ,  1-C ) :   1.1074 B(  0-S ,  4-C ) :   1.1540 B(  1-C ,  2-C ) :   1.6332
B(  1-C , 32-H ) :   0.9652 B(  2-C ,  3-C ) :   1.2413 B(  2-C ,  6-C ) :   1.0321
B(  3-C ,  4-C ) :   1.5399 B(  3-C ,  5-H ) :   0.9772 B(  4-C , 20-C ) :   1.1082
B(  6-C ,  7-H ) :   0.9512 B(  6-C ,  8-H ) :   0.9118 B(  6-C ,  9-C ) :   1.0721
B(  9-C , 10-H ) :   0.9587 B(  9-C , 11-H ) :   0.9469 B(  9-C , 12-C ) :   1.0885
B( 12-C , 13-H ) :   0.9739 B( 12-C , 14-H ) :   0.9745 B( 12-C , 15-H ) :   0.9734
B( 16-S , 17-C ) :   1.1471 B( 16-S , 20-C ) :   1.1374 B( 17-C , 18-C ) :   1.6122
B( 17-C , 20-C ) :   0.1054 B( 17-C , 33-H ) :   0.9685 B( 18-C , 19-C ) :   1.2586
B( 18-C , 21-H ) :   0.9860 B( 19-C , 20-C ) :   1.5354 B( 19-C , 22-C ) :   1.0215
B( 22-C , 23-H ) :   0.9459 B( 22-C , 24-H ) :   0.9381 B( 22-C , 25-C ) :   1.0433
B( 25-C , 26-H ) :   0.9550 B( 25-C , 27-H ) :   0.9555 B( 25-C , 28-C ) :   1.0771
B( 28-C , 29-H ) :   0.9724 B( 28-C , 30-H ) :   0.9724 B( 28-C , 31-H ) :   0.9719

Dispersion correction           -0.014539007
FINAL SINGLE POINT ENERGY     -1339.867399761332

DIPOLE MOMENT
-------------
                                X             Y             Z
Electronic contribution:      1.70674       1.57832      33.86317
Nuclear contribution   :     -1.82107      -1.28701     -34.55145
                        -----------------------------------------
Total Dipole Moment    :     -0.11434       0.29131      -0.68828
                        -----------------------------------------
Magnitude (a.u.)       :      0.75609
Magnitude (Debye)      :      1.92182

Rotational constants in cm-1:     0.018434     0.009417     0.006643
Rotational constants in MHz :   552.650027   282.316369   199.142330

                             ****ORCA TERMINATED NORMALLY****
TOTAL RUN TIME: 0 days 0 hours 0 minutes 31 seconds 114 msec
