                         Program Version 4.2.1 -  RELEASE  -
|  1> ! wB97X-D3 SP def2-SVP
|  2> %pal
|  3> nprocs 16
|  4> end
|  5>
|  6> * xyz 0 1
|  7> S 	 -45.0398 	 25.5473 	 87.2406
|  8> C 	 -45.8023 	 25.6169 	 85.5913
|  9> C 	 -44.8273 	 25.5513 	 84.5632
| 10> C 	 -43.5073 	 25.3383 	 85.06
| 11> C 	 -43.4254 	 25.297 	 86.4594
| 12> H 	 -42.6219 	 25.0876 	 84.4849
| 13> C 	 -45.119 	 25.6802 	 83.0972
| 14> H 	 -44.4299 	 26.3809 	 82.5506
| 15> H 	 -46.081 	 26.1875 	 82.9825
| 16> C 	 -45.1309 	 24.333 	 82.4584
| 17> H 	 -45.6039 	 24.4718 	 81.5294
| 18> H 	 -44.1558 	 23.8792 	 82.3797
| 19> C 	 -46.043 	 23.2999 	 83.1878
| 20> H 	 -45.5661 	 22.8599 	 84.0958
| 21> H 	 -47.019 	 23.6065 	 83.3984
| 22> H 	 -46.0797 	 22.4937 	 82.494
| 23> S 	 -42.2574 	 23.3078 	 87.9306
| 24> C 	 -40.5611 	 23.4772 	 88.3386
| 25> C 	 -40.037 	 24.7364 	 88.0249
| 26> C 	 -41.0195 	 25.5611 	 87.3404
| 27> C 	 -42.2879 	 24.9193 	 87.1887
| 28> H 	 -38.9288 	 24.8992 	 88.1237
| 29> C 	 -40.6965 	 26.946 	 86.8175
| 30> H 	 -40.2078 	 27.5459 	 87.5516
| 31> H 	 -41.644 	 27.4262 	 86.6391
| 32> C 	 -39.6814 	 26.995 	 85.5894
| 33> H 	 -38.7203 	 26.458 	 85.7428
| 34> H 	 -39.311 	 28.0094 	 85.3016
| 35> C 	 -40.2432 	 26.4884 	 84.3036
| 36> H 	 -40.2325 	 25.3845 	 84.3156
| 37> H 	 -39.684 	 26.7902 	 83.4344
| 38> H 	 -41.3292 	 26.7428 	 84.1742
| 39> H 	 -46.8338 	 25.9149 	 85.457
| 40> H 	 -39.993 	 22.6852 	 88.7543
| 41> *
| 42>
| 43>                          ****END OF INPUT****

CARTESIAN COORDINATES (ANGSTROEM)
---------------------------------
  S    -45.039800   25.547300   87.240600
  C    -45.802300   25.616900   85.591300
  C    -44.827300   25.551300   84.563200
  C    -43.507300   25.338300   85.060000
  C    -43.425400   25.297000   86.459400
  H    -42.621900   25.087600   84.484900
  C    -45.119000   25.680200   83.097200
  H    -44.429900   26.380900   82.550600
  H    -46.081000   26.187500   82.982500
  C    -45.130900   24.333000   82.458400
  H    -45.603900   24.471800   81.529400
  H    -44.155800   23.879200   82.379700
  C    -46.043000   23.299900   83.187800
  H    -45.566100   22.859900   84.095800
  H    -47.019000   23.606500   83.398400
  H    -46.079700   22.493700   82.494000
  S    -42.257400   23.307800   87.930600
  C    -40.561100   23.477200   88.338600
  C    -40.037000   24.736400   88.024900
  C    -41.019500   25.561100   87.340400
  C    -42.287900   24.919300   87.188700
  H    -38.928800   24.899200   88.123700
  C    -40.696500   26.946000   86.817500
  H    -40.207800   27.545900   87.551600
  H    -41.644000   27.426200   86.639100
  C    -39.681400   26.995000   85.589400
  H    -38.720300   26.458000   85.742800
  H    -39.311000   28.009400   85.301600
  C    -40.243200   26.488400   84.303600
  H    -40.232500   25.384500   84.315600
  H    -39.684000   26.790200   83.434400
  H    -41.329200   26.742800   84.174200
  H    -46.833800   25.914900   85.457000
  H    -39.993000   22.685200   88.754300

 Total Charge           Charge          ....    0
 Multiplicity           Mult            ....    1
 Number of Electrons    NEL             ....  134
 Basis Dimension        Dim             ....  322

ORBITAL ENERGIES
----------------

  NO   OCC          E(Eh)            E(eV)
   0   2.0000     -88.967900     -2420.9396
   1   2.0000     -88.966588     -2420.9039
   2   2.0000     -10.331350      -281.1303
   3   2.0000     -10.326659      -281.0027
   4   2.0000     -10.322331      -280.8849
   5   2.0000     -10.319135      -280.7979
   6   2.0000     -10.312912      -280.6286
   7   2.0000     -10.305591      -280.4294
   8   2.0000     -10.302841      -280.3546
   9   2.0000     -10.297573      -280.2112
  10   2.0000     -10.292366      -280.0695
  11   2.0000     -10.291799      -280.0541
  12   2.0000     -10.291631      -280.0495
  13   2.0000     -10.279834      -279.7285
  14   2.0000     -10.273502      -279.5562
  15   2.0000     -10.267414      -279.3905
  16   2.0000      -8.080929      -219.8933
  17   2.0000      -8.080539      -219.8826
  18   2.0000      -6.039429      -164.3412
  19   2.0000      -6.039133      -164.3332
  20   2.0000      -6.035469      -164.2335
  21   2.0000      -6.035460      -164.2332
  22   2.0000      -6.031741      -164.1320
  23   2.0000      -6.031209      -164.1176
  24   2.0000      -0.996894       -27.1269
  25   2.0000      -0.970417       -26.4064
  26   2.0000      -0.916873       -24.9494
  27   2.0000      -0.904220       -24.6051
  28   2.0000      -0.867377       -23.6025
  29   2.0000      -0.849429       -23.1141
  30   2.0000      -0.841591       -22.9009
  31   2.0000      -0.810064       -22.0430
  32   2.0000      -0.784878       -21.3576
  33   2.0000      -0.769323       -20.9344
  34   2.0000      -0.710448       -19.3323
  35   2.0000      -0.694332       -18.8937
  36   2.0000      -0.693661       -18.8755
  37   2.0000      -0.652318       -17.7505
  38   2.0000      -0.640949       -17.4411
  39   2.0000      -0.619151       -16.8480
  40   2.0000      -0.593398       -16.1472
  41   2.0000      -0.565886       -15.3985
  42   2.0000      -0.554743       -15.0953
  43   2.0000      -0.550695       -14.9852
  44   2.0000      -0.542712       -14.7680
  45   2.0000      -0.539039       -14.6680
  46   2.0000      -0.520403       -14.1609
  47   2.0000      -0.519150       -14.1268
  48   2.0000      -0.498745       -13.5715
  49   2.0000      -0.493442       -13.4272
  50   2.0000      -0.492105       -13.3908
  51   2.0000      -0.473693       -12.8898
  52   2.0000      -0.464540       -12.6408
  53   2.0000      -0.460789       -12.5387
  54   2.0000      -0.452910       -12.3243
  55   2.0000      -0.444172       -12.0865
  56   2.0000      -0.442206       -12.0330
  57   2.0000      -0.436926       -11.8894
  58   2.0000      -0.431946       -11.7538
  59   2.0000      -0.427020       -11.6198
  60   2.0000      -0.418683       -11.3929
  61   2.0000      -0.414371       -11.2756
  62   2.0000      -0.407629       -11.0921
  63   2.0000      -0.340421        -9.2633
  64   2.0000      -0.327324        -8.9069
  65   2.0000      -0.324859        -8.8399
  66   2.0000      -0.293862        -7.9964
  67   0.0000       0.028238         0.7684
  68   0.0000       0.050725         1.3803
  69   0.0000       0.103390         2.8134
  70   0.0000       0.118161         3.2153
  71   0.0000       0.122802         3.3416

MULLIKEN ATOMIC CHARGES
-----------------------
   0 S :    0.095867
   1 C :   -0.122931
   2 C :   -0.097169
   3 C :    0.053772
   4 C :   -0.190917
   5 H :    0.018027
   6 C :    0.066774
   7 H :    0.040273
   8 H :    0.013650
   9 C :   -0.057450
  10 H :    0.019377
  11 H :    0.035284
  12 C :   -0.037316
  13 H :    0.047982
  14 H :    0.015644
  15 H :    0.016890
  16 S :    0.116116
  17 C :   -0.096664
  18 C :   -0.042451
  19 C :   -0.035705
  20 C :   -0.161973
  21 H :    0.047578
  22 C :    0.101678
  23 H :    0.024617
  24 H :    0.033306
  25 C :   -0.094105
  26 H :    0.029873
  27 H :    0.029239
  28 C :   -0.076210
  29 H :    0.036990
  30 H :    0.030294
  31 H :    0.034806
  32 H :    0.054773
  33 H :    0.050084
Sum of atomic charges:    0.0000000

LOEWDIN ATOMIC CHARGES
----------------------
   0 S :    0.355994
   1 C :   -0.178047
   2 C :   -0.054371
   3 C :   -0.050255
   4 C :   -0.183018
   5 H :    0.034429
   6 C :   -0.039268
   7 H :    0.036882
   8 H :    0.029011
   9 C :   -0.032479
  10 H :    0.020442
  11 H :    0.025249
  12 C :   -0.058364
  13 H :    0.032601
  14 H :    0.012827
  15 H :    0.021367
  16 S :    0.402173
  17 C :   -0.176092
  18 C :   -0.079291
  19 C :   -0.044666
  20 C :   -0.207171
  21 H :    0.043669
  22 C :   -0.025402
  23 H :    0.031353
  24 H :    0.032331
  25 C :   -0.046941
  26 H :    0.026419
  27 H :    0.027369
  28 C :   -0.075092
  29 H :    0.022248
  30 H :    0.023047
  31 H :    0.026344
  32 H :    0.025252
  33 H :    0.021452

  Mayer bond orders larger than 0.100000
B(  0-S ,  1-C ) :   1.1232 B(  0-S ,  4-C ) :   1.1259 B(  1-C ,  2-C ) :   1.6074
B(  1-C ,  4-C ) :   0.1051 B(  1-C , 32-H ) :   0.9652 B(  2-C ,  3-C ) :   1.2275
B(  2-C ,  6-C ) :   1.0334 B(  3-C ,  4-C ) :   1.5842 B(  3-C ,  5-H ) :   0.9770
B(  4-C , 20-C ) :   1.0786 B(  6-C ,  7-H ) :   0.9434 B(  6-C ,  8-H ) :   0.9343
B(  6-C ,  9-C ) :   1.0762 B(  9-C , 10-H ) :   0.9537 B(  9-C , 11-H ) :   0.9568
B(  9-C , 12-C ) :   1.0836 B( 12-C , 13-H ) :   0.9697 B( 12-C , 14-H ) :   0.9774
B( 12-C , 15-H ) :   0.9727 B( 16-S , 17-C ) :   1.1645 B( 16-S , 20-C ) :   1.1291
B( 17-C , 18-C ) :   1.6124 B( 17-C , 33-H ) :   0.9700 B( 18-C , 19-C ) :   1.2290
B( 18-C , 21-H ) :   0.9796 B( 19-C , 20-C ) :   1.5715 B( 19-C , 22-C ) :   1.0548
B( 22-C , 23-H ) :   0.9340 B( 22-C , 24-H ) :   0.9377 B( 22-C , 25-C ) :   1.0490
B( 25-C , 26-H ) :   0.9583 B( 25-C , 27-H ) :   0.9610 B( 25-C , 28-C ) :   1.0789
B( 28-C , 29-H ) :   0.9708 B( 28-C , 30-H ) :   0.9692 B( 28-C , 31-H ) :   0.9675

Dispersion correction           -0.015943001
FINAL SINGLE POINT ENERGY     -1339.869034652384

DIPOLE MOMENT
-------------
                                X             Y             Z
Electronic contribution:     -4.39753      -4.89311      22.86943
Nuclear contribution   :      4.75002       5.01674     -23.50203
                        -----------------------------------------
Total Dipole Moment    :      0.35248       0.12363      -0.63260
                        -----------------------------------------
Magnitude (a.u.)       :      0.73465
Magnitude (Debye)      :      1.86733

Rotational constants in cm-1:     0.019092     0.009408     0.007866
Rotational constants in MHz :   572.372478   282.055526   235.824315

                             ****ORCA TERMINATED NORMALLY****
TOTAL RUN TIME: 0 days 0 hours 0 minutes 30 seconds 185 msec
