                         Program Version 4.2.1 -  RELEASE  -
|  1> ! wB97X-D3 SP def2-SVP
|  2> %pal
|  3> nprocs 16
|  4> end
|  5>
|  6> * xyz 0 1
|  7> S 	 34.532 	 2.68643 	 88.4048
|  8> C 	 33.4586 	 2.26072 	 87.1946
|  9> C 	 34.0851 	 2.0068 	 85.9692
| 10> C 	 35.4703 	 2.25157 	 86.1068
| 11> C 	 35.8829 	 2.47996 	 87.4024
| 12> H 	 36.2534 	 2.0308 	 85.342
| 13> C 	 33.2313 	 1.54852 	 84.7683
| 14> H 	 32.3284 	 1.15874 	 85.2014
| 15> H 	 33.7004 	 0.727926 	 84.1938
| 16> C 	 33.0133 	 2.68473 	 83.8082
| 17> H 	 33.9247 	 2.83946 	 83.2256
| 18> H 	 32.2112 	 2.43982 	 83.1167
| 19> C 	 32.5411 	 4.05972 	 84.3101
| 20> H 	 32.0743 	 4.80736 	 83.6314
| 21> H 	 31.7818 	 3.87897 	 85.1372
| 22> H 	 33.4326 	 4.48383 	 84.7251
| 23> S 	 38.2886 	 1.39385 	 88.2789
| 24> C 	 39.6637 	 2.4079 	 88.516
| 25> C 	 39.4161 	 3.65184 	 87.9613
| 26> C 	 38.0699 	 3.785 	 87.5136
| 27> C 	 37.2709 	 2.68818 	 87.765
| 28> H 	 40.2552 	 4.24414 	 87.9006
| 29> C 	 37.6131 	 5.06381 	 86.8906
| 30> H 	 36.6084 	 4.98464 	 86.5281
| 31> H 	 38.3507 	 5.32678 	 86.0323
| 32> C 	 37.43 	 6.19226 	 87.8703
| 33> H 	 38.4048 	 6.39293 	 88.3536
| 34> H 	 36.786 	 5.96477 	 88.7427
| 35> C 	 36.9323 	 7.4374 	 87.0746
| 36> H 	 37.1138 	 8.31498 	 87.7725
| 37> H 	 35.9405 	 7.35908 	 86.8059
| 38> H 	 37.4833 	 7.6381 	 86.1581
| 39> H 	 32.4092 	 2.04712 	 87.1959
| 40> H 	 40.6465 	 2.23541 	 88.9067
| 41> *
| 42>
| 43>                          ****END OF INPUT****

CARTESIAN COORDINATES (ANGSTROEM)
---------------------------------
  S     34.532000    2.686430   88.404800
  C     33.458600    2.260720   87.194600
  C     34.085100    2.006800   85.969200
  C     35.470300    2.251570   86.106800
  C     35.882900    2.479960   87.402400
  H     36.253400    2.030800   85.342000
  C     33.231300    1.548520   84.768300
  H     32.328400    1.158740   85.201400
  H     33.700400    0.727926   84.193800
  C     33.013300    2.684730   83.808200
  H     33.924700    2.839460   83.225600
  H     32.211200    2.439820   83.116700
  C     32.541100    4.059720   84.310100
  H     32.074300    4.807360   83.631400
  H     31.781800    3.878970   85.137200
  H     33.432600    4.483830   84.725100
  S     38.288600    1.393850   88.278900
  C     39.663700    2.407900   88.516000
  C     39.416100    3.651840   87.961300
  C     38.069900    3.785000   87.513600
  C     37.270900    2.688180   87.765000
  H     40.255200    4.244140   87.900600
  C     37.613100    5.063810   86.890600
  H     36.608400    4.984640   86.528100
  H     38.350700    5.326780   86.032300
  C     37.430000    6.192260   87.870300
  H     38.404800    6.392930   88.353600
  H     36.786000    5.964770   88.742700
  C     36.932300    7.437400   87.074600
  H     37.113800    8.314980   87.772500
  H     35.940500    7.359080   86.805900
  H     37.483300    7.638100   86.158100
  H     32.409200    2.047120   87.195900
  H     40.646500    2.235410   88.906700

 Total Charge           Charge          ....    0
 Multiplicity           Mult            ....    1
 Number of Electrons    NEL             ....  134
 Basis Dimension        Dim             ....  322

ORBITAL ENERGIES
----------------

  NO   OCC          E(Eh)            E(eV)
   0   2.0000     -88.970923     -2421.0219
   1   2.0000     -88.963070     -2420.8082
   2   2.0000     -10.321459      -280.8612
   3   2.0000     -10.319433      -280.8061
   4   2.0000     -10.312616      -280.6206
   5   2.0000     -10.306674      -280.4589
   6   2.0000     -10.299235      -280.2564
   7   2.0000     -10.297691      -280.2144
   8   2.0000     -10.297526      -280.2099
   9   2.0000     -10.294541      -280.1287
  10   2.0000     -10.285803      -279.8909
  11   2.0000     -10.283977      -279.8412
  12   2.0000     -10.283914      -279.8395
  13   2.0000     -10.283696      -279.8336
  14   2.0000     -10.278732      -279.6985
  15   2.0000     -10.273965      -279.5688
  16   2.0000      -8.087430      -220.0702
  17   2.0000      -8.078461      -219.8261
  18   2.0000      -6.045652      -164.5106
  19   2.0000      -6.041525      -164.3982
  20   2.0000      -6.038545      -164.3172
  21   2.0000      -6.036975      -164.2744
  22   2.0000      -6.032806      -164.1610
  23   2.0000      -6.029232      -164.0637
  24   2.0000      -1.019037       -27.7294
  25   2.0000      -0.995510       -27.0892
  26   2.0000      -0.916847       -24.9487
  27   2.0000      -0.910815       -24.7845
  28   2.0000      -0.874239       -23.7892
  29   2.0000      -0.849716       -23.1220
  30   2.0000      -0.845656       -23.0115
  31   2.0000      -0.818384       -22.2694
  32   2.0000      -0.786627       -21.4052
  33   2.0000      -0.768788       -20.9198
  34   2.0000      -0.711415       -19.3586
  35   2.0000      -0.693960       -18.8836
  36   2.0000      -0.687037       -18.6952
  37   2.0000      -0.658923       -17.9302
  38   2.0000      -0.641428       -17.4542
  39   2.0000      -0.623611       -16.9693
  40   2.0000      -0.596449       -16.2302
  41   2.0000      -0.578270       -15.7355
  42   2.0000      -0.562770       -15.3138
  43   2.0000      -0.558337       -15.1931
  44   2.0000      -0.547766       -14.9055
  45   2.0000      -0.522745       -14.2246
  46   2.0000      -0.517379       -14.0786
  47   2.0000      -0.514463       -13.9993
  48   2.0000      -0.504341       -13.7238
  49   2.0000      -0.497537       -13.5387
  50   2.0000      -0.484583       -13.1862
  51   2.0000      -0.479049       -13.0356
  52   2.0000      -0.475359       -12.9352
  53   2.0000      -0.467927       -12.7329
  54   2.0000      -0.464417       -12.6374
  55   2.0000      -0.451319       -12.2810
  56   2.0000      -0.443158       -12.0589
  57   2.0000      -0.439046       -11.9470
  58   2.0000      -0.432380       -11.7657
  59   2.0000      -0.422851       -11.5064
  60   2.0000      -0.416519       -11.3341
  61   2.0000      -0.405070       -11.0225
  62   2.0000      -0.401432       -10.9235
  63   2.0000      -0.338355        -9.2071
  64   2.0000      -0.327939        -8.9237
  65   2.0000      -0.319253        -8.6873
  66   2.0000      -0.312755        -8.5105
  67   0.0000       0.045008         1.2247
  68   0.0000       0.060543         1.6474
  69   0.0000       0.111999         3.0477
  70   0.0000       0.125949         3.4272
  71   0.0000       0.136300         3.7089

MULLIKEN ATOMIC CHARGES
-----------------------
   0 S :    0.160262
   1 C :   -0.094564
   2 C :   -0.141525
   3 C :    0.026922
   4 C :   -0.206955
   5 H :    0.029051
   6 C :    0.126621
   7 H :    0.010095
   8 H :    0.039642
   9 C :   -0.097013
  10 H :    0.032937
  11 H :    0.028033
  12 C :   -0.070462
  13 H :    0.048322
  14 H :    0.025818
  15 H :    0.033778
  16 S :    0.119609
  17 C :   -0.081967
  18 C :   -0.025966
  19 C :   -0.005209
  20 C :   -0.161555
  21 H :   -0.012339
  22 C :    0.055465
  23 H :    0.012447
  24 H :    0.047172
  25 C :   -0.096706
  26 H :    0.018628
  27 H :    0.037983
  28 C :   -0.024531
  29 H :    0.039556
  30 H :    0.023429
  31 H :    0.024172
  32 H :    0.033612
  33 H :    0.045238
Sum of atomic charges:    0.0000000

LOEWDIN ATOMIC CHARGES
----------------------
   0 S :    0.475672
   1 C :   -0.225271
   2 C :   -0.063811
   3 C :   -0.064126
   4 C :   -0.228735
   5 H :    0.038481
   6 C :   -0.022142
   7 H :    0.025811
   8 H :    0.039245
   9 C :   -0.048818
  10 H :    0.024180
  11 H :    0.023732
  12 C :   -0.073308
  13 H :    0.031462
  14 H :    0.027503
  15 H :    0.020291
  16 S :    0.428666
  17 C :   -0.189069
  18 C :   -0.067619
  19 C :   -0.052409
  20 C :   -0.219883
  21 H :    0.018584
  22 C :   -0.040688
  23 H :    0.024558
  24 H :    0.042974
  25 C :   -0.040898
  26 H :    0.017672
  27 H :    0.029699
  28 C :   -0.059973
  29 H :    0.034738
  30 H :    0.013120
  31 H :    0.024022
  32 H :    0.025394
  33 H :    0.030946

  Mayer bond orders larger than 0.100000
B(  0-S ,  1-C ) :   1.1822 B(  0-S ,  4-C ) :   1.1783 B(  1-C ,  2-C ) :   1.5647
B(  1-C ,  4-C ) :   0.1003 B(  1-C , 32-H ) :   0.9604 B(  2-C ,  3-C ) :   1.2880
B(  2-C ,  6-C ) :   1.0188 B(  3-C ,  4-C ) :   1.5516 B(  3-C ,  5-H ) :   0.9888
B(  4-C , 20-C ) :   1.0144 B(  6-C ,  7-H ) :   0.9327 B(  6-C ,  8-H ) :   0.9421
B(  6-C ,  9-C ) :   1.0747 B(  9-C , 10-H ) :   0.9605 B(  9-C , 11-H ) :   0.9572
B(  9-C , 12-C ) :   1.0649 B( 12-C , 13-H ) :   0.9772 B( 12-C , 14-H ) :   0.9739
B( 12-C , 15-H ) :   0.9726 B( 16-S , 17-C ) :   1.1718 B( 16-S , 20-C ) :   1.1417
B( 17-C , 18-C ) :   1.6028 B( 17-C , 33-H ) :   0.9681 B( 18-C , 19-C ) :   1.2291
B( 18-C , 21-H ) :   1.0088 B( 19-C , 20-C ) :   1.5855 B( 19-C , 22-C ) :   1.0570
B( 22-C , 23-H ) :   0.9267 B( 22-C , 24-H ) :   0.9330 B( 22-C , 25-C ) :   1.0674
B( 25-C , 26-H ) :   0.9572 B( 25-C , 27-H ) :   0.9514 B( 25-C , 28-C ) :   1.0731
B( 28-C , 29-H ) :   0.9751 B( 28-C , 30-H ) :   0.9769 B( 28-C , 31-H ) :   0.9731

Dispersion correction           -0.014918578
FINAL SINGLE POINT ENERGY     -1339.860196321298

DIPOLE MOMENT
-------------
                                X             Y             Z
Electronic contribution:      9.05505     -18.61168      16.28994
Nuclear contribution   :     -9.07533      18.84119     -16.76969
                        -----------------------------------------
Total Dipole Moment    :     -0.02028       0.22951      -0.47976
                        -----------------------------------------
Magnitude (a.u.)       :      0.53222
Magnitude (Debye)      :      1.35278

Rotational constants in cm-1:     0.018545     0.009175     0.007310
Rotational constants in MHz :   555.960415   275.069457   219.150049

                             ****ORCA TERMINATED NORMALLY****
TOTAL RUN TIME: 0 days 0 hours 0 minutes 31 seconds 146 msec
