                         Program Version 4.2.1 -  RELEASE  -
|  1> ! wB97X-D3 SP def2-SVP
|  2> %pal
|  3> nprocs 16
|  4> end
|  5>
|  6> * xyz 0 1
|  7> S 	 -74.1609 	 50.5336 	 140.041
|  8> C 	 -72.6304 	 51.3384 	 139.637
|  9> C 	 -72.811 	 52.1928 	 138.585
| 10> C 	 -74.1579 	 52.3374 	 138.21
| 11> C 	 -75.013 	 51.4825 	 138.956
| 12> H 	 -74.4839 	 53.0459 	 137.502
| 13> C 	 -71.7925 	 53.1243 	 137.949
| 14> H 	 -70.8592 	 52.8573 	 138.471
| 15> H 	 -72.0565 	 54.1415 	 138.146
| 16> C 	 -71.659 	 52.9615 	 136.423
| 17> H 	 -71.663 	 51.8995 	 136.166
| 18> H 	 -72.5402 	 53.4038 	 135.984
| 19> C 	 -70.4737 	 53.6888 	 135.718
| 20> H 	 -69.5962 	 53.5001 	 136.424
| 21> H 	 -70.2676 	 53.2616 	 134.793
| 22> H 	 -70.7699 	 54.7121 	 135.598
| 23> S 	 -77.2312 	 50.3486 	 137.614
| 24> C 	 -78.8368 	 50.5509 	 138.271
| 25> C 	 -78.832 	 51.4469 	 139.282
| 26> C 	 -77.5413 	 51.7633 	 139.737
| 27> C 	 -76.4503 	 51.2872 	 138.922
| 28> H 	 -79.7362 	 51.5661 	 139.794
| 29> C 	 -77.2688 	 52.5729 	 140.94
| 30> H 	 -78.1162 	 53.3025 	 140.931
| 31> H 	 -76.3164 	 53.0993 	 140.833
| 32> C 	 -77.0994 	 51.7 	 142.164
| 33> H 	 -76.9157 	 52.2654 	 143.11
| 34> H 	 -76.2463 	 51.0476 	 142.029
| 35> C 	 -78.4045 	 50.9921 	 142.543
| 36> H 	 -78.3736 	 50.4955 	 143.569
| 37> H 	 -78.6222 	 50.2 	 141.757
| 38> H 	 -79.1849 	 51.7191 	 142.647
| 39> H 	 -71.7126 	 51.3214 	 140.16
| 40> H 	 -79.6575 	 49.9532 	 137.852
| 41> *
| 42>
| 43>                          ****END OF INPUT****

CARTESIAN COORDINATES (ANGSTROEM)
---------------------------------
  S    -74.160900   50.533600  140.041000
  C    -72.630400   51.338400  139.637000
  C    -72.811000   52.192800  138.585000
  C    -74.157900   52.337400  138.210000
  C    -75.013000   51.482500  138.956000
  H    -74.483900   53.045900  137.502000
  C    -71.792500   53.124300  137.949000
  H    -70.859200   52.857300  138.471000
  H    -72.056500   54.141500  138.146000
  C    -71.659000   52.961500  136.423000
  H    -71.663000   51.899500  136.166000
  H    -72.540200   53.403800  135.984000
  C    -70.473700   53.688800  135.718000
  H    -69.596200   53.500100  136.424000
  H    -70.267600   53.261600  134.793000
  H    -70.769900   54.712100  135.598000
  S    -77.231200   50.348600  137.614000
  C    -78.836800   50.550900  138.271000
  C    -78.832000   51.446900  139.282000
  C    -77.541300   51.763300  139.737000
  C    -76.450300   51.287200  138.922000
  H    -79.736200   51.566100  139.794000
  C    -77.268800   52.572900  140.940000
  H    -78.116200   53.302500  140.931000
  H    -76.316400   53.099300  140.833000
  C    -77.099400   51.700000  142.164000
  H    -76.915700   52.265400  143.110000
  H    -76.246300   51.047600  142.029000
  C    -78.404500   50.992100  142.543000
  H    -78.373600   50.495500  143.569000
  H    -78.622200   50.200000  141.757000
  H    -79.184900   51.719100  142.647000
  H    -71.712600   51.321400  140.160000
  H    -79.657500   49.953200  137.852000

 Total Charge           Charge          ....    0
 Multiplicity           Mult            ....    1
 Number of Electrons    NEL             ....  134
 Basis Dimension        Dim             ....  322

ORBITAL ENERGIES
----------------

  NO   OCC          E(Eh)            E(eV)
   0   2.0000     -88.970612     -2421.0134
   1   2.0000     -88.959511     -2420.7114
   2   2.0000     -10.330111      -281.0966
   3   2.0000     -10.328903      -281.0638
   4   2.0000     -10.318806      -280.7890
   5   2.0000     -10.311108      -280.5795
   6   2.0000     -10.304393      -280.3968
   7   2.0000     -10.296675      -280.1868
   8   2.0000     -10.292857      -280.0829
   9   2.0000     -10.291861      -280.0558
  10   2.0000     -10.286870      -279.9200
  11   2.0000     -10.285318      -279.8777
  12   2.0000     -10.285109      -279.8720
  13   2.0000     -10.281447      -279.7724
  14   2.0000     -10.279483      -279.7189
  15   2.0000     -10.278714      -279.6980
  16   2.0000      -8.085757      -220.0246
  17   2.0000      -8.074004      -219.7048
  18   2.0000      -6.044139      -164.4694
  19   2.0000      -6.039997      -164.3567
  20   2.0000      -6.036806      -164.2698
  21   2.0000      -6.032403      -164.1500
  22   2.0000      -6.028353      -164.0398
  23   2.0000      -6.025090      -163.9510
  24   2.0000      -1.010458       -27.4960
  25   2.0000      -0.987359       -26.8674
  26   2.0000      -0.915590       -24.9145
  27   2.0000      -0.912451       -24.8291
  28   2.0000      -0.873029       -23.7563
  29   2.0000      -0.849237       -23.1089
  30   2.0000      -0.841615       -22.9015
  31   2.0000      -0.815074       -22.1793
  32   2.0000      -0.788069       -21.4445
  33   2.0000      -0.768215       -20.9042
  34   2.0000      -0.713425       -19.4133
  35   2.0000      -0.693602       -18.8739
  36   2.0000      -0.686520       -18.6811
  37   2.0000      -0.658947       -17.9309
  38   2.0000      -0.641552       -17.4575
  39   2.0000      -0.622933       -16.9509
  40   2.0000      -0.594118       -16.1668
  41   2.0000      -0.580499       -15.7962
  42   2.0000      -0.569968       -15.5096
  43   2.0000      -0.556416       -15.1409
  44   2.0000      -0.544056       -14.8045
  45   2.0000      -0.525175       -14.2907
  46   2.0000      -0.520165       -14.1544
  47   2.0000      -0.515148       -14.0179
  48   2.0000      -0.506402       -13.7799
  49   2.0000      -0.499431       -13.5902
  50   2.0000      -0.489753       -13.3269
  51   2.0000      -0.483390       -13.1537
  52   2.0000      -0.471117       -12.8198
  53   2.0000      -0.467216       -12.7136
  54   2.0000      -0.457386       -12.4461
  55   2.0000      -0.451269       -12.2797
  56   2.0000      -0.442511       -12.0413
  57   2.0000      -0.433509       -11.7964
  58   2.0000      -0.430021       -11.7015
  59   2.0000      -0.426734       -11.6120
  60   2.0000      -0.414249       -11.2723
  61   2.0000      -0.412716       -11.2306
  62   2.0000      -0.400470       -10.8973
  63   2.0000      -0.339058        -9.2262
  64   2.0000      -0.331415        -9.0183
  65   2.0000      -0.319627        -8.6975
  66   2.0000      -0.304047        -8.2735
  67   0.0000       0.036637         0.9969
  68   0.0000       0.051885         1.4119
  69   0.0000       0.115759         3.1500
  70   0.0000       0.120163         3.2698
  71   0.0000       0.126395         3.4394

MULLIKEN ATOMIC CHARGES
-----------------------
   0 S :    0.138018
   1 C :   -0.116952
   2 C :   -0.091741
   3 C :    0.063046
   4 C :   -0.189053
   5 H :   -0.003977
   6 C :    0.096343
   7 H :    0.009733
   8 H :    0.031875
   9 C :   -0.125907
  10 H :    0.036242
  11 H :    0.023339
  12 C :   -0.016221
  13 H :    0.037219
  14 H :    0.027561
  15 H :    0.034760
  16 S :    0.094376
  17 C :   -0.118074
  18 C :    0.014205
  19 C :   -0.058223
  20 C :   -0.154453
  21 H :    0.007230
  22 C :    0.069096
  23 H :    0.032788
  24 H :    0.034627
  25 C :   -0.053792
  26 H :    0.030215
  27 H :    0.024634
  28 C :   -0.097164
  29 H :    0.039960
  30 H :    0.056097
  31 H :    0.023015
  32 H :    0.027581
  33 H :    0.073595
Sum of atomic charges:   -0.0000000

LOEWDIN ATOMIC CHARGES
----------------------
   0 S :    0.455974
   1 C :   -0.195859
   2 C :   -0.061524
   3 C :   -0.052500
   4 C :   -0.219606
   5 H :    0.024423
   6 C :   -0.025610
   7 H :    0.026176
   8 H :    0.028877
   9 C :   -0.042245
  10 H :    0.024620
  11 H :    0.018423
  12 C :   -0.055645
  13 H :    0.033614
  14 H :    0.018480
  15 H :    0.023954
  16 S :    0.390018
  17 C :   -0.171723
  18 C :   -0.079840
  19 C :   -0.045746
  20 C :   -0.211657
  21 H :    0.026980
  22 C :   -0.038486
  23 H :    0.035059
  24 H :    0.034711
  25 C :   -0.043035
  26 H :    0.027775
  27 H :    0.013924
  28 C :   -0.075372
  29 H :    0.030969
  30 H :    0.030615
  31 H :    0.017186
  32 H :    0.021679
  33 H :    0.035394

  Mayer bond orders larger than 0.100000
B(  0-S ,  1-C ) :   1.1369 B(  0-S ,  4-C ) :   1.2091 B(  1-C ,  2-C ) :   1.6061
B(  1-C ,  4-C ) :   0.1044 B(  1-C , 32-H ) :   0.9691 B(  2-C ,  3-C ) :   1.2565
B(  2-C ,  6-C ) :   1.0245 B(  3-C ,  4-C ) :   1.5290 B(  3-C ,  5-H ) :   1.0110
B(  4-C , 20-C ) :   1.0150 B(  6-C ,  7-H ) :   0.9358 B(  6-C ,  8-H ) :   0.9419
B(  6-C ,  9-C ) :   1.0579 B(  9-C , 10-H ) :   0.9628 B(  9-C , 11-H ) :   0.9553
B(  9-C , 12-C ) :   1.0802 B( 12-C , 13-H ) :   0.9778 B( 12-C , 14-H ) :   0.9760
B( 12-C , 15-H ) :   0.9780 B( 16-S , 17-C ) :   1.1892 B( 16-S , 20-C ) :   1.1341
B( 17-C , 18-C ) :   1.5676 B( 17-C , 20-C ) :   0.1095 B( 17-C , 33-H ) :   0.9638
B( 18-C , 19-C ) :   1.2735 B( 18-C , 21-H ) :   0.9943 B( 19-C , 20-C ) :   1.5476
B( 19-C , 22-C ) :   1.0426 B( 22-C , 23-H ) :   0.9416 B( 22-C , 24-H ) :   0.9240
B( 22-C , 25-C ) :   1.0723 B( 25-C , 26-H ) :   0.9558 B( 25-C , 27-H ) :   0.9482
B( 25-C , 28-C ) :   1.0727 B( 28-C , 29-H ) :   0.9739 B( 28-C , 30-H ) :   0.9702
B( 28-C , 31-H ) :   0.9738

Dispersion correction           -0.014689505
FINAL SINGLE POINT ENERGY     -1339.864913039497

DIPOLE MOMENT
-------------
                                X             Y             Z
Electronic contribution:     -7.90135     -11.88912      -2.87752
Nuclear contribution   :      7.94606      12.30212       2.95215
                        -----------------------------------------
Total Dipole Moment    :      0.04471       0.41301       0.07463
                        -----------------------------------------
Magnitude (a.u.)       :      0.42207
Magnitude (Debye)      :      1.07281

Rotational constants in cm-1:     0.024937     0.007346     0.006383
Rotational constants in MHz :   747.601926   220.214448   191.364454

                             ****ORCA TERMINATED NORMALLY****
TOTAL RUN TIME: 0 days 0 hours 0 minutes 35 seconds 365 msec
