                         Program Version 4.2.1 -  RELEASE  -
|  1> ! wB97X-D3 SP def2-SVP
|  2> %pal
|  3> nprocs 16
|  4> end
|  5>
|  6> * xyz 0 1
|  7> S 	 -38.1199 	 51.6272 	 100.255
|  8> C 	 -36.7668 	 52.6719 	 99.8803
|  9> C 	 -35.6212 	 52.433 	 100.602
| 10> C 	 -35.8454 	 51.4066 	 101.499
| 11> C 	 -37.0671 	 50.8775 	 101.409
| 12> H 	 -35.2091 	 51.015 	 102.277
| 13> C 	 -34.339 	 53.1907 	 100.522
| 14> H 	 -33.9726 	 53.2286 	 99.4679
| 15> H 	 -33.6138 	 52.631 	 101.056
| 16> C 	 -34.379 	 54.5543 	 101.193
| 17> H 	 -34.41 	 54.4255 	 102.267
| 18> H 	 -33.5267 	 55.0913 	 100.881
| 19> C 	 -35.5201 	 55.4852 	 100.809
| 20> H 	 -35.7828 	 55.4988 	 99.7107
| 21> H 	 -36.4283 	 55.2481 	 101.375
| 22> H 	 -35.3966 	 56.4701 	 101.203
| 23> S 	 -37.7921 	 48.2336 	 101.336
| 24> C 	 -38.3766 	 47.5138 	 102.803
| 25> C 	 -38.2479 	 48.3675 	 103.865
| 26> C 	 -37.7144 	 49.6048 	 103.534
| 27> C 	 -37.525 	 49.7359 	 102.2
| 28> H 	 -38.6163 	 48.0388 	 104.836
| 29> C 	 -37.5298 	 50.7895 	 104.548
| 30> H 	 -38.4699 	 51.2204 	 104.89
| 31> H 	 -37.0803 	 51.6047 	 103.949
| 32> C 	 -36.6641 	 50.3916 	 105.812
| 33> H 	 -35.6326 	 50.2688 	 105.605
| 34> H 	 -37.0347 	 49.4045 	 106.114
| 35> C 	 -36.8156 	 51.4456 	 106.864
| 36> H 	 -37.8754 	 51.774 	 106.96
| 37> H 	 -36.2683 	 52.2966 	 106.41
| 38> H 	 -36.3391 	 51.227 	 107.827
| 39> H 	 -36.9343 	 53.5146 	 99.2203
| 40> H 	 -38.8231 	 46.6157 	 102.89
| 41> *
| 42>
| 43>                          ****END OF INPUT****

CARTESIAN COORDINATES (ANGSTROEM)
---------------------------------
  S    -38.119900   51.627200  100.255000
  C    -36.766800   52.671900   99.880300
  C    -35.621200   52.433000  100.602000
  C    -35.845400   51.406600  101.499000
  C    -37.067100   50.877500  101.409000
  H    -35.209100   51.015000  102.277000
  C    -34.339000   53.190700  100.522000
  H    -33.972600   53.228600   99.467900
  H    -33.613800   52.631000  101.056000
  C    -34.379000   54.554300  101.193000
  H    -34.410000   54.425500  102.267000
  H    -33.526700   55.091300  100.881000
  C    -35.520100   55.485200  100.809000
  H    -35.782800   55.498800   99.710700
  H    -36.428300   55.248100  101.375000
  H    -35.396600   56.470100  101.203000
  S    -37.792100   48.233600  101.336000
  C    -38.376600   47.513800  102.803000
  C    -38.247900   48.367500  103.865000
  C    -37.714400   49.604800  103.534000
  C    -37.525000   49.735900  102.200000
  H    -38.616300   48.038800  104.836000
  C    -37.529800   50.789500  104.548000
  H    -38.469900   51.220400  104.890000
  H    -37.080300   51.604700  103.949000
  C    -36.664100   50.391600  105.812000
  H    -35.632600   50.268800  105.605000
  H    -37.034700   49.404500  106.114000
  C    -36.815600   51.445600  106.864000
  H    -37.875400   51.774000  106.960000
  H    -36.268300   52.296600  106.410000
  H    -36.339100   51.227000  107.827000
  H    -36.934300   53.514600   99.220300
  H    -38.823100   46.615700  102.890000

 Total Charge           Charge          ....    0
 Multiplicity           Mult            ....    1
 Number of Electrons    NEL             ....  134
 Basis Dimension        Dim             ....  322

ORBITAL ENERGIES
----------------

  NO   OCC          E(Eh)            E(eV)
   0   2.0000     -88.966910     -2420.9127
   1   2.0000     -88.961237     -2420.7583
   2   2.0000     -10.315960      -280.7116
   3   2.0000     -10.315331      -280.6944
   4   2.0000     -10.309122      -280.5255
   5   2.0000     -10.302942      -280.3573
   6   2.0000     -10.295643      -280.1587
   7   2.0000     -10.294724      -280.1337
   8   2.0000     -10.293125      -280.0902
   9   2.0000     -10.289087      -279.9803
  10   2.0000     -10.285510      -279.8829
  11   2.0000     -10.283762      -279.8354
  12   2.0000     -10.282204      -279.7930
  13   2.0000     -10.282150      -279.7915
  14   2.0000     -10.280069      -279.7349
  15   2.0000     -10.276460      -279.6367
  16   2.0000      -8.082180      -219.9273
  17   2.0000      -8.076472      -219.7720
  18   2.0000      -6.040312      -164.3652
  19   2.0000      -6.036874      -164.2717
  20   2.0000      -6.034874      -164.2173
  21   2.0000      -6.033054      -164.1677
  22   2.0000      -6.030975      -164.1112
  23   2.0000      -6.027272      -164.0104
  24   2.0000      -1.015050       -27.6209
  25   2.0000      -0.991947       -26.9923
  26   2.0000      -0.918588       -24.9960
  27   2.0000      -0.905393       -24.6370
  28   2.0000      -0.868052       -23.6209
  29   2.0000      -0.858783       -23.3687
  30   2.0000      -0.851210       -23.1626
  31   2.0000      -0.813847       -22.1459
  32   2.0000      -0.787793       -21.4369
  33   2.0000      -0.770141       -20.9566
  34   2.0000      -0.704104       -19.1596
  35   2.0000      -0.700507       -19.0618
  36   2.0000      -0.696502       -18.9528
  37   2.0000      -0.659764       -17.9531
  38   2.0000      -0.647916       -17.6307
  39   2.0000      -0.619158       -16.8481
  40   2.0000      -0.597463       -16.2578
  41   2.0000      -0.572012       -15.5652
  42   2.0000      -0.564954       -15.3732
  43   2.0000      -0.562849       -15.3159
  44   2.0000      -0.538821       -14.6621
  45   2.0000      -0.527879       -14.3643
  46   2.0000      -0.524242       -14.2653
  47   2.0000      -0.512061       -13.9339
  48   2.0000      -0.507749       -13.8166
  49   2.0000      -0.491193       -13.3660
  50   2.0000      -0.480277       -13.0690
  51   2.0000      -0.473634       -12.8882
  52   2.0000      -0.472139       -12.8476
  53   2.0000      -0.461603       -12.5609
  54   2.0000      -0.457283       -12.4433
  55   2.0000      -0.451695       -12.2912
  56   2.0000      -0.448323       -12.1995
  57   2.0000      -0.442088       -12.0298
  58   2.0000      -0.441519       -12.0143
  59   2.0000      -0.426365       -11.6020
  60   2.0000      -0.418460       -11.3869
  61   2.0000      -0.415275       -11.3002
  62   2.0000      -0.414481       -11.2786
  63   2.0000      -0.342792        -9.3279
  64   2.0000      -0.332735        -9.0542
  65   2.0000      -0.329556        -8.9677
  66   2.0000      -0.297897        -8.1062
  67   0.0000       0.043274         1.1775
  68   0.0000       0.066756         1.8165
  69   0.0000       0.116080         3.1587
  70   0.0000       0.125551         3.4164
  71   0.0000       0.129541         3.5250

MULLIKEN ATOMIC CHARGES
-----------------------
   0 S :    0.130425
   1 C :   -0.139706
   2 C :   -0.062127
   3 C :    0.031669
   4 C :   -0.190644
   5 H :    0.008746
   6 C :    0.098207
   7 H :    0.040912
   8 H :    0.005406
   9 C :   -0.031451
  10 H :    0.025711
  11 H :    0.022644
  12 C :   -0.076091
  13 H :    0.041149
  14 H :    0.028728
  15 H :    0.022566
  16 S :    0.112521
  17 C :   -0.041911
  18 C :   -0.054869
  19 C :    0.019930
  20 C :   -0.196016
  21 H :    0.016905
  22 C :    0.048744
  23 H :    0.031051
  24 H :    0.025656
  25 C :   -0.062175
  26 H :    0.022562
  27 H :    0.022420
  28 C :   -0.047090
  29 H :    0.033908
  30 H :    0.024025
  31 H :    0.042816
  32 H :    0.040327
  33 H :    0.005051
Sum of atomic charges:    0.0000000

LOEWDIN ATOMIC CHARGES
----------------------
   0 S :    0.416091
   1 C :   -0.186261
   2 C :   -0.065072
   3 C :   -0.060215
   4 C :   -0.202172
   5 H :    0.035160
   6 C :   -0.028429
   7 H :    0.038628
   8 H :    0.027037
   9 C :   -0.033419
  10 H :    0.026538
  11 H :    0.021075
  12 C :   -0.074644
  13 H :    0.028077
  14 H :    0.026031
  15 H :    0.023360
  16 S :    0.406264
  17 C :   -0.170960
  18 C :   -0.070560
  19 C :   -0.064786
  20 C :   -0.195678
  21 H :    0.031682
  22 C :   -0.022535
  23 H :    0.028357
  24 H :    0.028804
  25 C :   -0.038136
  26 H :    0.019669
  27 H :    0.018394
  28 C :   -0.069185
  29 H :    0.026660
  30 H :    0.029446
  31 H :    0.026631
  32 H :    0.019152
  33 H :    0.004996

  Mayer bond orders larger than 0.100000
B(  0-S ,  1-C ) :   1.1458 B(  0-S ,  4-C ) :   1.1593 B(  1-C ,  2-C ) :   1.6047
B(  1-C , 32-H ) :   0.9675 B(  2-C ,  3-C ) :   1.2379 B(  2-C ,  6-C ) :   1.0215
B(  3-C ,  4-C ) :   1.6063 B(  3-C ,  5-H ) :   0.9984 B(  4-C , 20-C ) :   0.9881
B(  6-C ,  7-H ) :   0.9349 B(  6-C ,  8-H ) :   0.9317 B(  6-C ,  9-C ) :   1.0847
B(  9-C , 10-H ) :   0.9504 B(  9-C , 11-H ) :   0.9543 B(  9-C , 12-C ) :   1.0954
B( 12-C , 13-H ) :   0.9719 B( 12-C , 14-H ) :   0.9661 B( 12-C , 15-H ) :   0.9681
B( 16-S , 17-C ) :   1.1474 B( 16-S , 20-C ) :   1.1565 B( 17-C , 18-C ) :   1.6249
B( 17-C , 20-C ) :   0.1018 B( 17-C , 33-H ) :   0.9781 B( 18-C , 19-C ) :   1.2301
B( 18-C , 21-H ) :   0.9885 B( 19-C , 20-C ) :   1.6338 B( 19-C , 22-C ) :   1.0243
B( 22-C , 23-H ) :   0.9473 B( 22-C , 24-H ) :   0.9321 B( 22-C , 25-C ) :   1.0410
B( 25-C , 26-H ) :   0.9549 B( 25-C , 27-H ) :   0.9617 B( 25-C , 28-C ) :   1.0821
B( 28-C , 29-H ) :   0.9750 B( 28-C , 30-H ) :   0.9717 B( 28-C , 31-H ) :   0.9725

Dispersion correction           -0.014440635
FINAL SINGLE POINT ENERGY     -1339.874722923859

DIPOLE MOMENT
-------------
                                X             Y             Z
Electronic contribution:    -12.06052     -19.43906     -16.96050
Nuclear contribution   :     12.36054      19.84285      17.39956
                        -----------------------------------------
Total Dipole Moment    :      0.30003       0.40379       0.43906
                        -----------------------------------------
Magnitude (a.u.)       :      0.66771
Magnitude (Debye)      :      1.69719

Rotational constants in cm-1:     0.017863     0.009316     0.006824
Rotational constants in MHz :   535.508757   279.301353   204.579974

                             ****ORCA TERMINATED NORMALLY****
TOTAL RUN TIME: 0 days 0 hours 0 minutes 31 seconds 114 msec
