                         Program Version 4.2.1 -  RELEASE  -
|  1> ! wB97X-D3 SP def2-SVP
|  2> %pal
|  3> nprocs 16
|  4> end
|  5>
|  6> * xyz 0 1
|  7> S 	 -82.128 	 44.833 	 123.517
|  8> C 	 -82.3676 	 43.1267 	 123.474
|  9> C 	 -81.5703 	 42.4778 	 124.302
| 10> C 	 -80.7172 	 43.3724 	 125.066
| 11> C 	 -80.8724 	 44.6601 	 124.631
| 12> H 	 -80.0071 	 43.0883 	 125.806
| 13> C 	 -81.4614 	 40.9472 	 124.352
| 14> H 	 -82.1221 	 40.5688 	 123.574
| 15> H 	 -81.9517 	 40.7431 	 125.263
| 16> C 	 -80.0726 	 40.4199 	 124.081
| 17> H 	 -79.4068 	 40.6488 	 124.893
| 18> H 	 -80.1295 	 39.3302 	 124.146
| 19> C 	 -79.5436 	 40.5496 	 122.684
| 20> H 	 -80.1695 	 40.0394 	 121.945
| 21> H 	 -79.3081 	 41.5704 	 122.323
| 22> H 	 -78.6941 	 39.8983 	 122.605
| 23> S 	 -80.7949 	 47.3395 	 125.346
| 24> C 	 -79.3238 	 47.9533 	 126.115
| 25> C 	 -78.414 	 46.9972 	 126.204
| 26> C 	 -78.8084 	 45.7373 	 125.646
| 27> C 	 -80.1273 	 45.7703 	 125.187
| 28> H 	 -77.4821 	 47.2896 	 126.71
| 29> C 	 -77.7338 	 44.6435 	 125.482
| 30> H 	 -76.9539 	 45.2114 	 124.966
| 31> H 	 -77.9836 	 43.8427 	 124.745
| 32> C 	 -77.239 	 44.0968 	 126.806
| 33> H 	 -78.1131 	 44.0834 	 127.524
| 34> H 	 -76.478 	 44.7169 	 127.212
| 35> C 	 -76.569 	 42.6912 	 126.735
| 36> H 	 -75.9259 	 42.4325 	 127.595
| 37> H 	 -76.0455 	 42.5922 	 125.817
| 38> H 	 -77.3269 	 41.9426 	 126.68
| 39> H 	 -83.1318 	 42.7313 	 122.824
| 40> H 	 -79.2078 	 48.9048 	 126.524
| 41> *
| 42>
| 43>                          ****END OF INPUT****

CARTESIAN COORDINATES (ANGSTROEM)
---------------------------------
  S    -82.128000   44.833000  123.517000
  C    -82.367600   43.126700  123.474000
  C    -81.570300   42.477800  124.302000
  C    -80.717200   43.372400  125.066000
  C    -80.872400   44.660100  124.631000
  H    -80.007100   43.088300  125.806000
  C    -81.461400   40.947200  124.352000
  H    -82.122100   40.568800  123.574000
  H    -81.951700   40.743100  125.263000
  C    -80.072600   40.419900  124.081000
  H    -79.406800   40.648800  124.893000
  H    -80.129500   39.330200  124.146000
  C    -79.543600   40.549600  122.684000
  H    -80.169500   40.039400  121.945000
  H    -79.308100   41.570400  122.323000
  H    -78.694100   39.898300  122.605000
  S    -80.794900   47.339500  125.346000
  C    -79.323800   47.953300  126.115000
  C    -78.414000   46.997200  126.204000
  C    -78.808400   45.737300  125.646000
  C    -80.127300   45.770300  125.187000
  H    -77.482100   47.289600  126.710000
  C    -77.733800   44.643500  125.482000
  H    -76.953900   45.211400  124.966000
  H    -77.983600   43.842700  124.745000
  C    -77.239000   44.096800  126.806000
  H    -78.113100   44.083400  127.524000
  H    -76.478000   44.716900  127.212000
  C    -76.569000   42.691200  126.735000
  H    -75.925900   42.432500  127.595000
  H    -76.045500   42.592200  125.817000
  H    -77.326900   41.942600  126.680000
  H    -83.131800   42.731300  122.824000
  H    -79.207800   48.904800  126.524000

 Total Charge           Charge          ....    0
 Multiplicity           Mult            ....    1
 Number of Electrons    NEL             ....  134
 Basis Dimension        Dim             ....  322

ORBITAL ENERGIES
----------------

  NO   OCC          E(Eh)            E(eV)
   0   2.0000     -88.961345     -2420.7613
   1   2.0000     -88.959188     -2420.7026
   2   2.0000     -10.323202      -280.9086
   3   2.0000     -10.320839      -280.8443
   4   2.0000     -10.307170      -280.4724
   5   2.0000     -10.302028      -280.3324
   6   2.0000     -10.300806      -280.2992
   7   2.0000     -10.294191      -280.1192
   8   2.0000     -10.292131      -280.0631
   9   2.0000     -10.288214      -279.9565
  10   2.0000     -10.288194      -279.9560
  11   2.0000     -10.287547      -279.9384
  12   2.0000     -10.286644      -279.9138
  13   2.0000     -10.285458      -279.8815
  14   2.0000     -10.277795      -279.6730
  15   2.0000     -10.276991      -279.6511
  16   2.0000      -8.076806      -219.7811
  17   2.0000      -8.076262      -219.7663
  18   2.0000      -6.035381      -164.2311
  19   2.0000      -6.034615      -164.2102
  20   2.0000      -6.031286      -164.1196
  21   2.0000      -6.030577      -164.1003
  22   2.0000      -6.027383      -164.0134
  23   2.0000      -6.026924      -164.0009
  24   2.0000      -1.017071       -27.6759
  25   2.0000      -0.992587       -27.0097
  26   2.0000      -0.918654       -24.9979
  27   2.0000      -0.908159       -24.7123
  28   2.0000      -0.878964       -23.9178
  29   2.0000      -0.852785       -23.2055
  30   2.0000      -0.845812       -23.0157
  31   2.0000      -0.821225       -22.3467
  32   2.0000      -0.788191       -21.4478
  33   2.0000      -0.775280       -21.0964
  34   2.0000      -0.712931       -19.3998
  35   2.0000      -0.698719       -19.0131
  36   2.0000      -0.695196       -18.9172
  37   2.0000      -0.660556       -17.9746
  38   2.0000      -0.638964       -17.3871
  39   2.0000      -0.623271       -16.9601
  40   2.0000      -0.597765       -16.2660
  41   2.0000      -0.568149       -15.4601
  42   2.0000      -0.566340       -15.4109
  43   2.0000      -0.563492       -15.3334
  44   2.0000      -0.548329       -14.9208
  45   2.0000      -0.528871       -14.3913
  46   2.0000      -0.518382       -14.1059
  47   2.0000      -0.510691       -13.8966
  48   2.0000      -0.504358       -13.7243
  49   2.0000      -0.497547       -13.5389
  50   2.0000      -0.488471       -13.2920
  51   2.0000      -0.486854       -13.2480
  52   2.0000      -0.478229       -13.0133
  53   2.0000      -0.467766       -12.7285
  54   2.0000      -0.458214       -12.4686
  55   2.0000      -0.450974       -12.2716
  56   2.0000      -0.446868       -12.1599
  57   2.0000      -0.445389       -12.1196
  58   2.0000      -0.434370       -11.8198
  59   2.0000      -0.424518       -11.5517
  60   2.0000      -0.420537       -11.4434
  61   2.0000      -0.411141       -11.1877
  62   2.0000      -0.403711       -10.9855
  63   2.0000      -0.361738        -9.8434
  64   2.0000      -0.330881        -9.0037
  65   2.0000      -0.326964        -8.8971
  66   2.0000      -0.288798        -7.8586
  67   0.0000       0.033892         0.9222
  68   0.0000       0.097268         2.6468
  69   0.0000       0.110650         3.0110
  70   0.0000       0.119655         3.2560
  71   0.0000       0.133147         3.6231

MULLIKEN ATOMIC CHARGES
-----------------------
   0 S :    0.102633
   1 C :   -0.143090
   2 C :   -0.082645
   3 C :    0.005687
   4 C :   -0.119928
   5 H :   -0.007324
   6 C :    0.126480
   7 H :    0.001882
   8 H :    0.027001
   9 C :   -0.071668
  10 H :    0.025239
  11 H :    0.020049
  12 C :   -0.031013
  13 H :    0.019927
  14 H :    0.052545
  15 H :    0.020507
  16 S :    0.093309
  17 C :   -0.069116
  18 C :   -0.031080
  19 C :   -0.062026
  20 C :   -0.121329
  21 H :    0.025646
  22 C :    0.043105
  23 H :    0.034695
  24 H :    0.037172
  25 C :   -0.091351
  26 H :    0.047296
  27 H :    0.026904
  28 C :   -0.035162
  29 H :    0.042644
  30 H :    0.023694
  31 H :    0.017466
  32 H :    0.041050
  33 H :    0.030800
Sum of atomic charges:    0.0000000

LOEWDIN ATOMIC CHARGES
----------------------
   0 S :    0.423957
   1 C :   -0.203327
   2 C :   -0.062803
   3 C :   -0.060840
   4 C :   -0.200694
   5 H :    0.025417
   6 C :   -0.023701
   7 H :    0.027847
   8 H :    0.029085
   9 C :   -0.046506
  10 H :    0.020153
  11 H :    0.031488
  12 C :   -0.063687
  13 H :    0.028402
  14 H :    0.027777
  15 H :    0.027626
  16 S :    0.397806
  17 C :   -0.167078
  18 C :   -0.072246
  19 C :   -0.059635
  20 C :   -0.204197
  21 H :    0.038616
  22 C :   -0.038439
  23 H :    0.035621
  24 H :    0.031716
  25 C :   -0.044408
  26 H :    0.029674
  27 H :    0.019752
  28 C :   -0.062257
  29 H :    0.031220
  30 H :    0.020884
  31 H :    0.017493
  32 H :    0.025209
  33 H :    0.020074

  Mayer bond orders larger than 0.100000
B(  0-S ,  1-C ) :   1.1178 B(  0-S ,  4-C ) :   1.1631 B(  1-C ,  2-C ) :   1.6562
B(  1-C , 32-H ) :   0.9716 B(  2-C ,  3-C ) :   1.2032 B(  2-C ,  6-C ) :   1.0015
B(  3-C ,  4-C ) :   1.5681 B(  3-C ,  5-H ) :   1.0072 B(  4-C , 20-C ) :   1.0590
B(  6-C ,  7-H ) :   0.9384 B(  6-C ,  8-H ) :   0.9311 B(  6-C ,  9-C ) :   1.0849
B(  9-C , 10-H ) :   0.9540 B(  9-C , 11-H ) :   0.9475 B(  9-C , 12-C ) :   1.0791
B( 12-C , 13-H ) :   0.9661 B( 12-C , 14-H ) :   0.9750 B( 12-C , 15-H ) :   0.9688
B( 16-S , 17-C ) :   1.1231 B( 16-S , 20-C ) :   1.1384 B( 17-C , 18-C ) :   1.6657
B( 17-C , 33-H ) :   0.9735 B( 18-C , 19-C ) :   1.2122 B( 18-C , 21-H ) :   0.9862
B( 19-C , 20-C ) :   1.6005 B( 19-C , 22-C ) :   1.0293 B( 22-C , 23-H ) :   0.9306
B( 22-C , 24-H ) :   0.9490 B( 22-C , 25-C ) :   1.0409 B( 25-C , 26-H ) :   0.9672
B( 25-C , 27-H ) :   0.9518 B( 25-C , 28-C ) :   1.0802 B( 28-C , 29-H ) :   0.9758
B( 28-C , 30-H ) :   0.9716 B( 28-C , 31-H ) :   0.9772

Dispersion correction           -0.015094521
FINAL SINGLE POINT ENERGY     -1339.877611349257

DIPOLE MOMENT
-------------
                                X             Y             Z
Electronic contribution:    -18.69313      25.93034      -2.71246
Nuclear contribution   :     19.22916     -26.51455       2.86791
                        -----------------------------------------
Total Dipole Moment    :      0.53603      -0.58421       0.15545
                        -----------------------------------------
Magnitude (a.u.)       :      0.80796
Magnitude (Debye)      :      2.05366

Rotational constants in cm-1:     0.017258     0.010823     0.007076
Rotational constants in MHz :   517.394987   324.452864   212.145083

                             ****ORCA TERMINATED NORMALLY****
TOTAL RUN TIME: 0 days 0 hours 0 minutes 35 seconds 848 msec
