                         Program Version 4.2.1 -  RELEASE  -
|  1> ! wB97X-D3 SP def2-SVP
|  2> %pal
|  3> nprocs 16
|  4> end
|  5>
|  6> * xyz 0 1
|  7> S 	 -12.287 	 49.3499 	 36.7584
|  8> C 	 -10.6566 	 48.8288 	 36.4658
|  9> C 	 -9.7602 	 49.9013 	 36.401
| 10> C 	 -10.433 	 51.2055 	 36.558
| 11> C 	 -11.7802 	 50.9834 	 36.7516
| 12> H 	 -10.0428 	 52.2494 	 36.4723
| 13> C 	 -8.27649 	 49.9231 	 36.1116
| 14> H 	 -7.89492 	 50.699 	 36.7117
| 15> H 	 -8.11563 	 50.1983 	 35.0749
| 16> C 	 -7.53976 	 48.641 	 36.5096
| 17> H 	 -7.78787 	 48.3159 	 37.5572
| 18> H 	 -7.85168 	 47.8846 	 35.7977
| 19> C 	 -6.03809 	 48.6932 	 36.4788
| 20> H 	 -5.53044 	 49.331 	 37.2168
| 21> H 	 -5.58696 	 47.7001 	 36.5548
| 22> H 	 -5.72663 	 49.1974 	 35.5566
| 23> S 	 -14.3366 	 51.7759 	 35.8084
| 24> C 	 -15.0648 	 53.22 	 36.6104
| 25> C 	 -14.0857 	 53.9078 	 37.3035
| 26> C 	 -12.8108 	 53.2362 	 37.3714
| 27> C 	 -12.8296 	 51.9947 	 36.6996
| 28> H 	 -14.3562 	 54.8372 	 37.7984
| 29> C 	 -11.6202 	 53.7972 	 38.1335
| 30> H 	 -10.8254 	 53.9263 	 37.4196
| 31> H 	 -11.3266 	 53.0185 	 38.8409
| 32> C 	 -11.8306 	 55.0725 	 38.943
| 33> H 	 -11.0779 	 54.962 	 39.653
| 34> H 	 -12.6707 	 54.9911 	 39.605
| 35> C 	 -11.7969 	 56.3826 	 38.2837
| 36> H 	 -12.837 	 56.4856 	 37.856
| 37> H 	 -11.0425 	 56.2666 	 37.5099
| 38> H 	 -11.611 	 57.2096 	 38.982
| 39> H 	 -10.403 	 47.7572 	 36.4347
| 40> H 	 -16.025 	 53.6633 	 36.4295
| 41> *
| 42>
| 43>                          ****END OF INPUT****

CARTESIAN COORDINATES (ANGSTROEM)
---------------------------------
  S    -12.287000   49.349900   36.758400
  C    -10.656600   48.828800   36.465800
  C     -9.760200   49.901300   36.401000
  C    -10.433000   51.205500   36.558000
  C    -11.780200   50.983400   36.751600
  H    -10.042800   52.249400   36.472300
  C     -8.276490   49.923100   36.111600
  H     -7.894920   50.699000   36.711700
  H     -8.115630   50.198300   35.074900
  C     -7.539760   48.641000   36.509600
  H     -7.787870   48.315900   37.557200
  H     -7.851680   47.884600   35.797700
  C     -6.038090   48.693200   36.478800
  H     -5.530440   49.331000   37.216800
  H     -5.586960   47.700100   36.554800
  H     -5.726630   49.197400   35.556600
  S    -14.336600   51.775900   35.808400
  C    -15.064800   53.220000   36.610400
  C    -14.085700   53.907800   37.303500
  C    -12.810800   53.236200   37.371400
  C    -12.829600   51.994700   36.699600
  H    -14.356200   54.837200   37.798400
  C    -11.620200   53.797200   38.133500
  H    -10.825400   53.926300   37.419600
  H    -11.326600   53.018500   38.840900
  C    -11.830600   55.072500   38.943000
  H    -11.077900   54.962000   39.653000
  H    -12.670700   54.991100   39.605000
  C    -11.796900   56.382600   38.283700
  H    -12.837000   56.485600   37.856000
  H    -11.042500   56.266600   37.509900
  H    -11.611000   57.209600   38.982000
  H    -10.403000   47.757200   36.434700
  H    -16.025000   53.663300   36.429500

 Total Charge           Charge          ....    0
 Multiplicity           Mult            ....    1
 Number of Electrons    NEL             ....  134
 Basis Dimension        Dim             ....  322

ORBITAL ENERGIES
----------------

  NO   OCC          E(Eh)            E(eV)
   0   2.0000     -88.966525     -2420.9022
   1   2.0000     -88.966165     -2420.8924
   2   2.0000     -10.325442      -280.9696
   3   2.0000     -10.325219      -280.9635
   4   2.0000     -10.317695      -280.7588
   5   2.0000     -10.315979      -280.7121
   6   2.0000     -10.308954      -280.5209
   7   2.0000     -10.301606      -280.3210
   8   2.0000     -10.300257      -280.2842
   9   2.0000     -10.294961      -280.1401
  10   2.0000     -10.291638      -280.0497
  11   2.0000     -10.288577      -279.9664
  12   2.0000     -10.287361      -279.9333
  13   2.0000     -10.280557      -279.7482
  14   2.0000     -10.277769      -279.6723
  15   2.0000     -10.272707      -279.5346
  16   2.0000      -8.081972      -219.9216
  17   2.0000      -8.079760      -219.8614
  18   2.0000      -6.040421      -164.3682
  19   2.0000      -6.038480      -164.3154
  20   2.0000      -6.036370      -164.2580
  21   2.0000      -6.034522      -164.2077
  22   2.0000      -6.032682      -164.1576
  23   2.0000      -6.030328      -164.0936
  24   2.0000      -1.005776       -27.3686
  25   2.0000      -0.976113       -26.5614
  26   2.0000      -0.919128       -25.0107
  27   2.0000      -0.915154       -24.9026
  28   2.0000      -0.867483       -23.6054
  29   2.0000      -0.857055       -23.3216
  30   2.0000      -0.845094       -22.9962
  31   2.0000      -0.814227       -22.1562
  32   2.0000      -0.786080       -21.3903
  33   2.0000      -0.772102       -21.0100
  34   2.0000      -0.707845       -19.2614
  35   2.0000      -0.703048       -19.1309
  36   2.0000      -0.689161       -18.7530
  37   2.0000      -0.655422       -17.8349
  38   2.0000      -0.638335       -17.3700
  39   2.0000      -0.610500       -16.6126
  40   2.0000      -0.597249       -16.2520
  41   2.0000      -0.574406       -15.6304
  42   2.0000      -0.565046       -15.3757
  43   2.0000      -0.561468       -15.2783
  44   2.0000      -0.534947       -14.5566
  45   2.0000      -0.529950       -14.4207
  46   2.0000      -0.524448       -14.2709
  47   2.0000      -0.513528       -13.9738
  48   2.0000      -0.508467       -13.8361
  49   2.0000      -0.500340       -13.6149
  50   2.0000      -0.488955       -13.3052
  51   2.0000      -0.486830       -13.2473
  52   2.0000      -0.473140       -12.8748
  53   2.0000      -0.465387       -12.6638
  54   2.0000      -0.457526       -12.4499
  55   2.0000      -0.453345       -12.3361
  56   2.0000      -0.444010       -12.0821
  57   2.0000      -0.434405       -11.8208
  58   2.0000      -0.430723       -11.7206
  59   2.0000      -0.426566       -11.6074
  60   2.0000      -0.422740       -11.5033
  61   2.0000      -0.414137       -11.2692
  62   2.0000      -0.405060       -11.0222
  63   2.0000      -0.351890        -9.5754
  64   2.0000      -0.329224        -8.9586
  65   2.0000      -0.327242        -8.9047
  66   2.0000      -0.284312        -7.7365
  67   0.0000       0.026237         0.7139
  68   0.0000       0.078100         2.1252
  69   0.0000       0.108218         2.9448
  70   0.0000       0.118584         3.2268
  71   0.0000       0.129630         3.5274

MULLIKEN ATOMIC CHARGES
-----------------------
   0 S :    0.120316
   1 C :   -0.145049
   2 C :   -0.093404
   3 C :   -0.016516
   4 C :   -0.149680
   5 H :    0.037241
   6 C :    0.105650
   7 H :    0.009938
   8 H :    0.043875
   9 C :   -0.108156
  10 H :    0.039817
  11 H :    0.032606
  12 C :   -0.038984
  13 H :    0.026866
  14 H :    0.039457
  15 H :    0.014695
  16 S :    0.103569
  17 C :   -0.089786
  18 C :   -0.042557
  19 C :   -0.058342
  20 C :   -0.140083
  21 H :    0.024018
  22 C :    0.047842
  23 H :    0.029262
  24 H :    0.043738
  25 C :   -0.047750
  26 H :   -0.003283
  27 H :    0.008496
  28 C :   -0.008533
  29 H :    0.028490
  30 H :    0.027465
  31 H :    0.045662
  32 H :    0.062346
  33 H :    0.050773
Sum of atomic charges:   -0.0000000

LOEWDIN ATOMIC CHARGES
----------------------
   0 S :    0.429102
   1 C :   -0.214072
   2 C :   -0.051275
   3 C :   -0.069390
   4 C :   -0.198440
   5 H :    0.042184
   6 C :   -0.029608
   7 H :    0.024610
   8 H :    0.036569
   9 C :   -0.047284
  10 H :    0.031039
  11 H :    0.023707
  12 C :   -0.070627
  13 H :    0.023980
  14 H :    0.029645
  15 H :    0.022535
  16 S :    0.375241
  17 C :   -0.175117
  18 C :   -0.070447
  19 C :   -0.057803
  20 C :   -0.200609
  21 H :    0.030793
  22 C :   -0.027111
  23 H :    0.024565
  24 H :    0.041752
  25 C :   -0.051450
  26 H :    0.018629
  27 H :    0.021109
  28 C :   -0.060232
  29 H :    0.030067
  30 H :    0.025575
  31 H :    0.031959
  32 H :    0.031811
  33 H :    0.028593

  Mayer bond orders larger than 0.100000
B(  0-S ,  1-C ) :   1.1240 B(  0-S ,  4-C ) :   1.1664 B(  1-C ,  2-C ) :   1.6219
B(  1-C , 32-H ) :   0.9676 B(  2-C ,  3-C ) :   1.2151 B(  2-C ,  6-C ) :   1.0186
B(  3-C ,  4-C ) :   1.5721 B(  3-C ,  5-H ) :   0.9819 B(  4-C , 20-C ) :   1.0586
B(  6-C ,  7-H ) :   0.9382 B(  6-C ,  8-H ) :   0.9263 B(  6-C ,  9-C ) :   1.0785
B(  9-C , 10-H ) :   0.9600 B(  9-C , 11-H ) :   0.9466 B(  9-C , 12-C ) :   1.0954
B( 12-C , 13-H ) :   0.9734 B( 12-C , 14-H ) :   0.9723 B( 12-C , 15-H ) :   0.9688
B( 16-S , 17-C ) :   1.1262 B( 16-S , 20-C ) :   1.1333 B( 17-C , 18-C ) :   1.6255
B( 17-C , 33-H ) :   0.9637 B( 18-C , 19-C ) :   1.2553 B( 18-C , 21-H ) :   0.9756
B( 19-C , 20-C ) :   1.5800 B( 19-C , 22-C ) :   1.0302 B( 22-C , 23-H ) :   0.9251
B( 22-C , 24-H ) :   0.9215 B( 22-C , 25-C ) :   1.1007 B( 25-C , 26-H ) :   0.9388
B( 25-C , 27-H ) :   0.9394 B( 25-C , 28-C ) :   1.0750 B( 28-C , 29-H ) :   0.9747
B( 28-C , 30-H ) :   0.9711 B( 28-C , 31-H ) :   0.9691

Dispersion correction           -0.013613010
FINAL SINGLE POINT ENERGY     -1339.871135146657

DIPOLE MOMENT
-------------
                                X             Y             Z
Electronic contribution:    -24.96448     -10.03269      -7.16176
Nuclear contribution   :     25.56576      10.40616       7.38991
                        -----------------------------------------
Total Dipole Moment    :      0.60129       0.37347       0.22815
                        -----------------------------------------
Magnitude (a.u.)       :      0.74369
Magnitude (Debye)      :      1.89031

Rotational constants in cm-1:     0.020660     0.007480     0.005746
Rotational constants in MHz :   619.366830   224.248642   172.250018

                             ****ORCA TERMINATED NORMALLY****
TOTAL RUN TIME: 0 days 0 hours 0 minutes 33 seconds 837 msec
