                         Program Version 4.2.1 -  RELEASE  -
|  1> ! wB97X-D3 SP def2-SVP
|  2> %pal
|  3> nprocs 16
|  4> end
|  5>
|  6> * xyz 0 1
|  7> S 	 0.751034 	 -11.032 	 54.037
|  8> C 	 0.396317 	 -11.5904 	 52.4906
|  9> C 	 0.502736 	 -12.9754 	 52.4527
| 10> C 	 0.947013 	 -13.5893 	 53.6367
| 11> C 	 1.09855 	 -12.6112 	 54.6467
| 12> H 	 1.10552 	 -14.635 	 53.8182
| 13> C 	 0.326171 	 -13.7599 	 51.2241
| 14> H 	 1.19035 	 -14.477 	 51.1916
| 15> H 	 0.362951 	 -13.1961 	 50.1738
| 16> C 	 -1.03854 	 -14.5485 	 51.1286
| 17> H 	 -0.910209 	 -15.1626 	 50.2284
| 18> H 	 -1.16123 	 -15.3398 	 51.8864
| 19> C 	 -2.32238 	 -13.6559 	 51.1182
| 20> H 	 -3.21143 	 -14.2519 	 50.9054
| 21> H 	 -2.42546 	 -13.147 	 52.0244
| 22> H 	 -2.25275 	 -12.9969 	 50.3011
| 23> S 	 3.08369 	 -11.7423 	 56.3808
| 24> C 	 3.28697 	 -12.5592 	 57.909
| 25> C 	 2.41115 	 -13.5917 	 58.0343
| 26> C 	 1.46999 	 -13.7199 	 56.9877
| 27> C 	 1.6618 	 -12.7314 	 56.0147
| 28> H 	 2.5638 	 -14.2733 	 58.8778
| 29> C 	 0.475761 	 -14.8413 	 56.8152
| 30> H 	 0.683059 	 -15.6812 	 57.478
| 31> H 	 0.673996 	 -15.1891 	 55.7792
| 32> C 	 -1.00908 	 -14.3889 	 56.9378
| 33> H 	 -1.11068 	 -13.3541 	 56.4936
| 34> H 	 -1.18954 	 -14.0444 	 57.9421
| 35> C 	 -2.12365 	 -15.2813 	 56.2925
| 36> H 	 -3.01157 	 -14.6343 	 56.4086
| 37> H 	 -2.41273 	 -16.1595 	 56.8742
| 38> H 	 -1.9261 	 -15.5516 	 55.2954
| 39> H 	 0.229961 	 -11.0041 	 51.5996
| 40> H 	 4.10772 	 -12.3802 	 58.5339
| 41> *
| 42>
| 43>                          ****END OF INPUT****

CARTESIAN COORDINATES (ANGSTROEM)
---------------------------------
  S      0.751034  -11.032000   54.037000
  C      0.396317  -11.590400   52.490600
  C      0.502736  -12.975400   52.452700
  C      0.947013  -13.589300   53.636700
  C      1.098550  -12.611200   54.646700
  H      1.105520  -14.635000   53.818200
  C      0.326171  -13.759900   51.224100
  H      1.190350  -14.477000   51.191600
  H      0.362951  -13.196100   50.173800
  C     -1.038540  -14.548500   51.128600
  H     -0.910209  -15.162600   50.228400
  H     -1.161230  -15.339800   51.886400
  C     -2.322380  -13.655900   51.118200
  H     -3.211430  -14.251900   50.905400
  H     -2.425460  -13.147000   52.024400
  H     -2.252750  -12.996900   50.301100
  S      3.083690  -11.742300   56.380800
  C      3.286970  -12.559200   57.909000
  C      2.411150  -13.591700   58.034300
  C      1.469990  -13.719900   56.987700
  C      1.661800  -12.731400   56.014700
  H      2.563800  -14.273300   58.877800
  C      0.475761  -14.841300   56.815200
  H      0.683059  -15.681200   57.478000
  H      0.673996  -15.189100   55.779200
  C     -1.009080  -14.388900   56.937800
  H     -1.110680  -13.354100   56.493600
  H     -1.189540  -14.044400   57.942100
  C     -2.123650  -15.281300   56.292500
  H     -3.011570  -14.634300   56.408600
  H     -2.412730  -16.159500   56.874200
  H     -1.926100  -15.551600   55.295400
  H      0.229961  -11.004100   51.599600
  H      4.107720  -12.380200   58.533900

 Total Charge           Charge          ....    0
 Multiplicity           Mult            ....    1
 Number of Electrons    NEL             ....  134
 Basis Dimension        Dim             ....  322

ORBITAL ENERGIES
----------------

  NO   OCC          E(Eh)            E(eV)
   0   2.0000     -88.967447     -2420.9273
   1   2.0000     -88.965016     -2420.8612
   2   2.0000     -10.332585      -281.1639
   3   2.0000     -10.328113      -281.0422
   4   2.0000     -10.310938      -280.5749
   5   2.0000     -10.307123      -280.4711
   6   2.0000     -10.303725      -280.3786
   7   2.0000     -10.301919      -280.3295
   8   2.0000     -10.296593      -280.1845
   9   2.0000     -10.295279      -280.1488
  10   2.0000     -10.294496      -280.1275
  11   2.0000     -10.292029      -280.0603
  12   2.0000     -10.290216      -280.0110
  13   2.0000     -10.288295      -279.9587
  14   2.0000     -10.278649      -279.6963
  15   2.0000     -10.270050      -279.4623
  16   2.0000      -8.083460      -219.9621
  17   2.0000      -8.079639      -219.8582
  18   2.0000      -6.041665      -164.4021
  19   2.0000      -6.038080      -164.3045
  20   2.0000      -6.037558      -164.2903
  21   2.0000      -6.034708      -164.2127
  22   2.0000      -6.034175      -164.1982
  23   2.0000      -6.030456      -164.0971
  24   2.0000      -1.011934       -27.5361
  25   2.0000      -0.989652       -26.9298
  26   2.0000      -0.906852       -24.6767
  27   2.0000      -0.902625       -24.5617
  28   2.0000      -0.865844       -23.5608
  29   2.0000      -0.853230       -23.2176
  30   2.0000      -0.846842       -23.0437
  31   2.0000      -0.814964       -22.1763
  32   2.0000      -0.782997       -21.3064
  33   2.0000      -0.771728       -20.9998
  34   2.0000      -0.710347       -19.3295
  35   2.0000      -0.698207       -18.9992
  36   2.0000      -0.693946       -18.8832
  37   2.0000      -0.661312       -17.9952
  38   2.0000      -0.642683       -17.4883
  39   2.0000      -0.619598       -16.8601
  40   2.0000      -0.595320       -16.1995
  41   2.0000      -0.568508       -15.4699
  42   2.0000      -0.556055       -15.1310
  43   2.0000      -0.543653       -14.7936
  44   2.0000      -0.539984       -14.6937
  45   2.0000      -0.526301       -14.3214
  46   2.0000      -0.515297       -14.0219
  47   2.0000      -0.509907       -13.8753
  48   2.0000      -0.500930       -13.6310
  49   2.0000      -0.500155       -13.6099
  50   2.0000      -0.496654       -13.5146
  51   2.0000      -0.483812       -13.1652
  52   2.0000      -0.472014       -12.8441
  53   2.0000      -0.465873       -12.6771
  54   2.0000      -0.462485       -12.5849
  55   2.0000      -0.451052       -12.2738
  56   2.0000      -0.440587       -11.9890
  57   2.0000      -0.437824       -11.9138
  58   2.0000      -0.436513       -11.8781
  59   2.0000      -0.424921       -11.5627
  60   2.0000      -0.417694       -11.3660
  61   2.0000      -0.411521       -11.1981
  62   2.0000      -0.405573       -11.0362
  63   2.0000      -0.347959        -9.4684
  64   2.0000      -0.331589        -9.0230
  65   2.0000      -0.328310        -8.9338
  66   2.0000      -0.289673        -7.8824
  67   0.0000       0.027444         0.7468
  68   0.0000       0.072238         1.9657
  69   0.0000       0.112002         3.0477
  70   0.0000       0.118131         3.2145
  71   0.0000       0.126139         3.4324

MULLIKEN ATOMIC CHARGES
-----------------------
   0 S :    0.127986
   1 C :   -0.104812
   2 C :   -0.060854
   3 C :    0.042373
   4 C :   -0.175961
   5 H :    0.019492
   6 C :   -0.031027
   7 H :    0.038921
   8 H :    0.043114
   9 C :   -0.095842
  10 H :    0.024137
  11 H :    0.022188
  12 C :   -0.002676
  13 H :    0.031687
  14 H :    0.038794
  15 H :    0.010590
  16 S :    0.105951
  17 C :   -0.073947
  18 C :   -0.047721
  19 C :   -0.041574
  20 C :   -0.146839
  21 H :    0.021570
  22 C :    0.111301
  23 H :    0.022551
  24 H :    0.008210
  25 C :   -0.107081
  26 H :    0.036218
  27 H :    0.015779
  28 C :   -0.016132
  29 H :    0.033921
  30 H :    0.031372
  31 H :    0.033311
  32 H :    0.046054
  33 H :    0.038945
Sum of atomic charges:   -0.0000000

LOEWDIN ATOMIC CHARGES
----------------------
   0 S :    0.453614
   1 C :   -0.225859
   2 C :   -0.074339
   3 C :   -0.058963
   4 C :   -0.198793
   5 H :    0.029948
   6 C :   -0.045045
   7 H :    0.035442
   8 H :    0.039785
   9 C :   -0.043659
  10 H :    0.022105
  11 H :    0.017557
  12 C :   -0.054006
  13 H :    0.030352
  14 H :    0.020741
  15 H :    0.016720
  16 S :    0.403567
  17 C :   -0.177838
  18 C :   -0.074680
  19 C :   -0.055654
  20 C :   -0.199175
  21 H :    0.035291
  22 C :   -0.032018
  23 H :    0.028431
  24 H :    0.030606
  25 C :   -0.048030
  26 H :    0.033125
  27 H :    0.022204
  28 C :   -0.060142
  29 H :    0.035519
  30 H :    0.024059
  31 H :    0.018667
  32 H :    0.031101
  33 H :    0.019368

  Mayer bond orders larger than 0.100000
B(  0-S ,  1-C ) :   1.1570 B(  0-S ,  4-C ) :   1.2011 B(  1-C ,  2-C ) :   1.5517
B(  1-C , 32-H ) :   0.9722 B(  2-C ,  3-C ) :   1.2878 B(  2-C ,  6-C ) :   1.0293
B(  3-C ,  4-C ) :   1.5038 B(  3-C ,  5-H ) :   0.9916 B(  4-C , 20-C ) :   1.0171
B(  6-C ,  7-H ) :   0.9403 B(  6-C ,  8-H ) :   0.9521 B(  6-C ,  9-C ) :   1.0624
B(  9-C , 10-H ) :   0.9585 B(  9-C , 11-H ) :   0.9587 B(  9-C , 12-C ) :   1.0645
B( 12-C , 13-H ) :   0.9734 B( 12-C , 14-H ) :   0.9770 B( 12-C , 15-H ) :   0.9755
B( 16-S , 17-C ) :   1.1546 B( 16-S , 20-C ) :   1.1574 B( 17-C , 18-C ) :   1.6019
B( 17-C , 20-C ) :   0.1021 B( 17-C , 33-H ) :   0.9737 B( 18-C , 19-C ) :   1.2559
B( 18-C , 21-H ) :   0.9907 B( 19-C , 20-C ) :   1.5731 B( 19-C , 22-C ) :   1.0386
B( 22-C , 23-H ) :   0.9342 B( 22-C , 24-H ) :   0.9325 B( 22-C , 25-C ) :   1.0477
B( 25-C , 26-H ) :   0.9619 B( 25-C , 27-H ) :   0.9501 B( 25-C , 28-C ) :   1.0669
B( 28-C , 29-H ) :   0.9733 B( 28-C , 30-H ) :   0.9768 B( 28-C , 31-H ) :   0.9769

Dispersion correction           -0.015087189
FINAL SINGLE POINT ENERGY     -1339.876509326841

DIPOLE MOMENT
-------------
                                X             Y             Z
Electronic contribution:     20.73996      18.83529       9.66337
Nuclear contribution   :    -20.85112     -19.40680      -9.78228
                        -----------------------------------------
Total Dipole Moment    :     -0.11116      -0.57151      -0.11891
                        -----------------------------------------
Magnitude (a.u.)       :      0.59424
Magnitude (Debye)      :      1.51044

Rotational constants in cm-1:     0.019834     0.009473     0.007220
Rotational constants in MHz :   594.595784   283.984731   216.441441

                             ****ORCA TERMINATED NORMALLY****
TOTAL RUN TIME: 0 days 0 hours 0 minutes 31 seconds 611 msec
