                         Program Version 4.2.1 -  RELEASE  -
|  1> ! wB97X-D3 SP def2-SVP
|  2> %pal
|  3> nprocs 16
|  4> end
|  5>
|  6> * xyz 0 1
|  7> S 	 -86.0942 	 51.559 	 133.895
|  8> C 	 -85.7673 	 49.7747 	 134.035
|  9> C 	 -84.7657 	 49.3754 	 133.149
| 10> C 	 -84.3993 	 50.4921 	 132.317
| 11> C 	 -84.9242 	 51.7466 	 132.589
| 12> H 	 -83.4918 	 50.5488 	 131.689
| 13> C 	 -84.0996 	 48.0945 	 133.095
| 14> H 	 -83.9583 	 47.7646 	 132.084
| 15> H 	 -84.7 	 47.3721 	 133.647
| 16> C 	 -82.6641 	 48.0521 	 133.701
| 17> H 	 -82.5793 	 48.5715 	 134.625
| 18> H 	 -82.3865 	 47.0414 	 133.924
| 19> C 	 -81.5707 	 48.5445 	 132.735
| 20> H 	 -80.5547 	 48.2952 	 133.017
| 21> H 	 -81.7088 	 48.0485 	 131.735
| 22> H 	 -81.6447 	 49.6079 	 132.551
| 23> S 	 -83.0219 	 53.5521 	 131.879
| 24> C 	 -83.3901 	 54.8951 	 130.799
| 25> C 	 -84.7233 	 54.8719 	 130.473
| 26> C 	 -85.4707 	 53.8092 	 131.087
| 27> C 	 -84.7103 	 52.9688 	 131.851
| 28> H 	 -85.105 	 55.4806 	 129.658
| 29> C 	 -86.9452 	 53.6608 	 130.762
| 30> H 	 -87.2729 	 52.6189 	 130.93
| 31> H 	 -87.0377 	 53.9962 	 129.726
| 32> C 	 -87.9044 	 54.5045 	 131.626
| 33> H 	 -87.6956 	 55.5923 	 131.529
| 34> H 	 -87.8275 	 54.3759 	 132.742
| 35> C 	 -89.3417 	 54.4263 	 131.16
| 36> H 	 -89.704 	 53.4766 	 131.627
| 37> H 	 -89.4906 	 54.379 	 130.083
| 38> H 	 -90.0105 	 55.171 	 131.662
| 39> H 	 -86.3391 	 49.1312 	 134.735
| 40> H 	 -82.6736 	 55.6459 	 130.379
| 41> *
| 42>
| 43>                          ****END OF INPUT****

CARTESIAN COORDINATES (ANGSTROEM)
---------------------------------
  S    -86.094200   51.559000  133.895000
  C    -85.767300   49.774700  134.035000
  C    -84.765700   49.375400  133.149000
  C    -84.399300   50.492100  132.317000
  C    -84.924200   51.746600  132.589000
  H    -83.491800   50.548800  131.689000
  C    -84.099600   48.094500  133.095000
  H    -83.958300   47.764600  132.084000
  H    -84.700000   47.372100  133.647000
  C    -82.664100   48.052100  133.701000
  H    -82.579300   48.571500  134.625000
  H    -82.386500   47.041400  133.924000
  C    -81.570700   48.544500  132.735000
  H    -80.554700   48.295200  133.017000
  H    -81.708800   48.048500  131.735000
  H    -81.644700   49.607900  132.551000
  S    -83.021900   53.552100  131.879000
  C    -83.390100   54.895100  130.799000
  C    -84.723300   54.871900  130.473000
  C    -85.470700   53.809200  131.087000
  C    -84.710300   52.968800  131.851000
  H    -85.105000   55.480600  129.658000
  C    -86.945200   53.660800  130.762000
  H    -87.272900   52.618900  130.930000
  H    -87.037700   53.996200  129.726000
  C    -87.904400   54.504500  131.626000
  H    -87.695600   55.592300  131.529000
  H    -87.827500   54.375900  132.742000
  C    -89.341700   54.426300  131.160000
  H    -89.704000   53.476600  131.627000
  H    -89.490600   54.379000  130.083000
  H    -90.010500   55.171000  131.662000
  H    -86.339100   49.131200  134.735000
  H    -82.673600   55.645900  130.379000

 Total Charge           Charge          ....    0
 Multiplicity           Mult            ....    1
 Number of Electrons    NEL             ....  134
 Basis Dimension        Dim             ....  322

ORBITAL ENERGIES
----------------

  NO   OCC          E(Eh)            E(eV)
   0   2.0000     -88.966977     -2420.9145
   1   2.0000     -88.964319     -2420.8422
   2   2.0000     -10.332948      -281.1738
   3   2.0000     -10.329473      -281.0793
   4   2.0000     -10.326794      -281.0064
   5   2.0000     -10.324027      -280.9311
   6   2.0000     -10.305448      -280.4255
   7   2.0000     -10.304687      -280.4048
   8   2.0000     -10.295727      -280.1610
   9   2.0000     -10.295005      -280.1413
  10   2.0000     -10.294595      -280.1302
  11   2.0000     -10.290696      -280.0241
  12   2.0000     -10.286943      -279.9219
  13   2.0000     -10.284221      -279.8479
  14   2.0000     -10.279008      -279.7060
  15   2.0000     -10.278596      -279.6948
  16   2.0000      -8.080254      -219.8749
  17   2.0000      -8.078421      -219.8250
  18   2.0000      -6.038851      -164.3255
  19   2.0000      -6.037091      -164.2776
  20   2.0000      -6.034923      -164.2186
  21   2.0000      -6.032977      -164.1657
  22   2.0000      -6.031042      -164.1130
  23   2.0000      -6.029072      -164.0594
  24   2.0000      -1.003372       -27.3031
  25   2.0000      -0.980191       -26.6724
  26   2.0000      -0.917436       -24.9647
  27   2.0000      -0.907130       -24.6842
  28   2.0000      -0.871158       -23.7054
  29   2.0000      -0.850196       -23.1350
  30   2.0000      -0.843336       -22.9483
  31   2.0000      -0.813018       -22.1234
  32   2.0000      -0.783567       -21.3219
  33   2.0000      -0.770221       -20.9588
  34   2.0000      -0.707526       -19.2528
  35   2.0000      -0.703460       -19.1421
  36   2.0000      -0.686949       -18.6928
  37   2.0000      -0.667434       -18.1618
  38   2.0000      -0.638398       -17.3717
  39   2.0000      -0.614823       -16.7302
  40   2.0000      -0.594797       -16.1853
  41   2.0000      -0.578754       -15.7487
  42   2.0000      -0.563247       -15.3267
  43   2.0000      -0.548761       -14.9325
  44   2.0000      -0.542489       -14.7619
  45   2.0000      -0.522734       -14.2243
  46   2.0000      -0.519036       -14.1237
  47   2.0000      -0.509588       -13.8666
  48   2.0000      -0.505565       -13.7571
  49   2.0000      -0.499933       -13.6039
  50   2.0000      -0.492264       -13.3952
  51   2.0000      -0.482273       -13.1233
  52   2.0000      -0.466512       -12.6944
  53   2.0000      -0.463201       -12.6043
  54   2.0000      -0.459057       -12.4916
  55   2.0000      -0.448976       -12.2173
  56   2.0000      -0.439666       -11.9639
  57   2.0000      -0.436934       -11.8896
  58   2.0000      -0.434926       -11.8349
  59   2.0000      -0.424315       -11.5462
  60   2.0000      -0.422532       -11.4977
  61   2.0000      -0.413797       -11.2600
  62   2.0000      -0.397325       -10.8118
  63   2.0000      -0.340590        -9.2679
  64   2.0000      -0.331876        -9.0308
  65   2.0000      -0.326795        -8.8925
  66   2.0000      -0.301615        -8.2074
  67   0.0000       0.029431         0.8009
  68   0.0000       0.064025         1.7422
  69   0.0000       0.105245         2.8639
  70   0.0000       0.109215         2.9719
  71   0.0000       0.127621         3.4727

MULLIKEN ATOMIC CHARGES
-----------------------
   0 S :    0.095749
   1 C :   -0.150797
   2 C :   -0.058068
   3 C :    0.024719
   4 C :   -0.159366
   5 H :    0.021860
   6 C :    0.088875
   7 H :    0.023682
   8 H :    0.018000
   9 C :   -0.042690
  10 H :    0.025840
  11 H :    0.022313
  12 C :   -0.077595
  13 H :    0.034854
  14 H :    0.023911
  15 H :    0.038458
  16 S :    0.088109
  17 C :   -0.102158
  18 C :   -0.038823
  19 C :   -0.013246
  20 C :   -0.168155
  21 H :    0.025631
  22 C :    0.074070
  23 H :    0.036215
  24 H :    0.023397
  25 C :   -0.101812
  26 H :    0.018929
  27 H :    0.038567
  28 C :   -0.058845
  29 H :    0.026227
  30 H :    0.038280
  31 H :    0.041064
  32 H :    0.064922
  33 H :    0.077883
Sum of atomic charges:   -0.0000000

LOEWDIN ATOMIC CHARGES
----------------------
   0 S :    0.373109
   1 C :   -0.176422
   2 C :   -0.062687
   3 C :   -0.066535
   4 C :   -0.197319
   5 H :    0.029984
   6 C :   -0.028713
   7 H :    0.032171
   8 H :    0.033600
   9 C :   -0.028737
  10 H :    0.021323
  11 H :    0.022827
  12 C :   -0.068823
  13 H :    0.025447
  14 H :    0.026675
  15 H :    0.020423
  16 S :    0.385385
  17 C :   -0.184568
  18 C :   -0.076045
  19 C :   -0.052428
  20 C :   -0.185898
  21 H :    0.032983
  22 C :   -0.027379
  23 H :    0.033966
  24 H :    0.033510
  25 C :   -0.053082
  26 H :    0.020048
  27 H :    0.028957
  28 C :   -0.074137
  29 H :    0.027444
  30 H :    0.024051
  31 H :    0.032176
  32 H :    0.034385
  33 H :    0.044311

  Mayer bond orders larger than 0.100000
B(  0-S ,  1-C ) :   1.1326 B(  0-S ,  4-C ) :   1.1246 B(  1-C ,  2-C ) :   1.5953
B(  1-C , 32-H ) :   0.9634 B(  2-C ,  3-C ) :   1.2266 B(  2-C ,  6-C ) :   1.0659
B(  3-C ,  4-C ) :   1.6062 B(  3-C ,  5-H ) :   0.9726 B(  4-C , 20-C ) :   1.0206
B(  6-C ,  7-H ) :   0.9322 B(  6-C ,  8-H ) :   0.9290 B(  6-C ,  9-C ) :   1.0638
B(  9-C , 10-H ) :   0.9546 B(  9-C , 11-H ) :   0.9565 B(  9-C , 12-C ) :   1.0791
B( 12-C , 13-H ) :   0.9721 B( 12-C , 14-H ) :   0.9733 B( 12-C , 15-H ) :   0.9741
B( 16-S , 17-C ) :   1.1448 B( 16-S , 20-C ) :   1.1186 B( 17-C , 18-C ) :   1.6315
B( 17-C , 33-H ) :   0.9594 B( 18-C , 19-C ) :   1.2221 B( 18-C , 21-H ) :   0.9831
B( 19-C , 20-C ) :   1.6351 B( 19-C , 22-C ) :   1.0487 B( 22-C , 23-H ) :   0.9366
B( 22-C , 24-H ) :   0.9283 B( 22-C , 25-C ) :   1.0644 B( 25-C , 26-H ) :   0.9563
B( 25-C , 27-H ) :   0.9529 B( 25-C , 28-C ) :   1.0789 B( 28-C , 29-H ) :   0.9747
B( 28-C , 30-H ) :   0.9731 B( 28-C , 31-H ) :   0.9729

Dispersion correction           -0.014368051
FINAL SINGLE POINT ENERGY     -1339.879882115512

DIPOLE MOMENT
-------------
                                X             Y             Z
Electronic contribution:      5.02510       7.66123       4.42758
Nuclear contribution   :     -5.02281      -7.91084      -4.68815
                        -----------------------------------------
Total Dipole Moment    :      0.00229      -0.24961      -0.26057
                        -----------------------------------------
Magnitude (a.u.)       :      0.36084
Magnitude (Debye)      :      0.91718

Rotational constants in cm-1:     0.020435     0.008547     0.006523
Rotational constants in MHz :   612.626371   256.220446   195.543797

                             ****ORCA TERMINATED NORMALLY****
TOTAL RUN TIME: 0 days 0 hours 0 minutes 34 seconds 176 msec
