                         Program Version 4.2.1 -  RELEASE  -
|  1> ! wB97X-D3 SP def2-SVP
|  2> %pal
|  3> nprocs 16
|  4> end
|  5>
|  6> * xyz 0 1
|  7> S 	 0.85385 	 -12.2189 	 53.9852
|  8> C 	 0.968308 	 -12.1228 	 52.2047
|  9> C 	 1.62625 	 -13.2282 	 51.7604
| 10> C 	 2.1432 	 -14.0936 	 52.8079
| 11> C 	 1.71707 	 -13.7503 	 54.0797
| 12> H 	 2.78415 	 -14.9141 	 52.541
| 13> C 	 1.89427 	 -13.4785 	 50.2827
| 14> H 	 2.94517 	 -13.7132 	 50.1078
| 15> H 	 1.78489 	 -12.5228 	 49.7608
| 16> C 	 1.03897 	 -14.5715 	 49.5548
| 17> H 	 1.34701 	 -14.4499 	 48.594
| 18> H 	 1.184 	 -15.565 	 49.9692
| 19> C 	 -0.47761 	 -14.2778 	 49.5506
| 20> H 	 -0.716269 	 -13.2137 	 49.3946
| 21> H 	 -1.06393 	 -14.8974 	 48.8705
| 22> H 	 -0.917413 	 -14.5792 	 50.5212
| 23> S 	 3.45121 	 -13.5453 	 56.1256
| 24> C 	 3.64209 	 -14.815 	 57.3445
| 25> C 	 2.95164 	 -15.9399 	 56.9828
| 26> C 	 2.12604 	 -15.6708 	 55.8947
| 27> C 	 2.25815 	 -14.3848 	 55.3123
| 28> H 	 3.12684 	 -16.9581 	 57.4334
| 29> C 	 1.35618 	 -16.7732 	 55.2406
| 30> H 	 2.13896 	 -17.4774 	 54.7726
| 31> H 	 0.713299 	 -16.4203 	 54.4444
| 32> C 	 0.468719 	 -17.5203 	 56.288
| 33> H 	 -0.159667 	 -16.7396 	 56.6998
| 34> H 	 1.10984 	 -17.8732 	 57.1494
| 35> C 	 -0.440458 	 -18.574 	 55.7524
| 36> H 	 -1.15829 	 -18.7927 	 56.5338
| 37> H 	 0.0574116 	 -19.4785 	 55.4948
| 38> H 	 -1.00286 	 -18.2746 	 54.9071
| 39> H 	 0.60467 	 -11.3299 	 51.5535
| 40> H 	 4.20055 	 -14.7167 	 58.2899
| 41> *
| 42>
| 43>                          ****END OF INPUT****

CARTESIAN COORDINATES (ANGSTROEM)
---------------------------------
  S      0.853850  -12.218900   53.985200
  C      0.968308  -12.122800   52.204700
  C      1.626250  -13.228200   51.760400
  C      2.143200  -14.093600   52.807900
  C      1.717070  -13.750300   54.079700
  H      2.784150  -14.914100   52.541000
  C      1.894270  -13.478500   50.282700
  H      2.945170  -13.713200   50.107800
  H      1.784890  -12.522800   49.760800
  C      1.038970  -14.571500   49.554800
  H      1.347010  -14.449900   48.594000
  H      1.184000  -15.565000   49.969200
  C     -0.477610  -14.277800   49.550600
  H     -0.716269  -13.213700   49.394600
  H     -1.063930  -14.897400   48.870500
  H     -0.917413  -14.579200   50.521200
  S      3.451210  -13.545300   56.125600
  C      3.642090  -14.815000   57.344500
  C      2.951640  -15.939900   56.982800
  C      2.126040  -15.670800   55.894700
  C      2.258150  -14.384800   55.312300
  H      3.126840  -16.958100   57.433400
  C      1.356180  -16.773200   55.240600
  H      2.138960  -17.477400   54.772600
  H      0.713299  -16.420300   54.444400
  C      0.468719  -17.520300   56.288000
  H     -0.159667  -16.739600   56.699800
  H      1.109840  -17.873200   57.149400
  C     -0.440458  -18.574000   55.752400
  H     -1.158290  -18.792700   56.533800
  H      0.057412  -19.478500   55.494800
  H     -1.002860  -18.274600   54.907100
  H      0.604670  -11.329900   51.553500
  H      4.200550  -14.716700   58.289900

 Total Charge           Charge          ....    0
 Multiplicity           Mult            ....    1
 Number of Electrons    NEL             ....  134
 Basis Dimension        Dim             ....  322

ORBITAL ENERGIES
----------------

  NO   OCC          E(Eh)            E(eV)
   0   2.0000     -88.966188     -2420.8930
   1   2.0000     -88.964137     -2420.8372
   2   2.0000     -10.336400      -281.2677
   3   2.0000     -10.323894      -280.9274
   4   2.0000     -10.318420      -280.7785
   5   2.0000     -10.317504      -280.7536
   6   2.0000     -10.299810      -280.2721
   7   2.0000     -10.297006      -280.1958
   8   2.0000     -10.296987      -280.1953
   9   2.0000     -10.294603      -280.1304
  10   2.0000     -10.293846      -280.1098
  11   2.0000     -10.289337      -279.9871
  12   2.0000     -10.283827      -279.8372
  13   2.0000     -10.283290      -279.8225
  14   2.0000     -10.277874      -279.6752
  15   2.0000     -10.266334      -279.3611
  16   2.0000      -8.080120      -219.8712
  17   2.0000      -8.079997      -219.8679
  18   2.0000      -6.038887      -164.3265
  19   2.0000      -6.038318      -164.3110
  20   2.0000      -6.034662      -164.2115
  21   2.0000      -6.034187      -164.1986
  22   2.0000      -6.031027      -164.1126
  23   2.0000      -6.030681      -164.1032
  24   2.0000      -1.010614       -27.5002
  25   2.0000      -0.985445       -26.8153
  26   2.0000      -0.909862       -24.7586
  27   2.0000      -0.906388       -24.6641
  28   2.0000      -0.872223       -23.7344
  29   2.0000      -0.851842       -23.1798
  30   2.0000      -0.842009       -22.9122
  31   2.0000      -0.818342       -22.2682
  32   2.0000      -0.780119       -21.2281
  33   2.0000      -0.766836       -20.8667
  34   2.0000      -0.706410       -19.2224
  35   2.0000      -0.696261       -18.9462
  36   2.0000      -0.694623       -18.9016
  37   2.0000      -0.655544       -17.8383
  38   2.0000      -0.637604       -17.3501
  39   2.0000      -0.621605       -16.9147
  40   2.0000      -0.595357       -16.2005
  41   2.0000      -0.573465       -15.6048
  42   2.0000      -0.560022       -15.2390
  43   2.0000      -0.552476       -15.0336
  44   2.0000      -0.542067       -14.7504
  45   2.0000      -0.525346       -14.2954
  46   2.0000      -0.515064       -14.0156
  47   2.0000      -0.512237       -13.9387
  48   2.0000      -0.506527       -13.7833
  49   2.0000      -0.501045       -13.6341
  50   2.0000      -0.487593       -13.2681
  51   2.0000      -0.477863       -13.0033
  52   2.0000      -0.474819       -12.9205
  53   2.0000      -0.467380       -12.7181
  54   2.0000      -0.460129       -12.5207
  55   2.0000      -0.448597       -12.2070
  56   2.0000      -0.441692       -12.0190
  57   2.0000      -0.435331       -11.8460
  58   2.0000      -0.430302       -11.7091
  59   2.0000      -0.427199       -11.6247
  60   2.0000      -0.417929       -11.3724
  61   2.0000      -0.411068       -11.1857
  62   2.0000      -0.409277       -11.1370
  63   2.0000      -0.343414        -9.3448
  64   2.0000      -0.326387        -8.8814
  65   2.0000      -0.325148        -8.8477
  66   2.0000      -0.301253        -8.1975
  67   0.0000       0.034638         0.9425
  68   0.0000       0.064312         1.7500
  69   0.0000       0.112788         3.0691
  70   0.0000       0.120769         3.2863
  71   0.0000       0.131074         3.5667

MULLIKEN ATOMIC CHARGES
-----------------------
   0 S :    0.100030
   1 C :   -0.126133
   2 C :   -0.083058
   3 C :    0.052938
   4 C :   -0.139297
   5 H :    0.012569
   6 C :    0.025206
   7 H :    0.029055
   8 H :    0.012846
   9 C :   -0.006256
  10 H :    0.013546
  11 H :    0.035109
  12 C :   -0.078924
  13 H :    0.028274
  14 H :    0.031507
  15 H :    0.033864
  16 S :    0.123213
  17 C :   -0.115877
  18 C :   -0.047001
  19 C :   -0.048686
  20 C :   -0.152486
  21 H :    0.052306
  22 C :    0.048708
  23 H :    0.044377
  24 H :    0.020735
  25 C :   -0.135650
  26 H :    0.028929
  27 H :    0.031306
  28 C :    0.022862
  29 H :    0.027176
  30 H :    0.019826
  31 H :    0.016423
  32 H :    0.055397
  33 H :    0.067164
Sum of atomic charges:    0.0000000

LOEWDIN ATOMIC CHARGES
----------------------
   0 S :    0.386028
   1 C :   -0.183423
   2 C :   -0.069260
   3 C :   -0.052247
   4 C :   -0.197604
   5 H :    0.029861
   6 C :   -0.031844
   7 H :    0.031059
   8 H :    0.028028
   9 C :   -0.025952
  10 H :    0.012852
  11 H :    0.026077
  12 C :   -0.071398
  13 H :    0.023184
  14 H :    0.024996
  15 H :    0.027980
  16 S :    0.445745
  17 C :   -0.186230
  18 C :   -0.078526
  19 C :   -0.065758
  20 C :   -0.230808
  21 H :    0.047049
  22 C :   -0.036044
  23 H :    0.036710
  24 H :    0.024914
  25 C :   -0.046970
  26 H :    0.025821
  27 H :    0.024932
  28 C :   -0.060433
  29 H :    0.030067
  30 H :    0.019949
  31 H :    0.021120
  32 H :    0.035371
  33 H :    0.034755

  Mayer bond orders larger than 0.100000
B(  0-S ,  1-C ) :   1.1203 B(  0-S ,  4-C ) :   1.1439 B(  1-C ,  2-C ) :   1.6329
B(  1-C , 32-H ) :   0.9669 B(  2-C ,  3-C ) :   1.2319 B(  2-C ,  6-C ) :   1.0268
B(  3-C ,  4-C ) :   1.5713 B(  3-C ,  5-H ) :   0.9961 B(  4-C , 20-C ) :   1.0034
B(  6-C ,  7-H ) :   0.9430 B(  6-C ,  8-H ) :   0.9427 B(  6-C ,  9-C ) :   1.0704
B(  9-C , 10-H ) :   0.9546 B(  9-C , 11-H ) :   0.9589 B(  9-C , 12-C ) :   1.0749
B( 12-C , 13-H ) :   0.9770 B( 12-C , 14-H ) :   0.9755 B( 12-C , 15-H ) :   0.9745
B( 16-S , 17-C ) :   1.1787 B( 16-S , 20-C ) :   1.1840 B( 17-C , 18-C ) :   1.5635
B( 17-C , 20-C ) :   0.1055 B( 17-C , 33-H ) :   0.9649 B( 18-C , 19-C ) :   1.2967
B( 18-C , 21-H ) :   0.9778 B( 19-C , 20-C ) :   1.5410 B( 19-C , 22-C ) :   1.0582
B( 22-C , 23-H ) :   0.9362 B( 22-C , 24-H ) :   0.9337 B( 22-C , 25-C ) :   1.0517
B( 25-C , 26-H ) :   0.9568 B( 25-C , 27-H ) :   0.9533 B( 25-C , 28-C ) :   1.0985
B( 28-C , 29-H ) :   0.9701 B( 28-C , 30-H ) :   0.9704 B( 28-C , 31-H ) :   0.9673

Dispersion correction           -0.013876996
FINAL SINGLE POINT ENERGY     -1339.871321062149

DIPOLE MOMENT
-------------
                                X             Y             Z
Electronic contribution:     11.89000      19.77405      14.80358
Nuclear contribution   :    -11.79304     -20.26656     -15.25631
                        -----------------------------------------
Total Dipole Moment    :      0.09696      -0.49250      -0.45272
                        -----------------------------------------
Magnitude (a.u.)       :      0.67596
Magnitude (Debye)      :      1.71815

Rotational constants in cm-1:     0.017682     0.008522     0.006550
Rotational constants in MHz :   530.093065   255.483765   196.353092

                             ****ORCA TERMINATED NORMALLY****
TOTAL RUN TIME: 0 days 0 hours 0 minutes 29 seconds 295 msec
