                         Program Version 4.2.1 -  RELEASE  -
|  1> ! wB97X-D3 SP def2-SVP
|  2> %pal
|  3> nprocs 16
|  4> end
|  5>
|  6> * xyz 0 1
|  7> S 	 -39.4574 	 -2.45969 	 97.711
|  8> C 	 -40.0751 	 -4.02246 	 97.9087
|  9> C 	 -39.0722 	 -4.80926 	 98.3658
| 10> C 	 -37.7277 	 -4.27972 	 98.1518
| 11> C 	 -37.7721 	 -2.93205 	 97.7115
| 12> H 	 -36.8171 	 -4.84891 	 98.1792
| 13> C 	 -39.1654 	 -6.11146 	 99.1439
| 14> H 	 -39.7736 	 -5.97713 	 100.106
| 15> H 	 -38.1495 	 -6.35376 	 99.5737
| 16> C 	 -39.5239 	 -7.41513 	 98.3771
| 17> H 	 -38.745 	 -7.62716 	 97.6997
| 18> H 	 -39.3939 	 -8.25642 	 99.0265
| 19> C 	 -40.8698 	 -7.59302 	 97.6791
| 20> H 	 -41.1132 	 -8.61524 	 97.3375
| 21> H 	 -41.5428 	 -7.35826 	 98.4753
| 22> H 	 -41.089 	 -6.87661 	 96.9109
| 23> S 	 -36.1391 	 -0.904853 	 98.4568
| 24> C 	 -34.6874 	 -0.560738 	 97.5902
| 25> C 	 -34.8297 	 -1.0711 	 96.3353
| 26> C 	 -35.9385 	 -2.01455 	 96.2218
| 27> C 	 -36.7157 	 -2.04143 	 97.3696
| 28> H 	 -34.0224 	 -0.820054 	 95.6441
| 29> C 	 -36.2448 	 -2.82035 	 95.0341
| 30> H 	 -36.4819 	 -3.92124 	 95.259
| 31> H 	 -35.3381 	 -2.76659 	 94.4476
| 32> C 	 -37.356 	 -2.25996 	 94.1767
| 33> H 	 -36.9945 	 -1.2412 	 94.025
| 34> H 	 -38.3121 	 -2.1539 	 94.7017
| 35> C 	 -37.68 	 -3.07016 	 92.8272
| 36> H 	 -37.8025 	 -4.12134 	 93.0608
| 37> H 	 -36.8867 	 -2.88204 	 92.0769
| 38> H 	 -38.639 	 -2.75971 	 92.4535
| 39> H 	 -41.1622 	 -4.26512 	 98.0612
| 40> H 	 -33.7924 	 0.0111351 	 97.9527
| 41> *
| 42>
| 43>                          ****END OF INPUT****

CARTESIAN COORDINATES (ANGSTROEM)
---------------------------------
  S    -39.457400   -2.459690   97.711000
  C    -40.075100   -4.022460   97.908700
  C    -39.072200   -4.809260   98.365800
  C    -37.727700   -4.279720   98.151800
  C    -37.772100   -2.932050   97.711500
  H    -36.817100   -4.848910   98.179200
  C    -39.165400   -6.111460   99.143900
  H    -39.773600   -5.977130  100.106000
  H    -38.149500   -6.353760   99.573700
  C    -39.523900   -7.415130   98.377100
  H    -38.745000   -7.627160   97.699700
  H    -39.393900   -8.256420   99.026500
  C    -40.869800   -7.593020   97.679100
  H    -41.113200   -8.615240   97.337500
  H    -41.542800   -7.358260   98.475300
  H    -41.089000   -6.876610   96.910900
  S    -36.139100   -0.904853   98.456800
  C    -34.687400   -0.560738   97.590200
  C    -34.829700   -1.071100   96.335300
  C    -35.938500   -2.014550   96.221800
  C    -36.715700   -2.041430   97.369600
  H    -34.022400   -0.820054   95.644100
  C    -36.244800   -2.820350   95.034100
  H    -36.481900   -3.921240   95.259000
  H    -35.338100   -2.766590   94.447600
  C    -37.356000   -2.259960   94.176700
  H    -36.994500   -1.241200   94.025000
  H    -38.312100   -2.153900   94.701700
  C    -37.680000   -3.070160   92.827200
  H    -37.802500   -4.121340   93.060800
  H    -36.886700   -2.882040   92.076900
  H    -38.639000   -2.759710   92.453500
  H    -41.162200   -4.265120   98.061200
  H    -33.792400    0.011135   97.952700

 Total Charge           Charge          ....    0
 Multiplicity           Mult            ....    1
 Number of Electrons    NEL             ....  134
 Basis Dimension        Dim             ....  322

ORBITAL ENERGIES
----------------

  NO   OCC          E(Eh)            E(eV)
   0   2.0000     -88.964306     -2420.8419
   1   2.0000     -88.960786     -2420.7461
   2   2.0000     -10.332291      -281.1559
   3   2.0000     -10.318529      -280.7815
   4   2.0000     -10.316884      -280.7367
   5   2.0000     -10.314513      -280.6722
   6   2.0000     -10.303600      -280.3752
   7   2.0000     -10.302758      -280.3523
   8   2.0000     -10.302287      -280.3395
   9   2.0000     -10.301164      -280.3089
  10   2.0000     -10.296365      -280.1783
  11   2.0000     -10.285561      -279.8843
  12   2.0000     -10.281123      -279.7636
  13   2.0000     -10.280818      -279.7553
  14   2.0000     -10.278459      -279.6911
  15   2.0000     -10.274126      -279.5732
  16   2.0000      -8.079942      -219.8664
  17   2.0000      -8.077679      -219.8048
  18   2.0000      -6.038482      -164.3154
  19   2.0000      -6.036086      -164.2503
  20   2.0000      -6.034226      -164.1996
  21   2.0000      -6.031764      -164.1326
  22   2.0000      -6.030670      -164.1029
  23   2.0000      -6.028493      -164.0436
  24   2.0000      -1.018408       -27.7123
  25   2.0000      -0.995622       -27.0922
  26   2.0000      -0.909454       -24.7475
  27   2.0000      -0.906920       -24.6786
  28   2.0000      -0.879199       -23.9242
  29   2.0000      -0.848553       -23.0903
  30   2.0000      -0.840736       -22.8776
  31   2.0000      -0.818213       -22.2647
  32   2.0000      -0.782552       -21.2943
  33   2.0000      -0.771355       -20.9896
  34   2.0000      -0.711469       -19.3600
  35   2.0000      -0.700265       -19.0552
  36   2.0000      -0.689072       -18.7506
  37   2.0000      -0.661282       -17.9944
  38   2.0000      -0.643553       -17.5120
  39   2.0000      -0.614555       -16.7229
  40   2.0000      -0.592440       -16.1211
  41   2.0000      -0.573789       -15.6136
  42   2.0000      -0.560061       -15.2400
  43   2.0000      -0.544066       -14.8048
  44   2.0000      -0.542278       -14.7561
  45   2.0000      -0.524946       -14.2845
  46   2.0000      -0.519645       -14.1403
  47   2.0000      -0.511761       -13.9257
  48   2.0000      -0.507912       -13.8210
  49   2.0000      -0.502883       -13.6841
  50   2.0000      -0.498029       -13.5521
  51   2.0000      -0.479984       -13.0610
  52   2.0000      -0.476828       -12.9751
  53   2.0000      -0.465671       -12.6716
  54   2.0000      -0.462511       -12.5856
  55   2.0000      -0.443682       -12.0732
  56   2.0000      -0.442124       -12.0308
  57   2.0000      -0.433159       -11.7869
  58   2.0000      -0.429030       -11.6745
  59   2.0000      -0.419988       -11.4284
  60   2.0000      -0.417162       -11.3516
  61   2.0000      -0.409664       -11.1475
  62   2.0000      -0.404657       -11.0113
  63   2.0000      -0.341138        -9.2828
  64   2.0000      -0.325191        -8.8489
  65   2.0000      -0.321222        -8.7409
  66   2.0000      -0.305093        -8.3020
  67   0.0000       0.044679         1.2158
  68   0.0000       0.049130         1.3369
  69   0.0000       0.101896         2.7727
  70   0.0000       0.117582         3.1996
  71   0.0000       0.138561         3.7704

MULLIKEN ATOMIC CHARGES
-----------------------
   0 S :    0.116854
   1 C :   -0.118765
   2 C :   -0.093089
   3 C :    0.060355
   4 C :   -0.185732
   5 H :    0.019089
   6 C :   -0.002037
   7 H :    0.050009
   8 H :    0.029609
   9 C :   -0.036898
  10 H :    0.005385
  11 H :    0.013947
  12 C :   -0.039435
  13 H :    0.041689
  14 H :    0.011813
  15 H :    0.031530
  16 S :    0.120656
  17 C :   -0.129431
  18 C :   -0.032086
  19 C :   -0.050493
  20 C :   -0.140282
  21 H :    0.025312
  22 C :    0.081363
  23 H :    0.038352
  24 H :    0.007232
  25 C :   -0.098435
  26 H :    0.018659
  27 H :    0.029059
  28 C :   -0.032341
  29 H :    0.031314
  30 H :    0.041512
  31 H :    0.029548
  32 H :    0.075130
  33 H :    0.080609
Sum of atomic charges:    0.0000000

LOEWDIN ATOMIC CHARGES
----------------------
   0 S :    0.433108
   1 C :   -0.223071
   2 C :   -0.072865
   3 C :   -0.049555
   4 C :   -0.195533
   5 H :    0.030926
   6 C :   -0.039215
   7 H :    0.037601
   8 H :    0.039319
   9 C :   -0.042785
  10 H :    0.015196
  11 H :    0.023413
  12 C :   -0.067734
  13 H :    0.032845
  14 H :    0.020727
  15 H :    0.020338
  16 S :    0.446444
  17 C :   -0.200663
  18 C :   -0.079653
  19 C :   -0.052712
  20 C :   -0.236324
  21 H :    0.034376
  22 C :   -0.043876
  23 H :    0.037561
  24 H :    0.027055
  25 C :   -0.040292
  26 H :    0.021653
  27 H :    0.018666
  28 C :   -0.062417
  29 H :    0.024659
  30 H :    0.027516
  31 H :    0.024093
  32 H :    0.044547
  33 H :    0.046651

  Mayer bond orders larger than 0.100000
B(  0-S ,  1-C ) :   1.1464 B(  0-S ,  4-C ) :   1.1662 B(  1-C ,  2-C ) :   1.6131
B(  1-C , 32-H ) :   0.9608 B(  2-C ,  3-C ) :   1.2366 B(  2-C ,  6-C ) :   1.0115
B(  3-C ,  4-C ) :   1.5668 B(  3-C ,  5-H ) :   0.9949 B(  4-C , 20-C ) :   1.0295
B(  6-C ,  7-H ) :   0.9447 B(  6-C ,  8-H ) :   0.9419 B(  6-C ,  9-C ) :   1.0788
B(  9-C , 10-H ) :   0.9503 B(  9-C , 11-H ) :   0.9503 B(  9-C , 12-C ) :   1.0766
B( 12-C , 13-H ) :   0.9726 B( 12-C , 14-H ) :   0.9747 B( 12-C , 15-H ) :   0.9746
B( 16-S , 17-C ) :   1.1732 B( 16-S , 20-C ) :   1.1622 B( 17-C , 18-C ) :   1.6015
B( 17-C , 33-H ) :   0.9628 B( 18-C , 19-C ) :   1.2325 B( 18-C , 21-H ) :   0.9892
B( 19-C , 20-C ) :   1.5666 B( 19-C , 22-C ) :   1.0789 B( 22-C , 23-H ) :   0.9202
B( 22-C , 24-H ) :   0.9216 B( 22-C , 25-C ) :   1.0631 B( 25-C , 26-H ) :   0.9528
B( 25-C , 27-H ) :   0.9597 B( 25-C , 28-C ) :   1.0688 B( 28-C , 29-H ) :   0.9750
B( 28-C , 30-H ) :   0.9788 B( 28-C , 31-H ) :   0.9772

Dispersion correction           -0.014607489
FINAL SINGLE POINT ENERGY     -1339.853212633318

DIPOLE MOMENT
-------------
                                X             Y             Z
Electronic contribution:      6.39878      21.36756      13.36621
Nuclear contribution   :     -6.17518     -21.84556     -13.42208
                        -----------------------------------------
Total Dipole Moment    :      0.22360      -0.47799      -0.05587
                        -----------------------------------------
Magnitude (a.u.)       :      0.53066
Magnitude (Debye)      :      1.34882

Rotational constants in cm-1:     0.019967     0.008307     0.006922
Rotational constants in MHz :   598.591852   249.050890   207.517046

                             ****ORCA TERMINATED NORMALLY****
TOTAL RUN TIME: 0 days 0 hours 0 minutes 30 seconds 189 msec
