                         Program Version 4.2.1 -  RELEASE  -
|  1> ! wB97X-D3 SP def2-SVP
|  2> %pal
|  3> nprocs 16
|  4> end
|  5>
|  6> * xyz 0 1
|  7> S 	 -101.655 	 53.2114 	 118.535
|  8> C 	 -100.546 	 51.8373 	 118.367
|  9> C 	 -99.3705 	 52.3509 	 117.812
| 10> C 	 -99.4237 	 53.7307 	 117.396
| 11> C 	 -100.628 	 54.3835 	 117.74
| 12> H 	 -98.6581 	 54.3049 	 116.925
| 13> C 	 -98.2147 	 51.4288 	 117.455
| 14> H 	 -98.2441 	 50.5856 	 118.101
| 15> H 	 -97.3551 	 51.9274 	 117.773
| 16> C 	 -98.0742 	 51.041 	 115.968
| 17> H 	 -98.1348 	 51.9929 	 115.435
| 18> H 	 -97.0909 	 50.7034 	 115.763
| 19> C 	 -99.2436 	 50.1528 	 115.454
| 20> H 	 -100.069 	 50.3447 	 116.012
| 21> H 	 -99.501 	 50.3834 	 114.411
| 22> H 	 -99.0246 	 49.0709 	 115.531
| 23> S 	 -102.327 	 56.0645 	 116.489
| 24> C 	 -102.21 	 57.8489 	 116.767
| 25> C 	 -101.141 	 58.1801 	 117.501
| 26> C 	 -100.453 	 57.002 	 117.966
| 27> C 	 -100.976 	 55.7679 	 117.522
| 28> H 	 -100.941 	 59.1547 	 117.75
| 29> C 	 -99.2947 	 57.1235 	 118.928
| 30> H 	 -98.5739 	 56.4603 	 118.459
| 31> H 	 -99.6091 	 56.7143 	 119.881
| 32> C 	 -98.7051 	 58.538 	 119.174
| 33> H 	 -99.5019 	 59.1577 	 119.495
| 34> H 	 -98.3806 	 58.9104 	 118.207
| 35> C 	 -97.5107 	 58.6508 	 120.055
| 36> H 	 -97.1317 	 59.7098 	 120.035
| 37> H 	 -96.6669 	 58.0371 	 119.716
| 38> H 	 -97.8234 	 58.2854 	 121.048
| 39> H 	 -100.773 	 50.7254 	 118.491
| 40> H 	 -102.796 	 58.5849 	 116.261
| 41> *
| 42>
| 43>                          ****END OF INPUT****

CARTESIAN COORDINATES (ANGSTROEM)
---------------------------------
  S    -101.655000   53.211400  118.535000
  C    -100.546000   51.837300  118.367000
  C    -99.370500   52.350900  117.812000
  C    -99.423700   53.730700  117.396000
  C    -100.628000   54.383500  117.740000
  H    -98.658100   54.304900  116.925000
  C    -98.214700   51.428800  117.455000
  H    -98.244100   50.585600  118.101000
  H    -97.355100   51.927400  117.773000
  C    -98.074200   51.041000  115.968000
  H    -98.134800   51.992900  115.435000
  H    -97.090900   50.703400  115.763000
  C    -99.243600   50.152800  115.454000
  H    -100.069000   50.344700  116.012000
  H    -99.501000   50.383400  114.411000
  H    -99.024600   49.070900  115.531000
  S    -102.327000   56.064500  116.489000
  C    -102.210000   57.848900  116.767000
  C    -101.141000   58.180100  117.501000
  C    -100.453000   57.002000  117.966000
  C    -100.976000   55.767900  117.522000
  H    -100.941000   59.154700  117.750000
  C    -99.294700   57.123500  118.928000
  H    -98.573900   56.460300  118.459000
  H    -99.609100   56.714300  119.881000
  C    -98.705100   58.538000  119.174000
  H    -99.501900   59.157700  119.495000
  H    -98.380600   58.910400  118.207000
  C    -97.510700   58.650800  120.055000
  H    -97.131700   59.709800  120.035000
  H    -96.666900   58.037100  119.716000
  H    -97.823400   58.285400  121.048000
  H    -100.773000   50.725400  118.491000
  H    -102.796000   58.584900  116.261000

 Total Charge           Charge          ....    0
 Multiplicity           Mult            ....    1
 Number of Electrons    NEL             ....  134
 Basis Dimension        Dim             ....  322

ORBITAL ENERGIES
----------------

  NO   OCC          E(Eh)            E(eV)
   0   2.0000     -88.965235     -2420.8671
   1   2.0000     -88.963981     -2420.8330
   2   2.0000     -10.335011      -281.2299
   3   2.0000     -10.327187      -281.0170
   4   2.0000     -10.324556      -280.9455
   5   2.0000     -10.317611      -280.7565
   6   2.0000     -10.308680      -280.5135
   7   2.0000     -10.304758      -280.4067
   8   2.0000     -10.298161      -280.2272
   9   2.0000     -10.288389      -279.9613
  10   2.0000     -10.287707      -279.9427
  11   2.0000     -10.283664      -279.8327
  12   2.0000     -10.283474      -279.8276
  13   2.0000     -10.282652      -279.8052
  14   2.0000     -10.281233      -279.7666
  15   2.0000     -10.270415      -279.4722
  16   2.0000      -8.079380      -219.8511
  17   2.0000      -8.078435      -219.8254
  18   2.0000      -6.038030      -164.3031
  19   2.0000      -6.037074      -164.2771
  20   2.0000      -6.033647      -164.1839
  21   2.0000      -6.032927      -164.1643
  22   2.0000      -6.030301      -164.0928
  23   2.0000      -6.029109      -164.0604
  24   2.0000      -1.004552       -27.3352
  25   2.0000      -0.981140       -26.6982
  26   2.0000      -0.913022       -24.8446
  27   2.0000      -0.909389       -24.7457
  28   2.0000      -0.875118       -23.8132
  29   2.0000      -0.851776       -23.1780
  30   2.0000      -0.840268       -22.8649
  31   2.0000      -0.821193       -22.3458
  32   2.0000      -0.783867       -21.3301
  33   2.0000      -0.767658       -20.8890
  34   2.0000      -0.714952       -19.4548
  35   2.0000      -0.703597       -19.1459
  36   2.0000      -0.696223       -18.9452
  37   2.0000      -0.656304       -17.8589
  38   2.0000      -0.640086       -17.4176
  39   2.0000      -0.618254       -16.8236
  40   2.0000      -0.595467       -16.2035
  41   2.0000      -0.578554       -15.7433
  42   2.0000      -0.574174       -15.6241
  43   2.0000      -0.550240       -14.9728
  44   2.0000      -0.537709       -14.6318
  45   2.0000      -0.529103       -14.3976
  46   2.0000      -0.522317       -14.2130
  47   2.0000      -0.515777       -14.0350
  48   2.0000      -0.507436       -13.8080
  49   2.0000      -0.505576       -13.7574
  50   2.0000      -0.485392       -13.2082
  51   2.0000      -0.480500       -13.0751
  52   2.0000      -0.476746       -12.9729
  53   2.0000      -0.467021       -12.7083
  54   2.0000      -0.459026       -12.4907
  55   2.0000      -0.455639       -12.3986
  56   2.0000      -0.444540       -12.0966
  57   2.0000      -0.436187       -11.8693
  58   2.0000      -0.425881       -11.5888
  59   2.0000      -0.421159       -11.4603
  60   2.0000      -0.418272       -11.3818
  61   2.0000      -0.414961       -11.2917
  62   2.0000      -0.408631       -11.1194
  63   2.0000      -0.347324        -9.4512
  64   2.0000      -0.328044        -8.9265
  65   2.0000      -0.325930        -8.8690
  66   2.0000      -0.298044        -8.1102
  67   0.0000       0.027506         0.7485
  68   0.0000       0.064013         1.7419
  69   0.0000       0.114347         3.1115
  70   0.0000       0.122606         3.3363
  71   0.0000       0.127506         3.4696

MULLIKEN ATOMIC CHARGES
-----------------------
   0 S :    0.110504
   1 C :   -0.144453
   2 C :   -0.121129
   3 C :    0.050094
   4 C :   -0.167367
   5 H :    0.009834
   6 C :    0.093057
   7 H :    0.004531
   8 H :    0.005338
   9 C :   -0.042701
  10 H :    0.019082
  11 H :    0.020778
  12 C :   -0.020158
  13 H :    0.000451
  14 H :    0.035148
  15 H :    0.035300
  16 S :    0.099451
  17 C :   -0.057757
  18 C :   -0.006720
  19 C :   -0.064823
  20 C :   -0.164615
  21 H :   -0.009823
  22 C :    0.094901
  23 H :    0.019419
  24 H :    0.037448
  25 C :   -0.104065
  26 H :    0.028092
  27 H :    0.018007
  28 C :   -0.021884
  29 H :    0.045221
  30 H :    0.030484
  31 H :    0.031985
  32 H :    0.091687
  33 H :    0.044682
Sum of atomic charges:    0.0000000

LOEWDIN ATOMIC CHARGES
----------------------
   0 S :    0.402926
   1 C :   -0.211066
   2 C :   -0.063407
   3 C :   -0.061574
   4 C :   -0.199618
   5 H :    0.026753
   6 C :   -0.028805
   7 H :    0.021675
   8 H :    0.023831
   9 C :   -0.031473
  10 H :    0.025155
  11 H :    0.018040
  12 C :   -0.058111
  13 H :    0.008349
  14 H :    0.031114
  15 H :    0.028624
  16 S :    0.396558
  17 C :   -0.152023
  18 C :   -0.064207
  19 C :   -0.042411
  20 C :   -0.219775
  21 H :    0.021230
  22 C :   -0.032600
  23 H :    0.031366
  24 H :    0.033254
  25 C :   -0.046491
  26 H :    0.017587
  27 H :    0.021636
  28 C :   -0.062797
  29 H :    0.036282
  30 H :    0.026129
  31 H :    0.025977
  32 H :    0.052583
  33 H :    0.025288

  Mayer bond orders larger than 0.100000
B(  0-S ,  1-C ) :   1.1361 B(  0-S ,  4-C ) :   1.1639 B(  1-C ,  2-C ) :   1.5789
B(  1-C ,  4-C ) :   0.1041 B(  1-C , 32-H ) :   0.9574 B(  2-C ,  3-C ) :   1.2476
B(  2-C ,  6-C ) :   1.0361 B(  3-C ,  4-C ) :   1.5464 B(  3-C ,  5-H ) :   0.9948
B(  4-C , 20-C ) :   1.0477 B(  6-C ,  7-H ) :   0.9414 B(  6-C ,  8-H ) :   0.9284
B(  6-C ,  9-C ) :   1.0728 B(  9-C , 10-H ) :   0.9573 B(  9-C , 11-H ) :   0.9594
B(  9-C , 12-C ) :   1.0599 B( 12-C , 13-H ) :   0.9772 B( 12-C , 14-H ) :   0.9761
B( 12-C , 15-H ) :   0.9768 B( 16-S , 17-C ) :   1.1441 B( 16-S , 20-C ) :   1.1397
B( 17-C , 18-C ) :   1.6234 B( 17-C , 33-H ) :   0.9594 B( 18-C , 19-C ) :   1.2369
B( 18-C , 21-H ) :   1.0025 B( 19-C , 20-C ) :   1.5930 B( 19-C , 22-C ) :   1.0224
B( 22-C , 23-H ) :   0.9271 B( 22-C , 24-H ) :   0.9255 B( 22-C , 25-C ) :   1.0908
B( 25-C , 26-H ) :   0.9436 B( 25-C , 27-H ) :   0.9502 B( 25-C , 28-C ) :   1.0957
B( 28-C , 29-H ) :   0.9694 B( 28-C , 30-H ) :   0.9718 B( 28-C , 31-H ) :   0.9720

Dispersion correction           -0.013867769
FINAL SINGLE POINT ENERGY     -1339.864970129670

DIPOLE MOMENT
-------------
                                X             Y             Z
Electronic contribution:    -21.84848       1.39898      -1.20249
Nuclear contribution   :     22.46673      -1.13959       1.17889
                        -----------------------------------------
Total Dipole Moment    :      0.61825       0.25938      -0.02360
                        -----------------------------------------
Magnitude (a.u.)       :      0.67087
Magnitude (Debye)      :      1.70523

Rotational constants in cm-1:     0.019389     0.007681     0.006401
Rotational constants in MHz :   581.253349   230.272742   191.883754

                             ****ORCA TERMINATED NORMALLY****
TOTAL RUN TIME: 0 days 0 hours 0 minutes 34 seconds 95 msec
