                         Program Version 4.2.1 -  RELEASE  -
|  1> ! wB97X-D3 SP def2-SVP
|  2> %pal
|  3> nprocs 16
|  4> end
|  5>
|  6> * xyz 0 1
|  7> S 	 46.1178 	 11.6696 	 50.6551
|  8> C 	 45.916 	 12.2878 	 49.06
|  9> C 	 45.9418 	 13.6998 	 49.0238
| 10> C 	 46.2276 	 14.2729 	 50.2841
| 11> C 	 46.2688 	 13.3374 	 51.3089
| 12> H 	 46.3187 	 15.3723 	 50.4541
| 13> C 	 45.6764 	 14.5955 	 47.839
| 14> H 	 45.2018 	 13.9451 	 47.18
| 15> H 	 46.5317 	 14.8717 	 47.1955
| 16> C 	 44.8986 	 15.848 	 48.1315
| 17> H 	 45.478 	 16.5882 	 48.7811
| 18> H 	 44.7937 	 16.4291 	 47.2515
| 19> C 	 43.4014 	 15.568 	 48.436
| 20> H 	 43.3482 	 14.8509 	 49.25
| 21> H 	 42.83 	 16.4169 	 48.6497
| 22> H 	 43.0039 	 14.9352 	 47.523
| 23> S 	 48.0955 	 12.7528 	 53.381
| 24> C 	 48.0498 	 13.7479 	 54.8331
| 25> C 	 46.9337 	 14.5188 	 54.8584
| 26> C 	 46.1214 	 14.4606 	 53.6784
| 27> C 	 46.6877 	 13.6157 	 52.6995
| 28> H 	 46.5879 	 15.1195 	 55.7185
| 29> C 	 44.9139 	 15.4185 	 53.5191
| 30> H 	 44.8063 	 15.7262 	 52.5045
| 31> H 	 45.1812 	 16.3112 	 54.0362
| 32> C 	 43.6334 	 14.807 	 54.0843
| 33> H 	 43.7865 	 14.7179 	 55.1338
| 34> H 	 43.4433 	 13.8027 	 53.6674
| 35> C 	 42.4333 	 15.7006 	 53.8681
| 36> H 	 42.1601 	 15.8658 	 52.847
| 37> H 	 42.4969 	 16.6928 	 54.2726
| 38> H 	 41.5943 	 15.2333 	 54.4754
| 39> H 	 45.6862 	 11.6722 	 48.1967
| 40> H 	 48.6538 	 13.6739 	 55.7534
| 41> *
| 42>
| 43>                          ****END OF INPUT****

CARTESIAN COORDINATES (ANGSTROEM)
---------------------------------
  S     46.117800   11.669600   50.655100
  C     45.916000   12.287800   49.060000
  C     45.941800   13.699800   49.023800
  C     46.227600   14.272900   50.284100
  C     46.268800   13.337400   51.308900
  H     46.318700   15.372300   50.454100
  C     45.676400   14.595500   47.839000
  H     45.201800   13.945100   47.180000
  H     46.531700   14.871700   47.195500
  C     44.898600   15.848000   48.131500
  H     45.478000   16.588200   48.781100
  H     44.793700   16.429100   47.251500
  C     43.401400   15.568000   48.436000
  H     43.348200   14.850900   49.250000
  H     42.830000   16.416900   48.649700
  H     43.003900   14.935200   47.523000
  S     48.095500   12.752800   53.381000
  C     48.049800   13.747900   54.833100
  C     46.933700   14.518800   54.858400
  C     46.121400   14.460600   53.678400
  C     46.687700   13.615700   52.699500
  H     46.587900   15.119500   55.718500
  C     44.913900   15.418500   53.519100
  H     44.806300   15.726200   52.504500
  H     45.181200   16.311200   54.036200
  C     43.633400   14.807000   54.084300
  H     43.786500   14.717900   55.133800
  H     43.443300   13.802700   53.667400
  C     42.433300   15.700600   53.868100
  H     42.160100   15.865800   52.847000
  H     42.496900   16.692800   54.272600
  H     41.594300   15.233300   54.475400
  H     45.686200   11.672200   48.196700
  H     48.653800   13.673900   55.753400

 Total Charge           Charge          ....    0
 Multiplicity           Mult            ....    1
 Number of Electrons    NEL             ....  134
 Basis Dimension        Dim             ....  322

ORBITAL ENERGIES
----------------

  NO   OCC          E(Eh)            E(eV)
   0   2.0000     -88.971053     -2421.0254
   1   2.0000     -88.965267     -2420.8680
   2   2.0000     -10.333946      -281.2010
   3   2.0000     -10.331587      -281.1368
   4   2.0000     -10.317695      -280.7588
   5   2.0000     -10.316592      -280.7287
   6   2.0000     -10.303523      -280.3731
   7   2.0000     -10.301784      -280.3258
   8   2.0000     -10.296585      -280.1843
   9   2.0000     -10.291204      -280.0379
  10   2.0000     -10.290068      -280.0070
  11   2.0000     -10.287276      -279.9310
  12   2.0000     -10.286540      -279.9110
  13   2.0000     -10.282990      -279.8144
  14   2.0000     -10.282063      -279.7892
  15   2.0000     -10.274982      -279.5965
  16   2.0000      -8.085185      -220.0091
  17   2.0000      -8.079122      -219.8441
  18   2.0000      -6.043676      -164.4568
  19   2.0000      -6.039777      -164.3507
  20   2.0000      -6.037802      -164.2969
  21   2.0000      -6.036010      -164.2482
  22   2.0000      -6.033815      -164.1884
  23   2.0000      -6.029672      -164.0757
  24   2.0000      -0.999539       -27.1988
  25   2.0000      -0.980139       -26.6709
  26   2.0000      -0.916361       -24.9354
  27   2.0000      -0.909702       -24.7542
  28   2.0000      -0.865262       -23.5450
  29   2.0000      -0.849731       -23.1223
  30   2.0000      -0.844645       -22.9840
  31   2.0000      -0.813339       -22.1321
  32   2.0000      -0.782596       -21.2955
  33   2.0000      -0.769540       -20.9402
  34   2.0000      -0.710576       -19.3357
  35   2.0000      -0.699413       -19.0320
  36   2.0000      -0.692526       -18.8446
  37   2.0000      -0.654728       -17.8161
  38   2.0000      -0.637627       -17.3507
  39   2.0000      -0.624995       -17.0070
  40   2.0000      -0.592707       -16.1284
  41   2.0000      -0.566745       -15.4219
  42   2.0000      -0.562429       -15.3045
  43   2.0000      -0.556716       -15.1490
  44   2.0000      -0.536714       -14.6047
  45   2.0000      -0.526463       -14.3258
  46   2.0000      -0.514174       -13.9914
  47   2.0000      -0.505545       -13.7566
  48   2.0000      -0.502778       -13.6813
  49   2.0000      -0.495443       -13.4817
  50   2.0000      -0.492021       -13.3886
  51   2.0000      -0.482576       -13.1316
  52   2.0000      -0.466868       -12.7041
  53   2.0000      -0.462313       -12.5802
  54   2.0000      -0.454723       -12.3736
  55   2.0000      -0.449586       -12.2339
  56   2.0000      -0.447560       -12.1787
  57   2.0000      -0.438654       -11.9364
  58   2.0000      -0.436307       -11.8725
  59   2.0000      -0.428312       -11.6550
  60   2.0000      -0.422923       -11.5083
  61   2.0000      -0.411515       -11.1979
  62   2.0000      -0.407352       -11.0846
  63   2.0000      -0.348733        -9.4895
  64   2.0000      -0.330281        -8.9874
  65   2.0000      -0.326739        -8.8910
  66   2.0000      -0.290347        -7.9007
  67   0.0000       0.029180         0.7940
  68   0.0000       0.063901         1.7388
  69   0.0000       0.110652         3.0110
  70   0.0000       0.123247         3.3537
  71   0.0000       0.128071         3.4850

MULLIKEN ATOMIC CHARGES
-----------------------
   0 S :    0.118469
   1 C :   -0.119563
   2 C :   -0.112702
   3 C :    0.024909
   4 C :   -0.157335
   5 H :    0.039032
   6 C :    0.115952
   7 H :   -0.020072
   8 H :    0.041946
   9 C :   -0.097356
  10 H :    0.039584
  11 H :    0.015864
  12 C :   -0.050185
  13 H :    0.034458
  14 H :    0.035773
  15 H :    0.037990
  16 S :    0.103242
  17 C :   -0.084562
  18 C :   -0.041160
  19 C :   -0.054739
  20 C :   -0.169327
  21 H :    0.025554
  22 C :    0.100880
  23 H :    0.003360
  24 H :    0.009717
  25 C :   -0.063221
  26 H :    0.015633
  27 H :    0.044153
  28 C :   -0.035065
  29 H :    0.029316
  30 H :    0.015368
  31 H :    0.037831
  32 H :    0.050966
  33 H :    0.065289
Sum of atomic charges:   -0.0000000

LOEWDIN ATOMIC CHARGES
----------------------
   0 S :    0.405617
   1 C :   -0.207386
   2 C :   -0.065471
   3 C :   -0.057226
   4 C :   -0.184769
   5 H :    0.040987
   6 C :   -0.035839
   7 H :    0.020471
   8 H :    0.040684
   9 C :   -0.050621
  10 H :    0.029567
  11 H :    0.021736
  12 C :   -0.060790
  13 H :    0.021250
  14 H :    0.016437
  15 H :    0.039816
  16 S :    0.385418
  17 C :   -0.191051
  18 C :   -0.078403
  19 C :   -0.052154
  20 C :   -0.190263
  21 H :    0.034290
  22 C :   -0.022948
  23 H :    0.021566
  24 H :    0.025138
  25 C :   -0.035900
  26 H :    0.020299
  27 H :    0.032388
  28 C :   -0.067740
  29 H :    0.020574
  30 H :    0.019799
  31 H :    0.035723
  32 H :    0.028573
  33 H :    0.040227

  Mayer bond orders larger than 0.100000
B(  0-S ,  1-C ) :   1.1550 B(  0-S ,  4-C ) :   1.1465 B(  1-C ,  2-C ) :   1.5836
B(  1-C ,  4-C ) :   0.1014 B(  1-C , 32-H ) :   0.9634 B(  2-C ,  3-C ) :   1.2715
B(  2-C ,  6-C ) :   1.0154 B(  3-C ,  4-C ) :   1.5681 B(  3-C ,  5-H ) :   0.9756
B(  4-C , 20-C ) :   1.0404 B(  6-C ,  7-H ) :   0.9259 B(  6-C ,  8-H ) :   0.9270
B(  6-C ,  9-C ) :   1.0930 B(  9-C , 10-H ) :   0.9465 B(  9-C , 11-H ) :   0.9483
B(  9-C , 12-C ) :   1.0573 B( 12-C , 13-H ) :   0.9804 B( 12-C , 14-H ) :   0.9771
B( 12-C , 15-H ) :   0.9704 B( 16-S , 17-C ) :   1.1353 B( 16-S , 20-C ) :   1.1295
B( 17-C , 18-C ) :   1.6304 B( 17-C , 33-H ) :   0.9594 B( 18-C , 19-C ) :   1.2579
B( 18-C , 21-H ) :   0.9753 B( 19-C , 20-C ) :   1.5965 B( 19-C , 22-C ) :   1.0305
B( 22-C , 23-H ) :   0.9365 B( 22-C , 24-H ) :   0.9349 B( 22-C , 25-C ) :   1.0658
B( 25-C , 26-H ) :   0.9525 B( 25-C , 27-H ) :   0.9561 B( 25-C , 28-C ) :   1.0931
B( 28-C , 29-H ) :   0.9745 B( 28-C , 30-H ) :   0.9694 B( 28-C , 31-H ) :   0.9725

Dispersion correction           -0.014427689
FINAL SINGLE POINT ENERGY     -1339.869963705191

DIPOLE MOMENT
-------------
                                X             Y             Z
Electronic contribution:     21.58836     -20.06557       6.18630
Nuclear contribution   :    -21.98238      20.67115      -6.34335
                        -----------------------------------------
Total Dipole Moment    :     -0.39402       0.60557      -0.15705
                        -----------------------------------------
Magnitude (a.u.)       :      0.73935
Magnitude (Debye)      :      1.87927

Rotational constants in cm-1:     0.016280     0.010039     0.007214
Rotational constants in MHz :   488.054171   300.948519   216.262776

                             ****ORCA TERMINATED NORMALLY****
TOTAL RUN TIME: 0 days 0 hours 0 minutes 36 seconds 111 msec
