                         Program Version 4.2.1 -  RELEASE  -
|  1> ! wB97X-D3 SP def2-SVP
|  2> %pal
|  3> nprocs 16
|  4> end
|  5>
|  6> * xyz 0 1
|  7> S 	 69.719 	 25.0313 	 76.376
|  8> C 	 70.7544 	 24.2806 	 77.5765
|  9> C 	 71.9077 	 24.9999 	 77.8319
| 10> C 	 72.0092 	 26.1184 	 76.8934
| 11> C 	 70.8924 	 26.3473 	 76.1276
| 12> H 	 72.9065 	 26.6585 	 76.88
| 13> C 	 73.0575 	 24.6199 	 78.7844
| 14> H 	 73.8667 	 24.2815 	 78.1829
| 15> H 	 72.7765 	 23.7411 	 79.3041
| 16> C 	 73.5714 	 25.6854 	 79.7495
| 17> H 	 74.2404 	 25.1359 	 80.4841
| 18> H 	 74.0345 	 26.5278 	 79.2513
| 19> C 	 72.492 	 26.2345 	 80.7466
| 20> H 	 71.7915 	 26.8917 	 80.2997
| 21> H 	 71.959 	 25.4041 	 81.1991
| 22> H 	 72.9071 	 26.9425 	 81.4902
| 23> S 	 69.7576 	 26.8235 	 73.7601
| 24> C 	 69.7223 	 28.4945 	 73.0324
| 25> C 	 70.5128 	 29.3693 	 73.8166
| 26> C 	 71.1362 	 28.7363 	 74.9673
| 27> C 	 70.7387 	 27.3971 	 75.1446
| 28> H 	 70.5345 	 30.414 	 73.4676
| 29> C 	 72.1864 	 29.383 	 75.8316
| 30> H 	 73.0161 	 28.7308 	 75.9733
| 31> H 	 71.9081 	 29.4525 	 76.8512
| 32> C 	 72.6082 	 30.8159 	 75.2495
| 33> H 	 71.8479 	 31.5388 	 75.3543
| 34> H 	 72.9205 	 30.6339 	 74.2471
| 35> C 	 73.856 	 31.4194 	 76.0083
| 36> H 	 74.7387 	 30.8062 	 75.8564
| 37> H 	 73.753 	 31.6661 	 77.046
| 38> H 	 74.163 	 32.3278 	 75.543
| 39> H 	 70.4524 	 23.4436 	 78.2134
| 40> H 	 69.3345 	 28.8829 	 72.1332
| 41> *
| 42>
| 43>                          ****END OF INPUT****

CARTESIAN COORDINATES (ANGSTROEM)
---------------------------------
  S     69.719000   25.031300   76.376000
  C     70.754400   24.280600   77.576500
  C     71.907700   24.999900   77.831900
  C     72.009200   26.118400   76.893400
  C     70.892400   26.347300   76.127600
  H     72.906500   26.658500   76.880000
  C     73.057500   24.619900   78.784400
  H     73.866700   24.281500   78.182900
  H     72.776500   23.741100   79.304100
  C     73.571400   25.685400   79.749500
  H     74.240400   25.135900   80.484100
  H     74.034500   26.527800   79.251300
  C     72.492000   26.234500   80.746600
  H     71.791500   26.891700   80.299700
  H     71.959000   25.404100   81.199100
  H     72.907100   26.942500   81.490200
  S     69.757600   26.823500   73.760100
  C     69.722300   28.494500   73.032400
  C     70.512800   29.369300   73.816600
  C     71.136200   28.736300   74.967300
  C     70.738700   27.397100   75.144600
  H     70.534500   30.414000   73.467600
  C     72.186400   29.383000   75.831600
  H     73.016100   28.730800   75.973300
  H     71.908100   29.452500   76.851200
  C     72.608200   30.815900   75.249500
  H     71.847900   31.538800   75.354300
  H     72.920500   30.633900   74.247100
  C     73.856000   31.419400   76.008300
  H     74.738700   30.806200   75.856400
  H     73.753000   31.666100   77.046000
  H     74.163000   32.327800   75.543000
  H     70.452400   23.443600   78.213400
  H     69.334500   28.882900   72.133200

 Total Charge           Charge          ....    0
 Multiplicity           Mult            ....    1
 Number of Electrons    NEL             ....  134
 Basis Dimension        Dim             ....  322

ORBITAL ENERGIES
----------------

  NO   OCC          E(Eh)            E(eV)
   0   2.0000     -88.969375     -2420.9798
   1   2.0000     -88.966081     -2420.8901
   2   2.0000     -10.334846      -281.2255
   3   2.0000     -10.332649      -281.1657
   4   2.0000     -10.321386      -280.8592
   5   2.0000     -10.316177      -280.7175
   6   2.0000     -10.312890      -280.6280
   7   2.0000     -10.304751      -280.4065
   8   2.0000     -10.303353      -280.3685
   9   2.0000     -10.296542      -280.1832
  10   2.0000     -10.292574      -280.0752
  11   2.0000     -10.292228      -280.0658
  12   2.0000     -10.292203      -280.0651
  13   2.0000     -10.291157      -280.0366
  14   2.0000     -10.275854      -279.6202
  15   2.0000     -10.275268      -279.6043
  16   2.0000      -8.083310      -219.9581
  17   2.0000      -8.078807      -219.8355
  18   2.0000      -6.042088      -164.4136
  19   2.0000      -6.037979      -164.3018
  20   2.0000      -6.037598      -164.2914
  21   2.0000      -6.033758      -164.1869
  22   2.0000      -6.033582      -164.1821
  23   2.0000      -6.029384      -164.0679
  24   2.0000      -0.999943       -27.2098
  25   2.0000      -0.971165       -26.4267
  26   2.0000      -0.910651       -24.7801
  27   2.0000      -0.900968       -24.5166
  28   2.0000      -0.868787       -23.6409
  29   2.0000      -0.848877       -23.0991
  30   2.0000      -0.839371       -22.8404
  31   2.0000      -0.815932       -22.2026
  32   2.0000      -0.784942       -21.3593
  33   2.0000      -0.773342       -21.0437
  34   2.0000      -0.717557       -19.5257
  35   2.0000      -0.708178       -19.2705
  36   2.0000      -0.695165       -18.9164
  37   2.0000      -0.652993       -17.7688
  38   2.0000      -0.636478       -17.3194
  39   2.0000      -0.629972       -17.1424
  40   2.0000      -0.592984       -16.1359
  41   2.0000      -0.572400       -15.5758
  42   2.0000      -0.566806       -15.4236
  43   2.0000      -0.558494       -15.1974
  44   2.0000      -0.539071       -14.6689
  45   2.0000      -0.525613       -14.3027
  46   2.0000      -0.513759       -13.9801
  47   2.0000      -0.507628       -13.8133
  48   2.0000      -0.502661       -13.6781
  49   2.0000      -0.496942       -13.5225
  50   2.0000      -0.489170       -13.3110
  51   2.0000      -0.482826       -13.1384
  52   2.0000      -0.472356       -12.8535
  53   2.0000      -0.460338       -12.5264
  54   2.0000      -0.456227       -12.4146
  55   2.0000      -0.448709       -12.2100
  56   2.0000      -0.447285       -12.1712
  57   2.0000      -0.440195       -11.9783
  58   2.0000      -0.437078       -11.8935
  59   2.0000      -0.429308       -11.6821
  60   2.0000      -0.427459       -11.6318
  61   2.0000      -0.412297       -11.2192
  62   2.0000      -0.408447       -11.1144
  63   2.0000      -0.356889        -9.7114
  64   2.0000      -0.330492        -8.9931
  65   2.0000      -0.327117        -8.9013
  66   2.0000      -0.282772        -7.6946
  67   0.0000       0.017452         0.4749
  68   0.0000       0.075072         2.0428
  69   0.0000       0.096028         2.6131
  70   0.0000       0.119287         3.2460
  71   0.0000       0.127701         3.4749

MULLIKEN ATOMIC CHARGES
-----------------------
   0 S :    0.113734
   1 C :   -0.129561
   2 C :   -0.099026
   3 C :    0.000290
   4 C :   -0.083221
   5 H :   -0.015574
   6 C :    0.112789
   7 H :    0.035206
   8 H :   -0.001725
   9 C :   -0.099673
  10 H :    0.045654
  11 H :    0.038143
  12 C :   -0.060777
  13 H :    0.025073
  14 H :    0.032249
  15 H :    0.033317
  16 S :    0.075547
  17 C :   -0.057814
  18 C :   -0.084679
  19 C :   -0.018581
  20 C :   -0.137529
  21 H :    0.039737
  22 C :    0.064618
  23 H :    0.021813
  24 H :    0.018105
  25 C :   -0.074504
  26 H :    0.039433
  27 H :    0.037294
  28 C :   -0.033344
  29 H :    0.023124
  30 H :    0.032397
  31 H :    0.015885
  32 H :    0.054341
  33 H :    0.037259
Sum of atomic charges:   -0.0000000

LOEWDIN ATOMIC CHARGES
----------------------
   0 S :    0.390299
   1 C :   -0.198756
   2 C :   -0.057139
   3 C :   -0.058889
   4 C :   -0.185614
   5 H :    0.017551
   6 C :   -0.029788
   7 H :    0.034439
   8 H :    0.024843
   9 C :   -0.040317
  10 H :    0.037615
  11 H :    0.021187
  12 C :   -0.069743
  13 H :    0.018030
  14 H :    0.024228
  15 H :    0.029917
  16 S :    0.362684
  17 C :   -0.167470
  18 C :   -0.071833
  19 C :   -0.053952
  20 C :   -0.171394
  21 H :    0.039113
  22 C :   -0.030842
  23 H :    0.026588
  24 H :    0.029232
  25 C :   -0.021176
  26 H :    0.020048
  27 H :    0.024223
  28 C :   -0.065531
  29 H :    0.023525
  30 H :    0.021582
  31 H :    0.022355
  32 H :    0.031734
  33 H :    0.023249

  Mayer bond orders larger than 0.100000
B(  0-S ,  1-C ) :   1.1245 B(  0-S ,  4-C ) :   1.1206 B(  1-C ,  2-C ) :   1.6467
B(  1-C , 32-H ) :   0.9560 B(  2-C ,  3-C ) :   1.2192 B(  2-C ,  6-C ) :   1.0201
B(  3-C ,  4-C ) :   1.5722 B(  3-C ,  5-H ) :   1.0023 B(  4-C , 20-C ) :   1.0917
B(  6-C ,  7-H ) :   0.9368 B(  6-C ,  8-H ) :   0.9334 B(  6-C ,  9-C ) :   1.0743
B(  9-C , 10-H ) :   0.9577 B(  9-C , 11-H ) :   0.9581 B(  9-C , 12-C ) :   1.0705
B( 12-C , 13-H ) :   0.9739 B( 12-C , 14-H ) :   0.9774 B( 12-C , 15-H ) :   0.9753
B( 16-S , 17-C ) :   1.1252 B( 16-S , 20-C ) :   1.1179 B( 17-C , 18-C ) :   1.6365
B( 17-C , 20-C ) :   0.1046 B( 17-C , 33-H ) :   0.9659 B( 18-C , 19-C ) :   1.2229
B( 18-C , 21-H ) :   0.9786 B( 19-C , 20-C ) :   1.5900 B( 19-C , 22-C ) :   1.0385
B( 22-C , 23-H ) :   0.9365 B( 22-C , 24-H ) :   0.9190 B( 22-C , 25-C ) :   1.0755
B( 25-C , 26-H ) :   0.9550 B( 25-C , 27-H ) :   0.9545 B( 25-C , 28-C ) :   1.0861
B( 28-C , 29-H ) :   0.9751 B( 28-C , 30-H ) :   0.9775 B( 28-C , 31-H ) :   0.9715

Dispersion correction           -0.013687362
FINAL SINGLE POINT ENERGY     -1339.856228845940

DIPOLE MOMENT
-------------
                                X             Y             Z
Electronic contribution:    -20.97404     -14.73811     -18.13256
Nuclear contribution   :     21.64534      15.13537      18.50211
                        -----------------------------------------
Total Dipole Moment    :      0.67130       0.39726       0.36954
                        -----------------------------------------
Magnitude (a.u.)       :      0.86315
Magnitude (Debye)      :      2.19396

Rotational constants in cm-1:     0.015978     0.009525     0.006251
Rotational constants in MHz :   479.015376   285.545175   187.385985

                             ****ORCA TERMINATED NORMALLY****
TOTAL RUN TIME: 0 days 0 hours 0 minutes 28 seconds 57 msec
