                         Program Version 4.2.1 -  RELEASE  -
|  1> ! wB97X-D3 SP def2-SVP
|  2> %pal
|  3> nprocs 16
|  4> end
|  5>
|  6> * xyz 0 1
|  7> S 	 19.7489 	 -10.9311 	 76.6803
|  8> C 	 19.5606 	 -12.0569 	 77.9881
|  9> C 	 19.569 	 -11.432 	 79.2329
| 10> C 	 19.7725 	 -9.9786 	 79.046
| 11> C 	 19.8585 	 -9.5595 	 77.7543
| 12> H 	 19.7967 	 -9.24703 	 79.8661
| 13> C 	 19.4416 	 -12.1038 	 80.5419
| 14> H 	 19.9212 	 -11.4357 	 81.3351
| 15> H 	 19.96 	 -13.0424 	 80.4153
| 16> C 	 17.9531 	 -12.5536 	 80.9236
| 17> H 	 17.3586 	 -11.6188 	 81.0425
| 18> H 	 17.5281 	 -13.0623 	 80.074
| 19> C 	 17.8647 	 -13.3822 	 82.1685
| 20> H 	 18.4852 	 -14.2918 	 82.1165
| 21> H 	 18.1595 	 -12.8132 	 83.0372
| 22> H 	 16.7798 	 -13.5769 	 82.2667
| 23> S 	 18.7667 	 -7.28815 	 76.7455
| 24> C 	 19.7401 	 -5.94588 	 76.3293
| 25> C 	 21.0479 	 -6.09052 	 76.8029
| 26> C 	 21.2985 	 -7.35368 	 77.4771
| 27> C 	 20.1454 	 -8.18266 	 77.3424
| 28> H 	 21.8048 	 -5.37965 	 76.7059
| 29> C 	 22.7025 	 -7.76694 	 77.9192
| 30> H 	 23.4404 	 -7.15445 	 77.4226
| 31> H 	 22.8173 	 -8.8057 	 77.5715
| 32> C 	 22.9621 	 -7.69065 	 79.4607
| 33> H 	 22.1026 	 -8.26194 	 79.8921
| 34> H 	 23.0939 	 -6.65325 	 79.8732
| 35> C 	 24.1257 	 -8.53809 	 79.9737
| 36> H 	 25.1186 	 -8.21646 	 79.7447
| 37> H 	 24.0454 	 -9.50968 	 79.4881
| 38> H 	 24.0972 	 -8.71561 	 81.0094
| 39> H 	 19.5796 	 -13.1577 	 77.918
| 40> H 	 19.4236 	 -5.09295 	 75.7851
| 41> *
| 42>
| 43>                          ****END OF INPUT****

CARTESIAN COORDINATES (ANGSTROEM)
---------------------------------
  S     19.748900  -10.931100   76.680300
  C     19.560600  -12.056900   77.988100
  C     19.569000  -11.432000   79.232900
  C     19.772500   -9.978600   79.046000
  C     19.858500   -9.559500   77.754300
  H     19.796700   -9.247030   79.866100
  C     19.441600  -12.103800   80.541900
  H     19.921200  -11.435700   81.335100
  H     19.960000  -13.042400   80.415300
  C     17.953100  -12.553600   80.923600
  H     17.358600  -11.618800   81.042500
  H     17.528100  -13.062300   80.074000
  C     17.864700  -13.382200   82.168500
  H     18.485200  -14.291800   82.116500
  H     18.159500  -12.813200   83.037200
  H     16.779800  -13.576900   82.266700
  S     18.766700   -7.288150   76.745500
  C     19.740100   -5.945880   76.329300
  C     21.047900   -6.090520   76.802900
  C     21.298500   -7.353680   77.477100
  C     20.145400   -8.182660   77.342400
  H     21.804800   -5.379650   76.705900
  C     22.702500   -7.766940   77.919200
  H     23.440400   -7.154450   77.422600
  H     22.817300   -8.805700   77.571500
  C     22.962100   -7.690650   79.460700
  H     22.102600   -8.261940   79.892100
  H     23.093900   -6.653250   79.873200
  C     24.125700   -8.538090   79.973700
  H     25.118600   -8.216460   79.744700
  H     24.045400   -9.509680   79.488100
  H     24.097200   -8.715610   81.009400
  H     19.579600  -13.157700   77.918000
  H     19.423600   -5.092950   75.785100

 Total Charge           Charge          ....    0
 Multiplicity           Mult            ....    1
 Number of Electrons    NEL             ....  134
 Basis Dimension        Dim             ....  322

ORBITAL ENERGIES
----------------

  NO   OCC          E(Eh)            E(eV)
   0   2.0000     -88.966144     -2420.8919
   1   2.0000     -88.965809     -2420.8827
   2   2.0000     -10.328202      -281.0447
   3   2.0000     -10.325477      -280.9705
   4   2.0000     -10.316499      -280.7262
   5   2.0000     -10.312872      -280.6275
   6   2.0000     -10.309957      -280.5482
   7   2.0000     -10.303013      -280.3592
   8   2.0000     -10.297320      -280.2043
   9   2.0000     -10.296032      -280.1693
  10   2.0000     -10.295663      -280.1592
  11   2.0000     -10.292413      -280.0708
  12   2.0000     -10.291155      -280.0366
  13   2.0000     -10.289595      -279.9941
  14   2.0000     -10.280218      -279.7390
  15   2.0000     -10.267962      -279.4054
  16   2.0000      -8.081193      -219.9004
  17   2.0000      -8.081016      -219.8956
  18   2.0000      -6.039637      -164.3469
  19   2.0000      -6.039608      -164.3461
  20   2.0000      -6.035504      -164.2344
  21   2.0000      -6.035409      -164.2318
  22   2.0000      -6.032130      -164.1426
  23   2.0000      -6.031742      -164.1320
  24   2.0000      -1.004242       -27.3268
  25   2.0000      -0.982309       -26.7300
  26   2.0000      -0.910462       -24.7749
  27   2.0000      -0.904358       -24.6088
  28   2.0000      -0.868957       -23.6455
  29   2.0000      -0.851928       -23.1821
  30   2.0000      -0.849961       -23.1286
  31   2.0000      -0.812778       -22.1168
  32   2.0000      -0.781895       -21.2765
  33   2.0000      -0.767706       -20.8903
  34   2.0000      -0.700306       -19.0563
  35   2.0000      -0.697930       -18.9916
  36   2.0000      -0.687883       -18.7183
  37   2.0000      -0.663708       -18.0604
  38   2.0000      -0.639983       -17.4148
  39   2.0000      -0.615528       -16.7494
  40   2.0000      -0.592816       -16.1314
  41   2.0000      -0.569292       -15.4912
  42   2.0000      -0.568240       -15.4626
  43   2.0000      -0.558630       -15.2011
  44   2.0000      -0.526501       -14.3268
  45   2.0000      -0.521231       -14.1834
  46   2.0000      -0.517407       -14.0794
  47   2.0000      -0.509853       -13.8738
  48   2.0000      -0.507070       -13.7981
  49   2.0000      -0.505180       -13.7466
  50   2.0000      -0.496720       -13.5164
  51   2.0000      -0.481323       -13.0975
  52   2.0000      -0.469321       -12.7709
  53   2.0000      -0.462482       -12.5848
  54   2.0000      -0.457574       -12.4512
  55   2.0000      -0.449054       -12.2194
  56   2.0000      -0.444553       -12.0969
  57   2.0000      -0.431864       -11.7516
  58   2.0000      -0.427701       -11.6383
  59   2.0000      -0.425903       -11.5894
  60   2.0000      -0.423619       -11.5273
  61   2.0000      -0.421834       -11.4787
  62   2.0000      -0.413508       -11.2521
  63   2.0000      -0.335544        -9.1306
  64   2.0000      -0.327243        -8.9047
  65   2.0000      -0.320938        -8.7332
  66   2.0000      -0.304277        -8.2798
  67   0.0000       0.039829         1.0838
  68   0.0000       0.058988         1.6051
  69   0.0000       0.114392         3.1128
  70   0.0000       0.120313         3.2739
  71   0.0000       0.127113         3.4589

MULLIKEN ATOMIC CHARGES
-----------------------
   0 S :    0.122897
   1 C :   -0.125913
   2 C :   -0.099592
   3 C :    0.038631
   4 C :   -0.162004
   5 H :    0.025177
   6 C :    0.042902
   7 H :    0.041094
   8 H :    0.018539
   9 C :   -0.097852
  10 H :    0.032781
  11 H :    0.025523
  12 C :   -0.021429
  13 H :    0.036259
  14 H :    0.027754
  15 H :    0.041782
  16 S :    0.126593
  17 C :   -0.068536
  18 C :   -0.025906
  19 C :   -0.003786
  20 C :   -0.212504
  21 H :   -0.006613
  22 C :    0.072709
  23 H :    0.020098
  24 H :    0.035927
  25 C :   -0.100553
  26 H :    0.030886
  27 H :    0.046200
  28 C :   -0.023864
  29 H :    0.017835
  30 H :    0.016761
  31 H :    0.025740
  32 H :    0.056168
  33 H :    0.046295
Sum of atomic charges:   -0.0000000

LOEWDIN ATOMIC CHARGES
----------------------
   0 S :    0.413527
   1 C :   -0.207269
   2 C :   -0.066155
   3 C :   -0.060111
   4 C :   -0.216599
   5 H :    0.031847
   6 C :   -0.041203
   7 H :    0.038988
   8 H :    0.028901
   9 C :   -0.038608
  10 H :    0.027414
  11 H :    0.020327
  12 C :   -0.066234
  13 H :    0.026703
  14 H :    0.023744
  15 H :    0.035205
  16 S :    0.434421
  17 C :   -0.196539
  18 C :   -0.063802
  19 C :   -0.044966
  20 C :   -0.205774
  21 H :    0.018087
  22 C :   -0.028376
  23 H :    0.026702
  24 H :    0.037862
  25 C :   -0.043640
  26 H :    0.030336
  27 H :    0.029480
  28 C :   -0.065003
  29 H :    0.016244
  30 H :    0.025677
  31 H :    0.020674
  32 H :    0.034552
  33 H :    0.023590

  Mayer bond orders larger than 0.100000
B(  0-S ,  1-C ) :   1.1427 B(  0-S ,  4-C ) :   1.1393 B(  1-C ,  2-C ) :   1.6142
B(  1-C , 32-H ) :   0.9609 B(  2-C ,  3-C ) :   1.2218 B(  2-C ,  6-C ) :   1.0421
B(  3-C ,  4-C ) :   1.6098 B(  3-C ,  5-H ) :   0.9845 B(  4-C , 20-C ) :   1.0048
B(  6-C ,  7-H ) :   0.9423 B(  6-C ,  8-H ) :   0.9312 B(  6-C ,  9-C ) :   1.0524
B(  9-C , 10-H ) :   0.9543 B(  9-C , 11-H ) :   0.9575 B(  9-C , 12-C ) :   1.0898
B( 12-C , 13-H ) :   0.9724 B( 12-C , 14-H ) :   0.9722 B( 12-C , 15-H ) :   0.9707
B( 16-S , 17-C ) :   1.1661 B( 16-S , 20-C ) :   1.1759 B( 17-C , 18-C ) :   1.5791
B( 17-C , 20-C ) :   0.1044 B( 17-C , 33-H ) :   0.9744 B( 18-C , 19-C ) :   1.2615
B( 18-C , 21-H ) :   0.9947 B( 19-C , 20-C ) :   1.5616 B( 19-C , 22-C ) :   1.0433
B( 22-C , 23-H ) :   0.9396 B( 22-C , 24-H ) :   0.9371 B( 22-C , 25-C ) :   1.0573
B( 25-C , 26-H ) :   0.9560 B( 25-C , 27-H ) :   0.9562 B( 25-C , 28-C ) :   1.0820
B( 28-C , 29-H ) :   0.9742 B( 28-C , 30-H ) :   0.9711 B( 28-C , 31-H ) :   0.9754

Dispersion correction           -0.013967875
FINAL SINGLE POINT ENERGY     -1339.880865405835

DIPOLE MOMENT
-------------
                                X             Y             Z
Electronic contribution:     -9.84518       9.75435     -23.74084
Nuclear contribution   :     10.12574      -9.86423      24.24788
                        -----------------------------------------
Total Dipole Moment    :      0.28055      -0.10988       0.50703
                        -----------------------------------------
Magnitude (a.u.)       :      0.58980
Magnitude (Debye)      :      1.49916

Rotational constants in cm-1:     0.018184     0.007992     0.006557
Rotational constants in MHz :   545.134241   239.588202   196.581169

                             ****ORCA TERMINATED NORMALLY****
TOTAL RUN TIME: 0 days 0 hours 0 minutes 29 seconds 428 msec
