                         Program Version 4.2.1 -  RELEASE  -
|  1> ! wB97X-D3 SP def2-SVP
|  2> %pal
|  3> nprocs 16
|  4> end
|  5>
|  6> * xyz 0 1
|  7> S 	 -53.32 	 13.2272 	 90.0842
|  8> C 	 -52.3109 	 14.4646 	 90.8278
|  9> C 	 -51.1067 	 14.5719 	 90.1858
| 10> C 	 -50.9838 	 13.6629 	 89.1429
| 11> C 	 -52.1064 	 12.9398 	 88.8539
| 12> H 	 -50.0342 	 13.4954 	 88.5653
| 13> C 	 -49.9451 	 15.4592 	 90.5481
| 14> H 	 -50.3551 	 16.3436 	 91.0992
| 15> H 	 -49.4348 	 15.8405 	 89.654
| 16> C 	 -49.0882 	 14.7383 	 91.5477
| 17> H 	 -49.5789 	 14.6069 	 92.5547
| 18> H 	 -48.9029 	 13.7695 	 91.1226
| 19> C 	 -47.7504 	 15.4074 	 91.7567
| 20> H 	 -47.1594 	 15.1925 	 90.9459
| 21> H 	 -47.7874 	 16.4901 	 91.8515
| 22> H 	 -47.2226 	 15.0668 	 92.6187
| 23> S 	 -52.6741 	 10.4003 	 88.2485
| 24> C 	 -52.6504 	 9.75548 	 86.6881
| 25> C 	 -52.0192 	 10.6171 	 85.8283
| 26> C 	 -51.6299 	 11.8553 	 86.4944
| 27> C 	 -52.1687 	 11.9028 	 87.802
| 28> H 	 -51.8574 	 10.2973 	 84.7897
| 29> C 	 -50.9676 	 13.0264 	 85.674
| 30> H 	 -50.3952 	 12.5836 	 84.8494
| 31> H 	 -50.42 	 13.6336 	 86.3389
| 32> C 	 -52.0178 	 13.9805 	 85.1806
| 33> H 	 -51.4673 	 14.9251 	 85.1357
| 34> H 	 -52.797 	 13.9953 	 85.9524
| 35> C 	 -52.551 	 13.5007 	 83.7912
| 36> H 	 -53.0822 	 12.5221 	 84.0248
| 37> H 	 -51.848 	 13.3897 	 82.9759
| 38> H 	 -53.2987 	 14.1616 	 83.3802
| 39> H 	 -52.6349 	 15.1611 	 91.6614
| 40> H 	 -52.962 	 8.657 	 86.4168
| 41> *
| 42>
| 43>                          ****END OF INPUT****

CARTESIAN COORDINATES (ANGSTROEM)
---------------------------------
  S    -53.320000   13.227200   90.084200
  C    -52.310900   14.464600   90.827800
  C    -51.106700   14.571900   90.185800
  C    -50.983800   13.662900   89.142900
  C    -52.106400   12.939800   88.853900
  H    -50.034200   13.495400   88.565300
  C    -49.945100   15.459200   90.548100
  H    -50.355100   16.343600   91.099200
  H    -49.434800   15.840500   89.654000
  C    -49.088200   14.738300   91.547700
  H    -49.578900   14.606900   92.554700
  H    -48.902900   13.769500   91.122600
  C    -47.750400   15.407400   91.756700
  H    -47.159400   15.192500   90.945900
  H    -47.787400   16.490100   91.851500
  H    -47.222600   15.066800   92.618700
  S    -52.674100   10.400300   88.248500
  C    -52.650400    9.755480   86.688100
  C    -52.019200   10.617100   85.828300
  C    -51.629900   11.855300   86.494400
  C    -52.168700   11.902800   87.802000
  H    -51.857400   10.297300   84.789700
  C    -50.967600   13.026400   85.674000
  H    -50.395200   12.583600   84.849400
  H    -50.420000   13.633600   86.338900
  C    -52.017800   13.980500   85.180600
  H    -51.467300   14.925100   85.135700
  H    -52.797000   13.995300   85.952400
  C    -52.551000   13.500700   83.791200
  H    -53.082200   12.522100   84.024800
  H    -51.848000   13.389700   82.975900
  H    -53.298700   14.161600   83.380200
  H    -52.634900   15.161100   91.661400
  H    -52.962000    8.657000   86.416800

 Total Charge           Charge          ....    0
 Multiplicity           Mult            ....    1
 Number of Electrons    NEL             ....  134
 Basis Dimension        Dim             ....  322

ORBITAL ENERGIES
----------------

  NO   OCC          E(Eh)            E(eV)
   0   2.0000     -88.970523     -2421.0110
   1   2.0000     -88.961631     -2420.7691
   2   2.0000     -10.330607      -281.1101
   3   2.0000     -10.323519      -280.9172
   4   2.0000     -10.319009      -280.7945
   5   2.0000     -10.315769      -280.7063
   6   2.0000     -10.307982      -280.4944
   7   2.0000     -10.295302      -280.1494
   8   2.0000     -10.295026      -280.1419
   9   2.0000     -10.293949      -280.1126
  10   2.0000     -10.291014      -280.0327
  11   2.0000     -10.286252      -279.9032
  12   2.0000     -10.284449      -279.8541
  13   2.0000     -10.282087      -279.7898
  14   2.0000     -10.277485      -279.6646
  15   2.0000     -10.265665      -279.3430
  16   2.0000      -8.084760      -219.9975
  17   2.0000      -8.079646      -219.8584
  18   2.0000      -6.043330      -164.4474
  19   2.0000      -6.039354      -164.3392
  20   2.0000      -6.037867      -164.2987
  21   2.0000      -6.035462      -164.2333
  22   2.0000      -6.033570      -164.1818
  23   2.0000      -6.030619      -164.1015
  24   2.0000      -1.019550       -27.7434
  25   2.0000      -0.995712       -27.0947
  26   2.0000      -0.921690       -25.0805
  27   2.0000      -0.911508       -24.8034
  28   2.0000      -0.872604       -23.7448
  29   2.0000      -0.853127       -23.2148
  30   2.0000      -0.839437       -22.8422
  31   2.0000      -0.813629       -22.1400
  32   2.0000      -0.784292       -21.3417
  33   2.0000      -0.773959       -21.0605
  34   2.0000      -0.703060       -19.1312
  35   2.0000      -0.699304       -19.0290
  36   2.0000      -0.683770       -18.6063
  37   2.0000      -0.660414       -17.9708
  38   2.0000      -0.631451       -17.1827
  39   2.0000      -0.626286       -17.0421
  40   2.0000      -0.596610       -16.2346
  41   2.0000      -0.573214       -15.5979
  42   2.0000      -0.566103       -15.4045
  43   2.0000      -0.551535       -15.0080
  44   2.0000      -0.539001       -14.6670
  45   2.0000      -0.529167       -14.3994
  46   2.0000      -0.519892       -14.1470
  47   2.0000      -0.510228       -13.8840
  48   2.0000      -0.500741       -13.6259
  49   2.0000      -0.498119       -13.5545
  50   2.0000      -0.489655       -13.3242
  51   2.0000      -0.484201       -13.1758
  52   2.0000      -0.473744       -12.8912
  53   2.0000      -0.464059       -12.6277
  54   2.0000      -0.461066       -12.5462
  55   2.0000      -0.448780       -12.2119
  56   2.0000      -0.444367       -12.0919
  57   2.0000      -0.439577       -11.9615
  58   2.0000      -0.429043       -11.6748
  59   2.0000      -0.425804       -11.5867
  60   2.0000      -0.420647       -11.4464
  61   2.0000      -0.416298       -11.3280
  62   2.0000      -0.407557       -11.0902
  63   2.0000      -0.353048        -9.6069
  64   2.0000      -0.334586        -9.1046
  65   2.0000      -0.325638        -8.8611
  66   2.0000      -0.291268        -7.9258
  67   0.0000       0.029168         0.7937
  68   0.0000       0.080782         2.1982
  69   0.0000       0.113554         3.0900
  70   0.0000       0.116371         3.1666
  71   0.0000       0.144526         3.9328

MULLIKEN ATOMIC CHARGES
-----------------------
   0 S :    0.114838
   1 C :   -0.153929
   2 C :   -0.070919
   3 C :   -0.015428
   4 C :   -0.130819
   5 H :    0.039673
   6 C :    0.059579
   7 H :    0.020786
   8 H :    0.034198
   9 C :   -0.084775
  10 H :    0.040367
  11 H :    0.021043
  12 C :    0.012817
  13 H :    0.007359
  14 H :    0.019573
  15 H :    0.023273
  16 S :    0.126681
  17 C :   -0.132746
  18 C :   -0.052524
  19 C :   -0.086542
  20 C :   -0.152530
  21 H :    0.029533
  22 C :    0.108844
  23 H :    0.028091
  24 H :   -0.007739
  25 C :   -0.061224
  26 H :    0.028006
  27 H :    0.044852
  28 C :   -0.072087
  29 H :    0.042056
  30 H :    0.030545
  31 H :    0.028793
  32 H :    0.068913
  33 H :    0.091442
Sum of atomic charges:   -0.0000000

LOEWDIN ATOMIC CHARGES
----------------------
   0 S :    0.403201
   1 C :   -0.202690
   2 C :   -0.069356
   3 C :   -0.071145
   4 C :   -0.197122
   5 H :    0.039733
   6 C :   -0.030953
   7 H :    0.033370
   8 H :    0.031903
   9 C :   -0.038797
  10 H :    0.032224
  11 H :    0.021045
  12 C :   -0.058984
  13 H :    0.014213
  14 H :    0.023645
  15 H :    0.024206
  16 S :    0.475201
  17 C :   -0.232915
  18 C :   -0.083831
  19 C :   -0.057157
  20 C :   -0.235947
  21 H :    0.034959
  22 C :   -0.024359
  23 H :    0.031279
  24 H :    0.017932
  25 C :   -0.034463
  26 H :    0.021926
  27 H :    0.031687
  28 C :   -0.073619
  29 H :    0.035597
  30 H :    0.021305
  31 H :    0.021333
  32 H :    0.043350
  33 H :    0.053229

  Mayer bond orders larger than 0.100000
B(  0-S ,  1-C ) :   1.1338 B(  0-S ,  4-C ) :   1.1524 B(  1-C ,  2-C ) :   1.6089
B(  1-C , 32-H ) :   0.9571 B(  2-C ,  3-C ) :   1.2676 B(  2-C ,  6-C ) :   1.0260
B(  3-C ,  4-C ) :   1.5713 B(  3-C ,  5-H ) :   0.9763 B(  4-C , 20-C ) :   1.0201
B(  6-C ,  7-H ) :   0.9273 B(  6-C ,  8-H ) :   0.9475 B(  6-C ,  9-C ) :   1.0645
B(  9-C , 10-H ) :   0.9541 B(  9-C , 11-H ) :   0.9604 B(  9-C , 12-C ) :   1.0840
B( 12-C , 13-H ) :   0.9732 B( 12-C , 14-H ) :   0.9699 B( 12-C , 15-H ) :   0.9712
B( 16-S , 17-C ) :   1.1803 B( 16-S , 20-C ) :   1.2050 B( 17-C , 18-C ) :   1.5779
B( 17-C , 33-H ) :   0.9547 B( 18-C , 19-C ) :   1.2651 B( 18-C , 21-H ) :   0.9877
B( 19-C , 20-C ) :   1.5311 B( 19-C , 22-C ) :   1.0574 B( 22-C , 23-H ) :   0.9370
B( 22-C , 24-H ) :   0.9284 B( 22-C , 25-C ) :   1.0606 B( 25-C , 26-H ) :   0.9608
B( 25-C , 27-H ) :   0.9550 B( 25-C , 28-C ) :   1.0765 B( 28-C , 29-H ) :   0.9705
B( 28-C , 30-H ) :   0.9775 B( 28-C , 31-H ) :   0.9752

Dispersion correction           -0.014374623
FINAL SINGLE POINT ENERGY     -1339.862647026442

DIPOLE MOMENT
-------------
                                X             Y             Z
Electronic contribution:    -16.72097     -15.80718       6.88135
Nuclear contribution   :     17.26772      16.08817      -7.02218
                        -----------------------------------------
Total Dipole Moment    :      0.54676       0.28099      -0.14084
                        -----------------------------------------
Magnitude (a.u.)       :      0.63066
Magnitude (Debye)      :      1.60301

Rotational constants in cm-1:     0.019989     0.007984     0.006926
Rotational constants in MHz :   599.245503   239.368695   207.630244

                             ****ORCA TERMINATED NORMALLY****
TOTAL RUN TIME: 0 days 0 hours 0 minutes 30 seconds 190 msec
