                         Program Version 4.2.1 -  RELEASE  -
|  1> ! wB97X-D3 SP def2-SVP
|  2> %pal
|  3> nprocs 16
|  4> end
|  5>
|  6> * xyz 0 1
|  7> S 	 47.9778 	 22.0926 	 90.6485
|  8> C 	 46.4684 	 22.8663 	 91.1531
|  9> C 	 45.7679 	 23.4717 	 90.1512
| 10> C 	 46.4991 	 23.3912 	 88.9084
| 11> C 	 47.6561 	 22.6916 	 89.0294
| 12> H 	 46.1567 	 23.824 	 88.0173
| 13> C 	 44.3987 	 24.1301 	 90.2206
| 14> H 	 43.6164 	 23.3771 	 90.1352
| 15> H 	 44.4653 	 24.7522 	 89.3544
| 16> C 	 44.0777 	 25.0532 	 91.38
| 17> H 	 43.1268 	 25.4421 	 91.1264
| 18> H 	 44.0209 	 24.4405 	 92.3123
| 19> C 	 45.1406 	 26.0833 	 91.6895
| 20> H 	 45.2176 	 26.2722 	 92.7773
| 21> H 	 46.1649 	 25.6586 	 91.4377
| 22> H 	 44.9736 	 26.9784 	 91.1066
| 23> S 	 47.8183 	 21.0714 	 86.856
| 24> C 	 49.1377 	 21.3098 	 85.6517
| 25> C 	 49.7965 	 22.5129 	 85.9114
| 26> C 	 49.3519 	 23.08 	 87.144
| 27> C 	 48.4505 	 22.2902 	 87.8533
| 28> H 	 50.5238 	 23.0175 	 85.3033
| 29> C 	 49.9799 	 24.3229 	 87.5884
| 30> H 	 50.9966 	 24.1217 	 87.7273
| 31> H 	 49.5958 	 24.6072 	 88.6034
| 32> C 	 49.8133 	 25.5005 	 86.5741
| 33> H 	 48.7652 	 25.5408 	 86.2396
| 34> H 	 50.3585 	 25.276 	 85.6771
| 35> C 	 50.2359 	 26.8885 	 87.1908
| 36> H 	 50.226 	 27.6698 	 86.4361
| 37> H 	 51.2859 	 26.755 	 87.4605
| 38> H 	 49.6732 	 27.1821 	 88.1024
| 39> H 	 46.086 	 22.8146 	 92.1728
| 40> H 	 49.1887 	 20.9544 	 84.6224
| 41> *
| 42>
| 43>                          ****END OF INPUT****

CARTESIAN COORDINATES (ANGSTROEM)
---------------------------------
  S     47.977800   22.092600   90.648500
  C     46.468400   22.866300   91.153100
  C     45.767900   23.471700   90.151200
  C     46.499100   23.391200   88.908400
  C     47.656100   22.691600   89.029400
  H     46.156700   23.824000   88.017300
  C     44.398700   24.130100   90.220600
  H     43.616400   23.377100   90.135200
  H     44.465300   24.752200   89.354400
  C     44.077700   25.053200   91.380000
  H     43.126800   25.442100   91.126400
  H     44.020900   24.440500   92.312300
  C     45.140600   26.083300   91.689500
  H     45.217600   26.272200   92.777300
  H     46.164900   25.658600   91.437700
  H     44.973600   26.978400   91.106600
  S     47.818300   21.071400   86.856000
  C     49.137700   21.309800   85.651700
  C     49.796500   22.512900   85.911400
  C     49.351900   23.080000   87.144000
  C     48.450500   22.290200   87.853300
  H     50.523800   23.017500   85.303300
  C     49.979900   24.322900   87.588400
  H     50.996600   24.121700   87.727300
  H     49.595800   24.607200   88.603400
  C     49.813300   25.500500   86.574100
  H     48.765200   25.540800   86.239600
  H     50.358500   25.276000   85.677100
  C     50.235900   26.888500   87.190800
  H     50.226000   27.669800   86.436100
  H     51.285900   26.755000   87.460500
  H     49.673200   27.182100   88.102400
  H     46.086000   22.814600   92.172800
  H     49.188700   20.954400   84.622400

 Total Charge           Charge          ....    0
 Multiplicity           Mult            ....    1
 Number of Electrons    NEL             ....  134
 Basis Dimension        Dim             ....  322

ORBITAL ENERGIES
----------------

  NO   OCC          E(Eh)            E(eV)
   0   2.0000     -88.968442     -2420.9544
   1   2.0000     -88.965475     -2420.8736
   2   2.0000     -10.326231      -280.9910
   3   2.0000     -10.319958      -280.8203
   4   2.0000     -10.318316      -280.7757
   5   2.0000     -10.312392      -280.6144
   6   2.0000     -10.297866      -280.2192
   7   2.0000     -10.293526      -280.1011
   8   2.0000     -10.292865      -280.0831
   9   2.0000     -10.290384      -280.0156
  10   2.0000     -10.289653      -279.9957
  11   2.0000     -10.289470      -279.9907
  12   2.0000     -10.283853      -279.8379
  13   2.0000     -10.283363      -279.8245
  14   2.0000     -10.282058      -279.7890
  15   2.0000     -10.277623      -279.6683
  16   2.0000      -8.082726      -219.9422
  17   2.0000      -8.080078      -219.8701
  18   2.0000      -6.041219      -164.3899
  19   2.0000      -6.038690      -164.3211
  20   2.0000      -6.037487      -164.2884
  21   2.0000      -6.034692      -164.2123
  22   2.0000      -6.033357      -164.1760
  23   2.0000      -6.030623      -164.1016
  24   2.0000      -1.007719       -27.4214
  25   2.0000      -0.983636       -26.7661
  26   2.0000      -0.917357       -24.9625
  27   2.0000      -0.907094       -24.6833
  28   2.0000      -0.867534       -23.6068
  29   2.0000      -0.851423       -23.1684
  30   2.0000      -0.845078       -22.9957
  31   2.0000      -0.812332       -22.1047
  32   2.0000      -0.785076       -21.3630
  33   2.0000      -0.765973       -20.8432
  34   2.0000      -0.705976       -19.2106
  35   2.0000      -0.702717       -19.1219
  36   2.0000      -0.693894       -18.8818
  37   2.0000      -0.661767       -18.0076
  38   2.0000      -0.642134       -17.4733
  39   2.0000      -0.608045       -16.5457
  40   2.0000      -0.591981       -16.1086
  41   2.0000      -0.578704       -15.7473
  42   2.0000      -0.561811       -15.2877
  43   2.0000      -0.559518       -15.2253
  44   2.0000      -0.542882       -14.7726
  45   2.0000      -0.521937       -14.2026
  46   2.0000      -0.518000       -14.0955
  47   2.0000      -0.514583       -14.0025
  48   2.0000      -0.501414       -13.6442
  49   2.0000      -0.493392       -13.4259
  50   2.0000      -0.482434       -13.1277
  51   2.0000      -0.475118       -12.9286
  52   2.0000      -0.472698       -12.8628
  53   2.0000      -0.464177       -12.6309
  54   2.0000      -0.458299       -12.4710
  55   2.0000      -0.454955       -12.3800
  56   2.0000      -0.449073       -12.2199
  57   2.0000      -0.434683       -11.8283
  58   2.0000      -0.429906       -11.6983
  59   2.0000      -0.422994       -11.5102
  60   2.0000      -0.422652       -11.5009
  61   2.0000      -0.417766       -11.3680
  62   2.0000      -0.411525       -11.1982
  63   2.0000      -0.339828        -9.2472
  64   2.0000      -0.329189        -8.9577
  65   2.0000      -0.318183        -8.6582
  66   2.0000      -0.307873        -8.3777
  67   0.0000       0.044670         1.2155
  68   0.0000       0.051224         1.3939
  69   0.0000       0.107447         2.9238
  70   0.0000       0.110736         3.0133
  71   0.0000       0.127860         3.4793

MULLIKEN ATOMIC CHARGES
-----------------------
   0 S :    0.116993
   1 C :   -0.129961
   2 C :   -0.123630
   3 C :    0.050017
   4 C :   -0.175005
   5 H :   -0.004821
   6 C :    0.106553
   7 H :    0.050275
   8 H :    0.006246
   9 C :   -0.064190
  10 H :    0.025726
  11 H :    0.026593
  12 C :   -0.075116
  13 H :    0.037537
  14 H :    0.048133
  15 H :    0.035046
  16 S :    0.110269
  17 C :   -0.082673
  18 C :   -0.031404
  19 C :   -0.054436
  20 C :   -0.136186
  21 H :    0.017813
  22 C :    0.078381
  23 H :    0.021088
  24 H :    0.026065
  25 C :   -0.109544
  26 H :    0.032373
  27 H :    0.023563
  28 C :   -0.042745
  29 H :    0.034861
  30 H :    0.025506
  31 H :    0.049212
  32 H :    0.042943
  33 H :    0.064518
Sum of atomic charges:   -0.0000000

LOEWDIN ATOMIC CHARGES
----------------------
   0 S :    0.394569
   1 C :   -0.190480
   2 C :   -0.064376
   3 C :   -0.049442
   4 C :   -0.193920
   5 H :    0.024175
   6 C :   -0.027159
   7 H :    0.038130
   8 H :    0.025770
   9 C :   -0.043053
  10 H :    0.021963
  11 H :    0.025073
  12 C :   -0.073583
  13 H :    0.029891
  14 H :    0.035402
  15 H :    0.022626
  16 S :    0.418460
  17 C :   -0.182542
  18 C :   -0.060611
  19 C :   -0.058190
  20 C :   -0.224885
  21 H :    0.028662
  22 C :   -0.034572
  23 H :    0.025186
  24 H :    0.033098
  25 C :   -0.035188
  26 H :    0.023336
  27 H :    0.016921
  28 C :   -0.065432
  29 H :    0.024534
  30 H :    0.025146
  31 H :    0.031345
  32 H :    0.025555
  33 H :    0.033590

  Mayer bond orders larger than 0.100000
B(  0-S ,  1-C ) :   1.1240 B(  0-S ,  4-C ) :   1.1364 B(  1-C ,  2-C ) :   1.6516
B(  1-C , 32-H ) :   0.9653 B(  2-C ,  3-C ) :   1.2123 B(  2-C ,  6-C ) :   0.9925
B(  3-C ,  4-C ) :   1.6184 B(  3-C ,  5-H ) :   1.0054 B(  4-C , 20-C ) :   0.9882
B(  6-C ,  7-H ) :   0.9323 B(  6-C ,  8-H ) :   0.9375 B(  6-C ,  9-C ) :   1.0907
B(  9-C , 10-H ) :   0.9562 B(  9-C , 11-H ) :   0.9550 B(  9-C , 12-C ) :   1.0715
B( 12-C , 13-H ) :   0.9773 B( 12-C , 14-H ) :   0.9707 B( 12-C , 15-H ) :   0.9768
B( 16-S , 17-C ) :   1.1524 B( 16-S , 20-C ) :   1.1486 B( 17-C , 18-C ) :   1.5890
B( 17-C , 33-H ) :   0.9613 B( 18-C , 19-C ) :   1.2655 B( 18-C , 21-H ) :   0.9886
B( 19-C , 20-C ) :   1.5753 B( 19-C , 22-C ) :   1.0644 B( 22-C , 23-H ) :   0.9309
B( 22-C , 24-H ) :   0.9340 B( 22-C , 25-C ) :   1.0424 B( 25-C , 26-H ) :   0.9623
B( 25-C , 27-H ) :   0.9536 B( 25-C , 28-C ) :   1.0812 B( 28-C , 29-H ) :   0.9758
B( 28-C , 30-H ) :   0.9733 B( 28-C , 31-H ) :   0.9773

Dispersion correction           -0.014459931
FINAL SINGLE POINT ENERGY     -1339.868084671081

DIPOLE MOMENT
-------------
                                X             Y             Z
Electronic contribution:      3.42764     -26.35901      -2.81856
Nuclear contribution   :     -3.65623      27.02563       2.61625
                        -----------------------------------------
Total Dipole Moment    :     -0.22858       0.66661      -0.20231
                        -----------------------------------------
Magnitude (a.u.)       :      0.73318
Magnitude (Debye)      :      1.86360

Rotational constants in cm-1:     0.018213     0.008684     0.006920
Rotational constants in MHz :   545.998159   260.351055   207.449342

                             ****ORCA TERMINATED NORMALLY****
TOTAL RUN TIME: 0 days 0 hours 0 minutes 30 seconds 472 msec
