                         Program Version 4.2.1 -  RELEASE  -
|  1> ! wB97X-D3 SP def2-SVP
|  2> %pal
|  3> nprocs 16
|  4> end
|  5>
|  6> * xyz 0 1
|  7> S 	 -45.558 	 53.2102 	 106.365
|  8> C 	 -44.0412 	 53.2635 	 105.584
|  9> C 	 -43.3298 	 54.4787 	 105.691
| 10> C 	 -43.9688 	 55.2713 	 106.637
| 11> C 	 -45.2598 	 54.7891 	 107.011
| 12> H 	 -43.7151 	 56.2596 	 107.074
| 13> C 	 -41.9361 	 54.7025 	 105.135
| 14> H 	 -41.6416 	 53.9488 	 104.372
| 15> H 	 -41.1887 	 54.5955 	 105.949
| 16> C 	 -41.7805 	 56.0682 	 104.426
| 17> H 	 -41.982 	 56.8915 	 105.206
| 18> H 	 -40.8564 	 56.1916 	 103.931
| 19> C 	 -42.8476 	 56.3191 	 103.372
| 20> H 	 -43.9188 	 56.3826 	 103.712
| 21> H 	 -42.6614 	 57.2104 	 102.854
| 22> H 	 -42.8639 	 55.5266 	 102.582
| 23> S 	 -46.8621 	 54.425 	 109.256
| 24> C 	 -47.845 	 55.6942 	 109.795
| 25> C 	 -47.6115 	 56.8789 	 109.109
| 26> C 	 -46.6682 	 56.702 	 108.048
| 27> C 	 -46.151 	 55.4305 	 107.987
| 28> H 	 -48.08 	 57.8139 	 109.391
| 29> C 	 -46.5035 	 57.9075 	 107.091
| 30> H 	 -45.4402 	 58.1398 	 107.177
| 31> H 	 -46.9971 	 58.7445 	 107.569
| 32> C 	 -47.0835 	 57.7922 	 105.664
| 33> H 	 -46.5317 	 56.9722 	 105.157
| 34> H 	 -47.0568 	 58.712 	 105.144
| 35> C 	 -48.5754 	 57.4928 	 105.696
| 36> H 	 -49.1271 	 57.9481 	 104.876
| 37> H 	 -49.0613 	 57.8994 	 106.676
| 38> H 	 -48.7861 	 56.4265 	 105.687
| 39> H 	 -43.7717 	 52.388 	 105.076
| 40> H 	 -48.3859 	 55.6505 	 110.686
| 41> *
| 42>
| 43>                          ****END OF INPUT****

CARTESIAN COORDINATES (ANGSTROEM)
---------------------------------
  S    -45.558000   53.210200  106.365000
  C    -44.041200   53.263500  105.584000
  C    -43.329800   54.478700  105.691000
  C    -43.968800   55.271300  106.637000
  C    -45.259800   54.789100  107.011000
  H    -43.715100   56.259600  107.074000
  C    -41.936100   54.702500  105.135000
  H    -41.641600   53.948800  104.372000
  H    -41.188700   54.595500  105.949000
  C    -41.780500   56.068200  104.426000
  H    -41.982000   56.891500  105.206000
  H    -40.856400   56.191600  103.931000
  C    -42.847600   56.319100  103.372000
  H    -43.918800   56.382600  103.712000
  H    -42.661400   57.210400  102.854000
  H    -42.863900   55.526600  102.582000
  S    -46.862100   54.425000  109.256000
  C    -47.845000   55.694200  109.795000
  C    -47.611500   56.878900  109.109000
  C    -46.668200   56.702000  108.048000
  C    -46.151000   55.430500  107.987000
  H    -48.080000   57.813900  109.391000
  C    -46.503500   57.907500  107.091000
  H    -45.440200   58.139800  107.177000
  H    -46.997100   58.744500  107.569000
  C    -47.083500   57.792200  105.664000
  H    -46.531700   56.972200  105.157000
  H    -47.056800   58.712000  105.144000
  C    -48.575400   57.492800  105.696000
  H    -49.127100   57.948100  104.876000
  H    -49.061300   57.899400  106.676000
  H    -48.786100   56.426500  105.687000
  H    -43.771700   52.388000  105.076000
  H    -48.385900   55.650500  110.686000

 Total Charge           Charge          ....    0
 Multiplicity           Mult            ....    1
 Number of Electrons    NEL             ....  134
 Basis Dimension        Dim             ....  322

ORBITAL ENERGIES
----------------

  NO   OCC          E(Eh)            E(eV)
   0   2.0000     -88.971248     -2421.0307
   1   2.0000     -88.964741     -2420.8537
   2   2.0000     -10.328386      -281.0497
   3   2.0000     -10.325257      -280.9645
   4   2.0000     -10.309797      -280.5438
   5   2.0000     -10.309046      -280.5234
   6   2.0000     -10.305429      -280.4250
   7   2.0000     -10.301181      -280.3094
   8   2.0000     -10.299170      -280.2547
   9   2.0000     -10.298099      -280.2255
  10   2.0000     -10.291574      -280.0480
  11   2.0000     -10.291373      -280.0425
  12   2.0000     -10.290516      -280.0192
  13   2.0000     -10.283147      -279.8187
  14   2.0000     -10.276421      -279.6356
  15   2.0000     -10.273524      -279.5568
  16   2.0000      -8.086862      -220.0547
  17   2.0000      -8.080339      -219.8772
  18   2.0000      -6.044897      -164.4900
  19   2.0000      -6.041257      -164.3910
  20   2.0000      -6.038698      -164.3213
  21   2.0000      -6.038084      -164.3046
  22   2.0000      -6.034658      -164.2114
  23   2.0000      -6.031282      -164.1195
  24   2.0000      -1.009524       -27.4706
  25   2.0000      -0.989350       -26.9216
  26   2.0000      -0.912473       -24.8297
  27   2.0000      -0.906959       -24.6796
  28   2.0000      -0.865618       -23.5547
  29   2.0000      -0.854966       -23.2648
  30   2.0000      -0.847264       -23.0552
  31   2.0000      -0.808734       -22.0068
  32   2.0000      -0.782297       -21.2874
  33   2.0000      -0.772079       -21.0093
  34   2.0000      -0.705194       -19.1893
  35   2.0000      -0.694734       -18.9047
  36   2.0000      -0.685873       -18.6635
  37   2.0000      -0.663646       -18.0587
  38   2.0000      -0.644931       -17.5495
  39   2.0000      -0.619877       -16.8677
  40   2.0000      -0.587007       -15.9733
  41   2.0000      -0.566197       -15.4070
  42   2.0000      -0.560999       -15.2656
  43   2.0000      -0.552511       -15.0346
  44   2.0000      -0.548414       -14.9231
  45   2.0000      -0.544696       -14.8219
  46   2.0000      -0.513677       -13.9779
  47   2.0000      -0.508124       -13.8268
  48   2.0000      -0.492799       -13.4098
  49   2.0000      -0.489953       -13.3323
  50   2.0000      -0.483432       -13.1549
  51   2.0000      -0.475932       -12.9508
  52   2.0000      -0.469701       -12.7812
  53   2.0000      -0.463949       -12.6247
  54   2.0000      -0.460691       -12.5360
  55   2.0000      -0.451142       -12.2762
  56   2.0000      -0.443785       -12.0760
  57   2.0000      -0.440376       -11.9832
  58   2.0000      -0.433355       -11.7922
  59   2.0000      -0.429758       -11.6943
  60   2.0000      -0.414669       -11.2837
  61   2.0000      -0.411285       -11.1916
  62   2.0000      -0.408634       -11.1195
  63   2.0000      -0.346687        -9.4338
  64   2.0000      -0.338391        -9.2081
  65   2.0000      -0.330845        -9.0027
  66   2.0000      -0.285487        -7.7685
  67   0.0000       0.028102         0.7647
  68   0.0000       0.071605         1.9485
  69   0.0000       0.113825         3.0973
  70   0.0000       0.119413         3.2494
  71   0.0000       0.127679         3.4743

MULLIKEN ATOMIC CHARGES
-----------------------
   0 S :    0.135699
   1 C :   -0.123358
   2 C :   -0.040714
   3 C :    0.003820
   4 C :   -0.183042
   5 H :    0.027530
   6 C :    0.061156
   7 H :    0.024536
   8 H :    0.051389
   9 C :   -0.078124
  10 H :    0.038106
  11 H :    0.029704
  12 C :   -0.072193
  13 H :    0.049699
  14 H :    0.020140
  15 H :    0.021676
  16 S :    0.109594
  17 C :   -0.067967
  18 C :   -0.045531
  19 C :   -0.054952
  20 C :   -0.171145
  21 H :    0.019856
  22 C :    0.076435
  23 H :    0.025997
  24 H :    0.005155
  25 C :   -0.028635
  26 H :    0.055622
  27 H :    0.026456
  28 C :   -0.093622
  29 H :    0.034332
  30 H :    0.030966
  31 H :    0.041061
  32 H :    0.031128
  33 H :    0.039224
Sum of atomic charges:   -0.0000000

LOEWDIN ATOMIC CHARGES
----------------------
   0 S :    0.443759
   1 C :   -0.198022
   2 C :   -0.063241
   3 C :   -0.061074
   4 C :   -0.210188
   5 H :    0.036765
   6 C :   -0.032236
   7 H :    0.032142
   8 H :    0.037667
   9 C :   -0.041728
  10 H :    0.030958
  11 H :    0.020951
  12 C :   -0.072606
  13 H :    0.031738
  14 H :    0.016969
  15 H :    0.023820
  16 S :    0.420770
  17 C :   -0.192295
  18 C :   -0.073039
  19 C :   -0.056945
  20 C :   -0.202118
  21 H :    0.029548
  22 C :   -0.027382
  23 H :    0.027931
  24 H :    0.024455
  25 C :   -0.038526
  26 H :    0.031981
  27 H :    0.022564
  28 C :   -0.071888
  29 H :    0.023252
  30 H :    0.031734
  31 H :    0.026070
  32 H :    0.010614
  33 H :    0.017599

  Mayer bond orders larger than 0.100000
B(  0-S ,  1-C ) :   1.1875 B(  0-S ,  4-C ) :   1.1774 B(  1-C ,  2-C ) :   1.5273
B(  1-C ,  4-C ) :   0.1094 B(  1-C , 32-H ) :   0.9759 B(  2-C ,  3-C ) :   1.2771
B(  2-C ,  6-C ) :   1.0259 B(  3-C ,  4-C ) :   1.5342 B(  3-C ,  5-H ) :   0.9838
B(  4-C , 20-C ) :   1.0516 B(  6-C ,  7-H ) :   0.9425 B(  6-C ,  8-H ) :   0.9451
B(  6-C ,  9-C ) :   1.0678 B(  9-C , 10-H ) :   0.9539 B(  9-C , 11-H ) :   0.9591
B(  9-C , 12-C ) :   1.0789 B( 12-C , 13-H ) :   0.9689 B( 12-C , 14-H ) :   0.9724
B( 12-C , 15-H ) :   0.9727 B( 16-S , 17-C ) :   1.1786 B( 16-S , 20-C ) :   1.1375
B( 17-C , 18-C ) :   1.5854 B( 17-C , 33-H ) :   0.9708 B( 18-C , 19-C ) :   1.2634
B( 18-C , 21-H ) :   0.9880 B( 19-C , 20-C ) :   1.6009 B( 19-C , 22-C ) :   1.0194
B( 22-C , 23-H ) :   0.9332 B( 22-C , 24-H ) :   0.9352 B( 22-C , 25-C ) :   1.0766
B( 25-C , 26-H ) :   0.9555 B( 25-C , 27-H ) :   0.9590 B( 25-C , 28-C ) :   1.0605
B( 28-C , 29-H ) :   0.9785 B( 28-C , 30-H ) :   0.9752 B( 28-C , 31-H ) :   0.9744

Dispersion correction           -0.015570490
FINAL SINGLE POINT ENERGY     -1339.879005126985

DIPOLE MOMENT
-------------
                                X             Y             Z
Electronic contribution:     -6.16586     -18.54247      17.79930
Nuclear contribution   :      6.39367      18.95151     -18.00411
                        -----------------------------------------
Total Dipole Moment    :      0.22780       0.40904      -0.20480
                        -----------------------------------------
Magnitude (a.u.)       :      0.51103
Magnitude (Debye)      :      1.29894

Rotational constants in cm-1:     0.019871     0.009536     0.007563
Rotational constants in MHz :   595.706459   285.883903   226.719824

                             ****ORCA TERMINATED NORMALLY****
TOTAL RUN TIME: 0 days 0 hours 0 minutes 31 seconds 664 msec
