                         Program Version 4.2.1 -  RELEASE  -
|  1> ! wB97X-D3 SP def2-SVP
|  2> %pal
|  3> nprocs 16
|  4> end
|  5>
|  6> * xyz 0 1
|  7> S 	 2.1716 	 14.218 	 87.2212
|  8> C 	 1.55148 	 14.4868 	 85.641
|  9> C 	 2.40992 	 15.3316 	 84.967
| 10> C 	 3.71171 	 15.3164 	 85.5504
| 11> C 	 3.76201 	 14.8063 	 86.8022
| 12> H 	 4.5989 	 15.6873 	 85.0874
| 13> C 	 2.1244 	 15.9272 	 83.5767
| 14> H 	 3.06128 	 16.4326 	 83.2549
| 15> H 	 1.43174 	 16.7408 	 83.6826
| 16> C 	 1.61801 	 15.008 	 82.4892
| 17> H 	 2.10298 	 14.0207 	 82.4571
| 18> H 	 0.582383 	 14.7147 	 82.7856
| 19> C 	 1.81503 	 15.4804 	 81.0945
| 20> H 	 1.37346 	 16.4746 	 80.9763
| 21> H 	 2.85065 	 15.6822 	 80.801
| 22> H 	 1.30668 	 14.8274 	 80.3796
| 23> S 	 4.8367 	 13.2826 	 88.8509
| 24> C 	 6.35519 	 13.736 	 89.5961
| 25> C 	 6.98649 	 14.7754 	 88.8728
| 26> C 	 6.20377 	 15.1465 	 87.7331
| 27> C 	 4.92091 	 14.6378 	 87.7237
| 28> H 	 8.00016 	 15.041 	 89.2323
| 29> C 	 6.64121 	 16.2616 	 86.707
| 30> H 	 7.25464 	 16.9315 	 87.3248
| 31> H 	 5.84877 	 16.9708 	 86.4456
| 32> C 	 7.51362 	 15.7038 	 85.5242
| 33> H 	 6.8111 	 15.2682 	 84.8055
| 34> H 	 8.1259 	 14.8646 	 85.7816
| 35> C 	 8.4704 	 16.7967 	 84.9983
| 36> H 	 9.13662 	 17.2246 	 85.7079
| 37> H 	 8.07226 	 17.6508 	 84.5441
| 38> H 	 9.15802 	 16.3037 	 84.2452
| 39> H 	 0.509003 	 14.2311 	 85.3497
| 40> H 	 6.7959 	 13.3712 	 90.4963
| 41> *
| 42>
| 43>                          ****END OF INPUT****

CARTESIAN COORDINATES (ANGSTROEM)
---------------------------------
  S      2.171600   14.218000   87.221200
  C      1.551480   14.486800   85.641000
  C      2.409920   15.331600   84.967000
  C      3.711710   15.316400   85.550400
  C      3.762010   14.806300   86.802200
  H      4.598900   15.687300   85.087400
  C      2.124400   15.927200   83.576700
  H      3.061280   16.432600   83.254900
  H      1.431740   16.740800   83.682600
  C      1.618010   15.008000   82.489200
  H      2.102980   14.020700   82.457100
  H      0.582383   14.714700   82.785600
  C      1.815030   15.480400   81.094500
  H      1.373460   16.474600   80.976300
  H      2.850650   15.682200   80.801000
  H      1.306680   14.827400   80.379600
  S      4.836700   13.282600   88.850900
  C      6.355190   13.736000   89.596100
  C      6.986490   14.775400   88.872800
  C      6.203770   15.146500   87.733100
  C      4.920910   14.637800   87.723700
  H      8.000160   15.041000   89.232300
  C      6.641210   16.261600   86.707000
  H      7.254640   16.931500   87.324800
  H      5.848770   16.970800   86.445600
  C      7.513620   15.703800   85.524200
  H      6.811100   15.268200   84.805500
  H      8.125900   14.864600   85.781600
  C      8.470400   16.796700   84.998300
  H      9.136620   17.224600   85.707900
  H      8.072260   17.650800   84.544100
  H      9.158020   16.303700   84.245200
  H      0.509003   14.231100   85.349700
  H      6.795900   13.371200   90.496300

 Total Charge           Charge          ....    0
 Multiplicity           Mult            ....    1
 Number of Electrons    NEL             ....  134
 Basis Dimension        Dim             ....  322

ORBITAL ENERGIES
----------------

  NO   OCC          E(Eh)            E(eV)
   0   2.0000     -88.965164     -2420.8652
   1   2.0000     -88.962960     -2420.8052
   2   2.0000     -10.330533      -281.1081
   3   2.0000     -10.329301      -281.0746
   4   2.0000     -10.318572      -280.7826
   5   2.0000     -10.315372      -280.6955
   6   2.0000     -10.309325      -280.5310
   7   2.0000     -10.302428      -280.3433
   8   2.0000     -10.302298      -280.3398
   9   2.0000     -10.297376      -280.2058
  10   2.0000     -10.293054      -280.0882
  11   2.0000     -10.292612      -280.0762
  12   2.0000     -10.289097      -279.9806
  13   2.0000     -10.286336      -279.9054
  14   2.0000     -10.278744      -279.6989
  15   2.0000     -10.277607      -279.6679
  16   2.0000      -8.079507      -219.8546
  17   2.0000      -8.078473      -219.8264
  18   2.0000      -6.038049      -164.3037
  19   2.0000      -6.037040      -164.2762
  20   2.0000      -6.034040      -164.1946
  21   2.0000      -6.032846      -164.1621
  22   2.0000      -6.030272      -164.0920
  23   2.0000      -6.029144      -164.0613
  24   2.0000      -1.010413       -27.4947
  25   2.0000      -0.985733       -26.8232
  26   2.0000      -0.915032       -24.8993
  27   2.0000      -0.900806       -24.5122
  28   2.0000      -0.868839       -23.6423
  29   2.0000      -0.853965       -23.2376
  30   2.0000      -0.844170       -22.9710
  31   2.0000      -0.817558       -22.2469
  32   2.0000      -0.781955       -21.2781
  33   2.0000      -0.772355       -21.0169
  34   2.0000      -0.711226       -19.3534
  35   2.0000      -0.704128       -19.1603
  36   2.0000      -0.693563       -18.8728
  37   2.0000      -0.663865       -18.0647
  38   2.0000      -0.640841       -17.4382
  39   2.0000      -0.622928       -16.9507
  40   2.0000      -0.589063       -16.0292
  41   2.0000      -0.570050       -15.5119
  42   2.0000      -0.561868       -15.2892
  43   2.0000      -0.551905       -15.0181
  44   2.0000      -0.531817       -14.4715
  45   2.0000      -0.527424       -14.3519
  46   2.0000      -0.520145       -14.1539
  47   2.0000      -0.510724       -13.8975
  48   2.0000      -0.505951       -13.7676
  49   2.0000      -0.500507       -13.6195
  50   2.0000      -0.494427       -13.4540
  51   2.0000      -0.482975       -13.1424
  52   2.0000      -0.477275       -12.9873
  53   2.0000      -0.463081       -12.6011
  54   2.0000      -0.460579       -12.5330
  55   2.0000      -0.453247       -12.3335
  56   2.0000      -0.449366       -12.2279
  57   2.0000      -0.441022       -12.0008
  58   2.0000      -0.438115       -11.9217
  59   2.0000      -0.422501       -11.4968
  60   2.0000      -0.417511       -11.3610
  61   2.0000      -0.404197       -10.9988
  62   2.0000      -0.402166       -10.9435
  63   2.0000      -0.357447        -9.7266
  64   2.0000      -0.330715        -8.9992
  65   2.0000      -0.328063        -8.9271
  66   2.0000      -0.286623        -7.7994
  67   0.0000       0.021514         0.5854
  68   0.0000       0.082160         2.2357
  69   0.0000       0.104354         2.8396
  70   0.0000       0.114178         3.1069
  71   0.0000       0.135417         3.6849

MULLIKEN ATOMIC CHARGES
-----------------------
   0 S :    0.103612
   1 C :   -0.143767
   2 C :   -0.071869
   3 C :   -0.011904
   4 C :   -0.091020
   5 H :   -0.011412
   6 C :    0.072548
   7 H :    0.011806
   8 H :    0.031269
   9 C :   -0.080902
  10 H :    0.030544
  11 H :    0.026350
  12 C :   -0.041361
  13 H :    0.013923
  14 H :    0.035480
  15 H :    0.040081
  16 S :    0.098928
  17 C :   -0.084341
  18 C :   -0.048708
  19 C :   -0.048769
  20 C :   -0.100677
  21 H :    0.035395
  22 C :   -0.007088
  23 H :    0.012811
  24 H :    0.042727
  25 C :   -0.021186
  26 H :    0.029507
  27 H :    0.029426
  28 C :   -0.048211
  29 H :    0.023705
  30 H :    0.020430
  31 H :    0.034421
  32 H :    0.070486
  33 H :    0.047766
Sum of atomic charges:   -0.0000000

LOEWDIN ATOMIC CHARGES
----------------------
   0 S :    0.412626
   1 C :   -0.205934
   2 C :   -0.060828
   3 C :   -0.067060
   4 C :   -0.187191
   5 H :    0.025439
   6 C :   -0.032872
   7 H :    0.028440
   8 H :    0.030930
   9 C :   -0.052710
  10 H :    0.027995
  11 H :    0.025565
  12 C :   -0.066060
  13 H :    0.021037
  14 H :    0.028277
  15 H :    0.031194
  16 S :    0.397785
  17 C :   -0.182813
  18 C :   -0.075242
  19 C :   -0.058277
  20 C :   -0.188256
  21 H :    0.040449
  22 C :   -0.036757
  23 H :    0.026916
  24 H :    0.031645
  25 C :   -0.034201
  26 H :    0.024130
  27 H :    0.027093
  28 C :   -0.065682
  29 H :    0.022186
  30 H :    0.015974
  31 H :    0.033922
  32 H :    0.036773
  33 H :    0.025506

  Mayer bond orders larger than 0.100000
B(  0-S ,  1-C ) :   1.1495 B(  0-S ,  4-C ) :   1.1471 B(  1-C ,  2-C ) :   1.5866
B(  1-C , 32-H ) :   0.9678 B(  2-C ,  3-C ) :   1.2394 B(  2-C ,  6-C ) :   1.0276
B(  3-C ,  4-C ) :   1.5901 B(  3-C ,  5-H ) :   0.9894 B(  4-C , 20-C ) :   1.0428
B(  6-C ,  7-H ) :   0.9487 B(  6-C ,  8-H ) :   0.9256 B(  6-C ,  9-C ) :   1.0642
B(  9-C , 10-H ) :   0.9579 B(  9-C , 11-H ) :   0.9449 B(  9-C , 12-C ) :   1.0937
B( 12-C , 13-H ) :   0.9707 B( 12-C , 14-H ) :   0.9716 B( 12-C , 15-H ) :   0.9705
B( 16-S , 17-C ) :   1.1578 B( 16-S , 20-C ) :   1.1297 B( 17-C , 18-C ) :   1.6117
B( 17-C , 20-C ) :   0.1048 B( 17-C , 33-H ) :   0.9687 B( 18-C , 19-C ) :   1.2316
B( 18-C , 21-H ) :   0.9868 B( 19-C , 20-C ) :   1.6052 B( 19-C , 22-C ) :   1.0210
B( 22-C , 23-H ) :   0.9483 B( 22-C , 24-H ) :   0.9474 B( 22-C , 25-C ) :   1.0368
B( 25-C , 26-H ) :   0.9537 B( 25-C , 27-H ) :   0.9570 B( 25-C , 28-C ) :   1.0714
B( 28-C , 29-H ) :   0.9754 B( 28-C , 30-H ) :   0.9783 B( 28-C , 31-H ) :   0.9757

Dispersion correction           -0.013595185
FINAL SINGLE POINT ENERGY     -1339.862279267744

DIPOLE MOMENT
-------------
                                X             Y             Z
Electronic contribution:     -8.36367     -13.16233      27.63034
Nuclear contribution   :      8.71422      13.52764     -28.14260
                        -----------------------------------------
Total Dipole Moment    :      0.35055       0.36531      -0.51226
                        -----------------------------------------
Magnitude (a.u.)       :      0.72024
Magnitude (Debye)      :      1.83071

Rotational constants in cm-1:     0.017762     0.008579     0.006040
Rotational constants in MHz :   532.489136   257.198026   181.074140

                             ****ORCA TERMINATED NORMALLY****
TOTAL RUN TIME: 0 days 0 hours 0 minutes 34 seconds 256 msec
