                         Program Version 4.2.1 -  RELEASE  -
|  1> ! wB97X-D3 SP def2-SVP
|  2> %pal
|  3> nprocs 16
|  4> end
|  5>
|  6> * xyz 0 1
|  7> S 	 -4.0182 	 35.2986 	 53.3858
|  8> C 	 -2.32199 	 35.1831 	 53.8495
|  9> C 	 -1.631 	 34.1871 	 53.1994
| 10> C 	 -2.45132 	 33.4466 	 52.3284
| 11> C 	 -3.83113 	 33.8768 	 52.2907
| 12> H 	 -2.18211 	 32.5143 	 51.8592
| 13> C 	 -0.137593 	 33.8049 	 53.4858
| 14> H 	 0.396814 	 34.8026 	 53.591
| 15> H 	 0.303019 	 33.5323 	 52.5137
| 16> C 	 0.0424176 	 32.6132 	 54.5501
| 17> H 	 -0.468546 	 32.7703 	 55.4903
| 18> H 	 -0.422864 	 31.7733 	 53.9967
| 19> C 	 1.54266 	 32.3259 	 54.9558
| 20> H 	 2.10864 	 33.2684 	 55.1137
| 21> H 	 1.54219 	 31.7877 	 55.8852
| 22> H 	 2.17955 	 31.7864 	 54.2232
| 23> S 	 -6.59944 	 33.7367 	 52.0813
| 24> C 	 -7.34954 	 32.7968 	 50.8161
| 25> C 	 -6.37828 	 32.4626 	 49.8515
| 26> C 	 -5.02049 	 32.7511 	 50.2121
| 27> C 	 -4.93096 	 33.3535 	 51.5503
| 28> H 	 -6.64522 	 31.959 	 48.9817
| 29> C 	 -3.86807 	 32.3429 	 49.2613
| 30> H 	 -4.18605 	 31.621 	 48.5047
| 31> H 	 -3.04539 	 31.8979 	 49.8696
| 32> C 	 -3.32129 	 33.4978 	 48.3801
| 33> H 	 -4.13209 	 33.8735 	 47.72
| 34> H 	 -2.57683 	 33.0405 	 47.7178
| 35> C 	 -2.71846 	 34.6559 	 49.1037
| 36> H 	 -2.37468 	 35.3503 	 48.3389
| 37> H 	 -1.82045 	 34.307 	 49.6694
| 38> H 	 -3.37107 	 35.2705 	 49.7867
| 39> H 	 -1.78406 	 35.8192 	 54.5872
| 40> H 	 -8.34679 	 32.4607 	 50.8242
| 41> *
| 42>
| 43>                          ****END OF INPUT****

CARTESIAN COORDINATES (ANGSTROEM)
---------------------------------
  S     -4.018200   35.298600   53.385800
  C     -2.321990   35.183100   53.849500
  C     -1.631000   34.187100   53.199400
  C     -2.451320   33.446600   52.328400
  C     -3.831130   33.876800   52.290700
  H     -2.182110   32.514300   51.859200
  C     -0.137593   33.804900   53.485800
  H      0.396814   34.802600   53.591000
  H      0.303019   33.532300   52.513700
  C      0.042418   32.613200   54.550100
  H     -0.468546   32.770300   55.490300
  H     -0.422864   31.773300   53.996700
  C      1.542660   32.325900   54.955800
  H      2.108640   33.268400   55.113700
  H      1.542190   31.787700   55.885200
  H      2.179550   31.786400   54.223200
  S     -6.599440   33.736700   52.081300
  C     -7.349540   32.796800   50.816100
  C     -6.378280   32.462600   49.851500
  C     -5.020490   32.751100   50.212100
  C     -4.930960   33.353500   51.550300
  H     -6.645220   31.959000   48.981700
  C     -3.868070   32.342900   49.261300
  H     -4.186050   31.621000   48.504700
  H     -3.045390   31.897900   49.869600
  C     -3.321290   33.497800   48.380100
  H     -4.132090   33.873500   47.720000
  H     -2.576830   33.040500   47.717800
  C     -2.718460   34.655900   49.103700
  H     -2.374680   35.350300   48.338900
  H     -1.820450   34.307000   49.669400
  H     -3.371070   35.270500   49.786700
  H     -1.784060   35.819200   54.587200
  H     -8.346790   32.460700   50.824200

 Total Charge           Charge          ....    0
 Multiplicity           Mult            ....    1
 Number of Electrons    NEL             ....  134
 Basis Dimension        Dim             ....  322

ORBITAL ENERGIES
----------------

  NO   OCC          E(Eh)            E(eV)
   0   2.0000     -88.971477     -2421.0370
   1   2.0000     -88.968659     -2420.9603
   2   2.0000     -10.339676      -281.3569
   3   2.0000     -10.339401      -281.3494
   4   2.0000     -10.320478      -280.8345
   5   2.0000     -10.317232      -280.7462
   6   2.0000     -10.315601      -280.7018
   7   2.0000     -10.306803      -280.4624
   8   2.0000     -10.302044      -280.3329
   9   2.0000     -10.301091      -280.3069
  10   2.0000     -10.299457      -280.2625
  11   2.0000     -10.297738      -280.2157
  12   2.0000     -10.295433      -280.1530
  13   2.0000     -10.285900      -279.8936
  14   2.0000     -10.285547      -279.8840
  15   2.0000     -10.271540      -279.5028
  16   2.0000      -8.084695      -219.9957
  17   2.0000      -8.082617      -219.9392
  18   2.0000      -6.043319      -164.4471
  19   2.0000      -6.041201      -164.3894
  20   2.0000      -6.039450      -164.3418
  21   2.0000      -6.037148      -164.2791
  22   2.0000      -6.035393      -164.2314
  23   2.0000      -6.033439      -164.1782
  24   2.0000      -0.996050       -27.1039
  25   2.0000      -0.973879       -26.5006
  26   2.0000      -0.905764       -24.6471
  27   2.0000      -0.896318       -24.3901
  28   2.0000      -0.866397       -23.5759
  29   2.0000      -0.847404       -23.0590
  30   2.0000      -0.842465       -22.9246
  31   2.0000      -0.806705       -21.9516
  32   2.0000      -0.781119       -21.2553
  33   2.0000      -0.768584       -20.9142
  34   2.0000      -0.710804       -19.3420
  35   2.0000      -0.701885       -19.0993
  36   2.0000      -0.686076       -18.6691
  37   2.0000      -0.660243       -17.9661
  38   2.0000      -0.631589       -17.1864
  39   2.0000      -0.615910       -16.7598
  40   2.0000      -0.592782       -16.1304
  41   2.0000      -0.563747       -15.3403
  42   2.0000      -0.553114       -15.0510
  43   2.0000      -0.545607       -14.8467
  44   2.0000      -0.542895       -14.7729
  45   2.0000      -0.523735       -14.2516
  46   2.0000      -0.516059       -14.0427
  47   2.0000      -0.507278       -13.8037
  48   2.0000      -0.502164       -13.6646
  49   2.0000      -0.498547       -13.5661
  50   2.0000      -0.492111       -13.3910
  51   2.0000      -0.470999       -12.8165
  52   2.0000      -0.465909       -12.6780
  53   2.0000      -0.461376       -12.5547
  54   2.0000      -0.455810       -12.4032
  55   2.0000      -0.446645       -12.1538
  56   2.0000      -0.443824       -12.0771
  57   2.0000      -0.437802       -11.9132
  58   2.0000      -0.425671       -11.5831
  59   2.0000      -0.424311       -11.5461
  60   2.0000      -0.419473       -11.4144
  61   2.0000      -0.414597       -11.2818
  62   2.0000      -0.408973       -11.1287
  63   2.0000      -0.358068        -9.7435
  64   2.0000      -0.336854        -9.1663
  65   2.0000      -0.329059        -8.9542
  66   2.0000      -0.270236        -7.3535
  67   0.0000       0.005430         0.1477
  68   0.0000       0.070044         1.9060
  69   0.0000       0.098358         2.6765
  70   0.0000       0.118472         3.2238
  71   0.0000       0.136575         3.7164

MULLIKEN ATOMIC CHARGES
-----------------------
   0 S :    0.106400
   1 C :   -0.122699
   2 C :   -0.100303
   3 C :    0.023315
   4 C :   -0.154924
   5 H :    0.011273
   6 C :    0.028076
   7 H :    0.031656
   8 H :    0.023167
   9 C :   -0.052287
  10 H :    0.043383
  11 H :    0.042000
  12 C :   -0.067256
  13 H :    0.034594
  14 H :    0.037353
  15 H :    0.038363
  16 S :    0.092703
  17 C :   -0.076800
  18 C :   -0.008700
  19 C :   -0.042129
  20 C :   -0.134453
  21 H :   -0.003333
  22 C :    0.047608
  23 H :    0.025344
  24 H :    0.033886
  25 C :   -0.082482
  26 H :    0.028541
  27 H :    0.030234
  28 C :   -0.056532
  29 H :    0.026192
  30 H :    0.031295
  31 H :    0.058812
  32 H :    0.054483
  33 H :    0.053222
Sum of atomic charges:    0.0000000

LOEWDIN ATOMIC CHARGES
----------------------
   0 S :    0.383168
   1 C :   -0.201630
   2 C :   -0.071819
   3 C :   -0.063374
   4 C :   -0.175021
   5 H :    0.025050
   6 C :   -0.039937
   7 H :    0.034033
   8 H :    0.028994
   9 C :   -0.031642
  10 H :    0.027039
  11 H :    0.031522
  12 C :   -0.073531
  13 H :    0.029149
  14 H :    0.024906
  15 H :    0.027046
  16 S :    0.397019
  17 C :   -0.179941
  18 C :   -0.061858
  19 C :   -0.045720
  20 C :   -0.192432
  21 H :    0.019236
  22 C :   -0.034289
  23 H :    0.032837
  24 H :    0.030746
  25 C :   -0.043726
  26 H :    0.025626
  27 H :    0.025612
  28 C :   -0.074212
  29 H :    0.025125
  30 H :    0.026074
  31 H :    0.034784
  32 H :    0.036884
  33 H :    0.024283

  Mayer bond orders larger than 0.100000
B(  0-S ,  1-C ) :   1.1288 B(  0-S ,  4-C ) :   1.1337 B(  1-C ,  2-C ) :   1.6214
B(  1-C ,  4-C ) :   0.1045 B(  1-C , 32-H ) :   0.9579 B(  2-C ,  3-C ) :   1.2788
B(  2-C ,  6-C ) :   1.0137 B(  3-C ,  4-C ) :   1.5195 B(  3-C ,  5-H ) :   0.9871
B(  4-C , 20-C ) :   1.1627 B(  6-C ,  7-H ) :   0.9460 B(  6-C ,  8-H ) :   0.9467
B(  6-C ,  9-C ) :   1.0297 B(  9-C , 10-H ) :   0.9670 B(  9-C , 11-H ) :   0.9578
B(  9-C , 12-C ) :   1.0656 B( 12-C , 13-H ) :   0.9773 B( 12-C , 14-H ) :   0.9793
B( 12-C , 15-H ) :   0.9781 B( 16-S , 17-C ) :   1.1658 B( 16-S , 20-C ) :   1.1401
B( 17-C , 18-C ) :   1.5488 B( 17-C , 20-C ) :   0.1149 B( 17-C , 33-H ) :   0.9769
B( 18-C , 19-C ) :   1.2998 B( 18-C , 21-H ) :   0.9955 B( 19-C , 20-C ) :   1.4742
B( 19-C , 22-C ) :   1.0297 B( 22-C , 23-H ) :   0.9371 B( 22-C , 24-H ) :   0.9422
B( 22-C , 25-C ) :   1.0727 B( 25-C , 26-H ) :   0.9508 B( 25-C , 27-H ) :   0.9523
B( 25-C , 28-C ) :   1.0955 B( 28-C , 29-H ) :   0.9677 B( 28-C , 30-H ) :   0.9686
B( 28-C , 31-H ) :   0.9688

Dispersion correction           -0.015073772
FINAL SINGLE POINT ENERGY     -1339.864319300661

DIPOLE MOMENT
-------------
                                X             Y             Z
Electronic contribution:    -26.59802       7.16032       5.89785
Nuclear contribution   :     27.07526      -7.56634      -6.21882
                        -----------------------------------------
Total Dipole Moment    :      0.47725      -0.40602      -0.32097
                        -----------------------------------------
Magnitude (a.u.)       :      0.70402
Magnitude (Debye)      :      1.78946

Rotational constants in cm-1:     0.020775     0.007968     0.006809
Rotational constants in MHz :   622.832483   238.872250   204.137088

                             ****ORCA TERMINATED NORMALLY****
TOTAL RUN TIME: 0 days 0 hours 0 minutes 35 seconds 351 msec
