                         Program Version 4.2.1 -  RELEASE  -
|  1> ! wB97X-D3 SP def2-SVP
|  2> %pal
|  3> nprocs 16
|  4> end
|  5>
|  6> * xyz 0 1
|  7> S 	 -68.375 	 44.0114 	 126.65
|  8> C 	 -68.3634 	 45.7278 	 127.028
|  9> C 	 -67.0643 	 46.1523 	 127.046
| 10> C 	 -66.164 	 45.1939 	 126.439
| 11> C 	 -66.7247 	 43.9647 	 126.186
| 12> H 	 -65.0792 	 45.2995 	 126.293
| 13> C 	 -66.5664 	 47.5379 	 127.425
| 14> H 	 -67.2691 	 48.2597 	 126.926
| 15> H 	 -65.5827 	 47.7704 	 126.958
| 16> C 	 -66.5034 	 47.7451 	 128.956
| 17> H 	 -67.4857 	 47.6046 	 129.351
| 18> H 	 -66.0177 	 46.8714 	 129.436
| 19> C 	 -65.8574 	 48.9786 	 129.521
| 20> H 	 -66.1552 	 49.9805 	 129.152
| 21> H 	 -66.0272 	 49.0416 	 130.567
| 22> H 	 -64.7704 	 49.1276 	 129.339
| 23> S 	 -65.9446 	 41.3113 	 126.494
| 24> C 	 -65.0646 	 40.4738 	 125.206
| 25> C 	 -64.6902 	 41.3782 	 124.207
| 26> C 	 -65.1855 	 42.7297 	 124.44
| 27> C 	 -66.0356 	 42.8133 	 125.557
| 28> H 	 -64.1273 	 41.0887 	 123.279
| 29> C 	 -65.1375 	 43.768 	 123.316
| 30> H 	 -64.1571 	 43.7756 	 122.912
| 31> H 	 -65.2845 	 44.7189 	 123.67
| 32> C 	 -66.1553 	 43.6318 	 122.143
| 33> H 	 -67.0176 	 43.8428 	 122.687
| 34> H 	 -66.1486 	 42.6304 	 121.787
| 35> C 	 -65.9952 	 44.5644 	 120.946
| 36> H 	 -66.7091 	 44.2596 	 120.176
| 37> H 	 -64.94 	 44.5331 	 120.609
| 38> H 	 -66.3955 	 45.5786 	 121.226
| 39> H 	 -69.1941 	 46.2747 	 127.326
| 40> H 	 -65.0026 	 39.3857 	 125.07
| 41> *
| 42>
| 43>                          ****END OF INPUT****

CARTESIAN COORDINATES (ANGSTROEM)
---------------------------------
  S    -68.375000   44.011400  126.650000
  C    -68.363400   45.727800  127.028000
  C    -67.064300   46.152300  127.046000
  C    -66.164000   45.193900  126.439000
  C    -66.724700   43.964700  126.186000
  H    -65.079200   45.299500  126.293000
  C    -66.566400   47.537900  127.425000
  H    -67.269100   48.259700  126.926000
  H    -65.582700   47.770400  126.958000
  C    -66.503400   47.745100  128.956000
  H    -67.485700   47.604600  129.351000
  H    -66.017700   46.871400  129.436000
  C    -65.857400   48.978600  129.521000
  H    -66.155200   49.980500  129.152000
  H    -66.027200   49.041600  130.567000
  H    -64.770400   49.127600  129.339000
  S    -65.944600   41.311300  126.494000
  C    -65.064600   40.473800  125.206000
  C    -64.690200   41.378200  124.207000
  C    -65.185500   42.729700  124.440000
  C    -66.035600   42.813300  125.557000
  H    -64.127300   41.088700  123.279000
  C    -65.137500   43.768000  123.316000
  H    -64.157100   43.775600  122.912000
  H    -65.284500   44.718900  123.670000
  C    -66.155300   43.631800  122.143000
  H    -67.017600   43.842800  122.687000
  H    -66.148600   42.630400  121.787000
  C    -65.995200   44.564400  120.946000
  H    -66.709100   44.259600  120.176000
  H    -64.940000   44.533100  120.609000
  H    -66.395500   45.578600  121.226000
  H    -69.194100   46.274700  127.326000
  H    -65.002600   39.385700  125.070000

 Total Charge           Charge          ....    0
 Multiplicity           Mult            ....    1
 Number of Electrons    NEL             ....  134
 Basis Dimension        Dim             ....  322

ORBITAL ENERGIES
----------------

  NO   OCC          E(Eh)            E(eV)
   0   2.0000     -88.966314     -2420.8965
   1   2.0000     -88.965729     -2420.8806
   2   2.0000     -10.335353      -281.2392
   3   2.0000     -10.329934      -281.0918
   4   2.0000     -10.323904      -280.9277
   5   2.0000     -10.314397      -280.6690
   6   2.0000     -10.310147      -280.5534
   7   2.0000     -10.305192      -280.4185
   8   2.0000     -10.304671      -280.4044
   9   2.0000     -10.300037      -280.2782
  10   2.0000     -10.295562      -280.1565
  11   2.0000     -10.288012      -279.9511
  12   2.0000     -10.283785      -279.8360
  13   2.0000     -10.279494      -279.7193
  14   2.0000     -10.278781      -279.6998
  15   2.0000     -10.273617      -279.5593
  16   2.0000      -8.081605      -219.9116
  17   2.0000      -8.079831      -219.8634
  18   2.0000      -6.040170      -164.3614
  19   2.0000      -6.038497      -164.3159
  20   2.0000      -6.035965      -164.2470
  21   2.0000      -6.034373      -164.2036
  22   2.0000      -6.032314      -164.1476
  23   2.0000      -6.030512      -164.0986
  24   2.0000      -1.007786       -27.4232
  25   2.0000      -0.981103       -26.6972
  26   2.0000      -0.910529       -24.7768
  27   2.0000      -0.906645       -24.6711
  28   2.0000      -0.869989       -23.6736
  29   2.0000      -0.849971       -23.1289
  30   2.0000      -0.844665       -22.9845
  31   2.0000      -0.815085       -22.1796
  32   2.0000      -0.783380       -21.3169
  33   2.0000      -0.774382       -21.0720
  34   2.0000      -0.707663       -19.2565
  35   2.0000      -0.703344       -19.1390
  36   2.0000      -0.691922       -18.8282
  37   2.0000      -0.658922       -17.9302
  38   2.0000      -0.648065       -17.6347
  39   2.0000      -0.614423       -16.7193
  40   2.0000      -0.594229       -16.1698
  41   2.0000      -0.571741       -15.5579
  42   2.0000      -0.570984       -15.5373
  43   2.0000      -0.551186       -14.9985
  44   2.0000      -0.531683       -14.4678
  45   2.0000      -0.520834       -14.1726
  46   2.0000      -0.519656       -14.1406
  47   2.0000      -0.513595       -13.9756
  48   2.0000      -0.509380       -13.8609
  49   2.0000      -0.498202       -13.5568
  50   2.0000      -0.495189       -13.4748
  51   2.0000      -0.485580       -13.2133
  52   2.0000      -0.470562       -12.8046
  53   2.0000      -0.464748       -12.6464
  54   2.0000      -0.456421       -12.4199
  55   2.0000      -0.450299       -12.2533
  56   2.0000      -0.448108       -12.1936
  57   2.0000      -0.437154       -11.8956
  58   2.0000      -0.426425       -11.6036
  59   2.0000      -0.423160       -11.5148
  60   2.0000      -0.419199       -11.4070
  61   2.0000      -0.413225       -11.2444
  62   2.0000      -0.404758       -11.0140
  63   2.0000      -0.345743        -9.4082
  64   2.0000      -0.331026        -9.0077
  65   2.0000      -0.328165        -8.9298
  66   2.0000      -0.299087        -8.1386
  67   0.0000       0.026857         0.7308
  68   0.0000       0.066557         1.8111
  69   0.0000       0.109506         2.9798
  70   0.0000       0.119658         3.2561
  71   0.0000       0.128824         3.5055

MULLIKEN ATOMIC CHARGES
-----------------------
   0 S :    0.109771
   1 C :   -0.095071
   2 C :   -0.087912
   3 C :    0.014667
   4 C :   -0.145666
   5 H :    0.027971
   6 C :    0.051838
   7 H :    0.038257
   8 H :    0.025698
   9 C :   -0.055688
  10 H :    0.013483
  11 H :    0.031598
  12 C :   -0.037778
  13 H :    0.016308
  14 H :    0.029502
  15 H :    0.029147
  16 S :    0.095934
  17 C :   -0.097267
  18 C :   -0.057334
  19 C :   -0.039992
  20 C :   -0.148577
  21 H :    0.044694
  22 C :    0.099375
  23 H :   -0.000498
  24 H :   -0.013985
  25 C :   -0.047972
  26 H :    0.016195
  27 H :    0.015928
  28 C :   -0.055483
  29 H :    0.039615
  30 H :    0.044291
  31 H :    0.035968
  32 H :    0.028745
  33 H :    0.074236
Sum of atomic charges:    0.0000000

LOEWDIN ATOMIC CHARGES
----------------------
   0 S :    0.418792
   1 C :   -0.179410
   2 C :   -0.061605
   3 C :   -0.065930
   4 C :   -0.213919
   5 H :    0.036201
   6 C :   -0.034264
   7 H :    0.035967
   8 H :    0.030572
   9 C :   -0.046674
  10 H :    0.021237
  11 H :    0.033504
  12 C :   -0.075364
  13 H :    0.025377
  14 H :    0.025802
  15 H :    0.028920
  16 S :    0.387282
  17 C :   -0.187058
  18 C :   -0.070720
  19 C :   -0.055266
  20 C :   -0.186159
  21 H :    0.041249
  22 C :   -0.024164
  23 H :    0.019205
  24 H :    0.014005
  25 C :   -0.031569
  26 H :    0.018718
  27 H :    0.015824
  28 C :   -0.067108
  29 H :    0.031107
  30 H :    0.029067
  31 H :    0.030966
  32 H :    0.017993
  33 H :    0.037421

  Mayer bond orders larger than 0.100000
B(  0-S ,  1-C ) :   1.1376 B(  0-S ,  4-C ) :   1.1573 B(  1-C ,  2-C ) :   1.6003
B(  1-C , 32-H ) :   0.9836 B(  2-C ,  3-C ) :   1.2362 B(  2-C ,  6-C ) :   1.0206
B(  3-C ,  4-C ) :   1.5813 B(  3-C ,  5-H ) :   0.9905 B(  4-C , 20-C ) :   1.0102
B(  6-C ,  7-H ) :   0.9428 B(  6-C ,  8-H ) :   0.9500 B(  6-C ,  9-C ) :   1.0476
B(  9-C , 10-H ) :   0.9538 B(  9-C , 11-H ) :   0.9515 B(  9-C , 12-C ) :   1.0890
B( 12-C , 13-H ) :   0.9707 B( 12-C , 14-H ) :   0.9720 B( 12-C , 15-H ) :   0.9721
B( 16-S , 17-C ) :   1.1427 B( 16-S , 20-C ) :   1.1428 B( 17-C , 18-C ) :   1.6208
B( 17-C , 20-C ) :   0.1018 B( 17-C , 33-H ) :   0.9638 B( 18-C , 19-C ) :   1.2246
B( 18-C , 21-H ) :   0.9787 B( 19-C , 20-C ) :   1.5941 B( 19-C , 22-C ) :   1.0702
B( 22-C , 23-H ) :   0.9263 B( 22-C , 24-H ) :   0.9351 B( 22-C , 25-C ) :   1.0482
B( 25-C , 26-H ) :   0.9577 B( 25-C , 27-H ) :   0.9589 B( 25-C , 28-C ) :   1.0876
B( 28-C , 29-H ) :   0.9722 B( 28-C , 30-H ) :   0.9743 B( 28-C , 31-H ) :   0.9743

Dispersion correction           -0.013705256
FINAL SINGLE POINT ENERGY     -1339.865380993891

DIPOLE MOMENT
-------------
                                X             Y             Z
Electronic contribution:     -6.67135     -22.78419       7.50325
Nuclear contribution   :      6.83572      23.26599      -7.77078
                        -----------------------------------------
Total Dipole Moment    :      0.16437       0.48180      -0.26752
                        -----------------------------------------
Magnitude (a.u.)       :      0.57508
Magnitude (Debye)      :      1.46174

Rotational constants in cm-1:     0.018504     0.007484     0.006373
Rotational constants in MHz :   554.739419   224.378474   191.071655

                             ****ORCA TERMINATED NORMALLY****
TOTAL RUN TIME: 0 days 0 hours 0 minutes 32 seconds 169 msec
