                         Program Version 4.2.1 -  RELEASE  -
|  1> ! wB97X-D3 SP def2-SVP
|  2> %pal
|  3> nprocs 16
|  4> end
|  5>
|  6> * xyz 0 1
|  7> S 	 60.456 	 -6.57446 	 87.4244
|  8> C 	 60.5562 	 -4.8512 	 87.2901
|  9> C 	 59.5018 	 -4.36103 	 86.6163
| 10> C 	 58.8366 	 -5.40167 	 85.9636
| 11> C 	 59.2679 	 -6.68432 	 86.2488
| 12> H 	 58.1352 	 -5.19562 	 85.1803
| 13> C 	 59.2128 	 -2.85598 	 86.5467
| 14> H 	 59.219 	 -2.4072 	 87.5431
| 15> H 	 58.2012 	 -2.5841 	 86.2349
| 16> C 	 60.1248 	 -2.09546 	 85.594
| 17> H 	 60.0184 	 -1.03445 	 85.6095
| 18> H 	 61.1786 	 -2.36664 	 85.8715
| 19> C 	 59.8329 	 -2.49935 	 84.1314
| 20> H 	 59.927 	 -3.58573 	 84.0069
| 21> H 	 58.8969 	 -2.21753 	 83.7617
| 22> H 	 60.4732 	 -2.04346 	 83.4387
| 23> S 	 57.5435 	 -8.80518 	 86.8332
| 24> C 	 57.2327 	 -10.0512 	 85.6344
| 25> C 	 57.7811 	 -9.70275 	 84.4524
| 26> C 	 58.5652 	 -8.44301 	 84.4702
| 27> C 	 58.6891 	 -7.96081 	 85.7743
| 28> H 	 57.6261 	 -10.4121 	 83.6568
| 29> C 	 59.0296 	 -7.8935 	 83.1717
| 30> H 	 59.88 	 -8.42792 	 82.7461
| 31> H 	 59.4982 	 -6.8888 	 83.37
| 32> C 	 58.0142 	 -7.73873 	 82.0844
| 33> H 	 57.0799 	 -7.35426 	 82.6446
| 34> H 	 57.7932 	 -8.71828 	 81.6836
| 35> C 	 58.407 	 -6.63888 	 81.0929
| 36> H 	 59.402 	 -6.84596 	 80.7206
| 37> H 	 58.6002 	 -5.69061 	 81.5083
| 38> H 	 57.8164 	 -6.54322 	 80.1587
| 39> H 	 61.3361 	 -4.17436 	 87.7
| 40> H 	 56.6203 	 -10.9595 	 85.7491
| 41> *
| 42>
| 43>                          ****END OF INPUT****

CARTESIAN COORDINATES (ANGSTROEM)
---------------------------------
  S     60.456000   -6.574460   87.424400
  C     60.556200   -4.851200   87.290100
  C     59.501800   -4.361030   86.616300
  C     58.836600   -5.401670   85.963600
  C     59.267900   -6.684320   86.248800
  H     58.135200   -5.195620   85.180300
  C     59.212800   -2.855980   86.546700
  H     59.219000   -2.407200   87.543100
  H     58.201200   -2.584100   86.234900
  C     60.124800   -2.095460   85.594000
  H     60.018400   -1.034450   85.609500
  H     61.178600   -2.366640   85.871500
  C     59.832900   -2.499350   84.131400
  H     59.927000   -3.585730   84.006900
  H     58.896900   -2.217530   83.761700
  H     60.473200   -2.043460   83.438700
  S     57.543500   -8.805180   86.833200
  C     57.232700  -10.051200   85.634400
  C     57.781100   -9.702750   84.452400
  C     58.565200   -8.443010   84.470200
  C     58.689100   -7.960810   85.774300
  H     57.626100  -10.412100   83.656800
  C     59.029600   -7.893500   83.171700
  H     59.880000   -8.427920   82.746100
  H     59.498200   -6.888800   83.370000
  C     58.014200   -7.738730   82.084400
  H     57.079900   -7.354260   82.644600
  H     57.793200   -8.718280   81.683600
  C     58.407000   -6.638880   81.092900
  H     59.402000   -6.845960   80.720600
  H     58.600200   -5.690610   81.508300
  H     57.816400   -6.543220   80.158700
  H     61.336100   -4.174360   87.700000
  H     56.620300  -10.959500   85.749100

 Total Charge           Charge          ....    0
 Multiplicity           Mult            ....    1
 Number of Electrons    NEL             ....  134
 Basis Dimension        Dim             ....  322

ORBITAL ENERGIES
----------------

  NO   OCC          E(Eh)            E(eV)
   0   2.0000     -88.965518     -2420.8748
   1   2.0000     -88.960666     -2420.7428
   2   2.0000     -10.332702      -281.1671
   3   2.0000     -10.324326      -280.9392
   4   2.0000     -10.316204      -280.7182
   5   2.0000     -10.310836      -280.5721
   6   2.0000     -10.310319      -280.5581
   7   2.0000     -10.295489      -280.1545
   8   2.0000     -10.294567      -280.1294
   9   2.0000     -10.291818      -280.0546
  10   2.0000     -10.291454      -280.0447
  11   2.0000     -10.289823      -280.0003
  12   2.0000     -10.288909      -279.9755
  13   2.0000     -10.288812      -279.9728
  14   2.0000     -10.277840      -279.6742
  15   2.0000     -10.268306      -279.4148
  16   2.0000      -8.081996      -219.9223
  17   2.0000      -8.075250      -219.7387
  18   2.0000      -6.040279      -164.3643
  19   2.0000      -6.036172      -164.2526
  20   2.0000      -6.033998      -164.1934
  21   2.0000      -6.032962      -164.1652
  22   2.0000      -6.029897      -164.0818
  23   2.0000      -6.025622      -163.9655
  24   2.0000      -1.018148       -27.7052
  25   2.0000      -0.986951       -26.8563
  26   2.0000      -0.917474       -24.9657
  27   2.0000      -0.915902       -24.9230
  28   2.0000      -0.872025       -23.7290
  29   2.0000      -0.849574       -23.1181
  30   2.0000      -0.843719       -22.9588
  31   2.0000      -0.817668       -22.2499
  32   2.0000      -0.789954       -21.4957
  33   2.0000      -0.775934       -21.1142
  34   2.0000      -0.707686       -19.2571
  35   2.0000      -0.703708       -19.1489
  36   2.0000      -0.696247       -18.9458
  37   2.0000      -0.651245       -17.7213
  38   2.0000      -0.638890       -17.3851
  39   2.0000      -0.622497       -16.9390
  40   2.0000      -0.600871       -16.3505
  41   2.0000      -0.585011       -15.9190
  42   2.0000      -0.570540       -15.5252
  43   2.0000      -0.555039       -15.1034
  44   2.0000      -0.544421       -14.8145
  45   2.0000      -0.523803       -14.2534
  46   2.0000      -0.518704       -14.1147
  47   2.0000      -0.505311       -13.7502
  48   2.0000      -0.502113       -13.6632
  49   2.0000      -0.501757       -13.6535
  50   2.0000      -0.491325       -13.3696
  51   2.0000      -0.482302       -13.1241
  52   2.0000      -0.474039       -12.8993
  53   2.0000      -0.471009       -12.8168
  54   2.0000      -0.459880       -12.5140
  55   2.0000      -0.450826       -12.2676
  56   2.0000      -0.443921       -12.0797
  57   2.0000      -0.435501       -11.8506
  58   2.0000      -0.428001       -11.6465
  59   2.0000      -0.423867       -11.5340
  60   2.0000      -0.421071       -11.4579
  61   2.0000      -0.419062       -11.4033
  62   2.0000      -0.409617       -11.1463
  63   2.0000      -0.340025        -9.2526
  64   2.0000      -0.334791        -9.1101
  65   2.0000      -0.320838        -8.7305
  66   2.0000      -0.305761        -8.3202
  67   0.0000       0.042328         1.1518
  68   0.0000       0.060450         1.6449
  69   0.0000       0.108945         2.9646
  70   0.0000       0.118955         3.2369
  71   0.0000       0.124439         3.3862

MULLIKEN ATOMIC CHARGES
-----------------------
   0 S :    0.133622
   1 C :   -0.142626
   2 C :   -0.078383
   3 C :    0.043968
   4 C :   -0.183154
   5 H :   -0.002422
   6 C :    0.069252
   7 H :    0.032885
   8 H :    0.013692
   9 C :   -0.062869
  10 H :    0.028713
  11 H :    0.028348
  12 C :   -0.031008
  13 H :    0.033375
  14 H :    0.008361
  15 H :    0.015365
  16 S :    0.092423
  17 C :   -0.095164
  18 C :   -0.037548
  19 C :   -0.026383
  20 C :   -0.122697
  21 H :    0.017577
  22 C :    0.047788
  23 H :    0.033097
  24 H :    0.018191
  25 C :   -0.086492
  26 H :    0.043591
  27 H :    0.035344
  28 C :   -0.021862
  29 H :    0.006442
  30 H :    0.019911
  31 H :    0.042776
  32 H :    0.059992
  33 H :    0.065893
Sum of atomic charges:    0.0000000

LOEWDIN ATOMIC CHARGES
----------------------
   0 S :    0.454025
   1 C :   -0.199542
   2 C :   -0.070479
   3 C :   -0.059737
   4 C :   -0.230059
   5 H :    0.025090
   6 C :   -0.031622
   7 H :    0.032903
   8 H :    0.028969
   9 C :   -0.033831
  10 H :    0.020506
  11 H :    0.024906
  12 C :   -0.061190
  13 H :    0.026519
  14 H :    0.015559
  15 H :    0.019314
  16 S :    0.382714
  17 C :   -0.182697
  18 C :   -0.074066
  19 C :   -0.045843
  20 C :   -0.191626
  21 H :    0.029662
  22 C :   -0.045769
  23 H :    0.032624
  24 H :    0.032726
  25 C :   -0.041315
  26 H :    0.033763
  27 H :    0.022075
  28 C :   -0.067005
  29 H :    0.022772
  30 H :    0.021410
  31 H :    0.032223
  32 H :    0.037469
  33 H :    0.039550

  Mayer bond orders larger than 0.100000
B(  0-S ,  1-C ) :   1.1677 B(  0-S ,  4-C ) :   1.1813 B(  1-C ,  2-C ) :   1.5888
B(  1-C , 32-H ) :   0.9623 B(  2-C ,  3-C ) :   1.2844 B(  2-C ,  6-C ) :   1.0114
B(  3-C ,  4-C ) :   1.5358 B(  3-C ,  5-H ) :   1.0062 B(  4-C , 20-C ) :   0.9965
B(  6-C ,  7-H ) :   0.9423 B(  6-C ,  8-H ) :   0.9443 B(  6-C ,  9-C ) :   1.0730
B(  9-C , 10-H ) :   0.9564 B(  9-C , 11-H ) :   0.9577 B(  9-C , 12-C ) :   1.0755
B( 12-C , 13-H ) :   0.9755 B( 12-C , 14-H ) :   0.9724 B( 12-C , 15-H ) :   0.9702
B( 16-S , 17-C ) :   1.1272 B( 16-S , 20-C ) :   1.1313 B( 17-C , 18-C ) :   1.6817
B( 17-C , 33-H ) :   0.9614 B( 18-C , 19-C ) :   1.1680 B( 18-C , 21-H ) :   0.9888
B( 19-C , 20-C ) :   1.6391 B( 19-C , 22-C ) :   1.0653 B( 22-C , 23-H ) :   0.9201
B( 22-C , 24-H ) :   0.9349 B( 22-C , 25-C ) :   1.0485 B( 25-C , 26-H ) :   0.9614
B( 25-C , 27-H ) :   0.9502 B( 25-C , 28-C ) :   1.0812 B( 28-C , 29-H ) :   0.9660
B( 28-C , 30-H ) :   0.9717 B( 28-C , 31-H ) :   0.9743

Dispersion correction           -0.014670917
FINAL SINGLE POINT ENERGY     -1339.862711215150

DIPOLE MOMENT
-------------
                                X             Y             Z
Electronic contribution:     -0.57207     -18.69904      23.94901
Nuclear contribution   :      0.50692      19.12804     -24.57645
                        -----------------------------------------
Total Dipole Moment    :     -0.06516       0.42900      -0.62745
                        -----------------------------------------
Magnitude (a.u.)       :      0.76287
Magnitude (Debye)      :      1.93907

Rotational constants in cm-1:     0.017415     0.009673     0.006838
Rotational constants in MHz :   522.092186   289.974576   205.010464

                             ****ORCA TERMINATED NORMALLY****
TOTAL RUN TIME: 0 days 0 hours 0 minutes 30 seconds 577 msec
