                         Program Version 4.2.1 -  RELEASE  -
|  1> ! wB97X-D3 SP def2-SVP
|  2> %pal
|  3> nprocs 16
|  4> end
|  5>
|  6> * xyz 0 1
|  7> S 	 -42.6315 	 49.2483 	 106.366
|  8> C 	 -42.0511 	 48.11 	 105.178
|  9> C 	 -41.22 	 48.8089 	 104.239
| 10> C 	 -41.1091 	 50.1743 	 104.464
| 11> C 	 -41.856 	 50.558 	 105.538
| 12> H 	 -40.569 	 50.9631 	 103.916
| 13> C 	 -40.2552 	 48.1146 	 103.172
| 14> H 	 -40.7395 	 47.1054 	 103.246
| 15> H 	 -39.2033 	 48.052 	 103.519
| 16> C 	 -40.0549 	 48.7218 	 101.765
| 17> H 	 -39.4265 	 49.5543 	 101.922
| 18> H 	 -39.5299 	 48.0849 	 101.135
| 19> C 	 -41.2453 	 49.2299 	 100.927
| 20> H 	 -40.7618 	 49.6973 	 100.049
| 21> H 	 -41.9647 	 48.4797 	 100.547
| 22> H 	 -41.7962 	 49.9602 	 101.414
| 23> S 	 -41.5745 	 52.5273 	 107.425
| 24> C 	 -42.0398 	 54.1989 	 107.033
| 25> C 	 -42.4496 	 54.3105 	 105.765
| 26> C 	 -42.5916 	 53.0537 	 105.118
| 27> C 	 -42.1261 	 51.9539 	 105.878
| 28> H 	 -42.6779 	 55.193 	 105.3
| 29> C 	 -43.2391 	 52.9589 	 103.72
| 30> H 	 -43.0235 	 51.9633 	 103.299
| 31> H 	 -42.8009 	 53.7191 	 103.037
| 32> C 	 -44.7828 	 53.0332 	 103.658
| 33> H 	 -45.337 	 52.244 	 104.194
| 34> H 	 -44.9963 	 52.7917 	 102.596
| 35> C 	 -45.3772 	 54.4738 	 103.919
| 36> H 	 -46.3444 	 54.4911 	 103.312
| 37> H 	 -44.7646 	 55.3238 	 103.762
| 38> H 	 -45.6007 	 54.7001 	 104.935
| 39> H 	 -42.0948 	 47.0207 	 105.202
| 40> H 	 -41.9818 	 55.0014 	 107.852
| 41> *
| 42>
| 43>                          ****END OF INPUT****

CARTESIAN COORDINATES (ANGSTROEM)
---------------------------------
  S    -42.631500   49.248300  106.366000
  C    -42.051100   48.110000  105.178000
  C    -41.220000   48.808900  104.239000
  C    -41.109100   50.174300  104.464000
  C    -41.856000   50.558000  105.538000
  H    -40.569000   50.963100  103.916000
  C    -40.255200   48.114600  103.172000
  H    -40.739500   47.105400  103.246000
  H    -39.203300   48.052000  103.519000
  C    -40.054900   48.721800  101.765000
  H    -39.426500   49.554300  101.922000
  H    -39.529900   48.084900  101.135000
  C    -41.245300   49.229900  100.927000
  H    -40.761800   49.697300  100.049000
  H    -41.964700   48.479700  100.547000
  H    -41.796200   49.960200  101.414000
  S    -41.574500   52.527300  107.425000
  C    -42.039800   54.198900  107.033000
  C    -42.449600   54.310500  105.765000
  C    -42.591600   53.053700  105.118000
  C    -42.126100   51.953900  105.878000
  H    -42.677900   55.193000  105.300000
  C    -43.239100   52.958900  103.720000
  H    -43.023500   51.963300  103.299000
  H    -42.800900   53.719100  103.037000
  C    -44.782800   53.033200  103.658000
  H    -45.337000   52.244000  104.194000
  H    -44.996300   52.791700  102.596000
  C    -45.377200   54.473800  103.919000
  H    -46.344400   54.491100  103.312000
  H    -44.764600   55.323800  103.762000
  H    -45.600700   54.700100  104.935000
  H    -42.094800   47.020700  105.202000
  H    -41.981800   55.001400  107.852000

 Total Charge           Charge          ....    0
 Multiplicity           Mult            ....    1
 Number of Electrons    NEL             ....  134
 Basis Dimension        Dim             ....  322

ORBITAL ENERGIES
----------------

  NO   OCC          E(Eh)            E(eV)
   0   2.0000     -88.972948     -2421.0770
   1   2.0000     -88.960874     -2420.7484
   2   2.0000     -10.325944      -280.9832
   3   2.0000     -10.325015      -280.9579
   4   2.0000     -10.322651      -280.8936
   5   2.0000     -10.322222      -280.8819
   6   2.0000     -10.307347      -280.4772
   7   2.0000     -10.304642      -280.4036
   8   2.0000     -10.300310      -280.2857
   9   2.0000     -10.295199      -280.1466
  10   2.0000     -10.292597      -280.0758
  11   2.0000     -10.290154      -280.0093
  12   2.0000     -10.286155      -279.9005
  13   2.0000     -10.281741      -279.7804
  14   2.0000     -10.277098      -279.6540
  15   2.0000     -10.273415      -279.5538
  16   2.0000      -8.087592      -220.0746
  17   2.0000      -8.075846      -219.7549
  18   2.0000      -6.046009      -164.5203
  19   2.0000      -6.042038      -164.4122
  20   2.0000      -6.038528      -164.3167
  21   2.0000      -6.034331      -164.2025
  22   2.0000      -6.030260      -164.0917
  23   2.0000      -6.026687      -163.9945
  24   2.0000      -1.008861       -27.4525
  25   2.0000      -0.985437       -26.8151
  26   2.0000      -0.903954       -24.5978
  27   2.0000      -0.897847       -24.4317
  28   2.0000      -0.872036       -23.7293
  29   2.0000      -0.853342       -23.2206
  30   2.0000      -0.840432       -22.8693
  31   2.0000      -0.815299       -22.1854
  32   2.0000      -0.784435       -21.3455
  33   2.0000      -0.770975       -20.9793
  34   2.0000      -0.709536       -19.3075
  35   2.0000      -0.698618       -19.0104
  36   2.0000      -0.688180       -18.7263
  37   2.0000      -0.663856       -18.0644
  38   2.0000      -0.639785       -17.4094
  39   2.0000      -0.617030       -16.7902
  40   2.0000      -0.591998       -16.1091
  41   2.0000      -0.564185       -15.3523
  42   2.0000      -0.556967       -15.1558
  43   2.0000      -0.544268       -14.8103
  44   2.0000      -0.538952       -14.6656
  45   2.0000      -0.533603       -14.5201
  46   2.0000      -0.519521       -14.1369
  47   2.0000      -0.513161       -13.9638
  48   2.0000      -0.502788       -13.6816
  49   2.0000      -0.492432       -13.3997
  50   2.0000      -0.490950       -13.3594
  51   2.0000      -0.480872       -13.0852
  52   2.0000      -0.478061       -13.0087
  53   2.0000      -0.462668       -12.5898
  54   2.0000      -0.455069       -12.3831
  55   2.0000      -0.450773       -12.2662
  56   2.0000      -0.444926       -12.1070
  57   2.0000      -0.435276       -11.8445
  58   2.0000      -0.428523       -11.6607
  59   2.0000      -0.427363       -11.6291
  60   2.0000      -0.415485       -11.3059
  61   2.0000      -0.408656       -11.1201
  62   2.0000      -0.404670       -11.0116
  63   2.0000      -0.344797        -9.3824
  64   2.0000      -0.338202        -9.2029
  65   2.0000      -0.324288        -8.8243
  66   2.0000      -0.296026        -8.0553
  67   0.0000       0.031393         0.8542
  68   0.0000       0.065453         1.7811
  69   0.0000       0.111726         3.0402
  70   0.0000       0.122715         3.3392
  71   0.0000       0.130298         3.5456

MULLIKEN ATOMIC CHARGES
-----------------------
   0 S :    0.136711
   1 C :   -0.118141
   2 C :   -0.110993
   3 C :    0.034222
   4 C :   -0.162730
   5 H :    0.030474
   6 C :    0.044876
   7 H :    0.019825
   8 H :    0.051847
   9 C :   -0.051266
  10 H :    0.015499
  11 H :    0.019108
  12 C :   -0.038837
  13 H :    0.027801
  14 H :    0.038113
  15 H :    0.014803
  16 S :    0.087064
  17 C :   -0.113592
  18 C :    0.026673
  19 C :   -0.039970
  20 C :   -0.164749
  21 H :   -0.020874
  22 C :    0.035452
  23 H :    0.030326
  24 H :    0.035421
  25 C :   -0.068696
  26 H :    0.042983
  27 H :    0.030159
  28 C :   -0.061921
  29 H :    0.047623
  30 H :    0.015185
  31 H :    0.025908
  32 H :    0.055509
  33 H :    0.086186
Sum of atomic charges:    0.0000000

LOEWDIN ATOMIC CHARGES
----------------------
   0 S :    0.432493
   1 C :   -0.212691
   2 C :   -0.062463
   3 C :   -0.067244
   4 C :   -0.204611
   5 H :    0.042557
   6 C :   -0.034572
   7 H :    0.027994
   8 H :    0.039079
   9 C :   -0.038462
  10 H :    0.020812
  11 H :    0.021299
  12 C :   -0.061275
  13 H :    0.031475
  14 H :    0.027846
  15 H :    0.010646
  16 S :    0.391682
  17 C :   -0.176799
  18 C :   -0.066195
  19 C :   -0.054817
  20 C :   -0.207621
  21 H :    0.018680
  22 C :   -0.037202
  23 H :    0.031075
  24 H :    0.033146
  25 C :   -0.037571
  26 H :    0.030847
  27 H :    0.027279
  28 C :   -0.078315
  29 H :    0.038466
  30 H :    0.016594
  31 H :    0.021236
  32 H :    0.031827
  33 H :    0.044803

  Mayer bond orders larger than 0.100000
B(  0-S ,  1-C ) :   1.1512 B(  0-S ,  4-C ) :   1.1758 B(  1-C ,  2-C ) :   1.5778
B(  1-C ,  4-C ) :   0.1112 B(  1-C , 32-H ) :   0.9651 B(  2-C ,  3-C ) :   1.2593
B(  2-C ,  6-C ) :   1.0003 B(  3-C ,  4-C ) :   1.5613 B(  3-C ,  5-H ) :   0.9955
B(  4-C , 20-C ) :   0.9960 B(  6-C ,  7-H ) :   0.9434 B(  6-C ,  8-H ) :   0.9497
B(  6-C ,  9-C ) :   1.0613 B(  9-C , 10-H ) :   0.9502 B(  9-C , 11-H ) :   0.9552
B(  9-C , 12-C ) :   1.0852 B( 12-C , 13-H ) :   0.9716 B( 12-C , 14-H ) :   0.9766
B( 12-C , 15-H ) :   0.9754 B( 16-S , 17-C ) :   1.1507 B( 16-S , 20-C ) :   1.1509
B( 17-C , 18-C ) :   1.5913 B( 17-C , 33-H ) :   0.9579 B( 18-C , 19-C ) :   1.2513
B( 18-C , 21-H ) :   1.0092 B( 19-C , 20-C ) :   1.5932 B( 19-C , 22-C ) :   1.0350
B( 22-C , 23-H ) :   0.9342 B( 22-C , 24-H ) :   0.9410 B( 22-C , 25-C ) :   1.0819
B( 25-C , 26-H ) :   0.9549 B( 25-C , 27-H ) :   0.9613 B( 25-C , 28-C ) :   1.0565
B( 28-C , 29-H ) :   0.9774 B( 28-C , 30-H ) :   0.9762 B( 28-C , 31-H ) :   0.9742

Dispersion correction           -0.014734046
FINAL SINGLE POINT ENERGY     -1339.852728633817

DIPOLE MOMENT
-------------
                                X             Y             Z
Electronic contribution:      4.33973      -2.85012      26.70770
Nuclear contribution   :     -4.24114       3.02603     -27.28487
                        -----------------------------------------
Total Dipole Moment    :      0.09859       0.17591      -0.57716
                        -----------------------------------------
Magnitude (a.u.)       :      0.61138
Magnitude (Debye)      :      1.55399

Rotational constants in cm-1:     0.017676     0.009095     0.007259
Rotational constants in MHz :   529.905923   272.656120   217.617120

                             ****ORCA TERMINATED NORMALLY****
TOTAL RUN TIME: 0 days 0 hours 0 minutes 30 seconds 286 msec
