                         Program Version 4.2.1 -  RELEASE  -
|  1> ! wB97X-D3 SP def2-SVP
|  2> %pal
|  3> nprocs 16
|  4> end
|  5>
|  6> * xyz 0 1
|  7> S 	 -31.0652 	 31.2172 	 43.4763
|  8> C 	 -31.7691 	 30.2292 	 44.7202
|  9> C 	 -32.8174 	 30.8563 	 45.3983
| 10> C 	 -33.2745 	 32.0111 	 44.6353
| 11> C 	 -32.4556 	 32.268 	 43.5529
| 12> H 	 -34.1211 	 32.6024 	 44.8346
| 13> C 	 -33.6142 	 30.1532 	 46.4781
| 14> H 	 -33.7737 	 29.112 	 46.0847
| 15> H 	 -34.625 	 30.4991 	 46.5643
| 16> C 	 -33.0216 	 30.0213 	 47.8675
| 17> H 	 -33.0956 	 31.0317 	 48.4056
| 18> H 	 -33.6646 	 29.2739 	 48.3501
| 19> C 	 -31.6355 	 29.5072 	 47.8327
| 20> H 	 -31.411 	 28.54 	 47.4032
| 21> H 	 -31.0593 	 30.3552 	 47.4549
| 22> H 	 -31.3242 	 29.3584 	 48.8342
| 23> S 	 -31.4711 	 34.4584 	 42.1245
| 24> C 	 -32.3818 	 35.0927 	 40.773
| 25> C 	 -33.4306 	 34.2384 	 40.3698
| 26> C 	 -33.635 	 33.2466 	 41.4046
| 27> C 	 -32.6475 	 33.2023 	 42.4066
| 28> H 	 -34.0814 	 34.407 	 39.5201
| 29> C 	 -34.7851 	 32.2344 	 41.3088
| 30> H 	 -35.2938 	 32.6162 	 40.4614
| 31> H 	 -35.4621 	 32.4648 	 42.132
| 32> C 	 -34.4333 	 30.7953 	 41.1337
| 33> H 	 -33.8755 	 30.5306 	 42.0508
| 34> H 	 -33.7678 	 30.7404 	 40.1807
| 35> C 	 -35.6606 	 29.9516 	 40.8883
| 36> H 	 -35.3308 	 28.9183 	 40.7793
| 37> H 	 -36.1616 	 30.3102 	 39.9411
| 38> H 	 -36.3187 	 29.9476 	 41.7727
| 39> H 	 -31.5039 	 29.2705 	 44.9526
| 40> H 	 -32.0603 	 35.9927 	 40.2312
| 41> *
| 42>
| 43>                          ****END OF INPUT****

CARTESIAN COORDINATES (ANGSTROEM)
---------------------------------
  S    -31.065200   31.217200   43.476300
  C    -31.769100   30.229200   44.720200
  C    -32.817400   30.856300   45.398300
  C    -33.274500   32.011100   44.635300
  C    -32.455600   32.268000   43.552900
  H    -34.121100   32.602400   44.834600
  C    -33.614200   30.153200   46.478100
  H    -33.773700   29.112000   46.084700
  H    -34.625000   30.499100   46.564300
  C    -33.021600   30.021300   47.867500
  H    -33.095600   31.031700   48.405600
  H    -33.664600   29.273900   48.350100
  C    -31.635500   29.507200   47.832700
  H    -31.411000   28.540000   47.403200
  H    -31.059300   30.355200   47.454900
  H    -31.324200   29.358400   48.834200
  S    -31.471100   34.458400   42.124500
  C    -32.381800   35.092700   40.773000
  C    -33.430600   34.238400   40.369800
  C    -33.635000   33.246600   41.404600
  C    -32.647500   33.202300   42.406600
  H    -34.081400   34.407000   39.520100
  C    -34.785100   32.234400   41.308800
  H    -35.293800   32.616200   40.461400
  H    -35.462100   32.464800   42.132000
  C    -34.433300   30.795300   41.133700
  H    -33.875500   30.530600   42.050800
  H    -33.767800   30.740400   40.180700
  C    -35.660600   29.951600   40.888300
  H    -35.330800   28.918300   40.779300
  H    -36.161600   30.310200   39.941100
  H    -36.318700   29.947600   41.772700
  H    -31.503900   29.270500   44.952600
  H    -32.060300   35.992700   40.231200

 Total Charge           Charge          ....    0
 Multiplicity           Mult            ....    1
 Number of Electrons    NEL             ....  134
 Basis Dimension        Dim             ....  322

ORBITAL ENERGIES
----------------

  NO   OCC          E(Eh)            E(eV)
   0   2.0000     -88.967428     -2420.9268
   1   2.0000     -88.965185     -2420.8658
   2   2.0000     -10.330614      -281.1103
   3   2.0000     -10.325015      -280.9579
   4   2.0000     -10.321617      -280.8655
   5   2.0000     -10.308163      -280.4994
   6   2.0000     -10.304566      -280.4015
   7   2.0000     -10.302937      -280.3572
   8   2.0000     -10.299875      -280.2738
   9   2.0000     -10.296997      -280.1955
  10   2.0000     -10.290798      -280.0268
  11   2.0000     -10.288944      -279.9764
  12   2.0000     -10.283920      -279.8397
  13   2.0000     -10.279128      -279.7093
  14   2.0000     -10.278782      -279.6999
  15   2.0000     -10.268184      -279.4115
  16   2.0000      -8.082440      -219.9344
  17   2.0000      -8.079979      -219.8674
  18   2.0000      -6.040852      -164.3800
  19   2.0000      -6.038391      -164.3130
  20   2.0000      -6.036986      -164.2747
  21   2.0000      -6.034408      -164.2046
  22   2.0000      -6.033193      -164.1715
  23   2.0000      -6.030929      -164.1099
  24   2.0000      -1.003300       -27.3012
  25   2.0000      -0.980717       -26.6867
  26   2.0000      -0.919359       -25.0170
  27   2.0000      -0.910347       -24.7718
  28   2.0000      -0.864083       -23.5129
  29   2.0000      -0.850797       -23.1514
  30   2.0000      -0.846998       -23.0480
  31   2.0000      -0.813162       -22.1273
  32   2.0000      -0.786684       -21.4068
  33   2.0000      -0.769058       -20.9271
  34   2.0000      -0.701327       -19.0841
  35   2.0000      -0.691881       -18.8270
  36   2.0000      -0.681243       -18.5376
  37   2.0000      -0.661756       -18.0073
  38   2.0000      -0.646619       -17.5954
  39   2.0000      -0.614761       -16.7285
  40   2.0000      -0.588404       -16.0113
  41   2.0000      -0.576976       -15.7003
  42   2.0000      -0.569269       -15.4906
  43   2.0000      -0.557272       -15.1641
  44   2.0000      -0.546284       -14.8651
  45   2.0000      -0.520625       -14.1669
  46   2.0000      -0.515685       -14.0325
  47   2.0000      -0.504881       -13.7385
  48   2.0000      -0.500692       -13.6245
  49   2.0000      -0.498851       -13.5744
  50   2.0000      -0.488818       -13.3014
  51   2.0000      -0.487795       -13.2736
  52   2.0000      -0.474957       -12.9242
  53   2.0000      -0.462835       -12.5944
  54   2.0000      -0.458819       -12.4851
  55   2.0000      -0.450637       -12.2624
  56   2.0000      -0.443543       -12.0694
  57   2.0000      -0.427680       -11.6378
  58   2.0000      -0.425735       -11.5848
  59   2.0000      -0.424084       -11.5399
  60   2.0000      -0.415961       -11.3189
  61   2.0000      -0.412023       -11.2117
  62   2.0000      -0.408257       -11.1092
  63   2.0000      -0.338407        -9.2085
  64   2.0000      -0.332240        -9.0407
  65   2.0000      -0.327298        -8.9062
  66   2.0000      -0.290207        -7.8969
  67   0.0000       0.039141         1.0651
  68   0.0000       0.050087         1.3629
  69   0.0000       0.110975         3.0198
  70   0.0000       0.115160         3.1337
  71   0.0000       0.129440         3.5222

MULLIKEN ATOMIC CHARGES
-----------------------
   0 S :    0.133407
   1 C :   -0.077958
   2 C :   -0.081564
   3 C :    0.057278
   4 C :   -0.176424
   5 H :   -0.002256
   6 C :    0.025161
   7 H :    0.033858
   8 H :    0.014181
   9 C :   -0.076993
  10 H :    0.046252
  11 H :    0.026757
  12 C :   -0.033692
  13 H :    0.027991
  14 H :    0.049255
  15 H :    0.014910
  16 S :    0.108213
  17 C :   -0.109265
  18 C :   -0.021664
  19 C :   -0.085205
  20 C :   -0.153953
  21 H :    0.029300
  22 C :    0.103956
  23 H :   -0.021346
  24 H :    0.023511
  25 C :   -0.091723
  26 H :    0.051762
  27 H :    0.040802
  28 C :   -0.036756
  29 H :    0.034134
  30 H :    0.039812
  31 H :    0.031181
  32 H :    0.009489
  33 H :    0.067591
Sum of atomic charges:    0.0000000

LOEWDIN ATOMIC CHARGES
----------------------
   0 S :    0.415703
   1 C :   -0.177617
   2 C :   -0.060263
   3 C :   -0.050861
   4 C :   -0.195615
   5 H :    0.026220
   6 C :   -0.041975
   7 H :    0.038235
   8 H :    0.024813
   9 C :   -0.043037
  10 H :    0.034591
  11 H :    0.024551
  12 C :   -0.070845
  13 H :    0.024131
  14 H :    0.033251
  15 H :    0.022474
  16 S :    0.411048
  17 C :   -0.186562
  18 C :   -0.072720
  19 C :   -0.051697
  20 C :   -0.217623
  21 H :    0.034048
  22 C :   -0.038045
  23 H :    0.017616
  24 H :    0.029719
  25 C :   -0.047791
  26 H :    0.029462
  27 H :    0.036122
  28 C :   -0.067571
  29 H :    0.026497
  30 H :    0.031853
  31 H :    0.025511
  32 H :    0.005814
  33 H :    0.030562

  Mayer bond orders larger than 0.100000
B(  0-S ,  1-C ) :   1.1456 B(  0-S ,  4-C ) :   1.1468 B(  1-C ,  2-C ) :   1.6123
B(  1-C , 32-H ) :   0.9755 B(  2-C ,  3-C ) :   1.1998 B(  2-C ,  6-C ) :   1.0118
B(  3-C ,  4-C ) :   1.6111 B(  3-C ,  5-H ) :   1.0111 B(  4-C , 20-C ) :   0.9982
B(  6-C ,  7-H ) :   0.9481 B(  6-C ,  8-H ) :   0.9456 B(  6-C ,  9-C ) :   1.0759
B(  9-C , 10-H ) :   0.9503 B(  9-C , 11-H ) :   0.9506 B(  9-C , 12-C ) :   1.1022
B( 12-C , 13-H ) :   0.9701 B( 12-C , 14-H ) :   0.9622 B( 12-C , 15-H ) :   0.9645
B( 16-S , 17-C ) :   1.1817 B( 16-S , 20-C ) :   1.1438 B( 17-C , 18-C ) :   1.5709
B( 17-C , 20-C ) :   0.1025 B( 17-C , 33-H ) :   0.9646 B( 18-C , 19-C ) :   1.2730
B( 18-C , 21-H ) :   0.9842 B( 19-C , 20-C ) :   1.5842 B( 19-C , 22-C ) :   1.0289
B( 22-C , 23-H ) :   0.9216 B( 22-C , 24-H ) :   0.9246 B( 22-C , 25-C ) :   1.0682
B( 25-C , 26-H ) :   0.9508 B( 25-C , 27-H ) :   0.9507 B( 25-C , 28-C ) :   1.0905
B( 28-C , 29-H ) :   0.9728 B( 28-C , 30-H ) :   0.9717 B( 28-C , 31-H ) :   0.9714

Dispersion correction           -0.014969131
FINAL SINGLE POINT ENERGY     -1339.863027199545

DIPOLE MOMENT
-------------
                                X             Y             Z
Electronic contribution:     15.41147      17.36236      -9.14678
Nuclear contribution   :    -15.94309     -17.70856       9.29358
                        -----------------------------------------
Total Dipole Moment    :     -0.53163      -0.34620       0.14680
                        -----------------------------------------
Magnitude (a.u.)       :      0.65118
Magnitude (Debye)      :      1.65516

Rotational constants in cm-1:     0.021158     0.008443     0.006848
Rotational constants in MHz :   634.299910   253.126551   205.310197

                             ****ORCA TERMINATED NORMALLY****
TOTAL RUN TIME: 0 days 0 hours 0 minutes 34 seconds 989 msec
