                         Program Version 4.2.1 -  RELEASE  -
|  1> ! wB97X-D3 SP def2-SVP
|  2> %pal
|  3> nprocs 16
|  4> end
|  5>
|  6> * xyz 0 1
|  7> S 	 39.2007 	 12.2243 	 89.7758
|  8> C 	 40.458 	 13.4442 	 90.0639
|  9> C 	 41.7143 	 13.0005 	 89.7326
| 10> C 	 41.6746 	 11.591 	 89.3461
| 11> C 	 40.4383 	 10.9985 	 89.3691
| 12> H 	 42.5391 	 10.9808 	 89.0927
| 13> C 	 42.9471 	 13.8478 	 89.7038
| 14> H 	 43.4645 	 13.405 	 90.5542
| 15> H 	 42.7408 	 14.88 	 90.0235
| 16> C 	 43.6702 	 13.8714 	 88.3572
| 17> H 	 44.5753 	 14.4538 	 88.4668
| 18> H 	 44.0731 	 12.9314 	 88.0684
| 19> C 	 42.8397 	 14.3396 	 87.1022
| 20> H 	 43.485 	 14.5434 	 86.1786
| 21> H 	 42.1292 	 13.589 	 86.7433
| 22> H 	 42.192 	 15.1904 	 87.2937
| 23> S 	 38.3479 	 9.26295 	 89.014
| 24> C 	 38.7031 	 7.56771 	 88.7748
| 25> C 	 40.0488 	 7.24812 	 89.0131
| 26> C 	 40.7885 	 8.35253 	 89.4304
| 27> C 	 40.0836 	 9.60518 	 89.2574
| 28> H 	 40.4609 	 6.27574 	 88.7996
| 29> C 	 42.2549 	 8.18361 	 89.7201
| 30> H 	 42.3505 	 7.24622 	 90.3088
| 31> H 	 42.6178 	 9.03085 	 90.316
| 32> C 	 43.0903 	 8.06242 	 88.5054
| 33> H 	 43.1807 	 9.04048 	 88.1
| 34> H 	 42.5764 	 7.38779 	 87.7772
| 35> C 	 44.5357 	 7.55749 	 88.7519
| 36> H 	 44.9431 	 7.44856 	 87.7487
| 37> H 	 44.5076 	 6.58272 	 89.1511
| 38> H 	 45.2914 	 8.1874 	 89.3569
| 39> H 	 40.2709 	 14.4858 	 90.1433
| 40> H 	 37.9088 	 6.82035 	 88.5891
| 41> *
| 42>
| 43>                          ****END OF INPUT****

CARTESIAN COORDINATES (ANGSTROEM)
---------------------------------
  S     39.200700   12.224300   89.775800
  C     40.458000   13.444200   90.063900
  C     41.714300   13.000500   89.732600
  C     41.674600   11.591000   89.346100
  C     40.438300   10.998500   89.369100
  H     42.539100   10.980800   89.092700
  C     42.947100   13.847800   89.703800
  H     43.464500   13.405000   90.554200
  H     42.740800   14.880000   90.023500
  C     43.670200   13.871400   88.357200
  H     44.575300   14.453800   88.466800
  H     44.073100   12.931400   88.068400
  C     42.839700   14.339600   87.102200
  H     43.485000   14.543400   86.178600
  H     42.129200   13.589000   86.743300
  H     42.192000   15.190400   87.293700
  S     38.347900    9.262950   89.014000
  C     38.703100    7.567710   88.774800
  C     40.048800    7.248120   89.013100
  C     40.788500    8.352530   89.430400
  C     40.083600    9.605180   89.257400
  H     40.460900    6.275740   88.799600
  C     42.254900    8.183610   89.720100
  H     42.350500    7.246220   90.308800
  H     42.617800    9.030850   90.316000
  C     43.090300    8.062420   88.505400
  H     43.180700    9.040480   88.100000
  H     42.576400    7.387790   87.777200
  C     44.535700    7.557490   88.751900
  H     44.943100    7.448560   87.748700
  H     44.507600    6.582720   89.151100
  H     45.291400    8.187400   89.356900
  H     40.270900   14.485800   90.143300
  H     37.908800    6.820350   88.589100

 Total Charge           Charge          ....    0
 Multiplicity           Mult            ....    1
 Number of Electrons    NEL             ....  134
 Basis Dimension        Dim             ....  322

ORBITAL ENERGIES
----------------

  NO   OCC          E(Eh)            E(eV)
   0   2.0000     -88.969646     -2420.9872
   1   2.0000     -88.961667     -2420.7700
   2   2.0000     -10.335494      -281.2431
   3   2.0000     -10.333609      -281.1918
   4   2.0000     -10.324773      -280.9514
   5   2.0000     -10.309981      -280.5489
   6   2.0000     -10.308542      -280.5097
   7   2.0000     -10.303101      -280.3616
   8   2.0000     -10.296664      -280.1865
   9   2.0000     -10.296229      -280.1746
  10   2.0000     -10.296105      -280.1713
  11   2.0000     -10.290318      -280.0138
  12   2.0000     -10.289897      -280.0023
  13   2.0000     -10.287737      -279.9436
  14   2.0000     -10.284652      -279.8596
  15   2.0000     -10.283833      -279.8373
  16   2.0000      -8.083814      -219.9718
  17   2.0000      -8.075771      -219.7529
  18   2.0000      -6.042222      -164.4172
  19   2.0000      -6.038471      -164.3152
  20   2.0000      -6.034658      -164.2114
  21   2.0000      -6.034639      -164.2109
  22   2.0000      -6.030566      -164.1000
  23   2.0000      -6.025988      -163.9755
  24   2.0000      -1.002287       -27.2736
  25   2.0000      -0.979427       -26.6516
  26   2.0000      -0.920579       -25.0502
  27   2.0000      -0.911547       -24.8045
  28   2.0000      -0.868302       -23.6277
  29   2.0000      -0.854483       -23.2517
  30   2.0000      -0.838055       -22.8046
  31   2.0000      -0.814166       -22.1546
  32   2.0000      -0.785649       -21.3786
  33   2.0000      -0.772572       -21.0228
  34   2.0000      -0.713546       -19.4166
  35   2.0000      -0.703070       -19.1315
  36   2.0000      -0.692423       -18.8418
  37   2.0000      -0.665110       -18.0986
  38   2.0000      -0.639180       -17.3930
  39   2.0000      -0.621402       -16.9092
  40   2.0000      -0.599021       -16.3002
  41   2.0000      -0.574073       -15.6213
  42   2.0000      -0.560621       -15.2553
  43   2.0000      -0.556911       -15.1543
  44   2.0000      -0.533859       -14.5270
  45   2.0000      -0.525011       -14.2863
  46   2.0000      -0.517331       -14.0773
  47   2.0000      -0.510022       -13.8784
  48   2.0000      -0.503052       -13.6887
  49   2.0000      -0.498714       -13.5707
  50   2.0000      -0.490600       -13.3499
  51   2.0000      -0.481438       -13.1006
  52   2.0000      -0.470427       -12.8010
  53   2.0000      -0.464841       -12.6490
  54   2.0000      -0.461331       -12.5535
  55   2.0000      -0.452533       -12.3140
  56   2.0000      -0.447245       -12.1702
  57   2.0000      -0.439023       -11.9464
  58   2.0000      -0.433765       -11.8033
  59   2.0000      -0.428238       -11.6530
  60   2.0000      -0.421452       -11.4683
  61   2.0000      -0.417850       -11.3703
  62   2.0000      -0.410529       -11.1711
  63   2.0000      -0.358985        -9.7685
  64   2.0000      -0.337769        -9.1912
  65   2.0000      -0.324426        -8.8281
  66   2.0000      -0.277920        -7.5626
  67   0.0000       0.012504         0.3402
  68   0.0000       0.077715         2.1147
  69   0.0000       0.091444         2.4883
  70   0.0000       0.118219         3.2169
  71   0.0000       0.126951         3.4545

MULLIKEN ATOMIC CHARGES
-----------------------
   0 S :    0.072075
   1 C :   -0.094849
   2 C :   -0.108550
   3 C :   -0.023895
   4 C :   -0.075520
   5 H :   -0.004895
   6 C :    0.075275
   7 H :    0.044613
   8 H :    0.020214
   9 C :   -0.039799
  10 H :    0.027598
  11 H :    0.016736
  12 C :   -0.086120
  13 H :    0.046868
  14 H :    0.042272
  15 H :    0.028734
  16 S :    0.095984
  17 C :   -0.092671
  18 C :   -0.042528
  19 C :   -0.027585
  20 C :   -0.141557
  21 H :    0.022697
  22 C :    0.046067
  23 H :    0.023047
  24 H :    0.031003
  25 C :   -0.072055
  26 H :    0.020831
  27 H :    0.032077
  28 C :   -0.048362
  29 H :    0.032365
  30 H :    0.020870
  31 H :    0.050129
  32 H :    0.037182
  33 H :    0.071747
Sum of atomic charges:    0.0000000

LOEWDIN ATOMIC CHARGES
----------------------
   0 S :    0.357788
   1 C :   -0.187169
   2 C :   -0.057006
   3 C :   -0.072418
   4 C :   -0.171237
   5 H :    0.026216
   6 C :   -0.033347
   7 H :    0.041794
   8 H :    0.032218
   9 C :   -0.038959
  10 H :    0.025859
  11 H :    0.019133
  12 C :   -0.073392
  13 H :    0.037037
  14 H :    0.028835
  15 H :    0.021345
  16 S :    0.398773
  17 C :   -0.183088
  18 C :   -0.072384
  19 C :   -0.046418
  20 C :   -0.186390
  21 H :    0.032514
  22 C :   -0.039814
  23 H :    0.032882
  24 H :    0.030422
  25 C :   -0.038810
  26 H :    0.017677
  27 H :    0.030632
  28 C :   -0.068936
  29 H :    0.028977
  30 H :    0.015582
  31 H :    0.035856
  32 H :    0.021358
  33 H :    0.034467

  Mayer bond orders larger than 0.100000
B(  0-S ,  1-C ) :   1.1076 B(  0-S ,  4-C ) :   1.1082 B(  1-C ,  2-C ) :   1.6631
B(  1-C , 32-H ) :   0.9618 B(  2-C ,  3-C ) :   1.1917 B(  2-C ,  6-C ) :   1.0168
B(  3-C ,  4-C ) :   1.6070 B(  3-C ,  5-H ) :   0.9915 B(  4-C , 20-C ) :   1.1148
B(  6-C ,  7-H ) :   0.9337 B(  6-C ,  8-H ) :   0.9417 B(  6-C ,  9-C ) :   1.0713
B(  9-C , 10-H ) :   0.9574 B(  9-C , 11-H ) :   0.9538 B(  9-C , 12-C ) :   1.0596
B( 12-C , 13-H ) :   0.9756 B( 12-C , 14-H ) :   0.9741 B( 12-C , 15-H ) :   0.9797
B( 16-S , 17-C ) :   1.1742 B( 16-S , 20-C ) :   1.1369 B( 17-C , 18-C ) :   1.5671
B( 17-C , 20-C ) :   0.1149 B( 17-C , 33-H ) :   0.9640 B( 18-C , 19-C ) :   1.2795
B( 18-C , 21-H ) :   0.9899 B( 19-C , 20-C ) :   1.5042 B( 19-C , 22-C ) :   1.0630
B( 22-C , 23-H ) :   0.9266 B( 22-C , 24-H ) :   0.9273 B( 22-C , 25-C ) :   1.0795
B( 25-C , 26-H ) :   0.9479 B( 25-C , 27-H ) :   0.9496 B( 25-C , 28-C ) :   1.0792
B( 28-C , 29-H ) :   0.9725 B( 28-C , 30-H ) :   0.9737 B( 28-C , 31-H ) :   0.9744

Dispersion correction           -0.014474347
FINAL SINGLE POINT ENERGY     -1339.872951773500

DIPOLE MOMENT
-------------
                                X             Y             Z
Electronic contribution:    -28.74217      -1.64295       7.05588
Nuclear contribution   :     29.50632       1.42406      -7.23801
                        -----------------------------------------
Total Dipole Moment    :      0.76416      -0.21889      -0.18213
                        -----------------------------------------
Magnitude (a.u.)       :      0.81549
Magnitude (Debye)      :      2.07280

Rotational constants in cm-1:     0.016806     0.009853     0.006805
Rotational constants in MHz :   503.822110   295.381695   204.010694

                             ****ORCA TERMINATED NORMALLY****
TOTAL RUN TIME: 0 days 0 hours 0 minutes 30 seconds 722 msec
