                         Program Version 4.2.1 -  RELEASE  -
|  1> ! wB97X-D3 SP def2-SVP
|  2> %pal
|  3> nprocs 16
|  4> end
|  5>
|  6> * xyz 0 1
|  7> S 	 -5.14725 	 -12.6073 	 86.2649
|  8> C 	 -4.21036 	 -13.9235 	 86.9351
|  9> C 	 -3.14375 	 -14.3602 	 86.1933
| 10> C 	 -2.92025 	 -13.5331 	 85.0182
| 11> C 	 -3.8574 	 -12.4929 	 84.9623
| 12> H 	 -2.14632 	 -13.59 	 84.2616
| 13> C 	 -2.25983 	 -15.6134 	 86.5171
| 14> H 	 -2.90668 	 -16.4576 	 86.7118
| 15> H 	 -1.64227 	 -15.4576 	 87.3517
| 16> C 	 -1.31124 	 -16.0674 	 85.3753
| 17> H 	 -1.98429 	 -15.9891 	 84.4794
| 18> H 	 -0.514966 	 -15.4372 	 85.1566
| 19> C 	 -0.839148 	 -17.4968 	 85.4821
| 20> H 	 -0.283262 	 -17.8668 	 84.6041
| 21> H 	 -0.11759 	 -17.4971 	 86.3246
| 22> H 	 -1.59783 	 -18.2241 	 85.6332
| 23> S 	 -3.79114 	 -9.77421 	 84.5086
| 24> C 	 -4.1439 	 -9.18211 	 82.8955
| 25> C 	 -4.45136 	 -10.2081 	 82.0017
| 26> C 	 -4.1851 	 -11.5161 	 82.4791
| 27> C 	 -3.94871 	 -11.5117 	 83.8702
| 28> H 	 -4.84556 	 -9.9692 	 80.9997
| 29> C 	 -4.47881 	 -12.7476 	 81.659
| 30> H 	 -3.94532 	 -13.5921 	 82.099
| 31> H 	 -3.97262 	 -12.4938 	 80.6814
| 32> C 	 -5.98795 	 -13.0868 	 81.4457
| 33> H 	 -6.61389 	 -12.2188 	 81.1153
| 34> H 	 -6.28261 	 -13.2642 	 82.4866
| 35> C 	 -6.2633 	 -14.3061 	 80.5851
| 36> H 	 -6.27521 	 -13.9677 	 79.5073
| 37> H 	 -7.25031 	 -14.678 	 80.8839
| 38> H 	 -5.52914 	 -15.0843 	 80.5851
| 39> H 	 -4.70846 	 -14.499 	 87.6749
| 40> H 	 -4.43741 	 -8.15288 	 82.6176
| 41> *
| 42>
| 43>                          ****END OF INPUT****

CARTESIAN COORDINATES (ANGSTROEM)
---------------------------------
  S     -5.147250  -12.607300   86.264900
  C     -4.210360  -13.923500   86.935100
  C     -3.143750  -14.360200   86.193300
  C     -2.920250  -13.533100   85.018200
  C     -3.857400  -12.492900   84.962300
  H     -2.146320  -13.590000   84.261600
  C     -2.259830  -15.613400   86.517100
  H     -2.906680  -16.457600   86.711800
  H     -1.642270  -15.457600   87.351700
  C     -1.311240  -16.067400   85.375300
  H     -1.984290  -15.989100   84.479400
  H     -0.514966  -15.437200   85.156600
  C     -0.839148  -17.496800   85.482100
  H     -0.283262  -17.866800   84.604100
  H     -0.117590  -17.497100   86.324600
  H     -1.597830  -18.224100   85.633200
  S     -3.791140   -9.774210   84.508600
  C     -4.143900   -9.182110   82.895500
  C     -4.451360  -10.208100   82.001700
  C     -4.185100  -11.516100   82.479100
  C     -3.948710  -11.511700   83.870200
  H     -4.845560   -9.969200   80.999700
  C     -4.478810  -12.747600   81.659000
  H     -3.945320  -13.592100   82.099000
  H     -3.972620  -12.493800   80.681400
  C     -5.987950  -13.086800   81.445700
  H     -6.613890  -12.218800   81.115300
  H     -6.282610  -13.264200   82.486600
  C     -6.263300  -14.306100   80.585100
  H     -6.275210  -13.967700   79.507300
  H     -7.250310  -14.678000   80.883900
  H     -5.529140  -15.084300   80.585100
  H     -4.708460  -14.499000   87.674900
  H     -4.437410   -8.152880   82.617600

 Total Charge           Charge          ....    0
 Multiplicity           Mult            ....    1
 Number of Electrons    NEL             ....  134
 Basis Dimension        Dim             ....  322

ORBITAL ENERGIES
----------------

  NO   OCC          E(Eh)            E(eV)
   0   2.0000     -88.970100     -2420.9995
   1   2.0000     -88.962224     -2420.7852
   2   2.0000     -10.338018      -281.3118
   3   2.0000     -10.334370      -281.2125
   4   2.0000     -10.318235      -280.7734
   5   2.0000     -10.312152      -280.6079
   6   2.0000     -10.309590      -280.5382
   7   2.0000     -10.308160      -280.4993
   8   2.0000     -10.303699      -280.3779
   9   2.0000     -10.297061      -280.1973
  10   2.0000     -10.294416      -280.1253
  11   2.0000     -10.294038      -280.1150
  12   2.0000     -10.290982      -280.0318
  13   2.0000     -10.285188      -279.8742
  14   2.0000     -10.281553      -279.7753
  15   2.0000     -10.280273      -279.7405
  16   2.0000      -8.083650      -219.9673
  17   2.0000      -8.075511      -219.7458
  18   2.0000      -6.042079      -164.4133
  19   2.0000      -6.038626      -164.3194
  20   2.0000      -6.034245      -164.2001
  21   2.0000      -6.034088      -164.1959
  22   2.0000      -6.030310      -164.0931
  23   2.0000      -6.026191      -163.9810
  24   2.0000      -0.992421       -27.0052
  25   2.0000      -0.972669       -26.4677
  26   2.0000      -0.910372       -24.7725
  27   2.0000      -0.904404       -24.6101
  28   2.0000      -0.864614       -23.5274
  29   2.0000      -0.851746       -23.1772
  30   2.0000      -0.847627       -23.0651
  31   2.0000      -0.808839       -22.0096
  32   2.0000      -0.782306       -21.2876
  33   2.0000      -0.768464       -20.9110
  34   2.0000      -0.710439       -19.3320
  35   2.0000      -0.696968       -18.9655
  36   2.0000      -0.687460       -18.7067
  37   2.0000      -0.655363       -17.8333
  38   2.0000      -0.645927       -17.5766
  39   2.0000      -0.616324       -16.7710
  40   2.0000      -0.588107       -16.0032
  41   2.0000      -0.577880       -15.7249
  42   2.0000      -0.559908       -15.2359
  43   2.0000      -0.552760       -15.0414
  44   2.0000      -0.530198       -14.4274
  45   2.0000      -0.518922       -14.1206
  46   2.0000      -0.516956       -14.0671
  47   2.0000      -0.510289       -13.8857
  48   2.0000      -0.500437       -13.6176
  49   2.0000      -0.494798       -13.4642
  50   2.0000      -0.485611       -13.2142
  51   2.0000      -0.478485       -13.0202
  52   2.0000      -0.470712       -12.8087
  53   2.0000      -0.466701       -12.6996
  54   2.0000      -0.458017       -12.4633
  55   2.0000      -0.450370       -12.2552
  56   2.0000      -0.444899       -12.1063
  57   2.0000      -0.441250       -12.0070
  58   2.0000      -0.435644       -11.8545
  59   2.0000      -0.429153       -11.6779
  60   2.0000      -0.419701       -11.4206
  61   2.0000      -0.409265       -11.1367
  62   2.0000      -0.408538       -11.1169
  63   2.0000      -0.341531        -9.2935
  64   2.0000      -0.332730        -9.0540
  65   2.0000      -0.325475        -8.8566
  66   2.0000      -0.291975        -7.9450
  67   0.0000       0.026638         0.7248
  68   0.0000       0.052684         1.4336
  69   0.0000       0.101158         2.7527
  70   0.0000       0.111175         3.0252
  71   0.0000       0.122183         3.3248

MULLIKEN ATOMIC CHARGES
-----------------------
   0 S :    0.107796
   1 C :   -0.110749
   2 C :   -0.080873
   3 C :    0.025334
   4 C :   -0.137799
   5 H :    0.029276
   6 C :    0.103411
   7 H :    0.026347
   8 H :    0.031247
   9 C :   -0.114366
  10 H :    0.025368
  11 H :    0.026916
  12 C :   -0.032440
  13 H :    0.036131
  14 H :    0.029401
  15 H :    0.026393
  16 S :    0.081955
  17 C :   -0.080140
  18 C :   -0.079915
  19 C :   -0.005791
  20 C :   -0.201508
  21 H :    0.029701
  22 C :    0.047185
  23 H :    0.023668
  24 H :    0.030549
  25 C :   -0.088331
  26 H :    0.038760
  27 H :    0.031468
  28 C :   -0.031975
  29 H :    0.035655
  30 H :    0.043085
  31 H :    0.027221
  32 H :    0.040503
  33 H :    0.066515
Sum of atomic charges:    0.0000000

LOEWDIN ATOMIC CHARGES
----------------------
   0 S :    0.374399
   1 C :   -0.188592
   2 C :   -0.057919
   3 C :   -0.052935
   4 C :   -0.176060
   5 H :    0.036227
   6 C :   -0.019385
   7 H :    0.031476
   8 H :    0.024651
   9 C :   -0.044308
  10 H :    0.024559
  11 H :    0.014437
  12 C :   -0.062459
  13 H :    0.031424
  14 H :    0.027770
  15 H :    0.019362
  16 S :    0.359781
  17 C :   -0.191405
  18 C :   -0.076766
  19 C :   -0.054793
  20 C :   -0.166659
  21 H :    0.034627
  22 C :   -0.034791
  23 H :    0.029495
  24 H :    0.032926
  25 C :   -0.044480
  26 H :    0.030225
  27 H :    0.026251
  28 C :   -0.066276
  29 H :    0.032459
  30 H :    0.032102
  31 H :    0.020621
  32 H :    0.018417
  33 H :    0.035619

  Mayer bond orders larger than 0.100000
B(  0-S ,  1-C ) :   1.1298 B(  0-S ,  4-C ) :   1.1265 B(  1-C ,  2-C ) :   1.6639
B(  1-C , 32-H ) :   0.9679 B(  2-C ,  3-C ) :   1.2071 B(  2-C ,  6-C ) :   0.9968
B(  3-C ,  4-C ) :   1.5993 B(  3-C ,  5-H ) :   0.9888 B(  4-C , 20-C ) :   1.0401
B(  6-C ,  7-H ) :   0.9445 B(  6-C ,  8-H ) :   0.9380 B(  6-C ,  9-C ) :   1.0754
B(  9-C , 10-H ) :   0.9532 B(  9-C , 11-H ) :   0.9526 B(  9-C , 12-C ) :   1.0890
B( 12-C , 13-H ) :   0.9716 B( 12-C , 14-H ) :   0.9738 B( 12-C , 15-H ) :   0.9744
B( 16-S , 17-C ) :   1.1450 B( 16-S , 20-C ) :   1.1210 B( 17-C , 18-C ) :   1.6403
B( 17-C , 20-C ) :   0.1047 B( 17-C , 33-H ) :   0.9570 B( 18-C , 19-C ) :   1.2223
B( 18-C , 21-H ) :   0.9794 B( 19-C , 20-C ) :   1.5905 B( 19-C , 22-C ) :   1.0538
B( 22-C , 23-H ) :   0.9342 B( 22-C , 24-H ) :   0.9283 B( 22-C , 25-C ) :   1.0522
B( 25-C , 26-H ) :   0.9571 B( 25-C , 27-H ) :   0.9571 B( 25-C , 28-C ) :   1.0753
B( 28-C , 29-H ) :   0.9745 B( 28-C , 30-H ) :   0.9740 B( 28-C , 31-H ) :   0.9762

Dispersion correction           -0.013726990
FINAL SINGLE POINT ENERGY     -1339.862210462031

DIPOLE MOMENT
-------------
                                X             Y             Z
Electronic contribution:     -4.90801      25.23795      12.87835
Nuclear contribution   :      4.86738     -25.90829     -13.27024
                        -----------------------------------------
Total Dipole Moment    :     -0.04063      -0.67034      -0.39189
                        -----------------------------------------
Magnitude (a.u.)       :      0.77755
Magnitude (Debye)      :      1.97637

Rotational constants in cm-1:     0.016431     0.008299     0.006766
Rotational constants in MHz :   492.584914   248.784392   202.843373

                             ****ORCA TERMINATED NORMALLY****
TOTAL RUN TIME: 0 days 0 hours 0 minutes 32 seconds 442 msec
