                         Program Version 4.2.1 -  RELEASE  -
|  1> ! wB97X-D3 SP def2-SVP
|  2> %pal
|  3> nprocs 16
|  4> end
|  5>
|  6> * xyz 0 1
|  7> S 	 -49.9809 	 7.27219 	 81.4145
|  8> C 	 -48.7943 	 8.5719 	 81.3952
|  9> C 	 -49.0171 	 9.44013 	 82.4484
| 10> C 	 -50.0777 	 9.00975 	 83.323
| 11> C 	 -50.7662 	 7.87134 	 82.889
| 12> H 	 -50.3904 	 9.55304 	 84.2075
| 13> C 	 -48.3068 	 10.7985 	 82.5537
| 14> H 	 -48.9769 	 11.5219 	 82.2312
| 15> H 	 -47.4878 	 10.8234 	 81.8568
| 16> C 	 -47.731 	 11.2988 	 83.8914
| 17> H 	 -47.4815 	 12.3723 	 83.8434
| 18> H 	 -48.5178 	 11.1719 	 84.6933
| 19> C 	 -46.518 	 10.4818 	 84.2425
| 20> H 	 -45.7251 	 10.9332 	 83.7879
| 21> H 	 -46.3568 	 10.5333 	 85.2777
| 22> H 	 -46.7462 	 9.45739 	 83.9718
| 23> S 	 -51.2786 	 5.52804 	 83.9854
| 24> C 	 -52.9141 	 5.00606 	 84.4553
| 25> C 	 -53.79 	 6.01368 	 84.1651
| 26> C 	 -53.1805 	 7.23821 	 83.6951
| 27> C 	 -51.8398 	 7.07451 	 83.4976
| 28> H 	 -54.8887 	 5.91995 	 84.3516
| 29> C 	 -54.0122 	 8.38377 	 83.1628
| 30> H 	 -53.6506 	 9.45886 	 83.3419
| 31> H 	 -54.9485 	 8.36849 	 83.6664
| 32> C 	 -54.3226 	 8.30128 	 81.6523
| 33> H 	 -54.7004 	 7.3514 	 81.3681
| 34> H 	 -53.3234 	 8.50144 	 81.2745
| 35> C 	 -55.2083 	 9.48769 	 81.1467
| 36> H 	 -56.1838 	 9.52292 	 81.7631
| 37> H 	 -55.533 	 9.35348 	 80.0966
| 38> H 	 -54.6986 	 10.4952 	 81.1427
| 39> H 	 -48.1904 	 8.90584 	 80.5656
| 40> H 	 -53.212 	 4.03265 	 84.8002
| 41> *
| 42>
| 43>                          ****END OF INPUT****

CARTESIAN COORDINATES (ANGSTROEM)
---------------------------------
  S    -49.980900    7.272190   81.414500
  C    -48.794300    8.571900   81.395200
  C    -49.017100    9.440130   82.448400
  C    -50.077700    9.009750   83.323000
  C    -50.766200    7.871340   82.889000
  H    -50.390400    9.553040   84.207500
  C    -48.306800   10.798500   82.553700
  H    -48.976900   11.521900   82.231200
  H    -47.487800   10.823400   81.856800
  C    -47.731000   11.298800   83.891400
  H    -47.481500   12.372300   83.843400
  H    -48.517800   11.171900   84.693300
  C    -46.518000   10.481800   84.242500
  H    -45.725100   10.933200   83.787900
  H    -46.356800   10.533300   85.277700
  H    -46.746200    9.457390   83.971800
  S    -51.278600    5.528040   83.985400
  C    -52.914100    5.006060   84.455300
  C    -53.790000    6.013680   84.165100
  C    -53.180500    7.238210   83.695100
  C    -51.839800    7.074510   83.497600
  H    -54.888700    5.919950   84.351600
  C    -54.012200    8.383770   83.162800
  H    -53.650600    9.458860   83.341900
  H    -54.948500    8.368490   83.666400
  C    -54.322600    8.301280   81.652300
  H    -54.700400    7.351400   81.368100
  H    -53.323400    8.501440   81.274500
  C    -55.208300    9.487690   81.146700
  H    -56.183800    9.522920   81.763100
  H    -55.533000    9.353480   80.096600
  H    -54.698600   10.495200   81.142700
  H    -48.190400    8.905840   80.565600
  H    -53.212000    4.032650   84.800200

 Total Charge           Charge          ....    0
 Multiplicity           Mult            ....    1
 Number of Electrons    NEL             ....  134
 Basis Dimension        Dim             ....  322

ORBITAL ENERGIES
----------------

  NO   OCC          E(Eh)            E(eV)
   0   2.0000     -88.967668     -2420.9333
   1   2.0000     -88.964186     -2420.8386
   2   2.0000     -10.338141      -281.3151
   3   2.0000     -10.326634      -281.0020
   4   2.0000     -10.319083      -280.7965
   5   2.0000     -10.315533      -280.6999
   6   2.0000     -10.306034      -280.4414
   7   2.0000     -10.304783      -280.4074
   8   2.0000     -10.300765      -280.2981
   9   2.0000     -10.299747      -280.2704
  10   2.0000     -10.292426      -280.0711
  11   2.0000     -10.290518      -280.0192
  12   2.0000     -10.287709      -279.9428
  13   2.0000     -10.286186      -279.9013
  14   2.0000     -10.283021      -279.8152
  15   2.0000     -10.258811      -279.1564
  16   2.0000      -8.081621      -219.9121
  17   2.0000      -8.079278      -219.8483
  18   2.0000      -6.040257      -164.3638
  19   2.0000      -6.037884      -164.2992
  20   2.0000      -6.036043      -164.2491
  21   2.0000      -6.033605      -164.1827
  22   2.0000      -6.032448      -164.1512
  23   2.0000      -6.029995      -164.0845
  24   2.0000      -1.009502       -27.4699
  25   2.0000      -0.983252       -26.7557
  26   2.0000      -0.915365       -24.9083
  27   2.0000      -0.905690       -24.6451
  28   2.0000      -0.874006       -23.7829
  29   2.0000      -0.845520       -23.0078
  30   2.0000      -0.843240       -22.9457
  31   2.0000      -0.819201       -22.2916
  32   2.0000      -0.783168       -21.3111
  33   2.0000      -0.770098       -20.9554
  34   2.0000      -0.710185       -19.3251
  35   2.0000      -0.692598       -18.8465
  36   2.0000      -0.687551       -18.7092
  37   2.0000      -0.665887       -18.1197
  38   2.0000      -0.639994       -17.4151
  39   2.0000      -0.621144       -16.9022
  40   2.0000      -0.598769       -16.2933
  41   2.0000      -0.571257       -15.5447
  42   2.0000      -0.565212       -15.3802
  43   2.0000      -0.562303       -15.3010
  44   2.0000      -0.549432       -14.9508
  45   2.0000      -0.517398       -14.0791
  46   2.0000      -0.514326       -13.9955
  47   2.0000      -0.509618       -13.8674
  48   2.0000      -0.505220       -13.7477
  49   2.0000      -0.499903       -13.6030
  50   2.0000      -0.485342       -13.2068
  51   2.0000      -0.477598       -12.9961
  52   2.0000      -0.470252       -12.7962
  53   2.0000      -0.464464       -12.6387
  54   2.0000      -0.460033       -12.5181
  55   2.0000      -0.446614       -12.1530
  56   2.0000      -0.446114       -12.1394
  57   2.0000      -0.433836       -11.8053
  58   2.0000      -0.430262       -11.7080
  59   2.0000      -0.425665       -11.5829
  60   2.0000      -0.420782       -11.4501
  61   2.0000      -0.415943       -11.3184
  62   2.0000      -0.408595       -11.1184
  63   2.0000      -0.345083        -9.3902
  64   2.0000      -0.331963        -9.0332
  65   2.0000      -0.327085        -8.9004
  66   2.0000      -0.304429        -8.2839
  67   0.0000       0.036082         0.9818
  68   0.0000       0.056755         1.5444
  69   0.0000       0.118685         3.2296
  70   0.0000       0.119091         3.2406
  71   0.0000       0.126298         3.4368

MULLIKEN ATOMIC CHARGES
-----------------------
   0 S :    0.111764
   1 C :   -0.103739
   2 C :   -0.123479
   3 C :    0.067111
   4 C :   -0.173884
   5 H :    0.015255
   6 C :    0.094052
   7 H :    0.023428
   8 H :    0.002701
   9 C :   -0.125583
  10 H :    0.032745
  11 H :    0.030288
  12 C :    0.022412
  13 H :    0.010356
  14 H :    0.014064
  15 H :    0.039676
  16 S :    0.108149
  17 C :   -0.079690
  18 C :   -0.057801
  19 C :    0.010026
  20 C :   -0.172560
  21 H :    0.037614
  22 C :    0.031651
  23 H :    0.035623
  24 H :   -0.000660
  25 C :   -0.041325
  26 H :    0.027296
  27 H :    0.030853
  28 C :   -0.098362
  29 H :    0.038582
  30 H :    0.041346
  31 H :    0.046141
  32 H :    0.052975
  33 H :    0.052974
Sum of atomic charges:    0.0000000

LOEWDIN ATOMIC CHARGES
----------------------
   0 S :    0.397732
   1 C :   -0.198522
   2 C :   -0.061901
   3 C :   -0.060539
   4 C :   -0.189794
   5 H :    0.031713
   6 C :   -0.027240
   7 H :    0.024205
   8 H :    0.024816
   9 C :   -0.041143
  10 H :    0.026146
  11 H :    0.022158
  12 C :   -0.051493
  13 H :    0.013922
  14 H :    0.020219
  15 H :    0.030389
  16 S :    0.414310
  17 C :   -0.177176
  18 C :   -0.070265
  19 C :   -0.061688
  20 C :   -0.206262
  21 H :    0.038900
  22 C :   -0.036703
  23 H :    0.038788
  24 H :    0.016837
  25 C :   -0.034028
  26 H :    0.018704
  27 H :    0.026445
  28 C :   -0.079500
  29 H :    0.029036
  30 H :    0.028439
  31 H :    0.031529
  32 H :    0.032006
  33 H :    0.029959

  Mayer bond orders larger than 0.100000
B(  0-S ,  1-C ) :   1.1314 B(  0-S ,  4-C ) :   1.1526 B(  1-C ,  2-C ) :   1.6243
B(  1-C ,  4-C ) :   0.1015 B(  1-C , 32-H ) :   0.9600 B(  2-C ,  3-C ) :   1.2295
B(  2-C ,  6-C ) :   1.0175 B(  3-C ,  4-C ) :   1.5878 B(  3-C ,  5-H ) :   0.9941
B(  4-C , 20-C ) :   0.9929 B(  6-C ,  7-H ) :   0.9338 B(  6-C ,  8-H ) :   0.9395
B(  6-C ,  9-C ) :   1.0758 B(  9-C , 10-H ) :   0.9551 B(  9-C , 11-H ) :   0.9584
B(  9-C , 12-C ) :   1.0728 B( 12-C , 13-H ) :   0.9727 B( 12-C , 14-H ) :   0.9712
B( 12-C , 15-H ) :   0.9777 B( 16-S , 17-C ) :   1.1311 B( 16-S , 20-C ) :   1.1651
B( 17-C , 18-C ) :   1.6354 B( 17-C , 33-H ) :   0.9721 B( 18-C , 19-C ) :   1.2264
B( 18-C , 21-H ) :   0.9758 B( 19-C , 20-C ) :   1.6078 B( 19-C , 22-C ) :   1.0645
B( 22-C , 23-H ) :   0.9418 B( 22-C , 24-H ) :   0.9249 B( 22-C , 25-C ) :   1.0531
B( 25-C , 26-H ) :   0.9588 B( 25-C , 27-H ) :   0.9572 B( 25-C , 28-C ) :   1.0751
B( 28-C , 29-H ) :   0.9749 B( 28-C , 30-H ) :   0.9749 B( 28-C , 31-H ) :   0.9741

Dispersion correction           -0.014037405
FINAL SINGLE POINT ENERGY     -1339.871287132132

DIPOLE MOMENT
-------------
                                X             Y             Z
Electronic contribution:      1.99373     -21.94942       0.62244
Nuclear contribution   :     -2.23785      22.48589      -0.63957
                        -----------------------------------------
Total Dipole Moment    :     -0.24412       0.53647      -0.01713
                        -----------------------------------------
Magnitude (a.u.)       :      0.58966
Magnitude (Debye)      :      1.49879

Rotational constants in cm-1:     0.019058     0.008136     0.006921
Rotational constants in MHz :   571.356070   243.906940   207.496983

                             ****ORCA TERMINATED NORMALLY****
TOTAL RUN TIME: 0 days 0 hours 0 minutes 29 seconds 375 msec
