                         Program Version 4.2.1 -  RELEASE  -
|  1> ! wB97X-D3 SP def2-SVP
|  2> %pal
|  3> nprocs 16
|  4> end
|  5>
|  6> * xyz 0 1
|  7> S 	 -40.7137 	 56.2901 	 108.941
|  8> C 	 -42.2019 	 57.0578 	 108.343
|  9> C 	 -42.0217 	 57.7377 	 107.128
| 10> C 	 -40.6667 	 57.7275 	 106.732
| 11> C 	 -39.8185 	 56.9549 	 107.525
| 12> H 	 -40.2282 	 58.2244 	 105.919
| 13> C 	 -43.0775 	 58.5327 	 106.31
| 14> H 	 -43.8493 	 57.8232 	 105.983
| 15> H 	 -42.674 	 58.929 	 105.437
| 16> C 	 -43.634 	 59.7531 	 107.08
| 17> H 	 -43.7053 	 59.4565 	 108.089
| 18> H 	 -43.0034 	 60.5624 	 107.131
| 19> C 	 -45.1097 	 59.9881 	 106.799
| 20> H 	 -45.2709 	 60.0503 	 105.724
| 21> H 	 -45.7546 	 59.2077 	 107.201
| 22> H 	 -45.5556 	 60.8747 	 107.3
| 23> S 	 -37.4066 	 56.8536 	 108.96
| 24> C 	 -35.892 	 56.6797 	 108.102
| 25> C 	 -36.104 	 56.7045 	 106.733
| 26> C 	 -37.4793 	 56.7015 	 106.432
| 27> C 	 -38.3406 	 56.853 	 107.471
| 28> H 	 -35.2729 	 56.3294 	 106.194
| 29> C 	 -37.8725 	 56.5063 	 104.976
| 30> H 	 -37.448 	 57.3018 	 104.377
| 31> H 	 -38.9584 	 56.6161 	 104.904
| 32> C 	 -37.4374 	 55.0926 	 104.505
| 33> H 	 -37.7731 	 54.2601 	 105.183
| 34> H 	 -36.3657 	 55.0881 	 104.398
| 35> C 	 -37.997 	 54.5871 	 103.099
| 36> H 	 -37.6471 	 55.2152 	 102.263
| 37> H 	 -39.0443 	 54.7808 	 103.086
| 38> H 	 -37.8245 	 53.5681 	 102.795
| 39> H 	 -43.0934 	 57.0116 	 108.884
| 40> H 	 -34.9411 	 56.5167 	 108.505
| 41> *
| 42>
| 43>                          ****END OF INPUT****

CARTESIAN COORDINATES (ANGSTROEM)
---------------------------------
  S    -40.713700   56.290100  108.941000
  C    -42.201900   57.057800  108.343000
  C    -42.021700   57.737700  107.128000
  C    -40.666700   57.727500  106.732000
  C    -39.818500   56.954900  107.525000
  H    -40.228200   58.224400  105.919000
  C    -43.077500   58.532700  106.310000
  H    -43.849300   57.823200  105.983000
  H    -42.674000   58.929000  105.437000
  C    -43.634000   59.753100  107.080000
  H    -43.705300   59.456500  108.089000
  H    -43.003400   60.562400  107.131000
  C    -45.109700   59.988100  106.799000
  H    -45.270900   60.050300  105.724000
  H    -45.754600   59.207700  107.201000
  H    -45.555600   60.874700  107.300000
  S    -37.406600   56.853600  108.960000
  C    -35.892000   56.679700  108.102000
  C    -36.104000   56.704500  106.733000
  C    -37.479300   56.701500  106.432000
  C    -38.340600   56.853000  107.471000
  H    -35.272900   56.329400  106.194000
  C    -37.872500   56.506300  104.976000
  H    -37.448000   57.301800  104.377000
  H    -38.958400   56.616100  104.904000
  C    -37.437400   55.092600  104.505000
  H    -37.773100   54.260100  105.183000
  H    -36.365700   55.088100  104.398000
  C    -37.997000   54.587100  103.099000
  H    -37.647100   55.215200  102.263000
  H    -39.044300   54.780800  103.086000
  H    -37.824500   53.568100  102.795000
  H    -43.093400   57.011600  108.884000
  H    -34.941100   56.516700  108.505000

 Total Charge           Charge          ....    0
 Multiplicity           Mult            ....    1
 Number of Electrons    NEL             ....  134
 Basis Dimension        Dim             ....  322

ORBITAL ENERGIES
----------------

  NO   OCC          E(Eh)            E(eV)
   0   2.0000     -88.970652     -2421.0145
   1   2.0000     -88.964595     -2420.8497
   2   2.0000     -10.337630      -281.3012
   3   2.0000     -10.327289      -281.0198
   4   2.0000     -10.317981      -280.7665
   5   2.0000     -10.315602      -280.7018
   6   2.0000     -10.307897      -280.4921
   7   2.0000     -10.298677      -280.2413
   8   2.0000     -10.293735      -280.1068
   9   2.0000     -10.293616      -280.1035
  10   2.0000     -10.292705      -280.0788
  11   2.0000     -10.291590      -280.0484
  12   2.0000     -10.287221      -279.9295
  13   2.0000     -10.279723      -279.7255
  14   2.0000     -10.275604      -279.6134
  15   2.0000     -10.275003      -279.5970
  16   2.0000      -8.083963      -219.9758
  17   2.0000      -8.079321      -219.8495
  18   2.0000      -6.042545      -164.4260
  19   2.0000      -6.038684      -164.3209
  20   2.0000      -6.037909      -164.2999
  21   2.0000      -6.034721      -164.2131
  22   2.0000      -6.033784      -164.1876
  23   2.0000      -6.030024      -164.0853
  24   2.0000      -1.005879       -27.3714
  25   2.0000      -0.981283       -26.7021
  26   2.0000      -0.912688       -24.8355
  27   2.0000      -0.902046       -24.5459
  28   2.0000      -0.869125       -23.6501
  29   2.0000      -0.852270       -23.1914
  30   2.0000      -0.842837       -22.9348
  31   2.0000      -0.816538       -22.2191
  32   2.0000      -0.782285       -21.2871
  33   2.0000      -0.773571       -21.0499
  34   2.0000      -0.711928       -19.3725
  35   2.0000      -0.704484       -19.1700
  36   2.0000      -0.699662       -19.0388
  37   2.0000      -0.663667       -18.0593
  38   2.0000      -0.649259       -17.6672
  39   2.0000      -0.621662       -16.9163
  40   2.0000      -0.592965       -16.1354
  41   2.0000      -0.578822       -15.7505
  42   2.0000      -0.564240       -15.3537
  43   2.0000      -0.557766       -15.1776
  44   2.0000      -0.527436       -14.3523
  45   2.0000      -0.523635       -14.2488
  46   2.0000      -0.518824       -14.1179
  47   2.0000      -0.512607       -13.9487
  48   2.0000      -0.509802       -13.8724
  49   2.0000      -0.501133       -13.6365
  50   2.0000      -0.493703       -13.4343
  51   2.0000      -0.482166       -13.1204
  52   2.0000      -0.475670       -12.9436
  53   2.0000      -0.462537       -12.5863
  54   2.0000      -0.458552       -12.4778
  55   2.0000      -0.447791       -12.1850
  56   2.0000      -0.443562       -12.0699
  57   2.0000      -0.441281       -12.0079
  58   2.0000      -0.427363       -11.6291
  59   2.0000      -0.425290       -11.5727
  60   2.0000      -0.420888       -11.4530
  61   2.0000      -0.412190       -11.2163
  62   2.0000      -0.409792       -11.1510
  63   2.0000      -0.353201        -9.6111
  64   2.0000      -0.336040        -9.1441
  65   2.0000      -0.331990        -9.0339
  66   2.0000      -0.287836        -7.8324
  67   0.0000       0.021365         0.5814
  68   0.0000       0.072891         1.9835
  69   0.0000       0.099877         2.7178
  70   0.0000       0.121793         3.3141
  71   0.0000       0.139327         3.7913

MULLIKEN ATOMIC CHARGES
-----------------------
   0 S :    0.100484
   1 C :   -0.116309
   2 C :   -0.079566
   3 C :    0.037946
   4 C :   -0.150102
   5 H :   -0.001667
   6 C :    0.100492
   7 H :    0.039535
   8 H :    0.005587
   9 C :   -0.014779
  10 H :    0.007164
  11 H :    0.015349
  12 C :   -0.074416
  13 H :    0.030089
  14 H :    0.029536
  15 H :    0.033960
  16 S :    0.094573
  17 C :   -0.086749
  18 C :   -0.008653
  19 C :   -0.088291
  20 C :   -0.113725
  21 H :    0.022984
  22 C :    0.099803
  23 H :    0.034063
  24 H :    0.009429
  25 C :   -0.115639
  26 H :    0.053658
  27 H :    0.032589
  28 C :   -0.043454
  29 H :    0.017896
  30 H :    0.018105
  31 H :    0.039295
  32 H :    0.032249
  33 H :    0.038564
Sum of atomic charges:   -0.0000000

LOEWDIN ATOMIC CHARGES
----------------------
   0 S :    0.378335
   1 C :   -0.176321
   2 C :   -0.055416
   3 C :   -0.056428
   4 C :   -0.169415
   5 H :    0.023475
   6 C :   -0.016496
   7 H :    0.037329
   8 H :    0.020443
   9 C :   -0.034502
  10 H :    0.021185
  11 H :    0.016146
  12 C :   -0.065796
  13 H :    0.018995
  14 H :    0.024947
  15 H :    0.029594
  16 S :    0.397813
  17 C :   -0.163864
  18 C :   -0.073964
  19 C :   -0.060577
  20 C :   -0.199729
  21 H :    0.030652
  22 C :   -0.027575
  23 H :    0.031400
  24 H :    0.024384
  25 C :   -0.037217
  26 H :    0.036231
  27 H :    0.017808
  28 C :   -0.071515
  29 H :    0.022737
  30 H :    0.018727
  31 H :    0.025025
  32 H :    0.013683
  33 H :    0.019904

  Mayer bond orders larger than 0.100000
B(  0-S ,  1-C ) :   1.1444 B(  0-S ,  4-C ) :   1.1371 B(  1-C ,  2-C ) :   1.5892
B(  1-C ,  4-C ) :   0.1071 B(  1-C , 32-H ) :   0.9764 B(  2-C ,  3-C ) :   1.2562
B(  2-C ,  6-C ) :   1.0179 B(  3-C ,  4-C ) :   1.5714 B(  3-C ,  5-H ) :   0.9912
B(  4-C , 20-C ) :   1.0433 B(  6-C ,  7-H ) :   0.9442 B(  6-C ,  8-H ) :   0.9398
B(  6-C ,  9-C ) :   1.0462 B(  9-C , 10-H ) :   0.9626 B(  9-C , 11-H ) :   0.9599
B(  9-C , 12-C ) :   1.0658 B( 12-C , 13-H ) :   0.9786 B( 12-C , 14-H ) :   0.9789
B( 12-C , 15-H ) :   0.9726 B( 16-S , 17-C ) :   1.1665 B( 16-S , 20-C ) :   1.1126
B( 17-C , 18-C ) :   1.6171 B( 17-C , 33-H ) :   0.9709 B( 18-C , 19-C ) :   1.2399
B( 18-C , 21-H ) :   0.9849 B( 19-C , 20-C ) :   1.6292 B( 19-C , 22-C ) :   1.0456
B( 22-C , 23-H ) :   0.9338 B( 22-C , 24-H ) :   0.9304 B( 22-C , 25-C ) :   1.0538
B( 25-C , 26-H ) :   0.9612 B( 25-C , 27-H ) :   0.9590 B( 25-C , 28-C ) :   1.0745
B( 28-C , 29-H ) :   0.9738 B( 28-C , 30-H ) :   0.9764 B( 28-C , 31-H ) :   0.9794

Dispersion correction           -0.013394089
FINAL SINGLE POINT ENERGY     -1339.858444013894

DIPOLE MOMENT
-------------
                                X             Y             Z
Electronic contribution:     13.19427      -4.48808      22.25659
Nuclear contribution   :    -13.31921       4.61039     -22.75259
                        -----------------------------------------
Total Dipole Moment    :     -0.12495       0.12232      -0.49600
                        -----------------------------------------
Magnitude (a.u.)       :      0.52592
Magnitude (Debye)      :      1.33678

Rotational constants in cm-1:     0.019529     0.007394     0.006022
Rotational constants in MHz :   585.465244   221.663204   180.542699

                             ****ORCA TERMINATED NORMALLY****
TOTAL RUN TIME: 0 days 0 hours 0 minutes 28 seconds 978 msec
