                         Program Version 4.2.1 -  RELEASE  -
|  1> ! wB97X-D3 SP def2-SVP
|  2> %pal
|  3> nprocs 16
|  4> end
|  5>
|  6> * xyz 0 1
|  7> S 	 -5.55047 	 -8.10096 	 82.4972
|  8> C 	 -6.72727 	 -9.23371 	 81.6968
|  9> C 	 -6.94512 	 -8.76256 	 80.416
| 10> C 	 -6.27902 	 -7.51539 	 80.1706
| 11> C 	 -5.49801 	 -6.97506 	 81.1544
| 12> H 	 -6.31023 	 -6.88899 	 79.3222
| 13> C 	 -7.79688 	 -9.47758 	 79.4233
| 14> H 	 -7.81538 	 -8.73019 	 78.6458
| 15> H 	 -8.78111 	 -9.43106 	 79.8209
| 16> C 	 -7.26862 	 -10.8276 	 78.8605
| 17> H 	 -6.24498 	 -10.7413 	 78.5048
| 18> H 	 -7.26514 	 -11.6396 	 79.5732
| 19> C 	 -8.1846 	 -11.4412 	 77.7549
| 20> H 	 -9.0704 	 -11.9118 	 78.0582
| 21> H 	 -8.19512 	 -10.762 	 76.8815
| 22> H 	 -7.71551 	 -12.3086 	 77.3348
| 23> S 	 -4.77061 	 -4.69663 	 82.6567
| 24> C 	 -4.04746 	 -3.34213 	 81.8732
| 25> C 	 -3.88087 	 -3.53935 	 80.5314
| 26> C 	 -4.3197 	 -4.86937 	 80.1213
| 27> C 	 -4.83885 	 -5.66215 	 81.1807
| 28> H 	 -3.4749 	 -2.82189 	 79.8974
| 29> C 	 -4.15391 	 -5.21767 	 78.6686
| 30> H 	 -4.08623 	 -6.35786 	 78.5489
| 31> H 	 -3.24006 	 -4.79672 	 78.3294
| 32> C 	 -5.22663 	 -4.72078 	 77.7113
| 33> H 	 -5.39018 	 -3.66347 	 77.8473
| 34> H 	 -6.19679 	 -5.26154 	 77.8705
| 35> C 	 -4.93505 	 -4.79113 	 76.1729
| 36> H 	 -3.92963 	 -4.29113 	 75.8928
| 37> H 	 -5.71243 	 -4.36129 	 75.5436
| 38> H 	 -4.85313 	 -5.743 	 75.7497
| 39> H 	 -7.09629 	 -10.157 	 82.0097
| 40> H 	 -3.88971 	 -2.4258 	 82.4226
| 41> *
| 42>
| 43>                          ****END OF INPUT****

CARTESIAN COORDINATES (ANGSTROEM)
---------------------------------
  S     -5.550470   -8.100960   82.497200
  C     -6.727270   -9.233710   81.696800
  C     -6.945120   -8.762560   80.416000
  C     -6.279020   -7.515390   80.170600
  C     -5.498010   -6.975060   81.154400
  H     -6.310230   -6.888990   79.322200
  C     -7.796880   -9.477580   79.423300
  H     -7.815380   -8.730190   78.645800
  H     -8.781110   -9.431060   79.820900
  C     -7.268620  -10.827600   78.860500
  H     -6.244980  -10.741300   78.504800
  H     -7.265140  -11.639600   79.573200
  C     -8.184600  -11.441200   77.754900
  H     -9.070400  -11.911800   78.058200
  H     -8.195120  -10.762000   76.881500
  H     -7.715510  -12.308600   77.334800
  S     -4.770610   -4.696630   82.656700
  C     -4.047460   -3.342130   81.873200
  C     -3.880870   -3.539350   80.531400
  C     -4.319700   -4.869370   80.121300
  C     -4.838850   -5.662150   81.180700
  H     -3.474900   -2.821890   79.897400
  C     -4.153910   -5.217670   78.668600
  H     -4.086230   -6.357860   78.548900
  H     -3.240060   -4.796720   78.329400
  C     -5.226630   -4.720780   77.711300
  H     -5.390180   -3.663470   77.847300
  H     -6.196790   -5.261540   77.870500
  C     -4.935050   -4.791130   76.172900
  H     -3.929630   -4.291130   75.892800
  H     -5.712430   -4.361290   75.543600
  H     -4.853130   -5.743000   75.749700
  H     -7.096290  -10.157000   82.009700
  H     -3.889710   -2.425800   82.422600

 Total Charge           Charge          ....    0
 Multiplicity           Mult            ....    1
 Number of Electrons    NEL             ....  134
 Basis Dimension        Dim             ....  322

ORBITAL ENERGIES
----------------

  NO   OCC          E(Eh)            E(eV)
   0   2.0000     -88.967150     -2420.9192
   1   2.0000     -88.962758     -2420.7997
   2   2.0000     -10.338280      -281.3189
   3   2.0000     -10.333073      -281.1772
   4   2.0000     -10.319382      -280.8046
   5   2.0000     -10.314499      -280.6718
   6   2.0000     -10.312282      -280.6115
   7   2.0000     -10.301019      -280.3050
   8   2.0000     -10.296034      -280.1693
   9   2.0000     -10.294435      -280.1258
  10   2.0000     -10.294234      -280.1204
  11   2.0000     -10.293941      -280.1124
  12   2.0000     -10.288788      -279.9721
  13   2.0000     -10.288616      -279.9675
  14   2.0000     -10.283944      -279.8404
  15   2.0000     -10.276266      -279.6314
  16   2.0000      -8.082253      -219.9293
  17   2.0000      -8.076325      -219.7680
  18   2.0000      -6.040809      -164.3788
  19   2.0000      -6.036603      -164.2643
  20   2.0000      -6.035095      -164.2233
  21   2.0000      -6.033021      -164.1668
  22   2.0000      -6.030873      -164.1084
  23   2.0000      -6.026972      -164.0022
  24   2.0000      -1.004339       -27.3295
  25   2.0000      -0.983177       -26.7536
  26   2.0000      -0.912083       -24.8190
  27   2.0000      -0.910892       -24.7866
  28   2.0000      -0.871344       -23.7105
  29   2.0000      -0.850962       -23.1558
  30   2.0000      -0.844887       -22.9906
  31   2.0000      -0.820052       -22.3147
  32   2.0000      -0.786068       -21.3900
  33   2.0000      -0.776257       -21.1230
  34   2.0000      -0.714350       -19.4384
  35   2.0000      -0.709951       -19.3188
  36   2.0000      -0.695344       -18.9213
  37   2.0000      -0.668045       -18.1784
  38   2.0000      -0.643958       -17.5230
  39   2.0000      -0.616700       -16.7813
  40   2.0000      -0.600059       -16.3284
  41   2.0000      -0.571495       -15.5512
  42   2.0000      -0.570860       -15.5339
  43   2.0000      -0.563894       -15.3443
  44   2.0000      -0.526699       -14.3322
  45   2.0000      -0.524055       -14.2603
  46   2.0000      -0.519924       -14.1478
  47   2.0000      -0.519684       -14.1413
  48   2.0000      -0.510937       -13.9033
  49   2.0000      -0.506684       -13.7876
  50   2.0000      -0.498980       -13.5779
  51   2.0000      -0.479428       -13.0459
  52   2.0000      -0.473547       -12.8859
  53   2.0000      -0.462526       -12.5860
  54   2.0000      -0.460378       -12.5275
  55   2.0000      -0.451908       -12.2971
  56   2.0000      -0.442605       -12.0439
  57   2.0000      -0.438012       -11.9189
  58   2.0000      -0.432027       -11.7561
  59   2.0000      -0.423715       -11.5299
  60   2.0000      -0.420935       -11.4542
  61   2.0000      -0.418918       -11.3993
  62   2.0000      -0.403481       -10.9793
  63   2.0000      -0.358565        -9.7571
  64   2.0000      -0.331043        -9.0081
  65   2.0000      -0.327485        -8.9113
  66   2.0000      -0.290571        -7.9068
  67   0.0000       0.021822         0.5938
  68   0.0000       0.078973         2.1490
  69   0.0000       0.109503         2.9797
  70   0.0000       0.119818         3.2604
  71   0.0000       0.128922         3.5081

MULLIKEN ATOMIC CHARGES
-----------------------
   0 S :    0.082950
   1 C :   -0.083205
   2 C :   -0.109603
   3 C :    0.047809
   4 C :   -0.131658
   5 H :   -0.059027
   6 C :    0.116744
   7 H :    0.002838
   8 H :    0.032758
   9 C :   -0.060282
  10 H :    0.036759
  11 H :    0.022707
  12 C :   -0.036343
  13 H :    0.027581
  14 H :    0.034033
  15 H :    0.011680
  16 S :    0.107882
  17 C :   -0.082523
  18 C :    0.002974
  19 C :   -0.058084
  20 C :   -0.112955
  21 H :   -0.001417
  22 C :    0.054631
  23 H :    0.043479
  24 H :    0.008789
  25 C :   -0.077056
  26 H :    0.026200
  27 H :    0.047014
  28 C :   -0.067565
  29 H :    0.034310
  30 H :    0.036681
  31 H :    0.015623
  32 H :    0.022591
  33 H :    0.063685
Sum of atomic charges:   -0.0000000

LOEWDIN ATOMIC CHARGES
----------------------
   0 S :    0.371548
   1 C :   -0.164102
   2 C :   -0.060390
   3 C :   -0.072144
   4 C :   -0.183881
   5 H :    0.018455
   6 C :   -0.033258
   7 H :    0.029748
   8 H :    0.033790
   9 C :   -0.031051
  10 H :    0.029616
  11 H :    0.021326
  12 C :   -0.067601
  13 H :    0.020196
  14 H :    0.027881
  15 H :    0.025936
  16 S :    0.415013
  17 C :   -0.181513
  18 C :   -0.063615
  19 C :   -0.048257
  20 C :   -0.195505
  21 H :    0.022648
  22 C :   -0.039662
  23 H :    0.039424
  24 H :    0.025922
  25 C :   -0.041247
  26 H :    0.023089
  27 H :    0.026500
  28 C :   -0.072479
  29 H :    0.031845
  30 H :    0.029300
  31 H :    0.012612
  32 H :    0.019318
  33 H :    0.030539

  Mayer bond orders larger than 0.100000
B(  0-S ,  1-C ) :   1.1170 B(  0-S ,  4-C ) :   1.1317 B(  1-C ,  2-C ) :   1.6095
B(  1-C , 32-H ) :   0.9803 B(  2-C ,  3-C ) :   1.2279 B(  2-C ,  6-C ) :   1.0122
B(  3-C ,  4-C ) :   1.5957 B(  3-C ,  5-H ) :   0.9946 B(  4-C , 20-C ) :   1.0576
B(  6-C ,  7-H ) :   0.9354 B(  6-C ,  8-H ) :   0.9336 B(  6-C ,  9-C ) :   1.0543
B(  9-C , 10-H ) :   0.9576 B(  9-C , 11-H ) :   0.9587 B(  9-C , 12-C ) :   1.0894
B( 12-C , 13-H ) :   0.9755 B( 12-C , 14-H ) :   0.9752 B( 12-C , 15-H ) :   0.9683
B( 16-S , 17-C ) :   1.1697 B( 16-S , 20-C ) :   1.1333 B( 17-C , 18-C ) :   1.5848
B( 17-C , 33-H ) :   0.9676 B( 18-C , 19-C ) :   1.2460 B( 18-C , 21-H ) :   1.0043
B( 19-C , 20-C ) :   1.5669 B( 19-C , 22-C ) :   1.0593 B( 22-C , 23-H ) :   0.9335
B( 22-C , 24-H ) :   0.9266 B( 22-C , 25-C ) :   1.0670 B( 25-C , 26-H ) :   0.9525
B( 25-C , 27-H ) :   0.9468 B( 25-C , 28-C ) :   1.0760 B( 28-C , 29-H ) :   0.9731
B( 28-C , 30-H ) :   0.9750 B( 28-C , 31-H ) :   0.9768

Dispersion correction           -0.013558436
FINAL SINGLE POINT ENERGY     -1339.860616580593

DIPOLE MOMENT
-------------
                                X             Y             Z
Electronic contribution:      7.75197       9.43565      31.15547
Nuclear contribution   :     -7.91547      -9.41450     -31.96342
                        -----------------------------------------
Total Dipole Moment    :     -0.16350       0.02116      -0.80795
                        -----------------------------------------
Magnitude (a.u.)       :      0.82460
Magnitude (Debye)      :      2.09596

Rotational constants in cm-1:     0.017554     0.008480     0.005904
Rotational constants in MHz :   526.252155   254.211744   176.989879

                             ****ORCA TERMINATED NORMALLY****
TOTAL RUN TIME: 0 days 0 hours 0 minutes 32 seconds 545 msec
