                         Program Version 4.2.1 -  RELEASE  -
|  1> ! wB97X-D3 SP def2-SVP
|  2> %pal
|  3> nprocs 16
|  4> end
|  5>
|  6> * xyz 0 1
|  7> S 	 33.3802 	 19.3671 	 69.2231
|  8> C 	 32.232 	 18.2486 	 69.8855
|  9> C 	 32.7521 	 17.7561 	 71.0942
| 10> C 	 33.8861 	 18.4568 	 71.6353
| 11> C 	 34.3532 	 19.3925 	 70.7313
| 12> H 	 34.4568 	 18.1791 	 72.4986
| 13> C 	 32.1003 	 16.6466 	 71.9228
| 14> H 	 32.8643 	 16.3515 	 72.6679
| 15> H 	 32.0058 	 15.8395 	 71.1947
| 16> C 	 30.75 	 16.9105 	 72.5926
| 17> H 	 30.9458 	 17.7021 	 73.2497
| 18> H 	 30.0672 	 17.2216 	 71.8559
| 19> C 	 30.2794 	 15.6112 	 73.2225
| 20> H 	 31.0439 	 15.2248 	 73.8293
| 21> H 	 29.4981 	 15.8141 	 73.9122
| 22> H 	 29.8752 	 14.8754 	 72.5119
| 23> S 	 35.1338 	 22.066 	 70.3996
| 24> C 	 36.8533 	 22.4526 	 70.8238
| 25> C 	 37.4841 	 21.3432 	 71.299
| 26> C 	 36.7341 	 20.1071 	 71.2813
| 27> C 	 35.4346 	 20.3183 	 70.8308
| 28> H 	 38.5462 	 21.4942 	 71.5739
| 29> C 	 37.27 	 18.7814 	 71.8052
| 30> H 	 36.662 	 18.3264 	 72.5859
| 31> H 	 38.1765 	 18.9885 	 72.4141
| 32> C 	 37.6254 	 17.6921 	 70.7634
| 33> H 	 36.6749 	 17.3967 	 70.3068
| 34> H 	 37.9191 	 16.8195 	 71.2432
| 35> C 	 38.5367 	 18.0825 	 69.5923
| 36> H 	 38.8152 	 17.205 	 69.0325
| 37> H 	 39.4178 	 18.5788 	 70.0238
| 38> H 	 38.1409 	 18.8384 	 68.9712
| 39> H 	 31.3821 	 17.9366 	 69.3058
| 40> H 	 37.2525 	 23.4434 	 70.9442
| 41> *
| 42>
| 43>                          ****END OF INPUT****

CARTESIAN COORDINATES (ANGSTROEM)
---------------------------------
  S     33.380200   19.367100   69.223100
  C     32.232000   18.248600   69.885500
  C     32.752100   17.756100   71.094200
  C     33.886100   18.456800   71.635300
  C     34.353200   19.392500   70.731300
  H     34.456800   18.179100   72.498600
  C     32.100300   16.646600   71.922800
  H     32.864300   16.351500   72.667900
  H     32.005800   15.839500   71.194700
  C     30.750000   16.910500   72.592600
  H     30.945800   17.702100   73.249700
  H     30.067200   17.221600   71.855900
  C     30.279400   15.611200   73.222500
  H     31.043900   15.224800   73.829300
  H     29.498100   15.814100   73.912200
  H     29.875200   14.875400   72.511900
  S     35.133800   22.066000   70.399600
  C     36.853300   22.452600   70.823800
  C     37.484100   21.343200   71.299000
  C     36.734100   20.107100   71.281300
  C     35.434600   20.318300   70.830800
  H     38.546200   21.494200   71.573900
  C     37.270000   18.781400   71.805200
  H     36.662000   18.326400   72.585900
  H     38.176500   18.988500   72.414100
  C     37.625400   17.692100   70.763400
  H     36.674900   17.396700   70.306800
  H     37.919100   16.819500   71.243200
  C     38.536700   18.082500   69.592300
  H     38.815200   17.205000   69.032500
  H     39.417800   18.578800   70.023800
  H     38.140900   18.838400   68.971200
  H     31.382100   17.936600   69.305800
  H     37.252500   23.443400   70.944200

 Total Charge           Charge          ....    0
 Multiplicity           Mult            ....    1
 Number of Electrons    NEL             ....  134
 Basis Dimension        Dim             ....  322

ORBITAL ENERGIES
----------------

  NO   OCC          E(Eh)            E(eV)
   0   2.0000     -88.965446     -2420.8729
   1   2.0000     -88.963120     -2420.8096
   2   2.0000     -10.331883      -281.1448
   3   2.0000     -10.330765      -281.1144
   4   2.0000     -10.320380      -280.8318
   5   2.0000     -10.314974      -280.6847
   6   2.0000     -10.310632      -280.5666
   7   2.0000     -10.303537      -280.3735
   8   2.0000     -10.298742      -280.2430
   9   2.0000     -10.298142      -280.2267
  10   2.0000     -10.296593      -280.1845
  11   2.0000     -10.287126      -279.9269
  12   2.0000     -10.279247      -279.7125
  13   2.0000     -10.276448      -279.6364
  14   2.0000     -10.271169      -279.4927
  15   2.0000     -10.269729      -279.4535
  16   2.0000      -8.078242      -219.8201
  17   2.0000      -8.077632      -219.8035
  18   2.0000      -6.036997      -164.2750
  19   2.0000      -6.036147      -164.2519
  20   2.0000      -6.033146      -164.1703
  21   2.0000      -6.032109      -164.1420
  22   2.0000      -6.028694      -164.0491
  23   2.0000      -6.028452      -164.0425
  24   2.0000      -0.999786       -27.2056
  25   2.0000      -0.974504       -26.5176
  26   2.0000      -0.913056       -24.8455
  27   2.0000      -0.904237       -24.6055
  28   2.0000      -0.872244       -23.7350
  29   2.0000      -0.851961       -23.1830
  30   2.0000      -0.841913       -22.9096
  31   2.0000      -0.815038       -22.1783
  32   2.0000      -0.784786       -21.3551
  33   2.0000      -0.768084       -20.9006
  34   2.0000      -0.712834       -19.3972
  35   2.0000      -0.707766       -19.2593
  36   2.0000      -0.692041       -18.8314
  37   2.0000      -0.660238       -17.9660
  38   2.0000      -0.644543       -17.5389
  39   2.0000      -0.615752       -16.7555
  40   2.0000      -0.590683       -16.0733
  41   2.0000      -0.578358       -15.7379
  42   2.0000      -0.557259       -15.1638
  43   2.0000      -0.553257       -15.0549
  44   2.0000      -0.545631       -14.8474
  45   2.0000      -0.520159       -14.1543
  46   2.0000      -0.519381       -14.1331
  47   2.0000      -0.508820       -13.8457
  48   2.0000      -0.505064       -13.7435
  49   2.0000      -0.501648       -13.6505
  50   2.0000      -0.490735       -13.3536
  51   2.0000      -0.477425       -12.9914
  52   2.0000      -0.475740       -12.9455
  53   2.0000      -0.466289       -12.6884
  54   2.0000      -0.456566       -12.4238
  55   2.0000      -0.447574       -12.1791
  56   2.0000      -0.442375       -12.0376
  57   2.0000      -0.436403       -11.8751
  58   2.0000      -0.431754       -11.7486
  59   2.0000      -0.429875       -11.6975
  60   2.0000      -0.424366       -11.5476
  61   2.0000      -0.411058       -11.1855
  62   2.0000      -0.402704       -10.9581
  63   2.0000      -0.350470        -9.5368
  64   2.0000      -0.332095        -9.0368
  65   2.0000      -0.327133        -8.9017
  66   2.0000      -0.288297        -7.8450
  67   0.0000       0.019339         0.5262
  68   0.0000       0.066325         1.8048
  69   0.0000       0.100293         2.7291
  70   0.0000       0.110425         3.0048
  71   0.0000       0.138231         3.7614

MULLIKEN ATOMIC CHARGES
-----------------------
   0 S :    0.100946
   1 C :   -0.124996
   2 C :   -0.100012
   3 C :    0.048673
   4 C :   -0.154560
   5 H :    0.009152
   6 C :    0.014701
   7 H :    0.015760
   8 H :    0.024857
   9 C :   -0.006339
  10 H :    0.018100
  11 H :    0.013944
  12 C :   -0.010098
  13 H :    0.013385
  14 H :    0.017598
  15 H :    0.039511
  16 S :    0.090141
  17 C :   -0.087122
  18 C :   -0.050452
  19 C :   -0.004658
  20 C :   -0.151337
  21 H :    0.033716
  22 C :    0.040785
  23 H :    0.024960
  24 H :    0.016117
  25 C :   -0.043304
  26 H :    0.024892
  27 H :    0.008998
  28 C :   -0.025100
  29 H :    0.038741
  30 H :    0.013852
  31 H :    0.035634
  32 H :    0.054868
  33 H :    0.058649
Sum of atomic charges:   -0.0000000

LOEWDIN ATOMIC CHARGES
----------------------
   0 S :    0.395503
   1 C :   -0.203737
   2 C :   -0.060560
   3 C :   -0.060840
   4 C :   -0.174602
   5 H :    0.030180
   6 C :   -0.035849
   7 H :    0.026651
   8 H :    0.027932
   9 C :   -0.026827
  10 H :    0.020113
  11 H :    0.018200
  12 C :   -0.056420
  13 H :    0.018529
  14 H :    0.022423
  15 H :    0.031412
  16 S :    0.348172
  17 C :   -0.165147
  18 C :   -0.072479
  19 C :   -0.052733
  20 C :   -0.173294
  21 H :    0.038159
  22 C :   -0.034613
  23 H :    0.030044
  24 H :    0.031346
  25 C :   -0.035254
  26 H :    0.025427
  27 H :    0.014737
  28 C :   -0.058813
  29 H :    0.028396
  30 H :    0.022733
  31 H :    0.022933
  32 H :    0.027166
  33 H :    0.031111

  Mayer bond orders larger than 0.100000
B(  0-S ,  1-C ) :   1.1383 B(  0-S ,  4-C ) :   1.1539 B(  1-C ,  2-C ) :   1.5726
B(  1-C ,  4-C ) :   0.1007 B(  1-C , 32-H ) :   0.9794 B(  2-C ,  3-C ) :   1.2495
B(  2-C ,  6-C ) :   1.0217 B(  3-C ,  4-C ) :   1.5558 B(  3-C ,  5-H ) :   0.9908
B(  4-C , 20-C ) :   1.0822 B(  6-C ,  7-H ) :   0.9427 B(  6-C ,  8-H ) :   0.9388
B(  6-C ,  9-C ) :   1.0706 B(  9-C , 10-H ) :   0.9528 B(  9-C , 11-H ) :   0.9522
B(  9-C , 12-C ) :   1.0882 B( 12-C , 13-H ) :   0.9724 B( 12-C , 14-H ) :   0.9702
B( 12-C , 15-H ) :   0.9742 B( 16-S , 17-C ) :   1.1132 B( 16-S , 20-C ) :   1.1180
B( 17-C , 18-C ) :   1.6737 B( 17-C , 33-H ) :   0.9640 B( 18-C , 19-C ) :   1.2023
B( 18-C , 21-H ) :   0.9762 B( 19-C , 20-C ) :   1.6057 B( 19-C , 22-C ) :   1.0336
B( 22-C , 23-H ) :   0.9392 B( 22-C , 24-H ) :   0.9313 B( 22-C , 25-C ) :   1.0747
B( 25-C , 26-H ) :   0.9516 B( 25-C , 27-H ) :   0.9542 B( 25-C , 28-C ) :   1.0775
B( 28-C , 29-H ) :   0.9735 B( 28-C , 30-H ) :   0.9762 B( 28-C , 31-H ) :   0.9721

Dispersion correction           -0.014478019
FINAL SINGLE POINT ENERGY     -1339.873282775182

DIPOLE MOMENT
-------------
                                X             Y             Z
Electronic contribution:     -0.62118      22.53964     -10.72132
Nuclear contribution   :      0.79320     -23.05014      11.19206
                        -----------------------------------------
Total Dipole Moment    :      0.17202      -0.51050       0.47074
                        -----------------------------------------
Magnitude (a.u.)       :      0.71539
Magnitude (Debye)      :      1.81839

Rotational constants in cm-1:     0.021222     0.007662     0.006672
Rotational constants in MHz :   636.220725   229.715830   200.036054

                             ****ORCA TERMINATED NORMALLY****
TOTAL RUN TIME: 0 days 0 hours 0 minutes 30 seconds 289 msec
