                         Program Version 4.2.1 -  RELEASE  -
|  1> ! wB97X-D3 SP def2-SVP
|  2> %pal
|  3> nprocs 16
|  4> end
|  5>
|  6> * xyz 0 1
|  7> S 	 -2.3077 	 -4.50521 	 79.175
|  8> C 	 -2.29749 	 -6.17672 	 78.9386
|  9> C 	 -2.24976 	 -6.80715 	 80.1489
| 10> C 	 -2.28479 	 -5.97505 	 81.2745
| 11> C 	 -2.45121 	 -4.64562 	 80.9294
| 12> H 	 -2.28711 	 -6.19125 	 82.3912
| 13> C 	 -2.07957 	 -8.33733 	 80.2225
| 14> H 	 -0.998088 	 -8.63591 	 80.4077
| 15> H 	 -2.4256 	 -8.73648 	 79.2483
| 16> C 	 -2.93057 	 -9.11213 	 81.2095
| 17> H 	 -2.56661 	 -10.1189 	 81.2542
| 18> H 	 -2.8599 	 -8.62951 	 82.1916
| 19> C 	 -4.46094 	 -9.00536 	 80.9006
| 20> H 	 -4.98929 	 -9.46936 	 81.7091
| 21> H 	 -4.88379 	 -8.05376 	 80.7027
| 22> H 	 -4.77107 	 -9.61666 	 80.1298
| 23> S 	 -1.22111 	 -2.3963 	 81.6013
| 24> C 	 -1.82284 	 -1.36115 	 82.8472
| 25> C 	 -2.83542 	 -1.9625 	 83.5252
| 26> C 	 -3.26995 	 -3.21597 	 82.9601
| 27> C 	 -2.61516 	 -3.50038 	 81.7726
| 28> H 	 -3.21044 	 -1.48112 	 84.4254
| 29> C 	 -4.34058 	 -4.07491 	 83.6489
| 30> H 	 -4.33818 	 -5.07511 	 83.1453
| 31> H 	 -5.29938 	 -3.60144 	 83.6761
| 32> C 	 -4.16526 	 -4.28327 	 85.1739
| 33> H 	 -5.0628 	 -4.86313 	 85.5617
| 34> H 	 -4.1883 	 -3.28503 	 85.5563
| 35> C 	 -3.07978 	 -5.27143 	 85.6483
| 36> H 	 -3.2532 	 -6.21607 	 85.1706
| 37> H 	 -3.23146 	 -5.36132 	 86.7147
| 38> H 	 -2.12125 	 -4.90199 	 85.4127
| 39> H 	 -2.30614 	 -6.7655 	 78.0285
| 40> H 	 -1.25287 	 -0.479176 	 83.2558
| 41> *
| 42>
| 43>                          ****END OF INPUT****

CARTESIAN COORDINATES (ANGSTROEM)
---------------------------------
  S     -2.307700   -4.505210   79.175000
  C     -2.297490   -6.176720   78.938600
  C     -2.249760   -6.807150   80.148900
  C     -2.284790   -5.975050   81.274500
  C     -2.451210   -4.645620   80.929400
  H     -2.287110   -6.191250   82.391200
  C     -2.079570   -8.337330   80.222500
  H     -0.998088   -8.635910   80.407700
  H     -2.425600   -8.736480   79.248300
  C     -2.930570   -9.112130   81.209500
  H     -2.566610  -10.118900   81.254200
  H     -2.859900   -8.629510   82.191600
  C     -4.460940   -9.005360   80.900600
  H     -4.989290   -9.469360   81.709100
  H     -4.883790   -8.053760   80.702700
  H     -4.771070   -9.616660   80.129800
  S     -1.221110   -2.396300   81.601300
  C     -1.822840   -1.361150   82.847200
  C     -2.835420   -1.962500   83.525200
  C     -3.269950   -3.215970   82.960100
  C     -2.615160   -3.500380   81.772600
  H     -3.210440   -1.481120   84.425400
  C     -4.340580   -4.074910   83.648900
  H     -4.338180   -5.075110   83.145300
  H     -5.299380   -3.601440   83.676100
  C     -4.165260   -4.283270   85.173900
  H     -5.062800   -4.863130   85.561700
  H     -4.188300   -3.285030   85.556300
  C     -3.079780   -5.271430   85.648300
  H     -3.253200   -6.216070   85.170600
  H     -3.231460   -5.361320   86.714700
  H     -2.121250   -4.901990   85.412700
  H     -2.306140   -6.765500   78.028500
  H     -1.252870   -0.479176   83.255800

 Total Charge           Charge          ....    0
 Multiplicity           Mult            ....    1
 Number of Electrons    NEL             ....  134
 Basis Dimension        Dim             ....  322

ORBITAL ENERGIES
----------------

  NO   OCC          E(Eh)            E(eV)
   0   2.0000     -88.965451     -2420.8730
   1   2.0000     -88.960952     -2420.7506
   2   2.0000     -10.328455      -281.0515
   3   2.0000     -10.328172      -281.0438
   4   2.0000     -10.318547      -280.7819
   5   2.0000     -10.311452      -280.5889
   6   2.0000     -10.308553      -280.5100
   7   2.0000     -10.298210      -280.2285
   8   2.0000     -10.296182      -280.1734
   9   2.0000     -10.294857      -280.1373
  10   2.0000     -10.294146      -280.1179
  11   2.0000     -10.293991      -280.1137
  12   2.0000     -10.291145      -280.0363
  13   2.0000     -10.285270      -279.8764
  14   2.0000     -10.274405      -279.5808
  15   2.0000     -10.264172      -279.3023
  16   2.0000      -8.080998      -219.8951
  17   2.0000      -8.076082      -219.7614
  18   2.0000      -6.039379      -164.3399
  19   2.0000      -6.035311      -164.2291
  20   2.0000      -6.034643      -164.2110
  21   2.0000      -6.031884      -164.1359
  22   2.0000      -6.030645      -164.1022
  23   2.0000      -6.026609      -163.9924
  24   2.0000      -1.013952       -27.5910
  25   2.0000      -0.990252       -26.9461
  26   2.0000      -0.910371       -24.7724
  27   2.0000      -0.908393       -24.7186
  28   2.0000      -0.877464       -23.8770
  29   2.0000      -0.850880       -23.1536
  30   2.0000      -0.844561       -22.9817
  31   2.0000      -0.817261       -22.2388
  32   2.0000      -0.788374       -21.4528
  33   2.0000      -0.778336       -21.1796
  34   2.0000      -0.715839       -19.4790
  35   2.0000      -0.691911       -18.8279
  36   2.0000      -0.690358       -18.7856
  37   2.0000      -0.654375       -17.8065
  38   2.0000      -0.640216       -17.4212
  39   2.0000      -0.619427       -16.8555
  40   2.0000      -0.596674       -16.2363
  41   2.0000      -0.570225       -15.5166
  42   2.0000      -0.556370       -15.1396
  43   2.0000      -0.550542       -14.9810
  44   2.0000      -0.548812       -14.9339
  45   2.0000      -0.538432       -14.6515
  46   2.0000      -0.520432       -14.1617
  47   2.0000      -0.515632       -14.0310
  48   2.0000      -0.509893       -13.8749
  49   2.0000      -0.505705       -13.7609
  50   2.0000      -0.490254       -13.3405
  51   2.0000      -0.479610       -13.0508
  52   2.0000      -0.473748       -12.8913
  53   2.0000      -0.472235       -12.8502
  54   2.0000      -0.460087       -12.5196
  55   2.0000      -0.450512       -12.2591
  56   2.0000      -0.443005       -12.0548
  57   2.0000      -0.432501       -11.7689
  58   2.0000      -0.428682       -11.6650
  59   2.0000      -0.422931       -11.5085
  60   2.0000      -0.416300       -11.3281
  61   2.0000      -0.413003       -11.2384
  62   2.0000      -0.408637       -11.1196
  63   2.0000      -0.351303        -9.5595
  64   2.0000      -0.332162        -9.0386
  65   2.0000      -0.327172        -8.9028
  66   2.0000      -0.294232        -8.0065
  67   0.0000       0.028836         0.7847
  68   0.0000       0.065453         1.7811
  69   0.0000       0.104414         2.8413
  70   0.0000       0.120891         3.2896
  71   0.0000       0.130257         3.5445

MULLIKEN ATOMIC CHARGES
-----------------------
   0 S :    0.127137
   1 C :   -0.094707
   2 C :   -0.104196
   3 C :    0.029201
   4 C :   -0.196286
   5 H :    0.038111
   6 C :    0.047386
   7 H :    0.053644
   8 H :    0.010389
   9 C :   -0.064511
  10 H :    0.030295
  11 H :    0.023041
  12 C :   -0.029232
  13 H :    0.016794
  14 H :    0.038489
  15 H :    0.002524
  16 S :    0.082777
  17 C :   -0.087427
  18 C :   -0.060839
  19 C :   -0.021136
  20 C :   -0.136663
  21 H :    0.022475
  22 C :    0.090138
  23 H :    0.020664
  24 H :    0.035687
  25 C :   -0.151176
  26 H :    0.035698
  27 H :    0.028521
  28 C :   -0.006103
  29 H :    0.025455
  30 H :    0.037843
  31 H :    0.030916
  32 H :    0.046966
  33 H :    0.078124
Sum of atomic charges:    0.0000000

LOEWDIN ATOMIC CHARGES
----------------------
   0 S :    0.431249
   1 C :   -0.214448
   2 C :   -0.076166
   3 C :   -0.070515
   4 C :   -0.199684
   5 H :    0.045135
   6 C :   -0.036112
   7 H :    0.038376
   8 H :    0.026407
   9 C :   -0.037840
  10 H :    0.024938
  11 H :    0.020223
  12 C :   -0.062332
  13 H :    0.025731
  14 H :    0.024658
  15 H :    0.013356
  16 S :    0.397435
  17 C :   -0.193871
  18 C :   -0.080710
  19 C :   -0.052225
  20 C :   -0.186722
  21 H :    0.031267
  22 C :   -0.031181
  23 H :    0.029737
  24 H :    0.034602
  25 C :   -0.042366
  26 H :    0.033167
  27 H :    0.015404
  28 C :   -0.056023
  29 H :    0.022800
  30 H :    0.029453
  31 H :    0.016857
  32 H :    0.035802
  33 H :    0.043599

  Mayer bond orders larger than 0.100000
B(  0-S ,  1-C ) :   1.1511 B(  0-S ,  4-C ) :   1.1633 B(  1-C ,  2-C ) :   1.5998
B(  1-C ,  4-C ) :   0.1016 B(  1-C , 32-H ) :   0.9669 B(  2-C ,  3-C ) :   1.2514
B(  2-C ,  6-C ) :   1.0135 B(  3-C ,  4-C ) :   1.5585 B(  3-C ,  5-H ) :   0.9812
B(  4-C , 20-C ) :   1.0309 B(  6-C ,  7-H ) :   0.9415 B(  6-C ,  8-H ) :   0.9438
B(  6-C ,  9-C ) :   1.0788 B(  9-C , 10-H ) :   0.9547 B(  9-C , 11-H ) :   0.9569
B(  9-C , 12-C ) :   1.0707 B( 12-C , 13-H ) :   0.9724 B( 12-C , 14-H ) :   0.9777
B( 12-C , 15-H ) :   0.9714 B( 16-S , 17-C ) :   1.1499 B( 16-S , 20-C ) :   1.1398
B( 17-C , 18-C ) :   1.6381 B( 17-C , 33-H ) :   0.9566 B( 18-C , 19-C ) :   1.2055
B( 18-C , 21-H ) :   0.9889 B( 19-C , 20-C ) :   1.6137 B( 19-C , 22-C ) :   1.0406
B( 22-C , 23-H ) :   0.9381 B( 22-C , 24-H ) :   0.9337 B( 22-C , 25-C ) :   1.0692
B( 25-C , 26-H ) :   0.9612 B( 25-C , 27-H ) :   0.9565 B( 25-C , 28-C ) :   1.0645
B( 28-C , 29-H ) :   0.9711 B( 28-C , 30-H ) :   0.9758 B( 28-C , 31-H ) :   0.9788

Dispersion correction           -0.014604894
FINAL SINGLE POINT ENERGY     -1339.860266280893

DIPOLE MOMENT
-------------
                                X             Y             Z
Electronic contribution:     11.37440      22.01526     -16.74830
Nuclear contribution   :    -11.55950     -22.45406      17.36997
                        -----------------------------------------
Total Dipole Moment    :     -0.18510      -0.43880       0.62168
                        -----------------------------------------
Magnitude (a.u.)       :      0.78313
Magnitude (Debye)      :      1.99055

Rotational constants in cm-1:     0.017850     0.009989     0.007017
Rotational constants in MHz :   535.130071   299.475596   210.364042

                             ****ORCA TERMINATED NORMALLY****
TOTAL RUN TIME: 0 days 0 hours 0 minutes 36 seconds 33 msec
