                         Program Version 4.2.1 -  RELEASE  -
|  1> ! wB97X-D3 SP def2-SVP
|  2> %pal
|  3> nprocs 16
|  4> end
|  5>
|  6> * xyz 0 1
|  7> S 	 37.1251 	 18.3079 	 47.5987
|  8> C 	 36.9379 	 19.7327 	 48.5856
|  9> C 	 37.2363 	 19.4714 	 49.9194
| 10> C 	 37.5942 	 18.112 	 50.13
| 11> C 	 37.6886 	 17.3736 	 48.9354
| 12> H 	 37.7562 	 17.6896 	 51.1055
| 13> C 	 37.1585 	 20.4522 	 51.0972
| 14> H 	 36.2613 	 20.2394 	 51.5718
| 15> H 	 37.0658 	 21.4795 	 50.7193
| 16> C 	 38.1972 	 20.3345 	 52.1994
| 17> H 	 38.2886 	 19.3765 	 52.6116
| 18> H 	 39.2217 	 20.519 	 51.9324
| 19> C 	 37.7986 	 21.2632 	 53.3501
| 20> H 	 36.8408 	 20.8074 	 53.8484
| 21> H 	 38.5098 	 21.0812 	 54.1632
| 22> H 	 37.6843 	 22.3281 	 53.1177
| 23> S 	 37.1473 	 14.9161 	 47.7264
| 24> C 	 37.8614 	 13.4941 	 48.5217
| 25> C 	 38.8165 	 13.8512 	 49.4527
| 26> C 	 38.9908 	 15.2482 	 49.5747
| 27> C 	 37.978 	 15.936 	 48.8797
| 28> H 	 39.358 	 12.9995 	 49.9183
| 29> C 	 40.1348 	 15.8676 	 50.3008
| 30> H 	 39.7331 	 16.2568 	 51.2879
| 31> H 	 40.353 	 16.8224 	 49.8414
| 32> C 	 41.3689 	 14.9706 	 50.5294
| 33> H 	 41.1148 	 14.0729 	 51.0424
| 34> H 	 42.0915 	 15.546 	 51.124
| 35> C 	 42.1569 	 14.6819 	 49.2603
| 36> H 	 42.1448 	 15.4993 	 48.5497
| 37> H 	 41.4851 	 13.991 	 48.6784
| 38> H 	 43.0239 	 14.1794 	 49.3701
| 39> H 	 36.6515 	 20.7415 	 48.2531
| 40> H 	 37.5747 	 12.512 	 48.2876
| 41> *
| 42>
| 43>                          ****END OF INPUT****

CARTESIAN COORDINATES (ANGSTROEM)
---------------------------------
  S     37.125100   18.307900   47.598700
  C     36.937900   19.732700   48.585600
  C     37.236300   19.471400   49.919400
  C     37.594200   18.112000   50.130000
  C     37.688600   17.373600   48.935400
  H     37.756200   17.689600   51.105500
  C     37.158500   20.452200   51.097200
  H     36.261300   20.239400   51.571800
  H     37.065800   21.479500   50.719300
  C     38.197200   20.334500   52.199400
  H     38.288600   19.376500   52.611600
  H     39.221700   20.519000   51.932400
  C     37.798600   21.263200   53.350100
  H     36.840800   20.807400   53.848400
  H     38.509800   21.081200   54.163200
  H     37.684300   22.328100   53.117700
  S     37.147300   14.916100   47.726400
  C     37.861400   13.494100   48.521700
  C     38.816500   13.851200   49.452700
  C     38.990800   15.248200   49.574700
  C     37.978000   15.936000   48.879700
  H     39.358000   12.999500   49.918300
  C     40.134800   15.867600   50.300800
  H     39.733100   16.256800   51.287900
  H     40.353000   16.822400   49.841400
  C     41.368900   14.970600   50.529400
  H     41.114800   14.072900   51.042400
  H     42.091500   15.546000   51.124000
  C     42.156900   14.681900   49.260300
  H     42.144800   15.499300   48.549700
  H     41.485100   13.991000   48.678400
  H     43.023900   14.179400   49.370100
  H     36.651500   20.741500   48.253100
  H     37.574700   12.512000   48.287600

 Total Charge           Charge          ....    0
 Multiplicity           Mult            ....    1
 Number of Electrons    NEL             ....  134
 Basis Dimension        Dim             ....  322

ORBITAL ENERGIES
----------------

  NO   OCC          E(Eh)            E(eV)
   0   2.0000     -88.969515     -2420.9836
   1   2.0000     -88.965844     -2420.8837
   2   2.0000     -10.329952      -281.0923
   3   2.0000     -10.326912      -281.0096
   4   2.0000     -10.314808      -280.6802
   5   2.0000     -10.314451      -280.6705
   6   2.0000     -10.303000      -280.3589
   7   2.0000     -10.300460      -280.2898
   8   2.0000     -10.296331      -280.1774
   9   2.0000     -10.294078      -280.1161
  10   2.0000     -10.292420      -280.0710
  11   2.0000     -10.289647      -279.9955
  12   2.0000     -10.288755      -279.9713
  13   2.0000     -10.287267      -279.9308
  14   2.0000     -10.282656      -279.8053
  15   2.0000     -10.267397      -279.3901
  16   2.0000      -8.084391      -219.9875
  17   2.0000      -8.080260      -219.8751
  18   2.0000      -6.042934      -164.4366
  19   2.0000      -6.038835      -164.3251
  20   2.0000      -6.038727      -164.3221
  21   2.0000      -6.035175      -164.2255
  22   2.0000      -6.035046      -164.2219
  23   2.0000      -6.030876      -164.1085
  24   2.0000      -1.006133       -27.3783
  25   2.0000      -0.983682       -26.7674
  26   2.0000      -0.917586       -24.9688
  27   2.0000      -0.911480       -24.8026
  28   2.0000      -0.868715       -23.6389
  29   2.0000      -0.854293       -23.2465
  30   2.0000      -0.845866       -23.0172
  31   2.0000      -0.813103       -22.1257
  32   2.0000      -0.783547       -21.3214
  33   2.0000      -0.771950       -21.0058
  34   2.0000      -0.712738       -19.3946
  35   2.0000      -0.704288       -19.1647
  36   2.0000      -0.696768       -18.9600
  37   2.0000      -0.653429       -17.7807
  38   2.0000      -0.636474       -17.3193
  39   2.0000      -0.623764       -16.9735
  40   2.0000      -0.602792       -16.4028
  41   2.0000      -0.572372       -15.5750
  42   2.0000      -0.566803       -15.4235
  43   2.0000      -0.559295       -15.2192
  44   2.0000      -0.534886       -14.5550
  45   2.0000      -0.527709       -14.3597
  46   2.0000      -0.524908       -14.2835
  47   2.0000      -0.506228       -13.7752
  48   2.0000      -0.501194       -13.6382
  49   2.0000      -0.497809       -13.5461
  50   2.0000      -0.488212       -13.2849
  51   2.0000      -0.481198       -13.0941
  52   2.0000      -0.474158       -12.9025
  53   2.0000      -0.466136       -12.6842
  54   2.0000      -0.460475       -12.5302
  55   2.0000      -0.451359       -12.2821
  56   2.0000      -0.446117       -12.1395
  57   2.0000      -0.440898       -11.9974
  58   2.0000      -0.435759       -11.8576
  59   2.0000      -0.430755       -11.7214
  60   2.0000      -0.422758       -11.5038
  61   2.0000      -0.419207       -11.4072
  62   2.0000      -0.406196       -11.0531
  63   2.0000      -0.350719        -9.5435
  64   2.0000      -0.332730        -9.0540
  65   2.0000      -0.326455        -8.8833
  66   2.0000      -0.279460        -7.6045
  67   0.0000       0.020906         0.5689
  68   0.0000       0.077260         2.1024
  69   0.0000       0.099656         2.7118
  70   0.0000       0.126524         3.4429
  71   0.0000       0.131475         3.5776

MULLIKEN ATOMIC CHARGES
-----------------------
   0 S :    0.116466
   1 C :   -0.134852
   2 C :   -0.075184
   3 C :   -0.007340
   4 C :   -0.135067
   5 H :    0.010396
   6 C :    0.116730
   7 H :    0.014516
   8 H :    0.017723
   9 C :   -0.049800
  10 H :    0.007959
  11 H :    0.023492
  12 C :   -0.095248
  13 H :    0.035933
  14 H :    0.031067
  15 H :    0.051557
  16 S :    0.100924
  17 C :   -0.081946
  18 C :   -0.046361
  19 C :   -0.054909
  20 C :   -0.141188
  21 H :    0.036836
  22 C :    0.061502
  23 H :    0.033510
  24 H :    0.028187
  25 C :   -0.057192
  26 H :    0.028931
  27 H :    0.028952
  28 C :   -0.007641
  29 H :    0.027934
  30 H :    0.010663
  31 H :    0.020167
  32 H :    0.048593
  33 H :    0.034688
Sum of atomic charges:    0.0000000

LOEWDIN ATOMIC CHARGES
----------------------
   0 S :    0.420980
   1 C :   -0.212594
   2 C :   -0.059181
   3 C :   -0.064505
   4 C :   -0.199762
   5 H :    0.026428
   6 C :   -0.024356
   7 H :    0.027108
   8 H :    0.031823
   9 C :   -0.039303
  10 H :    0.017202
  11 H :    0.021777
  12 C :   -0.068780
  13 H :    0.034098
  14 H :    0.026264
  15 H :    0.026043
  16 S :    0.387673
  17 C :   -0.166614
  18 C :   -0.073984
  19 C :   -0.059422
  20 C :   -0.196625
  21 H :    0.041164
  22 C :   -0.036327
  23 H :    0.038440
  24 H :    0.032957
  25 C :   -0.035109
  26 H :    0.018870
  27 H :    0.028426
  28 C :   -0.060405
  29 H :    0.029227
  30 H :    0.029913
  31 H :    0.009267
  32 H :    0.032956
  33 H :    0.016351

  Mayer bond orders larger than 0.100000
B(  0-S ,  1-C ) :   1.1352 B(  0-S ,  4-C ) :   1.1650 B(  1-C ,  2-C ) :   1.6008
B(  1-C , 32-H ) :   0.9649 B(  2-C ,  3-C ) :   1.2742 B(  2-C ,  6-C ) :   1.0137
B(  3-C ,  4-C ) :   1.5221 B(  3-C ,  5-H ) :   0.9932 B(  4-C , 20-C ) :   1.0770
B(  6-C ,  7-H ) :   0.9293 B(  6-C ,  8-H ) :   0.9441 B(  6-C ,  9-C ) :   1.0676
B(  9-C , 10-H ) :   0.9431 B(  9-C , 11-H ) :   0.9543 B(  9-C , 12-C ) :   1.0908
B( 12-C , 13-H ) :   0.9732 B( 12-C , 14-H ) :   0.9717 B( 12-C , 15-H ) :   0.9766
B( 16-S , 17-C ) :   1.1432 B( 16-S , 20-C ) :   1.1393 B( 17-C , 18-C ) :   1.6171
B( 17-C , 20-C ) :   0.1036 B( 17-C , 33-H ) :   0.9734 B( 18-C , 19-C ) :   1.2360
B( 18-C , 21-H ) :   0.9788 B( 19-C , 20-C ) :   1.5610 B( 19-C , 22-C ) :   1.0422
B( 22-C , 23-H ) :   0.9185 B( 22-C , 24-H ) :   0.9262 B( 22-C , 25-C ) :   1.0811
B( 25-C , 26-H ) :   0.9498 B( 25-C , 27-H ) :   0.9517 B( 25-C , 28-C ) :   1.0820
B( 28-C , 29-H ) :   0.9697 B( 28-C , 30-H ) :   0.9669 B( 28-C , 31-H ) :   0.9754

Dispersion correction           -0.014068746
FINAL SINGLE POINT ENERGY     -1339.864353452625

DIPOLE MOMENT
-------------
                                X             Y             Z
Electronic contribution:    -15.46770      -8.20047     -22.38631
Nuclear contribution   :     15.79784       8.27050      23.03791
                        -----------------------------------------
Total Dipole Moment    :      0.33013       0.07003       0.65160
                        -----------------------------------------
Magnitude (a.u.)       :      0.73381
Magnitude (Debye)      :      1.86520

Rotational constants in cm-1:     0.018160     0.008493     0.006500
Rotational constants in MHz :   544.409763   254.611919   194.860347

                             ****ORCA TERMINATED NORMALLY****
TOTAL RUN TIME: 0 days 0 hours 0 minutes 35 seconds 184 msec
