                         Program Version 4.2.1 -  RELEASE  -
|  1> ! wB97X-D3 SP def2-SVP
|  2> %pal
|  3> nprocs 16
|  4> end
|  5>
|  6> * xyz 0 1
|  7> S 	 -9.8972 	 35.3487 	 33.3369
|  8> C 	 -9.22294 	 35.0557 	 31.7223
|  9> C 	 -9.60434 	 36.0441 	 30.8622
| 10> C 	 -10.3088 	 37.1126 	 31.4921
| 11> C 	 -10.5819 	 36.8829 	 32.8233
| 12> H 	 -10.6995 	 37.9756 	 30.9873
| 13> C 	 -9.1955 	 36.0974 	 29.3742
| 14> H 	 -9.0915 	 35.0214 	 29.0604
| 15> H 	 -8.17836 	 36.46 	 29.3768
| 16> C 	 -9.9774 	 37.0746 	 28.4367
| 17> H 	 -11.0289 	 36.7796 	 28.601
| 18> H 	 -9.92169 	 38.0933 	 28.8393
| 19> C 	 -9.6274 	 36.8673 	 26.9323
| 20> H 	 -10.3857 	 37.3102 	 26.1847
| 21> H 	 -8.61772 	 37.1755 	 26.689
| 22> H 	 -9.62907 	 35.8037 	 26.7218
| 23> S 	 -10.4297 	 39.2275 	 34.2805
| 24> C 	 -11.6237 	 39.6888 	 35.4245
| 25> C 	 -12.5682 	 38.6807 	 35.4888
| 26> C 	 -12.3058 	 37.5688 	 34.6141
| 27> C 	 -11.1752 	 37.7449 	 33.8339
| 28> H 	 -13.4497 	 38.8477 	 36.0164
| 29> C 	 -13.4395 	 36.3904 	 34.4014
| 30> H 	 -14.3076 	 36.6999 	 34.9827
| 31> H 	 -13.0853 	 35.6009 	 35.0319
| 32> C 	 -14.0098 	 35.8887 	 33.052
| 33> H 	 -14.4586 	 34.9142 	 33.2692
| 34> H 	 -13.1475 	 35.6046 	 32.3875
| 35> C 	 -15.0186 	 36.8209 	 32.46
| 36> H 	 -16.0217 	 36.6572 	 32.8691
| 37> H 	 -15.2806 	 36.6105 	 31.3919
| 38> H 	 -14.5992 	 37.7936 	 32.5532
| 39> H 	 -8.57427 	 34.2341 	 31.5288
| 40> H 	 -11.7927 	 40.6549 	 35.8351
| 41> *
| 42>
| 43>                          ****END OF INPUT****

CARTESIAN COORDINATES (ANGSTROEM)
---------------------------------
  S     -9.897200   35.348700   33.336900
  C     -9.222940   35.055700   31.722300
  C     -9.604340   36.044100   30.862200
  C    -10.308800   37.112600   31.492100
  C    -10.581900   36.882900   32.823300
  H    -10.699500   37.975600   30.987300
  C     -9.195500   36.097400   29.374200
  H     -9.091500   35.021400   29.060400
  H     -8.178360   36.460000   29.376800
  C     -9.977400   37.074600   28.436700
  H    -11.028900   36.779600   28.601000
  H     -9.921690   38.093300   28.839300
  C     -9.627400   36.867300   26.932300
  H    -10.385700   37.310200   26.184700
  H     -8.617720   37.175500   26.689000
  H     -9.629070   35.803700   26.721800
  S    -10.429700   39.227500   34.280500
  C    -11.623700   39.688800   35.424500
  C    -12.568200   38.680700   35.488800
  C    -12.305800   37.568800   34.614100
  C    -11.175200   37.744900   33.833900
  H    -13.449700   38.847700   36.016400
  C    -13.439500   36.390400   34.401400
  H    -14.307600   36.699900   34.982700
  H    -13.085300   35.600900   35.031900
  C    -14.009800   35.888700   33.052000
  H    -14.458600   34.914200   33.269200
  H    -13.147500   35.604600   32.387500
  C    -15.018600   36.820900   32.460000
  H    -16.021700   36.657200   32.869100
  H    -15.280600   36.610500   31.391900
  H    -14.599200   37.793600   32.553200
  H     -8.574270   34.234100   31.528800
  H    -11.792700   40.654900   35.835100

 Total Charge           Charge          ....    0
 Multiplicity           Mult            ....    1
 Number of Electrons    NEL             ....  134
 Basis Dimension        Dim             ....  322

ORBITAL ENERGIES
----------------

  NO   OCC          E(Eh)            E(eV)
   0   2.0000     -88.964198     -2420.8389
   1   2.0000     -88.963732     -2420.8262
   2   2.0000     -10.331169      -281.1254
   3   2.0000     -10.324227      -280.9365
   4   2.0000     -10.312942      -280.6294
   5   2.0000     -10.312752      -280.6242
   6   2.0000     -10.309150      -280.5262
   7   2.0000     -10.303033      -280.3598
   8   2.0000     -10.297946      -280.2214
   9   2.0000     -10.297775      -280.2167
  10   2.0000     -10.295003      -280.1413
  11   2.0000     -10.293562      -280.1021
  12   2.0000     -10.289781      -279.9992
  13   2.0000     -10.289601      -279.9943
  14   2.0000     -10.284976      -279.8684
  15   2.0000     -10.272859      -279.5387
  16   2.0000      -8.079440      -219.8527
  17   2.0000      -8.078515      -219.8276
  18   2.0000      -6.037866      -164.2987
  19   2.0000      -6.037028      -164.2759
  20   2.0000      -6.033576      -164.1820
  21   2.0000      -6.033009      -164.1665
  22   2.0000      -6.030433      -164.0964
  23   2.0000      -6.029355      -164.0671
  24   2.0000      -1.009154       -27.4605
  25   2.0000      -0.986558       -26.8456
  26   2.0000      -0.906249       -24.6603
  27   2.0000      -0.899158       -24.4673
  28   2.0000      -0.871654       -23.7189
  29   2.0000      -0.846351       -23.0304
  30   2.0000      -0.841579       -22.9005
  31   2.0000      -0.818281       -22.2666
  32   2.0000      -0.781499       -21.2657
  33   2.0000      -0.772585       -21.0231
  34   2.0000      -0.716398       -19.4942
  35   2.0000      -0.695792       -18.9335
  36   2.0000      -0.685273       -18.6472
  37   2.0000      -0.665305       -18.1039
  38   2.0000      -0.642548       -17.4846
  39   2.0000      -0.620369       -16.8811
  40   2.0000      -0.585168       -15.9232
  41   2.0000      -0.571141       -15.5415
  42   2.0000      -0.563219       -15.3260
  43   2.0000      -0.559624       -15.2281
  44   2.0000      -0.539706       -14.6861
  45   2.0000      -0.523430       -14.2433
  46   2.0000      -0.515770       -14.0348
  47   2.0000      -0.510155       -13.8820
  48   2.0000      -0.502426       -13.6717
  49   2.0000      -0.499607       -13.5950
  50   2.0000      -0.480963       -13.0877
  51   2.0000      -0.477940       -13.0054
  52   2.0000      -0.471087       -12.8189
  53   2.0000      -0.469299       -12.7703
  54   2.0000      -0.459239       -12.4965
  55   2.0000      -0.454463       -12.3666
  56   2.0000      -0.444754       -12.1024
  57   2.0000      -0.436782       -11.8854
  58   2.0000      -0.427208       -11.6249
  59   2.0000      -0.420249       -11.4355
  60   2.0000      -0.418940       -11.3999
  61   2.0000      -0.415173       -11.2974
  62   2.0000      -0.398448       -10.8423
  63   2.0000      -0.339024        -9.2253
  64   2.0000      -0.334253        -9.0955
  65   2.0000      -0.327293        -8.9061
  66   2.0000      -0.301889        -8.2148
  67   0.0000       0.034398         0.9360
  68   0.0000       0.067430         1.8349
  69   0.0000       0.112296         3.0557
  70   0.0000       0.125898         3.4259
  71   0.0000       0.132973         3.6184

MULLIKEN ATOMIC CHARGES
-----------------------
   0 S :    0.109170
   1 C :   -0.137913
   2 C :   -0.062874
   3 C :    0.025317
   4 C :   -0.153543
   5 H :    0.009278
   6 C :    0.034253
   7 H :    0.032972
   8 H :    0.037506
   9 C :   -0.097709
  10 H :    0.034708
  11 H :    0.047974
  12 C :   -0.042613
  13 H :    0.053849
  14 H :    0.032638
  15 H :    0.024458
  16 S :    0.122645
  17 C :   -0.084494
  18 C :   -0.028726
  19 C :   -0.032668
  20 C :   -0.169916
  21 H :   -0.000274
  22 C :    0.039775
  23 H :    0.004756
  24 H :    0.026459
  25 C :   -0.044992
  26 H :    0.020976
  27 H :    0.045506
  28 C :   -0.043648
  29 H :    0.031245
  30 H :    0.029296
  31 H :    0.042659
  32 H :    0.039596
  33 H :    0.054334
Sum of atomic charges:   -0.0000000

LOEWDIN ATOMIC CHARGES
----------------------
   0 S :    0.398246
   1 C :   -0.184598
   2 C :   -0.062457
   3 C :   -0.062777
   4 C :   -0.185295
   5 H :    0.030509
   6 C :   -0.036892
   7 H :    0.034809
   8 H :    0.031233
   9 C :   -0.045912
  10 H :    0.026605
  11 H :    0.025933
  12 C :   -0.068529
  13 H :    0.039207
  14 H :    0.023124
  15 H :    0.025365
  16 S :    0.439239
  17 C :   -0.197254
  18 C :   -0.067765
  19 C :   -0.058768
  20 C :   -0.223620
  21 H :    0.019883
  22 C :   -0.033054
  23 H :    0.026168
  24 H :    0.028576
  25 C :   -0.048168
  26 H :    0.027417
  27 H :    0.030738
  28 C :   -0.070274
  29 H :    0.028642
  30 H :    0.031510
  31 H :    0.025369
  32 H :    0.023123
  33 H :    0.029669

  Mayer bond orders larger than 0.100000
B(  0-S ,  1-C ) :   1.1331 B(  0-S ,  4-C ) :   1.1546 B(  1-C ,  2-C ) :   1.6200
B(  1-C , 32-H ) :   0.9793 B(  2-C ,  3-C ) :   1.2334 B(  2-C ,  6-C ) :   1.0042
B(  3-C ,  4-C ) :   1.5837 B(  3-C ,  5-H ) :   0.9972 B(  4-C , 20-C ) :   1.0196
B(  6-C ,  7-H ) :   0.9473 B(  6-C ,  8-H ) :   0.9353 B(  6-C ,  9-C ) :   1.0576
B(  9-C , 10-H ) :   0.9630 B(  9-C , 11-H ) :   0.9477 B(  9-C , 12-C ) :   1.0694
B( 12-C , 13-H ) :   0.9754 B( 12-C , 14-H ) :   0.9769 B( 12-C , 15-H ) :   0.9738
B( 16-S , 17-C ) :   1.1713 B( 16-S , 20-C ) :   1.1624 B( 17-C , 18-C ) :   1.5856
B( 17-C , 33-H ) :   0.9701 B( 18-C , 19-C ) :   1.2747 B( 18-C , 21-H ) :   0.9952
B( 19-C , 20-C ) :   1.5730 B( 19-C , 22-C ) :   1.0026 B( 22-C , 23-H ) :   0.9445
B( 22-C , 24-H ) :   0.9352 B( 22-C , 25-C ) :   1.0640 B( 25-C , 26-H ) :   0.9463
B( 25-C , 27-H ) :   0.9527 B( 25-C , 28-C ) :   1.0761 B( 28-C , 29-H ) :   0.9708
B( 28-C , 30-H ) :   0.9706 B( 28-C , 31-H ) :   0.9812

Dispersion correction           -0.014459665
FINAL SINGLE POINT ENERGY     -1339.868540691685

DIPOLE MOMENT
-------------
                                X             Y             Z
Electronic contribution:     12.02285       4.42922      21.66409
Nuclear contribution   :    -12.31323      -4.46733     -22.15618
                        -----------------------------------------
Total Dipole Moment    :     -0.29038      -0.03811      -0.49209
                        -----------------------------------------
Magnitude (a.u.)       :      0.57265
Magnitude (Debye)      :      1.45556

Rotational constants in cm-1:     0.018419     0.008015     0.007415
Rotational constants in MHz :   552.184544   240.297465   222.303203

                             ****ORCA TERMINATED NORMALLY****
TOTAL RUN TIME: 0 days 0 hours 0 minutes 31 seconds 472 msec
