                         Program Version 4.2.1 -  RELEASE  -
|  1> ! wB97X-D3 SP def2-SVP
|  2> %pal
|  3> nprocs 16
|  4> end
|  5>
|  6> * xyz 0 1
|  7> S 	 4.1771 	 -13.2242 	 90.7006
|  8> C 	 2.88596 	 -13.5204 	 91.9858
|  9> C 	 1.94454 	 -14.4346 	 91.4964
| 10> C 	 2.2104 	 -14.8765 	 90.1349
| 11> C 	 3.35407 	 -14.3046 	 89.5969
| 12> H 	 1.52741 	 -15.4538 	 89.5203
| 13> C 	 0.664011 	 -14.7438 	 92.2253
| 14> H 	 0.996014 	 -14.8391 	 93.1993
| 15> H 	 0.271967 	 -15.7391 	 91.7168
| 16> C 	 -0.388041 	 -13.6864 	 92.1575
| 17> H 	 -0.098251 	 -12.8019 	 92.6021
| 18> H 	 -0.597554 	 -13.3746 	 91.1625
| 19> C 	 -1.66515 	 -14.1942 	 92.7817
| 20> H 	 -2.11887 	 -15.2304 	 92.454
| 21> H 	 -1.5063 	 -14.2983 	 93.8444
| 22> H 	 -2.45181 	 -13.4526 	 92.6911
| 23> S 	 3.71705 	 -13.066 	 87.2594
| 24> C 	 4.39426 	 -13.8647 	 85.9008
| 25> C 	 4.52589 	 -15.2563 	 86.1243
| 26> C 	 4.27078 	 -15.5805 	 87.4582
| 27> C 	 3.89924 	 -14.4346 	 88.2412
| 28> H 	 4.88603 	 -15.9859 	 85.4263
| 29> C 	 4.2043 	 -17.0108 	 87.9286
| 30> H 	 4.26887 	 -16.9763 	 88.9961
| 31> H 	 4.99664 	 -17.682 	 87.5119
| 32> C 	 2.8985 	 -17.6716 	 87.5243
| 33> H 	 2.84179 	 -17.6383 	 86.4223
| 34> H 	 2.0907 	 -17.0761 	 87.8454
| 35> C 	 2.80481 	 -19.1173 	 87.9707
| 36> H 	 1.83228 	 -19.5838 	 87.9807
| 37> H 	 3.12695 	 -19.1165 	 89.0475
| 38> H 	 3.38567 	 -19.847 	 87.2792
| 39> H 	 2.73879 	 -12.9655 	 92.9288
| 40> H 	 4.58359 	 -13.4299 	 84.9337
| 41> *
| 42>
| 43>                          ****END OF INPUT****

CARTESIAN COORDINATES (ANGSTROEM)
---------------------------------
  S      4.177100  -13.224200   90.700600
  C      2.885960  -13.520400   91.985800
  C      1.944540  -14.434600   91.496400
  C      2.210400  -14.876500   90.134900
  C      3.354070  -14.304600   89.596900
  H      1.527410  -15.453800   89.520300
  C      0.664011  -14.743800   92.225300
  H      0.996014  -14.839100   93.199300
  H      0.271967  -15.739100   91.716800
  C     -0.388041  -13.686400   92.157500
  H     -0.098251  -12.801900   92.602100
  H     -0.597554  -13.374600   91.162500
  C     -1.665150  -14.194200   92.781700
  H     -2.118870  -15.230400   92.454000
  H     -1.506300  -14.298300   93.844400
  H     -2.451810  -13.452600   92.691100
  S      3.717050  -13.066000   87.259400
  C      4.394260  -13.864700   85.900800
  C      4.525890  -15.256300   86.124300
  C      4.270780  -15.580500   87.458200
  C      3.899240  -14.434600   88.241200
  H      4.886030  -15.985900   85.426300
  C      4.204300  -17.010800   87.928600
  H      4.268870  -16.976300   88.996100
  H      4.996640  -17.682000   87.511900
  C      2.898500  -17.671600   87.524300
  H      2.841790  -17.638300   86.422300
  H      2.090700  -17.076100   87.845400
  C      2.804810  -19.117300   87.970700
  H      1.832280  -19.583800   87.980700
  H      3.126950  -19.116500   89.047500
  H      3.385670  -19.847000   87.279200
  H      2.738790  -12.965500   92.928800
  H      4.583590  -13.429900   84.933700

 Total Charge           Charge          ....    0
 Multiplicity           Mult            ....    1
 Number of Electrons    NEL             ....  134
 Basis Dimension        Dim             ....  322

ORBITAL ENERGIES
----------------

  NO   OCC          E(Eh)            E(eV)
   0   2.0000     -88.971279     -2421.0316
   1   2.0000     -88.966978     -2420.9145
   2   2.0000     -10.332967      -281.1743
   3   2.0000     -10.323652      -280.9208
   4   2.0000     -10.322691      -280.8947
   5   2.0000     -10.317151      -280.7439
   6   2.0000     -10.305071      -280.4152
   7   2.0000     -10.302600      -280.3480
   8   2.0000     -10.298730      -280.2427
   9   2.0000     -10.293107      -280.0897
  10   2.0000     -10.292479      -280.0726
  11   2.0000     -10.287793      -279.9451
  12   2.0000     -10.285904      -279.8937
  13   2.0000     -10.283317      -279.8233
  14   2.0000     -10.280887      -279.7571
  15   2.0000     -10.277022      -279.6520
  16   2.0000      -8.087087      -220.0608
  17   2.0000      -8.080184      -219.8730
  18   2.0000      -6.045243      -164.4994
  19   2.0000      -6.041321      -164.3927
  20   2.0000      -6.038947      -164.3281
  21   2.0000      -6.038269      -164.3096
  22   2.0000      -6.034827      -164.2160
  23   2.0000      -6.030832      -164.1073
  24   2.0000      -1.009450       -27.4685
  25   2.0000      -0.977694       -26.6044
  26   2.0000      -0.922847       -25.1120
  27   2.0000      -0.916178       -24.9305
  28   2.0000      -0.869533       -23.6612
  29   2.0000      -0.853147       -23.2153
  30   2.0000      -0.842003       -22.9121
  31   2.0000      -0.812078       -22.0978
  32   2.0000      -0.780501       -21.2385
  33   2.0000      -0.765796       -20.8384
  34   2.0000      -0.708754       -19.2862
  35   2.0000      -0.700405       -19.0590
  36   2.0000      -0.694117       -18.8879
  37   2.0000      -0.665237       -18.1020
  38   2.0000      -0.638167       -17.3654
  39   2.0000      -0.619216       -16.8497
  40   2.0000      -0.599667       -16.3178
  41   2.0000      -0.575412       -15.6578
  42   2.0000      -0.570937       -15.5360
  43   2.0000      -0.560166       -15.2429
  44   2.0000      -0.527712       -14.3598
  45   2.0000      -0.523017       -14.2320
  46   2.0000      -0.519412       -14.1339
  47   2.0000      -0.510572       -13.8934
  48   2.0000      -0.506812       -13.7910
  49   2.0000      -0.503442       -13.6993
  50   2.0000      -0.487292       -13.2599
  51   2.0000      -0.474315       -12.9068
  52   2.0000      -0.465945       -12.6790
  53   2.0000      -0.462136       -12.5754
  54   2.0000      -0.457451       -12.4479
  55   2.0000      -0.452479       -12.3126
  56   2.0000      -0.448914       -12.2156
  57   2.0000      -0.442346       -12.0369
  58   2.0000      -0.431579       -11.7439
  59   2.0000      -0.425682       -11.5834
  60   2.0000      -0.422183       -11.4882
  61   2.0000      -0.417445       -11.3593
  62   2.0000      -0.413729       -11.2581
  63   2.0000      -0.341532        -9.2935
  64   2.0000      -0.329172        -8.9572
  65   2.0000      -0.324644        -8.8340
  66   2.0000      -0.297617        -8.0986
  67   0.0000       0.029588         0.8051
  68   0.0000       0.061791         1.6814
  69   0.0000       0.103521         2.8170
  70   0.0000       0.118189         3.2161
  71   0.0000       0.124267         3.3815

MULLIKEN ATOMIC CHARGES
-----------------------
   0 S :    0.101848
   1 C :   -0.142319
   2 C :   -0.098556
   3 C :    0.048494
   4 C :   -0.162827
   5 H :    0.016839
   6 C :    0.047394
   7 H :    0.013918
   8 H :    0.041600
   9 C :    0.014065
  10 H :    0.000142
  11 H :    0.012999
  12 C :   -0.072671
  13 H :    0.045805
  14 H :    0.019945
  15 H :    0.030670
  16 S :    0.149261
  17 C :   -0.086687
  18 C :   -0.040926
  19 C :   -0.023508
  20 C :   -0.182900
  21 H :    0.015773
  22 C :    0.064373
  23 H :    0.023054
  24 H :    0.028383
  25 C :   -0.054953
  26 H :    0.019145
  27 H :    0.006184
  28 C :   -0.062077
  29 H :    0.030195
  30 H :    0.037981
  31 H :    0.044813
  32 H :    0.060657
  33 H :    0.053887
Sum of atomic charges:   -0.0000000

LOEWDIN ATOMIC CHARGES
----------------------
   0 S :    0.373770
   1 C :   -0.188844
   2 C :   -0.055454
   3 C :   -0.068247
   4 C :   -0.192328
   5 H :    0.030354
   6 C :   -0.029273
   7 H :    0.022752
   8 H :    0.044257
   9 C :   -0.034045
  10 H :    0.017384
  11 H :    0.022145
  12 C :   -0.069971
  13 H :    0.036407
  14 H :    0.020620
  15 H :    0.023643
  16 S :    0.470887
  17 C :   -0.200192
  18 C :   -0.067846
  19 C :   -0.049497
  20 C :   -0.237843
  21 H :    0.030253
  22 C :   -0.030228
  23 H :    0.025719
  24 H :    0.034428
  25 C :   -0.041437
  26 H :    0.023554
  27 H :    0.013235
  28 C :   -0.075899
  29 H :    0.022989
  30 H :    0.031939
  31 H :    0.036077
  32 H :    0.034422
  33 H :    0.026268

  Mayer bond orders larger than 0.100000
B(  0-S ,  1-C ) :   1.1046 B(  0-S ,  4-C ) :   1.1562 B(  1-C ,  2-C ) :   1.6341
B(  1-C , 32-H ) :   0.9658 B(  2-C ,  3-C ) :   1.2146 B(  2-C ,  6-C ) :   1.0190
B(  3-C ,  4-C ) :   1.5954 B(  3-C ,  5-H ) :   0.9890 B(  4-C , 20-C ) :   0.9910
B(  6-C ,  7-H ) :   0.9285 B(  6-C ,  8-H ) :   0.9437 B(  6-C ,  9-C ) :   1.0835
B(  9-C , 10-H ) :   0.9394 B(  9-C , 11-H ) :   0.9505 B(  9-C , 12-C ) :   1.0853
B( 12-C , 13-H ) :   0.9749 B( 12-C , 14-H ) :   0.9723 B( 12-C , 15-H ) :   0.9726
B( 16-S , 17-C ) :   1.1990 B( 16-S , 20-C ) :   1.2018 B( 17-C , 18-C ) :   1.5157
B( 17-C , 20-C ) :   0.1171 B( 17-C , 33-H ) :   0.9718 B( 18-C , 19-C ) :   1.3285
B( 18-C , 21-H ) :   0.9908 B( 19-C , 20-C ) :   1.5038 B( 19-C , 22-C ) :   1.0654
B( 22-C , 23-H ) :   0.9228 B( 22-C , 24-H ) :   0.9362 B( 22-C , 25-C ) :   1.0649
B( 25-C , 26-H ) :   0.9517 B( 25-C , 27-H ) :   0.9502 B( 25-C , 28-C ) :   1.0804
B( 28-C , 29-H ) :   0.9738 B( 28-C , 30-H ) :   0.9718 B( 28-C , 31-H ) :   0.9718

Dispersion correction           -0.014118282
FINAL SINGLE POINT ENERGY     -1339.861247200212

DIPOLE MOMENT
-------------
                                X             Y             Z
Electronic contribution:     18.93650      19.12428      -7.49619
Nuclear contribution   :    -19.51242     -19.40801       7.43147
                        -----------------------------------------
Total Dipole Moment    :     -0.57592      -0.28373      -0.06472
                        -----------------------------------------
Magnitude (a.u.)       :      0.64527
Magnitude (Debye)      :      1.64016

Rotational constants in cm-1:     0.017891     0.008361     0.006689
Rotational constants in MHz :   536.352277   250.670368   200.517261

                             ****ORCA TERMINATED NORMALLY****
TOTAL RUN TIME: 0 days 0 hours 0 minutes 34 seconds 328 msec
