                         Program Version 4.2.1 -  RELEASE  -
|  1> ! wB97X-D3 SP def2-SVP
|  2> %pal
|  3> nprocs 16
|  4> end
|  5>
|  6> * xyz 0 1
|  7> S 	 -33.3789 	 74.8117 	 162.681
|  8> C 	 -31.9675 	 74.2908 	 161.797
|  9> C 	 -32.3107 	 73.7621 	 160.523
| 10> C 	 -33.7492 	 73.6297 	 160.449
| 11> C 	 -34.4095 	 74.0399 	 161.531
| 12> H 	 -34.3311 	 73.1259 	 159.646
| 13> C 	 -31.3187 	 73.0854 	 159.578
| 14> H 	 -31.7705 	 72.2725 	 159.005
| 15> H 	 -30.4814 	 72.6674 	 160.23
| 16> C 	 -30.6762 	 74.0219 	 158.466
| 17> H 	 -31.2886 	 74.7573 	 157.96
| 18> H 	 -29.9226 	 74.6755 	 158.875
| 19> C 	 -29.9598 	 73.2747 	 157.359
| 20> H 	 -29.1815 	 73.9373 	 156.932
| 21> H 	 -29.502 	 72.3596 	 157.604
| 22> H 	 -30.6881 	 73.1591 	 156.559
| 23> S 	 -36.8848 	 75.3998 	 161.873
| 24> C 	 -38.2723 	 74.3623 	 162.209
| 25> C 	 -37.9747 	 73.0091 	 162.183
| 26> C 	 -36.5376 	 72.8007 	 162.073
| 27> C 	 -35.8294 	 73.9258 	 161.778
| 28> H 	 -38.706 	 72.1505 	 162.298
| 29> C 	 -35.8625 	 71.4234 	 162.079
| 30> H 	 -34.8096 	 71.4966 	 162.472
| 31> H 	 -35.8359 	 71.0484 	 161.014
| 32> C 	 -36.7275 	 70.4015 	 162.874
| 33> H 	 -36.2006 	 69.4826 	 162.776
| 34> H 	 -37.7388 	 70.1303 	 162.451
| 35> C 	 -36.5931 	 70.7587 	 164.415
| 36> H 	 -36.985 	 70.0217 	 165.091
| 37> H 	 -37.2038 	 71.63 	 164.619
| 38> H 	 -35.617 	 71.0176 	 164.716
| 39> H 	 -30.9901 	 74.3533 	 162.222
| 40> H 	 -39.3393 	 74.6642 	 162.082
| 41> *
| 42>
| 43>                          ****END OF INPUT****

CARTESIAN COORDINATES (ANGSTROEM)
---------------------------------
  S    -33.378900   74.811700  162.681000
  C    -31.967500   74.290800  161.797000
  C    -32.310700   73.762100  160.523000
  C    -33.749200   73.629700  160.449000
  C    -34.409500   74.039900  161.531000
  H    -34.331100   73.125900  159.646000
  C    -31.318700   73.085400  159.578000
  H    -31.770500   72.272500  159.005000
  H    -30.481400   72.667400  160.230000
  C    -30.676200   74.021900  158.466000
  H    -31.288600   74.757300  157.960000
  H    -29.922600   74.675500  158.875000
  C    -29.959800   73.274700  157.359000
  H    -29.181500   73.937300  156.932000
  H    -29.502000   72.359600  157.604000
  H    -30.688100   73.159100  156.559000
  S    -36.884800   75.399800  161.873000
  C    -38.272300   74.362300  162.209000
  C    -37.974700   73.009100  162.183000
  C    -36.537600   72.800700  162.073000
  C    -35.829400   73.925800  161.778000
  H    -38.706000   72.150500  162.298000
  C    -35.862500   71.423400  162.079000
  H    -34.809600   71.496600  162.472000
  H    -35.835900   71.048400  161.014000
  C    -36.727500   70.401500  162.874000
  H    -36.200600   69.482600  162.776000
  H    -37.738800   70.130300  162.451000
  C    -36.593100   70.758700  164.415000
  H    -36.985000   70.021700  165.091000
  H    -37.203800   71.630000  164.619000
  H    -35.617000   71.017600  164.716000
  H    -30.990100   74.353300  162.222000
  H    -39.339300   74.664200  162.082000

 Total Charge           Charge          ....    0
 Multiplicity           Mult            ....    1
 Number of Electrons    NEL             ....  134
 Basis Dimension        Dim             ....  322

ORBITAL ENERGIES
----------------

  NO   OCC          E(Eh)            E(eV)
   0   2.0000     -88.964456     -2420.8459
   1   2.0000     -88.963834     -2420.8290
   2   2.0000     -10.321986      -280.8755
   3   2.0000     -10.321868      -280.8723
   4   2.0000     -10.318676      -280.7854
   5   2.0000     -10.317748      -280.7602
   6   2.0000     -10.310106      -280.5522
   7   2.0000     -10.306679      -280.4590
   8   2.0000     -10.301927      -280.3297
   9   2.0000     -10.300910      -280.3020
  10   2.0000     -10.300666      -280.2954
  11   2.0000     -10.294296      -280.1220
  12   2.0000     -10.292461      -280.0721
  13   2.0000     -10.283677      -279.8331
  14   2.0000     -10.272938      -279.5409
  15   2.0000     -10.270903      -279.4855
  16   2.0000      -8.079974      -219.8673
  17   2.0000      -8.077486      -219.7996
  18   2.0000      -6.038387      -164.3129
  19   2.0000      -6.036236      -164.2543
  20   2.0000      -6.034387      -164.2040
  21   2.0000      -6.032271      -164.1465
  22   2.0000      -6.030770      -164.1056
  23   2.0000      -6.027928      -164.0283
  24   2.0000      -1.007037       -27.4029
  25   2.0000      -0.977986       -26.6123
  26   2.0000      -0.905263       -24.6335
  27   2.0000      -0.901254       -24.5244
  28   2.0000      -0.869916       -23.6716
  29   2.0000      -0.852398       -23.1949
  30   2.0000      -0.836283       -22.7564
  31   2.0000      -0.814229       -22.1563
  32   2.0000      -0.780121       -21.2282
  33   2.0000      -0.767622       -20.8881
  34   2.0000      -0.704673       -19.1751
  35   2.0000      -0.699908       -19.0455
  36   2.0000      -0.693395       -18.8682
  37   2.0000      -0.650353       -17.6970
  38   2.0000      -0.649422       -17.6717
  39   2.0000      -0.612960       -16.6795
  40   2.0000      -0.590620       -16.0716
  41   2.0000      -0.565572       -15.3900
  42   2.0000      -0.556940       -15.1551
  43   2.0000      -0.549433       -14.9508
  44   2.0000      -0.531879       -14.4732
  45   2.0000      -0.521167       -14.1817
  46   2.0000      -0.519517       -14.1368
  47   2.0000      -0.510053       -13.8793
  48   2.0000      -0.501075       -13.6349
  49   2.0000      -0.494612       -13.4591
  50   2.0000      -0.488676       -13.2975
  51   2.0000      -0.469711       -12.7815
  52   2.0000      -0.467030       -12.7085
  53   2.0000      -0.463474       -12.6118
  54   2.0000      -0.459454       -12.5024
  55   2.0000      -0.448583       -12.2066
  56   2.0000      -0.445300       -12.1172
  57   2.0000      -0.442822       -12.0498
  58   2.0000      -0.439886       -11.9699
  59   2.0000      -0.424194       -11.5429
  60   2.0000      -0.420956       -11.4548
  61   2.0000      -0.409085       -11.1318
  62   2.0000      -0.405647       -11.0382
  63   2.0000      -0.339368        -9.2347
  64   2.0000      -0.328843        -8.9483
  65   2.0000      -0.327215        -8.9040
  66   2.0000      -0.300042        -8.1646
  67   0.0000       0.042327         1.1518
  68   0.0000       0.053177         1.4470
  69   0.0000       0.113446         3.0870
  70   0.0000       0.116533         3.1710
  71   0.0000       0.127403         3.4668

MULLIKEN ATOMIC CHARGES
-----------------------
   0 S :    0.121989
   1 C :   -0.125635
   2 C :   -0.047401
   3 C :    0.026341
   4 C :   -0.185129
   5 H :    0.026745
   6 C :    0.032501
   7 H :    0.031699
   8 H :    0.047709
   9 C :   -0.072622
  10 H :    0.025763
  11 H :    0.016057
  12 C :   -0.051759
  13 H :    0.030687
  14 H :    0.025209
  15 H :    0.029854
  16 S :    0.095181
  17 C :   -0.088986
  18 C :   -0.051466
  19 C :   -0.048369
  20 C :   -0.164791
  21 H :    0.048048
  22 C :    0.021849
  23 H :    0.059709
  24 H :    0.049956
  25 C :   -0.087678
  26 H :    0.017599
  27 H :    0.043174
  28 C :   -0.027314
  29 H :    0.028557
  30 H :    0.029245
  31 H :    0.023680
  32 H :    0.045585
  33 H :    0.074015
Sum of atomic charges:    0.0000000

LOEWDIN ATOMIC CHARGES
----------------------
   0 S :    0.415087
   1 C :   -0.188604
   2 C :   -0.060963
   3 C :   -0.060971
   4 C :   -0.208366
   5 H :    0.040744
   6 C :   -0.030710
   7 H :    0.029520
   8 H :    0.043522
   9 C :   -0.046635
  10 H :    0.025660
  11 H :    0.018711
  12 C :   -0.065526
  13 H :    0.032093
  14 H :    0.015500
  15 H :    0.024655
  16 S :    0.363143
  17 C :   -0.187467
  18 C :   -0.077559
  19 C :   -0.056983
  20 C :   -0.186183
  21 H :    0.043265
  22 C :   -0.032684
  23 H :    0.041650
  24 H :    0.037754
  25 C :   -0.047789
  26 H :    0.019258
  27 H :    0.030151
  28 C :   -0.060034
  29 H :    0.022059
  30 H :    0.025174
  31 H :    0.021408
  32 H :    0.020990
  33 H :    0.040129

  Mayer bond orders larger than 0.100000
B(  0-S ,  1-C ) :   1.1544 B(  0-S ,  4-C ) :   1.1380 B(  1-C ,  2-C ) :   1.5954
B(  1-C , 32-H ) :   0.9757 B(  2-C ,  3-C ) :   1.2146 B(  2-C ,  6-C ) :   1.0232
B(  3-C ,  4-C ) :   1.6305 B(  3-C ,  5-H ) :   0.9870 B(  4-C , 20-C ) :   1.0248
B(  6-C ,  7-H ) :   0.9560 B(  6-C ,  8-H ) :   0.9450 B(  6-C ,  9-C ) :   1.0376
B(  9-C , 10-H ) :   0.9622 B(  9-C , 11-H ) :   0.9621 B(  9-C , 12-C ) :   1.0818
B( 12-C , 13-H ) :   0.9751 B( 12-C , 14-H ) :   0.9760 B( 12-C , 15-H ) :   0.9795
B( 16-S , 17-C ) :   1.1400 B( 16-S , 20-C ) :   1.1004 B( 17-C , 18-C ) :   1.6528
B( 17-C , 33-H ) :   0.9515 B( 18-C , 19-C ) :   1.2063 B( 18-C , 21-H ) :   0.9679
B( 19-C , 20-C ) :   1.6694 B( 19-C , 22-C ) :   1.0329 B( 22-C , 23-H ) :   0.9345
B( 22-C , 24-H ) :   0.9353 B( 22-C , 25-C ) :   1.0810 B( 25-C , 26-H ) :   0.9535
B( 25-C , 27-H ) :   0.9514 B( 25-C , 28-C ) :   1.0562 B( 28-C , 29-H ) :   0.9778
B( 28-C , 30-H ) :   0.9756 B( 28-C , 31-H ) :   0.9745

Dispersion correction           -0.014180569
FINAL SINGLE POINT ENERGY     -1339.862874678637

DIPOLE MOMENT
-------------
                                X             Y             Z
Electronic contribution:    -10.95792      18.74939       9.18951
Nuclear contribution   :     11.16402     -19.44888      -9.51218
                        -----------------------------------------
Total Dipole Moment    :      0.20610      -0.69948      -0.32267
                        -----------------------------------------
Magnitude (a.u.)       :      0.79741
Magnitude (Debye)      :      2.02687

Rotational constants in cm-1:     0.021558     0.007124     0.006433
Rotational constants in MHz :   646.305472   213.564126   192.854216

                             ****ORCA TERMINATED NORMALLY****
TOTAL RUN TIME: 0 days 0 hours 0 minutes 33 seconds 781 msec
