                         Program Version 4.2.1 -  RELEASE  -
|  1> ! wB97X-D3 SP def2-SVP
|  2> %pal
|  3> nprocs 16
|  4> end
|  5>
|  6> * xyz 0 1
|  7> S 	 -67.0306 	 36.6013 	 142.733
|  8> C 	 -68.0541 	 36.4628 	 141.314
|  9> C 	 -67.605 	 35.4597 	 140.433
| 10> C 	 -66.2954 	 34.943 	 140.803
| 11> C 	 -65.762 	 35.5478 	 141.989
| 12> H 	 -65.8309 	 34.1453 	 140.165
| 13> C 	 -68.2329 	 35.2692 	 139.079
| 14> H 	 -69.2113 	 35.0789 	 139.324
| 15> H 	 -67.6911 	 34.385 	 138.694
| 16> C 	 -68.0252 	 36.3859 	 138.034
| 17> H 	 -66.9441 	 36.6962 	 137.988
| 18> H 	 -68.3267 	 35.9505 	 137.066
| 19> C 	 -68.8008 	 37.6666 	 138.3
| 20> H 	 -68.4045 	 38.1243 	 139.226
| 21> H 	 -68.8024 	 38.5344 	 137.623
| 22> H 	 -69.8786 	 37.3692 	 138.488
| 23> S 	 -64.6618 	 34.7085 	 144.263
| 24> C 	 -62.9458 	 34.5044 	 144.325
| 25> C 	 -62.2815 	 34.6005 	 143.128
| 26> C 	 -63.2162 	 35.0294 	 142.128
| 27> C 	 -64.4889 	 35.3026 	 142.633
| 28> H 	 -61.2846 	 34.3477 	 143.064
| 29> C 	 -62.8286 	 35.0884 	 140.641
| 30> H 	 -63.6773 	 35.557 	 140.077
| 31> H 	 -62.5808 	 34.1006 	 140.304
| 32> C 	 -61.6198 	 36.0116 	 140.444
| 33> H 	 -61.2021 	 35.93 	 139.388
| 34> H 	 -60.6187 	 35.6611 	 140.955
| 35> C 	 -61.8201 	 37.4842 	 140.849
| 36> H 	 -61.0905 	 38.2342 	 140.489
| 37> H 	 -61.8416 	 37.5615 	 141.983
| 38> H 	 -62.8345 	 37.7435 	 140.48
| 39> H 	 -68.911 	 37.0743 	 141.014
| 40> H 	 -62.3262 	 34.2057 	 145.167
| 41> *
| 42>
| 43>                          ****END OF INPUT****

CARTESIAN COORDINATES (ANGSTROEM)
---------------------------------
  S    -67.030600   36.601300  142.733000
  C    -68.054100   36.462800  141.314000
  C    -67.605000   35.459700  140.433000
  C    -66.295400   34.943000  140.803000
  C    -65.762000   35.547800  141.989000
  H    -65.830900   34.145300  140.165000
  C    -68.232900   35.269200  139.079000
  H    -69.211300   35.078900  139.324000
  H    -67.691100   34.385000  138.694000
  C    -68.025200   36.385900  138.034000
  H    -66.944100   36.696200  137.988000
  H    -68.326700   35.950500  137.066000
  C    -68.800800   37.666600  138.300000
  H    -68.404500   38.124300  139.226000
  H    -68.802400   38.534400  137.623000
  H    -69.878600   37.369200  138.488000
  S    -64.661800   34.708500  144.263000
  C    -62.945800   34.504400  144.325000
  C    -62.281500   34.600500  143.128000
  C    -63.216200   35.029400  142.128000
  C    -64.488900   35.302600  142.633000
  H    -61.284600   34.347700  143.064000
  C    -62.828600   35.088400  140.641000
  H    -63.677300   35.557000  140.077000
  H    -62.580800   34.100600  140.304000
  C    -61.619800   36.011600  140.444000
  H    -61.202100   35.930000  139.388000
  H    -60.618700   35.661100  140.955000
  C    -61.820100   37.484200  140.849000
  H    -61.090500   38.234200  140.489000
  H    -61.841600   37.561500  141.983000
  H    -62.834500   37.743500  140.480000
  H    -68.911000   37.074300  141.014000
  H    -62.326200   34.205700  145.167000

 Total Charge           Charge          ....    0
 Multiplicity           Mult            ....    1
 Number of Electrons    NEL             ....  134
 Basis Dimension        Dim             ....  322

ORBITAL ENERGIES
----------------

  NO   OCC          E(Eh)            E(eV)
   0   2.0000     -88.970491     -2421.0101
   1   2.0000     -88.967487     -2420.9284
   2   2.0000     -10.340173      -281.3704
   3   2.0000     -10.324666      -280.9485
   4   2.0000     -10.316456      -280.7250
   5   2.0000     -10.314034      -280.6591
   6   2.0000     -10.308013      -280.4953
   7   2.0000     -10.307597      -280.4840
   8   2.0000     -10.300834      -280.3000
   9   2.0000     -10.298026      -280.2235
  10   2.0000     -10.297213      -280.2014
  11   2.0000     -10.296119      -280.1717
  12   2.0000     -10.289542      -279.9927
  13   2.0000     -10.288941      -279.9763
  14   2.0000     -10.285321      -279.8778
  15   2.0000     -10.281755      -279.7808
  16   2.0000      -8.083731      -219.9695
  17   2.0000      -8.082792      -219.9440
  18   2.0000      -6.042381      -164.4215
  19   2.0000      -6.041274      -164.3914
  20   2.0000      -6.038426      -164.3139
  21   2.0000      -6.037475      -164.2880
  22   2.0000      -6.034457      -164.2059
  23   2.0000      -6.033277      -164.1738
  24   2.0000      -1.005881       -27.3714
  25   2.0000      -0.976659       -26.5763
  26   2.0000      -0.914131       -24.8748
  27   2.0000      -0.905868       -24.6499
  28   2.0000      -0.869419       -23.6581
  29   2.0000      -0.846649       -23.0385
  30   2.0000      -0.842244       -22.9186
  31   2.0000      -0.809485       -22.0272
  32   2.0000      -0.783377       -21.3168
  33   2.0000      -0.771255       -20.9869
  34   2.0000      -0.710280       -19.3277
  35   2.0000      -0.695209       -18.9176
  36   2.0000      -0.686155       -18.6712
  37   2.0000      -0.660272       -17.9669
  38   2.0000      -0.628359       -17.0985
  39   2.0000      -0.620223       -16.8771
  40   2.0000      -0.590056       -16.0562
  41   2.0000      -0.572732       -15.5848
  42   2.0000      -0.561197       -15.2709
  43   2.0000      -0.551636       -15.0108
  44   2.0000      -0.545417       -14.8416
  45   2.0000      -0.527196       -14.3457
  46   2.0000      -0.520578       -14.1656
  47   2.0000      -0.505650       -13.7594
  48   2.0000      -0.500844       -13.6287
  49   2.0000      -0.494189       -13.4476
  50   2.0000      -0.485667       -13.2157
  51   2.0000      -0.478873       -13.0308
  52   2.0000      -0.467496       -12.7212
  53   2.0000      -0.461555       -12.5595
  54   2.0000      -0.452691       -12.3183
  55   2.0000      -0.450496       -12.2586
  56   2.0000      -0.449009       -12.2181
  57   2.0000      -0.443589       -12.0707
  58   2.0000      -0.427822       -11.6416
  59   2.0000      -0.426439       -11.6040
  60   2.0000      -0.421081       -11.4582
  61   2.0000      -0.410260       -11.1637
  62   2.0000      -0.396868       -10.7993
  63   2.0000      -0.348386        -9.4801
  64   2.0000      -0.330117        -8.9829
  65   2.0000      -0.328432        -8.9371
  66   2.0000      -0.285987        -7.7821
  67   0.0000       0.022693         0.6175
  68   0.0000       0.062679         1.7056
  69   0.0000       0.098146         2.6707
  70   0.0000       0.117067         3.1856
  71   0.0000       0.126532         3.4431

MULLIKEN ATOMIC CHARGES
-----------------------
   0 S :    0.113983
   1 C :   -0.121775
   2 C :   -0.145619
   3 C :    0.024970
   4 C :   -0.168404
   5 H :    0.038488
   6 C :    0.082182
   7 H :    0.018326
   8 H :    0.023659
   9 C :   -0.043042
  10 H :    0.039265
  11 H :    0.038281
  12 C :   -0.105211
  13 H :    0.038898
  14 H :    0.045487
  15 H :    0.031758
  16 S :    0.114435
  17 C :   -0.069359
  18 C :   -0.018638
  19 C :   -0.063058
  20 C :   -0.126288
  21 H :   -0.008176
  22 C :    0.102865
  23 H :    0.042613
  24 H :    0.037282
  25 C :   -0.153420
  26 H :    0.031641
  27 H :    0.028631
  28 C :   -0.062136
  29 H :    0.046895
  30 H :    0.051318
  31 H :    0.029934
  32 H :    0.056965
  33 H :    0.047252
Sum of atomic charges:    0.0000000

LOEWDIN ATOMIC CHARGES
----------------------
   0 S :    0.386055
   1 C :   -0.204075
   2 C :   -0.068503
   3 C :   -0.065272
   4 C :   -0.184711
   5 H :    0.039259
   6 C :   -0.026865
   7 H :    0.020782
   8 H :    0.036491
   9 C :   -0.037874
  10 H :    0.032684
  11 H :    0.026405
  12 C :   -0.082312
  13 H :    0.026931
  14 H :    0.029917
  15 H :    0.026122
  16 S :    0.420223
  17 C :   -0.182726
  18 C :   -0.061035
  19 C :   -0.045862
  20 C :   -0.210817
  21 H :    0.021612
  22 C :   -0.028096
  23 H :    0.037096
  24 H :    0.032834
  25 C :   -0.063249
  26 H :    0.025342
  27 H :    0.024815
  28 C :   -0.076069
  29 H :    0.029794
  30 H :    0.034247
  31 H :    0.025789
  32 H :    0.032023
  33 H :    0.029046

  Mayer bond orders larger than 0.100000
B(  0-S ,  1-C ) :   1.1379 B(  0-S ,  4-C ) :   1.1386 B(  1-C ,  2-C ) :   1.6038
B(  1-C ,  4-C ) :   0.1052 B(  1-C , 32-H ) :   0.9567 B(  2-C ,  3-C ) :   1.2577
B(  2-C ,  6-C ) :   1.0217 B(  3-C ,  4-C ) :   1.5385 B(  3-C ,  5-H ) :   0.9782
B(  4-C , 20-C ) :   1.0502 B(  6-C ,  7-H ) :   0.9355 B(  6-C ,  8-H ) :   0.9391
B(  6-C ,  9-C ) :   1.0625 B(  9-C , 10-H ) :   0.9544 B(  9-C , 11-H ) :   0.9563
B(  9-C , 12-C ) :   1.0706 B( 12-C , 13-H ) :   0.9664 B( 12-C , 14-H ) :   0.9724
B( 12-C , 15-H ) :   0.9748 B( 16-S , 17-C ) :   1.1556 B( 16-S , 20-C ) :   1.1369
B( 17-C , 18-C ) :   1.6340 B( 17-C , 33-H ) :   0.9603 B( 18-C , 19-C ) :   1.2089
B( 18-C , 21-H ) :   1.0084 B( 19-C , 20-C ) :   1.6074 B( 19-C , 22-C ) :   1.0342
B( 22-C , 23-H ) :   0.9343 B( 22-C , 24-H ) :   0.9335 B( 22-C , 25-C ) :   1.0683
B( 25-C , 26-H ) :   0.9563 B( 25-C , 27-H ) :   0.9516 B( 25-C , 28-C ) :   1.0586
B( 28-C , 29-H ) :   0.9755 B( 28-C , 30-H ) :   0.9705 B( 28-C , 31-H ) :   0.9760

Dispersion correction           -0.014777284
FINAL SINGLE POINT ENERGY     -1339.853556738745

DIPOLE MOMENT
-------------
                                X             Y             Z
Electronic contribution:     -3.77685      -7.48390      24.71383
Nuclear contribution   :      4.02254       7.28238     -25.35617
                        -----------------------------------------
Total Dipole Moment    :      0.24568      -0.20152      -0.64233
                        -----------------------------------------
Magnitude (a.u.)       :      0.71663
Magnitude (Debye)      :      1.82154

Rotational constants in cm-1:     0.020602     0.008545     0.006876
Rotational constants in MHz :   617.631900   256.182849   206.133432

                             ****ORCA TERMINATED NORMALLY****
TOTAL RUN TIME: 0 days 0 hours 0 minutes 36 seconds 496 msec
