                         Program Version 4.2.1 -  RELEASE  -
|  1> ! wB97X-D3 SP def2-SVP
|  2> %pal
|  3> nprocs 16
|  4> end
|  5>
|  6> * xyz 0 1
|  7> S 	 37.336 	 9.44857 	 79.3029
|  8> C 	 38.4846 	 8.27568 	 80.0993
|  9> C 	 39.609 	 8.99088 	 80.4917
| 10> C 	 39.5344 	 10.3681 	 80.2341
| 11> C 	 38.4347 	 10.7806 	 79.5937
| 12> H 	 40.2183 	 11.1729 	 80.4613
| 13> C 	 40.8368 	 8.39366 	 81.1606
| 14> H 	 40.4293 	 7.67773 	 81.9033
| 15> H 	 41.2844 	 9.22336 	 81.7316
| 16> C 	 41.8208 	 7.60949 	 80.2972
| 17> H 	 42.5102 	 7.06072 	 80.9592
| 18> H 	 41.3231 	 6.76858 	 79.7255
| 19> C 	 42.5077 	 8.53087 	 79.2991
| 20> H 	 43.3485 	 8.04493 	 78.7499
| 21> H 	 41.9051 	 8.86295 	 78.5023
| 22> H 	 42.9164 	 9.42581 	 79.8737
| 23> S 	 37.5304 	 12.4858 	 77.7239
| 24> C 	 37.4694 	 14.2257 	 77.9998
| 25> C 	 37.9248 	 14.4858 	 79.2753
| 26> C 	 38.209 	 13.3162 	 80.0384
| 27> C 	 38.1647 	 12.1416 	 79.2795
| 28> H 	 37.9549 	 15.4896 	 79.5376
| 29> C 	 38.7817 	 13.332 	 81.5112
| 30> H 	 39.1794 	 12.3836 	 81.7233
| 31> H 	 38.0519 	 13.4699 	 82.3671
| 32> C 	 39.9584 	 14.3542 	 81.6829
| 33> H 	 40.1412 	 14.4036 	 82.7695
| 34> H 	 39.5804 	 15.3687 	 81.4794
| 35> C 	 41.2385 	 14.05 	 81.014
| 36> H 	 41.765 	 13.2285 	 81.3934
| 37> H 	 41.8804 	 14.8997 	 81.1037
| 38> H 	 41.007 	 13.7351 	 80.0516
| 39> H 	 38.4605 	 7.21969 	 80.2907
| 40> H 	 37.3044 	 14.9563 	 77.2061
| 41> *
| 42>
| 43>                          ****END OF INPUT****

CARTESIAN COORDINATES (ANGSTROEM)
---------------------------------
  S     37.336000    9.448570   79.302900
  C     38.484600    8.275680   80.099300
  C     39.609000    8.990880   80.491700
  C     39.534400   10.368100   80.234100
  C     38.434700   10.780600   79.593700
  H     40.218300   11.172900   80.461300
  C     40.836800    8.393660   81.160600
  H     40.429300    7.677730   81.903300
  H     41.284400    9.223360   81.731600
  C     41.820800    7.609490   80.297200
  H     42.510200    7.060720   80.959200
  H     41.323100    6.768580   79.725500
  C     42.507700    8.530870   79.299100
  H     43.348500    8.044930   78.749900
  H     41.905100    8.862950   78.502300
  H     42.916400    9.425810   79.873700
  S     37.530400   12.485800   77.723900
  C     37.469400   14.225700   77.999800
  C     37.924800   14.485800   79.275300
  C     38.209000   13.316200   80.038400
  C     38.164700   12.141600   79.279500
  H     37.954900   15.489600   79.537600
  C     38.781700   13.332000   81.511200
  H     39.179400   12.383600   81.723300
  H     38.051900   13.469900   82.367100
  C     39.958400   14.354200   81.682900
  H     40.141200   14.403600   82.769500
  H     39.580400   15.368700   81.479400
  C     41.238500   14.050000   81.014000
  H     41.765000   13.228500   81.393400
  H     41.880400   14.899700   81.103700
  H     41.007000   13.735100   80.051600
  H     38.460500    7.219690   80.290700
  H     37.304400   14.956300   77.206100

 Total Charge           Charge          ....    0
 Multiplicity           Mult            ....    1
 Number of Electrons    NEL             ....  134
 Basis Dimension        Dim             ....  322

ORBITAL ENERGIES
----------------

  NO   OCC          E(Eh)            E(eV)
   0   2.0000     -88.969540     -2420.9843
   1   2.0000     -88.964067     -2420.8353
   2   2.0000     -10.325934      -280.9830
   3   2.0000     -10.323823      -280.9255
   4   2.0000     -10.320178      -280.8263
   5   2.0000     -10.319651      -280.8120
   6   2.0000     -10.310521      -280.5635
   7   2.0000     -10.300412      -280.2885
   8   2.0000     -10.295250      -280.1480
   9   2.0000     -10.294982      -280.1407
  10   2.0000     -10.293922      -280.1119
  11   2.0000     -10.293623      -280.1037
  12   2.0000     -10.285093      -279.8716
  13   2.0000     -10.284854      -279.8651
  14   2.0000     -10.278533      -279.6931
  15   2.0000     -10.262968      -279.2696
  16   2.0000      -8.082839      -219.9452
  17   2.0000      -8.079501      -219.8544
  18   2.0000      -6.041689      -164.4027
  19   2.0000      -6.037870      -164.2988
  20   2.0000      -6.037511      -164.2890
  21   2.0000      -6.033758      -164.1869
  22   2.0000      -6.033317      -164.1749
  23   2.0000      -6.030498      -164.0982
  24   2.0000      -1.013321       -27.5739
  25   2.0000      -0.985384       -26.8137
  26   2.0000      -0.914037       -24.8722
  27   2.0000      -0.908928       -24.7332
  28   2.0000      -0.875910       -23.8347
  29   2.0000      -0.852739       -23.2042
  30   2.0000      -0.843376       -22.9494
  31   2.0000      -0.820717       -22.3328
  32   2.0000      -0.785746       -21.3812
  33   2.0000      -0.775506       -21.1026
  34   2.0000      -0.713119       -19.4050
  35   2.0000      -0.705491       -19.1974
  36   2.0000      -0.697122       -18.9697
  37   2.0000      -0.659148       -17.9363
  38   2.0000      -0.639731       -17.4080
  39   2.0000      -0.617367       -16.7994
  40   2.0000      -0.597533       -16.2597
  41   2.0000      -0.573608       -15.6087
  42   2.0000      -0.557499       -15.1703
  43   2.0000      -0.553191       -15.0531
  44   2.0000      -0.545810       -14.8522
  45   2.0000      -0.534122       -14.5342
  46   2.0000      -0.526861       -14.3366
  47   2.0000      -0.515123       -14.0172
  48   2.0000      -0.507072       -13.7981
  49   2.0000      -0.503629       -13.7044
  50   2.0000      -0.494704       -13.4616
  51   2.0000      -0.480830       -13.0840
  52   2.0000      -0.471409       -12.8277
  53   2.0000      -0.468061       -12.7366
  54   2.0000      -0.464048       -12.6274
  55   2.0000      -0.443582       -12.0705
  56   2.0000      -0.436849       -11.8873
  57   2.0000      -0.435453       -11.8493
  58   2.0000      -0.434812       -11.8318
  59   2.0000      -0.428314       -11.6550
  60   2.0000      -0.419894       -11.4259
  61   2.0000      -0.411147       -11.1879
  62   2.0000      -0.404672       -11.0117
  63   2.0000      -0.352434        -9.5902
  64   2.0000      -0.334496        -9.1021
  65   2.0000      -0.332221        -9.0402
  66   2.0000      -0.292738        -7.9658
  67   0.0000       0.026509         0.7213
  68   0.0000       0.068200         1.8558
  69   0.0000       0.103363         2.8126
  70   0.0000       0.121224         3.2987
  71   0.0000       0.126386         3.4391

MULLIKEN ATOMIC CHARGES
-----------------------
   0 S :    0.113341
   1 C :   -0.108889
   2 C :   -0.077613
   3 C :    0.006987
   4 C :   -0.103784
   5 H :   -0.006889
   6 C :    0.041889
   7 H :    0.028607
   8 H :    0.029586
   9 C :   -0.050770
  10 H :    0.033783
  11 H :    0.030546
  12 C :   -0.064703
  13 H :    0.033842
  14 H :    0.039487
  15 H :    0.032745
  16 S :    0.100025
  17 C :   -0.104482
  18 C :   -0.018459
  19 C :   -0.016251
  20 C :   -0.179152
  21 H :    0.000969
  22 C :    0.068859
  23 H :   -0.005081
  24 H :    0.045741
  25 C :   -0.117530
  26 H :    0.019298
  27 H :    0.027514
  28 C :    0.029840
  29 H :    0.012231
  30 H :    0.033859
  31 H :    0.018324
  32 H :    0.036628
  33 H :    0.069499
Sum of atomic charges:   -0.0000000

LOEWDIN ATOMIC CHARGES
----------------------
   0 S :    0.381587
   1 C :   -0.179433
   2 C :   -0.060488
   3 C :   -0.071375
   4 C :   -0.189292
   5 H :    0.030787
   6 C :   -0.036033
   7 H :    0.034614
   8 H :    0.031148
   9 C :   -0.044875
  10 H :    0.026576
  11 H :    0.029557
  12 C :   -0.071271
  13 H :    0.029501
  14 H :    0.021841
  15 H :    0.029847
  16 S :    0.417333
  17 C :   -0.182221
  18 C :   -0.063301
  19 C :   -0.056330
  20 C :   -0.206216
  21 H :    0.022845
  22 C :   -0.028354
  23 H :    0.015600
  24 H :    0.040724
  25 C :   -0.043205
  26 H :    0.023724
  27 H :    0.020521
  28 C :   -0.057371
  29 H :    0.018355
  30 H :    0.031489
  31 H :    0.018555
  32 H :    0.030506
  33 H :    0.034658

  Mayer bond orders larger than 0.100000
B(  0-S ,  1-C ) :   1.1088 B(  0-S ,  4-C ) :   1.1257 B(  1-C ,  2-C ) :   1.6293
B(  1-C , 32-H ) :   0.9691 B(  2-C ,  3-C ) :   1.2114 B(  2-C ,  6-C ) :   1.0089
B(  3-C ,  4-C ) :   1.6060 B(  3-C ,  5-H ) :   0.9954 B(  4-C , 20-C ) :   1.0515
B(  6-C ,  7-H ) :   0.9338 B(  6-C ,  8-H ) :   0.9476 B(  6-C ,  9-C ) :   1.0776
B(  9-C , 10-H ) :   0.9547 B(  9-C , 11-H ) :   0.9517 B(  9-C , 12-C ) :   1.0693
B( 12-C , 13-H ) :   0.9727 B( 12-C , 14-H ) :   0.9751 B( 12-C , 15-H ) :   0.9754
B( 16-S , 17-C ) :   1.1566 B( 16-S , 20-C ) :   1.1605 B( 17-C , 18-C ) :   1.5994
B( 17-C , 20-C ) :   0.1063 B( 17-C , 33-H ) :   0.9668 B( 18-C , 19-C ) :   1.2354
B( 18-C , 21-H ) :   1.0041 B( 19-C , 20-C ) :   1.5549 B( 19-C , 22-C ) :   1.0299
B( 22-C , 23-H ) :   0.9405 B( 22-C , 24-H ) :   0.9371 B( 22-C , 25-C ) :   1.0717
B( 25-C , 26-H ) :   0.9506 B( 25-C , 27-H ) :   0.9572 B( 25-C , 28-C ) :   1.0854
B( 28-C , 29-H ) :   0.9632 B( 28-C , 30-H ) :   0.9660 B( 28-C , 31-H ) :   0.9695

Dispersion correction           -0.015219775
FINAL SINGLE POINT ENERGY     -1339.865986829399

DIPOLE MOMENT
-------------
                                X             Y             Z
Electronic contribution:    -24.35667      -0.75918     -13.05782
Nuclear contribution   :     24.94091       0.91764      13.45209
                        -----------------------------------------
Total Dipole Moment    :      0.58424       0.15846       0.39426
                        -----------------------------------------
Magnitude (a.u.)       :      0.72242
Magnitude (Debye)      :      1.83624

Rotational constants in cm-1:     0.018588     0.009561     0.007444
Rotational constants in MHz :   557.265724   286.621091   223.177746

                             ****ORCA TERMINATED NORMALLY****
TOTAL RUN TIME: 0 days 0 hours 0 minutes 31 seconds 698 msec
