                         Program Version 4.2.1 -  RELEASE  -
|  1> ! wB97X-D3 SP def2-SVP
|  2> %pal
|  3> nprocs 16
|  4> end
|  5>
|  6> * xyz 0 1
|  7> S 	 53.0588 	 10.8605 	 53.6403
|  8> C 	 53.3748 	 12.6243 	 53.7849
|  9> C 	 52.3186 	 13.3674 	 53.255
| 10> C 	 51.2662 	 12.4596 	 52.8485
| 11> C 	 51.4382 	 11.0917 	 53.0137
| 12> H 	 50.3325 	 12.7508 	 52.4879
| 13> C 	 52.3147 	 14.8419 	 53.0598
| 14> H 	 53.0541 	 15.2171 	 53.7435
| 15> H 	 51.3755 	 15.0906 	 53.5032
| 16> C 	 52.5228 	 15.3719 	 51.6311
| 17> H 	 51.8824 	 14.9202 	 50.8164
| 18> H 	 52.2047 	 16.3739 	 51.5855
| 19> C 	 54.01 	 15.4239 	 51.3067
| 20> H 	 54.6587 	 15.9503 	 52.0179
| 21> H 	 54.3689 	 14.4126 	 51.0503
| 22> H 	 54.2748 	 16.0618 	 50.4574
| 23> S 	 51.3368 	 8.39338 	 52.3908
| 24> C 	 49.85 	 7.6225 	 52.1939
| 25> C 	 48.8244 	 8.47926 	 52.3132
| 26> C 	 49.1754 	 9.77593 	 52.6594
| 27> C 	 50.5477 	 9.95317 	 52.8048
| 28> H 	 47.7826 	 8.24609 	 52.0648
| 29> C 	 48.1602 	 10.9231 	 52.7905
| 30> H 	 48.4716 	 11.861 	 52.3991
| 31> H 	 47.9653 	 11.1599 	 53.7922
| 32> C 	 46.7302 	 10.7022 	 52.1365
| 33> H 	 46.1243 	 10.1439 	 52.8579
| 34> H 	 46.8924 	 10.1327 	 51.2391
| 35> C 	 46.0033 	 12.0044 	 51.8413
| 36> H 	 46.6568 	 12.827 	 51.5705
| 37> H 	 45.4649 	 12.2726 	 52.6829
| 38> H 	 45.2029 	 11.8037 	 51.0723
| 39> H 	 54.3434 	 12.9599 	 54.0343
| 40> H 	 49.7148 	 6.56272 	 51.9761
| 41> *
| 42>
| 43>                          ****END OF INPUT****

CARTESIAN COORDINATES (ANGSTROEM)
---------------------------------
  S     53.058800   10.860500   53.640300
  C     53.374800   12.624300   53.784900
  C     52.318600   13.367400   53.255000
  C     51.266200   12.459600   52.848500
  C     51.438200   11.091700   53.013700
  H     50.332500   12.750800   52.487900
  C     52.314700   14.841900   53.059800
  H     53.054100   15.217100   53.743500
  H     51.375500   15.090600   53.503200
  C     52.522800   15.371900   51.631100
  H     51.882400   14.920200   50.816400
  H     52.204700   16.373900   51.585500
  C     54.010000   15.423900   51.306700
  H     54.658700   15.950300   52.017900
  H     54.368900   14.412600   51.050300
  H     54.274800   16.061800   50.457400
  S     51.336800    8.393380   52.390800
  C     49.850000    7.622500   52.193900
  C     48.824400    8.479260   52.313200
  C     49.175400    9.775930   52.659400
  C     50.547700    9.953170   52.804800
  H     47.782600    8.246090   52.064800
  C     48.160200   10.923100   52.790500
  H     48.471600   11.861000   52.399100
  H     47.965300   11.159900   53.792200
  C     46.730200   10.702200   52.136500
  H     46.124300   10.143900   52.857900
  H     46.892400   10.132700   51.239100
  C     46.003300   12.004400   51.841300
  H     46.656800   12.827000   51.570500
  H     45.464900   12.272600   52.682900
  H     45.202900   11.803700   51.072300
  H     54.343400   12.959900   54.034300
  H     49.714800    6.562720   51.976100

 Total Charge           Charge          ....    0
 Multiplicity           Mult            ....    1
 Number of Electrons    NEL             ....  134
 Basis Dimension        Dim             ....  322

ORBITAL ENERGIES
----------------

  NO   OCC          E(Eh)            E(eV)
   0   2.0000     -88.964855     -2420.8568
   1   2.0000     -88.958802     -2420.6921
   2   2.0000     -10.332165      -281.1525
   3   2.0000     -10.331295      -281.1288
   4   2.0000     -10.314075      -280.6603
   5   2.0000     -10.312196      -280.6091
   6   2.0000     -10.304409      -280.3972
   7   2.0000     -10.304062      -280.3878
   8   2.0000     -10.291188      -280.0375
   9   2.0000     -10.290156      -280.0094
  10   2.0000     -10.288976      -279.9773
  11   2.0000     -10.288854      -279.9739
  12   2.0000     -10.288791      -279.9722
  13   2.0000     -10.286169      -279.9009
  14   2.0000     -10.278861      -279.7020
  15   2.0000     -10.278278      -279.6862
  16   2.0000      -8.080325      -219.8768
  17   2.0000      -8.073083      -219.6797
  18   2.0000      -6.038743      -164.3226
  19   2.0000      -6.034714      -164.2129
  20   2.0000      -6.031747      -164.1322
  21   2.0000      -6.031140      -164.1157
  22   2.0000      -6.027658      -164.0209
  23   2.0000      -6.023704      -163.9133
  24   2.0000      -1.010007       -27.4837
  25   2.0000      -0.982561       -26.7369
  26   2.0000      -0.916419       -24.9370
  27   2.0000      -0.910486       -24.7756
  28   2.0000      -0.870588       -23.6899
  29   2.0000      -0.858038       -23.3484
  30   2.0000      -0.840991       -22.8845
  31   2.0000      -0.815342       -22.1866
  32   2.0000      -0.787966       -21.4416
  33   2.0000      -0.776197       -21.1214
  34   2.0000      -0.714411       -19.4401
  35   2.0000      -0.705688       -19.2027
  36   2.0000      -0.699337       -19.0299
  37   2.0000      -0.653854       -17.7923
  38   2.0000      -0.644042       -17.5253
  39   2.0000      -0.622418       -16.9369
  40   2.0000      -0.607994       -16.5444
  41   2.0000      -0.576520       -15.6879
  42   2.0000      -0.569343       -15.4926
  43   2.0000      -0.556150       -15.1336
  44   2.0000      -0.536930       -14.6106
  45   2.0000      -0.525216       -14.2919
  46   2.0000      -0.521133       -14.1807
  47   2.0000      -0.513473       -13.9723
  48   2.0000      -0.506608       -13.7855
  49   2.0000      -0.496067       -13.4987
  50   2.0000      -0.489888       -13.3305
  51   2.0000      -0.485151       -13.2016
  52   2.0000      -0.477763       -13.0006
  53   2.0000      -0.463654       -12.6167
  54   2.0000      -0.463366       -12.6088
  55   2.0000      -0.455270       -12.3885
  56   2.0000      -0.442588       -12.0434
  57   2.0000      -0.435581       -11.8528
  58   2.0000      -0.431494       -11.7415
  59   2.0000      -0.430292       -11.7089
  60   2.0000      -0.423147       -11.5144
  61   2.0000      -0.412841       -11.2340
  62   2.0000      -0.405091       -11.0231
  63   2.0000      -0.357407        -9.7255
  64   2.0000      -0.336404        -9.1540
  65   2.0000      -0.324132        -8.8201
  66   2.0000      -0.283737        -7.7209
  67   0.0000       0.020941         0.5698
  68   0.0000       0.082301         2.2395
  69   0.0000       0.103449         2.8150
  70   0.0000       0.125603         3.4178
  71   0.0000       0.139186         3.7875

MULLIKEN ATOMIC CHARGES
-----------------------
   0 S :    0.071578
   1 C :   -0.111238
   2 C :   -0.095717
   3 C :    0.018384
   4 C :   -0.108279
   5 H :   -0.045315
   6 C :    0.106345
   7 H :    0.013098
   8 H :    0.020783
   9 C :   -0.028179
  10 H :    0.044322
  11 H :    0.014116
  12 C :   -0.074665
  13 H :    0.026886
  14 H :    0.047733
  15 H :    0.022874
  16 S :    0.099808
  17 C :   -0.062713
  18 C :   -0.049162
  19 C :   -0.036394
  20 C :   -0.130093
  21 H :    0.021516
  22 C :    0.088033
  23 H :    0.009219
  24 H :    0.023844
  25 C :   -0.129636
  26 H :    0.037988
  27 H :    0.037827
  28 C :   -0.021945
  29 H :    0.036387
  30 H :    0.015600
  31 H :    0.040373
  32 H :    0.036772
  33 H :    0.059850
Sum of atomic charges:   -0.0000000

LOEWDIN ATOMIC CHARGES
----------------------
   0 S :    0.372832
   1 C :   -0.175046
   2 C :   -0.056219
   3 C :   -0.067967
   4 C :   -0.183829
   5 H :    0.010400
   6 C :   -0.027583
   7 H :    0.032485
   8 H :    0.031215
   9 C :   -0.038605
  10 H :    0.036562
  11 H :    0.019525
  12 C :   -0.073976
  13 H :    0.027111
  14 H :    0.029525
  15 H :    0.026724
  16 S :    0.416892
  17 C :   -0.197601
  18 C :   -0.084873
  19 C :   -0.051888
  20 C :   -0.181428
  21 H :    0.035429
  22 C :   -0.023210
  23 H :    0.019602
  24 H :    0.028440
  25 C :   -0.038994
  26 H :    0.025804
  27 H :    0.018299
  28 C :   -0.061008
  29 H :    0.023989
  30 H :    0.016474
  31 H :    0.037825
  32 H :    0.016606
  33 H :    0.036487

  Mayer bond orders larger than 0.100000
B(  0-S ,  1-C ) :   1.1300 B(  0-S ,  4-C ) :   1.1355 B(  1-C ,  2-C ) :   1.6005
B(  1-C , 32-H ) :   0.9740 B(  2-C ,  3-C ) :   1.2300 B(  2-C ,  6-C ) :   1.0223
B(  3-C ,  4-C ) :   1.5825 B(  3-C ,  5-H ) :   1.0024 B(  4-C , 20-C ) :   1.0652
B(  6-C ,  7-H ) :   0.9376 B(  6-C ,  8-H ) :   0.9285 B(  6-C ,  9-C ) :   1.0645
B(  9-C , 10-H ) :   0.9567 B(  9-C , 11-H ) :   0.9511 B(  9-C , 12-C ) :   1.0747
B( 12-C , 13-H ) :   0.9724 B( 12-C , 14-H ) :   0.9787 B( 12-C , 15-H ) :   0.9711
B( 16-S , 17-C ) :   1.1774 B( 16-S , 20-C ) :   1.1391 B( 17-C , 18-C ) :   1.5679
B( 17-C , 20-C ) :   0.1004 B( 17-C , 33-H ) :   0.9602 B( 18-C , 19-C ) :   1.3078
B( 18-C , 21-H ) :   0.9820 B( 19-C , 20-C ) :   1.5783 B( 19-C , 22-C ) :   1.0143
B( 22-C , 23-H ) :   0.9433 B( 22-C , 24-H ) :   0.9226 B( 22-C , 25-C ) :   1.0698
B( 25-C , 26-H ) :   0.9532 B( 25-C , 27-H ) :   0.9623 B( 25-C , 28-C ) :   1.0867
B( 28-C , 29-H ) :   0.9738 B( 28-C , 30-H ) :   0.9750 B( 28-C , 31-H ) :   0.9722

Dispersion correction           -0.013384211
FINAL SINGLE POINT ENERGY     -1339.864752689266

DIPOLE MOMENT
-------------
                                X             Y             Z
Electronic contribution:     13.60464     -23.57340       7.42960
Nuclear contribution   :    -14.20342      24.16973      -7.68430
                        -----------------------------------------
Total Dipole Moment    :     -0.59878       0.59633      -0.25470
                        -----------------------------------------
Magnitude (a.u.)       :      0.88262
Magnitude (Debye)      :      2.24344

Rotational constants in cm-1:     0.017621     0.008391     0.006117
Rotational constants in MHz :   528.278963   251.558628   183.382636

                             ****ORCA TERMINATED NORMALLY****
TOTAL RUN TIME: 0 days 0 hours 0 minutes 29 seconds 57 msec
