                         Program Version 4.2.1 -  RELEASE  -
|  1> ! wB97X-D3 SP def2-SVP
|  2> %pal
|  3> nprocs 16
|  4> end
|  5>
|  6> * xyz 0 1
|  7> S 	 40.1143 	 16.7249 	 78.4554
|  8> C 	 38.8235 	 16.5894 	 77.3555
|  9> C 	 37.6499 	 16.2726 	 78.0059
| 10> C 	 37.8046 	 16.3041 	 79.416
| 11> C 	 39.0701 	 16.4758 	 79.8947
| 12> H 	 37.0196 	 16.1609 	 80.1153
| 13> C 	 36.2948 	 16.0114 	 77.4512
| 14> H 	 36.1152 	 16.339 	 76.4569
| 15> H 	 35.6636 	 16.7358 	 77.9143
| 16> C 	 35.7653 	 14.5893 	 77.6414
| 17> H 	 36.6193 	 13.9659 	 77.3748
| 18> H 	 35.5822 	 14.3368 	 78.6731
| 19> C 	 34.5738 	 14.2485 	 76.7309
| 20> H 	 34.2124 	 13.2056 	 77.0054
| 21> H 	 33.7348 	 14.9246 	 76.6432
| 22> H 	 34.9646 	 14.267 	 75.6777
| 23> S 	 41.053 	 15.1561 	 81.1161
| 24> C 	 41.2088 	 15.3958 	 82.8502
| 25> C 	 40.1869 	 16.0642 	 83.4022
| 26> C 	 39.2627 	 16.4817 	 82.4025
| 27> C 	 39.6055 	 16.0772 	 81.1528
| 28> H 	 40.1257 	 16.269 	 84.4659
| 29> C 	 38.001 	 17.2535 	 82.6229
| 30> H 	 37.2444 	 16.8493 	 81.9487
| 31> H 	 38.2198 	 18.2742 	 82.3248
| 32> C 	 37.5239 	 17.3553 	 84.0732
| 33> H 	 38.2502 	 17.7455 	 84.7504
| 34> H 	 37.3682 	 16.3492 	 84.383
| 35> C 	 36.1925 	 18.1094 	 84.1457
| 36> H 	 35.6899 	 18.0764 	 85.0876
| 37> H 	 35.5386 	 17.6508 	 83.4422
| 38> H 	 36.2405 	 19.1451 	 83.8894
| 39> H 	 38.8869 	 16.5374 	 76.2648
| 40> H 	 42.1157 	 14.9664 	 83.3595
| 41> *
| 42>
| 43>                          ****END OF INPUT****

CARTESIAN COORDINATES (ANGSTROEM)
---------------------------------
  S     40.114300   16.724900   78.455400
  C     38.823500   16.589400   77.355500
  C     37.649900   16.272600   78.005900
  C     37.804600   16.304100   79.416000
  C     39.070100   16.475800   79.894700
  H     37.019600   16.160900   80.115300
  C     36.294800   16.011400   77.451200
  H     36.115200   16.339000   76.456900
  H     35.663600   16.735800   77.914300
  C     35.765300   14.589300   77.641400
  H     36.619300   13.965900   77.374800
  H     35.582200   14.336800   78.673100
  C     34.573800   14.248500   76.730900
  H     34.212400   13.205600   77.005400
  H     33.734800   14.924600   76.643200
  H     34.964600   14.267000   75.677700
  S     41.053000   15.156100   81.116100
  C     41.208800   15.395800   82.850200
  C     40.186900   16.064200   83.402200
  C     39.262700   16.481700   82.402500
  C     39.605500   16.077200   81.152800
  H     40.125700   16.269000   84.465900
  C     38.001000   17.253500   82.622900
  H     37.244400   16.849300   81.948700
  H     38.219800   18.274200   82.324800
  C     37.523900   17.355300   84.073200
  H     38.250200   17.745500   84.750400
  H     37.368200   16.349200   84.383000
  C     36.192500   18.109400   84.145700
  H     35.689900   18.076400   85.087600
  H     35.538600   17.650800   83.442200
  H     36.240500   19.145100   83.889400
  H     38.886900   16.537400   76.264800
  H     42.115700   14.966400   83.359500

 Total Charge           Charge          ....    0
 Multiplicity           Mult            ....    1
 Number of Electrons    NEL             ....  134
 Basis Dimension        Dim             ....  322

ORBITAL ENERGIES
----------------

  NO   OCC          E(Eh)            E(eV)
   0   2.0000     -88.962757     -2420.7997
   1   2.0000     -88.962028     -2420.7798
   2   2.0000     -10.325114      -280.9606
   3   2.0000     -10.315668      -280.7036
   4   2.0000     -10.314131      -280.6618
   5   2.0000     -10.311979      -280.6032
   6   2.0000     -10.296031      -280.1692
   7   2.0000     -10.293998      -280.1139
   8   2.0000     -10.291571      -280.0479
   9   2.0000     -10.287557      -279.9387
  10   2.0000     -10.287391      -279.9341
  11   2.0000     -10.286771      -279.9173
  12   2.0000     -10.285829      -279.8916
  13   2.0000     -10.282420      -279.7989
  14   2.0000     -10.282230      -279.7937
  15   2.0000     -10.271079      -279.4903
  16   2.0000      -8.077761      -219.8071
  17   2.0000      -8.077726      -219.8061
  18   2.0000      -6.036301      -164.2561
  19   2.0000      -6.036126      -164.2513
  20   2.0000      -6.032263      -164.1462
  21   2.0000      -6.032122      -164.1424
  22   2.0000      -6.028518      -164.0443
  23   2.0000      -6.028393      -164.0409
  24   2.0000      -1.016245       -27.6534
  25   2.0000      -0.990743       -26.9595
  26   2.0000      -0.916017       -24.9261
  27   2.0000      -0.914128       -24.8747
  28   2.0000      -0.878805       -23.9135
  29   2.0000      -0.856932       -23.3183
  30   2.0000      -0.846986       -23.0477
  31   2.0000      -0.819906       -22.3108
  32   2.0000      -0.782213       -21.2851
  33   2.0000      -0.770804       -20.9747
  34   2.0000      -0.715223       -19.4622
  35   2.0000      -0.706725       -19.2310
  36   2.0000      -0.699067       -19.0226
  37   2.0000      -0.659709       -17.9516
  38   2.0000      -0.642984       -17.4965
  39   2.0000      -0.626836       -17.0571
  40   2.0000      -0.602380       -16.3916
  41   2.0000      -0.577222       -15.7070
  42   2.0000      -0.568963       -15.4823
  43   2.0000      -0.558657       -15.2018
  44   2.0000      -0.532351       -14.4860
  45   2.0000      -0.524201       -14.2642
  46   2.0000      -0.519240       -14.1292
  47   2.0000      -0.515256       -14.0208
  48   2.0000      -0.505966       -13.7680
  49   2.0000      -0.500229       -13.6119
  50   2.0000      -0.492226       -13.3941
  51   2.0000      -0.478221       -13.0130
  52   2.0000      -0.473120       -12.8743
  53   2.0000      -0.469472       -12.7750
  54   2.0000      -0.460258       -12.5243
  55   2.0000      -0.453466       -12.3394
  56   2.0000      -0.445927       -12.1343
  57   2.0000      -0.443127       -12.0581
  58   2.0000      -0.436185       -11.8692
  59   2.0000      -0.426608       -11.6086
  60   2.0000      -0.423896       -11.5348
  61   2.0000      -0.414697       -11.2845
  62   2.0000      -0.410571       -11.1722
  63   2.0000      -0.358117        -9.7448
  64   2.0000      -0.333276        -9.0689
  65   2.0000      -0.324939        -8.8420
  66   2.0000      -0.285901        -7.7798
  67   0.0000       0.029332         0.7982
  68   0.0000       0.075080         2.0430
  69   0.0000       0.113941         3.1005
  70   0.0000       0.124059         3.3758
  71   0.0000       0.141148         3.8408

MULLIKEN ATOMIC CHARGES
-----------------------
   0 S :    0.098064
   1 C :   -0.105790
   2 C :   -0.093331
   3 C :    0.014628
   4 C :   -0.126089
   5 H :    0.001578
   6 C :    0.092418
   7 H :   -0.010108
   8 H :    0.015383
   9 C :   -0.060866
  10 H :    0.032061
  11 H :    0.027123
  12 C :   -0.075083
  13 H :    0.049614
  14 H :    0.032876
  15 H :    0.032975
  16 S :    0.102504
  17 C :   -0.115438
  18 C :   -0.015102
  19 C :   -0.067619
  20 C :   -0.143901
  21 H :    0.020512
  22 C :    0.078412
  23 H :    0.021700
  24 H :    0.032698
  25 C :   -0.070036
  26 H :    0.028548
  27 H :    0.017251
  28 C :    0.002372
  29 H :    0.024967
  30 H :    0.011163
  31 H :    0.022965
  32 H :    0.052838
  33 H :    0.070711
Sum of atomic charges:   -0.0000000

LOEWDIN ATOMIC CHARGES
----------------------
   0 S :    0.402098
   1 C :   -0.210571
   2 C :   -0.068216
   3 C :   -0.054474
   4 C :   -0.178902
   5 H :    0.020978
   6 C :   -0.037132
   7 H :    0.023241
   8 H :    0.030641
   9 C :   -0.039216
  10 H :    0.029276
  11 H :    0.019224
  12 C :   -0.073077
  13 H :    0.035993
  14 H :    0.021067
  15 H :    0.030422
  16 S :    0.410520
  17 C :   -0.181479
  18 C :   -0.074268
  19 C :   -0.058171
  20 C :   -0.209706
  21 H :    0.036379
  22 C :   -0.029164
  23 H :    0.030078
  24 H :    0.036511
  25 C :   -0.034739
  26 H :    0.019231
  27 H :    0.020177
  28 C :   -0.056313
  29 H :    0.023750
  30 H :    0.021614
  31 H :    0.022368
  32 H :    0.035944
  33 H :    0.035915

  Mayer bond orders larger than 0.100000
B(  0-S ,  1-C ) :   1.1473 B(  0-S ,  4-C ) :   1.1271 B(  1-C ,  2-C ) :   1.5976
B(  1-C , 32-H ) :   0.9622 B(  2-C ,  3-C ) :   1.2637 B(  2-C ,  6-C ) :   1.0334
B(  3-C ,  4-C ) :   1.5576 B(  3-C ,  5-H ) :   0.9895 B(  4-C , 20-C ) :   1.0732
B(  6-C ,  7-H ) :   0.9400 B(  6-C ,  8-H ) :   0.9272 B(  6-C ,  9-C ) :   1.0470
B(  9-C , 10-H ) :   0.9569 B(  9-C , 11-H ) :   0.9563 B(  9-C , 12-C ) :   1.0780
B( 12-C , 13-H ) :   0.9744 B( 12-C , 14-H ) :   0.9779 B( 12-C , 15-H ) :   0.9741
B( 16-S , 17-C ) :   1.1537 B( 16-S , 20-C ) :   1.1278 B( 17-C , 18-C ) :   1.6066
B( 17-C , 33-H ) :   0.9579 B( 18-C , 19-C ) :   1.2376 B( 18-C , 21-H ) :   0.9961
B( 19-C , 20-C ) :   1.6199 B( 19-C , 22-C ) :   1.0343 B( 22-C , 23-H ) :   0.9367
B( 22-C , 24-H ) :   0.9053 B( 22-C , 25-C ) :   1.0861 B( 25-C , 26-H ) :   0.9473
B( 25-C , 27-H ) :   0.9537 B( 25-C , 28-C ) :   1.0873 B( 28-C , 29-H ) :   0.9720
B( 28-C , 30-H ) :   0.9712 B( 28-C , 31-H ) :   0.9741

Dispersion correction           -0.013522752
FINAL SINGLE POINT ENERGY     -1339.874960853806

DIPOLE MOMENT
-------------
                                X             Y             Z
Electronic contribution:     28.40916      -0.97211      -3.46475
Nuclear contribution   :    -29.01751       0.96074       3.67838
                        -----------------------------------------
Total Dipole Moment    :     -0.60836      -0.01137       0.21363
                        -----------------------------------------
Magnitude (a.u.)       :      0.64488
Magnitude (Debye)      :      1.63914

Rotational constants in cm-1:     0.016816     0.008638     0.006538
Rotational constants in MHz :   504.123688   258.968723   196.010454

                             ****ORCA TERMINATED NORMALLY****
TOTAL RUN TIME: 0 days 0 hours 0 minutes 28 seconds 438 msec
