                         Program Version 4.2.1 -  RELEASE  -
|  1> ! wB97X-D3 SP def2-SVP
|  2> %pal
|  3> nprocs 16
|  4> end
|  5>
|  6> * xyz 0 1
|  7> S 	 7.23104 	 -11.4745 	 64.0935
|  8> C 	 7.26177 	 -10.3731 	 62.7869
|  9> C 	 7.04168 	 -9.07665 	 63.1396
| 10> C 	 6.85472 	 -8.97348 	 64.5233
| 11> C 	 6.94345 	 -10.1368 	 65.1901
| 12> H 	 6.72016 	 -8.03354 	 65.0315
| 13> C 	 7.19309 	 -7.78484 	 62.3226
| 14> H 	 6.8882 	 -6.96191 	 62.9351
| 15> H 	 6.45962 	 -7.76942 	 61.512
| 16> C 	 8.59472 	 -7.66799 	 61.8607
| 17> H 	 8.92889 	 -8.59684 	 61.4683
| 18> H 	 8.68106 	 -7.00135 	 61.0004
| 19> C 	 9.63559 	 -7.15134 	 62.8503
| 20> H 	 10.0918 	 -8.02947 	 63.3467
| 21> H 	 10.4251 	 -6.67852 	 62.3602
| 22> H 	 9.21285 	 -6.49729 	 63.6362
| 23> S 	 7.12726 	 -9.03046 	 67.6469
| 24> C 	 6.62446 	 -9.90672 	 69.0849
| 25> C 	 6.11044 	 -11.1236 	 68.7585
| 26> C 	 6.182 	 -11.4151 	 67.3677
| 27> C 	 6.72183 	 -10.3332 	 66.6177
| 28> H 	 5.63309 	 -11.7209 	 69.502
| 29> C 	 5.53922 	 -12.7285 	 66.8727
| 30> H 	 5.30394 	 -12.5313 	 65.8286
| 31> H 	 4.65886 	 -13.0726 	 67.4627
| 32> C 	 6.49178 	 -13.9141 	 66.7908
| 33> H 	 6.83347 	 -14.3343 	 67.7108
| 34> H 	 7.35186 	 -13.595 	 66.2174
| 35> C 	 5.93467 	 -15.0673 	 66.0003
| 36> H 	 5.24619 	 -15.6433 	 66.5672
| 37> H 	 6.72531 	 -15.8043 	 65.8454
| 38> H 	 5.68417 	 -14.7567 	 65.0755
| 39> H 	 7.643 	 -10.6465 	 61.756
| 40> H 	 6.66552 	 -9.60441 	 70.1022
| 41> *
| 42>
| 43>                          ****END OF INPUT****

CARTESIAN COORDINATES (ANGSTROEM)
---------------------------------
  S      7.231040  -11.474500   64.093500
  C      7.261770  -10.373100   62.786900
  C      7.041680   -9.076650   63.139600
  C      6.854720   -8.973480   64.523300
  C      6.943450  -10.136800   65.190100
  H      6.720160   -8.033540   65.031500
  C      7.193090   -7.784840   62.322600
  H      6.888200   -6.961910   62.935100
  H      6.459620   -7.769420   61.512000
  C      8.594720   -7.667990   61.860700
  H      8.928890   -8.596840   61.468300
  H      8.681060   -7.001350   61.000400
  C      9.635590   -7.151340   62.850300
  H     10.091800   -8.029470   63.346700
  H     10.425100   -6.678520   62.360200
  H      9.212850   -6.497290   63.636200
  S      7.127260   -9.030460   67.646900
  C      6.624460   -9.906720   69.084900
  C      6.110440  -11.123600   68.758500
  C      6.182000  -11.415100   67.367700
  C      6.721830  -10.333200   66.617700
  H      5.633090  -11.720900   69.502000
  C      5.539220  -12.728500   66.872700
  H      5.303940  -12.531300   65.828600
  H      4.658860  -13.072600   67.462700
  C      6.491780  -13.914100   66.790800
  H      6.833470  -14.334300   67.710800
  H      7.351860  -13.595000   66.217400
  C      5.934670  -15.067300   66.000300
  H      5.246190  -15.643300   66.567200
  H      6.725310  -15.804300   65.845400
  H      5.684170  -14.756700   65.075500
  H      7.643000  -10.646500   61.756000
  H      6.665520   -9.604410   70.102200

 Total Charge           Charge          ....    0
 Multiplicity           Mult            ....    1
 Number of Electrons    NEL             ....  134
 Basis Dimension        Dim             ....  322

ORBITAL ENERGIES
----------------

  NO   OCC          E(Eh)            E(eV)
   0   2.0000     -88.971793     -2421.0456
   1   2.0000     -88.967210     -2420.9209
   2   2.0000     -10.328615      -281.0559
   3   2.0000     -10.326813      -281.0069
   4   2.0000     -10.313664      -280.6491
   5   2.0000     -10.310589      -280.5654
   6   2.0000     -10.303649      -280.3765
   7   2.0000     -10.295312      -280.1497
   8   2.0000     -10.290823      -280.0275
   9   2.0000     -10.290299      -280.0133
  10   2.0000     -10.286366      -279.9062
  11   2.0000     -10.284759      -279.8625
  12   2.0000     -10.278550      -279.6936
  13   2.0000     -10.272669      -279.5335
  14   2.0000     -10.272235      -279.5217
  15   2.0000     -10.258884      -279.1584
  16   2.0000      -8.086567      -220.0467
  17   2.0000      -8.082224      -219.9285
  18   2.0000      -6.045064      -164.4946
  19   2.0000      -6.041132      -164.3876
  20   2.0000      -6.040787      -164.3782
  21   2.0000      -6.037313      -164.2836
  22   2.0000      -6.036694      -164.2668
  23   2.0000      -6.032933      -164.1645
  24   2.0000      -1.016503       -27.6604
  25   2.0000      -0.991284       -26.9742
  26   2.0000      -0.920336       -25.0436
  27   2.0000      -0.911716       -24.8091
  28   2.0000      -0.875827       -23.8325
  29   2.0000      -0.857333       -23.3292
  30   2.0000      -0.848330       -23.0842
  31   2.0000      -0.816835       -22.2272
  32   2.0000      -0.788566       -21.4580
  33   2.0000      -0.771847       -21.0030
  34   2.0000      -0.709323       -19.3016
  35   2.0000      -0.700069       -19.0499
  36   2.0000      -0.688025       -18.7221
  37   2.0000      -0.667542       -18.1647
  38   2.0000      -0.638121       -17.3642
  39   2.0000      -0.618781       -16.8379
  40   2.0000      -0.596465       -16.2306
  41   2.0000      -0.580842       -15.8055
  42   2.0000      -0.578077       -15.7303
  43   2.0000      -0.560496       -15.2519
  44   2.0000      -0.540687       -14.7128
  45   2.0000      -0.524325       -14.2676
  46   2.0000      -0.513544       -13.9742
  47   2.0000      -0.511892       -13.9293
  48   2.0000      -0.510287       -13.8856
  49   2.0000      -0.497191       -13.5292
  50   2.0000      -0.487147       -13.2559
  51   2.0000      -0.481094       -13.0912
  52   2.0000      -0.477717       -12.9993
  53   2.0000      -0.470089       -12.7918
  54   2.0000      -0.462623       -12.5886
  55   2.0000      -0.451111       -12.2754
  56   2.0000      -0.448228       -12.1969
  57   2.0000      -0.442561       -12.0427
  58   2.0000      -0.431295       -11.7361
  59   2.0000      -0.426164       -11.5965
  60   2.0000      -0.414838       -11.2883
  61   2.0000      -0.412610       -11.2277
  62   2.0000      -0.405555       -11.0357
  63   2.0000      -0.364103        -9.9077
  64   2.0000      -0.337776        -9.1913
  65   2.0000      -0.329803        -8.9744
  66   2.0000      -0.282908        -7.6983
  67   0.0000       0.026587         0.7235
  68   0.0000       0.082719         2.2509
  69   0.0000       0.103537         2.8174
  70   0.0000       0.119003         3.2382
  71   0.0000       0.142546         3.8789

MULLIKEN ATOMIC CHARGES
-----------------------
   0 S :    0.113329
   1 C :   -0.154656
   2 C :   -0.082413
   3 C :   -0.023491
   4 C :   -0.098222
   5 H :    0.009270
   6 C :    0.123301
   7 H :    0.008545
   8 H :    0.029673
   9 C :   -0.065148
  10 H :    0.008679
  11 H :    0.018355
  12 C :   -0.035082
  13 H :    0.036950
  14 H :    0.022124
  15 H :    0.032615
  16 S :    0.100350
  17 C :   -0.068812
  18 C :   -0.027809
  19 C :   -0.045525
  20 C :   -0.134242
  21 H :    0.009302
  22 C :    0.062278
  23 H :    0.010060
  24 H :    0.034794
  25 C :   -0.073896
  26 H :    0.015137
  27 H :    0.013441
  28 C :    0.018671
  29 H :    0.017809
  30 H :    0.015919
  31 H :    0.003363
  32 H :    0.064931
  33 H :    0.040400
Sum of atomic charges:   -0.0000000

LOEWDIN ATOMIC CHARGES
----------------------
   0 S :    0.431535
   1 C :   -0.218932
   2 C :   -0.061876
   3 C :   -0.071571
   4 C :   -0.185064
   5 H :    0.026021
   6 C :   -0.021313
   7 H :    0.025144
   8 H :    0.034668
   9 C :   -0.042599
  10 H :    0.018612
  11 H :    0.022377
  12 C :   -0.059797
  13 H :    0.031711
  14 H :    0.018420
  15 H :    0.027024
  16 S :    0.427388
  17 C :   -0.184085
  18 C :   -0.064968
  19 C :   -0.060394
  20 C :   -0.205577
  21 H :    0.029226
  22 C :   -0.033005
  23 H :    0.019941
  24 H :    0.034746
  25 C :   -0.039517
  26 H :    0.016428
  27 H :    0.015325
  28 C :   -0.050108
  29 H :    0.019426
  30 H :    0.029976
  31 H :    0.007333
  32 H :    0.037698
  33 H :    0.025808

  Mayer bond orders larger than 0.100000
B(  0-S ,  1-C ) :   1.1470 B(  0-S ,  4-C ) :   1.1394 B(  1-C ,  2-C ) :   1.6226
B(  1-C , 32-H ) :   0.9499 B(  2-C ,  3-C ) :   1.2713 B(  2-C ,  6-C ) :   1.0092
B(  3-C ,  4-C ) :   1.5678 B(  3-C ,  5-H ) :   0.9886 B(  4-C , 20-C ) :   1.0516
B(  6-C ,  7-H ) :   0.9437 B(  6-C ,  8-H ) :   0.9283 B(  6-C ,  9-C ) :   1.0827
B(  9-C , 10-H ) :   0.9570 B(  9-C , 11-H ) :   0.9554 B(  9-C , 12-C ) :   1.0716
B( 12-C , 13-H ) :   0.9757 B( 12-C , 14-H ) :   0.9762 B( 12-C , 15-H ) :   0.9770
B( 16-S , 17-C ) :   1.1425 B( 16-S , 20-C ) :   1.1604 B( 17-C , 18-C ) :   1.6128
B( 17-C , 33-H ) :   0.9701 B( 18-C , 19-C ) :   1.2619 B( 18-C , 21-H ) :   0.9931
B( 19-C , 20-C ) :   1.5421 B( 19-C , 22-C ) :   1.0410 B( 22-C , 23-H ) :   0.9240
B( 22-C , 24-H ) :   0.9429 B( 22-C , 25-C ) :   1.0715 B( 25-C , 26-H ) :   0.9539
B( 25-C , 27-H ) :   0.9499 B( 25-C , 28-C ) :   1.1033 B( 28-C , 29-H ) :   0.9720
B( 28-C , 30-H ) :   0.9675 B( 28-C , 31-H ) :   0.9704

Dispersion correction           -0.014428611
FINAL SINGLE POINT ENERGY     -1339.872987009617

DIPOLE MOMENT
-------------
                                X             Y             Z
Electronic contribution:     -2.65843       4.21728       9.31918
Nuclear contribution   :      2.66493      -4.15100      -9.46259
                        -----------------------------------------
Total Dipole Moment    :      0.00650       0.06628      -0.14342
                        -----------------------------------------
Magnitude (a.u.)       :      0.15812
Magnitude (Debye)      :      0.40192

Rotational constants in cm-1:     0.021107     0.008848     0.006618
Rotational constants in MHz :   632.767027   265.255317   198.391515

                             ****ORCA TERMINATED NORMALLY****
TOTAL RUN TIME: 0 days 0 hours 0 minutes 30 seconds 30 msec
