                         Program Version 4.2.1 -  RELEASE  -
|  1> ! wB97X-D3 SP def2-SVP
|  2> %pal
|  3> nprocs 16
|  4> end
|  5>
|  6> * xyz 0 1
|  7> S 	 35.5839 	 -5.39127 	 70.4178
|  8> C 	 36.414 	 -3.95067 	 70.9318
|  9> C 	 37.7673 	 -3.98387 	 70.5202
| 10> C 	 38.0373 	 -5.18879 	 69.7528
| 11> C 	 36.9675 	 -6.07966 	 69.632
| 12> H 	 38.9789 	 -5.50069 	 69.3536
| 13> C 	 38.685 	 -2.83702 	 70.7209
| 14> H 	 38.4754 	 -2.51262 	 71.7585
| 15> H 	 38.2856 	 -2.05024 	 70.0743
| 16> C 	 40.2045 	 -3.22698 	 70.5395
| 17> H 	 40.4661 	 -3.99257 	 71.2046
| 18> H 	 40.3538 	 -3.84717 	 69.668
| 19> C 	 41.171 	 -2.01418 	 70.7815
| 20> H 	 42.1521 	 -2.4318 	 70.9964
| 21> H 	 41.1101 	 -1.17963 	 70.0038
| 22> H 	 41.0576 	 -1.46899 	 71.7572
| 23> S 	 36.4499 	 -8.63971 	 70.1653
| 24> C 	 36.8795 	 -9.86701 	 69.0368
| 25> C 	 37.5683 	 -9.40049 	 67.9337
| 26> C 	 37.6989 	 -7.95453 	 67.9702
| 27> C 	 37.0388 	 -7.41221 	 69.0907
| 28> H 	 37.9404 	 -10.1592 	 67.2351
| 29> C 	 38.4589 	 -7.1955 	 66.877
| 30> H 	 39.2062 	 -7.89664 	 66.3321
| 31> H 	 39.0673 	 -6.35923 	 67.3156
| 32> C 	 37.5879 	 -6.71926 	 65.798
| 33> H 	 36.8188 	 -6.1696 	 66.3273
| 34> H 	 37.1133 	 -7.59078 	 65.3119
| 35> C 	 38.1703 	 -5.765 	 64.7922
| 36> H 	 38.4773 	 -4.87473 	 65.3396
| 37> H 	 37.398 	 -5.62944 	 63.9992
| 38> H 	 39.0505 	 -6.10887 	 64.2238
| 39> H 	 35.8245 	 -3.15942 	 71.3753
| 40> H 	 36.5839 	 -10.9426 	 69.2011
| 41> *
| 42>
| 43>                          ****END OF INPUT****

CARTESIAN COORDINATES (ANGSTROEM)
---------------------------------
  S     35.583900   -5.391270   70.417800
  C     36.414000   -3.950670   70.931800
  C     37.767300   -3.983870   70.520200
  C     38.037300   -5.188790   69.752800
  C     36.967500   -6.079660   69.632000
  H     38.978900   -5.500690   69.353600
  C     38.685000   -2.837020   70.720900
  H     38.475400   -2.512620   71.758500
  H     38.285600   -2.050240   70.074300
  C     40.204500   -3.226980   70.539500
  H     40.466100   -3.992570   71.204600
  H     40.353800   -3.847170   69.668000
  C     41.171000   -2.014180   70.781500
  H     42.152100   -2.431800   70.996400
  H     41.110100   -1.179630   70.003800
  H     41.057600   -1.468990   71.757200
  S     36.449900   -8.639710   70.165300
  C     36.879500   -9.867010   69.036800
  C     37.568300   -9.400490   67.933700
  C     37.698900   -7.954530   67.970200
  C     37.038800   -7.412210   69.090700
  H     37.940400  -10.159200   67.235100
  C     38.458900   -7.195500   66.877000
  H     39.206200   -7.896640   66.332100
  H     39.067300   -6.359230   67.315600
  C     37.587900   -6.719260   65.798000
  H     36.818800   -6.169600   66.327300
  H     37.113300   -7.590780   65.311900
  C     38.170300   -5.765000   64.792200
  H     38.477300   -4.874730   65.339600
  H     37.398000   -5.629440   63.999200
  H     39.050500   -6.108870   64.223800
  H     35.824500   -3.159420   71.375300
  H     36.583900  -10.942600   69.201100

 Total Charge           Charge          ....    0
 Multiplicity           Mult            ....    1
 Number of Electrons    NEL             ....  134
 Basis Dimension        Dim             ....  322

ORBITAL ENERGIES
----------------

  NO   OCC          E(Eh)            E(eV)
   0   2.0000     -88.965763     -2420.8815
   1   2.0000     -88.965084     -2420.8630
   2   2.0000     -10.327935      -281.0374
   3   2.0000     -10.327522      -281.0262
   4   2.0000     -10.317482      -280.7530
   5   2.0000     -10.315094      -280.6880
   6   2.0000     -10.311575      -280.5922
   7   2.0000     -10.307043      -280.4689
   8   2.0000     -10.298487      -280.2361
   9   2.0000     -10.297909      -280.2204
  10   2.0000     -10.295766      -280.1620
  11   2.0000     -10.294910      -280.1387
  12   2.0000     -10.292070      -280.0615
  13   2.0000     -10.291687      -280.0510
  14   2.0000     -10.278257      -279.6856
  15   2.0000     -10.275691      -279.6158
  16   2.0000      -8.081481      -219.9083
  17   2.0000      -8.080148      -219.8720
  18   2.0000      -6.039919      -164.3546
  19   2.0000      -6.038554      -164.3174
  20   2.0000      -6.035829      -164.2433
  21   2.0000      -6.034386      -164.2040
  22   2.0000      -6.032262      -164.1462
  23   2.0000      -6.031232      -164.1182
  24   2.0000      -1.008593       -27.4452
  25   2.0000      -0.983085       -26.7511
  26   2.0000      -0.918173       -24.9848
  27   2.0000      -0.909418       -24.7465
  28   2.0000      -0.870129       -23.6774
  29   2.0000      -0.851824       -23.1793
  30   2.0000      -0.843139       -22.9430
  31   2.0000      -0.814301       -22.1583
  32   2.0000      -0.781908       -21.2768
  33   2.0000      -0.767810       -20.8932
  34   2.0000      -0.722119       -19.6498
  35   2.0000      -0.694588       -18.9007
  36   2.0000      -0.682323       -18.5670
  37   2.0000      -0.661182       -17.9917
  38   2.0000      -0.641385       -17.4530
  39   2.0000      -0.618563       -16.8319
  40   2.0000      -0.595230       -16.1970
  41   2.0000      -0.572616       -15.5817
  42   2.0000      -0.563114       -15.3231
  43   2.0000      -0.556255       -15.1365
  44   2.0000      -0.530817       -14.4443
  45   2.0000      -0.523572       -14.2471
  46   2.0000      -0.512203       -13.9377
  47   2.0000      -0.509866       -13.8742
  48   2.0000      -0.504820       -13.7369
  49   2.0000      -0.500651       -13.6234
  50   2.0000      -0.497160       -13.5284
  51   2.0000      -0.478847       -13.0301
  52   2.0000      -0.472944       -12.8695
  53   2.0000      -0.465865       -12.6768
  54   2.0000      -0.453101       -12.3295
  55   2.0000      -0.452336       -12.3087
  56   2.0000      -0.448495       -12.2042
  57   2.0000      -0.442384       -12.0379
  58   2.0000      -0.434195       -11.8150
  59   2.0000      -0.424070       -11.5395
  60   2.0000      -0.420664       -11.4469
  61   2.0000      -0.406084       -11.0501
  62   2.0000      -0.403540       -10.9809
  63   2.0000      -0.349466        -9.5094
  64   2.0000      -0.331943        -9.0326
  65   2.0000      -0.325536        -8.8583
  66   2.0000      -0.287476        -7.8226
  67   0.0000       0.027334         0.7438
  68   0.0000       0.072495         1.9727
  69   0.0000       0.107887         2.9358
  70   0.0000       0.121223         3.2986
  71   0.0000       0.138914         3.7800

MULLIKEN ATOMIC CHARGES
-----------------------
   0 S :    0.111174
   1 C :   -0.143831
   2 C :   -0.090075
   3 C :    0.011045
   4 C :   -0.144544
   5 H :    0.001540
   6 C :    0.067694
   7 H :    0.034803
   8 H :    0.051141
   9 C :   -0.064572
  10 H :    0.011608
  11 H :    0.027178
  12 C :   -0.056656
  13 H :    0.030209
  14 H :    0.054052
  15 H :    0.030185
  16 S :    0.118051
  17 C :   -0.119617
  18 C :   -0.043323
  19 C :   -0.023184
  20 C :   -0.155945
  21 H :    0.030858
  22 C :    0.032659
  23 H :    0.028567
  24 H :    0.022320
  25 C :   -0.073955
  26 H :    0.026291
  27 H :    0.025351
  28 C :   -0.031926
  29 H :    0.034776
  30 H :    0.043220
  31 H :    0.023781
  32 H :    0.056420
  33 H :    0.074705
Sum of atomic charges:   -0.0000000

LOEWDIN ATOMIC CHARGES
----------------------
   0 S :    0.420002
   1 C :   -0.207723
   2 C :   -0.058790
   3 C :   -0.069733
   4 C :   -0.209746
   5 H :    0.020976
   6 C :   -0.035179
   7 H :    0.037930
   8 H :    0.038578
   9 C :   -0.041655
  10 H :    0.022997
  11 H :    0.024558
  12 C :   -0.076950
  13 H :    0.027662
  14 H :    0.033898
  15 H :    0.031722
  16 S :    0.429084
  17 C :   -0.203686
  18 C :   -0.075141
  19 C :   -0.050394
  20 C :   -0.204311
  21 H :    0.038909
  22 C :   -0.039888
  23 H :    0.036112
  24 H :    0.028348
  25 C :   -0.052460
  26 H :    0.026259
  27 H :    0.025584
  28 C :   -0.066536
  29 H :    0.026801
  30 H :    0.035448
  31 H :    0.021875
  32 H :    0.027269
  33 H :    0.038180

  Mayer bond orders larger than 0.100000
B(  0-S ,  1-C ) :   1.1548 B(  0-S ,  4-C ) :   1.1691 B(  1-C ,  2-C ) :   1.5551
B(  1-C ,  4-C ) :   0.1059 B(  1-C , 32-H ) :   0.9779 B(  2-C ,  3-C ) :   1.2669
B(  2-C ,  6-C ) :   1.0153 B(  3-C ,  4-C ) :   1.5375 B(  3-C ,  5-H ) :   0.9896
B(  4-C , 20-C ) :   1.0512 B(  6-C ,  7-H ) :   0.9390 B(  6-C ,  8-H ) :   0.9404
B(  6-C ,  9-C ) :   1.0619 B(  9-C , 10-H ) :   0.9542 B(  9-C , 11-H ) :   0.9505
B(  9-C , 12-C ) :   1.0741 B( 12-C , 13-H ) :   0.9732 B( 12-C , 14-H ) :   0.9774
B( 12-C , 15-H ) :   0.9725 B( 16-S , 17-C ) :   1.1628 B( 16-S , 20-C ) :   1.1611
B( 17-C , 18-C ) :   1.6171 B( 17-C , 33-H ) :   0.9584 B( 18-C , 19-C ) :   1.2300
B( 18-C , 21-H ) :   0.9904 B( 19-C , 20-C ) :   1.5791 B( 19-C , 22-C ) :   1.0397
B( 22-C , 23-H ) :   0.9319 B( 22-C , 24-H ) :   0.9333 B( 22-C , 25-C ) :   1.0796
B( 25-C , 26-H ) :   0.9512 B( 25-C , 27-H ) :   0.9478 B( 25-C , 28-C ) :   1.0886
B( 28-C , 29-H ) :   0.9709 B( 28-C , 30-H ) :   0.9712 B( 28-C , 31-H ) :   0.9727

Dispersion correction           -0.013758963
FINAL SINGLE POINT ENERGY     -1339.868549758015

DIPOLE MOMENT
-------------
                                X             Y             Z
Electronic contribution:    -20.15961     -16.34056      13.31128
Nuclear contribution   :     20.63556      16.52997     -13.48968
                        -----------------------------------------
Total Dipole Moment    :      0.47595       0.18941      -0.17840
                        -----------------------------------------
Magnitude (a.u.)       :      0.54243
Magnitude (Debye)      :      1.37874

Rotational constants in cm-1:     0.016399     0.008805     0.006957
Rotational constants in MHz :   491.635363   263.971815   208.577275

                             ****ORCA TERMINATED NORMALLY****
TOTAL RUN TIME: 0 days 0 hours 0 minutes 29 seconds 703 msec
