                         Program Version 4.2.1 -  RELEASE  -
|  1> ! wB97X-D3 SP def2-SVP
|  2> %pal
|  3> nprocs 16
|  4> end
|  5>
|  6> * xyz 0 1
|  7> S 	 -75.0439 	 35.1521 	 119.09
|  8> C 	 -73.827 	 34.8305 	 117.914
|  9> C 	 -72.5509 	 34.9196 	 118.434
| 10> C 	 -72.53 	 35.4607 	 119.7
| 11> C 	 -73.7426 	 35.7108 	 120.209
| 12> H 	 -71.572 	 35.5864 	 120.174
| 13> C 	 -71.2823 	 34.7296 	 117.651
| 14> H 	 -70.6199 	 35.6629 	 117.484
| 15> H 	 -71.5345 	 34.5248 	 116.614
| 16> C 	 -70.4205 	 33.5158 	 118.179
| 17> H 	 -69.446 	 33.4674 	 117.632
| 18> H 	 -70.1814 	 33.5891 	 119.244
| 19> C 	 -71.1609 	 32.1905 	 118.149
| 20> H 	 -70.6112 	 31.2647 	 117.954
| 21> H 	 -71.8831 	 32.0402 	 118.929
| 22> H 	 -72.0078 	 32.3379 	 117.552
| 23> S 	 -74.7517 	 37.9465 	 121.513
| 24> C 	 -74.7405 	 37.9574 	 123.245
| 25> C 	 -74.4572 	 36.6939 	 123.807
| 26> C 	 -73.8923 	 35.7931 	 122.824
| 27> C 	 -74.0345 	 36.3246 	 121.544
| 28> H 	 -74.6679 	 36.4847 	 124.872
| 29> C 	 -73.4289 	 34.3742 	 123.229
| 30> H 	 -73.6461 	 33.4972 	 122.524
| 31> H 	 -73.8878 	 33.9944 	 124.159
| 32> C 	 -71.9871 	 34.26 	 123.571
| 33> H 	 -71.8031 	 34.9921 	 124.303
| 34> H 	 -71.346 	 34.5679 	 122.842
| 35> C 	 -71.4109 	 32.9707 	 124.134
| 36> H 	 -71.3036 	 32.9713 	 125.245
| 37> H 	 -70.4521 	 32.7998 	 123.711
| 38> H 	 -72.0173 	 32.0972 	 123.754
| 39> H 	 -74.2576 	 34.5826 	 116.966
| 40> H 	 -75.1342 	 38.6749 	 123.92
| 41> *
| 42>
| 43>                          ****END OF INPUT****

CARTESIAN COORDINATES (ANGSTROEM)
---------------------------------
  S    -75.043900   35.152100  119.090000
  C    -73.827000   34.830500  117.914000
  C    -72.550900   34.919600  118.434000
  C    -72.530000   35.460700  119.700000
  C    -73.742600   35.710800  120.209000
  H    -71.572000   35.586400  120.174000
  C    -71.282300   34.729600  117.651000
  H    -70.619900   35.662900  117.484000
  H    -71.534500   34.524800  116.614000
  C    -70.420500   33.515800  118.179000
  H    -69.446000   33.467400  117.632000
  H    -70.181400   33.589100  119.244000
  C    -71.160900   32.190500  118.149000
  H    -70.611200   31.264700  117.954000
  H    -71.883100   32.040200  118.929000
  H    -72.007800   32.337900  117.552000
  S    -74.751700   37.946500  121.513000
  C    -74.740500   37.957400  123.245000
  C    -74.457200   36.693900  123.807000
  C    -73.892300   35.793100  122.824000
  C    -74.034500   36.324600  121.544000
  H    -74.667900   36.484700  124.872000
  C    -73.428900   34.374200  123.229000
  H    -73.646100   33.497200  122.524000
  H    -73.887800   33.994400  124.159000
  C    -71.987100   34.260000  123.571000
  H    -71.803100   34.992100  124.303000
  H    -71.346000   34.567900  122.842000
  C    -71.410900   32.970700  124.134000
  H    -71.303600   32.971300  125.245000
  H    -70.452100   32.799800  123.711000
  H    -72.017300   32.097200  123.754000
  H    -74.257600   34.582600  116.966000
  H    -75.134200   38.674900  123.920000

 Total Charge           Charge          ....    0
 Multiplicity           Mult            ....    1
 Number of Electrons    NEL             ....  134
 Basis Dimension        Dim             ....  322

ORBITAL ENERGIES
----------------

  NO   OCC          E(Eh)            E(eV)
   0   2.0000     -88.971742     -2421.0442
   1   2.0000     -88.965071     -2420.8627
   2   2.0000     -10.331329      -281.1298
   3   2.0000     -10.329415      -281.0777
   4   2.0000     -10.316429      -280.7243
   5   2.0000     -10.315102      -280.6882
   6   2.0000     -10.313136      -280.6347
   7   2.0000     -10.301003      -280.3045
   8   2.0000     -10.300106      -280.2801
   9   2.0000     -10.298207      -280.2284
  10   2.0000     -10.296615      -280.1852
  11   2.0000     -10.291400      -280.0432
  12   2.0000     -10.286037      -279.8973
  13   2.0000     -10.279307      -279.7142
  14   2.0000     -10.264920      -279.3227
  15   2.0000     -10.264779      -279.3188
  16   2.0000      -8.086030      -220.0321
  17   2.0000      -8.080123      -219.8713
  18   2.0000      -6.044504      -164.4793
  19   2.0000      -6.040729      -164.3766
  20   2.0000      -6.038475      -164.3153
  21   2.0000      -6.036724      -164.2676
  22   2.0000      -6.034733      -164.2134
  23   2.0000      -6.030883      -164.1087
  24   2.0000      -1.007744       -27.4221
  25   2.0000      -0.985858       -26.8266
  26   2.0000      -0.914930       -24.8965
  27   2.0000      -0.908075       -24.7100
  28   2.0000      -0.865098       -23.5405
  29   2.0000      -0.855369       -23.2758
  30   2.0000      -0.851735       -23.1769
  31   2.0000      -0.813574       -22.1385
  32   2.0000      -0.784913       -21.3586
  33   2.0000      -0.770951       -20.9786
  34   2.0000      -0.707490       -19.2518
  35   2.0000      -0.697965       -18.9926
  36   2.0000      -0.690458       -18.7883
  37   2.0000      -0.659770       -17.9533
  38   2.0000      -0.649855       -17.6834
  39   2.0000      -0.633400       -17.2357
  40   2.0000      -0.601078       -16.3562
  41   2.0000      -0.567913       -15.4537
  42   2.0000      -0.564161       -15.3516
  43   2.0000      -0.548208       -14.9175
  44   2.0000      -0.533279       -14.5113
  45   2.0000      -0.518140       -14.0993
  46   2.0000      -0.516708       -14.0603
  47   2.0000      -0.509869       -13.8742
  48   2.0000      -0.503663       -13.7054
  49   2.0000      -0.501422       -13.6444
  50   2.0000      -0.487797       -13.2736
  51   2.0000      -0.477823       -13.0022
  52   2.0000      -0.471142       -12.8204
  53   2.0000      -0.468349       -12.7444
  54   2.0000      -0.457732       -12.4555
  55   2.0000      -0.452703       -12.3187
  56   2.0000      -0.447100       -12.1662
  57   2.0000      -0.438464       -11.9312
  58   2.0000      -0.431003       -11.7282
  59   2.0000      -0.424966       -11.5639
  60   2.0000      -0.423023       -11.5110
  61   2.0000      -0.403470       -10.9790
  62   2.0000      -0.394756       -10.7418
  63   2.0000      -0.344983        -9.3875
  64   2.0000      -0.333687        -9.0801
  65   2.0000      -0.325643        -8.8612
  66   2.0000      -0.302849        -8.2410
  67   0.0000       0.035893         0.9767
  68   0.0000       0.056627         1.5409
  69   0.0000       0.103336         2.8119
  70   0.0000       0.113737         3.0949
  71   0.0000       0.128282         3.4907

MULLIKEN ATOMIC CHARGES
-----------------------
   0 S :    0.100912
   1 C :   -0.142474
   2 C :   -0.046405
   3 C :    0.058086
   4 C :   -0.142896
   5 H :    0.011389
   6 C :    0.020915
   7 H :    0.054396
   8 H :    0.018034
   9 C :   -0.091805
  10 H :    0.040931
  11 H :    0.032022
  12 C :   -0.016818
  13 H :    0.054371
  14 H :    0.013792
  15 H :   -0.015965
  16 S :    0.132722
  17 C :   -0.073201
  18 C :   -0.073820
  19 C :    0.022244
  20 C :   -0.199285
  21 H :    0.038605
  22 C :    0.058125
  23 H :    0.038671
  24 H :    0.017130
  25 C :   -0.041929
  26 H :   -0.000828
  27 H :   -0.008897
  28 C :   -0.045506
  29 H :    0.045302
  30 H :    0.021429
  31 H :    0.027745
  32 H :    0.048511
  33 H :    0.044499
Sum of atomic charges:    0.0000000

LOEWDIN ATOMIC CHARGES
----------------------
   0 S :    0.390227
   1 C :   -0.186700
   2 C :   -0.076865
   3 C :   -0.051393
   4 C :   -0.177539
   5 H :    0.036224
   6 C :   -0.037340
   7 H :    0.042375
   8 H :    0.027073
   9 C :   -0.044376
  10 H :    0.030162
  11 H :    0.021893
  12 C :   -0.086662
  13 H :    0.032067
  14 H :    0.032041
  15 H :    0.020897
  16 S :    0.416398
  17 C :   -0.194114
  18 C :   -0.068050
  19 C :   -0.046815
  20 C :   -0.192183
  21 H :    0.037108
  22 C :   -0.033894
  23 H :    0.035184
  24 H :    0.032783
  25 C :   -0.049632
  26 H :    0.019541
  27 H :    0.008094
  28 C :   -0.064202
  29 H :    0.030529
  30 H :    0.023894
  31 H :    0.029505
  32 H :    0.020312
  33 H :    0.023457

  Mayer bond orders larger than 0.100000
B(  0-S ,  1-C ) :   1.1614 B(  0-S ,  4-C ) :   1.1380 B(  1-C ,  2-C ) :   1.5595
B(  1-C , 32-H ) :   0.9773 B(  2-C ,  3-C ) :   1.2557 B(  2-C ,  6-C ) :   1.0283
B(  3-C ,  4-C ) :   1.5940 B(  3-C ,  5-H ) :   1.0022 B(  4-C , 20-C ) :   1.0023
B(  6-C ,  7-H ) :   0.9500 B(  6-C ,  8-H ) :   0.9431 B(  6-C ,  9-C ) :   1.0577
B(  9-C , 10-H ) :   0.9610 B(  9-C , 11-H ) :   0.9650 B(  9-C , 12-C ) :   1.0585
B( 12-C , 13-H ) :   0.9765 B( 12-C , 14-H ) :   0.9521 B( 12-C , 15-H ) :   0.9577
B( 16-S , 17-C ) :   1.1552 B( 16-S , 20-C ) :   1.1485 B( 17-C , 18-C ) :   1.6281
B( 17-C , 33-H ) :   0.9663 B( 18-C , 19-C ) :   1.2312 B( 18-C , 21-H ) :   0.9784
B( 19-C , 20-C ) :   1.6163 B( 19-C , 22-C ) :   1.0305 B( 22-C , 23-H ) :   0.9361
B( 22-C , 24-H ) :   0.9415 B( 22-C , 25-C ) :   1.0644 B( 25-C , 26-H ) :   0.9453
B( 25-C , 27-H ) :   0.9524 B( 25-C , 28-C ) :   1.0795 B( 28-C , 29-H ) :   0.9783
B( 28-C , 30-H ) :   0.9750 B( 28-C , 31-H ) :   0.9732

Dispersion correction           -0.014603927
FINAL SINGLE POINT ENERGY     -1339.833912724349

DIPOLE MOMENT
-------------
                                X             Y             Z
Electronic contribution:    -21.28346      20.98777      -3.93543
Nuclear contribution   :     21.58642     -21.22852       4.08322
                        -----------------------------------------
Total Dipole Moment    :      0.30296      -0.24074       0.14779
                        -----------------------------------------
Magnitude (a.u.)       :      0.41423
Magnitude (Debye)      :      1.05289

Rotational constants in cm-1:     0.016860     0.009859     0.007030
Rotational constants in MHz :   505.444232   295.578302   210.746433

                             ****ORCA TERMINATED NORMALLY****
TOTAL RUN TIME: 0 days 0 hours 0 minutes 34 seconds 410 msec
