                         Program Version 4.2.1 -  RELEASE  -
|  1> ! wB97X-D3 SP def2-SVP
|  2> %pal
|  3> nprocs 16
|  4> end
|  5>
|  6> * xyz 0 1
|  7> S 	 -56.3845 	 40.0848 	 112.474
|  8> C 	 -55.168 	 41.3426 	 112.279
|  9> C 	 -55.5681 	 42.3155 	 111.358
| 10> C 	 -56.994 	 42.0472 	 110.998
| 11> C 	 -57.6667 	 41.1109 	 111.66
| 12> H 	 -57.5508 	 42.6737 	 110.417
| 13> C 	 -54.6983 	 43.3677 	 110.801
| 14> H 	 -54.7654 	 43.3477 	 109.673
| 15> H 	 -53.6784 	 43.1579 	 111.05
| 16> C 	 -54.8246 	 44.6762 	 111.614
| 17> H 	 -54.3874 	 45.5313 	 111.073
| 18> H 	 -55.8477 	 45.0029 	 111.637
| 19> C 	 -54.1964 	 44.6026 	 112.96
| 20> H 	 -54.5512 	 43.7473 	 113.586
| 21> H 	 -53.0966 	 44.5224 	 112.964
| 22> H 	 -54.4295 	 45.5152 	 113.561
| 23> S 	 -59.3431 	 39.0102 	 111.507
| 24> C 	 -61.0391 	 39.4177 	 111.54
| 25> C 	 -61.3415 	 40.7572 	 111.819
| 26> C 	 -60.1401 	 41.5622 	 111.823
| 27> C 	 -59.0434 	 40.7664 	 111.566
| 28> H 	 -62.3147 	 41.1702 	 111.966
| 29> C 	 -60.1636 	 43.0015 	 112.087
| 30> H 	 -59.1375 	 43.2841 	 112.076
| 31> H 	 -60.5553 	 43.0346 	 113.123
| 32> C 	 -60.8913 	 44.0089 	 111.148
| 33> H 	 -61.9827 	 44.0207 	 111.394
| 34> H 	 -60.8036 	 43.6097 	 110.169
| 35> C 	 -60.3934 	 45.4263 	 111.251
| 36> H 	 -61.0437 	 46.1219 	 110.772
| 37> H 	 -59.3705 	 45.5508 	 110.887
| 38> H 	 -60.1991 	 45.6193 	 112.304
| 39> H 	 -54.177 	 41.209 	 112.706
| 40> H 	 -61.8236 	 38.7205 	 111.403
| 41> *
| 42>
| 43>                          ****END OF INPUT****

CARTESIAN COORDINATES (ANGSTROEM)
---------------------------------
  S    -56.384500   40.084800  112.474000
  C    -55.168000   41.342600  112.279000
  C    -55.568100   42.315500  111.358000
  C    -56.994000   42.047200  110.998000
  C    -57.666700   41.110900  111.660000
  H    -57.550800   42.673700  110.417000
  C    -54.698300   43.367700  110.801000
  H    -54.765400   43.347700  109.673000
  H    -53.678400   43.157900  111.050000
  C    -54.824600   44.676200  111.614000
  H    -54.387400   45.531300  111.073000
  H    -55.847700   45.002900  111.637000
  C    -54.196400   44.602600  112.960000
  H    -54.551200   43.747300  113.586000
  H    -53.096600   44.522400  112.964000
  H    -54.429500   45.515200  113.561000
  S    -59.343100   39.010200  111.507000
  C    -61.039100   39.417700  111.540000
  C    -61.341500   40.757200  111.819000
  C    -60.140100   41.562200  111.823000
  C    -59.043400   40.766400  111.566000
  H    -62.314700   41.170200  111.966000
  C    -60.163600   43.001500  112.087000
  H    -59.137500   43.284100  112.076000
  H    -60.555300   43.034600  113.123000
  C    -60.891300   44.008900  111.148000
  H    -61.982700   44.020700  111.394000
  H    -60.803600   43.609700  110.169000
  C    -60.393400   45.426300  111.251000
  H    -61.043700   46.121900  110.772000
  H    -59.370500   45.550800  110.887000
  H    -60.199100   45.619300  112.304000
  H    -54.177000   41.209000  112.706000
  H    -61.823600   38.720500  111.403000

 Total Charge           Charge          ....    0
 Multiplicity           Mult            ....    1
 Number of Electrons    NEL             ....  134
 Basis Dimension        Dim             ....  322

ORBITAL ENERGIES
----------------

  NO   OCC          E(Eh)            E(eV)
   0   2.0000     -88.971223     -2421.0301
   1   2.0000     -88.954537     -2420.5760
   2   2.0000     -10.324529      -280.9447
   3   2.0000     -10.324246      -280.9370
   4   2.0000     -10.319645      -280.8118
   5   2.0000     -10.316066      -280.7144
   6   2.0000     -10.305531      -280.4277
   7   2.0000     -10.304551      -280.4011
   8   2.0000     -10.296530      -280.1828
   9   2.0000     -10.294031      -280.1148
  10   2.0000     -10.289921      -280.0030
  11   2.0000     -10.289541      -279.9926
  12   2.0000     -10.286125      -279.8997
  13   2.0000     -10.284917      -279.8668
  14   2.0000     -10.281990      -279.7872
  15   2.0000     -10.278244      -279.6852
  16   2.0000      -8.085613      -220.0207
  17   2.0000      -8.068667      -219.5596
  18   2.0000      -6.044078      -164.4677
  19   2.0000      -6.040581      -164.3726
  20   2.0000      -6.036019      -164.2484
  21   2.0000      -6.027528      -164.0174
  22   2.0000      -6.023553      -163.9092
  23   2.0000      -6.018803      -163.7800
  24   2.0000      -1.005200       -27.3529
  25   2.0000      -0.976518       -26.5724
  26   2.0000      -0.918453       -24.9924
  27   2.0000      -0.916484       -24.9388
  28   2.0000      -0.872628       -23.7454
  29   2.0000      -0.863082       -23.4857
  30   2.0000      -0.839645       -22.8479
  31   2.0000      -0.817783       -22.2530
  32   2.0000      -0.786005       -21.3883
  33   2.0000      -0.767891       -20.8954
  34   2.0000      -0.712354       -19.3842
  35   2.0000      -0.702304       -19.1106
  36   2.0000      -0.695026       -18.9126
  37   2.0000      -0.666533       -18.1373
  38   2.0000      -0.646991       -17.6055
  39   2.0000      -0.621444       -16.9104
  40   2.0000      -0.599389       -16.3102
  41   2.0000      -0.572800       -15.5867
  42   2.0000      -0.567355       -15.4385
  43   2.0000      -0.556128       -15.1330
  44   2.0000      -0.538146       -14.6437
  45   2.0000      -0.534894       -14.5552
  46   2.0000      -0.520812       -14.1720
  47   2.0000      -0.514184       -13.9917
  48   2.0000      -0.500031       -13.6065
  49   2.0000      -0.497347       -13.5335
  50   2.0000      -0.486505       -13.2385
  51   2.0000      -0.482176       -13.1207
  52   2.0000      -0.477086       -12.9822
  53   2.0000      -0.468586       -12.7509
  54   2.0000      -0.461357       -12.5542
  55   2.0000      -0.448978       -12.2173
  56   2.0000      -0.447947       -12.1893
  57   2.0000      -0.439361       -11.9556
  58   2.0000      -0.426925       -11.6172
  59   2.0000      -0.424620       -11.5545
  60   2.0000      -0.421428       -11.4676
  61   2.0000      -0.416556       -11.3351
  62   2.0000      -0.407642       -11.0925
  63   2.0000      -0.354740        -9.6530
  64   2.0000      -0.334344        -9.0979
  65   2.0000      -0.317517        -8.6401
  66   2.0000      -0.285628        -7.7723
  67   0.0000       0.027542         0.7495
  68   0.0000       0.060375         1.6429
  69   0.0000       0.098611         2.6833
  70   0.0000       0.109885         2.9901
  71   0.0000       0.125032         3.4023

MULLIKEN ATOMIC CHARGES
-----------------------
   0 S :    0.061592
   1 C :   -0.115903
   2 C :   -0.108728
   3 C :    0.066347
   4 C :   -0.128937
   5 H :   -0.032436
   6 C :    0.073588
   7 H :    0.055314
   8 H :    0.004280
   9 C :   -0.038184
  10 H :    0.025662
  11 H :    0.015922
  12 C :   -0.095554
  13 H :    0.045670
  14 H :    0.033666
  15 H :    0.041239
  16 S :    0.111399
  17 C :   -0.059696
  18 C :   -0.016679
  19 C :   -0.067303
  20 C :   -0.155598
  21 H :    0.009396
  22 C :    0.066575
  23 H :    0.004155
  24 H :    0.044708
  25 C :   -0.053107
  26 H :    0.030793
  27 H :    0.024911
  28 C :   -0.029482
  29 H :    0.041430
  30 H :    0.023513
  31 H :    0.024746
  32 H :    0.055462
  33 H :    0.041236
Sum of atomic charges:    0.0000000

LOEWDIN ATOMIC CHARGES
----------------------
   0 S :    0.333573
   1 C :   -0.185441
   2 C :   -0.057385
   3 C :   -0.057178
   4 C :   -0.161248
   5 H :    0.009188
   6 C :   -0.039637
   7 H :    0.044472
   8 H :    0.028334
   9 C :   -0.042644
  10 H :    0.027468
  11 H :    0.017884
  12 C :   -0.076162
  13 H :    0.030059
  14 H :    0.025070
  15 H :    0.034789
  16 S :    0.397045
  17 C :   -0.168645
  18 C :   -0.060144
  19 C :   -0.044243
  20 C :   -0.186861
  21 H :    0.027761
  22 C :   -0.037256
  23 H :    0.025126
  24 H :    0.043648
  25 C :   -0.036647
  26 H :    0.027267
  27 H :    0.018702
  28 C :   -0.063026
  29 H :    0.026435
  30 H :    0.025450
  31 H :    0.028527
  32 H :    0.027206
  33 H :    0.018510

  Mayer bond orders larger than 0.100000
B(  0-S ,  1-C ) :   1.1218 B(  0-S ,  4-C ) :   1.0724 B(  1-C ,  2-C ) :   1.6416
B(  1-C , 32-H ) :   0.9644 B(  2-C ,  3-C ) :   1.1626 B(  2-C ,  6-C ) :   1.0490
B(  3-C ,  4-C ) :   1.6488 B(  3-C ,  5-H ) :   1.0040 B(  4-C , 20-C ) :   1.0859
B(  6-C ,  7-H ) :   0.9422 B(  6-C ,  8-H ) :   0.9351 B(  6-C ,  9-C ) :   1.0421
B(  9-C , 10-H ) :   0.9500 B(  9-C , 11-H ) :   0.9569 B(  9-C , 12-C ) :   1.0861
B( 12-C , 13-H ) :   0.9698 B( 12-C , 14-H ) :   0.9710 B( 12-C , 15-H ) :   0.9688
B( 16-S , 17-C ) :   1.1475 B( 16-S , 20-C ) :   1.1082 B( 17-C , 18-C ) :   1.6243
B( 17-C , 33-H ) :   0.9707 B( 18-C , 19-C ) :   1.2057 B( 18-C , 21-H ) :   0.9957
B( 19-C , 20-C ) :   1.6102 B( 19-C , 22-C ) :   1.0654 B( 22-C , 23-H ) :   0.9251
B( 22-C , 24-H ) :   0.9114 B( 22-C , 25-C ) :   1.0516 B( 25-C , 26-H ) :   0.9486
B( 25-C , 27-H ) :   0.9588 B( 25-C , 28-C ) :   1.0952 B( 28-C , 29-H ) :   0.9729
B( 28-C , 30-H ) :   0.9696 B( 28-C , 31-H ) :   0.9708

Dispersion correction           -0.014393679
FINAL SINGLE POINT ENERGY     -1339.853428120424

DIPOLE MOMENT
-------------
                                X             Y             Z
Electronic contribution:     -3.43539     -30.74607       0.28801
Nuclear contribution   :      3.23900      31.51489      -0.40525
                        -----------------------------------------
Total Dipole Moment    :     -0.19638       0.76882      -0.11724
                        -----------------------------------------
Magnitude (a.u.)       :      0.80212
Magnitude (Debye)      :      2.03882

Rotational constants in cm-1:     0.017361     0.009839     0.006683
Rotational constants in MHz :   520.456417   294.964480   200.339224

                             ****ORCA TERMINATED NORMALLY****
TOTAL RUN TIME: 0 days 0 hours 0 minutes 30 seconds 767 msec
