                         Program Version 4.2.1 -  RELEASE  -
|  1> ! wB97X-D3 SP def2-SVP
|  2> %pal
|  3> nprocs 16
|  4> end
|  5>
|  6> * xyz 0 1
|  7> S 	 -48.7202 	 66.4893 	 129.612
|  8> C 	 -48.2752 	 65.1948 	 128.638
|  9> C 	 -47.127 	 64.5639 	 129.217
| 10> C 	 -46.7866 	 65.1186 	 130.446
| 11> C 	 -47.6513 	 66.1105 	 130.868
| 12> H 	 -46.0763 	 64.7281 	 131.081
| 13> C 	 -46.3794 	 63.3043 	 128.591
| 14> H 	 -47.1679 	 62.5506 	 128.389
| 15> H 	 -45.7016 	 62.9041 	 129.399
| 16> C 	 -45.5891 	 63.5385 	 127.345
| 17> H 	 -45.0511 	 62.671 	 126.984
| 18> H 	 -46.2653 	 63.6665 	 126.47
| 19> C 	 -44.5707 	 64.6168 	 127.41
| 20> H 	 -45.0811 	 65.5138 	 127.627
| 21> H 	 -43.8123 	 64.632 	 128.147
| 22> H 	 -44.2645 	 64.849 	 126.396
| 23> S 	 -47.2868 	 68.7749 	 131.591
| 24> C 	 -47.4845 	 69.1443 	 133.299
| 25> C 	 -47.5508 	 68.1193 	 134.104
| 26> C 	 -47.7612 	 66.863 	 133.367
| 27> C 	 -47.5359 	 67.0379 	 132.014
| 28> H 	 -47.3172 	 68.2274 	 135.149
| 29> C 	 -48.0006 	 65.5276 	 133.975
| 30> H 	 -47.4455 	 65.3329 	 134.973
| 31> H 	 -47.3974 	 64.9599 	 133.326
| 32> C 	 -49.4922 	 65.1688 	 134.266
| 33> H 	 -50.0101 	 65.2372 	 133.318
| 34> H 	 -50.0579 	 65.9078 	 134.789
| 35> C 	 -49.5992 	 63.7824 	 134.819
| 36> H 	 -50.6138 	 63.5036 	 134.784
| 37> H 	 -49.1071 	 63.6478 	 135.799
| 38> H 	 -49.1606 	 63.1534 	 134.064
| 39> H 	 -48.663 	 64.9397 	 127.612
| 40> H 	 -47.3515 	 70.1355 	 133.777
| 41> *
| 42>
| 43>                          ****END OF INPUT****

CARTESIAN COORDINATES (ANGSTROEM)
---------------------------------
  S    -48.720200   66.489300  129.612000
  C    -48.275200   65.194800  128.638000
  C    -47.127000   64.563900  129.217000
  C    -46.786600   65.118600  130.446000
  C    -47.651300   66.110500  130.868000
  H    -46.076300   64.728100  131.081000
  C    -46.379400   63.304300  128.591000
  H    -47.167900   62.550600  128.389000
  H    -45.701600   62.904100  129.399000
  C    -45.589100   63.538500  127.345000
  H    -45.051100   62.671000  126.984000
  H    -46.265300   63.666500  126.470000
  C    -44.570700   64.616800  127.410000
  H    -45.081100   65.513800  127.627000
  H    -43.812300   64.632000  128.147000
  H    -44.264500   64.849000  126.396000
  S    -47.286800   68.774900  131.591000
  C    -47.484500   69.144300  133.299000
  C    -47.550800   68.119300  134.104000
  C    -47.761200   66.863000  133.367000
  C    -47.535900   67.037900  132.014000
  H    -47.317200   68.227400  135.149000
  C    -48.000600   65.527600  133.975000
  H    -47.445500   65.332900  134.973000
  H    -47.397400   64.959900  133.326000
  C    -49.492200   65.168800  134.266000
  H    -50.010100   65.237200  133.318000
  H    -50.057900   65.907800  134.789000
  C    -49.599200   63.782400  134.819000
  H    -50.613800   63.503600  134.784000
  H    -49.107100   63.647800  135.799000
  H    -49.160600   63.153400  134.064000
  H    -48.663000   64.939700  127.612000
  H    -47.351500   70.135500  133.777000

 Total Charge           Charge          ....    0
 Multiplicity           Mult            ....    1
 Number of Electrons    NEL             ....  134
 Basis Dimension        Dim             ....  322

ORBITAL ENERGIES
----------------

  NO   OCC          E(Eh)            E(eV)
   0   2.0000     -88.968806     -2420.9643
   1   2.0000     -88.962834     -2420.8018
   2   2.0000     -10.328822      -281.0615
   3   2.0000     -10.323598      -280.9194
   4   2.0000     -10.316893      -280.7369
   5   2.0000     -10.310016      -280.5498
   6   2.0000     -10.303921      -280.3839
   7   2.0000     -10.303662      -280.3769
   8   2.0000     -10.299586      -280.2660
   9   2.0000     -10.290592      -280.0212
  10   2.0000     -10.286064      -279.8980
  11   2.0000     -10.285800      -279.8909
  12   2.0000     -10.281308      -279.7686
  13   2.0000     -10.280168      -279.7376
  14   2.0000     -10.270183      -279.4659
  15   2.0000     -10.261142      -279.2199
  16   2.0000      -8.085322      -220.0128
  17   2.0000      -8.076987      -219.7860
  18   2.0000      -6.043423      -164.4499
  19   2.0000      -6.039279      -164.3371
  20   2.0000      -6.036665      -164.2660
  21   2.0000      -6.035728      -164.2405
  22   2.0000      -6.031908      -164.1366
  23   2.0000      -6.027186      -164.0081
  24   2.0000      -1.015497       -27.6331
  25   2.0000      -0.986853       -26.8536
  26   2.0000      -0.913929       -24.8693
  27   2.0000      -0.910166       -24.7669
  28   2.0000      -0.871086       -23.7035
  29   2.0000      -0.857598       -23.3364
  30   2.0000      -0.850773       -23.1507
  31   2.0000      -0.818572       -22.2745
  32   2.0000      -0.786471       -21.4010
  33   2.0000      -0.766963       -20.8701
  34   2.0000      -0.707377       -19.2487
  35   2.0000      -0.699753       -19.0412
  36   2.0000      -0.692729       -18.8501
  37   2.0000      -0.655737       -17.8435
  38   2.0000      -0.643999       -17.5241
  39   2.0000      -0.616837       -16.7850
  40   2.0000      -0.593266       -16.1436
  41   2.0000      -0.572688       -15.5836
  42   2.0000      -0.559977       -15.2377
  43   2.0000      -0.553384       -15.0583
  44   2.0000      -0.547280       -14.8923
  45   2.0000      -0.531659       -14.4672
  46   2.0000      -0.515738       -14.0340
  47   2.0000      -0.514080       -13.9888
  48   2.0000      -0.505932       -13.7671
  49   2.0000      -0.501658       -13.6508
  50   2.0000      -0.488500       -13.2928
  51   2.0000      -0.481261       -13.0958
  52   2.0000      -0.472557       -12.8589
  53   2.0000      -0.463941       -12.6245
  54   2.0000      -0.456647       -12.4260
  55   2.0000      -0.449972       -12.2444
  56   2.0000      -0.441319       -12.0089
  57   2.0000      -0.435132       -11.8406
  58   2.0000      -0.434426       -11.8213
  59   2.0000      -0.430771       -11.7219
  60   2.0000      -0.422212       -11.4890
  61   2.0000      -0.400691       -10.9034
  62   2.0000      -0.398745       -10.8504
  63   2.0000      -0.345070        -9.3898
  64   2.0000      -0.331368        -9.0170
  65   2.0000      -0.327843        -8.9211
  66   2.0000      -0.298335        -8.1181
  67   0.0000       0.037600         1.0232
  68   0.0000       0.063677         1.7328
  69   0.0000       0.104719         2.8495
  70   0.0000       0.124507         3.3880
  71   0.0000       0.134215         3.6522

MULLIKEN ATOMIC CHARGES
-----------------------
   0 S :    0.146047
   1 C :   -0.135809
   2 C :   -0.121819
   3 C :    0.073464
   4 C :   -0.174387
   5 H :   -0.017265
   6 C :    0.055634
   7 H :    0.042089
   8 H :    0.029451
   9 C :   -0.067690
  10 H :    0.020987
  11 H :    0.016183
  12 C :   -0.000154
  13 H :    0.008924
  14 H :    0.024776
  15 H :    0.019551
  16 S :    0.092359
  17 C :   -0.075894
  18 C :   -0.020598
  19 C :   -0.049379
  20 C :   -0.162574
  21 H :    0.023938
  22 C :    0.045576
  23 H :    0.022608
  24 H :    0.003874
  25 C :   -0.052970
  26 H :    0.017597
  27 H :    0.020435
  28 C :    0.004273
  29 H :    0.020475
  30 H :    0.042082
  31 H :    0.020269
  32 H :    0.071721
  33 H :    0.056225
Sum of atomic charges:    0.0000000

LOEWDIN ATOMIC CHARGES
----------------------
   0 S :    0.482415
   1 C :   -0.238924
   2 C :   -0.065104
   3 C :   -0.060603
   4 C :   -0.224052
   5 H :    0.017923
   6 C :   -0.031314
   7 H :    0.036359
   8 H :    0.032741
   9 C :   -0.053425
  10 H :    0.024058
  11 H :    0.026610
  12 C :   -0.065383
  13 H :    0.022093
  14 H :    0.021290
  15 H :    0.030813
  16 S :    0.361701
  17 C :   -0.178130
  18 C :   -0.073101
  19 C :   -0.046549
  20 C :   -0.183393
  21 H :    0.035050
  22 C :   -0.040279
  23 H :    0.035909
  24 H :    0.025163
  25 C :   -0.036953
  26 H :    0.026045
  27 H :    0.020994
  28 C :   -0.059639
  29 H :    0.022621
  30 H :    0.028495
  31 H :    0.027906
  32 H :    0.042046
  33 H :    0.036621

  Mayer bond orders larger than 0.100000
B(  0-S ,  1-C ) :   1.1989 B(  0-S ,  4-C ) :   1.2081 B(  1-C ,  2-C ) :   1.5078
B(  1-C ,  4-C ) :   0.1143 B(  1-C , 32-H ) :   0.9660 B(  2-C ,  3-C ) :   1.3409
B(  2-C ,  6-C ) :   0.9963 B(  3-C ,  4-C ) :   1.4950 B(  3-C ,  5-H ) :   1.0040
B(  4-C , 20-C ) :   1.0072 B(  6-C ,  7-H ) :   0.9450 B(  6-C ,  8-H ) :   0.9470
B(  6-C ,  9-C ) :   1.0835 B(  9-C , 10-H ) :   0.9509 B(  9-C , 11-H ) :   0.9477
B(  9-C , 12-C ) :   1.0859 B( 12-C , 13-H ) :   0.9622 B( 12-C , 14-H ) :   0.9758
B( 12-C , 15-H ) :   0.9647 B( 16-S , 17-C ) :   1.1137 B( 16-S , 20-C ) :   1.1038
B( 17-C , 18-C ) :   1.7263 B( 17-C , 33-H ) :   0.9484 B( 18-C , 19-C ) :   1.1593
B( 18-C , 21-H ) :   0.9852 B( 19-C , 20-C ) :   1.6810 B( 19-C , 22-C ) :   1.0403
B( 22-C , 23-H ) :   0.9394 B( 22-C , 24-H ) :   0.9323 B( 22-C , 25-C ) :   1.0394
B( 25-C , 26-H ) :   0.9472 B( 25-C , 27-H ) :   0.9561 B( 25-C , 28-C ) :   1.0919
B( 28-C , 29-H ) :   0.9688 B( 28-C , 30-H ) :   0.9732 B( 28-C , 31-H ) :   0.9701

Dispersion correction           -0.014169904
FINAL SINGLE POINT ENERGY     -1339.843568139668

DIPOLE MOMENT
-------------
                                X             Y             Z
Electronic contribution:     -4.98218      20.61329      -1.62651
Nuclear contribution   :      5.11165     -21.01937       1.77656
                        -----------------------------------------
Total Dipole Moment    :      0.12947      -0.40608       0.15005
                        -----------------------------------------
Magnitude (a.u.)       :      0.45186
Magnitude (Debye)      :      1.14854

Rotational constants in cm-1:     0.019287     0.008339     0.006842
Rotational constants in MHz :   578.216674   249.991524   205.129905

                             ****ORCA TERMINATED NORMALLY****
TOTAL RUN TIME: 0 days 0 hours 0 minutes 33 seconds 922 msec
