                         Program Version 4.2.1 -  RELEASE  -
|  1> ! wB97X-D3 SP def2-SVP
|  2> %pal
|  3> nprocs 16
|  4> end
|  5>
|  6> * xyz 0 1
|  7> S 	 -26.7081 	 45.6102 	 58.0948
|  8> C 	 -27.8962 	 45.2867 	 59.322
|  9> C 	 -27.6948 	 46.1331 	 60.3514
| 10> C 	 -26.7802 	 47.2089 	 60.065
| 11> C 	 -26.2277 	 47.0768 	 58.7999
| 12> H 	 -26.5294 	 48.0512 	 60.736
| 13> C 	 -28.4843 	 46.1154 	 61.6342
| 14> H 	 -27.7794 	 46.4351 	 62.3901
| 15> H 	 -28.5811 	 45.0329 	 61.7636
| 16> C 	 -29.7686 	 46.9574 	 61.885
| 17> H 	 -29.8393 	 47.3141 	 62.8834
| 18> H 	 -29.6241 	 47.8861 	 61.2875
| 19> C 	 -31.1073 	 46.3061 	 61.4139
| 20> H 	 -31.0708 	 45.8805 	 60.4258
| 21> H 	 -31.3857 	 45.5221 	 62.1355
| 22> H 	 -32.0244 	 46.9995 	 61.332
| 23> S 	 -23.8722 	 48.474 	 59.3485
| 24> C 	 -23.0274 	 49.2695 	 58.021
| 25> C 	 -23.5169 	 48.8912 	 56.8122
| 26> C 	 -24.7032 	 48.12 	 56.9489
| 27> C 	 -25.1493 	 47.9408 	 58.2563
| 28> H 	 -23.0022 	 49.2601 	 55.9558
| 29> C 	 -25.2892 	 47.5411 	 55.6892
| 30> H 	 -25.0649 	 48.3561 	 54.9008
| 31> H 	 -26.3556 	 47.594 	 55.8885
| 32> C 	 -24.7917 	 46.1342 	 55.1899
| 33> H 	 -25.4891 	 45.7795 	 54.4058
| 34> H 	 -24.9122 	 45.3182 	 56.0233
| 35> C 	 -23.3137 	 46.0227 	 54.6724
| 36> H 	 -23.2809 	 45.0064 	 54.1757
| 37> H 	 -22.4836 	 45.941 	 55.387
| 38> H 	 -22.9953 	 46.7558 	 53.9776
| 39> H 	 -28.5521 	 44.4468 	 59.2974
| 40> H 	 -22.0803 	 49.8126 	 58.1075
| 41> *
| 42>
| 43>                          ****END OF INPUT****

CARTESIAN COORDINATES (ANGSTROEM)
---------------------------------
  S    -26.708100   45.610200   58.094800
  C    -27.896200   45.286700   59.322000
  C    -27.694800   46.133100   60.351400
  C    -26.780200   47.208900   60.065000
  C    -26.227700   47.076800   58.799900
  H    -26.529400   48.051200   60.736000
  C    -28.484300   46.115400   61.634200
  H    -27.779400   46.435100   62.390100
  H    -28.581100   45.032900   61.763600
  C    -29.768600   46.957400   61.885000
  H    -29.839300   47.314100   62.883400
  H    -29.624100   47.886100   61.287500
  C    -31.107300   46.306100   61.413900
  H    -31.070800   45.880500   60.425800
  H    -31.385700   45.522100   62.135500
  H    -32.024400   46.999500   61.332000
  S    -23.872200   48.474000   59.348500
  C    -23.027400   49.269500   58.021000
  C    -23.516900   48.891200   56.812200
  C    -24.703200   48.120000   56.948900
  C    -25.149300   47.940800   58.256300
  H    -23.002200   49.260100   55.955800
  C    -25.289200   47.541100   55.689200
  H    -25.064900   48.356100   54.900800
  H    -26.355600   47.594000   55.888500
  C    -24.791700   46.134200   55.189900
  H    -25.489100   45.779500   54.405800
  H    -24.912200   45.318200   56.023300
  C    -23.313700   46.022700   54.672400
  H    -23.280900   45.006400   54.175700
  H    -22.483600   45.941000   55.387000
  H    -22.995300   46.755800   53.977600
  H    -28.552100   44.446800   59.297400
  H    -22.080300   49.812600   58.107500

 Total Charge           Charge          ....    0
 Multiplicity           Mult            ....    1
 Number of Electrons    NEL             ....  134
 Basis Dimension        Dim             ....  322

ORBITAL ENERGIES
----------------

  NO   OCC          E(Eh)            E(eV)
   0   2.0000     -88.965100     -2420.8634
   1   2.0000     -88.964929     -2420.8588
   2   2.0000     -10.329867      -281.0900
   3   2.0000     -10.329060      -281.0680
   4   2.0000     -10.316564      -280.7280
   5   2.0000     -10.308640      -280.5124
   6   2.0000     -10.303329      -280.3678
   7   2.0000     -10.301364      -280.3144
   8   2.0000     -10.297592      -280.2117
   9   2.0000     -10.295834      -280.1639
  10   2.0000     -10.293900      -280.1113
  11   2.0000     -10.291782      -280.0536
  12   2.0000     -10.289053      -279.9794
  13   2.0000     -10.288084      -279.9530
  14   2.0000     -10.284359      -279.8516
  15   2.0000     -10.281517      -279.7743
  16   2.0000      -8.080555      -219.8831
  17   2.0000      -8.079357      -219.8505
  18   2.0000      -6.038988      -164.3292
  19   2.0000      -6.037987      -164.3020
  20   2.0000      -6.034926      -164.2187
  21   2.0000      -6.034092      -164.1960
  22   2.0000      -6.031325      -164.1207
  23   2.0000      -6.029852      -164.0806
  24   2.0000      -1.012609       -27.5545
  25   2.0000      -0.989614       -26.9288
  26   2.0000      -0.907517       -24.6948
  27   2.0000      -0.896262       -24.3885
  28   2.0000      -0.870518       -23.6880
  29   2.0000      -0.848003       -23.0753
  30   2.0000      -0.841308       -22.8932
  31   2.0000      -0.818276       -22.2664
  32   2.0000      -0.781773       -21.2731
  33   2.0000      -0.771749       -21.0004
  34   2.0000      -0.712094       -19.3771
  35   2.0000      -0.701425       -19.0867
  36   2.0000      -0.689266       -18.7559
  37   2.0000      -0.665584       -18.1114
  38   2.0000      -0.638737       -17.3809
  39   2.0000      -0.611981       -16.6529
  40   2.0000      -0.583656       -15.8821
  41   2.0000      -0.569833       -15.5060
  42   2.0000      -0.547924       -14.9098
  43   2.0000      -0.545411       -14.8414
  44   2.0000      -0.537396       -14.6233
  45   2.0000      -0.533531       -14.5181
  46   2.0000      -0.522108       -14.2073
  47   2.0000      -0.511914       -13.9299
  48   2.0000      -0.502595       -13.6763
  49   2.0000      -0.496142       -13.5007
  50   2.0000      -0.483631       -13.1603
  51   2.0000      -0.482526       -13.1302
  52   2.0000      -0.474758       -12.9188
  53   2.0000      -0.468078       -12.7370
  54   2.0000      -0.456803       -12.4302
  55   2.0000      -0.449229       -12.2242
  56   2.0000      -0.437747       -11.9117
  57   2.0000      -0.434931       -11.8351
  58   2.0000      -0.430356       -11.7106
  59   2.0000      -0.421474       -11.4689
  60   2.0000      -0.420199       -11.4342
  61   2.0000      -0.411108       -11.1868
  62   2.0000      -0.402178       -10.9438
  63   2.0000      -0.355575        -9.6757
  64   2.0000      -0.329060        -8.9542
  65   2.0000      -0.327759        -8.9188
  66   2.0000      -0.292798        -7.9674
  67   0.0000       0.023870         0.6495
  68   0.0000       0.081167         2.2087
  69   0.0000       0.105222         2.8632
  70   0.0000       0.120421         3.2768
  71   0.0000       0.125094         3.4040

MULLIKEN ATOMIC CHARGES
-----------------------
   0 S :    0.097651
   1 C :   -0.108291
   2 C :   -0.089361
   3 C :   -0.025952
   4 C :   -0.110313
   5 H :    0.028771
   6 C :    0.059141
   7 H :    0.018525
   8 H :    0.019133
   9 C :   -0.021208
  10 H :    0.027195
  11 H :    0.029727
  12 C :   -0.092033
  13 H :    0.031998
  14 H :    0.037207
  15 H :    0.042400
  16 S :    0.089602
  17 C :   -0.093557
  18 C :   -0.019666
  19 C :   -0.073786
  20 C :   -0.103379
  21 H :    0.011184
  22 C :    0.027931
  23 H :    0.036521
  24 H :    0.032209
  25 C :   -0.081582
  26 H :    0.044946
  27 H :    0.049333
  28 C :   -0.065503
  29 H :    0.036659
  30 H :    0.041031
  31 H :    0.025077
  32 H :    0.038996
  33 H :    0.059390
Sum of atomic charges:   -0.0000000

LOEWDIN ATOMIC CHARGES
----------------------
   0 S :    0.445290
   1 C :   -0.196298
   2 C :   -0.065178
   3 C :   -0.077314
   4 C :   -0.201899
   5 H :    0.035292
   6 C :   -0.037392
   7 H :    0.033325
   8 H :    0.029909
   9 C :   -0.037066
  10 H :    0.021933
  11 H :    0.031001
  12 C :   -0.076423
  13 H :    0.020974
  14 H :    0.024762
  15 H :    0.034988
  16 S :    0.394255
  17 C :   -0.175161
  18 C :   -0.070703
  19 C :   -0.061009
  20 C :   -0.195127
  21 H :    0.031372
  22 C :   -0.049305
  23 H :    0.039129
  24 H :    0.027708
  25 C :   -0.047534
  26 H :    0.030549
  27 H :    0.027537
  28 C :   -0.076412
  29 H :    0.037211
  30 H :    0.027820
  31 H :    0.015477
  32 H :    0.025033
  33 H :    0.033255

  Mayer bond orders larger than 0.100000
B(  0-S ,  1-C ) :   1.1251 B(  0-S ,  4-C ) :   1.1720 B(  1-C ,  2-C ) :   1.6085
B(  1-C , 32-H ) :   0.9782 B(  2-C ,  3-C ) :   1.2314 B(  2-C ,  6-C ) :   1.0337
B(  3-C ,  4-C ) :   1.5334 B(  3-C ,  5-H ) :   0.9969 B(  4-C , 20-C ) :   1.0565
B(  6-C ,  7-H ) :   0.9313 B(  6-C ,  8-H ) :   0.9422 B(  6-C ,  9-C ) :   1.0506
B(  9-C , 10-H ) :   0.9595 B(  9-C , 11-H ) :   0.9552 B(  9-C , 12-C ) :   1.0689
B( 12-C , 13-H ) :   0.9784 B( 12-C , 14-H ) :   0.9782 B( 12-C , 15-H ) :   0.9758
B( 16-S , 17-C ) :   1.1498 B( 16-S , 20-C ) :   1.1224 B( 17-C , 18-C ) :   1.6286
B( 17-C , 33-H ) :   0.9604 B( 18-C , 19-C ) :   1.2295 B( 18-C , 21-H ) :   0.9978
B( 19-C , 20-C ) :   1.5839 B( 19-C , 22-C ) :   1.0362 B( 22-C , 23-H ) :   0.9420
B( 22-C , 24-H ) :   0.9310 B( 22-C , 25-C ) :   1.0567 B( 25-C , 26-H ) :   0.9584
B( 25-C , 27-H ) :   0.9492 B( 25-C , 28-C ) :   1.0637 B( 28-C , 29-H ) :   0.9728
B( 28-C , 30-H ) :   0.9765 B( 28-C , 31-H ) :   0.9782

Dispersion correction           -0.014424267
FINAL SINGLE POINT ENERGY     -1339.867353911939

DIPOLE MOMENT
-------------
                                X             Y             Z
Electronic contribution:     11.44819       4.93206       2.60903
Nuclear contribution   :    -11.43209      -5.00516      -2.69451
                        -----------------------------------------
Total Dipole Moment    :      0.01610      -0.07310      -0.08548
                        -----------------------------------------
Magnitude (a.u.)       :      0.11362
Magnitude (Debye)      :      0.28880

Rotational constants in cm-1:     0.025311     0.007474     0.006200
Rotational constants in MHz :   758.813103   224.063340   185.886036

                             ****ORCA TERMINATED NORMALLY****
TOTAL RUN TIME: 0 days 0 hours 0 minutes 34 seconds 411 msec
