                         Program Version 4.2.1 -  RELEASE  -
|  1> ! wB97X-D3 SP def2-SVP
|  2> %pal
|  3> nprocs 16
|  4> end
|  5>
|  6> * xyz 0 1
|  7> S 	 6.02476 	 -2.91401 	 89.2341
|  8> C 	 7.5995 	 -2.72233 	 89.8516
|  9> C 	 8.54808 	 -3.46444 	 89.1877
| 10> C 	 8.01365 	 -4.345 	 88.2236
| 11> C 	 6.65302 	 -4.25231 	 88.2155
| 12> H 	 8.41662 	 -5.0865 	 87.4913
| 13> C 	 10.0579 	 -3.33955 	 89.4153
| 14> H 	 10.2965 	 -4.36405 	 89.5517
| 15> H 	 10.2283 	 -2.93281 	 90.3002
| 16> C 	 10.9 	 -2.83538 	 88.2404
| 17> H 	 10.227 	 -2.90973 	 87.3826
| 18> H 	 11.3658 	 -1.82349 	 88.4193
| 19> C 	 12.054 	 -3.76665 	 87.9054
| 20> H 	 12.7725 	 -3.37654 	 87.1274
| 21> H 	 12.8435 	 -3.87732 	 88.6651
| 22> H 	 11.7341 	 -4.80525 	 87.7215
| 23> S 	 5.00699 	 -6.42655 	 88.0653
| 24> C 	 4.00419 	 -6.59383 	 86.6241
| 25> C 	 4.27596 	 -5.7258 	 85.6054
| 26> C 	 5.29742 	 -4.77412 	 86.0578
| 27> C 	 5.71588 	 -4.99746 	 87.3299
| 28> H 	 3.74788 	 -5.85188 	 84.6556
| 29> C 	 5.92674 	 -3.70458 	 85.114
| 30> H 	 6.24846 	 -2.82021 	 85.6424
| 31> H 	 5.01518 	 -3.39936 	 84.6052
| 32> C 	 6.98797 	 -4.2632 	 84.2509
| 33> H 	 6.58974 	 -4.99784 	 83.5352
| 34> H 	 7.64634 	 -4.73846 	 84.916
| 35> C 	 7.64033 	 -3.06917 	 83.5081
| 36> H 	 8.33658 	 -3.39124 	 82.7586
| 37> H 	 8.09831 	 -2.29144 	 84.1601
| 38> H 	 6.81735 	 -2.50907 	 82.9501
| 39> H 	 7.87094 	 -1.93757 	 90.5367
| 40> H 	 3.31126 	 -7.45118 	 86.5101
| 41> *
| 42>
| 43>                          ****END OF INPUT****

CARTESIAN COORDINATES (ANGSTROEM)
---------------------------------
  S      6.024760   -2.914010   89.234100
  C      7.599500   -2.722330   89.851600
  C      8.548080   -3.464440   89.187700
  C      8.013650   -4.345000   88.223600
  C      6.653020   -4.252310   88.215500
  H      8.416620   -5.086500   87.491300
  C     10.057900   -3.339550   89.415300
  H     10.296500   -4.364050   89.551700
  H     10.228300   -2.932810   90.300200
  C     10.900000   -2.835380   88.240400
  H     10.227000   -2.909730   87.382600
  H     11.365800   -1.823490   88.419300
  C     12.054000   -3.766650   87.905400
  H     12.772500   -3.376540   87.127400
  H     12.843500   -3.877320   88.665100
  H     11.734100   -4.805250   87.721500
  S      5.006990   -6.426550   88.065300
  C      4.004190   -6.593830   86.624100
  C      4.275960   -5.725800   85.605400
  C      5.297420   -4.774120   86.057800
  C      5.715880   -4.997460   87.329900
  H      3.747880   -5.851880   84.655600
  C      5.926740   -3.704580   85.114000
  H      6.248460   -2.820210   85.642400
  H      5.015180   -3.399360   84.605200
  C      6.987970   -4.263200   84.250900
  H      6.589740   -4.997840   83.535200
  H      7.646340   -4.738460   84.916000
  C      7.640330   -3.069170   83.508100
  H      8.336580   -3.391240   82.758600
  H      8.098310   -2.291440   84.160100
  H      6.817350   -2.509070   82.950100
  H      7.870940   -1.937570   90.536700
  H      3.311260   -7.451180   86.510100

 Total Charge           Charge          ....    0
 Multiplicity           Mult            ....    1
 Number of Electrons    NEL             ....  134
 Basis Dimension        Dim             ....  322

ORBITAL ENERGIES
----------------

  NO   OCC          E(Eh)            E(eV)
   0   2.0000     -88.965294     -2420.8687
   1   2.0000     -88.960853     -2420.7479
   2   2.0000     -10.327746      -281.0322
   3   2.0000     -10.319614      -280.8110
   4   2.0000     -10.317715      -280.7593
   5   2.0000     -10.307211      -280.4735
   6   2.0000     -10.304347      -280.3955
   7   2.0000     -10.298407      -280.2339
   8   2.0000     -10.298179      -280.2277
   9   2.0000     -10.297071      -280.1975
  10   2.0000     -10.292230      -280.0658
  11   2.0000     -10.284978      -279.8685
  12   2.0000     -10.283489      -279.8280
  13   2.0000     -10.282440      -279.7994
  14   2.0000     -10.282185      -279.7925
  15   2.0000     -10.275884      -279.6210
  16   2.0000      -8.080266      -219.8752
  17   2.0000      -8.075824      -219.7544
  18   2.0000      -6.038533      -164.3168
  19   2.0000      -6.034982      -164.2202
  20   2.0000      -6.034267      -164.2007
  21   2.0000      -6.031023      -164.1125
  22   2.0000      -6.030517      -164.0987
  23   2.0000      -6.026410      -163.9869
  24   2.0000      -1.006073       -27.3766
  25   2.0000      -0.984622       -26.7929
  26   2.0000      -0.914644       -24.8887
  27   2.0000      -0.913340       -24.8533
  28   2.0000      -0.867815       -23.6144
  29   2.0000      -0.852517       -23.1982
  30   2.0000      -0.843850       -22.9623
  31   2.0000      -0.818060       -22.2605
  32   2.0000      -0.780597       -21.2411
  33   2.0000      -0.766466       -20.8566
  34   2.0000      -0.705741       -19.2042
  35   2.0000      -0.701380       -19.0855
  36   2.0000      -0.689773       -18.7697
  37   2.0000      -0.658362       -17.9149
  38   2.0000      -0.648582       -17.6488
  39   2.0000      -0.620477       -16.8840
  40   2.0000      -0.593811       -16.1584
  41   2.0000      -0.571488       -15.5510
  42   2.0000      -0.566195       -15.4069
  43   2.0000      -0.560444       -15.2505
  44   2.0000      -0.526024       -14.3138
  45   2.0000      -0.522018       -14.2048
  46   2.0000      -0.516351       -14.0506
  47   2.0000      -0.511492       -13.9184
  48   2.0000      -0.504485       -13.7277
  49   2.0000      -0.495847       -13.4927
  50   2.0000      -0.484781       -13.1916
  51   2.0000      -0.476148       -12.9566
  52   2.0000      -0.468415       -12.7462
  53   2.0000      -0.463823       -12.6213
  54   2.0000      -0.457797       -12.4573
  55   2.0000      -0.452882       -12.3235
  56   2.0000      -0.447057       -12.1650
  57   2.0000      -0.443022       -12.0552
  58   2.0000      -0.432742       -11.7755
  59   2.0000      -0.425013       -11.5652
  60   2.0000      -0.418562       -11.3897
  61   2.0000      -0.415377       -11.3030
  62   2.0000      -0.408455       -11.1146
  63   2.0000      -0.341831        -9.3017
  64   2.0000      -0.331208        -9.0126
  65   2.0000      -0.318427        -8.6648
  66   2.0000      -0.310034        -8.4365
  67   0.0000       0.050777         1.3817
  68   0.0000       0.056825         1.5463
  69   0.0000       0.108876         2.9627
  70   0.0000       0.113015         3.0753
  71   0.0000       0.134521         3.6605

MULLIKEN ATOMIC CHARGES
-----------------------
   0 S :    0.123076
   1 C :   -0.103588
   2 C :   -0.124635
   3 C :    0.020409
   4 C :   -0.170408
   5 H :    0.041320
   6 C :    0.184881
   7 H :    0.008434
   8 H :   -0.031433
   9 C :   -0.035648
  10 H :    0.036198
  11 H :    0.046717
  12 C :   -0.109867
  13 H :    0.035765
  14 H :    0.021392
  15 H :    0.036428
  16 S :    0.103607
  17 C :   -0.100293
  18 C :   -0.042577
  19 C :   -0.040077
  20 C :   -0.212946
  21 H :    0.030765
  22 C :    0.071220
  23 H :    0.021889
  24 H :    0.016456
  25 C :   -0.013127
  26 H :    0.032249
  27 H :    0.010662
  28 C :   -0.064345
  29 H :    0.032988
  30 H :    0.043048
  31 H :    0.029902
  32 H :    0.039771
  33 H :    0.061764
Sum of atomic charges:    0.0000000

LOEWDIN ATOMIC CHARGES
----------------------
   0 S :    0.405837
   1 C :   -0.209871
   2 C :   -0.063467
   3 C :   -0.067764
   4 C :   -0.178807
   5 H :    0.047529
   6 C :   -0.016607
   7 H :    0.032094
   8 H :    0.007373
   9 C :   -0.039232
  10 H :    0.028878
  11 H :    0.035646
  12 C :   -0.083347
  13 H :    0.032666
  14 H :    0.022201
  15 H :    0.023031
  16 S :    0.387121
  17 C :   -0.175224
  18 C :   -0.077881
  19 C :   -0.049294
  20 C :   -0.208911
  21 H :    0.039358
  22 C :   -0.027404
  23 H :    0.027662
  24 H :    0.027668
  25 C :   -0.034401
  26 H :    0.029887
  27 H :    0.016400
  28 C :   -0.068117
  29 H :    0.019737
  30 H :    0.029569
  31 H :    0.031776
  32 H :    0.025460
  33 H :    0.030434

  Mayer bond orders larger than 0.100000
B(  0-S ,  1-C ) :   1.1419 B(  0-S ,  4-C ) :   1.1491 B(  1-C ,  2-C ) :   1.6400
B(  1-C , 32-H ) :   0.9637 B(  2-C ,  3-C ) :   1.1965 B(  2-C ,  6-C ) :   1.0193
B(  3-C ,  4-C ) :   1.6320 B(  3-C ,  5-H ) :   0.9824 B(  4-C , 20-C ) :   0.9888
B(  6-C ,  7-H ) :   0.9360 B(  6-C ,  8-H ) :   0.9242 B(  6-C ,  9-C ) :   1.0383
B(  9-C , 10-H ) :   0.9616 B(  9-C , 11-H ) :   0.9562 B(  9-C , 12-C ) :   1.0783
B( 12-C , 13-H ) :   0.9710 B( 12-C , 14-H ) :   0.9732 B( 12-C , 15-H ) :   0.9741
B( 16-S , 17-C ) :   1.1431 B( 16-S , 20-C ) :   1.1262 B( 17-C , 18-C ) :   1.6680
B( 17-C , 33-H ) :   0.9590 B( 18-C , 19-C ) :   1.1730 B( 18-C , 21-H ) :   0.9905
B( 19-C , 20-C ) :   1.6862 B( 19-C , 22-C ) :   1.0230 B( 22-C , 23-H ) :   0.9379
B( 22-C , 24-H ) :   0.9249 B( 22-C , 25-C ) :   1.0717 B( 25-C , 26-H ) :   0.9493
B( 25-C , 27-H ) :   0.9510 B( 25-C , 28-C ) :   1.0821 B( 28-C , 29-H ) :   0.9749
B( 28-C , 30-H ) :   0.9749 B( 28-C , 31-H ) :   0.9718

Dispersion correction           -0.014628437
FINAL SINGLE POINT ENERGY     -1339.857763115721

DIPOLE MOMENT
-------------
                                X             Y             Z
Electronic contribution:    -23.73096      -7.31076      15.89308
Nuclear contribution   :     24.15456       7.41442     -16.33474
                        -----------------------------------------
Total Dipole Moment    :      0.42360       0.10366      -0.44166
                        -----------------------------------------
Magnitude (a.u.)       :      0.62068
Magnitude (Debye)      :      1.57764

Rotational constants in cm-1:     0.017082     0.009288     0.007289
Rotational constants in MHz :   512.108279   278.455182   218.514102

                             ****ORCA TERMINATED NORMALLY****
TOTAL RUN TIME: 0 days 0 hours 0 minutes 36 seconds 233 msec
