                         Program Version 4.2.1 -  RELEASE  -
|  1> ! wB97X-D3 SP def2-SVP
|  2> %pal
|  3> nprocs 16
|  4> end
|  5>
|  6> * xyz 0 1
|  7> S 	 33.4585 	 30.7443 	 56.0777
|  8> C 	 34.667 	 31.9707 	 55.8793
|  9> C 	 35.5901 	 31.5453 	 54.883
| 10> C 	 35.3594 	 30.2335 	 54.3731
| 11> C 	 34.4408 	 29.5514 	 55.0841
| 12> H 	 35.9646 	 29.7686 	 53.5441
| 13> C 	 36.5585 	 32.4701 	 54.2431
| 14> H 	 36.4667 	 33.4926 	 54.6272
| 15> H 	 36.1717 	 32.5266 	 53.2245
| 16> C 	 38.0425 	 32.0773 	 54.3404
| 17> H 	 38.0902 	 31.0106 	 54.0172
| 18> H 	 38.7099 	 32.6589 	 53.6559
| 19> C 	 38.7251 	 32.3198 	 55.6898
| 20> H 	 39.7694 	 32.0465 	 55.694
| 21> H 	 38.5532 	 33.2215 	 56.2894
| 22> H 	 38.384 	 31.6085 	 56.374
| 23> S 	 35.1452 	 26.9617 	 54.2822
| 24> C 	 34.002 	 25.6411 	 54.3681
| 25> C 	 32.8283 	 26.0945 	 54.7719
| 26> C 	 32.7543 	 27.4862 	 54.9969
| 27> C 	 34.0049 	 28.1308 	 54.8661
| 28> H 	 32.0451 	 25.3709 	 54.7284
| 29> C 	 31.528 	 28.2055 	 55.5543
| 30> H 	 31.4259 	 29.1622 	 55.1515
| 31> H 	 31.8704 	 28.3171 	 56.5935
| 32> C 	 30.2244 	 27.3879 	 55.4404
| 33> H 	 30.4721 	 26.3402 	 55.6705
| 34> H 	 30.0259 	 27.3652 	 54.344
| 35> C 	 29.128 	 27.9444 	 56.3727
| 36> H 	 28.9712 	 28.9524 	 56.1131
| 37> H 	 29.363 	 27.939 	 57.4416
| 38> H 	 28.2452 	 27.4022 	 56.2006
| 39> H 	 34.5504 	 32.9227 	 56.3144
| 40> H 	 34.04 	 24.5473 	 54.287
| 41> *
| 42>
| 43>                          ****END OF INPUT****

CARTESIAN COORDINATES (ANGSTROEM)
---------------------------------
  S     33.458500   30.744300   56.077700
  C     34.667000   31.970700   55.879300
  C     35.590100   31.545300   54.883000
  C     35.359400   30.233500   54.373100
  C     34.440800   29.551400   55.084100
  H     35.964600   29.768600   53.544100
  C     36.558500   32.470100   54.243100
  H     36.466700   33.492600   54.627200
  H     36.171700   32.526600   53.224500
  C     38.042500   32.077300   54.340400
  H     38.090200   31.010600   54.017200
  H     38.709900   32.658900   53.655900
  C     38.725100   32.319800   55.689800
  H     39.769400   32.046500   55.694000
  H     38.553200   33.221500   56.289400
  H     38.384000   31.608500   56.374000
  S     35.145200   26.961700   54.282200
  C     34.002000   25.641100   54.368100
  C     32.828300   26.094500   54.771900
  C     32.754300   27.486200   54.996900
  C     34.004900   28.130800   54.866100
  H     32.045100   25.370900   54.728400
  C     31.528000   28.205500   55.554300
  H     31.425900   29.162200   55.151500
  H     31.870400   28.317100   56.593500
  C     30.224400   27.387900   55.440400
  H     30.472100   26.340200   55.670500
  H     30.025900   27.365200   54.344000
  C     29.128000   27.944400   56.372700
  H     28.971200   28.952400   56.113100
  H     29.363000   27.939000   57.441600
  H     28.245200   27.402200   56.200600
  H     34.550400   32.922700   56.314400
  H     34.040000   24.547300   54.287000

 Total Charge           Charge          ....    0
 Multiplicity           Mult            ....    1
 Number of Electrons    NEL             ....  134
 Basis Dimension        Dim             ....  322

ORBITAL ENERGIES
----------------

  NO   OCC          E(Eh)            E(eV)
   0   2.0000     -88.966692     -2420.9068
   1   2.0000     -88.966569     -2420.9034
   2   2.0000     -10.341212      -281.3987
   3   2.0000     -10.330294      -281.1016
   4   2.0000     -10.315966      -280.7117
   5   2.0000     -10.311182      -280.5815
   6   2.0000     -10.304823      -280.4085
   7   2.0000     -10.302577      -280.3474
   8   2.0000     -10.299059      -280.2516
   9   2.0000     -10.292774      -280.0806
  10   2.0000     -10.289894      -280.0022
  11   2.0000     -10.289837      -280.0007
  12   2.0000     -10.284064      -279.8436
  13   2.0000     -10.282502      -279.8011
  14   2.0000     -10.272538      -279.5300
  15   2.0000     -10.268457      -279.4189
  16   2.0000      -8.081143      -219.8991
  17   2.0000      -8.079971      -219.8672
  18   2.0000      -6.039866      -164.3531
  19   2.0000      -6.038742      -164.3225
  20   2.0000      -6.035561      -164.2360
  21   2.0000      -6.034731      -164.2134
  22   2.0000      -6.031804      -164.1337
  23   2.0000      -6.030487      -164.0979
  24   2.0000      -1.007768       -27.4228
  25   2.0000      -0.987249       -26.8644
  26   2.0000      -0.909894       -24.7595
  27   2.0000      -0.907816       -24.7029
  28   2.0000      -0.875045       -23.8112
  29   2.0000      -0.851261       -23.1640
  30   2.0000      -0.844454       -22.9788
  31   2.0000      -0.827361       -22.5136
  32   2.0000      -0.780858       -21.2482
  33   2.0000      -0.769616       -20.9423
  34   2.0000      -0.710801       -19.3419
  35   2.0000      -0.708312       -19.2742
  36   2.0000      -0.693358       -18.8672
  37   2.0000      -0.654264       -17.8034
  38   2.0000      -0.633235       -17.2312
  39   2.0000      -0.625199       -17.0125
  40   2.0000      -0.596269       -16.2253
  41   2.0000      -0.571033       -15.5386
  42   2.0000      -0.564518       -15.3613
  43   2.0000      -0.552129       -15.0242
  44   2.0000      -0.538973       -14.6662
  45   2.0000      -0.529245       -14.4015
  46   2.0000      -0.519213       -14.1285
  47   2.0000      -0.514248       -13.9934
  48   2.0000      -0.508589       -13.8394
  49   2.0000      -0.497614       -13.5408
  50   2.0000      -0.485535       -13.2121
  51   2.0000      -0.481249       -13.0955
  52   2.0000      -0.475925       -12.9506
  53   2.0000      -0.471694       -12.8354
  54   2.0000      -0.461898       -12.5689
  55   2.0000      -0.449613       -12.2346
  56   2.0000      -0.444834       -12.1045
  57   2.0000      -0.438651       -11.9363
  58   2.0000      -0.430511       -11.7148
  59   2.0000      -0.425278       -11.5724
  60   2.0000      -0.418795       -11.3960
  61   2.0000      -0.408002       -11.1023
  62   2.0000      -0.400960       -10.9107
  63   2.0000      -0.365274        -9.9396
  64   2.0000      -0.334331        -9.0976
  65   2.0000      -0.322197        -8.7674
  66   2.0000      -0.283625        -7.7178
  67   0.0000       0.020976         0.5708
  68   0.0000       0.076350         2.0776
  69   0.0000       0.104091         2.8325
  70   0.0000       0.121987         3.3194
  71   0.0000       0.131594         3.5809

MULLIKEN ATOMIC CHARGES
-----------------------
   0 S :    0.064584
   1 C :   -0.086326
   2 C :   -0.099522
   3 C :   -0.021201
   4 C :   -0.094590
   5 H :    0.051424
   6 C :    0.065325
   7 H :    0.013803
   8 H :    0.040950
   9 C :   -0.083468
  10 H :    0.030413
  11 H :    0.036385
  12 C :   -0.034275
  13 H :    0.027965
  14 H :    0.032922
  15 H :    0.006738
  16 S :    0.098062
  17 C :   -0.064878
  18 C :   -0.065442
  19 C :   -0.056960
  20 C :   -0.140735
  21 H :    0.013183
  22 C :    0.038793
  23 H :    0.023667
  24 H :    0.047788
  25 C :   -0.105151
  26 H :    0.031158
  27 H :    0.037819
  28 C :    0.017977
  29 H :    0.017796
  30 H :    0.037356
  31 H :    0.023624
  32 H :    0.042151
  33 H :    0.052665
Sum of atomic charges:    0.0000000

LOEWDIN ATOMIC CHARGES
----------------------
   0 S :    0.383565
   1 C :   -0.196036
   2 C :   -0.059706
   3 C :   -0.075063
   4 C :   -0.150524
   5 H :    0.043810
   6 C :   -0.037840
   7 H :    0.028408
   8 H :    0.039486
   9 C :   -0.043076
  10 H :    0.026908
  11 H :    0.027641
  12 C :   -0.076733
  13 H :    0.029124
  14 H :    0.029877
  15 H :    0.019743
  16 S :    0.412223
  17 C :   -0.191464
  18 C :   -0.084637
  19 C :   -0.056138
  20 C :   -0.202943
  21 H :    0.029252
  22 C :   -0.038378
  23 H :    0.011652
  24 H :    0.034884
  25 C :   -0.040623
  26 H :    0.020659
  27 H :    0.030527
  28 C :   -0.053313
  29 H :    0.020980
  30 H :    0.031282
  31 H :    0.020952
  32 H :    0.020534
  33 H :    0.044968

  Mayer bond orders larger than 0.100000
B(  0-S ,  1-C ) :   1.1297 B(  0-S ,  4-C ) :   1.1254 B(  1-C ,  2-C ) :   1.5831
B(  1-C , 32-H ) :   0.9797 B(  2-C ,  3-C ) :   1.2382 B(  2-C ,  6-C ) :   1.0341
B(  3-C ,  4-C ) :   1.5908 B(  3-C ,  5-H ) :   0.9740 B(  4-C , 20-C ) :   1.0561
B(  6-C ,  7-H ) :   0.9435 B(  6-C ,  8-H ) :   0.9365 B(  6-C ,  9-C ) :   1.0630
B(  9-C , 10-H ) :   0.9563 B(  9-C , 11-H ) :   0.9607 B(  9-C , 12-C ) :   1.0705
B( 12-C , 13-H ) :   0.9708 B( 12-C , 14-H ) :   0.9737 B( 12-C , 15-H ) :   0.9673
B( 16-S , 17-C ) :   1.1405 B( 16-S , 20-C ) :   1.1451 B( 17-C , 18-C ) :   1.6533
B( 17-C , 33-H ) :   0.9513 B( 18-C , 19-C ) :   1.2526 B( 18-C , 21-H ) :   0.9827
B( 19-C , 20-C ) :   1.5544 B( 19-C , 22-C ) :   1.0201 B( 22-C , 23-H ) :   0.9262
B( 22-C , 24-H ) :   0.9394 B( 22-C , 25-C ) :   1.0700 B( 25-C , 26-H ) :   0.9481
B( 25-C , 27-H ) :   0.9591 B( 25-C , 28-C ) :   1.0756 B( 28-C , 29-H ) :   0.9722
B( 28-C , 30-H ) :   0.9756 B( 28-C , 31-H ) :   0.9720

Dispersion correction           -0.013652203
FINAL SINGLE POINT ENERGY     -1339.851737884656

DIPOLE MOMENT
-------------
                                X             Y             Z
Electronic contribution:      1.62759      -7.51835      -2.33779
Nuclear contribution   :     -1.84025       7.57236       2.23491
                        -----------------------------------------
Total Dipole Moment    :     -0.21265       0.05401      -0.10287
                        -----------------------------------------
Magnitude (a.u.)       :      0.24233
Magnitude (Debye)      :      0.61594

Rotational constants in cm-1:     0.023164     0.007588     0.005942
Rotational constants in MHz :   694.435726   227.473900   178.130674

                             ****ORCA TERMINATED NORMALLY****
TOTAL RUN TIME: 0 days 0 hours 0 minutes 35 seconds 572 msec
