                         Program Version 4.2.1 -  RELEASE  -
|  1> ! wB97X-D3 SP def2-SVP
|  2> %pal
|  3> nprocs 16
|  4> end
|  5>
|  6> * xyz 0 1
|  7> S 	 44.4401 	 20.8212 	 84.1334
|  8> C 	 44.1727 	 22.5431 	 83.8264
|  9> C 	 45.2873 	 23.2215 	 83.3604
| 10> C 	 46.3824 	 22.3116 	 83.2125
| 11> C 	 46.1322 	 21.005 	 83.5377
| 12> H 	 47.4069 	 22.5513 	 82.9832
| 13> C 	 45.4542 	 24.6785 	 83.026
| 14> H 	 46.6053 	 24.7665 	 83.0375
| 15> H 	 45.0958 	 25.4102 	 83.7394
| 16> C 	 45.0469 	 25.026 	 81.5251
| 17> H 	 45.5461 	 24.3009 	 80.9613
| 18> H 	 43.9622 	 24.999 	 81.4762
| 19> C 	 45.6322 	 26.3342 	 81.0293
| 20> H 	 45.3639 	 27.2089 	 81.518
| 21> H 	 46.7373 	 26.4619 	 81.1332
| 22> H 	 45.2644 	 26.624 	 80.0707
| 23> S 	 47.5444 	 19.572 	 85.4478
| 24> C 	 48.9371 	 18.655 	 84.9144
| 25> C 	 49.0976 	 18.7262 	 83.5152
| 26> C 	 48.0787 	 19.5373 	 82.886
| 27> C 	 47.1405 	 20.0024 	 83.7478
| 28> H 	 49.9248 	 18.1996 	 83.0995
| 29> C 	 48.1793 	 19.8269 	 81.394
| 30> H 	 48.2648 	 20.8871 	 81.2168
| 31> H 	 47.1308 	 19.703 	 80.9807
| 32> C 	 49.1086 	 19.1545 	 80.4634
| 33> H 	 49.0858 	 18.0064 	 80.3608
| 34> H 	 50.065 	 19.2734 	 80.9092
| 35> C 	 49.0695 	 19.686 	 79.0137
| 36> H 	 49.9104 	 20.3096 	 78.9159
| 37> H 	 48.1685 	 20.3476 	 78.8448
| 38> H 	 49.1206 	 18.8828 	 78.248
| 39> H 	 43.1462 	 22.9056 	 84.0499
| 40> H 	 49.5671 	 18.044 	 85.5892
| 41> *
| 42>
| 43>                          ****END OF INPUT****

CARTESIAN COORDINATES (ANGSTROEM)
---------------------------------
  S     44.440100   20.821200   84.133400
  C     44.172700   22.543100   83.826400
  C     45.287300   23.221500   83.360400
  C     46.382400   22.311600   83.212500
  C     46.132200   21.005000   83.537700
  H     47.406900   22.551300   82.983200
  C     45.454200   24.678500   83.026000
  H     46.605300   24.766500   83.037500
  H     45.095800   25.410200   83.739400
  C     45.046900   25.026000   81.525100
  H     45.546100   24.300900   80.961300
  H     43.962200   24.999000   81.476200
  C     45.632200   26.334200   81.029300
  H     45.363900   27.208900   81.518000
  H     46.737300   26.461900   81.133200
  H     45.264400   26.624000   80.070700
  S     47.544400   19.572000   85.447800
  C     48.937100   18.655000   84.914400
  C     49.097600   18.726200   83.515200
  C     48.078700   19.537300   82.886000
  C     47.140500   20.002400   83.747800
  H     49.924800   18.199600   83.099500
  C     48.179300   19.826900   81.394000
  H     48.264800   20.887100   81.216800
  H     47.130800   19.703000   80.980700
  C     49.108600   19.154500   80.463400
  H     49.085800   18.006400   80.360800
  H     50.065000   19.273400   80.909200
  C     49.069500   19.686000   79.013700
  H     49.910400   20.309600   78.915900
  H     48.168500   20.347600   78.844800
  H     49.120600   18.882800   78.248000
  H     43.146200   22.905600   84.049900
  H     49.567100   18.044000   85.589200

 Total Charge           Charge          ....    0
 Multiplicity           Mult            ....    1
 Number of Electrons    NEL             ....  134
 Basis Dimension        Dim             ....  322

ORBITAL ENERGIES
----------------

  NO   OCC          E(Eh)            E(eV)
   0   2.0000     -88.965148     -2420.8648
   1   2.0000     -88.963991     -2420.8333
   2   2.0000     -10.327256      -281.0189
   3   2.0000     -10.322819      -280.8982
   4   2.0000     -10.322449      -280.8881
   5   2.0000     -10.321807      -280.8706
   6   2.0000     -10.306283      -280.4482
   7   2.0000     -10.306050      -280.4419
   8   2.0000     -10.300993      -280.3043
   9   2.0000     -10.295185      -280.1462
  10   2.0000     -10.294838      -280.1368
  11   2.0000     -10.292070      -280.0615
  12   2.0000     -10.288467      -279.9634
  13   2.0000     -10.287294      -279.9315
  14   2.0000     -10.282735      -279.8074
  15   2.0000     -10.272367      -279.5253
  16   2.0000      -8.079080      -219.8429
  17   2.0000      -8.078056      -219.8151
  18   2.0000      -6.037556      -164.2903
  19   2.0000      -6.036647      -164.2655
  20   2.0000      -6.033808      -164.1883
  21   2.0000      -6.032687      -164.1578
  22   2.0000      -6.029822      -164.0798
  23   2.0000      -6.028724      -164.0499
  24   2.0000      -1.001791       -27.2601
  25   2.0000      -0.977407       -26.5966
  26   2.0000      -0.913641       -24.8614
  27   2.0000      -0.908304       -24.7162
  28   2.0000      -0.870856       -23.6972
  29   2.0000      -0.853814       -23.2335
  30   2.0000      -0.846408       -23.0319
  31   2.0000      -0.810652       -22.0590
  32   2.0000      -0.783808       -21.3285
  33   2.0000      -0.772678       -21.0256
  34   2.0000      -0.710045       -19.3213
  35   2.0000      -0.704340       -19.1661
  36   2.0000      -0.696290       -18.9470
  37   2.0000      -0.654974       -17.8227
  38   2.0000      -0.645803       -17.5732
  39   2.0000      -0.620060       -16.8727
  40   2.0000      -0.601170       -16.3587
  41   2.0000      -0.569266       -15.4905
  42   2.0000      -0.564243       -15.3538
  43   2.0000      -0.559899       -15.2356
  44   2.0000      -0.529287       -14.4026
  45   2.0000      -0.521640       -14.1945
  46   2.0000      -0.517926       -14.0935
  47   2.0000      -0.512419       -13.9436
  48   2.0000      -0.506104       -13.7718
  49   2.0000      -0.493906       -13.4399
  50   2.0000      -0.489083       -13.3086
  51   2.0000      -0.478494       -13.0205
  52   2.0000      -0.472391       -12.8544
  53   2.0000      -0.461148       -12.5485
  54   2.0000      -0.457126       -12.4390
  55   2.0000      -0.454627       -12.3710
  56   2.0000      -0.446008       -12.1365
  57   2.0000      -0.436450       -11.8764
  58   2.0000      -0.433277       -11.7901
  59   2.0000      -0.423444       -11.5225
  60   2.0000      -0.420712       -11.4481
  61   2.0000      -0.418865       -11.3979
  62   2.0000      -0.402175       -10.9438
  63   2.0000      -0.343570        -9.3490
  64   2.0000      -0.329298        -8.9606
  65   2.0000      -0.326996        -8.8980
  66   2.0000      -0.296295        -8.0626
  67   0.0000       0.030424         0.8279
  68   0.0000       0.060230         1.6389
  69   0.0000       0.108917         2.9638
  70   0.0000       0.119230         3.2444
  71   0.0000       0.127241         3.4624

MULLIKEN ATOMIC CHARGES
-----------------------
   0 S :    0.092755
   1 C :   -0.152858
   2 C :   -0.029675
   3 C :    0.029839
   4 C :   -0.185382
   5 H :    0.017663
   6 C :    0.002116
   7 H :    0.026641
   8 H :    0.040481
   9 C :   -0.014578
  10 H :    0.021210
  11 H :    0.038364
  12 C :   -0.027183
  13 H :   -0.004909
  14 H :    0.029913
  15 H :    0.022789
  16 S :    0.103291
  17 C :   -0.107223
  18 C :   -0.050828
  19 C :   -0.004122
  20 C :   -0.135865
  21 H :    0.015870
  22 C :    0.047422
  23 H :    0.018852
  24 H :    0.034718
  25 C :   -0.085652
  26 H :    0.036740
  27 H :    0.016958
  28 C :   -0.043511
  29 H :    0.025610
  30 H :    0.041568
  31 H :    0.044613
  32 H :    0.065256
  33 H :    0.069117
Sum of atomic charges:    0.0000000

LOEWDIN ATOMIC CHARGES
----------------------
   0 S :    0.371737
   1 C :   -0.181844
   2 C :   -0.069590
   3 C :   -0.049631
   4 C :   -0.184196
   5 H :    0.031232
   6 C :   -0.033143
   7 H :    0.037388
   8 H :    0.027712
   9 C :   -0.024282
  10 H :    0.021120
  11 H :    0.026694
  12 C :   -0.074862
  13 H :    0.014980
  14 H :    0.032585
  15 H :    0.026690
  16 S :    0.386573
  17 C :   -0.183852
  18 C :   -0.074225
  19 C :   -0.048260
  20 C :   -0.192115
  21 H :    0.027418
  22 C :   -0.044046
  23 H :    0.030813
  24 H :    0.040917
  25 C :   -0.053786
  26 H :    0.031051
  27 H :    0.014878
  28 C :   -0.061074
  29 H :    0.020877
  30 H :    0.033088
  31 H :    0.032717
  32 H :    0.031308
  33 H :    0.035130

  Mayer bond orders larger than 0.100000
B(  0-S ,  1-C ) :   1.1456 B(  0-S ,  4-C ) :   1.1226 B(  1-C ,  2-C ) :   1.6020
B(  1-C , 32-H ) :   0.9685 B(  2-C ,  3-C ) :   1.2330 B(  2-C ,  6-C ) :   1.0148
B(  3-C ,  4-C ) :   1.6141 B(  3-C ,  5-H ) :   0.9809 B(  4-C , 20-C ) :   1.0424
B(  6-C ,  7-H ) :   0.9458 B(  6-C ,  8-H ) :   0.9486 B(  6-C ,  9-C ) :   1.0517
B(  9-C , 10-H ) :   0.9555 B(  9-C , 11-H ) :   0.9582 B(  9-C , 12-C ) :   1.0849
B( 12-C , 13-H ) :   0.9661 B( 12-C , 14-H ) :   0.9715 B( 12-C , 15-H ) :   0.9691
B( 16-S , 17-C ) :   1.1624 B( 16-S , 20-C ) :   1.1124 B( 17-C , 18-C ) :   1.6139
B( 17-C , 33-H ) :   0.9602 B( 18-C , 19-C ) :   1.2118 B( 18-C , 21-H ) :   0.9950
B( 19-C , 20-C ) :   1.6420 B( 19-C , 22-C ) :   1.0307 B( 22-C , 23-H ) :   0.9238
B( 22-C , 24-H ) :   0.9205 B( 22-C , 25-C ) :   1.0785 B( 25-C , 26-H ) :   0.9576
B( 25-C , 27-H ) :   0.9486 B( 25-C , 28-C ) :   1.0554 B( 28-C , 29-H ) :   0.9757
B( 28-C , 30-H ) :   0.9793 B( 28-C , 31-H ) :   0.9781

Dispersion correction           -0.013441778
FINAL SINGLE POINT ENERGY     -1339.855634134468

DIPOLE MOMENT
-------------
                                X             Y             Z
Electronic contribution:     -8.05913     -15.77767      25.47153
Nuclear contribution   :      8.42780      16.26990     -25.91889
                        -----------------------------------------
Total Dipole Moment    :      0.36867       0.49223      -0.44736
                        -----------------------------------------
Magnitude (a.u.)       :      0.76048
Magnitude (Debye)      :      1.93300

Rotational constants in cm-1:     0.015702     0.008647     0.006298
Rotational constants in MHz :   470.720538   259.238674   188.823086

                             ****ORCA TERMINATED NORMALLY****
TOTAL RUN TIME: 0 days 0 hours 0 minutes 27 seconds 89 msec
