                         Program Version 4.2.1 -  RELEASE  -
|  1> ! wB97X-D3 SP def2-SVP
|  2> %pal
|  3> nprocs 16
|  4> end
|  5>
|  6> * xyz 0 1
|  7> S 	 33.3659 	 -2.59564 	 66.5439
|  8> C 	 33.3402 	 -0.861851 	 66.4532
|  9> C 	 33.2556 	 -0.331749 	 67.71
| 10> C 	 32.8868 	 -1.23824 	 68.7291
| 11> C 	 32.9301 	 -2.55061 	 68.2179
| 12> H 	 32.6124 	 -0.893646 	 69.6662
| 13> C 	 33.2109 	 1.20242 	 67.9697
| 14> H 	 32.4814 	 1.39506 	 68.7485
| 15> H 	 32.6865 	 1.71293 	 67.1003
| 16> C 	 34.5455 	 1.93193 	 68.1581
| 17> H 	 35.306 	 1.5003 	 67.5335
| 18> H 	 34.3991 	 3.01221 	 67.8711
| 19> C 	 35.0714 	 1.87605 	 69.5881
| 20> H 	 34.2019 	 2.03846 	 70.3157
| 21> H 	 35.3873 	 0.865267 	 69.7738
| 22> H 	 35.9524 	 2.57426 	 69.5448
| 23> S 	 32.2876 	 -5.1826 	 67.9614
| 24> C 	 31.807 	 -6.01133 	 69.4306
| 25> C 	 32.1299 	 -5.38867 	 70.5665
| 26> C 	 32.6443 	 -4.11728 	 70.3052
| 27> C 	 32.6796 	 -3.7924 	 68.9308
| 28> H 	 31.9623 	 -5.82319 	 71.5568
| 29> C 	 33.0015 	 -3.12018 	 71.4058
| 30> H 	 32.6737 	 -3.58438 	 72.3409
| 31> H 	 32.4201 	 -2.25177 	 71.3129
| 32> C 	 34.456 	 -2.67644 	 71.4684
| 33> H 	 34.6239 	 -1.98146 	 70.6412
| 34> H 	 35.0629 	 -3.52408 	 71.1695
| 35> C 	 35.0325 	 -2.04343 	 72.7954
| 36> H 	 36.0432 	 -1.67372 	 72.777
| 37> H 	 35.0007 	 -2.80692 	 73.5236
| 38> H 	 34.4879 	 -1.16046 	 73.022
| 39> H 	 33.5799 	 -0.264724 	 65.6213
| 40> H 	 31.3161 	 -6.97133 	 69.5234
| 41> *
| 42>
| 43>                          ****END OF INPUT****

CARTESIAN COORDINATES (ANGSTROEM)
---------------------------------
  S     33.365900   -2.595640   66.543900
  C     33.340200   -0.861851   66.453200
  C     33.255600   -0.331749   67.710000
  C     32.886800   -1.238240   68.729100
  C     32.930100   -2.550610   68.217900
  H     32.612400   -0.893646   69.666200
  C     33.210900    1.202420   67.969700
  H     32.481400    1.395060   68.748500
  H     32.686500    1.712930   67.100300
  C     34.545500    1.931930   68.158100
  H     35.306000    1.500300   67.533500
  H     34.399100    3.012210   67.871100
  C     35.071400    1.876050   69.588100
  H     34.201900    2.038460   70.315700
  H     35.387300    0.865267   69.773800
  H     35.952400    2.574260   69.544800
  S     32.287600   -5.182600   67.961400
  C     31.807000   -6.011330   69.430600
  C     32.129900   -5.388670   70.566500
  C     32.644300   -4.117280   70.305200
  C     32.679600   -3.792400   68.930800
  H     31.962300   -5.823190   71.556800
  C     33.001500   -3.120180   71.405800
  H     32.673700   -3.584380   72.340900
  H     32.420100   -2.251770   71.312900
  C     34.456000   -2.676440   71.468400
  H     34.623900   -1.981460   70.641200
  H     35.062900   -3.524080   71.169500
  C     35.032500   -2.043430   72.795400
  H     36.043200   -1.673720   72.777000
  H     35.000700   -2.806920   73.523600
  H     34.487900   -1.160460   73.022000
  H     33.579900   -0.264724   65.621300
  H     31.316100   -6.971330   69.523400

 Total Charge           Charge          ....    0
 Multiplicity           Mult            ....    1
 Number of Electrons    NEL             ....  134
 Basis Dimension        Dim             ....  322

ORBITAL ENERGIES
----------------

  NO   OCC          E(Eh)            E(eV)
   0   2.0000     -88.970280     -2421.0044
   1   2.0000     -88.968674     -2420.9607
   2   2.0000     -10.334289      -281.2103
   3   2.0000     -10.326510      -280.9986
   4   2.0000     -10.312458      -280.6163
   5   2.0000     -10.306665      -280.4586
   6   2.0000     -10.303388      -280.3695
   7   2.0000     -10.297362      -280.2055
   8   2.0000     -10.294226      -280.1201
   9   2.0000     -10.291149      -280.0364
  10   2.0000     -10.289853      -280.0011
  11   2.0000     -10.287381      -279.9339
  12   2.0000     -10.286139      -279.9001
  13   2.0000     -10.283339      -279.8239
  14   2.0000     -10.281264      -279.7674
  15   2.0000     -10.273384      -279.5530
  16   2.0000      -8.085477      -220.0170
  17   2.0000      -8.083679      -219.9681
  18   2.0000      -6.043988      -164.4653
  19   2.0000      -6.042177      -164.4160
  20   2.0000      -6.039999      -164.3567
  21   2.0000      -6.038342      -164.3116
  22   2.0000      -6.036158      -164.2522
  23   2.0000      -6.034254      -164.2004
  24   2.0000      -1.014382       -27.6027
  25   2.0000      -0.991269       -26.9738
  26   2.0000      -0.910203       -24.7679
  27   2.0000      -0.905863       -24.6498
  28   2.0000      -0.876113       -23.8402
  29   2.0000      -0.853197       -23.2167
  30   2.0000      -0.847723       -23.0677
  31   2.0000      -0.817575       -22.2473
  32   2.0000      -0.784956       -21.3597
  33   2.0000      -0.771948       -21.0058
  34   2.0000      -0.713420       -19.4131
  35   2.0000      -0.695282       -18.9196
  36   2.0000      -0.691713       -18.8225
  37   2.0000      -0.666260       -18.1299
  38   2.0000      -0.641129       -17.4460
  39   2.0000      -0.623770       -16.9736
  40   2.0000      -0.597341       -16.2545
  41   2.0000      -0.573950       -15.6180
  42   2.0000      -0.564116       -15.3504
  43   2.0000      -0.550974       -14.9928
  44   2.0000      -0.536175       -14.5901
  45   2.0000      -0.520364       -14.1598
  46   2.0000      -0.518274       -14.1030
  47   2.0000      -0.511940       -13.9306
  48   2.0000      -0.505448       -13.7539
  49   2.0000      -0.502200       -13.6656
  50   2.0000      -0.494137       -13.4461
  51   2.0000      -0.485858       -13.2209
  52   2.0000      -0.473837       -12.8938
  53   2.0000      -0.469037       -12.7632
  54   2.0000      -0.463820       -12.6212
  55   2.0000      -0.457376       -12.4458
  56   2.0000      -0.445695       -12.1280
  57   2.0000      -0.438250       -11.9254
  58   2.0000      -0.431772       -11.7491
  59   2.0000      -0.418087       -11.3767
  60   2.0000      -0.414282       -11.2732
  61   2.0000      -0.411395       -11.1946
  62   2.0000      -0.410166       -11.1612
  63   2.0000      -0.362396        -9.8613
  64   2.0000      -0.341276        -9.2866
  65   2.0000      -0.331484        -9.0201
  66   2.0000      -0.277788        -7.5590
  67   0.0000       0.014170         0.3856
  68   0.0000       0.081536         2.2187
  69   0.0000       0.093285         2.5384
  70   0.0000       0.121188         3.2977
  71   0.0000       0.129968         3.5366

MULLIKEN ATOMIC CHARGES
-----------------------
   0 S :    0.106993
   1 C :   -0.083329
   2 C :   -0.079500
   3 C :    0.023415
   4 C :   -0.089598
   5 H :   -0.024631
   6 C :   -0.004431
   7 H :    0.018036
   8 H :    0.032613
   9 C :   -0.062227
  10 H :    0.026716
  11 H :    0.036078
  12 C :   -0.065033
  13 H :    0.036170
  14 H :    0.030401
  15 H :    0.051936
  16 S :    0.106008
  17 C :   -0.066618
  18 C :   -0.036904
  19 C :   -0.071832
  20 C :   -0.125888
  21 H :    0.023024
  22 C :    0.107760
  23 H :    0.000834
  24 H :    0.014551
  25 C :   -0.099418
  26 H :    0.029320
  27 H :    0.024744
  28 C :   -0.008478
  29 H :    0.028486
  30 H :    0.025817
  31 H :    0.019706
  32 H :    0.029992
  33 H :    0.045285
Sum of atomic charges:    0.0000000

LOEWDIN ATOMIC CHARGES
----------------------
   0 S :    0.419130
   1 C :   -0.198684
   2 C :   -0.060419
   3 C :   -0.061684
   4 C :   -0.183287
   5 H :    0.017656
   6 C :   -0.039373
   7 H :    0.023886
   8 H :    0.037314
   9 C :   -0.046554
  10 H :    0.022724
  11 H :    0.027336
  12 C :   -0.072223
  13 H :    0.030358
  14 H :    0.019677
  15 H :    0.036466
  16 S :    0.404470
  17 C :   -0.176605
  18 C :   -0.073389
  19 C :   -0.050035
  20 C :   -0.199068
  21 H :    0.039786
  22 C :   -0.027362
  23 H :    0.026741
  24 H :    0.020423
  25 C :   -0.043879
  26 H :    0.021417
  27 H :    0.022444
  28 C :   -0.056389
  29 H :    0.028620
  30 H :    0.019208
  31 H :    0.020127
  32 H :    0.021050
  33 H :    0.030118

  Mayer bond orders larger than 0.100000
B(  0-S ,  1-C ) :   1.1246 B(  0-S ,  4-C ) :   1.1732 B(  1-C ,  2-C ) :   1.6142
B(  1-C , 32-H ) :   0.9697 B(  2-C ,  3-C ) :   1.2699 B(  2-C ,  6-C ) :   1.0115
B(  3-C ,  4-C ) :   1.4977 B(  3-C ,  5-H ) :   1.0055 B(  4-C , 20-C ) :   1.0951
B(  6-C ,  7-H ) :   0.9516 B(  6-C ,  8-H ) :   0.9508 B(  6-C ,  9-C ) :   1.0586
B(  9-C , 10-H ) :   0.9547 B(  9-C , 11-H ) :   0.9585 B(  9-C , 12-C ) :   1.0752
B( 12-C , 13-H ) :   0.9747 B( 12-C , 14-H ) :   0.9773 B( 12-C , 15-H ) :   0.9725
B( 16-S , 17-C ) :   1.1466 B( 16-S , 20-C ) :   1.1316 B( 17-C , 18-C ) :   1.6260
B( 17-C , 33-H ) :   0.9587 B( 18-C , 19-C ) :   1.2665 B( 18-C , 21-H ) :   0.9879
B( 19-C , 20-C ) :   1.5561 B( 19-C , 22-C ) :   1.0440 B( 22-C , 23-H ) :   0.9294
B( 22-C , 24-H ) :   0.9276 B( 22-C , 25-C ) :   1.0510 B( 25-C , 26-H ) :   0.9495
B( 25-C , 27-H ) :   0.9569 B( 25-C , 28-C ) :   1.0810 B( 28-C , 29-H ) :   0.9745
B( 28-C , 30-H ) :   0.9784 B( 28-C , 31-H ) :   0.9751

Dispersion correction           -0.014811198
FINAL SINGLE POINT ENERGY     -1339.863535561873

DIPOLE MOMENT
-------------
                                X             Y             Z
Electronic contribution:    -10.81274     -23.01785     -20.00129
Nuclear contribution   :     10.82667      23.35054      20.45220
                        -----------------------------------------
Total Dipole Moment    :      0.01392       0.33269       0.45091
                        -----------------------------------------
Magnitude (a.u.)       :      0.56053
Magnitude (Debye)      :      1.42476

Rotational constants in cm-1:     0.018365     0.010024     0.006875
Rotational constants in MHz :   550.578316   300.517399   206.104948

                             ****ORCA TERMINATED NORMALLY****
TOTAL RUN TIME: 0 days 0 hours 0 minutes 31 seconds 718 msec
