                         Program Version 4.2.1 -  RELEASE  -
|  1> ! wB97X-D3 SP def2-SVP
|  2> %pal
|  3> nprocs 16
|  4> end
|  5>
|  6> * xyz 0 1
|  7> S 	 -13.073 	 39.6497 	 32.4477
|  8> C 	 -13.5926 	 38.7166 	 33.8121
|  9> C 	 -13.8165 	 37.374 	 33.4818
| 10> C 	 -13.7597 	 37.1492 	 32.0944
| 11> C 	 -13.4647 	 38.2467 	 31.3656
| 12> H 	 -13.8169 	 36.1432 	 31.6433
| 13> C 	 -14.0488 	 36.347 	 34.6146
| 14> H 	 -14.763 	 36.7319 	 35.3833
| 15> H 	 -13.1813 	 36.2495 	 35.1606
| 16> C 	 -14.547 	 34.9711 	 34.2749
| 17> H 	 -13.7036 	 34.436 	 33.7229
| 18> H 	 -14.6586 	 34.4201 	 35.1969
| 19> C 	 -15.9714 	 34.9523 	 33.5925
| 20> H 	 -16.329 	 33.8925 	 33.5492
| 21> H 	 -16.691 	 35.4839 	 34.1005
| 22> H 	 -15.8977 	 35.2447 	 32.5634
| 23> S 	 -11.6822 	 39.0586 	 29.5367
| 24> C 	 -11.96 	 38.6315 	 27.8201
| 25> C 	 -13.1347 	 37.9544 	 27.6235
| 26> C 	 -13.7627 	 37.5704 	 28.8999
| 27> C 	 -13.1608 	 38.2464 	 29.9794
| 28> H 	 -13.5051 	 37.7226 	 26.6209
| 29> C 	 -15.1146 	 36.8013 	 28.8949
| 30> H 	 -15.5298 	 37.1372 	 29.8512
| 31> H 	 -14.8374 	 35.7195 	 28.851
| 32> C 	 -16.2472 	 37.1775 	 27.9127
| 33> H 	 -15.8127 	 37.0899 	 26.871
| 34> H 	 -16.513 	 38.2641 	 27.9656
| 35> C 	 -17.5014 	 36.3426 	 28.0321
| 36> H 	 -18.0295 	 36.5116 	 28.9721
| 37> H 	 -17.3207 	 35.2365 	 28.0144
| 38> H 	 -18.1649 	 36.6512 	 27.2036
| 39> H 	 -13.5443 	 39.0975 	 34.8458
| 40> H 	 -11.3416 	 39.007 	 27.0599
| 41> *
| 42>
| 43>                          ****END OF INPUT****

CARTESIAN COORDINATES (ANGSTROEM)
---------------------------------
  S    -13.073000   39.649700   32.447700
  C    -13.592600   38.716600   33.812100
  C    -13.816500   37.374000   33.481800
  C    -13.759700   37.149200   32.094400
  C    -13.464700   38.246700   31.365600
  H    -13.816900   36.143200   31.643300
  C    -14.048800   36.347000   34.614600
  H    -14.763000   36.731900   35.383300
  H    -13.181300   36.249500   35.160600
  C    -14.547000   34.971100   34.274900
  H    -13.703600   34.436000   33.722900
  H    -14.658600   34.420100   35.196900
  C    -15.971400   34.952300   33.592500
  H    -16.329000   33.892500   33.549200
  H    -16.691000   35.483900   34.100500
  H    -15.897700   35.244700   32.563400
  S    -11.682200   39.058600   29.536700
  C    -11.960000   38.631500   27.820100
  C    -13.134700   37.954400   27.623500
  C    -13.762700   37.570400   28.899900
  C    -13.160800   38.246400   29.979400
  H    -13.505100   37.722600   26.620900
  C    -15.114600   36.801300   28.894900
  H    -15.529800   37.137200   29.851200
  H    -14.837400   35.719500   28.851000
  C    -16.247200   37.177500   27.912700
  H    -15.812700   37.089900   26.871000
  H    -16.513000   38.264100   27.965600
  C    -17.501400   36.342600   28.032100
  H    -18.029500   36.511600   28.972100
  H    -17.320700   35.236500   28.014400
  H    -18.164900   36.651200   27.203600
  H    -13.544300   39.097500   34.845800
  H    -11.341600   39.007000   27.059900

 Total Charge           Charge          ....    0
 Multiplicity           Mult            ....    1
 Number of Electrons    NEL             ....  134
 Basis Dimension        Dim             ....  322

ORBITAL ENERGIES
----------------

  NO   OCC          E(Eh)            E(eV)
   0   2.0000     -88.968527     -2420.9567
   1   2.0000     -88.963461     -2420.8189
   2   2.0000     -10.326954      -281.0107
   3   2.0000     -10.326503      -280.9984
   4   2.0000     -10.314976      -280.6848
   5   2.0000     -10.313233      -280.6373
   6   2.0000     -10.309117      -280.5253
   7   2.0000     -10.302396      -280.3425
   8   2.0000     -10.297689      -280.2144
   9   2.0000     -10.297162      -280.2000
  10   2.0000     -10.294690      -280.1328
  11   2.0000     -10.294088      -280.1164
  12   2.0000     -10.292102      -280.0623
  13   2.0000     -10.287916      -279.9484
  14   2.0000     -10.284085      -279.8442
  15   2.0000     -10.275766      -279.6178
  16   2.0000      -8.082522      -219.9366
  17   2.0000      -8.077956      -219.8124
  18   2.0000      -6.041048      -164.3853
  19   2.0000      -6.037322      -164.2839
  20   2.0000      -6.036594      -164.2641
  21   2.0000      -6.033120      -164.1695
  22   2.0000      -6.032641      -164.1565
  23   2.0000      -6.028460      -164.0427
  24   2.0000      -1.005740       -27.3676
  25   2.0000      -0.977273       -26.5930
  26   2.0000      -0.910071       -24.7643
  27   2.0000      -0.903338       -24.5811
  28   2.0000      -0.873567       -23.7710
  29   2.0000      -0.851356       -23.1666
  30   2.0000      -0.841097       -22.8874
  31   2.0000      -0.817063       -22.2334
  32   2.0000      -0.785283       -21.3686
  33   2.0000      -0.768697       -20.9173
  34   2.0000      -0.709817       -19.3151
  35   2.0000      -0.693748       -18.8778
  36   2.0000      -0.689302       -18.7569
  37   2.0000      -0.655680       -17.8420
  38   2.0000      -0.637608       -17.3502
  39   2.0000      -0.625498       -17.0207
  40   2.0000      -0.591174       -16.0867
  41   2.0000      -0.566240       -15.4082
  42   2.0000      -0.561455       -15.2780
  43   2.0000      -0.553401       -15.0588
  44   2.0000      -0.536311       -14.5938
  45   2.0000      -0.526463       -14.3258
  46   2.0000      -0.517384       -14.0787
  47   2.0000      -0.510115       -13.8809
  48   2.0000      -0.502447       -13.6723
  49   2.0000      -0.496994       -13.5239
  50   2.0000      -0.491038       -13.3618
  51   2.0000      -0.483657       -13.1610
  52   2.0000      -0.473439       -12.8829
  53   2.0000      -0.465495       -12.6668
  54   2.0000      -0.459305       -12.4983
  55   2.0000      -0.450311       -12.2536
  56   2.0000      -0.445500       -12.1227
  57   2.0000      -0.434193       -11.8150
  58   2.0000      -0.430645       -11.7184
  59   2.0000      -0.424121       -11.5409
  60   2.0000      -0.418177       -11.3792
  61   2.0000      -0.416613       -11.3366
  62   2.0000      -0.402224       -10.9451
  63   2.0000      -0.358117        -9.7449
  64   2.0000      -0.333544        -9.0762
  65   2.0000      -0.326631        -8.8881
  66   2.0000      -0.281397        -7.6572
  67   0.0000       0.023040         0.6269
  68   0.0000       0.068381         1.8607
  69   0.0000       0.106658         2.9023
  70   0.0000       0.120380         3.2757
  71   0.0000       0.130143         3.5414

MULLIKEN ATOMIC CHARGES
-----------------------
   0 S :    0.104973
   1 C :   -0.130412
   2 C :   -0.075143
   3 C :   -0.008053
   4 C :   -0.123468
   5 H :    0.036707
   6 C :    0.074532
   7 H :    0.028302
   8 H :    0.018143
   9 C :   -0.107829
  10 H :    0.038642
  11 H :    0.026716
  12 C :   -0.022564
  13 H :    0.031969
  14 H :    0.022288
  15 H :    0.025578
  16 S :    0.088481
  17 C :   -0.075890
  18 C :   -0.025946
  19 C :   -0.061705
  20 C :   -0.138835
  21 H :    0.030174
  22 C :    0.026730
  23 H :    0.036710
  24 H :    0.050594
  25 C :   -0.101067
  26 H :    0.025449
  27 H :    0.042969
  28 C :   -0.052656
  29 H :    0.034252
  30 H :    0.036324
  31 H :    0.045132
  32 H :    0.059054
  33 H :    0.039849
Sum of atomic charges:   -0.0000000

LOEWDIN ATOMIC CHARGES
----------------------
   0 S :    0.385852
   1 C :   -0.200558
   2 C :   -0.061286
   3 C :   -0.062507
   4 C :   -0.178523
   5 H :    0.041514
   6 C :   -0.035098
   7 H :    0.036175
   8 H :    0.022460
   9 C :   -0.047229
  10 H :    0.029194
  11 H :    0.025503
  12 C :   -0.056832
  13 H :    0.032412
  14 H :    0.015035
  15 H :    0.020539
  16 S :    0.383387
  17 C :   -0.167226
  18 C :   -0.064330
  19 C :   -0.059229
  20 C :   -0.192736
  21 H :    0.034536
  22 C :   -0.042591
  23 H :    0.032938
  24 H :    0.037038
  25 C :   -0.050744
  26 H :    0.020678
  27 H :    0.032869
  28 C :   -0.069437
  29 H :    0.025179
  30 H :    0.029458
  31 H :    0.034285
  32 H :    0.032798
  33 H :    0.016477

  Mayer bond orders larger than 0.100000
B(  0-S ,  1-C ) :   1.1430 B(  0-S ,  4-C ) :   1.1245 B(  1-C ,  2-C ) :   1.6037
B(  1-C , 32-H ) :   0.9679 B(  2-C ,  3-C ) :   1.2725 B(  2-C ,  6-C ) :   0.9911
B(  3-C ,  4-C ) :   1.5588 B(  3-C ,  5-H ) :   0.9840 B(  4-C , 20-C ) :   1.0829
B(  6-C ,  7-H ) :   0.9415 B(  6-C ,  8-H ) :   0.9336 B(  6-C ,  9-C ) :   1.1026
B(  9-C , 10-H ) :   0.9498 B(  9-C , 11-H ) :   0.9509 B(  9-C , 12-C ) :   1.0683
B( 12-C , 13-H ) :   0.9753 B( 12-C , 14-H ) :   0.9758 B( 12-C , 15-H ) :   0.9770
B( 16-S , 17-C ) :   1.1215 B( 16-S , 20-C ) :   1.1320 B( 17-C , 18-C ) :   1.6557
B( 17-C , 33-H ) :   0.9724 B( 18-C , 19-C ) :   1.1953 B( 18-C , 21-H ) :   0.9843
B( 19-C , 20-C ) :   1.6108 B( 19-C , 22-C ) :   1.0300 B( 22-C , 23-H ) :   0.9452
B( 22-C , 24-H ) :   0.9304 B( 22-C , 25-C ) :   1.0669 B( 25-C , 26-H ) :   0.9487
B( 25-C , 27-H ) :   0.9539 B( 25-C , 28-C ) :   1.0866 B( 28-C , 29-H ) :   0.9740
B( 28-C , 30-H ) :   0.9730 B( 28-C , 31-H ) :   0.9711

Dispersion correction           -0.014063188
FINAL SINGLE POINT ENERGY     -1339.868856488347

DIPOLE MOMENT
-------------
                                X             Y             Z
Electronic contribution:     22.27849      21.29649      -0.85776
Nuclear contribution   :    -22.62635     -21.82430       0.95738
                        -----------------------------------------
Total Dipole Moment    :     -0.34786      -0.52780       0.09962
                        -----------------------------------------
Magnitude (a.u.)       :      0.63993
Magnitude (Debye)      :      1.62657

Rotational constants in cm-1:     0.015281     0.010104     0.006802
Rotational constants in MHz :   458.101081   302.910604   203.922897

                             ****ORCA TERMINATED NORMALLY****
TOTAL RUN TIME: 0 days 0 hours 0 minutes 32 seconds 177 msec
