                         Program Version 4.2.1 -  RELEASE  -
|  1> ! wB97X-D3 SP def2-SVP
|  2> %pal
|  3> nprocs 16
|  4> end
|  5>
|  6> * xyz 0 1
|  7> S 	 -40.2526 	 -0.724855 	 98.0708
|  8> C 	 -39.4739 	 0.401423 	 99.1334
|  9> C 	 -39.358 	 1.67712 	 98.5498
| 10> C 	 -40.0425 	 1.69473 	 97.2777
| 11> C 	 -40.6004 	 0.523954 	 96.875
| 12> H 	 -40.2063 	 2.55128 	 96.6587
| 13> C 	 -38.5947 	 2.86303 	 99.171
| 14> H 	 -38.5141 	 2.84015 	 100.256
| 15> H 	 -39.267 	 3.68178 	 99.1078
| 16> C 	 -37.3194 	 3.32475 	 98.4641
| 17> H 	 -36.6601 	 2.4968 	 98.4945
| 18> H 	 -37.4393 	 3.60956 	 97.4266
| 19> C 	 -36.5952 	 4.42766 	 99.1892
| 20> H 	 -37.0415 	 5.44113 	 99.288
| 21> H 	 -36.4072 	 4.0834 	 100.194
| 22> H 	 -35.5856 	 4.53218 	 98.7351
| 23> S 	 -42.7593 	 -0.849339 	 95.6791
| 24> C 	 -42.7317 	 -1.06884 	 93.9626
| 25> C 	 -41.7113 	 -0.317989 	 93.3564
| 26> C 	 -40.9123 	 0.422524 	 94.2856
| 27> C 	 -41.2509 	 0.169683 	 95.6133
| 28> H 	 -41.6008 	 -0.405375 	 92.3056
| 29> C 	 -39.6023 	 1.18918 	 93.8343
| 30> H 	 -38.8771 	 1.18995 	 94.6021
| 31> H 	 -40.0561 	 2.14391 	 93.8403
| 32> C 	 -39.0162 	 0.794551 	 92.531
| 33> H 	 -39.5465 	 1.23515 	 91.6755
| 34> H 	 -39.0338 	 -0.232864 	 92.3584
| 35> C 	 -37.5225 	 1.19626 	 92.2571
| 36> H 	 -36.8398 	 0.76625 	 93.0192
| 37> H 	 -37.2865 	 2.22097 	 92.472
| 38> H 	 -37.2365 	 1.01914 	 91.2039
| 39> H 	 -39.0964 	 0.20492 	 100.128
| 40> H 	 -43.2757 	 -1.82037 	 93.4316
| 41> *
| 42>
| 43>                          ****END OF INPUT****

CARTESIAN COORDINATES (ANGSTROEM)
---------------------------------
  S    -40.252600   -0.724855   98.070800
  C    -39.473900    0.401423   99.133400
  C    -39.358000    1.677120   98.549800
  C    -40.042500    1.694730   97.277700
  C    -40.600400    0.523954   96.875000
  H    -40.206300    2.551280   96.658700
  C    -38.594700    2.863030   99.171000
  H    -38.514100    2.840150  100.256000
  H    -39.267000    3.681780   99.107800
  C    -37.319400    3.324750   98.464100
  H    -36.660100    2.496800   98.494500
  H    -37.439300    3.609560   97.426600
  C    -36.595200    4.427660   99.189200
  H    -37.041500    5.441130   99.288000
  H    -36.407200    4.083400  100.194000
  H    -35.585600    4.532180   98.735100
  S    -42.759300   -0.849339   95.679100
  C    -42.731700   -1.068840   93.962600
  C    -41.711300   -0.317989   93.356400
  C    -40.912300    0.422524   94.285600
  C    -41.250900    0.169683   95.613300
  H    -41.600800   -0.405375   92.305600
  C    -39.602300    1.189180   93.834300
  H    -38.877100    1.189950   94.602100
  H    -40.056100    2.143910   93.840300
  C    -39.016200    0.794551   92.531000
  H    -39.546500    1.235150   91.675500
  H    -39.033800   -0.232864   92.358400
  C    -37.522500    1.196260   92.257100
  H    -36.839800    0.766250   93.019200
  H    -37.286500    2.220970   92.472000
  H    -37.236500    1.019140   91.203900
  H    -39.096400    0.204920  100.128000
  H    -43.275700   -1.820370   93.431600

 Total Charge           Charge          ....    0
 Multiplicity           Mult            ....    1
 Number of Electrons    NEL             ....  134
 Basis Dimension        Dim             ....  322

ORBITAL ENERGIES
----------------

  NO   OCC          E(Eh)            E(eV)
   0   2.0000     -88.965272     -2420.8681
   1   2.0000     -88.964243     -2420.8401
   2   2.0000     -10.331755      -281.1413
   3   2.0000     -10.328327      -281.0481
   4   2.0000     -10.317940      -280.7654
   5   2.0000     -10.315735      -280.7054
   6   2.0000     -10.312182      -280.6087
   7   2.0000     -10.307587      -280.4837
   8   2.0000     -10.294938      -280.1395
   9   2.0000     -10.293117      -280.0900
  10   2.0000     -10.291786      -280.0537
  11   2.0000     -10.289769      -279.9988
  12   2.0000     -10.284049      -279.8432
  13   2.0000     -10.283272      -279.8220
  14   2.0000     -10.282574      -279.8031
  15   2.0000     -10.280581      -279.7488
  16   2.0000      -8.079241      -219.8473
  17   2.0000      -8.079071      -219.8427
  18   2.0000      -6.037748      -164.2955
  19   2.0000      -6.037586      -164.2911
  20   2.0000      -6.033830      -164.1889
  21   2.0000      -6.033527      -164.1806
  22   2.0000      -6.030070      -164.0865
  23   2.0000      -6.029834      -164.0801
  24   2.0000      -1.001715       -27.2581
  25   2.0000      -0.979001       -26.6400
  26   2.0000      -0.914633       -24.8884
  27   2.0000      -0.911303       -24.7978
  28   2.0000      -0.869226       -23.6529
  29   2.0000      -0.851451       -23.1692
  30   2.0000      -0.843720       -22.9588
  31   2.0000      -0.814730       -22.1699
  32   2.0000      -0.787564       -21.4307
  33   2.0000      -0.773702       -21.0535
  34   2.0000      -0.712179       -19.3794
  35   2.0000      -0.704825       -19.1793
  36   2.0000      -0.696341       -18.9484
  37   2.0000      -0.655361       -17.8333
  38   2.0000      -0.646252       -17.5854
  39   2.0000      -0.619918       -16.8688
  40   2.0000      -0.595604       -16.2072
  41   2.0000      -0.571994       -15.5647
  42   2.0000      -0.569927       -15.5085
  43   2.0000      -0.565369       -15.3845
  44   2.0000      -0.535835       -14.5808
  45   2.0000      -0.526841       -14.3361
  46   2.0000      -0.519830       -14.1453
  47   2.0000      -0.508054       -13.8248
  48   2.0000      -0.503039       -13.6884
  49   2.0000      -0.499569       -13.5940
  50   2.0000      -0.488873       -13.3029
  51   2.0000      -0.484494       -13.1838
  52   2.0000      -0.474028       -12.8990
  53   2.0000      -0.460893       -12.5415
  54   2.0000      -0.458315       -12.4714
  55   2.0000      -0.451353       -12.2819
  56   2.0000      -0.448060       -12.1923
  57   2.0000      -0.440823       -11.9954
  58   2.0000      -0.437773       -11.9124
  59   2.0000      -0.422660       -11.5012
  60   2.0000      -0.420587       -11.4447
  61   2.0000      -0.417142       -11.3510
  62   2.0000      -0.408017       -11.1027
  63   2.0000      -0.346216        -9.4210
  64   2.0000      -0.333855        -9.0847
  65   2.0000      -0.326426        -8.8825
  66   2.0000      -0.291244        -7.9251
  67   0.0000       0.025627         0.6974
  68   0.0000       0.073065         1.9882
  69   0.0000       0.112633         3.0649
  70   0.0000       0.125598         3.4177
  71   0.0000       0.132255         3.5988

MULLIKEN ATOMIC CHARGES
-----------------------
   0 S :    0.111802
   1 C :   -0.113541
   2 C :   -0.087972
   3 C :    0.020624
   4 C :   -0.134177
   5 H :    0.002334
   6 C :    0.077507
   7 H :    0.012986
   8 H :    0.008482
   9 C :   -0.034513
  10 H :    0.018479
  11 H :    0.028626
  12 C :   -0.068957
  13 H :    0.041838
  14 H :    0.017626
  15 H :    0.036620
  16 S :    0.101266
  17 C :   -0.075343
  18 C :   -0.054813
  19 C :   -0.031752
  20 C :   -0.186838
  21 H :    0.011061
  22 C :    0.129587
  23 H :    0.022845
  24 H :    0.028512
  25 C :   -0.067047
  26 H :    0.028022
  27 H :    0.027358
  28 C :   -0.063710
  29 H :    0.031854
  30 H :    0.014077
  31 H :    0.045535
  32 H :    0.045841
  33 H :    0.055782
Sum of atomic charges:   -0.0000000

LOEWDIN ATOMIC CHARGES
----------------------
   0 S :    0.406961
   1 C :   -0.200145
   2 C :   -0.059047
   3 C :   -0.062776
   4 C :   -0.191487
   5 H :    0.027835
   6 C :   -0.035973
   7 H :    0.031128
   8 H :    0.026973
   9 C :   -0.036677
  10 H :    0.022087
  11 H :    0.023886
  12 C :   -0.068796
  13 H :    0.026728
  14 H :    0.020886
  15 H :    0.032592
  16 S :    0.384485
  17 C :   -0.183247
  18 C :   -0.073880
  19 C :   -0.039809
  20 C :   -0.188329
  21 H :    0.026078
  22 C :   -0.020783
  23 H :    0.025643
  24 H :    0.034709
  25 C :   -0.042058
  26 H :    0.027996
  27 H :    0.018837
  28 C :   -0.068090
  29 H :    0.027659
  30 H :    0.018456
  31 H :    0.032105
  32 H :    0.028749
  33 H :    0.027303

  Mayer bond orders larger than 0.100000
B(  0-S ,  1-C ) :   1.1487 B(  0-S ,  4-C ) :   1.1387 B(  1-C ,  2-C ) :   1.6045
B(  1-C , 32-H ) :   0.9693 B(  2-C ,  3-C ) :   1.2266 B(  2-C ,  6-C ) :   1.0247
B(  3-C ,  4-C ) :   1.5911 B(  3-C ,  5-H ) :   1.0041 B(  4-C , 20-C ) :   1.0491
B(  6-C ,  7-H ) :   0.9427 B(  6-C ,  8-H ) :   0.9305 B(  6-C ,  9-C ) :   1.0609
B(  9-C , 10-H ) :   0.9523 B(  9-C , 11-H ) :   0.9533 B(  9-C , 12-C ) :   1.0904
B( 12-C , 13-H ) :   0.9764 B( 12-C , 14-H ) :   0.9717 B( 12-C , 15-H ) :   0.9722
B( 16-S , 17-C ) :   1.1628 B( 16-S , 20-C ) :   1.1240 B( 17-C , 18-C ) :   1.6016
B( 17-C , 20-C ) :   0.1013 B( 17-C , 33-H ) :   0.9652 B( 18-C , 19-C ) :   1.2414
B( 18-C , 21-H ) :   0.9933 B( 19-C , 20-C ) :   1.6027 B( 19-C , 22-C ) :   0.9915
B( 22-C , 23-H ) :   0.9482 B( 22-C , 24-H ) :   0.9162 B( 22-C , 25-C ) :   1.0830
B( 25-C , 26-H ) :   0.9421 B( 25-C , 27-H ) :   0.9589 B( 25-C , 28-C ) :   1.0840
B( 28-C , 29-H ) :   0.9731 B( 28-C , 30-H ) :   0.9746 B( 28-C , 31-H ) :   0.9757

Dispersion correction           -0.013405160
FINAL SINGLE POINT ENERGY     -1339.867972941729

DIPOLE MOMENT
-------------
                                X             Y             Z
Electronic contribution:    -24.43001     -19.97684       6.38448
Nuclear contribution   :     24.98085      20.42526      -6.66453
                        -----------------------------------------
Total Dipole Moment    :      0.55084       0.44841      -0.28005
                        -----------------------------------------
Magnitude (a.u.)       :      0.76349
Magnitude (Debye)      :      1.94065

Rotational constants in cm-1:     0.016726     0.008520     0.006089
Rotational constants in MHz :   501.431254   255.419793   182.541240

                             ****ORCA TERMINATED NORMALLY****
TOTAL RUN TIME: 0 days 0 hours 0 minutes 29 seconds 191 msec
