                         Program Version 4.2.1 -  RELEASE  -
|  1> ! wB97X-D3 SP def2-SVP
|  2> %pal
|  3> nprocs 16
|  4> end
|  5>
|  6> * xyz 0 1
|  7> S 	 -13.2621 	 69.2854 	 54.8763
|  8> C 	 -13.9601 	 67.8099 	 55.4204
|  9> C 	 -13.2793 	 66.7624 	 54.8779
| 10> C 	 -12.1096 	 67.1482 	 54.2112
| 11> C 	 -11.9199 	 68.5246 	 54.073
| 12> H 	 -11.5382 	 66.3605 	 53.7013
| 13> C 	 -13.7923 	 65.3481 	 54.8897
| 14> H 	 -13.6816 	 64.9529 	 53.8559
| 15> H 	 -14.8487 	 65.2316 	 55.175
| 16> C 	 -13.0295 	 64.4647 	 55.8474
| 17> H 	 -11.9978 	 64.3466 	 55.4897
| 18> H 	 -12.9949 	 64.7974 	 56.922
| 19> C 	 -13.6397 	 63.0061 	 55.8286
| 20> H 	 -14.7146 	 63.1025 	 56.1422
| 21> H 	 -13.5771 	 62.5906 	 54.8484
| 22> H 	 -13.1766 	 62.3041 	 56.5107
| 23> S 	 -11.0583 	 70.9717 	 53.4743
| 24> C 	 -9.49166 	 71.221 	 52.7415
| 25> C 	 -8.96156 	 69.9417 	 52.4485
| 26> C 	 -9.79293 	 68.8506 	 52.7233
| 27> C 	 -10.8914 	 69.2344 	 53.4358
| 28> H 	 -7.99609 	 69.9004 	 51.9343
| 29> C 	 -9.41567 	 67.4391 	 52.2629
| 30> H 	 -9.49233 	 66.7703 	 53.0886
| 31> H 	 -8.34172 	 67.334 	 51.978
| 32> C 	 -10.2064 	 66.858 	 51.0063
| 33> H 	 -9.93815 	 67.6228 	 50.2099
| 34> H 	 -11.327 	 66.9188 	 51.0897
| 35> C 	 -9.77547 	 65.4509 	 50.628
| 36> H 	 -10.0916 	 64.8034 	 51.4414
| 37> H 	 -8.60863 	 65.4208 	 50.7371
| 38> H 	 -10.2666 	 65.1249 	 49.7838
| 39> H 	 -14.924 	 67.7001 	 55.8684
| 40> H 	 -8.97768 	 72.1951 	 52.4081
| 41> *
| 42>
| 43>                          ****END OF INPUT****

CARTESIAN COORDINATES (ANGSTROEM)
---------------------------------
  S    -13.262100   69.285400   54.876300
  C    -13.960100   67.809900   55.420400
  C    -13.279300   66.762400   54.877900
  C    -12.109600   67.148200   54.211200
  C    -11.919900   68.524600   54.073000
  H    -11.538200   66.360500   53.701300
  C    -13.792300   65.348100   54.889700
  H    -13.681600   64.952900   53.855900
  H    -14.848700   65.231600   55.175000
  C    -13.029500   64.464700   55.847400
  H    -11.997800   64.346600   55.489700
  H    -12.994900   64.797400   56.922000
  C    -13.639700   63.006100   55.828600
  H    -14.714600   63.102500   56.142200
  H    -13.577100   62.590600   54.848400
  H    -13.176600   62.304100   56.510700
  S    -11.058300   70.971700   53.474300
  C     -9.491660   71.221000   52.741500
  C     -8.961560   69.941700   52.448500
  C     -9.792930   68.850600   52.723300
  C    -10.891400   69.234400   53.435800
  H     -7.996090   69.900400   51.934300
  C     -9.415670   67.439100   52.262900
  H     -9.492330   66.770300   53.088600
  H     -8.341720   67.334000   51.978000
  C    -10.206400   66.858000   51.006300
  H     -9.938150   67.622800   50.209900
  H    -11.327000   66.918800   51.089700
  C     -9.775470   65.450900   50.628000
  H    -10.091600   64.803400   51.441400
  H     -8.608630   65.420800   50.737100
  H    -10.266600   65.124900   49.783800
  H    -14.924000   67.700100   55.868400
  H     -8.977680   72.195100   52.408100

 Total Charge           Charge          ....    0
 Multiplicity           Mult            ....    1
 Number of Electrons    NEL             ....  134
 Basis Dimension        Dim             ....  322

ORBITAL ENERGIES
----------------

  NO   OCC          E(Eh)            E(eV)
   0   2.0000     -88.968031     -2420.9432
   1   2.0000     -88.964494     -2420.8469
   2   2.0000     -10.330370      -281.1037
   3   2.0000     -10.327350      -281.0215
   4   2.0000     -10.325729      -280.9774
   5   2.0000     -10.306890      -280.4647
   6   2.0000     -10.303754      -280.3794
   7   2.0000     -10.300296      -280.2853
   8   2.0000     -10.298029      -280.2236
   9   2.0000     -10.295957      -280.1672
  10   2.0000     -10.294855      -280.1372
  11   2.0000     -10.292970      -280.0859
  12   2.0000     -10.291949      -280.0582
  13   2.0000     -10.291029      -280.0331
  14   2.0000     -10.285222      -279.8751
  15   2.0000     -10.280141      -279.7369
  16   2.0000      -8.082892      -219.9467
  17   2.0000      -8.079956      -219.8668
  18   2.0000      -6.041452      -164.3963
  19   2.0000      -6.038541      -164.3171
  20   2.0000      -6.037371      -164.2852
  21   2.0000      -6.034285      -164.2013
  22   2.0000      -6.033585      -164.1822
  23   2.0000      -6.030661      -164.1026
  24   2.0000      -1.018440       -27.7132
  25   2.0000      -0.991850       -26.9896
  26   2.0000      -0.916005       -24.9258
  27   2.0000      -0.905850       -24.6494
  28   2.0000      -0.876062       -23.8389
  29   2.0000      -0.859437       -23.3865
  30   2.0000      -0.844531       -22.9809
  31   2.0000      -0.812450       -22.1079
  32   2.0000      -0.783697       -21.3255
  33   2.0000      -0.773180       -21.0393
  34   2.0000      -0.711834       -19.3700
  35   2.0000      -0.695415       -18.9232
  36   2.0000      -0.692661       -18.8483
  37   2.0000      -0.668745       -18.1975
  38   2.0000      -0.634814       -17.2742
  39   2.0000      -0.629925       -17.1411
  40   2.0000      -0.598436       -16.2843
  41   2.0000      -0.569734       -15.5032
  42   2.0000      -0.565251       -15.3813
  43   2.0000      -0.557096       -15.1593
  44   2.0000      -0.536091       -14.5878
  45   2.0000      -0.525955       -14.3120
  46   2.0000      -0.522142       -14.2082
  47   2.0000      -0.512369       -13.9423
  48   2.0000      -0.511289       -13.9129
  49   2.0000      -0.500285       -13.6135
  50   2.0000      -0.491544       -13.3756
  51   2.0000      -0.490147       -13.3376
  52   2.0000      -0.469397       -12.7729
  53   2.0000      -0.463977       -12.6254
  54   2.0000      -0.460578       -12.5330
  55   2.0000      -0.447590       -12.1795
  56   2.0000      -0.444102       -12.0846
  57   2.0000      -0.438249       -11.9254
  58   2.0000      -0.434880       -11.8337
  59   2.0000      -0.426371       -11.6022
  60   2.0000      -0.421965       -11.4823
  61   2.0000      -0.413553       -11.2534
  62   2.0000      -0.406820       -11.0701
  63   2.0000      -0.367768       -10.0075
  64   2.0000      -0.338398        -9.2083
  65   2.0000      -0.327571        -8.9137
  66   2.0000      -0.277250        -7.5443
  67   0.0000       0.012059         0.3281
  68   0.0000       0.089611         2.4384
  69   0.0000       0.097289         2.6474
  70   0.0000       0.116363         3.1664
  71   0.0000       0.133124         3.6225

MULLIKEN ATOMIC CHARGES
-----------------------
   0 S :    0.098015
   1 C :   -0.100638
   2 C :   -0.073325
   3 C :   -0.019592
   4 C :   -0.089003
   5 H :    0.002332
   6 C :    0.048161
   7 H :    0.034898
   8 H :    0.018142
   9 C :   -0.107658
  10 H :    0.029003
  11 H :    0.046966
  12 C :   -0.052386
  13 H :    0.031548
  14 H :    0.024368
  15 H :    0.036323
  16 S :    0.101423
  17 C :   -0.115511
  18 C :   -0.055052
  19 C :   -0.039146
  20 C :   -0.096738
  21 H :    0.020269
  22 C :    0.038337
  23 H :    0.019423
  24 H :    0.020994
  25 C :   -0.125136
  26 H :    0.036899
  27 H :    0.045115
  28 C :   -0.000498
  29 H :    0.016976
  30 H :    0.039820
  31 H :    0.033291
  32 H :    0.041006
  33 H :    0.091376
Sum of atomic charges:   -0.0000000

LOEWDIN ATOMIC CHARGES
----------------------
   0 S :    0.418135
   1 C :   -0.202678
   2 C :   -0.067712
   3 C :   -0.073734
   4 C :   -0.189863
   5 H :    0.029245
   6 C :   -0.033032
   7 H :    0.036402
   8 H :    0.029333
   9 C :   -0.042535
  10 H :    0.020747
  11 H :    0.031075
  12 C :   -0.067553
  13 H :    0.026748
  14 H :    0.018102
  15 H :    0.023566
  16 S :    0.412865
  17 C :   -0.207991
  18 C :   -0.072352
  19 C :   -0.060633
  20 C :   -0.187744
  21 H :    0.031866
  22 C :   -0.030637
  23 H :    0.018624
  24 H :    0.033576
  25 C :   -0.048313
  26 H :    0.028175
  27 H :    0.026694
  28 C :   -0.063608
  29 H :    0.023582
  30 H :    0.039322
  31 H :    0.018766
  32 H :    0.027486
  33 H :    0.054074

  Mayer bond orders larger than 0.100000
B(  0-S ,  1-C ) :   1.1380 B(  0-S ,  4-C ) :   1.1514 B(  1-C ,  2-C ) :   1.5917
B(  1-C , 32-H ) :   0.9683 B(  2-C ,  3-C ) :   1.3039 B(  2-C ,  6-C ) :   1.0209
B(  3-C ,  4-C ) :   1.5043 B(  3-C ,  5-H ) :   0.9835 B(  4-C , 20-C ) :   1.1507
B(  6-C ,  7-H ) :   0.9389 B(  6-C ,  8-H ) :   0.9461 B(  6-C ,  9-C ) :   1.0598
B(  9-C , 10-H ) :   0.9557 B(  9-C , 11-H ) :   0.9590 B(  9-C , 12-C ) :   1.0772
B( 12-C , 13-H ) :   0.9753 B( 12-C , 14-H ) :   0.9755 B( 12-C , 15-H ) :   0.9766
B( 16-S , 17-C ) :   1.1540 B( 16-S , 20-C ) :   1.1342 B( 17-C , 18-C ) :   1.5790
B( 17-C , 20-C ) :   0.1092 B( 17-C , 33-H ) :   0.9588 B( 18-C , 19-C ) :   1.2810
B( 18-C , 21-H ) :   0.9839 B( 19-C , 20-C ) :   1.5517 B( 19-C , 22-C ) :   1.0436
B( 22-C , 23-H ) :   0.9333 B( 22-C , 24-H ) :   0.9340 B( 22-C , 25-C ) :   1.0421
B( 25-C , 26-H ) :   0.9538 B( 25-C , 27-H ) :   0.9569 B( 25-C , 28-C ) :   1.0798
B( 28-C , 29-H ) :   0.9709 B( 28-C , 30-H ) :   0.9687 B( 28-C , 31-H ) :   0.9708

Dispersion correction           -0.013901082
FINAL SINGLE POINT ENERGY     -1339.871154203390

DIPOLE MOMENT
-------------
                                X             Y             Z
Electronic contribution:     -2.58735      32.42363       5.30093
Nuclear contribution   :      2.73129     -33.06278      -5.65499
                        -----------------------------------------
Total Dipole Moment    :      0.14394      -0.63915      -0.35406
                        -----------------------------------------
Magnitude (a.u.)       :      0.74471
Magnitude (Debye)      :      1.89290

Rotational constants in cm-1:     0.018146     0.009149     0.006427
Rotational constants in MHz :   544.010469   274.272293   192.667544

                             ****ORCA TERMINATED NORMALLY****
TOTAL RUN TIME: 0 days 0 hours 0 minutes 33 seconds 812 msec
