                         Program Version 4.2.1 -  RELEASE  -
|  1> ! wB97X-D3 SP def2-SVP
|  2> %pal
|  3> nprocs 16
|  4> end
|  5>
|  6> * xyz 0 1
|  7> S 	 5.69156 	 -21.855 	 86.5889
|  8> C 	 4.08522 	 -22.1783 	 85.9465
|  9> C 	 3.82715 	 -21.3668 	 84.8631
| 10> C 	 4.92418 	 -20.4939 	 84.6187
| 11> C 	 5.95344 	 -20.5442 	 85.5503
| 12> H 	 4.9618 	 -19.7558 	 83.8244
| 13> C 	 2.61257 	 -21.5466 	 84.0384
| 14> H 	 2.43522 	 -20.5811 	 83.7163
| 15> H 	 1.71515 	 -21.9347 	 84.5739
| 16> C 	 2.8972 	 -22.3567 	 82.7543
| 17> H 	 3.49074 	 -21.7819 	 82.082
| 18> H 	 3.38206 	 -23.3068 	 82.9349
| 19> C 	 1.55111 	 -22.7511 	 82.1748
| 20> H 	 1.65421 	 -23.3436 	 81.2445
| 21> H 	 1.16044 	 -23.3802 	 82.9815
| 22> H 	 0.926917 	 -21.8913 	 81.9592
| 23> S 	 8.66243 	 -20.7019 	 84.8439
| 24> C 	 9.62151 	 -19.232 	 85.005
| 25> C 	 8.8792 	 -18.215 	 85.5524
| 26> C 	 7.49887 	 -18.5432 	 85.8593
| 27> C 	 7.21201 	 -19.8303 	 85.4841
| 28> H 	 9.43444 	 -17.3341 	 85.6436
| 29> C 	 6.43337 	 -17.5309 	 86.33
| 30> H 	 7.17721 	 -16.7271 	 86.246
| 31> H 	 5.99273 	 -17.6187 	 87.3349
| 32> C 	 5.31798 	 -17.4151 	 85.3127
| 33> H 	 4.48183 	 -18.033 	 85.7874
| 34> H 	 5.56699 	 -17.6771 	 84.2789
| 35> C 	 4.66861 	 -16.0996 	 85.2285
| 36> H 	 4.1155 	 -16.0205 	 86.2004
| 37> H 	 3.8858 	 -15.954 	 84.4395
| 38> H 	 5.36554 	 -15.2455 	 85.0998
| 39> H 	 3.4574 	 -22.9802 	 86.3325
| 40> H 	 10.6761 	 -19.1018 	 84.7598
| 41> *
| 42>
| 43>                          ****END OF INPUT****

CARTESIAN COORDINATES (ANGSTROEM)
---------------------------------
  S      5.691560  -21.855000   86.588900
  C      4.085220  -22.178300   85.946500
  C      3.827150  -21.366800   84.863100
  C      4.924180  -20.493900   84.618700
  C      5.953440  -20.544200   85.550300
  H      4.961800  -19.755800   83.824400
  C      2.612570  -21.546600   84.038400
  H      2.435220  -20.581100   83.716300
  H      1.715150  -21.934700   84.573900
  C      2.897200  -22.356700   82.754300
  H      3.490740  -21.781900   82.082000
  H      3.382060  -23.306800   82.934900
  C      1.551110  -22.751100   82.174800
  H      1.654210  -23.343600   81.244500
  H      1.160440  -23.380200   82.981500
  H      0.926917  -21.891300   81.959200
  S      8.662430  -20.701900   84.843900
  C      9.621510  -19.232000   85.005000
  C      8.879200  -18.215000   85.552400
  C      7.498870  -18.543200   85.859300
  C      7.212010  -19.830300   85.484100
  H      9.434440  -17.334100   85.643600
  C      6.433370  -17.530900   86.330000
  H      7.177210  -16.727100   86.246000
  H      5.992730  -17.618700   87.334900
  C      5.317980  -17.415100   85.312700
  H      4.481830  -18.033000   85.787400
  H      5.566990  -17.677100   84.278900
  C      4.668610  -16.099600   85.228500
  H      4.115500  -16.020500   86.200400
  H      3.885800  -15.954000   84.439500
  H      5.365540  -15.245500   85.099800
  H      3.457400  -22.980200   86.332500
  H     10.676100  -19.101800   84.759800

 Total Charge           Charge          ....    0
 Multiplicity           Mult            ....    1
 Number of Electrons    NEL             ....  134
 Basis Dimension        Dim             ....  322

ORBITAL ENERGIES
----------------

  NO   OCC          E(Eh)            E(eV)
   0   2.0000     -88.963211     -2420.8120
   1   2.0000     -88.961846     -2420.7749
   2   2.0000     -10.325197      -280.9629
   3   2.0000     -10.321018      -280.8492
   4   2.0000     -10.317905      -280.7645
   5   2.0000     -10.310463      -280.5620
   6   2.0000     -10.307862      -280.4912
   7   2.0000     -10.296456      -280.1808
   8   2.0000     -10.296320      -280.1771
   9   2.0000     -10.291740      -280.0525
  10   2.0000     -10.291425      -280.0439
  11   2.0000     -10.286813      -279.9184
  12   2.0000     -10.282764      -279.8082
  13   2.0000     -10.280740      -279.7531
  14   2.0000     -10.277898      -279.6758
  15   2.0000     -10.277768      -279.6723
  16   2.0000      -8.077503      -219.8000
  17   2.0000      -8.076997      -219.7863
  18   2.0000      -6.035815      -164.2429
  19   2.0000      -6.035588      -164.2367
  20   2.0000      -6.031758      -164.1325
  21   2.0000      -6.031727      -164.1316
  22   2.0000      -6.028538      -164.0449
  23   2.0000      -6.027629      -164.0201
  24   2.0000      -1.007791       -27.4234
  25   2.0000      -0.981652       -26.7121
  26   2.0000      -0.921879       -25.0856
  27   2.0000      -0.915946       -24.9242
  28   2.0000      -0.871899       -23.7256
  29   2.0000      -0.852255       -23.1911
  30   2.0000      -0.847242       -23.0546
  31   2.0000      -0.814332       -22.1591
  32   2.0000      -0.782991       -21.3063
  33   2.0000      -0.770471       -20.9656
  34   2.0000      -0.707464       -19.2511
  35   2.0000      -0.698387       -19.0041
  36   2.0000      -0.683042       -18.5865
  37   2.0000      -0.656737       -17.8707
  38   2.0000      -0.645058       -17.5529
  39   2.0000      -0.619092       -16.8464
  40   2.0000      -0.603856       -16.4318
  41   2.0000      -0.578611       -15.7448
  42   2.0000      -0.568265       -15.4633
  43   2.0000      -0.564187       -15.3523
  44   2.0000      -0.530372       -14.4322
  45   2.0000      -0.526037       -14.3142
  46   2.0000      -0.516860       -14.0645
  47   2.0000      -0.513616       -13.9762
  48   2.0000      -0.507642       -13.8136
  49   2.0000      -0.505676       -13.7602
  50   2.0000      -0.490555       -13.3487
  51   2.0000      -0.477628       -12.9969
  52   2.0000      -0.470543       -12.8041
  53   2.0000      -0.462512       -12.5856
  54   2.0000      -0.458072       -12.4648
  55   2.0000      -0.446504       -12.1500
  56   2.0000      -0.440651       -11.9907
  57   2.0000      -0.438276       -11.9261
  58   2.0000      -0.432598       -11.7716
  59   2.0000      -0.422980       -11.5099
  60   2.0000      -0.415804       -11.3146
  61   2.0000      -0.413332       -11.2473
  62   2.0000      -0.400980       -10.9112
  63   2.0000      -0.333158        -9.0657
  64   2.0000      -0.328004        -8.9254
  65   2.0000      -0.324467        -8.8292
  66   2.0000      -0.304466        -8.2849
  67   0.0000       0.042301         1.1511
  68   0.0000       0.055754         1.5171
  69   0.0000       0.119721         3.2578
  70   0.0000       0.127538         3.4705
  71   0.0000       0.129015         3.5107

MULLIKEN ATOMIC CHARGES
-----------------------
   0 S :    0.116624
   1 C :   -0.141890
   2 C :   -0.075331
   3 C :    0.046940
   4 C :   -0.178301
   5 H :    0.000912
   6 C :    0.087857
   7 H :    0.000181
   8 H :    0.031721
   9 C :   -0.057955
  10 H :    0.022382
  11 H :    0.028152
  12 C :   -0.054657
  13 H :    0.039539
  14 H :    0.031335
  15 H :    0.030246
  16 S :    0.105112
  17 C :   -0.099429
  18 C :   -0.037214
  19 C :   -0.015543
  20 C :   -0.180218
  21 H :    0.000138
  22 C :    0.104165
  23 H :    0.015103
  24 H :    0.053505
  25 C :   -0.107179
  26 H :    0.058942
  27 H :    0.042172
  28 C :   -0.068844
  29 H :    0.022716
  30 H :    0.038246
  31 H :    0.029740
  32 H :    0.050107
  33 H :    0.060726
Sum of atomic charges:   -0.0000000

LOEWDIN ATOMIC CHARGES
----------------------
   0 S :    0.430129
   1 C :   -0.196017
   2 C :   -0.065892
   3 C :   -0.053599
   4 C :   -0.223594
   5 H :    0.025627
   6 C :   -0.026872
   7 H :    0.022673
   8 H :    0.035708
   9 C :   -0.030107
  10 H :    0.017035
  11 H :    0.023514
  12 C :   -0.064025
  13 H :    0.027347
  14 H :    0.026604
  15 H :    0.020863
  16 S :    0.371449
  17 C :   -0.179049
  18 C :   -0.076983
  19 C :   -0.048131
  20 C :   -0.180912
  21 H :    0.023633
  22 C :   -0.026434
  23 H :    0.032065
  24 H :    0.040412
  25 C :   -0.055374
  26 H :    0.042994
  27 H :    0.023137
  28 C :   -0.074339
  29 H :    0.026139
  30 H :    0.028819
  31 H :    0.019974
  32 H :    0.028140
  33 H :    0.035065

  Mayer bond orders larger than 0.100000
B(  0-S ,  1-C ) :   1.1532 B(  0-S ,  4-C ) :   1.1821 B(  1-C ,  2-C ) :   1.5668
B(  1-C ,  4-C ) :   0.1002 B(  1-C , 32-H ) :   0.9738 B(  2-C ,  3-C ) :   1.2708
B(  2-C ,  6-C ) :   1.0292 B(  3-C ,  4-C ) :   1.5430 B(  3-C ,  5-H ) :   0.9914
B(  4-C , 20-C ) :   1.0324 B(  6-C ,  7-H ) :   0.9150 B(  6-C ,  8-H ) :   0.9505
B(  6-C ,  9-C ) :   1.0614 B(  9-C , 10-H ) :   0.9518 B(  9-C , 11-H ) :   0.9631
B(  9-C , 12-C ) :   1.0794 B( 12-C , 13-H ) :   0.9735 B( 12-C , 14-H ) :   0.9795
B( 12-C , 15-H ) :   0.9732 B( 16-S , 17-C ) :   1.1353 B( 16-S , 20-C ) :   1.1262
B( 17-C , 18-C ) :   1.6709 B( 17-C , 33-H ) :   0.9600 B( 18-C , 19-C ) :   1.2012
B( 18-C , 21-H ) :   0.9918 B( 19-C , 20-C ) :   1.6360 B( 19-C , 22-C ) :   1.0020
B( 22-C , 23-H ) :   0.9412 B( 22-C , 24-H ) :   0.9327 B( 22-C , 25-C ) :   1.0658
B( 25-C , 26-H ) :   0.9464 B( 25-C , 27-H ) :   0.9567 B( 25-C , 28-C ) :   1.0814
B( 28-C , 29-H ) :   0.9759 B( 28-C , 30-H ) :   0.9739 B( 28-C , 31-H ) :   0.9720

Dispersion correction           -0.014533299
FINAL SINGLE POINT ENERGY     -1339.854029774177

DIPOLE MOMENT
-------------
                                X             Y             Z
Electronic contribution:     22.36927     -10.08954      10.98677
Nuclear contribution   :    -22.74120      10.43493     -11.28604
                        -----------------------------------------
Total Dipole Moment    :     -0.37192       0.34539      -0.29927
                        -----------------------------------------
Magnitude (a.u.)       :      0.58922
Magnitude (Debye)      :      1.49769

Rotational constants in cm-1:     0.019121     0.008503     0.007106
Rotational constants in MHz :   573.220875   254.909347   213.027131

                             ****ORCA TERMINATED NORMALLY****
TOTAL RUN TIME: 0 days 0 hours 0 minutes 32 seconds 373 msec
