                         Program Version 4.2.1 -  RELEASE  -
|  1> ! wB97X-D3 SP def2-SVP
|  2> %pal
|  3> nprocs 16
|  4> end
|  5>
|  6> * xyz 0 1
|  7> S 	 -44.1456 	 51.0228 	 105.907
|  8> C 	 -43.5941 	 49.6587 	 104.955
|  9> C 	 -42.3819 	 50.0527 	 104.323
| 10> C 	 -41.7803 	 51.1622 	 105.014
| 11> C 	 -42.6067 	 51.8881 	 105.794
| 12> H 	 -40.7896 	 51.4703 	 104.835
| 13> C 	 -41.6743 	 49.2885 	 103.193
| 14> H 	 -42.1789 	 48.3576 	 103.202
| 15> H 	 -40.5852 	 49.0951 	 103.499
| 16> C 	 -41.8283 	 49.8762 	 101.78
| 17> H 	 -41.4468 	 50.8713 	 101.848
| 18> H 	 -41.2065 	 49.3809 	 101.043
| 19> C 	 -43.2777 	 49.9808 	 101.361
| 20> H 	 -43.7109 	 48.9882 	 101.575
| 21> H 	 -43.7593 	 50.7074 	 101.973
| 22> H 	 -43.4397 	 50.1948 	 100.289
| 23> S 	 -43.0466 	 53.2262 	 107.995
| 24> C 	 -42.3957 	 54.9038 	 108.259
| 25> C 	 -41.7544 	 55.3488 	 107.093
| 26> C 	 -41.6794 	 54.2958 	 106.136
| 27> C 	 -42.2828 	 53.081 	 106.494
| 28> H 	 -41.2588 	 56.3577 	 107.063
| 29> C 	 -41.1071 	 54.4688 	 104.789
| 30> H 	 -40.5284 	 53.6474 	 104.512
| 31> H 	 -40.343 	 55.1475 	 104.979
| 32> C 	 -42.025 	 54.7174 	 103.611
| 33> H 	 -42.7256 	 53.8854 	 103.593
| 34> H 	 -41.5007 	 54.526 	 102.666
| 35> C 	 -42.8567 	 56.1158 	 103.705
| 36> H 	 -43.9172 	 55.8753 	 103.572
| 37> H 	 -42.6976 	 56.7963 	 102.816
| 38> H 	 -42.8055 	 56.6605 	 104.668
| 39> H 	 -44.1156 	 48.8497 	 104.64
| 40> H 	 -42.4999 	 55.3584 	 109.243
| 41> *
| 42>
| 43>                          ****END OF INPUT****

CARTESIAN COORDINATES (ANGSTROEM)
---------------------------------
  S    -44.145600   51.022800  105.907000
  C    -43.594100   49.658700  104.955000
  C    -42.381900   50.052700  104.323000
  C    -41.780300   51.162200  105.014000
  C    -42.606700   51.888100  105.794000
  H    -40.789600   51.470300  104.835000
  C    -41.674300   49.288500  103.193000
  H    -42.178900   48.357600  103.202000
  H    -40.585200   49.095100  103.499000
  C    -41.828300   49.876200  101.780000
  H    -41.446800   50.871300  101.848000
  H    -41.206500   49.380900  101.043000
  C    -43.277700   49.980800  101.361000
  H    -43.710900   48.988200  101.575000
  H    -43.759300   50.707400  101.973000
  H    -43.439700   50.194800  100.289000
  S    -43.046600   53.226200  107.995000
  C    -42.395700   54.903800  108.259000
  C    -41.754400   55.348800  107.093000
  C    -41.679400   54.295800  106.136000
  C    -42.282800   53.081000  106.494000
  H    -41.258800   56.357700  107.063000
  C    -41.107100   54.468800  104.789000
  H    -40.528400   53.647400  104.512000
  H    -40.343000   55.147500  104.979000
  C    -42.025000   54.717400  103.611000
  H    -42.725600   53.885400  103.593000
  H    -41.500700   54.526000  102.666000
  C    -42.856700   56.115800  103.705000
  H    -43.917200   55.875300  103.572000
  H    -42.697600   56.796300  102.816000
  H    -42.805500   56.660500  104.668000
  H    -44.115600   48.849700  104.640000
  H    -42.499900   55.358400  109.243000

 Total Charge           Charge          ....    0
 Multiplicity           Mult            ....    1
 Number of Electrons    NEL             ....  134
 Basis Dimension        Dim             ....  322

ORBITAL ENERGIES
----------------

  NO   OCC          E(Eh)            E(eV)
   0   2.0000     -88.968089     -2420.9448
   1   2.0000     -88.964235     -2420.8399
   2   2.0000     -10.328417      -281.0505
   3   2.0000     -10.328199      -281.0446
   4   2.0000     -10.322770      -280.8969
   5   2.0000     -10.314214      -280.6640
   6   2.0000     -10.308661      -280.5129
   7   2.0000     -10.307403      -280.4787
   8   2.0000     -10.303153      -280.3630
   9   2.0000     -10.296874      -280.1922
  10   2.0000     -10.291143      -280.0362
  11   2.0000     -10.286689      -279.9150
  12   2.0000     -10.285028      -279.8698
  13   2.0000     -10.283628      -279.8317
  14   2.0000     -10.275863      -279.6204
  15   2.0000     -10.273058      -279.5441
  16   2.0000      -8.082186      -219.9275
  17   2.0000      -8.079405      -219.8518
  18   2.0000      -6.040892      -164.3810
  19   2.0000      -6.037789      -164.2966
  20   2.0000      -6.036793      -164.2695
  21   2.0000      -6.033701      -164.1854
  22   2.0000      -6.032708      -164.1583
  23   2.0000      -6.030382      -164.0950
  24   2.0000      -1.013348       -27.5746
  25   2.0000      -0.983902       -26.7733
  26   2.0000      -0.915515       -24.9124
  27   2.0000      -0.908778       -24.7291
  28   2.0000      -0.877807       -23.8863
  29   2.0000      -0.848174       -23.0800
  30   2.0000      -0.837501       -22.7896
  31   2.0000      -0.818033       -22.2598
  32   2.0000      -0.780680       -21.2434
  33   2.0000      -0.772209       -21.0129
  34   2.0000      -0.717852       -19.5338
  35   2.0000      -0.702304       -19.1107
  36   2.0000      -0.697577       -18.9820
  37   2.0000      -0.669742       -18.2246
  38   2.0000      -0.644243       -17.5308
  39   2.0000      -0.624736       -16.9999
  40   2.0000      -0.593948       -16.1621
  41   2.0000      -0.571115       -15.5408
  42   2.0000      -0.556835       -15.1523
  43   2.0000      -0.547976       -14.9112
  44   2.0000      -0.544953       -14.8289
  45   2.0000      -0.540623       -14.7111
  46   2.0000      -0.518997       -14.1226
  47   2.0000      -0.512960       -13.9584
  48   2.0000      -0.508153       -13.8276
  49   2.0000      -0.491717       -13.3803
  50   2.0000      -0.487834       -13.2747
  51   2.0000      -0.484204       -13.1759
  52   2.0000      -0.472477       -12.8568
  53   2.0000      -0.463452       -12.6112
  54   2.0000      -0.457937       -12.4611
  55   2.0000      -0.450202       -12.2506
  56   2.0000      -0.445208       -12.1147
  57   2.0000      -0.439514       -11.9598
  58   2.0000      -0.433745       -11.8028
  59   2.0000      -0.419359       -11.4113
  60   2.0000      -0.418721       -11.3940
  61   2.0000      -0.416310       -11.3284
  62   2.0000      -0.403322       -10.9750
  63   2.0000      -0.357320        -9.7232
  64   2.0000      -0.334145        -9.0925
  65   2.0000      -0.324301        -8.8247
  66   2.0000      -0.286035        -7.7834
  67   0.0000       0.017545         0.4774
  68   0.0000       0.069604         1.8940
  69   0.0000       0.103692         2.8216
  70   0.0000       0.110693         3.0121
  71   0.0000       0.126144         3.4326

MULLIKEN ATOMIC CHARGES
-----------------------
   0 S :    0.108475
   1 C :   -0.058470
   2 C :   -0.151489
   3 C :    0.015993
   4 C :   -0.086550
   5 H :   -0.002521
   6 C :    0.045601
   7 H :    0.003623
   8 H :    0.049814
   9 C :   -0.030728
  10 H :    0.011133
  11 H :    0.032660
  12 C :   -0.056646
  13 H :    0.017803
  14 H :    0.043505
  15 H :    0.043175
  16 S :    0.085726
  17 C :   -0.119939
  18 C :   -0.032405
  19 C :   -0.070325
  20 C :   -0.134955
  21 H :    0.053138
  22 C :    0.117475
  23 H :   -0.017068
  24 H :   -0.006299
  25 C :   -0.032833
  26 H :    0.026835
  27 H :    0.027870
  28 C :   -0.088436
  29 H :    0.030219
  30 H :    0.043186
  31 H :    0.048307
  32 H :    0.014286
  33 H :    0.069840
Sum of atomic charges:   -0.0000000

LOEWDIN ATOMIC CHARGES
----------------------
   0 S :    0.394720
   1 C :   -0.183015
   2 C :   -0.053054
   3 C :   -0.064209
   4 C :   -0.188303
   5 H :    0.021417
   6 C :   -0.033350
   7 H :    0.019708
   8 H :    0.041155
   9 C :   -0.040150
  10 H :    0.017403
  11 H :    0.024500
  12 C :   -0.061984
  13 H :    0.022570
  14 H :    0.024224
  15 H :    0.030661
  16 S :    0.413292
  17 C :   -0.164740
  18 C :   -0.073067
  19 C :   -0.056535
  20 C :   -0.211002
  21 H :    0.047732
  22 C :   -0.038649
  23 H :    0.023294
  24 H :    0.021849
  25 C :   -0.031402
  26 H :    0.025567
  27 H :    0.027508
  28 C :   -0.082566
  29 H :    0.028218
  30 H :    0.032668
  31 H :    0.029165
  32 H :    0.007157
  33 H :    0.029214

  Mayer bond orders larger than 0.100000
B(  0-S ,  1-C ) :   1.1331 B(  0-S ,  4-C ) :   1.1162 B(  1-C ,  2-C ) :   1.5899
B(  1-C , 32-H ) :   0.9769 B(  2-C ,  3-C ) :   1.2304 B(  2-C ,  6-C ) :   1.0281
B(  3-C ,  4-C ) :   1.5809 B(  3-C ,  5-H ) :   0.9993 B(  4-C , 20-C ) :   1.0906
B(  6-C ,  7-H ) :   0.9390 B(  6-C ,  8-H ) :   0.9468 B(  6-C ,  9-C ) :   1.0614
B(  9-C , 10-H ) :   0.9539 B(  9-C , 11-H ) :   0.9573 B(  9-C , 12-C ) :   1.0725
B( 12-C , 13-H ) :   0.9772 B( 12-C , 14-H ) :   0.9736 B( 12-C , 15-H ) :   0.9727
B( 16-S , 17-C ) :   1.1674 B( 16-S , 20-C ) :   1.1484 B( 17-C , 18-C ) :   1.5541
B( 17-C , 20-C ) :   0.1085 B( 17-C , 33-H ) :   0.9722 B( 18-C , 19-C ) :   1.2745
B( 18-C , 21-H ) :   0.9795 B( 19-C , 20-C ) :   1.5330 B( 19-C , 22-C ) :   1.0515
B( 22-C , 23-H ) :   0.9204 B( 22-C , 24-H ) :   0.9171 B( 22-C , 25-C ) :   1.0709
B( 25-C , 26-H ) :   0.9592 B( 25-C , 27-H ) :   0.9578 B( 25-C , 28-C ) :   1.0358
B( 28-C , 29-H ) :   0.9796 B( 28-C , 30-H ) :   0.9793 B( 28-C , 31-H ) :   0.9817

Dispersion correction           -0.015610978
FINAL SINGLE POINT ENERGY     -1339.845311020269

DIPOLE MOMENT
-------------
                                X             Y             Z
Electronic contribution:     -6.14206      -2.65517      26.06602
Nuclear contribution   :      6.53461       2.78835     -26.57710
                        -----------------------------------------
Total Dipole Moment    :      0.39256       0.13318      -0.51108
                        -----------------------------------------
Magnitude (a.u.)       :      0.65806
Magnitude (Debye)      :      1.67265

Rotational constants in cm-1:     0.020705     0.009551     0.007455
Rotational constants in MHz :   620.719080   286.324071   223.509362

                             ****ORCA TERMINATED NORMALLY****
TOTAL RUN TIME: 0 days 0 hours 0 minutes 30 seconds 127 msec
