                         Program Version 4.2.1 -  RELEASE  -
|  1> ! wB97X-D3 SP def2-SVP
|  2> %pal
|  3> nprocs 16
|  4> end
|  5>
|  6> * xyz 0 1
|  7> S 	 -6.25871 	 7.57065 	 84.3591
|  8> C 	 -6.8554 	 7.3679 	 86.0394
|  9> C 	 -6.68385 	 8.57714 	 86.6851
| 10> C 	 -6.28238 	 9.64355 	 85.8479
| 11> C 	 -6.04516 	 9.2671 	 84.538
| 12> H 	 -6.12706 	 10.6778 	 86.1283
| 13> C 	 -6.98718 	 8.8302 	 88.1555
| 14> H 	 -8.06509 	 8.93583 	 88.3011
| 15> H 	 -6.61464 	 9.85419 	 88.4245
| 16> C 	 -6.50536 	 7.78076 	 89.1469
| 17> H 	 -6.82326 	 6.79359 	 88.7717
| 18> H 	 -5.3821 	 7.75158 	 89.226
| 19> C 	 -7.09354 	 7.83913 	 90.6073
| 20> H 	 -6.76414 	 8.76958 	 91.0523
| 21> H 	 -8.18161 	 7.87367 	 90.6782
| 22> H 	 -6.69782 	 7.1161 	 91.3273
| 23> S 	 -4.17784 	 9.41865 	 82.476
| 24> C 	 -3.86419 	 10.9847 	 81.8324
| 25> C 	 -4.89754 	 11.8502 	 82.1593
| 26> C 	 -5.89707 	 11.3389 	 83.0556
| 27> C 	 -5.51748 	 10.0691 	 83.4802
| 28> H 	 -4.9333 	 12.8727 	 81.7511
| 29> C 	 -7.06683 	 12.2136 	 83.5257
| 30> H 	 -6.55126 	 12.9664 	 84.0447
| 31> H 	 -7.59149 	 11.7661 	 84.4377
| 32> C 	 -8.02268 	 12.8542 	 82.5554
| 33> H 	 -7.53534 	 13.3578 	 81.7525
| 34> H 	 -8.63521 	 13.5545 	 83.105
| 35> C 	 -8.88137 	 11.7809 	 81.868
| 36> H 	 -8.28665 	 10.9186 	 81.4765
| 37> H 	 -9.51561 	 12.1298 	 81.0496
| 38> H 	 -9.55061 	 11.3692 	 82.665
| 39> H 	 -7.15678 	 6.45218 	 86.4605
| 40> H 	 -3.06288 	 11.247 	 81.2507
| 41> *
| 42>
| 43>                          ****END OF INPUT****

CARTESIAN COORDINATES (ANGSTROEM)
---------------------------------
  S     -6.258710    7.570650   84.359100
  C     -6.855400    7.367900   86.039400
  C     -6.683850    8.577140   86.685100
  C     -6.282380    9.643550   85.847900
  C     -6.045160    9.267100   84.538000
  H     -6.127060   10.677800   86.128300
  C     -6.987180    8.830200   88.155500
  H     -8.065090    8.935830   88.301100
  H     -6.614640    9.854190   88.424500
  C     -6.505360    7.780760   89.146900
  H     -6.823260    6.793590   88.771700
  H     -5.382100    7.751580   89.226000
  C     -7.093540    7.839130   90.607300
  H     -6.764140    8.769580   91.052300
  H     -8.181610    7.873670   90.678200
  H     -6.697820    7.116100   91.327300
  S     -4.177840    9.418650   82.476000
  C     -3.864190   10.984700   81.832400
  C     -4.897540   11.850200   82.159300
  C     -5.897070   11.338900   83.055600
  C     -5.517480   10.069100   83.480200
  H     -4.933300   12.872700   81.751100
  C     -7.066830   12.213600   83.525700
  H     -6.551260   12.966400   84.044700
  H     -7.591490   11.766100   84.437700
  C     -8.022680   12.854200   82.555400
  H     -7.535340   13.357800   81.752500
  H     -8.635210   13.554500   83.105000
  C     -8.881370   11.780900   81.868000
  H     -8.286650   10.918600   81.476500
  H     -9.515610   12.129800   81.049600
  H     -9.550610   11.369200   82.665000
  H     -7.156780    6.452180   86.460500
  H     -3.062880   11.247000   81.250700

 Total Charge           Charge          ....    0
 Multiplicity           Mult            ....    1
 Number of Electrons    NEL             ....  134
 Basis Dimension        Dim             ....  322

ORBITAL ENERGIES
----------------

  NO   OCC          E(Eh)            E(eV)
   0   2.0000     -88.965949     -2420.8866
   1   2.0000     -88.963813     -2420.8284
   2   2.0000     -10.329148      -281.0704
   3   2.0000     -10.326108      -280.9877
   4   2.0000     -10.314244      -280.6649
   5   2.0000     -10.313431      -280.6427
   6   2.0000     -10.309387      -280.5327
   7   2.0000     -10.302850      -280.3548
   8   2.0000     -10.296234      -280.1748
   9   2.0000     -10.295961      -280.1673
  10   2.0000     -10.295279      -280.1488
  11   2.0000     -10.294891      -280.1382
  12   2.0000     -10.291317      -280.0410
  13   2.0000     -10.286430      -279.9080
  14   2.0000     -10.281216      -279.7661
  15   2.0000     -10.277138      -279.6551
  16   2.0000      -8.080666      -219.8861
  17   2.0000      -8.078578      -219.8293
  18   2.0000      -6.039214      -164.3354
  19   2.0000      -6.037126      -164.2785
  20   2.0000      -6.035340      -164.2299
  21   2.0000      -6.033045      -164.1675
  22   2.0000      -6.031222      -164.1179
  23   2.0000      -6.029330      -164.0664
  24   2.0000      -1.008518       -27.4432
  25   2.0000      -0.983961       -26.7749
  26   2.0000      -0.914131       -24.8748
  27   2.0000      -0.909090       -24.7376
  28   2.0000      -0.869386       -23.6572
  29   2.0000      -0.852560       -23.1993
  30   2.0000      -0.841943       -22.9104
  31   2.0000      -0.811382       -22.0788
  32   2.0000      -0.785095       -21.3635
  33   2.0000      -0.775974       -21.1153
  34   2.0000      -0.712573       -19.3901
  35   2.0000      -0.703822       -19.1520
  36   2.0000      -0.696549       -18.9541
  37   2.0000      -0.658147       -17.9091
  38   2.0000      -0.643831       -17.5195
  39   2.0000      -0.616022       -16.7628
  40   2.0000      -0.603496       -16.4220
  41   2.0000      -0.566422       -15.4131
  42   2.0000      -0.557404       -15.1677
  43   2.0000      -0.556418       -15.1409
  44   2.0000      -0.545262       -14.8373
  45   2.0000      -0.525075       -14.2880
  46   2.0000      -0.521701       -14.1962
  47   2.0000      -0.509937       -13.8761
  48   2.0000      -0.508515       -13.8374
  49   2.0000      -0.501517       -13.6470
  50   2.0000      -0.491323       -13.3696
  51   2.0000      -0.478494       -13.0205
  52   2.0000      -0.468508       -12.7487
  53   2.0000      -0.462575       -12.5873
  54   2.0000      -0.456633       -12.4256
  55   2.0000      -0.449134       -12.2216
  56   2.0000      -0.443403       -12.0656
  57   2.0000      -0.439403       -11.9568
  58   2.0000      -0.433071       -11.7845
  59   2.0000      -0.424997       -11.5647
  60   2.0000      -0.422344       -11.4926
  61   2.0000      -0.414711       -11.2849
  62   2.0000      -0.410251       -11.1635
  63   2.0000      -0.351503        -9.5649
  64   2.0000      -0.331588        -9.0230
  65   2.0000      -0.329208        -8.9582
  66   2.0000      -0.285773        -7.7763
  67   0.0000       0.023957         0.6519
  68   0.0000       0.067138         1.8269
  69   0.0000       0.103833         2.8254
  70   0.0000       0.122163         3.3242
  71   0.0000       0.137541         3.7427

MULLIKEN ATOMIC CHARGES
-----------------------
   0 S :    0.092298
   1 C :   -0.118719
   2 C :   -0.051982
   3 C :    0.014105
   4 C :   -0.137503
   5 H :    0.008672
   6 C :    0.071223
   7 H :    0.036245
   8 H :    0.020208
   9 C :   -0.103009
  10 H :    0.026940
  11 H :    0.045944
  12 C :   -0.058791
  13 H :    0.016263
  14 H :    0.033259
  15 H :    0.039524
  16 S :    0.108413
  17 C :   -0.047491
  18 C :   -0.057573
  19 C :   -0.019103
  20 C :   -0.167404
  21 H :    0.026146
  22 C :    0.046779
  23 H :    0.017785
  24 H :    0.030340
  25 C :   -0.014374
  26 H :    0.021854
  27 H :    0.030712
  28 C :   -0.090548
  29 H :    0.051410
  30 H :    0.037040
  31 H :    0.029448
  32 H :    0.035585
  33 H :    0.026303
Sum of atomic charges:   -0.0000000

LOEWDIN ATOMIC CHARGES
----------------------
   0 S :    0.400213
   1 C :   -0.179159
   2 C :   -0.058431
   3 C :   -0.070980
   4 C :   -0.193865
   5 H :    0.030202
   6 C :   -0.036274
   7 H :    0.034538
   8 H :    0.030772
   9 C :   -0.043309
  10 H :    0.020678
  11 H :    0.032242
  12 C :   -0.072674
  13 H :    0.020965
  14 H :    0.023777
  15 H :    0.030461
  16 S :    0.393915
  17 C :   -0.176729
  18 C :   -0.071888
  19 C :   -0.049312
  20 C :   -0.184560
  21 H :    0.031879
  22 C :   -0.037964
  23 H :    0.028202
  24 H :    0.039609
  25 C :   -0.034437
  26 H :    0.019733
  27 H :    0.028792
  28 C :   -0.072459
  29 H :    0.032986
  30 H :    0.022620
  31 H :    0.027586
  32 H :    0.018678
  33 H :    0.014194

  Mayer bond orders larger than 0.100000
B(  0-S ,  1-C ) :   1.1204 B(  0-S ,  4-C ) :   1.1605 B(  1-C ,  2-C ) :   1.5894
B(  1-C ,  4-C ) :   0.1009 B(  1-C , 32-H ) :   0.9835 B(  2-C ,  3-C ) :   1.2526
B(  2-C ,  6-C ) :   1.0139 B(  3-C ,  4-C ) :   1.5466 B(  3-C ,  5-H ) :   0.9961
B(  4-C , 20-C ) :   1.0780 B(  6-C ,  7-H ) :   0.9365 B(  6-C ,  8-H ) :   0.9431
B(  6-C ,  9-C ) :   1.0554 B(  9-C , 10-H ) :   0.9573 B(  9-C , 11-H ) :   0.9587
B(  9-C , 12-C ) :   1.0749 B( 12-C , 13-H ) :   0.9748 B( 12-C , 14-H ) :   0.9760
B( 12-C , 15-H ) :   0.9759 B( 16-S , 17-C ) :   1.1461 B( 16-S , 20-C ) :   1.1229
B( 17-C , 18-C ) :   1.6124 B( 17-C , 20-C ) :   0.1008 B( 17-C , 33-H ) :   0.9826
B( 18-C , 19-C ) :   1.2229 B( 18-C , 21-H ) :   0.9835 B( 19-C , 20-C ) :   1.5828
B( 19-C , 22-C ) :   1.0244 B( 22-C , 23-H ) :   0.9242 B( 22-C , 24-H ) :   0.9317
B( 22-C , 25-C ) :   1.0847 B( 25-C , 26-H ) :   0.9548 B( 25-C , 27-H ) :   0.9498
B( 25-C , 28-C ) :   1.0697 B( 28-C , 29-H ) :   0.9765 B( 28-C , 30-H ) :   0.9769
B( 28-C , 31-H ) :   0.9753

Dispersion correction           -0.013741964
FINAL SINGLE POINT ENERGY     -1339.877128535582

DIPOLE MOMENT
-------------
                                X             Y             Z
Electronic contribution:     14.84486      -9.48182     -17.29982
Nuclear contribution   :    -15.03790      10.08887      17.67744
                        -----------------------------------------
Total Dipole Moment    :     -0.19303       0.60706       0.37762
                        -----------------------------------------
Magnitude (a.u.)       :      0.74053
Magnitude (Debye)      :      1.88227

Rotational constants in cm-1:     0.021439     0.007188     0.006228
Rotational constants in MHz :   642.719872   215.476278   186.716410

                             ****ORCA TERMINATED NORMALLY****
TOTAL RUN TIME: 0 days 0 hours 0 minutes 33 seconds 867 msec
