                         Program Version 4.2.1 -  RELEASE  -
|  1> ! wB97X-D3 SP def2-SVP
|  2> %pal
|  3> nprocs 16
|  4> end
|  5>
|  6> * xyz 0 1
|  7> S 	 -30.2299 	 30.8554 	 42.7577
|  8> C 	 -30.2591 	 30.2672 	 44.3962
|  9> C 	 -31.5295 	 30.3104 	 44.9182
| 10> C 	 -32.4744 	 30.7763 	 43.9822
| 11> C 	 -31.9364 	 31.0092 	 42.7181
| 12> H 	 -33.5283 	 30.8866 	 44.1194
| 13> C 	 -31.9511 	 29.9846 	 46.3439
| 14> H 	 -31.7351 	 28.9819 	 46.7182
| 15> H 	 -33.0397 	 30.0268 	 46.3293
| 16> C 	 -31.6974 	 31.0092 	 47.4449
| 17> H 	 -32.0641 	 31.9468 	 47.1989
| 18> H 	 -32.1667 	 30.7292 	 48.3791
| 19> C 	 -30.2341 	 31.4076 	 47.6473
| 20> H 	 -29.8756 	 31.6699 	 46.6715
| 21> H 	 -30.1506 	 32.3289 	 48.2969
| 22> H 	 -29.5061 	 30.6273 	 48.0551
| 23> S 	 -31.8306 	 32.961 	 40.7016
| 24> C 	 -33.3446 	 33.2393 	 39.6572
| 25> C 	 -34.3557 	 32.3906 	 39.9728
| 26> C 	 -33.9822 	 31.4876 	 41.0457
| 27> C 	 -32.6966 	 31.6513 	 41.5904
| 28> H 	 -35.2621 	 32.4587 	 39.4377
| 29> C 	 -34.8333 	 30.2993 	 41.451
| 30> H 	 -35.8091 	 30.292 	 40.9255
| 31> H 	 -35.1423 	 30.4156 	 42.5083
| 32> C 	 -34.2105 	 28.8476 	 41.3493
| 33> H 	 -33.2428 	 28.7213 	 41.9386
| 34> H 	 -34.1046 	 28.4777 	 40.3136
| 35> C 	 -34.9606 	 27.7851 	 42.076
| 36> H 	 -34.8767 	 27.9401 	 43.1964
| 37> H 	 -34.4736 	 26.7952 	 41.8084
| 38> H 	 -35.9271 	 27.727 	 41.7474
| 39> H 	 -29.3318 	 29.9095 	 44.836
| 40> H 	 -33.4011 	 33.8492 	 38.793
| 41> *
| 42>
| 43>                          ****END OF INPUT****

CARTESIAN COORDINATES (ANGSTROEM)
---------------------------------
  S    -30.229900   30.855400   42.757700
  C    -30.259100   30.267200   44.396200
  C    -31.529500   30.310400   44.918200
  C    -32.474400   30.776300   43.982200
  C    -31.936400   31.009200   42.718100
  H    -33.528300   30.886600   44.119400
  C    -31.951100   29.984600   46.343900
  H    -31.735100   28.981900   46.718200
  H    -33.039700   30.026800   46.329300
  C    -31.697400   31.009200   47.444900
  H    -32.064100   31.946800   47.198900
  H    -32.166700   30.729200   48.379100
  C    -30.234100   31.407600   47.647300
  H    -29.875600   31.669900   46.671500
  H    -30.150600   32.328900   48.296900
  H    -29.506100   30.627300   48.055100
  S    -31.830600   32.961000   40.701600
  C    -33.344600   33.239300   39.657200
  C    -34.355700   32.390600   39.972800
  C    -33.982200   31.487600   41.045700
  C    -32.696600   31.651300   41.590400
  H    -35.262100   32.458700   39.437700
  C    -34.833300   30.299300   41.451000
  H    -35.809100   30.292000   40.925500
  H    -35.142300   30.415600   42.508300
  C    -34.210500   28.847600   41.349300
  H    -33.242800   28.721300   41.938600
  H    -34.104600   28.477700   40.313600
  C    -34.960600   27.785100   42.076000
  H    -34.876700   27.940100   43.196400
  H    -34.473600   26.795200   41.808400
  H    -35.927100   27.727000   41.747400
  H    -29.331800   29.909500   44.836000
  H    -33.401100   33.849200   38.793000

 Total Charge           Charge          ....    0
 Multiplicity           Mult            ....    1
 Number of Electrons    NEL             ....  134
 Basis Dimension        Dim             ....  322

ORBITAL ENERGIES
----------------

  NO   OCC          E(Eh)            E(eV)
   0   2.0000     -88.971914     -2421.0489
   1   2.0000     -88.964846     -2420.8565
   2   2.0000     -10.338761      -281.3320
   3   2.0000     -10.335144      -281.2336
   4   2.0000     -10.321943      -280.8744
   5   2.0000     -10.318642      -280.7845
   6   2.0000     -10.310567      -280.5648
   7   2.0000     -10.306174      -280.4453
   8   2.0000     -10.297878      -280.2195
   9   2.0000     -10.297734      -280.2156
  10   2.0000     -10.294824      -280.1364
  11   2.0000     -10.293668      -280.1049
  12   2.0000     -10.286121      -279.8996
  13   2.0000     -10.279699      -279.7248
  14   2.0000     -10.277942      -279.6770
  15   2.0000     -10.273786      -279.5639
  16   2.0000      -8.087374      -220.0686
  17   2.0000      -8.077284      -219.7941
  18   2.0000      -6.045747      -164.5131
  19   2.0000      -6.041703      -164.4031
  20   2.0000      -6.038311      -164.3108
  21   2.0000      -6.036113      -164.2510
  22   2.0000      -6.032255      -164.1460
  23   2.0000      -6.027699      -164.0220
  24   2.0000      -1.010043       -27.4847
  25   2.0000      -0.975533       -26.5456
  26   2.0000      -0.915855       -24.9217
  27   2.0000      -0.901597       -24.5337
  28   2.0000      -0.869887       -23.6708
  29   2.0000      -0.855732       -23.2856
  30   2.0000      -0.845797       -23.0153
  31   2.0000      -0.819162       -22.2905
  32   2.0000      -0.786032       -21.3890
  33   2.0000      -0.765089       -20.8191
  34   2.0000      -0.704525       -19.1711
  35   2.0000      -0.697085       -18.9686
  36   2.0000      -0.680018       -18.5042
  37   2.0000      -0.665712       -18.1149
  38   2.0000      -0.649497       -17.6737
  39   2.0000      -0.622885       -16.9496
  40   2.0000      -0.590385       -16.0652
  41   2.0000      -0.577666       -15.7191
  42   2.0000      -0.569448       -15.4955
  43   2.0000      -0.549592       -14.9551
  44   2.0000      -0.541767       -14.7422
  45   2.0000      -0.525516       -14.3000
  46   2.0000      -0.517792       -14.0898
  47   2.0000      -0.507353       -13.8058
  48   2.0000      -0.503715       -13.7068
  49   2.0000      -0.501036       -13.6339
  50   2.0000      -0.490706       -13.3528
  51   2.0000      -0.487951       -13.2778
  52   2.0000      -0.477419       -12.9912
  53   2.0000      -0.457843       -12.4585
  54   2.0000      -0.454786       -12.3753
  55   2.0000      -0.449893       -12.2422
  56   2.0000      -0.436912       -11.8890
  57   2.0000      -0.433627       -11.7996
  58   2.0000      -0.423440       -11.5224
  59   2.0000      -0.421559       -11.4712
  60   2.0000      -0.420334       -11.4379
  61   2.0000      -0.412014       -11.2115
  62   2.0000      -0.408647       -11.1199
  63   2.0000      -0.354648        -9.6505
  64   2.0000      -0.339260        -9.2317
  65   2.0000      -0.328999        -8.9525
  66   2.0000      -0.289615        -7.8808
  67   0.0000       0.020343         0.5536
  68   0.0000       0.070118         1.9080
  69   0.0000       0.093939         2.5562
  70   0.0000       0.118119         3.2142
  71   0.0000       0.133952         3.6450

MULLIKEN ATOMIC CHARGES
-----------------------
   0 S :    0.115551
   1 C :   -0.138943
   2 C :   -0.059086
   3 C :    0.015031
   4 C :   -0.128208
   5 H :    0.005327
   6 C :    0.078632
   7 H :    0.037884
   8 H :    0.012662
   9 C :   -0.020699
  10 H :    0.005553
  11 H :    0.028432
  12 C :   -0.100839
  13 H :    0.026542
  14 H :    0.039830
  15 H :    0.032934
  16 S :    0.062123
  17 C :   -0.072839
  18 C :   -0.005734
  19 C :   -0.026405
  20 C :   -0.128216
  21 H :    0.012377
  22 C :    0.036791
  23 H :    0.018576
  24 H :    0.023016
  25 C :   -0.098464
  26 H :    0.054765
  27 H :    0.038484
  28 C :   -0.054622
  29 H :    0.038114
  30 H :    0.039422
  31 H :    0.007000
  32 H :    0.059814
  33 H :    0.045194
Sum of atomic charges:   -0.0000000

LOEWDIN ATOMIC CHARGES
----------------------
   0 S :    0.433667
   1 C :   -0.192862
   2 C :   -0.065457
   3 C :   -0.058073
   4 C :   -0.204450
   5 H :    0.027833
   6 C :   -0.031022
   7 H :    0.032352
   8 H :    0.033546
   9 C :   -0.034696
  10 H :    0.018759
  11 H :    0.024278
  12 C :   -0.076573
  13 H :    0.018042
  14 H :    0.030795
  15 H :    0.023277
  16 S :    0.328759
  17 C :   -0.140924
  18 C :   -0.058941
  19 C :   -0.062256
  20 C :   -0.166235
  21 H :    0.031699
  22 C :   -0.041746
  23 H :    0.030538
  24 H :    0.029494
  25 C :   -0.050372
  26 H :    0.038474
  27 H :    0.025571
  28 C :   -0.064385
  29 H :    0.028300
  30 H :    0.036297
  31 H :    0.002779
  32 H :    0.029836
  33 H :    0.023694

  Mayer bond orders larger than 0.100000
B(  0-S ,  1-C ) :   1.1557 B(  0-S ,  4-C ) :   1.1765 B(  1-C ,  2-C ) :   1.5608
B(  1-C , 32-H ) :   0.9736 B(  2-C ,  3-C ) :   1.2862 B(  2-C ,  6-C ) :   1.0116
B(  3-C ,  4-C ) :   1.5272 B(  3-C ,  5-H ) :   0.9957 B(  4-C , 20-C ) :   1.0383
B(  6-C ,  7-H ) :   0.9459 B(  6-C ,  8-H ) :   0.9349 B(  6-C ,  9-C ) :   1.0804
B(  9-C , 10-H ) :   0.9490 B(  9-C , 11-H ) :   0.9552 B(  9-C , 12-C ) :   1.0733
B( 12-C , 13-H ) :   0.9705 B( 12-C , 14-H ) :   0.9760 B( 12-C , 15-H ) :   0.9759
B( 16-S , 17-C ) :   1.1114 B( 16-S , 20-C ) :   1.1060 B( 17-C , 18-C ) :   1.6742
B( 17-C , 33-H ) :   0.9647 B( 18-C , 19-C ) :   1.1987 B( 18-C , 21-H ) :   0.9946
B( 19-C , 20-C ) :   1.6302 B( 19-C , 22-C ) :   1.0468 B( 22-C , 23-H ) :   0.9360
B( 22-C , 24-H ) :   0.9323 B( 22-C , 25-C ) :   1.0517 B( 25-C , 26-H ) :   0.9547
B( 25-C , 27-H ) :   0.9598 B( 25-C , 28-C ) :   1.0794 B( 28-C , 29-H ) :   0.9750
B( 28-C , 30-H ) :   0.9725 B( 28-C , 31-H ) :   0.9731

Dispersion correction           -0.014628538
FINAL SINGLE POINT ENERGY     -1339.858168060794

DIPOLE MOMENT
-------------
                                X             Y             Z
Electronic contribution:     10.62367      13.21156     -18.27831
Nuclear contribution   :    -11.13944     -13.48733      18.48975
                        -----------------------------------------
Total Dipole Moment    :     -0.51578      -0.27577       0.21144
                        -----------------------------------------
Magnitude (a.u.)       :      0.62192
Magnitude (Debye)      :      1.58079

Rotational constants in cm-1:     0.019225     0.008709     0.007007
Rotational constants in MHz :   576.340665   261.087821   210.079038

                             ****ORCA TERMINATED NORMALLY****
TOTAL RUN TIME: 0 days 0 hours 0 minutes 34 seconds 259 msec
