                         Program Version 4.2.1 -  RELEASE  -
|  1> ! wB97X-D3 SP def2-SVP
|  2> %pal
|  3> nprocs 16
|  4> end
|  5>
|  6> * xyz 0 1
|  7> S 	 42.2244 	 11.8952 	 84.5261
|  8> C 	 42.1758 	 10.36 	 85.3265
|  9> C 	 43.4443 	 9.89309 	 85.5706
| 10> C 	 44.4552 	 10.7154 	 84.9788
| 11> C 	 43.9818 	 11.8305 	 84.35
| 12> H 	 45.4843 	 10.4657 	 84.8279
| 13> C 	 43.7014 	 8.54117 	 86.1373
| 14> H 	 44.4666 	 8.14284 	 85.4953
| 15> H 	 42.7642 	 8.01214 	 86.0091
| 16> C 	 44.3441 	 8.66113 	 87.5548
| 17> H 	 44.7714 	 7.74355 	 87.7944
| 18> H 	 45.2073 	 9.3152 	 87.5405
| 19> C 	 43.4047 	 9.25995 	 88.6662
| 20> H 	 43.1987 	 10.3658 	 88.6018
| 21> H 	 42.5301 	 8.56247 	 88.7185
| 22> H 	 43.9328 	 9.04722 	 89.5706
| 23> S 	 43.8631 	 13.9115 	 82.5861
| 24> C 	 45.2577 	 14.6049 	 81.8898
| 25> C 	 46.3652 	 14.182 	 82.6075
| 26> C 	 46.1124 	 13.2547 	 83.6614
| 27> C 	 44.781 	 12.8928 	 83.6624
| 28> H 	 47.2925 	 14.6049 	 82.3049
| 29> C 	 47.2402 	 12.5559 	 84.4664
| 30> H 	 47.4614 	 11.6016 	 84.079
| 31> H 	 46.8669 	 12.258 	 85.4538
| 32> C 	 48.5565 	 13.395 	 84.6907
| 33> H 	 48.9884 	 13.3994 	 83.7109
| 34> H 	 49.228 	 12.8708 	 85.4254
| 35> C 	 48.4236 	 14.8821 	 85.0588
| 36> H 	 49.446 	 15.0772 	 85.4046
| 37> H 	 47.6756 	 15.0024 	 85.8812
| 38> H 	 48.1013 	 15.4934 	 84.1721
| 39> H 	 41.3003 	 9.88941 	 85.6919
| 40> H 	 45.3668 	 15.3393 	 81.0243
| 41> *
| 42>
| 43>                          ****END OF INPUT****

CARTESIAN COORDINATES (ANGSTROEM)
---------------------------------
  S     42.224400   11.895200   84.526100
  C     42.175800   10.360000   85.326500
  C     43.444300    9.893090   85.570600
  C     44.455200   10.715400   84.978800
  C     43.981800   11.830500   84.350000
  H     45.484300   10.465700   84.827900
  C     43.701400    8.541170   86.137300
  H     44.466600    8.142840   85.495300
  H     42.764200    8.012140   86.009100
  C     44.344100    8.661130   87.554800
  H     44.771400    7.743550   87.794400
  H     45.207300    9.315200   87.540500
  C     43.404700    9.259950   88.666200
  H     43.198700   10.365800   88.601800
  H     42.530100    8.562470   88.718500
  H     43.932800    9.047220   89.570600
  S     43.863100   13.911500   82.586100
  C     45.257700   14.604900   81.889800
  C     46.365200   14.182000   82.607500
  C     46.112400   13.254700   83.661400
  C     44.781000   12.892800   83.662400
  H     47.292500   14.604900   82.304900
  C     47.240200   12.555900   84.466400
  H     47.461400   11.601600   84.079000
  H     46.866900   12.258000   85.453800
  C     48.556500   13.395000   84.690700
  H     48.988400   13.399400   83.710900
  H     49.228000   12.870800   85.425400
  C     48.423600   14.882100   85.058800
  H     49.446000   15.077200   85.404600
  H     47.675600   15.002400   85.881200
  H     48.101300   15.493400   84.172100
  H     41.300300    9.889410   85.691900
  H     45.366800   15.339300   81.024300

 Total Charge           Charge          ....    0
 Multiplicity           Mult            ....    1
 Number of Electrons    NEL             ....  134
 Basis Dimension        Dim             ....  322

ORBITAL ENERGIES
----------------

  NO   OCC          E(Eh)            E(eV)
   0   2.0000     -88.964457     -2420.8460
   1   2.0000     -88.962832     -2420.8017
   2   2.0000     -10.332828      -281.1706
   3   2.0000     -10.331358      -281.1305
   4   2.0000     -10.320568      -280.8369
   5   2.0000     -10.309156      -280.5264
   6   2.0000     -10.307462      -280.4803
   7   2.0000     -10.295165      -280.1457
   8   2.0000     -10.294649      -280.1316
   9   2.0000     -10.292223      -280.0656
  10   2.0000     -10.291575      -280.0480
  11   2.0000     -10.289129      -279.9814
  12   2.0000     -10.288121      -279.9540
  13   2.0000     -10.285257      -279.8761
  14   2.0000     -10.284485      -279.8551
  15   2.0000     -10.283172      -279.8193
  16   2.0000      -8.080242      -219.8746
  17   2.0000      -8.077716      -219.8058
  18   2.0000      -6.038759      -164.3230
  19   2.0000      -6.036373      -164.2581
  20   2.0000      -6.034480      -164.2066
  21   2.0000      -6.032238      -164.1455
  22   2.0000      -6.031053      -164.1133
  23   2.0000      -6.028278      -164.0378
  24   2.0000      -1.010966       -27.5098
  25   2.0000      -0.989949       -26.9379
  26   2.0000      -0.910786       -24.7838
  27   2.0000      -0.905157       -24.6306
  28   2.0000      -0.868213       -23.6253
  29   2.0000      -0.851065       -23.1586
  30   2.0000      -0.841579       -22.9005
  31   2.0000      -0.819447       -22.2983
  32   2.0000      -0.787158       -21.4197
  33   2.0000      -0.774141       -21.0655
  34   2.0000      -0.709459       -19.3054
  35   2.0000      -0.695443       -18.9240
  36   2.0000      -0.690180       -18.7807
  37   2.0000      -0.657660       -17.8958
  38   2.0000      -0.640387       -17.4258
  39   2.0000      -0.624366       -16.9899
  40   2.0000      -0.596248       -16.2247
  41   2.0000      -0.567923       -15.4540
  42   2.0000      -0.552353       -15.0303
  43   2.0000      -0.546997       -14.8845
  44   2.0000      -0.542412       -14.7598
  45   2.0000      -0.540581       -14.7099
  46   2.0000      -0.522097       -14.2070
  47   2.0000      -0.513762       -13.9802
  48   2.0000      -0.508136       -13.8271
  49   2.0000      -0.494579       -13.4582
  50   2.0000      -0.490945       -13.3593
  51   2.0000      -0.480031       -13.0623
  52   2.0000      -0.474929       -12.9235
  53   2.0000      -0.466216       -12.6864
  54   2.0000      -0.464701       -12.6452
  55   2.0000      -0.447283       -12.1712
  56   2.0000      -0.439673       -11.9641
  57   2.0000      -0.436020       -11.8647
  58   2.0000      -0.433273       -11.7900
  59   2.0000      -0.424838       -11.5604
  60   2.0000      -0.417749       -11.3675
  61   2.0000      -0.413445       -11.2504
  62   2.0000      -0.407258       -11.0821
  63   2.0000      -0.361071        -9.8252
  64   2.0000      -0.333537        -9.0760
  65   2.0000      -0.325601        -8.8600
  66   2.0000      -0.285931        -7.7806
  67   0.0000       0.024357         0.6628
  68   0.0000       0.087507         2.3812
  69   0.0000       0.105875         2.8810
  70   0.0000       0.121674         3.3109
  71   0.0000       0.136247         3.7075

MULLIKEN ATOMIC CHARGES
-----------------------
   0 S :    0.095787
   1 C :   -0.105812
   2 C :   -0.092897
   3 C :   -0.019422
   4 C :   -0.084946
   5 H :   -0.002185
   6 C :    0.088415
   7 H :    0.021835
   8 H :    0.024557
   9 C :   -0.058682
  10 H :    0.010495
  11 H :    0.019821
  12 C :   -0.063026
  13 H :    0.069989
  14 H :    0.032130
  15 H :    0.024898
  16 S :    0.101710
  17 C :   -0.101415
  18 C :   -0.070940
  19 C :   -0.024744
  20 C :   -0.144232
  21 H :    0.006246
  22 C :    0.058596
  23 H :    0.036956
  24 H :    0.021570
  25 C :   -0.103579
  26 H :    0.025380
  27 H :    0.043390
  28 C :   -0.061916
  29 H :    0.042665
  30 H :    0.045649
  31 H :    0.046414
  32 H :    0.035082
  33 H :    0.082214
Sum of atomic charges:    0.0000000

LOEWDIN ATOMIC CHARGES
----------------------
   0 S :    0.391578
   1 C :   -0.197323
   2 C :   -0.061863
   3 C :   -0.072511
   4 C :   -0.176222
   5 H :    0.026449
   6 C :   -0.026628
   7 H :    0.031914
   8 H :    0.030264
   9 C :   -0.033712
  10 H :    0.012746
  11 H :    0.023496
  12 C :   -0.070569
  13 H :    0.038740
  14 H :    0.028040
  15 H :    0.022823
  16 S :    0.423675
  17 C :   -0.211687
  18 C :   -0.076922
  19 C :   -0.058569
  20 C :   -0.187004
  21 H :    0.022260
  22 C :   -0.033290
  23 H :    0.024564
  24 H :    0.028189
  25 C :   -0.044651
  26 H :    0.018831
  27 H :    0.031623
  28 C :   -0.070267
  29 H :    0.031718
  30 H :    0.029915
  31 H :    0.030306
  32 H :    0.022728
  33 H :    0.051359

  Mayer bond orders larger than 0.100000
B(  0-S ,  1-C ) :   1.1258 B(  0-S ,  4-C ) :   1.1368 B(  1-C ,  2-C ) :   1.6188
B(  1-C , 32-H ) :   0.9722 B(  2-C ,  3-C ) :   1.2158 B(  2-C ,  6-C ) :   1.0234
B(  3-C ,  4-C ) :   1.6091 B(  3-C ,  5-H ) :   0.9915 B(  4-C , 20-C ) :   1.0483
B(  6-C ,  7-H ) :   0.9351 B(  6-C ,  8-H ) :   0.9516 B(  6-C ,  9-C ) :   1.0614
B(  9-C , 10-H ) :   0.9583 B(  9-C , 11-H ) :   0.9555 B(  9-C , 12-C ) :   1.0666
B( 12-C , 13-H ) :   0.9737 B( 12-C , 14-H ) :   0.9779 B( 12-C , 15-H ) :   0.9730
B( 16-S , 17-C ) :   1.1627 B( 16-S , 20-C ) :   1.1534 B( 17-C , 18-C ) :   1.6110
B( 17-C , 33-H ) :   0.9578 B( 18-C , 19-C ) :   1.2335 B( 18-C , 21-H ) :   0.9902
B( 19-C , 20-C ) :   1.5852 B( 19-C , 22-C ) :   1.0300 B( 22-C , 23-H ) :   0.9376
B( 22-C , 24-H ) :   0.9294 B( 22-C , 25-C ) :   1.0605 B( 25-C , 26-H ) :   0.9498
B( 25-C , 27-H ) :   0.9618 B( 25-C , 28-C ) :   1.0778 B( 28-C , 29-H ) :   0.9735
B( 28-C , 30-H ) :   0.9771 B( 28-C , 31-H ) :   0.9687

Dispersion correction           -0.014153674
FINAL SINGLE POINT ENERGY     -1339.867207054072

DIPOLE MOMENT
-------------
                                X             Y             Z
Electronic contribution:    -18.31845       8.82491     -17.41168
Nuclear contribution   :     18.98978      -9.21389      17.60804
                        -----------------------------------------
Total Dipole Moment    :      0.67133      -0.38897       0.19636
                        -----------------------------------------
Magnitude (a.u.)       :      0.80034
Magnitude (Debye)      :      2.03429

Rotational constants in cm-1:     0.019785     0.008520     0.006392
Rotational constants in MHz :   593.136120   255.410879   191.618950

                             ****ORCA TERMINATED NORMALLY****
TOTAL RUN TIME: 0 days 0 hours 0 minutes 29 seconds 590 msec
