                         Program Version 4.2.1 -  RELEASE  -
|  1> ! wB97X-D3 SP def2-SVP
|  2> %pal
|  3> nprocs 16
|  4> end
|  5>
|  6> * xyz 0 1
|  7> S 	 -13.7271 	 40.5293 	 35.4559
|  8> C 	 -15.209 	 39.6892 	 35.6474
|  9> C 	 -15.5144 	 39.0016 	 34.4716
| 10> C 	 -14.595 	 39.2721 	 33.4717
| 11> C 	 -13.647 	 40.2584 	 33.7539
| 12> H 	 -14.4714 	 38.7943 	 32.4569
| 13> C 	 -16.816 	 38.3707 	 34.1292
| 14> H 	 -17.2889 	 38.9227 	 33.3471
| 15> H 	 -17.366 	 38.5906 	 35.0677
| 16> C 	 -16.7192 	 36.837 	 33.587
| 17> H 	 -17.6648 	 36.4137 	 33.1476
| 18> H 	 -15.9087 	 36.8949 	 32.8506
| 19> C 	 -16.199 	 35.9169 	 34.702
| 20> H 	 -15.3771 	 36.2602 	 35.3573
| 21> H 	 -17.0128 	 35.6876 	 35.2751
| 22> H 	 -15.8206 	 34.9915 	 34.1677
| 23> S 	 -10.8692 	 40.274 	 33.4641
| 24> C 	 -10.2069 	 40.5773 	 31.8607
| 25> C 	 -11.1846 	 40.9489 	 30.9669
| 26> C 	 -12.5197 	 40.8739 	 31.5428
| 27> C 	 -12.5592 	 40.57 	 32.8619
| 28> H 	 -10.9279 	 41.1174 	 29.8973
| 29> C 	 -13.7463 	 41.088 	 30.6157
| 30> H 	 -13.7204 	 42.1203 	 30.1879
| 31> H 	 -14.5663 	 41.0549 	 31.3336
| 32> C 	 -14.0303 	 40.0245 	 29.5411
| 33> H 	 -14.8538 	 40.4338 	 28.9759
| 34> H 	 -14.4235 	 39.0643 	 29.8564
| 35> C 	 -12.9635 	 39.654 	 28.5092
| 36> H 	 -13.3489 	 38.8879 	 27.9219
| 37> H 	 -11.9749 	 39.2711 	 28.8603
| 38> H 	 -12.7504 	 40.4872 	 27.8476
| 39> H 	 -15.8048 	 39.6822 	 36.5101
| 40> H 	 -9.16667 	 40.5138 	 31.7432
| 41> *
| 42>
| 43>                          ****END OF INPUT****

CARTESIAN COORDINATES (ANGSTROEM)
---------------------------------
  S    -13.727100   40.529300   35.455900
  C    -15.209000   39.689200   35.647400
  C    -15.514400   39.001600   34.471600
  C    -14.595000   39.272100   33.471700
  C    -13.647000   40.258400   33.753900
  H    -14.471400   38.794300   32.456900
  C    -16.816000   38.370700   34.129200
  H    -17.288900   38.922700   33.347100
  H    -17.366000   38.590600   35.067700
  C    -16.719200   36.837000   33.587000
  H    -17.664800   36.413700   33.147600
  H    -15.908700   36.894900   32.850600
  C    -16.199000   35.916900   34.702000
  H    -15.377100   36.260200   35.357300
  H    -17.012800   35.687600   35.275100
  H    -15.820600   34.991500   34.167700
  S    -10.869200   40.274000   33.464100
  C    -10.206900   40.577300   31.860700
  C    -11.184600   40.948900   30.966900
  C    -12.519700   40.873900   31.542800
  C    -12.559200   40.570000   32.861900
  H    -10.927900   41.117400   29.897300
  C    -13.746300   41.088000   30.615700
  H    -13.720400   42.120300   30.187900
  H    -14.566300   41.054900   31.333600
  C    -14.030300   40.024500   29.541100
  H    -14.853800   40.433800   28.975900
  H    -14.423500   39.064300   29.856400
  C    -12.963500   39.654000   28.509200
  H    -13.348900   38.887900   27.921900
  H    -11.974900   39.271100   28.860300
  H    -12.750400   40.487200   27.847600
  H    -15.804800   39.682200   36.510100
  H     -9.166670   40.513800   31.743200

 Total Charge           Charge          ....    0
 Multiplicity           Mult            ....    1
 Number of Electrons    NEL             ....  134
 Basis Dimension        Dim             ....  322

ORBITAL ENERGIES
----------------

  NO   OCC          E(Eh)            E(eV)
   0   2.0000     -88.969221     -2420.9756
   1   2.0000     -88.959076     -2420.6995
   2   2.0000     -10.328926      -281.0644
   3   2.0000     -10.326655      -281.0026
   4   2.0000     -10.317289      -280.7477
   5   2.0000     -10.314093      -280.6607
   6   2.0000     -10.304779      -280.4073
   7   2.0000     -10.299797      -280.2717
   8   2.0000     -10.298595      -280.2390
   9   2.0000     -10.297601      -280.2120
  10   2.0000     -10.296953      -280.1943
  11   2.0000     -10.293837      -280.1095
  12   2.0000     -10.292520      -280.0737
  13   2.0000     -10.288510      -279.9646
  14   2.0000     -10.274352      -279.5793
  15   2.0000     -10.272763      -279.5361
  16   2.0000      -8.084673      -219.9951
  17   2.0000      -8.073372      -219.6876
  18   2.0000      -6.043063      -164.4401
  19   2.0000      -6.039011      -164.3298
  20   2.0000      -6.035562      -164.2360
  21   2.0000      -6.032086      -164.1414
  22   2.0000      -6.028049      -164.0315
  23   2.0000      -6.023845      -163.9172
  24   2.0000      -1.013216       -27.5710
  25   2.0000      -0.983508       -26.7626
  26   2.0000      -0.908558       -24.7231
  27   2.0000      -0.905182       -24.6313
  28   2.0000      -0.873987       -23.7824
  29   2.0000      -0.853067       -23.2131
  30   2.0000      -0.843815       -22.9614
  31   2.0000      -0.813932       -22.1482
  32   2.0000      -0.786972       -21.4146
  33   2.0000      -0.774082       -21.0639
  34   2.0000      -0.712755       -19.3950
  35   2.0000      -0.698423       -19.0050
  36   2.0000      -0.695499       -18.9255
  37   2.0000      -0.663006       -18.0413
  38   2.0000      -0.641586       -17.4584
  39   2.0000      -0.617295       -16.7975
  40   2.0000      -0.590404       -16.0657
  41   2.0000      -0.569255       -15.4902
  42   2.0000      -0.560123       -15.2417
  43   2.0000      -0.545030       -14.8310
  44   2.0000      -0.544265       -14.8102
  45   2.0000      -0.538461       -14.6523
  46   2.0000      -0.526243       -14.3198
  47   2.0000      -0.516291       -14.0490
  48   2.0000      -0.508949       -13.8492
  49   2.0000      -0.497254       -13.5310
  50   2.0000      -0.484794       -13.1919
  51   2.0000      -0.483713       -13.1625
  52   2.0000      -0.471440       -12.8285
  53   2.0000      -0.466877       -12.7044
  54   2.0000      -0.458879       -12.4867
  55   2.0000      -0.446748       -12.1566
  56   2.0000      -0.443155       -12.0589
  57   2.0000      -0.436447       -11.8763
  58   2.0000      -0.428374       -11.6567
  59   2.0000      -0.422827       -11.5057
  60   2.0000      -0.420071       -11.4307
  61   2.0000      -0.413429       -11.2500
  62   2.0000      -0.406602       -11.0642
  63   2.0000      -0.352200        -9.5839
  64   2.0000      -0.329055        -8.9540
  65   2.0000      -0.327504        -8.9118
  66   2.0000      -0.293011        -7.9732
  67   0.0000       0.028894         0.7862
  68   0.0000       0.065959         1.7948
  69   0.0000       0.111763         3.0412
  70   0.0000       0.115486         3.1425
  71   0.0000       0.127084         3.4581

MULLIKEN ATOMIC CHARGES
-----------------------
   0 S :    0.123338
   1 C :   -0.097760
   2 C :   -0.072170
   3 C :   -0.025314
   4 C :   -0.157670
   5 H :    0.041976
   6 C :    0.054901
   7 H :    0.037856
   8 H :    0.015378
   9 C :   -0.090840
  10 H :    0.050764
  11 H :    0.031652
  12 C :   -0.055794
  13 H :    0.050278
  14 H :    0.016197
  15 H :    0.036230
  16 S :    0.068969
  17 C :   -0.082778
  18 C :   -0.022155
  19 C :   -0.078611
  20 C :   -0.121938
  21 H :    0.039971
  22 C :    0.071613
  23 H :    0.045238
  24 H :    0.023275
  25 C :   -0.056397
  26 H :    0.024467
  27 H :    0.022720
  28 C :   -0.053512
  29 H :    0.016267
  30 H :    0.042047
  31 H :    0.023146
  32 H :    0.032873
  33 H :    0.045780
Sum of atomic charges:   -0.0000000

LOEWDIN ATOMIC CHARGES
----------------------
   0 S :    0.440491
   1 C :   -0.196186
   2 C :   -0.075854
   3 C :   -0.064293
   4 C :   -0.211955
   5 H :    0.039340
   6 C :   -0.030324
   7 H :    0.028190
   8 H :    0.029419
   9 C :   -0.035019
  10 H :    0.033003
  11 H :    0.021795
  12 C :   -0.067381
  13 H :    0.031076
  14 H :    0.010084
  15 H :    0.032506
  16 S :    0.355604
  17 C :   -0.160949
  18 C :   -0.075010
  19 C :   -0.058556
  20 C :   -0.173609
  21 H :    0.039849
  22 C :   -0.031315
  23 H :    0.038940
  24 H :    0.030878
  25 C :   -0.040580
  26 H :    0.029186
  27 H :    0.022036
  28 C :   -0.067883
  29 H :    0.019369
  30 H :    0.028193
  31 H :    0.020949
  32 H :    0.020456
  33 H :    0.017551

  Mayer bond orders larger than 0.100000
B(  0-S ,  1-C ) :   1.1699 B(  0-S ,  4-C ) :   1.1618 B(  1-C ,  2-C ) :   1.5398
B(  1-C ,  4-C ) :   0.1076 B(  1-C , 32-H ) :   0.9743 B(  2-C ,  3-C ) :   1.2848
B(  2-C ,  6-C ) :   1.0176 B(  3-C ,  4-C ) :   1.5286 B(  3-C ,  5-H ) :   0.9776
B(  4-C , 20-C ) :   1.0580 B(  6-C ,  7-H ) :   0.9501 B(  6-C ,  8-H ) :   0.9480
B(  6-C ,  9-C ) :   1.0381 B(  9-C , 10-H ) :   0.9604 B(  9-C , 11-H ) :   0.9629
B(  9-C , 12-C ) :   1.0660 B( 12-C , 13-H ) :   0.9763 B( 12-C , 14-H ) :   0.9797
B( 12-C , 15-H ) :   0.9748 B( 16-S , 17-C ) :   1.1461 B( 16-S , 20-C ) :   1.0942
B( 17-C , 18-C ) :   1.6293 B( 17-C , 33-H ) :   0.9760 B( 18-C , 19-C ) :   1.1891
B( 18-C , 21-H ) :   0.9836 B( 19-C , 20-C ) :   1.6846 B( 19-C , 22-C ) :   1.0277
B( 22-C , 23-H ) :   0.9405 B( 22-C , 24-H ) :   0.9283 B( 22-C , 25-C ) :   1.0712
B( 25-C , 26-H ) :   0.9477 B( 25-C , 27-H ) :   0.9559 B( 25-C , 28-C ) :   1.0906
B( 28-C , 29-H ) :   0.9692 B( 28-C , 30-H ) :   0.9678 B( 28-C , 31-H ) :   0.9743

Dispersion correction           -0.014636971
FINAL SINGLE POINT ENERGY     -1339.856291227825

DIPOLE MOMENT
-------------
                                X             Y             Z
Electronic contribution:     16.15233      13.99068      17.38310
Nuclear contribution   :    -16.59884     -14.28538     -17.96786
                        -----------------------------------------
Total Dipole Moment    :     -0.44651      -0.29469      -0.58476
                        -----------------------------------------
Magnitude (a.u.)       :      0.79257
Magnitude (Debye)      :      2.01454

Rotational constants in cm-1:     0.017914     0.009292     0.007087
Rotational constants in MHz :   537.039341   278.579518   212.470630

                             ****ORCA TERMINATED NORMALLY****
TOTAL RUN TIME: 0 days 0 hours 0 minutes 35 seconds 62 msec
