                         Program Version 4.2.1 -  RELEASE  -
|  1> ! wB97X-D3 SP def2-SVP
|  2> %pal
|  3> nprocs 16
|  4> end
|  5>
|  6> * xyz 0 1
|  7> S 	 33.2124 	 1.77076 	 74.0224
|  8> C 	 32.9851 	 0.495686 	 72.8614
|  9> C 	 33.3604 	 -0.698604 	 73.3889
| 10> C 	 33.7935 	 -0.598761 	 74.7436
| 11> C 	 33.7426 	 0.681395 	 75.254
| 12> H 	 34.2502 	 -1.37096 	 75.3264
| 13> C 	 33.319 	 -2.01015 	 72.6854
| 14> H 	 32.8835 	 -2.85033 	 73.3264
| 15> H 	 34.3249 	 -2.37291 	 72.524
| 16> C 	 32.5491 	 -2.04664 	 71.3014
| 17> H 	 33.0498 	 -1.34004 	 70.7027
| 18> H 	 32.6701 	 -2.94058 	 70.715
| 19> C 	 31.0455 	 -1.84616 	 71.3799
| 20> H 	 30.7937 	 -0.819068 	 71.5553
| 21> H 	 30.5285 	 -2.1442 	 70.4606
| 22> H 	 30.5155 	 -2.41191 	 72.1578
| 23> S 	 32.9727 	 2.46368 	 77.2147
| 24> C 	 33.677 	 2.46046 	 78.7934
| 25> C 	 34.5216 	 1.36389 	 78.9258
| 26> C 	 34.6829 	 0.572108 	 77.7131
| 27> C 	 33.9199 	 1.11317 	 76.6465
| 28> H 	 34.87 	 1.05013 	 79.9007
| 29> C 	 35.3178 	 -0.822745 	 77.6887
| 30> H 	 35.9839 	 -0.873711 	 76.7995
| 31> H 	 34.5862 	 -1.64726 	 77.58
| 32> C 	 36.2124 	 -1.25071 	 78.8792
| 33> H 	 35.7259 	 -0.971931 	 79.801
| 34> H 	 37.1639 	 -0.755418 	 78.8024
| 35> C 	 36.5406 	 -2.78813 	 79.0132
| 36> H 	 36.8885 	 -3.18752 	 78.0346
| 37> H 	 35.6429 	 -3.26631 	 79.2741
| 38> H 	 37.3181 	 -2.90623 	 79.7287
| 39> H 	 32.7071 	 0.635131 	 71.8399
| 40> H 	 33.2396 	 3.1117 	 79.5386
| 41> *
| 42>
| 43>                          ****END OF INPUT****

CARTESIAN COORDINATES (ANGSTROEM)
---------------------------------
  S     33.212400    1.770760   74.022400
  C     32.985100    0.495686   72.861400
  C     33.360400   -0.698604   73.388900
  C     33.793500   -0.598761   74.743600
  C     33.742600    0.681395   75.254000
  H     34.250200   -1.370960   75.326400
  C     33.319000   -2.010150   72.685400
  H     32.883500   -2.850330   73.326400
  H     34.324900   -2.372910   72.524000
  C     32.549100   -2.046640   71.301400
  H     33.049800   -1.340040   70.702700
  H     32.670100   -2.940580   70.715000
  C     31.045500   -1.846160   71.379900
  H     30.793700   -0.819068   71.555300
  H     30.528500   -2.144200   70.460600
  H     30.515500   -2.411910   72.157800
  S     32.972700    2.463680   77.214700
  C     33.677000    2.460460   78.793400
  C     34.521600    1.363890   78.925800
  C     34.682900    0.572108   77.713100
  C     33.919900    1.113170   76.646500
  H     34.870000    1.050130   79.900700
  C     35.317800   -0.822745   77.688700
  H     35.983900   -0.873711   76.799500
  H     34.586200   -1.647260   77.580000
  C     36.212400   -1.250710   78.879200
  H     35.725900   -0.971931   79.801000
  H     37.163900   -0.755418   78.802400
  C     36.540600   -2.788130   79.013200
  H     36.888500   -3.187520   78.034600
  H     35.642900   -3.266310   79.274100
  H     37.318100   -2.906230   79.728700
  H     32.707100    0.635131   71.839900
  H     33.239600    3.111700   79.538600

 Total Charge           Charge          ....    0
 Multiplicity           Mult            ....    1
 Number of Electrons    NEL             ....  134
 Basis Dimension        Dim             ....  322

ORBITAL ENERGIES
----------------

  NO   OCC          E(Eh)            E(eV)
   0   2.0000     -88.965685     -2420.8794
   1   2.0000     -88.964194     -2420.8388
   2   2.0000     -10.333012      -281.1755
   3   2.0000     -10.330232      -281.0999
   4   2.0000     -10.319323      -280.8031
   5   2.0000     -10.312610      -280.6204
   6   2.0000     -10.309433      -280.5339
   7   2.0000     -10.301678      -280.3229
   8   2.0000     -10.300542      -280.2920
   9   2.0000     -10.298590      -280.2389
  10   2.0000     -10.297559      -280.2108
  11   2.0000     -10.289509      -279.9918
  12   2.0000     -10.287371      -279.9336
  13   2.0000     -10.285168      -279.8736
  14   2.0000     -10.280158      -279.7373
  15   2.0000     -10.274490      -279.5831
  16   2.0000      -8.080992      -219.8950
  17   2.0000      -8.079628      -219.8579
  18   2.0000      -6.039447      -164.3417
  19   2.0000      -6.038229      -164.3086
  20   2.0000      -6.035279      -164.2283
  21   2.0000      -6.033968      -164.1926
  22   2.0000      -6.031902      -164.1364
  23   2.0000      -6.030306      -164.0930
  24   2.0000      -1.010669       -27.5017
  25   2.0000      -0.987009       -26.8579
  26   2.0000      -0.910942       -24.7880
  27   2.0000      -0.906068       -24.6554
  28   2.0000      -0.868969       -23.6459
  29   2.0000      -0.854754       -23.2590
  30   2.0000      -0.844890       -22.9906
  31   2.0000      -0.814726       -22.1698
  32   2.0000      -0.784791       -21.3552
  33   2.0000      -0.776451       -21.1283
  34   2.0000      -0.712268       -19.3818
  35   2.0000      -0.706368       -19.2212
  36   2.0000      -0.696389       -18.9497
  37   2.0000      -0.655672       -17.8417
  38   2.0000      -0.640255       -17.4222
  39   2.0000      -0.616065       -16.7640
  40   2.0000      -0.599812       -16.3217
  41   2.0000      -0.578896       -15.7526
  42   2.0000      -0.573453       -15.6044
  43   2.0000      -0.550107       -14.9692
  44   2.0000      -0.539154       -14.6711
  45   2.0000      -0.527292       -14.3483
  46   2.0000      -0.518486       -14.1087
  47   2.0000      -0.512701       -13.9513
  48   2.0000      -0.503730       -13.7072
  49   2.0000      -0.501540       -13.6476
  50   2.0000      -0.490484       -13.3467
  51   2.0000      -0.483097       -13.1457
  52   2.0000      -0.473780       -12.8922
  53   2.0000      -0.471965       -12.8428
  54   2.0000      -0.466328       -12.6894
  55   2.0000      -0.453714       -12.3462
  56   2.0000      -0.443556       -12.0698
  57   2.0000      -0.439308       -11.9542
  58   2.0000      -0.430889       -11.7251
  59   2.0000      -0.425451       -11.5771
  60   2.0000      -0.419777       -11.4227
  61   2.0000      -0.416275       -11.3274
  62   2.0000      -0.410710       -11.1760
  63   2.0000      -0.359434        -9.7807
  64   2.0000      -0.329235        -8.9589
  65   2.0000      -0.328411        -8.9365
  66   2.0000      -0.286847        -7.8055
  67   0.0000       0.022886         0.6228
  68   0.0000       0.084053         2.2872
  69   0.0000       0.107098         2.9143
  70   0.0000       0.119293         3.2461
  71   0.0000       0.134771         3.6673

MULLIKEN ATOMIC CHARGES
-----------------------
   0 S :    0.105954
   1 C :   -0.122463
   2 C :   -0.042163
   3 C :   -0.002783
   4 C :   -0.118113
   5 H :   -0.006398
   6 C :    0.031660
   7 H :    0.040446
   8 H :    0.034566
   9 C :   -0.060560
  10 H :    0.013417
  11 H :    0.020234
  12 C :   -0.042833
  13 H :    0.020639
  14 H :    0.029917
  15 H :    0.030504
  16 S :    0.102581
  17 C :   -0.097815
  18 C :   -0.033193
  19 C :   -0.028409
  20 C :   -0.131245
  21 H :    0.023096
  22 C :   -0.009220
  23 H :    0.043940
  24 H :    0.053987
  25 C :   -0.093867
  26 H :    0.027184
  27 H :    0.032568
  28 C :   -0.027566
  29 H :    0.029578
  30 H :    0.028494
  31 H :    0.035750
  32 H :    0.043408
  33 H :    0.068706
Sum of atomic charges:    0.0000000

LOEWDIN ATOMIC CHARGES
----------------------
   0 S :    0.414670
   1 C :   -0.197236
   2 C :   -0.064542
   3 C :   -0.064492
   4 C :   -0.191907
   5 H :    0.025759
   6 C :   -0.033541
   7 H :    0.037860
   8 H :    0.032474
   9 C :   -0.042277
  10 H :    0.015676
  11 H :    0.026484
  12 C :   -0.067329
  13 H :    0.018206
  14 H :    0.027853
  15 H :    0.028845
  16 S :    0.421607
  17 C :   -0.194650
  18 C :   -0.070380
  19 C :   -0.059082
  20 C :   -0.194542
  21 H :    0.029116
  22 C :   -0.041723
  23 H :    0.036574
  24 H :    0.032640
  25 C :   -0.037652
  26 H :    0.017266
  27 H :    0.021470
  28 C :   -0.052375
  29 H :    0.026704
  30 H :    0.017064
  31 H :    0.025124
  32 H :    0.025581
  33 H :    0.030755

  Mayer bond orders larger than 0.100000
B(  0-S ,  1-C ) :   1.1244 B(  0-S ,  4-C ) :   1.1560 B(  1-C ,  2-C ) :   1.6231
B(  1-C , 32-H ) :   0.9608 B(  2-C ,  3-C ) :   1.2424 B(  2-C ,  6-C ) :   1.0139
B(  3-C ,  4-C ) :   1.5598 B(  3-C ,  5-H ) :   0.9951 B(  4-C , 20-C ) :   1.0627
B(  6-C ,  7-H ) :   0.9465 B(  6-C ,  8-H ) :   0.9325 B(  6-C ,  9-C ) :   1.0776
B(  9-C , 10-H ) :   0.9495 B(  9-C , 11-H ) :   0.9561 B(  9-C , 12-C ) :   1.0754
B( 12-C , 13-H ) :   0.9760 B( 12-C , 14-H ) :   0.9751 B( 12-C , 15-H ) :   0.9736
B( 16-S , 17-C ) :   1.1689 B( 16-S , 20-C ) :   1.1657 B( 17-C , 18-C ) :   1.5640
B( 17-C , 20-C ) :   0.1012 B( 17-C , 33-H ) :   0.9701 B( 18-C , 19-C ) :   1.2760
B( 18-C , 21-H ) :   0.9866 B( 19-C , 20-C ) :   1.5495 B( 19-C , 22-C ) :   1.0400
B( 22-C , 23-H ) :   0.9246 B( 22-C , 24-H ) :   0.9406 B( 22-C , 25-C ) :   1.0662
B( 25-C , 26-H ) :   0.9505 B( 25-C , 27-H ) :   0.9596 B( 25-C , 28-C ) :   1.0845
B( 28-C , 29-H ) :   0.9772 B( 28-C , 30-H ) :   0.9772 B( 28-C , 31-H ) :   0.9747

Dispersion correction           -0.013404441
FINAL SINGLE POINT ENERGY     -1339.883936685139

DIPOLE MOMENT
-------------
                                X             Y             Z
Electronic contribution:     -5.09931      25.99932       3.28395
Nuclear contribution   :      5.22566     -26.72152      -3.16519
                        -----------------------------------------
Total Dipole Moment    :      0.12636      -0.72219       0.11877
                        -----------------------------------------
Magnitude (a.u.)       :      0.74272
Magnitude (Debye)      :      1.88785

Rotational constants in cm-1:     0.019089     0.007887     0.005874
Rotational constants in MHz :   572.272764   236.448516   176.096041

                             ****ORCA TERMINATED NORMALLY****
TOTAL RUN TIME: 0 days 0 hours 0 minutes 29 seconds 24 msec
