                         Program Version 4.2.1 -  RELEASE  -
|  1> ! wB97X-D3 SP def2-SVP
|  2> %pal
|  3> nprocs 16
|  4> end
|  5>
|  6> * xyz 0 1
|  7> S 	 -20.1107 	 -5.36095 	 83.7877
|  8> C 	 -19.9895 	 -6.54952 	 82.5251
|  9> C 	 -20.0369 	 -7.81233 	 83.0203
| 10> C 	 -20.0075 	 -7.81595 	 84.4223
| 11> C 	 -20.0225 	 -6.63697 	 85.0306
| 12> H 	 -20.0168 	 -8.82136 	 84.9089
| 13> C 	 -20.0824 	 -9.1141 	 82.1183
| 14> H 	 -19.8302 	 -9.92798 	 82.7725
| 15> H 	 -19.2616 	 -9.09485 	 81.404
| 16> C 	 -21.3909 	 -9.38822 	 81.3526
| 17> H 	 -22.1029 	 -9.48693 	 82.1127
| 18> H 	 -21.8087 	 -8.51281 	 80.836
| 19> C 	 -21.4368 	 -10.6151 	 80.3636
| 20> H 	 -20.8186 	 -10.3921 	 79.5128
| 21> H 	 -20.9794 	 -11.551 	 80.7176
| 22> H 	 -22.4054 	 -10.8797 	 80.0368
| 23> S 	 -21.4193 	 -6.67979 	 87.3075
| 24> C 	 -20.8204 	 -5.98605 	 88.8275
| 25> C 	 -19.633 	 -5.29147 	 88.5674
| 26> C 	 -19.1793 	 -5.40269 	 87.1812
| 27> C 	 -19.9896 	 -6.30033 	 86.4589
| 28> H 	 -19.0969 	 -4.62399 	 89.2732
| 29> C 	 -17.9927 	 -4.65502 	 86.6857
| 30> H 	 -17.8695 	 -3.72593 	 87.3578
| 31> H 	 -18.3006 	 -4.15191 	 85.8032
| 32> C 	 -16.654 	 -5.389 	 86.4896
| 33> H 	 -16.7179 	 -6.18941 	 85.7465
| 34> H 	 -16.3274 	 -5.88244 	 87.371
| 35> C 	 -15.629 	 -4.41546 	 86.0935
| 36> H 	 -14.7335 	 -4.96987 	 85.9002
| 37> H 	 -15.442 	 -3.73929 	 86.9935
| 38> H 	 -15.9135 	 -4.00731 	 85.1659
| 39> H 	 -19.9701 	 -6.29897 	 81.4633
| 40> H 	 -21.4079 	 -5.79658 	 89.6784
| 41> *
| 42>
| 43>                          ****END OF INPUT****

CARTESIAN COORDINATES (ANGSTROEM)
---------------------------------
  S    -20.110700   -5.360950   83.787700
  C    -19.989500   -6.549520   82.525100
  C    -20.036900   -7.812330   83.020300
  C    -20.007500   -7.815950   84.422300
  C    -20.022500   -6.636970   85.030600
  H    -20.016800   -8.821360   84.908900
  C    -20.082400   -9.114100   82.118300
  H    -19.830200   -9.927980   82.772500
  H    -19.261600   -9.094850   81.404000
  C    -21.390900   -9.388220   81.352600
  H    -22.102900   -9.486930   82.112700
  H    -21.808700   -8.512810   80.836000
  C    -21.436800  -10.615100   80.363600
  H    -20.818600  -10.392100   79.512800
  H    -20.979400  -11.551000   80.717600
  H    -22.405400  -10.879700   80.036800
  S    -21.419300   -6.679790   87.307500
  C    -20.820400   -5.986050   88.827500
  C    -19.633000   -5.291470   88.567400
  C    -19.179300   -5.402690   87.181200
  C    -19.989600   -6.300330   86.458900
  H    -19.096900   -4.623990   89.273200
  C    -17.992700   -4.655020   86.685700
  H    -17.869500   -3.725930   87.357800
  H    -18.300600   -4.151910   85.803200
  C    -16.654000   -5.389000   86.489600
  H    -16.717900   -6.189410   85.746500
  H    -16.327400   -5.882440   87.371000
  C    -15.629000   -4.415460   86.093500
  H    -14.733500   -4.969870   85.900200
  H    -15.442000   -3.739290   86.993500
  H    -15.913500   -4.007310   85.165900
  H    -19.970100   -6.298970   81.463300
  H    -21.407900   -5.796580   89.678400

 Total Charge           Charge          ....    0
 Multiplicity           Mult            ....    1
 Number of Electrons    NEL             ....  134
 Basis Dimension        Dim             ....  322

ORBITAL ENERGIES
----------------

  NO   OCC          E(Eh)            E(eV)
   0   2.0000     -88.965645     -2420.8783
   1   2.0000     -88.964420     -2420.8449
   2   2.0000     -10.327514      -281.0259
   3   2.0000     -10.324942      -280.9560
   4   2.0000     -10.317228      -280.7461
   5   2.0000     -10.312654      -280.6216
   6   2.0000     -10.304392      -280.3968
   7   2.0000     -10.301284      -280.3122
   8   2.0000     -10.298043      -280.2240
   9   2.0000     -10.297360      -280.2054
  10   2.0000     -10.291192      -280.0376
  11   2.0000     -10.289143      -279.9818
  12   2.0000     -10.286799      -279.9180
  13   2.0000     -10.279383      -279.7162
  14   2.0000     -10.275571      -279.6125
  15   2.0000     -10.269549      -279.4486
  16   2.0000      -8.080541      -219.8827
  17   2.0000      -8.078934      -219.8390
  18   2.0000      -6.039121      -164.3328
  19   2.0000      -6.037522      -164.2893
  20   2.0000      -6.034911      -164.2183
  21   2.0000      -6.033489      -164.1796
  22   2.0000      -6.031320      -164.1205
  23   2.0000      -6.029622      -164.0744
  24   2.0000      -1.010194       -27.4888
  25   2.0000      -0.985412       -26.8144
  26   2.0000      -0.915401       -24.9093
  27   2.0000      -0.902341       -24.5539
  28   2.0000      -0.869099       -23.6494
  29   2.0000      -0.856082       -23.2952
  30   2.0000      -0.846937       -23.0463
  31   2.0000      -0.817032       -22.2326
  32   2.0000      -0.783595       -21.3227
  33   2.0000      -0.767734       -20.8911
  34   2.0000      -0.709324       -19.3017
  35   2.0000      -0.703139       -19.1334
  36   2.0000      -0.691922       -18.8282
  37   2.0000      -0.666466       -18.1355
  38   2.0000      -0.637474       -17.3466
  39   2.0000      -0.624224       -16.9860
  40   2.0000      -0.597099       -16.2479
  41   2.0000      -0.570238       -15.5170
  42   2.0000      -0.563880       -15.3439
  43   2.0000      -0.553227       -15.0541
  44   2.0000      -0.530747       -14.4424
  45   2.0000      -0.521817       -14.1994
  46   2.0000      -0.520111       -14.1530
  47   2.0000      -0.514434       -13.9985
  48   2.0000      -0.505112       -13.7448
  49   2.0000      -0.498507       -13.5651
  50   2.0000      -0.488687       -13.2978
  51   2.0000      -0.480071       -13.0634
  52   2.0000      -0.467530       -12.7221
  53   2.0000      -0.463817       -12.6211
  54   2.0000      -0.456846       -12.4314
  55   2.0000      -0.446160       -12.1406
  56   2.0000      -0.444693       -12.1007
  57   2.0000      -0.442665       -12.0455
  58   2.0000      -0.433900       -11.8070
  59   2.0000      -0.424878       -11.5615
  60   2.0000      -0.420597       -11.4450
  61   2.0000      -0.414755       -11.2861
  62   2.0000      -0.412184       -11.2161
  63   2.0000      -0.344114        -9.3638
  64   2.0000      -0.335465        -9.1285
  65   2.0000      -0.323124        -8.7926
  66   2.0000      -0.300937        -8.1889
  67   0.0000       0.032968         0.8971
  68   0.0000       0.065139         1.7725
  69   0.0000       0.104915         2.8549
  70   0.0000       0.118137         3.2147
  71   0.0000       0.134084         3.6486

MULLIKEN ATOMIC CHARGES
-----------------------
   0 S :    0.104029
   1 C :   -0.136744
   2 C :   -0.097049
   3 C :    0.016036
   4 C :   -0.132875
   5 H :    0.022653
   6 C :    0.091863
   7 H :    0.009838
   8 H :    0.023690
   9 C :   -0.056121
  10 H :    0.010972
  11 H :    0.027209
  12 C :   -0.032183
  13 H :    0.024619
  14 H :    0.024105
  15 H :    0.030681
  16 S :    0.112469
  17 C :   -0.074892
  18 C :   -0.043430
  19 C :   -0.050603
  20 C :   -0.144479
  21 H :    0.031808
  22 C :    0.037253
  23 H :    0.016796
  24 H :    0.006112
  25 C :   -0.033632
  26 H :    0.028397
  27 H :    0.012384
  28 C :   -0.014556
  29 H :    0.018780
  30 H :    0.042588
  31 H :    0.022298
  32 H :    0.051385
  33 H :    0.050601
Sum of atomic charges:   -0.0000000

LOEWDIN ATOMIC CHARGES
----------------------
   0 S :    0.394037
   1 C :   -0.187969
   2 C :   -0.071473
   3 C :   -0.068749
   4 C :   -0.188748
   5 H :    0.041015
   6 C :   -0.022034
   7 H :    0.024774
   8 H :    0.026527
   9 C :   -0.041246
  10 H :    0.016313
  11 H :    0.027206
  12 C :   -0.061822
  13 H :    0.023162
  14 H :    0.026502
  15 H :    0.022893
  16 S :    0.429436
  17 C :   -0.184761
  18 C :   -0.064871
  19 C :   -0.056358
  20 C :   -0.215616
  21 H :    0.035168
  22 C :   -0.043279
  23 H :    0.037768
  24 H :    0.019650
  25 C :   -0.035480
  26 H :    0.026729
  27 H :    0.018371
  28 C :   -0.058217
  29 H :    0.023038
  30 H :    0.035329
  31 H :    0.019932
  32 H :    0.030730
  33 H :    0.022044

  Mayer bond orders larger than 0.100000
B(  0-S ,  1-C ) :   1.1482 B(  0-S ,  4-C ) :   1.1206 B(  1-C ,  2-C ) :   1.6266
B(  1-C , 32-H ) :   0.9665 B(  2-C ,  3-C ) :   1.2645 B(  2-C ,  6-C ) :   1.0018
B(  3-C ,  4-C ) :   1.6005 B(  3-C ,  5-H ) :   0.9882 B(  4-C , 20-C ) :   1.0172
B(  6-C ,  7-H ) :   0.9402 B(  6-C ,  8-H ) :   0.9472 B(  6-C ,  9-C ) :   1.0529
B(  9-C , 10-H ) :   0.9545 B(  9-C , 11-H ) :   0.9592 B(  9-C , 12-C ) :   1.0711
B( 12-C , 13-H ) :   0.9763 B( 12-C , 14-H ) :   0.9772 B( 12-C , 15-H ) :   0.9769
B( 16-S , 17-C ) :   1.1552 B( 16-S , 20-C ) :   1.1763 B( 17-C , 18-C ) :   1.5788
B( 17-C , 33-H ) :   0.9737 B( 18-C , 19-C ) :   1.2757 B( 18-C , 21-H ) :   0.9787
B( 19-C , 20-C ) :   1.5478 B( 19-C , 22-C ) :   1.0532 B( 22-C , 23-H ) :   0.9326
B( 22-C , 24-H ) :   0.9167 B( 22-C , 25-C ) :   1.0614 B( 25-C , 26-H ) :   0.9482
B( 25-C , 27-H ) :   0.9518 B( 25-C , 28-C ) :   1.1003 B( 28-C , 29-H ) :   0.9683
B( 28-C , 30-H ) :   0.9725 B( 28-C , 31-H ) :   0.9718

Dispersion correction           -0.013758084
FINAL SINGLE POINT ENERGY     -1339.866992383983

DIPOLE MOMENT
-------------
                                X             Y             Z
Electronic contribution:    -12.16005       8.07777      12.74101
Nuclear contribution   :     12.37591      -8.18576     -12.96285
                        -----------------------------------------
Total Dipole Moment    :      0.21586      -0.10798      -0.22185
                        -----------------------------------------
Magnitude (a.u.)       :      0.32783
Magnitude (Debye)      :      0.83327

Rotational constants in cm-1:     0.020983     0.007394     0.006100
Rotational constants in MHz :   629.064834   221.680321   182.885874

                             ****ORCA TERMINATED NORMALLY****
TOTAL RUN TIME: 0 days 0 hours 0 minutes 33 seconds 549 msec
