                         Program Version 4.2.1 -  RELEASE  -
|  1> ! wB97X-D3 SP def2-SVP
|  2> %pal
|  3> nprocs 16
|  4> end
|  5>
|  6> * xyz 0 1
|  7> S 	 -31.9861 	 33.2151 	 39.4454
|  8> C 	 -31.6239 	 34.1124 	 37.912
|  9> C 	 -30.7697 	 35.1991 	 38.1803
| 10> C 	 -30.2472 	 35.2222 	 39.4924
| 11> C 	 -30.7815 	 34.2134 	 40.3241
| 12> H 	 -29.6434 	 35.9353 	 39.9937
| 13> C 	 -30.6019 	 36.2539 	 37.165
| 14> H 	 -31.3964 	 36.9476 	 37.3512
| 15> H 	 -30.8728 	 36.0577 	 36.1361
| 16> C 	 -29.2398 	 36.9429 	 37.2255
| 17> H 	 -29.2241 	 37.7553 	 36.4594
| 18> H 	 -29.1994 	 37.3799 	 38.1913
| 19> C 	 -28.0464 	 35.982 	 37.0186
| 20> H 	 -27.9353 	 35.4046 	 36.0874
| 21> H 	 -27.1537 	 36.5172 	 37.118
| 22> H 	 -28.2013 	 35.2356 	 37.7212
| 23> S 	 -30.0775 	 32.43 	 42.2623
| 24> C 	 -29.9245 	 32.8806 	 43.8968
| 25> C 	 -30.1754 	 34.2754 	 44.0254
| 26> C 	 -30.5509 	 34.9247 	 42.8091
| 27> C 	 -30.4615 	 34.0551 	 41.7143
| 28> H 	 -30.0393 	 34.734 	 45.0145
| 29> C 	 -31.1158 	 36.369 	 42.8253
| 30> H 	 -32.1506 	 36.4319 	 43.257
| 31> H 	 -31.2791 	 36.7809 	 41.8303
| 32> C 	 -30.2498 	 37.4668 	 43.6444
| 33> H 	 -30.0629 	 37.1674 	 44.7113
| 34> H 	 -30.8082 	 38.3964 	 43.6672
| 35> C 	 -28.9945 	 37.7509 	 42.9142
| 36> H 	 -28.3886 	 38.5693 	 43.2345
| 37> H 	 -29.3075 	 37.9535 	 41.8235
| 38> H 	 -28.3474 	 36.8551 	 43.0302
| 39> H 	 -32.2368 	 34.0236 	 36.9673
| 40> H 	 -29.5616 	 32.2656 	 44.6624
| 41> *
| 42>
| 43>                          ****END OF INPUT****

CARTESIAN COORDINATES (ANGSTROEM)
---------------------------------
  S    -31.986100   33.215100   39.445400
  C    -31.623900   34.112400   37.912000
  C    -30.769700   35.199100   38.180300
  C    -30.247200   35.222200   39.492400
  C    -30.781500   34.213400   40.324100
  H    -29.643400   35.935300   39.993700
  C    -30.601900   36.253900   37.165000
  H    -31.396400   36.947600   37.351200
  H    -30.872800   36.057700   36.136100
  C    -29.239800   36.942900   37.225500
  H    -29.224100   37.755300   36.459400
  H    -29.199400   37.379900   38.191300
  C    -28.046400   35.982000   37.018600
  H    -27.935300   35.404600   36.087400
  H    -27.153700   36.517200   37.118000
  H    -28.201300   35.235600   37.721200
  S    -30.077500   32.430000   42.262300
  C    -29.924500   32.880600   43.896800
  C    -30.175400   34.275400   44.025400
  C    -30.550900   34.924700   42.809100
  C    -30.461500   34.055100   41.714300
  H    -30.039300   34.734000   45.014500
  C    -31.115800   36.369000   42.825300
  H    -32.150600   36.431900   43.257000
  H    -31.279100   36.780900   41.830300
  C    -30.249800   37.466800   43.644400
  H    -30.062900   37.167400   44.711300
  H    -30.808200   38.396400   43.667200
  C    -28.994500   37.750900   42.914200
  H    -28.388600   38.569300   43.234500
  H    -29.307500   37.953500   41.823500
  H    -28.347400   36.855100   43.030200
  H    -32.236800   34.023600   36.967300
  H    -29.561600   32.265600   44.662400

 Total Charge           Charge          ....    0
 Multiplicity           Mult            ....    1
 Number of Electrons    NEL             ....  134
 Basis Dimension        Dim             ....  322

ORBITAL ENERGIES
----------------

  NO   OCC          E(Eh)            E(eV)
   0   2.0000     -88.969283     -2420.9773
   1   2.0000     -88.967986     -2420.9420
   2   2.0000     -10.335665      -281.2477
   3   2.0000     -10.329762      -281.0871
   4   2.0000     -10.321568      -280.8641
   5   2.0000     -10.317709      -280.7591
   6   2.0000     -10.314102      -280.6610
   7   2.0000     -10.304715      -280.4056
   8   2.0000     -10.304665      -280.4042
   9   2.0000     -10.300189      -280.2824
  10   2.0000     -10.296378      -280.1787
  11   2.0000     -10.292995      -280.0866
  12   2.0000     -10.285247      -279.8758
  13   2.0000     -10.284233      -279.8482
  14   2.0000     -10.279451      -279.7181
  15   2.0000     -10.264163      -279.3021
  16   2.0000      -8.083328      -219.9585
  17   2.0000      -8.081987      -219.9220
  18   2.0000      -6.041674      -164.4023
  19   2.0000      -6.040555      -164.3719
  20   2.0000      -6.037525      -164.2894
  21   2.0000      -6.036836      -164.2706
  22   2.0000      -6.034431      -164.2052
  23   2.0000      -6.032733      -164.1590
  24   2.0000      -1.004875       -27.3440
  25   2.0000      -0.978373       -26.6229
  26   2.0000      -0.915897       -24.9228
  27   2.0000      -0.906204       -24.6591
  28   2.0000      -0.868443       -23.6315
  29   2.0000      -0.853133       -23.2149
  30   2.0000      -0.840528       -22.8719
  31   2.0000      -0.814956       -22.1761
  32   2.0000      -0.783473       -21.3194
  33   2.0000      -0.772463       -21.0198
  34   2.0000      -0.712802       -19.3963
  35   2.0000      -0.695158       -18.9162
  36   2.0000      -0.691366       -18.8130
  37   2.0000      -0.656628       -17.8678
  38   2.0000      -0.642869       -17.4933
  39   2.0000      -0.623619       -16.9695
  40   2.0000      -0.603796       -16.4301
  41   2.0000      -0.565825       -15.3969
  42   2.0000      -0.557276       -15.1642
  43   2.0000      -0.551345       -15.0029
  44   2.0000      -0.544652       -14.8207
  45   2.0000      -0.535014       -14.5585
  46   2.0000      -0.521807       -14.1991
  47   2.0000      -0.513748       -13.9798
  48   2.0000      -0.500826       -13.6282
  49   2.0000      -0.497164       -13.5285
  50   2.0000      -0.486158       -13.2290
  51   2.0000      -0.482566       -13.1313
  52   2.0000      -0.469669       -12.7803
  53   2.0000      -0.464819       -12.6484
  54   2.0000      -0.462595       -12.5878
  55   2.0000      -0.450052       -12.2465
  56   2.0000      -0.439311       -11.9543
  57   2.0000      -0.436458       -11.8766
  58   2.0000      -0.432196       -11.7607
  59   2.0000      -0.424657       -11.5555
  60   2.0000      -0.419245       -11.4082
  61   2.0000      -0.414443       -11.2776
  62   2.0000      -0.409505       -11.1432
  63   2.0000      -0.343980        -9.3602
  64   2.0000      -0.333439        -9.0733
  65   2.0000      -0.328210        -8.9311
  66   2.0000      -0.288607        -7.8534
  67   0.0000       0.022221         0.6047
  68   0.0000       0.060782         1.6540
  69   0.0000       0.104954         2.8559
  70   0.0000       0.115949         3.1551
  71   0.0000       0.124788         3.3957

MULLIKEN ATOMIC CHARGES
-----------------------
   0 S :    0.106924
   1 C :   -0.147112
   2 C :   -0.083345
   3 C :    0.042350
   4 C :   -0.150116
   5 H :    0.000609
   6 C :    0.082507
   7 H :    0.029740
   8 H :    0.010143
   9 C :   -0.085445
  10 H :    0.029244
  11 H :    0.022985
  12 C :   -0.007772
  13 H :    0.026408
  14 H :    0.025617
  15 H :    0.019635
  16 S :    0.123843
  17 C :   -0.080741
  18 C :   -0.064212
  19 C :    0.011597
  20 C :   -0.188525
  21 H :    0.030024
  22 C :    0.028628
  23 H :    0.053592
  24 H :    0.018295
  25 C :   -0.092879
  26 H :    0.040560
  27 H :    0.027726
  28 C :   -0.063145
  29 H :    0.032709
  30 H :    0.034267
  31 H :    0.043301
  32 H :    0.074888
  33 H :    0.047700
Sum of atomic charges:    0.0000000

LOEWDIN ATOMIC CHARGES
----------------------
   0 S :    0.368155
   1 C :   -0.197887
   2 C :   -0.058227
   3 C :   -0.062047
   4 C :   -0.175360
   5 H :    0.026983
   6 C :   -0.038766
   7 H :    0.036370
   8 H :    0.029545
   9 C :   -0.034017
  10 H :    0.025673
  11 H :    0.017543
  12 C :   -0.058100
  13 H :    0.030237
  14 H :    0.020154
  15 H :    0.017809
  16 S :    0.437330
  17 C :   -0.194332
  18 C :   -0.074213
  19 C :   -0.055187
  20 C :   -0.204333
  21 H :    0.032496
  22 C :   -0.028896
  23 H :    0.041252
  24 H :    0.025042
  25 C :   -0.044626
  26 H :    0.024618
  27 H :    0.022593
  28 C :   -0.074301
  29 H :    0.019888
  30 H :    0.031066
  31 H :    0.030321
  32 H :    0.041843
  33 H :    0.021374

  Mayer bond orders larger than 0.100000
B(  0-S ,  1-C ) :   1.1146 B(  0-S ,  4-C ) :   1.1524 B(  1-C ,  2-C ) :   1.5984
B(  1-C ,  4-C ) :   0.1065 B(  1-C , 32-H ) :   0.9610 B(  2-C ,  3-C ) :   1.2226
B(  2-C ,  6-C ) :   1.0260 B(  3-C ,  4-C ) :   1.5527 B(  3-C ,  5-H ) :   0.9983
B(  4-C , 20-C ) :   1.0752 B(  6-C ,  7-H ) :   0.9254 B(  6-C ,  8-H ) :   0.9374
B(  6-C ,  9-C ) :   1.0795 B(  9-C , 10-H ) :   0.9558 B(  9-C , 11-H ) :   0.9491
B(  9-C , 12-C ) :   1.0752 B( 12-C , 13-H ) :   0.9736 B( 12-C , 14-H ) :   0.9747
B( 12-C , 15-H ) :   0.9716 B( 16-S , 17-C ) :   1.1863 B( 16-S , 20-C ) :   1.1570
B( 17-C , 18-C ) :   1.5642 B( 17-C , 20-C ) :   0.1063 B( 17-C , 33-H ) :   0.9761
B( 18-C , 19-C ) :   1.2642 B( 18-C , 21-H ) :   0.9871 B( 19-C , 20-C ) :   1.5432
B( 19-C , 22-C ) :   1.0296 B( 22-C , 23-H ) :   0.9414 B( 22-C , 24-H ) :   0.9410
B( 22-C , 25-C ) :   1.0640 B( 25-C , 26-H ) :   0.9556 B( 25-C , 27-H ) :   0.9552
B( 25-C , 28-C ) :   1.0753 B( 28-C , 29-H ) :   0.9728 B( 28-C , 30-H ) :   0.9687
B( 28-C , 31-H ) :   0.9734

Dispersion correction           -0.014846061
FINAL SINGLE POINT ENERGY     -1339.861894984913

DIPOLE MOMENT
-------------
                                X             Y             Z
Electronic contribution:    -10.39140     -25.46223       4.94602
Nuclear contribution   :     10.40072      26.19778      -4.79626
                        -----------------------------------------
Total Dipole Moment    :      0.00932       0.73555       0.14976
                        -----------------------------------------
Magnitude (a.u.)       :      0.75070
Magnitude (Debye)      :      1.90812

Rotational constants in cm-1:     0.017309     0.009697     0.007308
Rotational constants in MHz :   518.924601   290.718788   219.089450

                             ****ORCA TERMINATED NORMALLY****
TOTAL RUN TIME: 0 days 0 hours 0 minutes 32 seconds 994 msec
