                         Program Version 4.2.1 -  RELEASE  -
|  1> ! wB97X-D3 SP def2-SVP
|  2> %pal
|  3> nprocs 16
|  4> end
|  5>
|  6> * xyz 0 1
|  7> S 	 -110.546 	 57.118 	 116.212
|  8> C 	 -110.982 	 57.0832 	 114.493
|  9> C 	 -110.547 	 55.9602 	 113.769
| 10> C 	 -109.779 	 55.1029 	 114.66
| 11> C 	 -109.494 	 55.6801 	 115.9
| 12> H 	 -109.22 	 54.2376 	 114.403
| 13> C 	 -110.765 	 55.7181 	 112.295
| 14> H 	 -109.861 	 56.1082 	 111.805
| 15> H 	 -111.586 	 56.3714 	 112.037
| 16> C 	 -110.987 	 54.3037 	 111.997
| 17> H 	 -111.154 	 54.2943 	 110.922
| 18> H 	 -110.11 	 53.7038 	 112.114
| 19> C 	 -112.18 	 53.5519 	 112.634
| 20> H 	 -113.125 	 53.9146 	 112.215
| 21> H 	 -112.152 	 52.5186 	 112.332
| 22> H 	 -112.097 	 53.6716 	 113.724
| 23> S 	 -107.467 	 56.3354 	 117.662
| 24> C 	 -106.494 	 55.0369 	 118.34
| 25> C 	 -107.073 	 53.8623 	 118.055
| 26> C 	 -108.153 	 53.8866 	 117.16
| 27> C 	 -108.565 	 55.1833 	 116.928
| 28> H 	 -106.465 	 52.9882 	 118.374
| 29> C 	 -108.554 	 52.5658 	 116.427
| 30> H 	 -107.868 	 52.3584 	 115.595
| 31> H 	 -109.56 	 52.665 	 115.95
| 32> C 	 -108.556 	 51.3535 	 117.314
| 33> H 	 -107.594 	 51.1805 	 117.746
| 34> H 	 -108.857 	 50.483 	 116.708
| 35> C 	 -109.492 	 51.4658 	 118.6
| 36> H 	 -109.187 	 50.6828 	 119.278
| 37> H 	 -110.477 	 51.2321 	 118.35
| 38> H 	 -109.42 	 52.4362 	 119.166
| 39> H 	 -111.62 	 57.8054 	 114.034
| 40> H 	 -105.59 	 55.1474 	 118.95
| 41> *
| 42>
| 43>                          ****END OF INPUT****

CARTESIAN COORDINATES (ANGSTROEM)
---------------------------------
  S    -110.546000   57.118000  116.212000
  C    -110.982000   57.083200  114.493000
  C    -110.547000   55.960200  113.769000
  C    -109.779000   55.102900  114.660000
  C    -109.494000   55.680100  115.900000
  H    -109.220000   54.237600  114.403000
  C    -110.765000   55.718100  112.295000
  H    -109.861000   56.108200  111.805000
  H    -111.586000   56.371400  112.037000
  C    -110.987000   54.303700  111.997000
  H    -111.154000   54.294300  110.922000
  H    -110.110000   53.703800  112.114000
  C    -112.180000   53.551900  112.634000
  H    -113.125000   53.914600  112.215000
  H    -112.152000   52.518600  112.332000
  H    -112.097000   53.671600  113.724000
  S    -107.467000   56.335400  117.662000
  C    -106.494000   55.036900  118.340000
  C    -107.073000   53.862300  118.055000
  C    -108.153000   53.886600  117.160000
  C    -108.565000   55.183300  116.928000
  H    -106.465000   52.988200  118.374000
  C    -108.554000   52.565800  116.427000
  H    -107.868000   52.358400  115.595000
  H    -109.560000   52.665000  115.950000
  C    -108.556000   51.353500  117.314000
  H    -107.594000   51.180500  117.746000
  H    -108.857000   50.483000  116.708000
  C    -109.492000   51.465800  118.600000
  H    -109.187000   50.682800  119.278000
  H    -110.477000   51.232100  118.350000
  H    -109.420000   52.436200  119.166000
  H    -111.620000   57.805400  114.034000
  H    -105.590000   55.147400  118.950000

 Total Charge           Charge          ....    0
 Multiplicity           Mult            ....    1
 Number of Electrons    NEL             ....  134
 Basis Dimension        Dim             ....  322

ORBITAL ENERGIES
----------------

  NO   OCC          E(Eh)            E(eV)
   0   2.0000     -88.966399     -2420.8988
   1   2.0000     -88.964331     -2420.8425
   2   2.0000     -10.335086      -281.2320
   3   2.0000     -10.327565      -281.0273
   4   2.0000     -10.315713      -280.7048
   5   2.0000     -10.311837      -280.5994
   6   2.0000     -10.304218      -280.3920
   7   2.0000     -10.303739      -280.3790
   8   2.0000     -10.299653      -280.2678
   9   2.0000     -10.295309      -280.1496
  10   2.0000     -10.291634      -280.0496
  11   2.0000     -10.289083      -279.9802
  12   2.0000     -10.287624      -279.9405
  13   2.0000     -10.281166      -279.7648
  14   2.0000     -10.278425      -279.6902
  15   2.0000     -10.273042      -279.5437
  16   2.0000      -8.079753      -219.8613
  17   2.0000      -8.079088      -219.8432
  18   2.0000      -6.038293      -164.3103
  19   2.0000      -6.037650      -164.2928
  20   2.0000      -6.034749      -164.2139
  21   2.0000      -6.033624      -164.1833
  22   2.0000      -6.030287      -164.0925
  23   2.0000      -6.029731      -164.0773
  24   2.0000      -1.006016       -27.3751
  25   2.0000      -0.977101       -26.5883
  26   2.0000      -0.920782       -25.0557
  27   2.0000      -0.907685       -24.6994
  28   2.0000      -0.868236       -23.6259
  29   2.0000      -0.845395       -23.0044
  30   2.0000      -0.838525       -22.8174
  31   2.0000      -0.815308       -22.1857
  32   2.0000      -0.787991       -21.4423
  33   2.0000      -0.778404       -21.1814
  34   2.0000      -0.711255       -19.3542
  35   2.0000      -0.694510       -18.8986
  36   2.0000      -0.691443       -18.8151
  37   2.0000      -0.651714       -17.7340
  38   2.0000      -0.637204       -17.3392
  39   2.0000      -0.622644       -16.9430
  40   2.0000      -0.603072       -16.4104
  41   2.0000      -0.564034       -15.3482
  42   2.0000      -0.563568       -15.3355
  43   2.0000      -0.551020       -14.9940
  44   2.0000      -0.539715       -14.6864
  45   2.0000      -0.535386       -14.5686
  46   2.0000      -0.523622       -14.2485
  47   2.0000      -0.510205       -13.8834
  48   2.0000      -0.501785       -13.6543
  49   2.0000      -0.491429       -13.3725
  50   2.0000      -0.486450       -13.2370
  51   2.0000      -0.477217       -12.9857
  52   2.0000      -0.470754       -12.8099
  53   2.0000      -0.465691       -12.6721
  54   2.0000      -0.460352       -12.5268
  55   2.0000      -0.449161       -12.2223
  56   2.0000      -0.444415       -12.0931
  57   2.0000      -0.439892       -11.9701
  58   2.0000      -0.431457       -11.7405
  59   2.0000      -0.425804       -11.5867
  60   2.0000      -0.418245       -11.3810
  61   2.0000      -0.415980       -11.3194
  62   2.0000      -0.410426       -11.1683
  63   2.0000      -0.353693        -9.6245
  64   2.0000      -0.331342        -9.0163
  65   2.0000      -0.328054        -8.9268
  66   2.0000      -0.286056        -7.7840
  67   0.0000       0.025843         0.7032
  68   0.0000       0.072846         1.9822
  69   0.0000       0.105584         2.8731
  70   0.0000       0.117965         3.2100
  71   0.0000       0.129020         3.5108

MULLIKEN ATOMIC CHARGES
-----------------------
   0 S :    0.101831
   1 C :   -0.106639
   2 C :   -0.142072
   3 C :    0.012075
   4 C :   -0.146859
   5 H :    0.003065
   6 C :    0.146562
   7 H :    0.050195
   8 H :    0.010676
   9 C :   -0.103965
  10 H :    0.020365
  11 H :    0.022766
  12 C :   -0.036498
  13 H :    0.028814
  14 H :    0.029621
  15 H :    0.053954
  16 S :    0.099119
  17 C :   -0.107609
  18 C :   -0.048259
  19 C :   -0.050976
  20 C :   -0.128358
  21 H :    0.031534
  22 C :    0.058759
  23 H :    0.050787
  24 H :    0.034045
  25 C :   -0.081195
  26 H :    0.020823
  27 H :    0.034833
  28 C :   -0.057003
  29 H :    0.023225
  30 H :    0.021085
  31 H :    0.059787
  32 H :    0.031170
  33 H :    0.064344
Sum of atomic charges:    0.0000000

LOEWDIN ATOMIC CHARGES
----------------------
   0 S :    0.364993
   1 C :   -0.191226
   2 C :   -0.056624
   3 C :   -0.064875
   4 C :   -0.162269
   5 H :    0.022875
   6 C :   -0.028402
   7 H :    0.044554
   8 H :    0.030299
   9 C :   -0.050045
  10 H :    0.027442
  11 H :    0.020713
  12 C :   -0.059349
  13 H :    0.025811
  14 H :    0.026060
  15 H :    0.029172
  16 S :    0.399428
  17 C :   -0.181211
  18 C :   -0.083242
  19 C :   -0.058639
  20 C :   -0.199087
  21 H :    0.038367
  22 C :   -0.033698
  23 H :    0.035227
  24 H :    0.033211
  25 C :   -0.039633
  26 H :    0.014984
  27 H :    0.030283
  28 C :   -0.064374
  29 H :    0.024161
  30 H :    0.013964
  31 H :    0.036333
  32 H :    0.017622
  33 H :    0.037175

  Mayer bond orders larger than 0.100000
B(  0-S ,  1-C ) :   1.1192 B(  0-S ,  4-C ) :   1.1285 B(  1-C ,  2-C ) :   1.6504
B(  1-C , 32-H ) :   0.9635 B(  2-C ,  3-C ) :   1.1966 B(  2-C ,  6-C ) :   1.0102
B(  3-C ,  4-C ) :   1.6201 B(  3-C ,  5-H ) :   0.9826 B(  4-C , 20-C ) :   1.0391
B(  6-C ,  7-H ) :   0.9261 B(  6-C ,  8-H ) :   0.9308 B(  6-C ,  9-C ) :   1.0936
B(  9-C , 10-H ) :   0.9476 B(  9-C , 11-H ) :   0.9449 B(  9-C , 12-C ) :   1.0816
B( 12-C , 13-H ) :   0.9746 B( 12-C , 14-H ) :   0.9720 B( 12-C , 15-H ) :   0.9727
B( 16-S , 17-C ) :   1.1399 B( 16-S , 20-C ) :   1.1423 B( 17-C , 18-C ) :   1.6489
B( 17-C , 33-H ) :   0.9618 B( 18-C , 19-C ) :   1.2249 B( 18-C , 21-H ) :   0.9790
B( 19-C , 20-C ) :   1.6145 B( 19-C , 22-C ) :   1.0227 B( 22-C , 23-H ) :   0.9341
B( 22-C , 24-H ) :   0.9323 B( 22-C , 25-C ) :   1.0792 B( 25-C , 26-H ) :   0.9536
B( 25-C , 27-H ) :   0.9528 B( 25-C , 28-C ) :   1.0743 B( 28-C , 29-H ) :   0.9763
B( 28-C , 30-H ) :   0.9789 B( 28-C , 31-H ) :   0.9725

Dispersion correction           -0.014562823
FINAL SINGLE POINT ENERGY     -1339.871728393469

DIPOLE MOMENT
-------------
                                X             Y             Z
Electronic contribution:      7.77817      23.94657      11.62026
Nuclear contribution   :     -7.57083     -24.62454     -12.15508
                        -----------------------------------------
Total Dipole Moment    :      0.20734      -0.67798      -0.53482
                        -----------------------------------------
Magnitude (a.u.)       :      0.88807
Magnitude (Debye)      :      2.25730

Rotational constants in cm-1:     0.018003     0.009427     0.007010
Rotational constants in MHz :   539.726324   282.615828   210.148908

                             ****ORCA TERMINATED NORMALLY****
TOTAL RUN TIME: 0 days 0 hours 0 minutes 35 seconds 887 msec
