                         Program Version 4.2.1 -  RELEASE  -
|  1> ! wB97X-D3 SP def2-SVP
|  2> %pal
|  3> nprocs 16
|  4> end
|  5>
|  6> * xyz 0 1
|  7> S 	 -74.9693 	 51.634 	 139.144
|  8> C 	 -74.3254 	 53.2308 	 139.57
|  9> C 	 -75.0161 	 54.1075 	 138.734
| 10> C 	 -75.9003 	 53.4758 	 137.753
| 11> C 	 -75.9818 	 52.1314 	 137.8
| 12> H 	 -76.4981 	 54.0028 	 136.997
| 13> C 	 -74.9806 	 55.5797 	 138.813
| 14> H 	 -74.1085 	 55.8045 	 139.459
| 15> H 	 -75.9605 	 55.9175 	 139.218
| 16> C 	 -74.7642 	 56.288 	 137.452
| 17> H 	 -75.5482 	 56.0302 	 136.752
| 18> H 	 -74.7779 	 57.3051 	 137.684
| 19> C 	 -73.3612 	 56.1557 	 136.723
| 20> H 	 -72.4732 	 56.4529 	 137.302
| 21> H 	 -73.2001 	 55.2669 	 136.124
| 22> H 	 -73.4392 	 56.8502 	 135.934
| 23> S 	 -75.8267 	 49.8939 	 136.268
| 24> C 	 -77.1159 	 49.2024 	 135.369
| 25> C 	 -78.2048 	 50.0102 	 135.531
| 26> C 	 -77.9977 	 51.201 	 136.418
| 27> C 	 -76.7633 	 51.1624 	 136.993
| 28> H 	 -78.9977 	 49.6232 	 135.04
| 29> C 	 -79.2128 	 52.0096 	 136.901
| 30> H 	 -79.8921 	 52.0841 	 136.038
| 31> H 	 -78.7376 	 52.9317 	 136.976
| 32> C 	 -79.9067 	 51.4434 	 138.132
| 33> H 	 -80.8825 	 51.8021 	 138.426
| 34> H 	 -79.3192 	 51.691 	 139.05
| 35> C 	 -80.0244 	 49.8958 	 138.158
| 36> H 	 -80.6004 	 49.454 	 138.947
| 37> H 	 -78.9811 	 49.56 	 138.233
| 38> H 	 -80.4244 	 49.669 	 137.127
| 39> H 	 -73.7981 	 53.5773 	 140.412
| 40> H 	 -77.1583 	 48.295 	 134.831
| 41> *
| 42>
| 43>                          ****END OF INPUT****

CARTESIAN COORDINATES (ANGSTROEM)
---------------------------------
  S    -74.969300   51.634000  139.144000
  C    -74.325400   53.230800  139.570000
  C    -75.016100   54.107500  138.734000
  C    -75.900300   53.475800  137.753000
  C    -75.981800   52.131400  137.800000
  H    -76.498100   54.002800  136.997000
  C    -74.980600   55.579700  138.813000
  H    -74.108500   55.804500  139.459000
  H    -75.960500   55.917500  139.218000
  C    -74.764200   56.288000  137.452000
  H    -75.548200   56.030200  136.752000
  H    -74.777900   57.305100  137.684000
  C    -73.361200   56.155700  136.723000
  H    -72.473200   56.452900  137.302000
  H    -73.200100   55.266900  136.124000
  H    -73.439200   56.850200  135.934000
  S    -75.826700   49.893900  136.268000
  C    -77.115900   49.202400  135.369000
  C    -78.204800   50.010200  135.531000
  C    -77.997700   51.201000  136.418000
  C    -76.763300   51.162400  136.993000
  H    -78.997700   49.623200  135.040000
  C    -79.212800   52.009600  136.901000
  H    -79.892100   52.084100  136.038000
  H    -78.737600   52.931700  136.976000
  C    -79.906700   51.443400  138.132000
  H    -80.882500   51.802100  138.426000
  H    -79.319200   51.691000  139.050000
  C    -80.024400   49.895800  138.158000
  H    -80.600400   49.454000  138.947000
  H    -78.981100   49.560000  138.233000
  H    -80.424400   49.669000  137.127000
  H    -73.798100   53.577300  140.412000
  H    -77.158300   48.295000  134.831000

 Total Charge           Charge          ....    0
 Multiplicity           Mult            ....    1
 Number of Electrons    NEL             ....  134
 Basis Dimension        Dim             ....  322

ORBITAL ENERGIES
----------------

  NO   OCC          E(Eh)            E(eV)
   0   2.0000     -88.960786     -2420.7461
   1   2.0000     -88.960703     -2420.7438
   2   2.0000     -10.334888      -281.2266
   3   2.0000     -10.333259      -281.1823
   4   2.0000     -10.316989      -280.7396
   5   2.0000     -10.312752      -280.6242
   6   2.0000     -10.312404      -280.6148
   7   2.0000     -10.302168      -280.3362
   8   2.0000     -10.294867      -280.1376
   9   2.0000     -10.293646      -280.1043
  10   2.0000     -10.293000      -280.0868
  11   2.0000     -10.289629      -279.9950
  12   2.0000     -10.287215      -279.9294
  13   2.0000     -10.286180      -279.9012
  14   2.0000     -10.275329      -279.6059
  15   2.0000     -10.274868      -279.5934
  16   2.0000      -8.076630      -219.7763
  17   2.0000      -8.075147      -219.7359
  18   2.0000      -6.035223      -164.2268
  19   2.0000      -6.033895      -164.1906
  20   2.0000      -6.030742      -164.1048
  21   2.0000      -6.029567      -164.0729
  22   2.0000      -6.027389      -164.0136
  23   2.0000      -6.025726      -163.9684
  24   2.0000      -1.011277       -27.5182
  25   2.0000      -0.987914       -26.8825
  26   2.0000      -0.911627       -24.8066
  27   2.0000      -0.910624       -24.7793
  28   2.0000      -0.875344       -23.8193
  29   2.0000      -0.843220       -22.9452
  30   2.0000      -0.836614       -22.7654
  31   2.0000      -0.829208       -22.5639
  32   2.0000      -0.784055       -21.3352
  33   2.0000      -0.777150       -21.1473
  34   2.0000      -0.716221       -19.4894
  35   2.0000      -0.700214       -19.0538
  36   2.0000      -0.691576       -18.8187
  37   2.0000      -0.666383       -18.1332
  38   2.0000      -0.640803       -17.4371
  39   2.0000      -0.624021       -16.9805
  40   2.0000      -0.582056       -15.8386
  41   2.0000      -0.575561       -15.6618
  42   2.0000      -0.561606       -15.2821
  43   2.0000      -0.557189       -15.1619
  44   2.0000      -0.553378       -15.0582
  45   2.0000      -0.537350       -14.6220
  46   2.0000      -0.526221       -14.3192
  47   2.0000      -0.520430       -14.1616
  48   2.0000      -0.514933       -14.0120
  49   2.0000      -0.492021       -13.3886
  50   2.0000      -0.484688       -13.1890
  51   2.0000      -0.478036       -13.0080
  52   2.0000      -0.469329       -12.7711
  53   2.0000      -0.465503       -12.6670
  54   2.0000      -0.462743       -12.5919
  55   2.0000      -0.460645       -12.5348
  56   2.0000      -0.438826       -11.9411
  57   2.0000      -0.433638       -11.7999
  58   2.0000      -0.425472       -11.5777
  59   2.0000      -0.424811       -11.5597
  60   2.0000      -0.405578       -11.0363
  61   2.0000      -0.403637       -10.9835
  62   2.0000      -0.399744       -10.8776
  63   2.0000      -0.357026        -9.7152
  64   2.0000      -0.326104        -8.8737
  65   2.0000      -0.321504        -8.7486
  66   2.0000      -0.305895        -8.3238
  67   0.0000       0.031045         0.8448
  68   0.0000       0.074793         2.0352
  69   0.0000       0.111407         3.0315
  70   0.0000       0.123164         3.3515
  71   0.0000       0.131138         3.5685

MULLIKEN ATOMIC CHARGES
-----------------------
   0 S :    0.081326
   1 C :   -0.069178
   2 C :   -0.126027
   3 C :   -0.003189
   4 C :   -0.114923
   5 H :    0.021737
   6 C :    0.064499
   7 H :    0.016636
   8 H :    0.050250
   9 C :   -0.076697
  10 H :    0.032191
  11 H :    0.020537
  12 C :   -0.045865
  13 H :    0.040147
  14 H :    0.036266
  15 H :    0.011474
  16 S :    0.099063
  17 C :   -0.067251
  18 C :   -0.021944
  19 C :   -0.106711
  20 C :   -0.113477
  21 H :   -0.022795
  22 C :    0.145075
  23 H :    0.027442
  24 H :   -0.003077
  25 C :   -0.068299
  26 H :    0.024451
  27 H :    0.029196
  28 C :   -0.064984
  29 H :    0.039455
  30 H :    0.050563
  31 H :    0.028182
  32 H :    0.039175
  33 H :    0.046753
Sum of atomic charges:   -0.0000000

LOEWDIN ATOMIC CHARGES
----------------------
   0 S :    0.389064
   1 C :   -0.188719
   2 C :   -0.062611
   3 C :   -0.075519
   4 C :   -0.186515
   5 H :    0.030636
   6 C :   -0.038038
   7 H :    0.031638
   8 H :    0.040895
   9 C :   -0.031454
  10 H :    0.022183
  11 H :    0.018933
  12 C :   -0.068279
  13 H :    0.028606
  14 H :    0.026713
  15 H :    0.022248
  16 S :    0.422865
  17 C :   -0.184016
  18 C :   -0.061467
  19 C :   -0.055049
  20 C :   -0.198689
  21 H :    0.010330
  22 C :   -0.025741
  23 H :    0.033766
  24 H :    0.022066
  25 C :   -0.044346
  26 H :    0.021408
  27 H :    0.028178
  28 C :   -0.064324
  29 H :    0.022332
  30 H :    0.029753
  31 H :    0.025724
  32 H :    0.027985
  33 H :    0.029445

  Mayer bond orders larger than 0.100000
B(  0-S ,  1-C ) :   1.1106 B(  0-S ,  4-C ) :   1.1467 B(  1-C ,  2-C ) :   1.6203
B(  1-C , 32-H ) :   0.9745 B(  2-C ,  3-C ) :   1.2019 B(  2-C ,  6-C ) :   1.0447
B(  3-C ,  4-C ) :   1.6262 B(  3-C ,  5-H ) :   0.9865 B(  4-C , 20-C ) :   0.9879
B(  6-C ,  7-H ) :   0.9380 B(  6-C ,  8-H ) :   0.9329 B(  6-C ,  9-C ) :   1.0779
B(  9-C , 10-H ) :   0.9547 B(  9-C , 11-H ) :   0.9567 B(  9-C , 12-C ) :   1.0747
B( 12-C , 13-H ) :   0.9760 B( 12-C , 14-H ) :   0.9749 B( 12-C , 15-H ) :   0.9703
B( 16-S , 17-C ) :   1.1413 B( 16-S , 20-C ) :   1.1535 B( 17-C , 18-C ) :   1.6522
B( 17-C , 33-H ) :   0.9721 B( 18-C , 19-C ) :   1.1668 B( 18-C , 21-H ) :   1.0045
B( 19-C , 20-C ) :   1.6239 B( 19-C , 22-C ) :   1.0367 B( 22-C , 23-H ) :   0.9315
B( 22-C , 24-H ) :   0.9294 B( 22-C , 25-C ) :   1.0559 B( 25-C , 26-H ) :   0.9620
B( 25-C , 27-H ) :   0.9555 B( 25-C , 28-C ) :   1.0791 B( 28-C , 29-H ) :   0.9742
B( 28-C , 30-H ) :   0.9687 B( 28-C , 31-H ) :   0.9747

Dispersion correction           -0.014824209
FINAL SINGLE POINT ENERGY     -1339.837891099093

DIPOLE MOMENT
-------------
                                X             Y             Z
Electronic contribution:      9.06382     -16.18434       0.62887
Nuclear contribution   :     -9.53682      16.71119      -0.76421
                        -----------------------------------------
Total Dipole Moment    :     -0.47300       0.52686      -0.13534
                        -----------------------------------------
Magnitude (a.u.)       :      0.72085
Magnitude (Debye)      :      1.83225

Rotational constants in cm-1:     0.021625     0.007982     0.007521
Rotational constants in MHz :   648.287968   239.294216   225.473510

                             ****ORCA TERMINATED NORMALLY****
TOTAL RUN TIME: 0 days 0 hours 0 minutes 35 seconds 287 msec
