                         Program Version 4.2.1 -  RELEASE  -
|  1> ! wB97X-D3 SP def2-SVP
|  2> %pal
|  3> nprocs 16
|  4> end
|  5>
|  6> * xyz 0 1
|  7> S 	 51.7593 	 11.6386 	 81.7937
|  8> C 	 50.3394 	 12.6632 	 81.3039
|  9> C 	 49.3569 	 11.8088 	 80.835
| 10> C 	 49.662 	 10.4043 	 80.9435
| 11> C 	 50.8429 	 10.1816 	 81.6127
| 12> H 	 49.0102 	 9.66971 	 80.4992
| 13> C 	 48.1187 	 12.2828 	 80.0482
| 14> H 	 47.8904 	 13.2921 	 80.4499
| 15> H 	 47.2427 	 11.7475 	 80.2691
| 16> C 	 48.3082 	 12.2464 	 78.5068
| 17> H 	 48.9556 	 13.0009 	 78.1419
| 18> H 	 48.6453 	 11.2198 	 78.2935
| 19> C 	 47.0716 	 12.2788 	 77.6285
| 20> H 	 47.2867 	 12.1325 	 76.5977
| 21> H 	 46.2336 	 11.554 	 77.8838
| 22> H 	 46.6845 	 13.317 	 77.675
| 23> S 	 52.9708 	 8.45792 	 81.2798
| 24> C 	 52.9418 	 6.88232 	 82.0415
| 25> C 	 51.7834 	 6.71931 	 82.7995
| 26> C 	 50.8871 	 7.81092 	 82.734
| 27> C 	 51.3971 	 8.8683 	 82.0246
| 28> H 	 51.6336 	 5.75128 	 83.2551
| 29> C 	 49.5386 	 7.74504 	 83.493
| 30> H 	 49.2513 	 6.64433 	 83.5466
| 31> H 	 48.9324 	 8.40923 	 82.863
| 32> C 	 49.5514 	 8.3908 	 84.8781
| 33> H 	 50.5225 	 8.08061 	 85.3625
| 34> H 	 48.5983 	 8.13445 	 85.4836
| 35> C 	 49.689 	 9.9033 	 84.89
| 36> H 	 50.5523 	 10.3311 	 84.3966
| 37> H 	 49.6891 	 10.2923 	 85.9187
| 38> H 	 48.8497 	 10.3878 	 84.394
| 39> H 	 50.2648 	 13.7633 	 81.2738
| 40> H 	 53.7229 	 6.11877 	 81.9265
| 41> *
| 42>
| 43>                          ****END OF INPUT****

CARTESIAN COORDINATES (ANGSTROEM)
---------------------------------
  S     51.759300   11.638600   81.793700
  C     50.339400   12.663200   81.303900
  C     49.356900   11.808800   80.835000
  C     49.662000   10.404300   80.943500
  C     50.842900   10.181600   81.612700
  H     49.010200    9.669710   80.499200
  C     48.118700   12.282800   80.048200
  H     47.890400   13.292100   80.449900
  H     47.242700   11.747500   80.269100
  C     48.308200   12.246400   78.506800
  H     48.955600   13.000900   78.141900
  H     48.645300   11.219800   78.293500
  C     47.071600   12.278800   77.628500
  H     47.286700   12.132500   76.597700
  H     46.233600   11.554000   77.883800
  H     46.684500   13.317000   77.675000
  S     52.970800    8.457920   81.279800
  C     52.941800    6.882320   82.041500
  C     51.783400    6.719310   82.799500
  C     50.887100    7.810920   82.734000
  C     51.397100    8.868300   82.024600
  H     51.633600    5.751280   83.255100
  C     49.538600    7.745040   83.493000
  H     49.251300    6.644330   83.546600
  H     48.932400    8.409230   82.863000
  C     49.551400    8.390800   84.878100
  H     50.522500    8.080610   85.362500
  H     48.598300    8.134450   85.483600
  C     49.689000    9.903300   84.890000
  H     50.552300   10.331100   84.396600
  H     49.689100   10.292300   85.918700
  H     48.849700   10.387800   84.394000
  H     50.264800   13.763300   81.273800
  H     53.722900    6.118770   81.926500

 Total Charge           Charge          ....    0
 Multiplicity           Mult            ....    1
 Number of Electrons    NEL             ....  134
 Basis Dimension        Dim             ....  322

ORBITAL ENERGIES
----------------

  NO   OCC          E(Eh)            E(eV)
   0   2.0000     -88.969316     -2420.9782
   1   2.0000     -88.966208     -2420.8936
   2   2.0000     -10.334985      -281.2292
   3   2.0000     -10.330934      -281.1190
   4   2.0000     -10.323128      -280.9066
   5   2.0000     -10.321100      -280.8514
   6   2.0000     -10.305444      -280.4254
   7   2.0000     -10.305277      -280.4208
   8   2.0000     -10.298599      -280.2391
   9   2.0000     -10.295318      -280.1498
  10   2.0000     -10.293923      -280.1119
  11   2.0000     -10.293602      -280.1031
  12   2.0000     -10.292358      -280.0693
  13   2.0000     -10.286178      -279.9011
  14   2.0000     -10.281006      -279.7604
  15   2.0000     -10.265869      -279.3485
  16   2.0000      -8.083029      -219.9504
  17   2.0000      -8.080476      -219.8809
  18   2.0000      -6.041774      -164.4050
  19   2.0000      -6.038980      -164.3290
  20   2.0000      -6.037745      -164.2954
  21   2.0000      -6.035049      -164.2220
  22   2.0000      -6.033505      -164.1800
  23   2.0000      -6.031270      -164.1192
  24   2.0000      -1.004783       -27.3415
  25   2.0000      -0.981696       -26.7133
  26   2.0000      -0.910386       -24.7729
  27   2.0000      -0.905461       -24.6389
  28   2.0000      -0.867583       -23.6081
  29   2.0000      -0.848236       -23.0817
  30   2.0000      -0.843515       -22.9532
  31   2.0000      -0.813436       -22.1347
  32   2.0000      -0.782602       -21.2957
  33   2.0000      -0.773268       -21.0417
  34   2.0000      -0.702756       -19.1230
  35   2.0000      -0.696024       -18.9398
  36   2.0000      -0.684520       -18.6267
  37   2.0000      -0.661773       -18.0077
  38   2.0000      -0.637667       -17.3518
  39   2.0000      -0.622871       -16.9492
  40   2.0000      -0.589733       -16.0475
  41   2.0000      -0.574641       -15.6368
  42   2.0000      -0.562418       -15.3042
  43   2.0000      -0.548724       -14.9315
  44   2.0000      -0.541564       -14.7367
  45   2.0000      -0.521898       -14.2016
  46   2.0000      -0.519941       -14.1483
  47   2.0000      -0.509488       -13.8639
  48   2.0000      -0.505032       -13.7426
  49   2.0000      -0.500469       -13.6185
  50   2.0000      -0.493672       -13.4335
  51   2.0000      -0.477485       -12.9930
  52   2.0000      -0.467104       -12.7106
  53   2.0000      -0.462725       -12.5914
  54   2.0000      -0.454261       -12.3611
  55   2.0000      -0.446714       -12.1557
  56   2.0000      -0.441096       -12.0028
  57   2.0000      -0.436158       -11.8684
  58   2.0000      -0.433622       -11.7995
  59   2.0000      -0.424355       -11.5473
  60   2.0000      -0.417531       -11.3616
  61   2.0000      -0.406535       -11.0624
  62   2.0000      -0.403510       -10.9801
  63   2.0000      -0.343106        -9.3364
  64   2.0000      -0.334553        -9.1036
  65   2.0000      -0.330976        -9.0063
  66   2.0000      -0.297003        -8.0819
  67   0.0000       0.029465         0.8018
  68   0.0000       0.061644         1.6774
  69   0.0000       0.099574         2.7095
  70   0.0000       0.117985         3.2105
  71   0.0000       0.126815         3.4508

MULLIKEN ATOMIC CHARGES
-----------------------
   0 S :    0.101454
   1 C :   -0.126336
   2 C :   -0.107291
   3 C :    0.052870
   4 C :   -0.153343
   5 H :    0.019643
   6 C :    0.084484
   7 H :    0.017570
   8 H :    0.002889
   9 C :   -0.055060
  10 H :    0.030213
  11 H :    0.027093
  12 C :   -0.070943
  13 H :    0.031522
  14 H :    0.040160
  15 H :    0.025493
  16 S :    0.098066
  17 C :   -0.102435
  18 C :   -0.044143
  19 C :   -0.047138
  20 C :   -0.155655
  21 H :    0.017720
  22 C :    0.100172
  23 H :    0.042645
  24 H :    0.014315
  25 C :   -0.084440
  26 H :    0.035695
  27 H :    0.052363
  28 C :   -0.061358
  29 H :    0.035531
  30 H :    0.032688
  31 H :    0.019196
  32 H :    0.060048
  33 H :    0.066314
Sum of atomic charges:    0.0000000

LOEWDIN ATOMIC CHARGES
----------------------
   0 S :    0.389797
   1 C :   -0.186320
   2 C :   -0.057793
   3 C :   -0.065934
   4 C :   -0.193016
   5 H :    0.031991
   6 C :   -0.028557
   7 H :    0.029609
   8 H :    0.019857
   9 C :   -0.036904
  10 H :    0.022707
  11 H :    0.028196
  12 C :   -0.071176
  13 H :    0.022862
  14 H :    0.029905
  15 H :    0.023427
  16 S :    0.390237
  17 C :   -0.183807
  18 C :   -0.075132
  19 C :   -0.056774
  20 C :   -0.188551
  21 H :    0.031468
  22 C :   -0.032392
  23 H :    0.040788
  24 H :    0.029535
  25 C :   -0.050992
  26 H :    0.030994
  27 H :    0.036748
  28 C :   -0.073060
  29 H :    0.021119
  30 H :    0.028901
  31 H :    0.020321
  32 H :    0.037754
  33 H :    0.034193

  Mayer bond orders larger than 0.100000
B(  0-S ,  1-C ) :   1.1017 B(  0-S ,  4-C ) :   1.1582 B(  1-C ,  2-C ) :   1.6345
B(  1-C , 32-H ) :   0.9677 B(  2-C ,  3-C ) :   1.2246 B(  2-C ,  6-C ) :   1.0361
B(  3-C ,  4-C ) :   1.5715 B(  3-C ,  5-H ) :   0.9946 B(  4-C , 20-C ) :   0.9957
B(  6-C ,  7-H ) :   0.9385 B(  6-C ,  8-H ) :   0.9385 B(  6-C ,  9-C ) :   1.0551
B(  9-C , 10-H ) :   0.9576 B(  9-C , 11-H ) :   0.9581 B(  9-C , 12-C ) :   1.0860
B( 12-C , 13-H ) :   0.9734 B( 12-C , 14-H ) :   0.9727 B( 12-C , 15-H ) :   0.9745
B( 16-S , 17-C ) :   1.1566 B( 16-S , 20-C ) :   1.1383 B( 17-C , 18-C ) :   1.6134
B( 17-C , 20-C ) :   0.1049 B( 17-C , 33-H ) :   0.9651 B( 18-C , 19-C ) :   1.2328
B( 18-C , 21-H ) :   0.9906 B( 19-C , 20-C ) :   1.6292 B( 19-C , 22-C ) :   1.0209
B( 22-C , 23-H ) :   0.9338 B( 22-C , 24-H ) :   0.9275 B( 22-C , 25-C ) :   1.0709
B( 25-C , 26-H ) :   0.9524 B( 25-C , 27-H ) :   0.9537 B( 25-C , 28-C ) :   1.0844
B( 28-C , 29-H ) :   0.9681 B( 28-C , 30-H ) :   0.9716 B( 28-C , 31-H ) :   0.9709

Dispersion correction           -0.015136292
FINAL SINGLE POINT ENERGY     -1339.872637376307

DIPOLE MOMENT
-------------
                                X             Y             Z
Electronic contribution:     23.32618      -4.74086       1.11844
Nuclear contribution   :    -23.87175       4.60187      -1.30057
                        -----------------------------------------
Total Dipole Moment    :     -0.54557      -0.13899      -0.18214
                        -----------------------------------------
Magnitude (a.u.)       :      0.59173
Magnitude (Debye)      :      1.50406

Rotational constants in cm-1:     0.020157     0.008050     0.007392
Rotational constants in MHz :   604.281486   241.336289   221.609396

                             ****ORCA TERMINATED NORMALLY****
TOTAL RUN TIME: 0 days 0 hours 0 minutes 28 seconds 902 msec
