                         Program Version 4.2.1 -  RELEASE  -
|  1> ! wB97X-D3 SP def2-SVP
|  2> %pal
|  3> nprocs 16
|  4> end
|  5>
|  6> * xyz 0 1
|  7> S 	 -21.6303 	 34.592 	 36.3319
|  8> C 	 -22.2672 	 34.5354 	 34.6421
|  9> C 	 -21.8247 	 33.369 	 33.9961
| 10> C 	 -21.0532 	 32.581 	 34.8837
| 11> C 	 -20.7633 	 33.1302 	 36.1311
| 12> H 	 -20.6134 	 31.7063 	 34.7254
| 13> C 	 -22.1782 	 33.0057 	 32.5264
| 14> H 	 -23.2005 	 33.35 	 32.3382
| 15> H 	 -22.3243 	 31.9552 	 32.3404
| 16> C 	 -21.2454 	 33.5689 	 31.4504
| 17> H 	 -21.7038 	 33.6094 	 30.4799
| 18> H 	 -21.0231 	 34.6046 	 31.7083
| 19> C 	 -19.9166 	 32.768 	 31.2366
| 20> H 	 -19.2717 	 32.6515 	 32.0378
| 21> H 	 -20.2448 	 31.7722 	 30.9421
| 22> H 	 -19.3562 	 33.1142 	 30.3846
| 23> S 	 -20.3417 	 31.0759 	 37.8883
| 24> C 	 -18.8664 	 31.054 	 38.8032
| 25> C 	 -18.2216 	 32.2775 	 38.7431
| 26> C 	 -18.7616 	 33.1693 	 37.7214
| 27> C 	 -19.8968 	 32.6367 	 37.1374
| 28> H 	 -17.3342 	 32.1959 	 39.2675
| 29> C 	 -17.9408 	 34.3696 	 37.2663
| 30> H 	 -17.1319 	 34.7246 	 37.8666
| 31> H 	 -18.6522 	 35.2658 	 37.3111
| 32> C 	 -17.3918 	 34.1621 	 35.8332
| 33> H 	 -17.0264 	 35.1137 	 35.4483
| 34> H 	 -18.175 	 33.7633 	 35.1537
| 35> C 	 -16.2986 	 33.0658 	 35.9572
| 36> H 	 -16.5851 	 32.24 	 36.6492
| 37> H 	 -15.4415 	 33.6188 	 36.4461
| 38> H 	 -15.879 	 32.6878 	 35.0332
| 39> H 	 -22.8077 	 35.364 	 34.1304
| 40> H 	 -18.6465 	 30.3068 	 39.533
| 41> *
| 42>
| 43>                          ****END OF INPUT****

CARTESIAN COORDINATES (ANGSTROEM)
---------------------------------
  S    -21.630300   34.592000   36.331900
  C    -22.267200   34.535400   34.642100
  C    -21.824700   33.369000   33.996100
  C    -21.053200   32.581000   34.883700
  C    -20.763300   33.130200   36.131100
  H    -20.613400   31.706300   34.725400
  C    -22.178200   33.005700   32.526400
  H    -23.200500   33.350000   32.338200
  H    -22.324300   31.955200   32.340400
  C    -21.245400   33.568900   31.450400
  H    -21.703800   33.609400   30.479900
  H    -21.023100   34.604600   31.708300
  C    -19.916600   32.768000   31.236600
  H    -19.271700   32.651500   32.037800
  H    -20.244800   31.772200   30.942100
  H    -19.356200   33.114200   30.384600
  S    -20.341700   31.075900   37.888300
  C    -18.866400   31.054000   38.803200
  C    -18.221600   32.277500   38.743100
  C    -18.761600   33.169300   37.721400
  C    -19.896800   32.636700   37.137400
  H    -17.334200   32.195900   39.267500
  C    -17.940800   34.369600   37.266300
  H    -17.131900   34.724600   37.866600
  H    -18.652200   35.265800   37.311100
  C    -17.391800   34.162100   35.833200
  H    -17.026400   35.113700   35.448300
  H    -18.175000   33.763300   35.153700
  C    -16.298600   33.065800   35.957200
  H    -16.585100   32.240000   36.649200
  H    -15.441500   33.618800   36.446100
  H    -15.879000   32.687800   35.033200
  H    -22.807700   35.364000   34.130400
  H    -18.646500   30.306800   39.533000

 Total Charge           Charge          ....    0
 Multiplicity           Mult            ....    1
 Number of Electrons    NEL             ....  134
 Basis Dimension        Dim             ....  322

ORBITAL ENERGIES
----------------

  NO   OCC          E(Eh)            E(eV)
   0   2.0000     -88.968314     -2420.9509
   1   2.0000     -88.964210     -2420.8392
   2   2.0000     -10.328454      -281.0515
   3   2.0000     -10.324304      -280.9386
   4   2.0000     -10.323515      -280.9171
   5   2.0000     -10.315488      -280.6987
   6   2.0000     -10.313648      -280.6486
   7   2.0000     -10.309900      -280.5466
   8   2.0000     -10.296369      -280.1784
   9   2.0000     -10.295324      -280.1500
  10   2.0000     -10.291511      -280.0463
  11   2.0000     -10.287433      -279.9353
  12   2.0000     -10.286828      -279.9188
  13   2.0000     -10.284834      -279.8646
  14   2.0000     -10.277144      -279.6553
  15   2.0000     -10.270885      -279.4850
  16   2.0000      -8.082485      -219.9356
  17   2.0000      -8.078874      -219.8373
  18   2.0000      -6.040905      -164.3814
  19   2.0000      -6.037355      -164.2848
  20   2.0000      -6.036968      -164.2742
  21   2.0000      -6.033463      -164.1789
  22   2.0000      -6.033372      -164.1764
  23   2.0000      -6.029677      -164.0758
  24   2.0000      -1.007484       -27.4150
  25   2.0000      -0.980829       -26.6897
  26   2.0000      -0.909559       -24.7504
  27   2.0000      -0.906593       -24.6697
  28   2.0000      -0.871920       -23.7262
  29   2.0000      -0.846928       -23.0461
  30   2.0000      -0.839389       -22.8409
  31   2.0000      -0.815303       -22.1855
  32   2.0000      -0.787364       -21.4253
  33   2.0000      -0.771311       -20.9884
  34   2.0000      -0.711308       -19.3557
  35   2.0000      -0.704056       -19.1583
  36   2.0000      -0.686824       -18.6894
  37   2.0000      -0.665420       -18.1070
  38   2.0000      -0.646966       -17.6048
  39   2.0000      -0.616771       -16.7832
  40   2.0000      -0.595525       -16.2051
  41   2.0000      -0.578655       -15.7460
  42   2.0000      -0.551719       -15.0130
  43   2.0000      -0.548728       -14.9317
  44   2.0000      -0.545101       -14.8330
  45   2.0000      -0.540027       -14.6949
  46   2.0000      -0.517210       -14.0740
  47   2.0000      -0.506102       -13.7717
  48   2.0000      -0.502091       -13.6626
  49   2.0000      -0.494759       -13.4631
  50   2.0000      -0.487031       -13.2528
  51   2.0000      -0.477695       -12.9987
  52   2.0000      -0.473032       -12.8719
  53   2.0000      -0.468568       -12.7504
  54   2.0000      -0.456594       -12.4245
  55   2.0000      -0.447492       -12.1769
  56   2.0000      -0.436211       -11.8699
  57   2.0000      -0.431817       -11.7503
  58   2.0000      -0.428909       -11.6712
  59   2.0000      -0.425755       -11.5854
  60   2.0000      -0.419440       -11.4135
  61   2.0000      -0.417229       -11.3534
  62   2.0000      -0.411235       -11.1903
  63   2.0000      -0.337653        -9.1880
  64   2.0000      -0.334555        -9.1037
  65   2.0000      -0.329420        -8.9640
  66   2.0000      -0.298428        -8.1206
  67   0.0000       0.025472         0.6931
  68   0.0000       0.065169         1.7733
  69   0.0000       0.106237         2.8909
  70   0.0000       0.117721         3.2033
  71   0.0000       0.119855         3.2614

MULLIKEN ATOMIC CHARGES
-----------------------
   0 S :    0.122775
   1 C :   -0.149466
   2 C :   -0.061200
   3 C :    0.104060
   4 C :   -0.182962
   5 H :   -0.060043
   6 C :    0.071236
   7 H :    0.023144
   8 H :    0.017798
   9 C :   -0.054945
  10 H :    0.026098
  11 H :    0.023555
  12 C :   -0.030788
  13 H :    0.026992
  14 H :    0.011489
  15 H :    0.028989
  16 S :    0.108796
  17 C :   -0.108473
  18 C :   -0.016292
  19 C :   -0.002919
  20 C :   -0.176306
  21 H :    0.004364
  22 C :    0.045277
  23 H :    0.018369
  24 H :    0.036673
  25 C :   -0.063421
  26 H :    0.034077
  27 H :    0.051109
  28 C :   -0.079838
  29 H :    0.053834
  30 H :    0.019606
  31 H :    0.034289
  32 H :    0.067365
  33 H :    0.056759
Sum of atomic charges:   -0.0000000

LOEWDIN ATOMIC CHARGES
----------------------
   0 S :    0.415514
   1 C :   -0.190351
   2 C :   -0.054415
   3 C :   -0.047885
   4 C :   -0.211133
   5 H :    0.004052
   6 C :   -0.030890
   7 H :    0.034621
   8 H :    0.027808
   9 C :   -0.035011
  10 H :    0.024041
  11 H :    0.021228
  12 C :   -0.059079
  13 H :    0.013544
  14 H :    0.023241
  15 H :    0.026290
  16 S :    0.396121
  17 C :   -0.180991
  18 C :   -0.069227
  19 C :   -0.044472
  20 C :   -0.192791
  21 H :    0.022044
  22 C :   -0.035061
  23 H :    0.025956
  24 H :    0.035087
  25 C :   -0.035719
  26 H :    0.023060
  27 H :    0.027209
  28 C :   -0.074010
  29 H :    0.032612
  30 H :    0.026147
  31 H :    0.020137
  32 H :    0.037032
  33 H :    0.025289

  Mayer bond orders larger than 0.100000
B(  0-S ,  1-C ) :   1.1472 B(  0-S ,  4-C ) :   1.1605 B(  1-C ,  2-C ) :   1.5880
B(  1-C ,  4-C ) :   0.1061 B(  1-C , 32-H ) :   0.9633 B(  2-C ,  3-C ) :   1.2483
B(  2-C ,  6-C ) :   1.0129 B(  3-C ,  4-C ) :   1.5429 B(  3-C ,  5-H ) :   1.0179
B(  4-C , 20-C ) :   1.0651 B(  6-C ,  7-H ) :   0.9389 B(  6-C ,  8-H ) :   0.9470
B(  6-C ,  9-C ) :   1.0716 B(  9-C , 10-H ) :   0.9559 B(  9-C , 11-H ) :   0.9567
B(  9-C , 12-C ) :   1.0735 B( 12-C , 13-H ) :   0.9813 B( 12-C , 14-H ) :   0.9731
B( 12-C , 15-H ) :   0.9746 B( 16-S , 17-C ) :   1.1527 B( 16-S , 20-C ) :   1.1314
B( 17-C , 18-C ) :   1.6400 B( 17-C , 33-H ) :   0.9658 B( 18-C , 19-C ) :   1.1892
B( 18-C , 21-H ) :   0.9955 B( 19-C , 20-C ) :   1.6039 B( 19-C , 22-C ) :   1.0474
B( 22-C , 23-H ) :   0.9468 B( 22-C , 24-H ) :   0.9248 B( 22-C , 25-C ) :   1.0624
B( 25-C , 26-H ) :   0.9588 B( 25-C , 27-H ) :   0.9599 B( 25-C , 28-C ) :   1.0503
B( 28-C , 29-H ) :   0.9754 B( 28-C , 30-H ) :   0.9748 B( 28-C , 31-H ) :   0.9752

Dispersion correction           -0.015585530
FINAL SINGLE POINT ENERGY     -1339.859348830974

DIPOLE MOMENT
-------------
                                X             Y             Z
Electronic contribution:    -13.95417      -2.84449      21.05948
Nuclear contribution   :     14.27589       2.87853     -21.46426
                        -----------------------------------------
Total Dipole Moment    :      0.32172       0.03404      -0.40478
                        -----------------------------------------
Magnitude (a.u.)       :      0.51818
Magnitude (Debye)      :      1.31711

Rotational constants in cm-1:     0.019565     0.008958     0.007950
Rotational constants in MHz :   586.550135   268.561152   238.341687

                             ****ORCA TERMINATED NORMALLY****
TOTAL RUN TIME: 0 days 0 hours 0 minutes 33 seconds 759 msec
