                         Program Version 4.2.1 -  RELEASE  -
|  1> ! wB97X-D3 SP def2-SVP
|  2> %pal
|  3> nprocs 16
|  4> end
|  5>
|  6> * xyz 0 1
|  7> S 	 0.543933 	 -13.0413 	 73.1518
|  8> C 	 0.330224 	 -13.9328 	 71.6935
|  9> C 	 -0.691846 	 -14.8965 	 71.8419
| 10> C 	 -1.17341 	 -14.8992 	 73.209
| 11> C 	 -0.499463 	 -14.0519 	 74.0734
| 12> H 	 -1.9959 	 -15.5222 	 73.5962
| 13> C 	 -1.31044 	 -15.7951 	 70.8073
| 14> H 	 -1.37926 	 -16.8238 	 71.2576
| 15> H 	 -0.729428 	 -15.8608 	 69.8606
| 16> C 	 -2.76854 	 -15.445 	 70.4258
| 17> H 	 -3.54934 	 -15.474 	 71.2058
| 18> H 	 -2.70844 	 -14.4424 	 70.0368
| 19> C 	 -3.37265 	 -16.4527 	 69.4402
| 20> H 	 -3.57078 	 -17.4636 	 69.8156
| 21> H 	 -4.38916 	 -16.0898 	 69.1728
| 22> H 	 -2.69814 	 -16.6164 	 68.6192
| 23> S 	 -2.37006 	 -13.8999 	 75.9859
| 24> C 	 -1.91767 	 -13.4749 	 77.6336
| 25> C 	 -0.55926 	 -13.6157 	 77.7465
| 26> C 	 0.189201 	 -13.8453 	 76.5344
| 27> C 	 -0.71034 	 -13.9548 	 75.5067
| 28> H 	 -0.148636 	 -13.4029 	 78.6764
| 29> C 	 1.67206 	 -13.9565 	 76.4752
| 30> H 	 1.94479 	 -14.4172 	 75.5139
| 31> H 	 1.70607 	 -14.6057 	 77.314
| 32> C 	 2.38656 	 -12.636 	 76.8043
| 33> H 	 2.18651 	 -12.3458 	 77.8402
| 34> H 	 1.95689 	 -11.8501 	 76.2289
| 35> C 	 3.95872 	 -12.7601 	 76.6833
| 36> H 	 4.25125 	 -12.848 	 75.6316
| 37> H 	 4.43143 	 -13.5174 	 77.2462
| 38> H 	 4.35194 	 -11.832 	 77.045
| 39> H 	 0.940903 	 -13.7827 	 70.8509
| 40> H 	 -2.53713 	 -13.1642 	 78.4919
| 41> *
| 42>
| 43>                          ****END OF INPUT****

CARTESIAN COORDINATES (ANGSTROEM)
---------------------------------
  S      0.543933  -13.041300   73.151800
  C      0.330224  -13.932800   71.693500
  C     -0.691846  -14.896500   71.841900
  C     -1.173410  -14.899200   73.209000
  C     -0.499463  -14.051900   74.073400
  H     -1.995900  -15.522200   73.596200
  C     -1.310440  -15.795100   70.807300
  H     -1.379260  -16.823800   71.257600
  H     -0.729428  -15.860800   69.860600
  C     -2.768540  -15.445000   70.425800
  H     -3.549340  -15.474000   71.205800
  H     -2.708440  -14.442400   70.036800
  C     -3.372650  -16.452700   69.440200
  H     -3.570780  -17.463600   69.815600
  H     -4.389160  -16.089800   69.172800
  H     -2.698140  -16.616400   68.619200
  S     -2.370060  -13.899900   75.985900
  C     -1.917670  -13.474900   77.633600
  C     -0.559260  -13.615700   77.746500
  C      0.189201  -13.845300   76.534400
  C     -0.710340  -13.954800   75.506700
  H     -0.148636  -13.402900   78.676400
  C      1.672060  -13.956500   76.475200
  H      1.944790  -14.417200   75.513900
  H      1.706070  -14.605700   77.314000
  C      2.386560  -12.636000   76.804300
  H      2.186510  -12.345800   77.840200
  H      1.956890  -11.850100   76.228900
  C      3.958720  -12.760100   76.683300
  H      4.251250  -12.848000   75.631600
  H      4.431430  -13.517400   77.246200
  H      4.351940  -11.832000   77.045000
  H      0.940903  -13.782700   70.850900
  H     -2.537130  -13.164200   78.491900

 Total Charge           Charge          ....    0
 Multiplicity           Mult            ....    1
 Number of Electrons    NEL             ....  134
 Basis Dimension        Dim             ....  322

ORBITAL ENERGIES
----------------

  NO   OCC          E(Eh)            E(eV)
   0   2.0000     -88.965291     -2420.8686
   1   2.0000     -88.962900     -2420.8036
   2   2.0000     -10.324736      -280.9503
   3   2.0000     -10.320013      -280.8218
   4   2.0000     -10.318249      -280.7738
   5   2.0000     -10.311521      -280.5907
   6   2.0000     -10.305876      -280.4371
   7   2.0000     -10.300055      -280.2787
   8   2.0000     -10.298449      -280.2350
   9   2.0000     -10.292261      -280.0667
  10   2.0000     -10.287969      -279.9499
  11   2.0000     -10.287879      -279.9474
  12   2.0000     -10.287375      -279.9337
  13   2.0000     -10.286242      -279.9029
  14   2.0000     -10.278552      -279.6936
  15   2.0000     -10.274418      -279.5811
  16   2.0000      -8.080638      -219.8853
  17   2.0000      -8.077848      -219.8094
  18   2.0000      -6.039087      -164.3319
  19   2.0000      -6.036505      -164.2617
  20   2.0000      -6.034964      -164.2197
  21   2.0000      -6.032382      -164.1495
  22   2.0000      -6.031547      -164.1267
  23   2.0000      -6.028381      -164.0406
  24   2.0000      -1.010906       -27.5082
  25   2.0000      -0.986377       -26.8407
  26   2.0000      -0.911841       -24.8125
  27   2.0000      -0.910257       -24.7693
  28   2.0000      -0.871883       -23.7251
  29   2.0000      -0.851319       -23.1656
  30   2.0000      -0.845729       -23.0135
  31   2.0000      -0.812561       -22.1109
  32   2.0000      -0.783793       -21.3281
  33   2.0000      -0.770708       -20.9720
  34   2.0000      -0.710312       -19.3286
  35   2.0000      -0.699671       -19.0390
  36   2.0000      -0.693700       -18.8765
  37   2.0000      -0.669661       -18.2224
  38   2.0000      -0.639136       -17.3918
  39   2.0000      -0.617000       -16.7894
  40   2.0000      -0.591623       -16.0989
  41   2.0000      -0.568258       -15.4631
  42   2.0000      -0.566139       -15.4054
  43   2.0000      -0.563487       -15.3333
  44   2.0000      -0.529450       -14.4071
  45   2.0000      -0.526283       -14.3209
  46   2.0000      -0.521120       -14.1804
  47   2.0000      -0.507946       -13.8219
  48   2.0000      -0.504396       -13.7253
  49   2.0000      -0.500521       -13.6199
  50   2.0000      -0.497061       -13.5257
  51   2.0000      -0.479062       -13.0359
  52   2.0000      -0.472660       -12.8617
  53   2.0000      -0.465444       -12.6654
  54   2.0000      -0.455961       -12.4073
  55   2.0000      -0.450855       -12.2684
  56   2.0000      -0.444930       -12.1072
  57   2.0000      -0.439157       -11.9501
  58   2.0000      -0.434353       -11.8193
  59   2.0000      -0.424828       -11.5602
  60   2.0000      -0.423060       -11.5121
  61   2.0000      -0.415444       -11.3048
  62   2.0000      -0.409493       -11.1429
  63   2.0000      -0.349518        -9.5109
  64   2.0000      -0.326464        -8.8835
  65   2.0000      -0.322912        -8.7869
  66   2.0000      -0.290332        -7.9003
  67   0.0000       0.032735         0.8908
  68   0.0000       0.077197         2.1006
  69   0.0000       0.105736         2.8772
  70   0.0000       0.117949         3.2096
  71   0.0000       0.132888         3.6161

MULLIKEN ATOMIC CHARGES
-----------------------
   0 S :    0.115510
   1 C :   -0.123088
   2 C :   -0.049145
   3 C :   -0.014154
   4 C :   -0.139577
   5 H :    0.022834
   6 C :    0.033721
   7 H :    0.034951
   8 H :    0.029699
   9 C :   -0.082212
  10 H :    0.035047
  11 H :    0.032261
  12 C :   -0.049131
  13 H :    0.027485
  14 H :    0.039145
  15 H :    0.021165
  16 S :    0.104393
  17 C :   -0.095722
  18 C :   -0.028817
  19 C :   -0.043955
  20 C :   -0.164453
  21 H :   -0.012832
  22 C :    0.108584
  23 H :    0.038711
  24 H :    0.024875
  25 C :   -0.083949
  26 H :    0.021885
  27 H :    0.027001
  28 C :   -0.014827
  29 H :    0.035650
  30 H :    0.025603
  31 H :    0.022373
  32 H :    0.034423
  33 H :    0.066544
Sum of atomic charges:    0.0000000

LOEWDIN ATOMIC CHARGES
----------------------
   0 S :    0.430745
   1 C :   -0.207215
   2 C :   -0.058648
   3 C :   -0.073585
   4 C :   -0.205639
   5 H :    0.029441
   6 C :   -0.039176
   7 H :    0.036686
   8 H :    0.033157
   9 C :   -0.041074
  10 H :    0.027762
  11 H :    0.022987
  12 C :   -0.067004
  13 H :    0.024819
  14 H :    0.032461
  15 H :    0.017208
  16 S :    0.407246
  17 C :   -0.185900
  18 C :   -0.066331
  19 C :   -0.053159
  20 C :   -0.204009
  21 H :    0.015648
  22 C :   -0.031016
  23 H :    0.032950
  24 H :    0.035919
  25 C :   -0.029836
  26 H :    0.023557
  27 H :    0.020141
  28 C :   -0.058324
  29 H :    0.027500
  30 H :    0.019844
  31 H :    0.023512
  32 H :    0.018151
  33 H :    0.041180

  Mayer bond orders larger than 0.100000
B(  0-S ,  1-C ) :   1.1497 B(  0-S ,  4-C ) :   1.1591 B(  1-C ,  2-C ) :   1.5649
B(  1-C , 32-H ) :   0.9804 B(  2-C ,  3-C ) :   1.2540 B(  2-C ,  6-C ) :   1.0457
B(  3-C ,  4-C ) :   1.5485 B(  3-C ,  5-H ) :   0.9888 B(  4-C , 20-C ) :   1.0376
B(  6-C ,  7-H ) :   0.9362 B(  6-C ,  8-H ) :   0.9429 B(  6-C ,  9-C ) :   1.0587
B(  9-C , 10-H ) :   0.9565 B(  9-C , 11-H ) :   0.9560 B(  9-C , 12-C ) :   1.0793
B( 12-C , 13-H ) :   0.9743 B( 12-C , 14-H ) :   0.9735 B( 12-C , 15-H ) :   0.9737
B( 16-S , 17-C ) :   1.1284 B( 16-S , 20-C ) :   1.1400 B( 17-C , 18-C ) :   1.6493
B( 17-C , 33-H ) :   0.9647 B( 18-C , 19-C ) :   1.2015 B( 18-C , 21-H ) :   0.9915
B( 19-C , 20-C ) :   1.5963 B( 19-C , 22-C ) :   1.0256 B( 22-C , 23-H ) :   0.9337
B( 22-C , 24-H ) :   0.9230 B( 22-C , 25-C ) :   1.0609 B( 25-C , 26-H ) :   0.9548
B( 25-C , 27-H ) :   0.9595 B( 25-C , 28-C ) :   1.0799 B( 28-C , 29-H ) :   0.9775
B( 28-C , 30-H ) :   0.9765 B( 28-C , 31-H ) :   0.9752

Dispersion correction           -0.013821916
FINAL SINGLE POINT ENERGY     -1339.873588317519

DIPOLE MOMENT
-------------
                                X             Y             Z
Electronic contribution:     -5.76526       6.20221       8.03954
Nuclear contribution   :      5.90750      -6.32681      -7.93540
                        -----------------------------------------
Total Dipole Moment    :      0.14224      -0.12460       0.10414
                        -----------------------------------------
Magnitude (a.u.)       :      0.21587
Magnitude (Debye)      :      0.54870

Rotational constants in cm-1:     0.022412     0.007621     0.005999
Rotational constants in MHz :   671.902970   228.464899   179.847405

                             ****ORCA TERMINATED NORMALLY****
TOTAL RUN TIME: 0 days 0 hours 0 minutes 31 seconds 676 msec
