                         Program Version 4.2.1 -  RELEASE  -
|  1> ! wB97X-D3 SP def2-SVP
|  2> %pal
|  3> nprocs 16
|  4> end
|  5>
|  6> * xyz 0 1
|  7> S 	 55.4888 	 -5.84087 	 86.6933
|  8> C 	 53.7173 	 -5.76361 	 86.8526
|  9> C 	 53.184 	 -4.6153 	 86.2726
| 10> C 	 54.2286 	 -3.73766 	 85.8533
| 11> C 	 55.5007 	 -4.25933 	 85.8731
| 12> H 	 54.0284 	 -2.77584 	 85.3736
| 13> C 	 51.7265 	 -4.11849 	 86.3608
| 14> H 	 51.0536 	 -4.93018 	 85.9368
| 15> H 	 51.6525 	 -3.2072 	 85.7501
| 16> C 	 51.3656 	 -3.83198 	 87.8093
| 17> H 	 51.6985 	 -4.7169 	 88.4783
| 18> H 	 51.9935 	 -3.09951 	 88.3594
| 19> C 	 49.8039 	 -3.50435 	 87.9429
| 20> H 	 49.2331 	 -4.18209 	 87.363
| 21> H 	 49.4099 	 -3.57358 	 88.9722
| 22> H 	 49.5697 	 -2.45579 	 87.6151
| 23> S 	 57.5645 	 -4.82159 	 84.1322
| 24> C 	 58.8364 	 -3.69985 	 83.9224
| 25> C 	 58.6235 	 -2.55119 	 84.6694
| 26> C 	 57.4189 	 -2.59416 	 85.4671
| 27> C 	 56.7454 	 -3.75678 	 85.2753
| 28> H 	 59.2353 	 -1.75398 	 84.4782
| 29> C 	 57.0345 	 -1.49606 	 86.4953
| 30> H 	 57.3839 	 -1.77462 	 87.4641
| 31> H 	 55.9627 	 -1.45141 	 86.6973
| 32> C 	 57.6122 	 -0.0653803 	 86.0865
| 33> H 	 57.4284 	 0.225544 	 85.0723
| 34> H 	 58.6834 	 0.0312213 	 86.3407
| 35> C 	 56.9373 	 1.07867 	 86.8991
| 36> H 	 57.3679 	 2.0776 	 86.6367
| 37> H 	 56.7941 	 0.935883 	 87.9994
| 38> H 	 55.9043 	 1.11674 	 86.6192
| 39> H 	 53.1556 	 -6.45838 	 87.3889
| 40> H 	 59.6723 	 -3.82847 	 83.2724
| 41> *
| 42>
| 43>                          ****END OF INPUT****

CARTESIAN COORDINATES (ANGSTROEM)
---------------------------------
  S     55.488800   -5.840870   86.693300
  C     53.717300   -5.763610   86.852600
  C     53.184000   -4.615300   86.272600
  C     54.228600   -3.737660   85.853300
  C     55.500700   -4.259330   85.873100
  H     54.028400   -2.775840   85.373600
  C     51.726500   -4.118490   86.360800
  H     51.053600   -4.930180   85.936800
  H     51.652500   -3.207200   85.750100
  C     51.365600   -3.831980   87.809300
  H     51.698500   -4.716900   88.478300
  H     51.993500   -3.099510   88.359400
  C     49.803900   -3.504350   87.942900
  H     49.233100   -4.182090   87.363000
  H     49.409900   -3.573580   88.972200
  H     49.569700   -2.455790   87.615100
  S     57.564500   -4.821590   84.132200
  C     58.836400   -3.699850   83.922400
  C     58.623500   -2.551190   84.669400
  C     57.418900   -2.594160   85.467100
  C     56.745400   -3.756780   85.275300
  H     59.235300   -1.753980   84.478200
  C     57.034500   -1.496060   86.495300
  H     57.383900   -1.774620   87.464100
  H     55.962700   -1.451410   86.697300
  C     57.612200   -0.065380   86.086500
  H     57.428400    0.225544   85.072300
  H     58.683400    0.031221   86.340700
  C     56.937300    1.078670   86.899100
  H     57.367900    2.077600   86.636700
  H     56.794100    0.935883   87.999400
  H     55.904300    1.116740   86.619200
  H     53.155600   -6.458380   87.388900
  H     59.672300   -3.828470   83.272400

 Total Charge           Charge          ....    0
 Multiplicity           Mult            ....    1
 Number of Electrons    NEL             ....  134
 Basis Dimension        Dim             ....  322

ORBITAL ENERGIES
----------------

  NO   OCC          E(Eh)            E(eV)
   0   2.0000     -88.966238     -2420.8944
   1   2.0000     -88.963323     -2420.8151
   2   2.0000     -10.330994      -281.1206
   3   2.0000     -10.323167      -280.9077
   4   2.0000     -10.313908      -280.6557
   5   2.0000     -10.312929      -280.6291
   6   2.0000     -10.304756      -280.4067
   7   2.0000     -10.303817      -280.3811
   8   2.0000     -10.303230      -280.3652
   9   2.0000     -10.300800      -280.2990
  10   2.0000     -10.298345      -280.2322
  11   2.0000     -10.294121      -280.1173
  12   2.0000     -10.294116      -280.1171
  13   2.0000     -10.287296      -279.9315
  14   2.0000     -10.285567      -279.8845
  15   2.0000     -10.281664      -279.7783
  16   2.0000      -8.079992      -219.8678
  17   2.0000      -8.078754      -219.8341
  18   2.0000      -6.038567      -164.3178
  19   2.0000      -6.037186      -164.2802
  20   2.0000      -6.034653      -164.2113
  21   2.0000      -6.033109      -164.1692
  22   2.0000      -6.030714      -164.1041
  23   2.0000      -6.029599      -164.0737
  24   2.0000      -1.004947       -27.3460
  25   2.0000      -0.981301       -26.7025
  26   2.0000      -0.906600       -24.6698
  27   2.0000      -0.900542       -24.5050
  28   2.0000      -0.865187       -23.5429
  29   2.0000      -0.849270       -23.1098
  30   2.0000      -0.840531       -22.8720
  31   2.0000      -0.812500       -22.1093
  32   2.0000      -0.781148       -21.2561
  33   2.0000      -0.771439       -20.9919
  34   2.0000      -0.706094       -19.2138
  35   2.0000      -0.705301       -19.1922
  36   2.0000      -0.698001       -18.9936
  37   2.0000      -0.659037       -17.9333
  38   2.0000      -0.642694       -17.4886
  39   2.0000      -0.619505       -16.8576
  40   2.0000      -0.598164       -16.2769
  41   2.0000      -0.567834       -15.4515
  42   2.0000      -0.561163       -15.2700
  43   2.0000      -0.551549       -15.0084
  44   2.0000      -0.529909       -14.4196
  45   2.0000      -0.523341       -14.2408
  46   2.0000      -0.516675       -14.0594
  47   2.0000      -0.507378       -13.8064
  48   2.0000      -0.497868       -13.5477
  49   2.0000      -0.497066       -13.5258
  50   2.0000      -0.486574       -13.2404
  51   2.0000      -0.477897       -13.0042
  52   2.0000      -0.470792       -12.8109
  53   2.0000      -0.462955       -12.5977
  54   2.0000      -0.460085       -12.5196
  55   2.0000      -0.452507       -12.3133
  56   2.0000      -0.446334       -12.1454
  57   2.0000      -0.440592       -11.9891
  58   2.0000      -0.438403       -11.9296
  59   2.0000      -0.422690       -11.5020
  60   2.0000      -0.420462       -11.4414
  61   2.0000      -0.416821       -11.3423
  62   2.0000      -0.409455       -11.1418
  63   2.0000      -0.344537        -9.3753
  64   2.0000      -0.334226        -9.0948
  65   2.0000      -0.327010        -8.8984
  66   2.0000      -0.294424        -8.0117
  67   0.0000       0.034645         0.9427
  68   0.0000       0.065061         1.7704
  69   0.0000       0.112782         3.0689
  70   0.0000       0.123901         3.3715
  71   0.0000       0.132988         3.6188

MULLIKEN ATOMIC CHARGES
-----------------------
   0 S :    0.105579
   1 C :   -0.110818
   2 C :   -0.086673
   3 C :    0.033700
   4 C :   -0.167308
   5 H :    0.016661
   6 C :    0.064576
   7 H :    0.050279
   8 H :    0.031324
   9 C :   -0.118710
  10 H :    0.030283
  11 H :    0.033853
  12 C :   -0.041388
  13 H :    0.023087
  14 H :    0.037418
  15 H :    0.040429
  16 S :    0.116819
  17 C :   -0.077767
  18 C :   -0.022742
  19 C :   -0.012759
  20 C :   -0.166982
  21 H :   -0.010758
  22 C :    0.097964
  23 H :    0.032616
  24 H :    0.014319
  25 C :   -0.097258
  26 H :    0.039847
  27 H :    0.047683
  28 C :   -0.074248
  29 H :    0.043302
  30 H :    0.034430
  31 H :    0.014944
  32 H :    0.028777
  33 H :    0.049519
Sum of atomic charges:   -0.0000000

LOEWDIN ATOMIC CHARGES
----------------------
   0 S :    0.383483
   1 C :   -0.177290
   2 C :   -0.061247
   3 C :   -0.065812
   4 C :   -0.183033
   5 H :    0.031931
   6 C :   -0.032193
   7 H :    0.041350
   8 H :    0.031315
   9 C :   -0.053038
  10 H :    0.030297
  11 H :    0.028272
  12 C :   -0.069329
  13 H :    0.016719
  14 H :    0.028884
  15 H :    0.030624
  16 S :    0.416503
  17 C :   -0.188094
  18 C :   -0.064742
  19 C :   -0.051640
  20 C :   -0.200885
  21 H :    0.015052
  22 C :   -0.022231
  23 H :    0.033717
  24 H :    0.029159
  25 C :   -0.038015
  26 H :    0.024134
  27 H :    0.028136
  28 C :   -0.077067
  29 H :    0.030866
  30 H :    0.027629
  31 H :    0.017313
  32 H :    0.012695
  33 H :    0.026536

  Mayer bond orders larger than 0.100000
B(  0-S ,  1-C ) :   1.1362 B(  0-S ,  4-C ) :   1.1407 B(  1-C ,  2-C ) :   1.6044
B(  1-C ,  4-C ) :   0.1037 B(  1-C , 32-H ) :   0.9764 B(  2-C ,  3-C ) :   1.2517
B(  2-C ,  6-C ) :   1.0213 B(  3-C ,  4-C ) :   1.5997 B(  3-C ,  5-H ) :   0.9816
B(  4-C , 20-C ) :   1.0192 B(  6-C ,  7-H ) :   0.9378 B(  6-C ,  8-H ) :   0.9441
B(  6-C ,  9-C ) :   1.0533 B(  9-C , 10-H ) :   0.9583 B(  9-C , 11-H ) :   0.9569
B(  9-C , 12-C ) :   1.0547 B( 12-C , 13-H ) :   0.9787 B( 12-C , 14-H ) :   0.9771
B( 12-C , 15-H ) :   0.9772 B( 16-S , 17-C ) :   1.1624 B( 16-S , 20-C ) :   1.1406
B( 17-C , 18-C ) :   1.6131 B( 17-C , 33-H ) :   0.9682 B( 18-C , 19-C ) :   1.2191
B( 18-C , 21-H ) :   1.0023 B( 19-C , 20-C ) :   1.6348 B( 19-C , 22-C ) :   1.0314
B( 22-C , 23-H ) :   0.9273 B( 22-C , 24-H ) :   0.9412 B( 22-C , 25-C ) :   1.0544
B( 25-C , 26-H ) :   0.9654 B( 25-C , 27-H ) :   0.9532 B( 25-C , 28-C ) :   1.0764
B( 28-C , 29-H ) :   0.9746 B( 28-C , 30-H ) :   0.9744 B( 28-C , 31-H ) :   0.9747

Dispersion correction           -0.013428187
FINAL SINGLE POINT ENERGY     -1339.873394565936

DIPOLE MOMENT
-------------
                                X             Y             Z
Electronic contribution:     17.07743     -22.67178     -11.27735
Nuclear contribution   :    -17.38117      23.26152      11.41452
                        -----------------------------------------
Total Dipole Moment    :     -0.30374       0.58973       0.13717
                        -----------------------------------------
Magnitude (a.u.)       :      0.67739
Magnitude (Debye)      :      1.72179

Rotational constants in cm-1:     0.017486     0.008044     0.005916
Rotational constants in MHz :   524.211901   241.152101   177.352389

                             ****ORCA TERMINATED NORMALLY****
TOTAL RUN TIME: 0 days 0 hours 0 minutes 29 seconds 325 msec
