                         Program Version 4.2.1 -  RELEASE  -
|  1> ! wB97X-D3 SP def2-SVP
|  2> %pal
|  3> nprocs 16
|  4> end
|  5>
|  6> * xyz 0 1
|  7> S 	 -67.1119 	 42.2329 	 131.118
|  8> C 	 -67.609 	 42.3731 	 132.708
|  9> C 	 -66.5409 	 42.5761 	 133.565
| 10> C 	 -65.2994 	 42.6813 	 132.814
| 11> C 	 -65.473 	 42.4808 	 131.477
| 12> H 	 -64.2914 	 42.79 	 133.217
| 13> C 	 -66.5602 	 42.7228 	 135.107
| 14> H 	 -67.405 	 43.3243 	 135.365
| 15> H 	 -65.6465 	 43.1171 	 135.489
| 16> C 	 -66.6975 	 41.3236 	 135.724
| 17> H 	 -66.7121 	 41.5758 	 136.799
| 18> H 	 -67.5737 	 40.6968 	 135.352
| 19> C 	 -65.3971 	 40.5463 	 135.492
| 20> H 	 -64.4877 	 41.0631 	 135.893
| 21> H 	 -65.5183 	 39.551 	 136.028
| 22> H 	 -65.2772 	 40.2731 	 134.45
| 23> S 	 -64.1841 	 40.6937 	 129.893
| 24> C 	 -62.9287 	 41.2966 	 128.76
| 25> C 	 -62.6844 	 42.6357 	 129.007
| 26> C 	 -63.4796 	 43.2268 	 130.048
| 27> C 	 -64.4758 	 42.3553 	 130.463
| 28> H 	 -61.8233 	 43.0544 	 128.488
| 29> C 	 -63.1224 	 44.5661 	 130.641
| 30> H 	 -62.0869 	 44.74 	 130.519
| 31> H 	 -63.4346 	 44.5055 	 131.665
| 32> C 	 -63.9891 	 45.8098 	 130.039
| 33> H 	 -63.7119 	 46.0679 	 128.961
| 34> H 	 -63.7559 	 46.7436 	 130.65
| 35> C 	 -65.5815 	 45.6724 	 130.105
| 36> H 	 -66.0239 	 45.5288 	 131.114
| 37> H 	 -65.8693 	 44.9251 	 129.42
| 38> H 	 -66.0102 	 46.5722 	 129.69
| 39> H 	 -68.5901 	 42.1116 	 133.08
| 40> H 	 -62.2589 	 40.6703 	 128.11
| 41> *
| 42>
| 43>                          ****END OF INPUT****

CARTESIAN COORDINATES (ANGSTROEM)
---------------------------------
  S    -67.111900   42.232900  131.118000
  C    -67.609000   42.373100  132.708000
  C    -66.540900   42.576100  133.565000
  C    -65.299400   42.681300  132.814000
  C    -65.473000   42.480800  131.477000
  H    -64.291400   42.790000  133.217000
  C    -66.560200   42.722800  135.107000
  H    -67.405000   43.324300  135.365000
  H    -65.646500   43.117100  135.489000
  C    -66.697500   41.323600  135.724000
  H    -66.712100   41.575800  136.799000
  H    -67.573700   40.696800  135.352000
  C    -65.397100   40.546300  135.492000
  H    -64.487700   41.063100  135.893000
  H    -65.518300   39.551000  136.028000
  H    -65.277200   40.273100  134.450000
  S    -64.184100   40.693700  129.893000
  C    -62.928700   41.296600  128.760000
  C    -62.684400   42.635700  129.007000
  C    -63.479600   43.226800  130.048000
  C    -64.475800   42.355300  130.463000
  H    -61.823300   43.054400  128.488000
  C    -63.122400   44.566100  130.641000
  H    -62.086900   44.740000  130.519000
  H    -63.434600   44.505500  131.665000
  C    -63.989100   45.809800  130.039000
  H    -63.711900   46.067900  128.961000
  H    -63.755900   46.743600  130.650000
  C    -65.581500   45.672400  130.105000
  H    -66.023900   45.528800  131.114000
  H    -65.869300   44.925100  129.420000
  H    -66.010200   46.572200  129.690000
  H    -68.590100   42.111600  133.080000
  H    -62.258900   40.670300  128.110000

 Total Charge           Charge          ....    0
 Multiplicity           Mult            ....    1
 Number of Electrons    NEL             ....  134
 Basis Dimension        Dim             ....  322

ORBITAL ENERGIES
----------------

  NO   OCC          E(Eh)            E(eV)
   0   2.0000     -88.964005     -2420.8336
   1   2.0000     -88.963033     -2420.8072
   2   2.0000     -10.324315      -280.9389
   3   2.0000     -10.323301      -280.9113
   4   2.0000     -10.317346      -280.7493
   5   2.0000     -10.307266      -280.4750
   6   2.0000     -10.305212      -280.4191
   7   2.0000     -10.302886      -280.3558
   8   2.0000     -10.301860      -280.3279
   9   2.0000     -10.294545      -280.1288
  10   2.0000     -10.294452      -280.1263
  11   2.0000     -10.292005      -280.0597
  12   2.0000     -10.291979      -280.0590
  13   2.0000     -10.290029      -280.0059
  14   2.0000     -10.280459      -279.7455
  15   2.0000     -10.271742      -279.5083
  16   2.0000      -8.080198      -219.8734
  17   2.0000      -8.077629      -219.8035
  18   2.0000      -6.038513      -164.3163
  19   2.0000      -6.036253      -164.2548
  20   2.0000      -6.034188      -164.1986
  21   2.0000      -6.032466      -164.1517
  22   2.0000      -6.031176      -164.1166
  23   2.0000      -6.028149      -164.0343
  24   2.0000      -1.016142       -27.6506
  25   2.0000      -0.982169       -26.7262
  26   2.0000      -0.914859       -24.8946
  27   2.0000      -0.892159       -24.2769
  28   2.0000      -0.872856       -23.7516
  29   2.0000      -0.844848       -22.9895
  30   2.0000      -0.836349       -22.7582
  31   2.0000      -0.812018       -22.0961
  32   2.0000      -0.783396       -21.3173
  33   2.0000      -0.771356       -20.9897
  34   2.0000      -0.702541       -19.1171
  35   2.0000      -0.691495       -18.8165
  36   2.0000      -0.685367       -18.6498
  37   2.0000      -0.659744       -17.9526
  38   2.0000      -0.645813       -17.5735
  39   2.0000      -0.611126       -16.6296
  40   2.0000      -0.586982       -15.9726
  41   2.0000      -0.577787       -15.7224
  42   2.0000      -0.556390       -15.1402
  43   2.0000      -0.544995       -14.8301
  44   2.0000      -0.543055       -14.7773
  45   2.0000      -0.530336       -14.4312
  46   2.0000      -0.512366       -13.9422
  47   2.0000      -0.507353       -13.8058
  48   2.0000      -0.503405       -13.6984
  49   2.0000      -0.498525       -13.5656
  50   2.0000      -0.485236       -13.2040
  51   2.0000      -0.476283       -12.9603
  52   2.0000      -0.465104       -12.6561
  53   2.0000      -0.463946       -12.6246
  54   2.0000      -0.461568       -12.5599
  55   2.0000      -0.444618       -12.0987
  56   2.0000      -0.436175       -11.8689
  57   2.0000      -0.431048       -11.7294
  58   2.0000      -0.430280       -11.7085
  59   2.0000      -0.427892       -11.6435
  60   2.0000      -0.423979       -11.5370
  61   2.0000      -0.414838       -11.2883
  62   2.0000      -0.408380       -11.1126
  63   2.0000      -0.342508        -9.3201
  64   2.0000      -0.325881        -8.8677
  65   2.0000      -0.323496        -8.8028
  66   2.0000      -0.299200        -8.1417
  67   0.0000       0.036277         0.9871
  68   0.0000       0.064749         1.7619
  69   0.0000       0.101939         2.7739
  70   0.0000       0.121087         3.2949
  71   0.0000       0.136497         3.7143

MULLIKEN ATOMIC CHARGES
-----------------------
   0 S :    0.139848
   1 C :   -0.110491
   2 C :   -0.136575
   3 C :    0.039329
   4 C :   -0.197064
   5 H :    0.018325
   6 C :    0.119020
   7 H :    0.028138
   8 H :    0.011657
   9 C :   -0.101239
  10 H :    0.034742
  11 H :    0.051278
  12 C :   -0.093429
  13 H :    0.037553
  14 H :    0.039292
  15 H :    0.050072
  16 S :    0.098968
  17 C :   -0.109172
  18 C :   -0.047367
  19 C :   -0.028801
  20 C :   -0.163859
  21 H :    0.021314
  22 C :    0.141300
  23 H :    0.024733
  24 H :    0.012561
  25 C :   -0.140766
  26 H :    0.040633
  27 H :    0.040474
  28 C :   -0.046249
  29 H :    0.052441
  30 H :    0.029438
  31 H :    0.025631
  32 H :    0.043447
  33 H :    0.074814
Sum of atomic charges:   -0.0000000

LOEWDIN ATOMIC CHARGES
----------------------
   0 S :    0.468786
   1 C :   -0.229476
   2 C :   -0.059202
   3 C :   -0.067166
   4 C :   -0.224564
   5 H :    0.031498
   6 C :   -0.022943
   7 H :    0.026816
   8 H :    0.025441
   9 C :   -0.045020
  10 H :    0.025694
  11 H :    0.032707
  12 C :   -0.074907
  13 H :    0.026755
  14 H :    0.032135
  15 H :    0.024228
  16 S :    0.375604
  17 C :   -0.182145
  18 C :   -0.073863
  19 C :   -0.050744
  20 C :   -0.193851
  21 H :    0.032556
  22 C :   -0.021668
  23 H :    0.028245
  24 H :    0.029428
  25 C :   -0.040662
  26 H :    0.026902
  27 H :    0.025664
  28 C :   -0.069397
  29 H :    0.030973
  30 H :    0.016783
  31 H :    0.025534
  32 H :    0.028221
  33 H :    0.041638

  Mayer bond orders larger than 0.100000
B(  0-S ,  1-C ) :   1.1666 B(  0-S ,  4-C ) :   1.1802 B(  1-C ,  2-C ) :   1.5982
B(  1-C , 32-H ) :   0.9664 B(  2-C ,  3-C ) :   1.2502 B(  2-C ,  6-C ) :   1.0138
B(  3-C ,  4-C ) :   1.5726 B(  3-C ,  5-H ) :   0.9898 B(  4-C , 20-C ) :   1.0215
B(  6-C ,  7-H ) :   0.9416 B(  6-C ,  8-H ) :   0.9434 B(  6-C ,  9-C ) :   1.0663
B(  9-C , 10-H ) :   0.9563 B(  9-C , 11-H ) :   0.9572 B(  9-C , 12-C ) :   1.0764
B( 12-C , 13-H ) :   0.9733 B( 12-C , 14-H ) :   0.9720 B( 12-C , 15-H ) :   0.9727
B( 16-S , 17-C ) :   1.1280 B( 16-S , 20-C ) :   1.1431 B( 17-C , 18-C ) :   1.6465
B( 17-C , 20-C ) :   0.1048 B( 17-C , 33-H ) :   0.9596 B( 18-C , 19-C ) :   1.2085
B( 18-C , 21-H ) :   0.9849 B( 19-C , 20-C ) :   1.6009 B( 19-C , 22-C ) :   1.0465
B( 22-C , 23-H ) :   0.9384 B( 22-C , 24-H ) :   0.9259 B( 22-C , 25-C ) :   1.0495
B( 25-C , 26-H ) :   0.9602 B( 25-C , 27-H ) :   0.9629 B( 25-C , 28-C ) :   1.0722
B( 28-C , 29-H ) :   0.9750 B( 28-C , 30-H ) :   0.9736 B( 28-C , 31-H ) :   0.9725

Dispersion correction           -0.016054261
FINAL SINGLE POINT ENERGY     -1339.871128930084

DIPOLE MOMENT
-------------
                                X             Y             Z
Electronic contribution:     -1.96103     -10.76314     -14.95600
Nuclear contribution   :      2.28447      10.99164      15.39723
                        -----------------------------------------
Total Dipole Moment    :      0.32344       0.22850       0.44123
                        -----------------------------------------
Magnitude (a.u.)       :      0.59288
Magnitude (Debye)      :      1.50699

Rotational constants in cm-1:     0.020092     0.009296     0.008090
Rotational constants in MHz :   602.328283   278.697412   242.530433

                             ****ORCA TERMINATED NORMALLY****
TOTAL RUN TIME: 0 days 0 hours 0 minutes 36 seconds 400 msec
