                         Program Version 4.2.1 -  RELEASE  -
|  1> ! wB97X-D3 SP def2-SVP
|  2> %pal
|  3> nprocs 16
|  4> end
|  5>
|  6> * xyz 0 1
|  7> S 	 -42.1986 	 49.7095 	 105.888
|  8> C 	 -41.7295 	 49.1664 	 104.33
|  9> C 	 -41.2235 	 50.1762 	 103.554
| 10> C 	 -41.3641 	 51.4334 	 104.183
| 11> C 	 -41.9639 	 51.4199 	 105.388
| 12> H 	 -41.2487 	 52.3728 	 103.664
| 13> C 	 -40.7964 	 50.0122 	 102.075
| 14> H 	 -40.9196 	 49.0379 	 101.778
| 15> H 	 -39.7553 	 50.1619 	 102.052
| 16> C 	 -41.6019 	 50.8851 	 101.053
| 17> H 	 -41.4822 	 51.9897 	 101.219
| 18> H 	 -41.1567 	 50.8246 	 100.101
| 19> C 	 -43.0849 	 50.4295 	 100.859
| 20> H 	 -43.5436 	 51.0541 	 100.09
| 21> H 	 -43.2675 	 49.4246 	 100.476
| 22> H 	 -43.5973 	 50.4117 	 101.785
| 23> S 	 -42.817 	 52.2096 	 107.897
| 24> C 	 -43.1315 	 53.858 	 108.309
| 25> C 	 -42.8469 	 54.6141 	 107.186
| 26> C 	 -42.4861 	 53.8962 	 106.019
| 27> C 	 -42.3499 	 52.5408 	 106.244
| 28> H 	 -42.962 	 55.698 	 107.282
| 29> C 	 -42.2909 	 54.6168 	 104.748
| 30> H 	 -41.3976 	 54.2177 	 104.306
| 31> H 	 -42.1976 	 55.6161 	 105.007
| 32> C 	 -43.4654 	 54.4137 	 103.73
| 33> H 	 -43.5062 	 53.3513 	 103.55
| 34> H 	 -43.1257 	 54.7658 	 102.783
| 35> C 	 -44.8897 	 54.8302 	 104.219
| 36> H 	 -45.6803 	 54.4558 	 103.525
| 37> H 	 -44.9716 	 55.9418 	 104.191
| 38> H 	 -45.1098 	 54.4421 	 105.241
| 39> H 	 -41.8542 	 48.1569 	 103.954
| 40> H 	 -43.3754 	 54.4499 	 109.223
| 41> *
| 42>
| 43>                          ****END OF INPUT****

CARTESIAN COORDINATES (ANGSTROEM)
---------------------------------
  S    -42.198600   49.709500  105.888000
  C    -41.729500   49.166400  104.330000
  C    -41.223500   50.176200  103.554000
  C    -41.364100   51.433400  104.183000
  C    -41.963900   51.419900  105.388000
  H    -41.248700   52.372800  103.664000
  C    -40.796400   50.012200  102.075000
  H    -40.919600   49.037900  101.778000
  H    -39.755300   50.161900  102.052000
  C    -41.601900   50.885100  101.053000
  H    -41.482200   51.989700  101.219000
  H    -41.156700   50.824600  100.101000
  C    -43.084900   50.429500  100.859000
  H    -43.543600   51.054100  100.090000
  H    -43.267500   49.424600  100.476000
  H    -43.597300   50.411700  101.785000
  S    -42.817000   52.209600  107.897000
  C    -43.131500   53.858000  108.309000
  C    -42.846900   54.614100  107.186000
  C    -42.486100   53.896200  106.019000
  C    -42.349900   52.540800  106.244000
  H    -42.962000   55.698000  107.282000
  C    -42.290900   54.616800  104.748000
  H    -41.397600   54.217700  104.306000
  H    -42.197600   55.616100  105.007000
  C    -43.465400   54.413700  103.730000
  H    -43.506200   53.351300  103.550000
  H    -43.125700   54.765800  102.783000
  C    -44.889700   54.830200  104.219000
  H    -45.680300   54.455800  103.525000
  H    -44.971600   55.941800  104.191000
  H    -45.109800   54.442100  105.241000
  H    -41.854200   48.156900  103.954000
  H    -43.375400   54.449900  109.223000

 Total Charge           Charge          ....    0
 Multiplicity           Mult            ....    1
 Number of Electrons    NEL             ....  134
 Basis Dimension        Dim             ....  322

ORBITAL ENERGIES
----------------

  NO   OCC          E(Eh)            E(eV)
   0   2.0000     -88.966746     -2420.9082
   1   2.0000     -88.964894     -2420.8578
   2   2.0000     -10.333510      -281.1891
   3   2.0000     -10.329109      -281.0693
   4   2.0000     -10.318414      -280.7783
   5   2.0000     -10.311345      -280.5860
   6   2.0000     -10.298887      -280.2470
   7   2.0000     -10.296826      -280.1909
   8   2.0000     -10.293312      -280.0953
   9   2.0000     -10.290101      -280.0079
  10   2.0000     -10.289545      -279.9928
  11   2.0000     -10.288386      -279.9612
  12   2.0000     -10.285676      -279.8875
  13   2.0000     -10.285043      -279.8702
  14   2.0000     -10.283425      -279.8262
  15   2.0000     -10.276965      -279.6504
  16   2.0000      -8.081471      -219.9080
  17   2.0000      -8.079705      -219.8600
  18   2.0000      -6.040155      -164.3610
  19   2.0000      -6.038367      -164.3123
  20   2.0000      -6.035813      -164.2428
  21   2.0000      -6.034307      -164.2018
  22   2.0000      -6.032202      -164.1446
  23   2.0000      -6.030202      -164.0901
  24   2.0000      -1.012624       -27.5549
  25   2.0000      -0.991233       -26.9728
  26   2.0000      -0.911821       -24.8119
  27   2.0000      -0.906551       -24.6685
  28   2.0000      -0.872505       -23.7421
  29   2.0000      -0.849951       -23.1283
  30   2.0000      -0.841928       -22.9100
  31   2.0000      -0.820471       -22.3261
  32   2.0000      -0.785474       -21.3738
  33   2.0000      -0.776649       -21.1337
  34   2.0000      -0.717269       -19.5179
  35   2.0000      -0.706863       -19.2347
  36   2.0000      -0.692337       -18.8394
  37   2.0000      -0.665865       -18.1191
  38   2.0000      -0.640767       -17.4361
  39   2.0000      -0.629037       -17.1170
  40   2.0000      -0.586665       -15.9640
  41   2.0000      -0.566626       -15.4187
  42   2.0000      -0.558320       -15.1927
  43   2.0000      -0.552291       -15.0286
  44   2.0000      -0.544837       -14.8258
  45   2.0000      -0.534530       -14.5453
  46   2.0000      -0.514512       -14.0006
  47   2.0000      -0.512019       -13.9327
  48   2.0000      -0.505056       -13.7433
  49   2.0000      -0.499166       -13.5830
  50   2.0000      -0.491537       -13.3754
  51   2.0000      -0.480332       -13.0705
  52   2.0000      -0.477179       -12.9847
  53   2.0000      -0.473109       -12.8740
  54   2.0000      -0.462166       -12.5762
  55   2.0000      -0.446083       -12.1385
  56   2.0000      -0.445352       -12.1186
  57   2.0000      -0.437068       -11.8932
  58   2.0000      -0.433919       -11.8075
  59   2.0000      -0.428633       -11.6637
  60   2.0000      -0.422453       -11.4955
  61   2.0000      -0.414256       -11.2725
  62   2.0000      -0.406404       -11.0588
  63   2.0000      -0.367265        -9.9938
  64   2.0000      -0.336368        -9.1530
  65   2.0000      -0.326548        -8.8858
  66   2.0000      -0.283103        -7.7036
  67   0.0000       0.020628         0.5613
  68   0.0000       0.088352         2.4042
  69   0.0000       0.099264         2.7011
  70   0.0000       0.121902         3.3171
  71   0.0000       0.133609         3.6357

MULLIKEN ATOMIC CHARGES
-----------------------
   0 S :    0.102038
   1 C :   -0.116650
   2 C :   -0.106822
   3 C :   -0.002153
   4 C :   -0.097468
   5 H :   -0.009891
   6 C :    0.147277
   7 H :   -0.014185
   8 H :    0.025616
   9 C :   -0.080168
  10 H :    0.031641
  11 H :    0.014067
  12 C :   -0.047965
  13 H :    0.036051
  14 H :    0.022386
  15 H :    0.038403
  16 S :    0.100139
  17 C :   -0.083546
  18 C :   -0.079293
  19 C :   -0.089948
  20 C :   -0.107090
  21 H :    0.020652
  22 C :    0.108757
  23 H :    0.025866
  24 H :   -0.002631
  25 C :   -0.049420
  26 H :    0.020589
  27 H :    0.015316
  28 C :   -0.077250
  29 H :    0.043287
  30 H :    0.034247
  31 H :    0.060767
  32 H :    0.046403
  33 H :    0.070978
Sum of atomic charges:   -0.0000000

LOEWDIN ATOMIC CHARGES
----------------------
   0 S :    0.387973
   1 C :   -0.201228
   2 C :   -0.064613
   3 C :   -0.068648
   4 C :   -0.164040
   5 H :    0.026744
   6 C :   -0.015045
   7 H :    0.017344
   8 H :    0.028939
   9 C :   -0.038790
  10 H :    0.026571
  11 H :    0.018432
  12 C :   -0.064923
  13 H :    0.029813
  14 H :    0.025894
  15 H :    0.021445
  16 S :    0.417446
  17 C :   -0.210350
  18 C :   -0.080593
  19 C :   -0.064549
  20 C :   -0.191425
  21 H :    0.030933
  22 C :   -0.021462
  23 H :    0.027678
  24 H :    0.019715
  25 C :   -0.035883
  26 H :    0.021579
  27 H :    0.018134
  28 C :   -0.070931
  29 H :    0.032193
  30 H :    0.024883
  31 H :    0.034987
  32 H :    0.030382
  33 H :    0.051395

  Mayer bond orders larger than 0.100000
B(  0-S ,  1-C ) :   1.1375 B(  0-S ,  4-C ) :   1.1179 B(  1-C ,  2-C ) :   1.6320
B(  1-C , 32-H ) :   0.9630 B(  2-C ,  3-C ) :   1.2309 B(  2-C ,  6-C ) :   1.0203
B(  3-C ,  4-C ) :   1.6096 B(  3-C ,  5-H ) :   0.9846 B(  4-C , 20-C ) :   1.0851
B(  6-C ,  7-H ) :   0.9377 B(  6-C ,  8-H ) :   0.9317 B(  6-C ,  9-C ) :   1.0707
B(  9-C , 10-H ) :   0.9572 B(  9-C , 11-H ) :   0.9519 B(  9-C , 12-C ) :   1.0641
B( 12-C , 13-H ) :   0.9745 B( 12-C , 14-H ) :   0.9733 B( 12-C , 15-H ) :   0.9806
B( 16-S , 17-C ) :   1.1556 B( 16-S , 20-C ) :   1.1353 B( 17-C , 18-C ) :   1.6058
B( 17-C , 33-H ) :   0.9587 B( 18-C , 19-C ) :   1.2700 B( 18-C , 21-H ) :   0.9821
B( 19-C , 20-C ) :   1.5602 B( 19-C , 22-C ) :   1.0484 B( 22-C , 23-H ) :   0.9267
B( 22-C , 24-H ) :   0.9231 B( 22-C , 25-C ) :   1.0710 B( 25-C , 26-H ) :   0.9523
B( 25-C , 27-H ) :   0.9577 B( 25-C , 28-C ) :   1.0658 B( 28-C , 29-H ) :   0.9748
B( 28-C , 30-H ) :   0.9782 B( 28-C , 31-H ) :   0.9723

Dispersion correction           -0.015734415
FINAL SINGLE POINT ENERGY     -1339.871616770100

DIPOLE MOMENT
-------------
                                X             Y             Z
Electronic contribution:      5.01249      -9.73506      26.91908
Nuclear contribution   :     -5.01247      10.10758     -27.63940
                        -----------------------------------------
Total Dipole Moment    :      0.00003       0.37251      -0.72031
                        -----------------------------------------
Magnitude (a.u.)       :      0.81094
Magnitude (Debye)      :      2.06123

Rotational constants in cm-1:     0.019561     0.010154     0.007419
Rotational constants in MHz :   586.430848   304.415501   222.408624

                             ****ORCA TERMINATED NORMALLY****
TOTAL RUN TIME: 0 days 0 hours 0 minutes 31 seconds 40 msec
