                         Program Version 4.2.1 -  RELEASE  -
|  1> ! wB97X-D3 SP def2-SVP
|  2> %pal
|  3> nprocs 16
|  4> end
|  5>
|  6> * xyz 0 1
|  7> S 	 -65.0045 	 48.187 	 123.036
|  8> C 	 -65.2353 	 48.5755 	 124.677
|  9> C 	 -66.5344 	 48.4106 	 125.03
| 10> C 	 -67.3567 	 47.9596 	 124.007
| 11> C 	 -66.6929 	 47.6867 	 122.862
| 12> H 	 -68.3956 	 47.679 	 124.155
| 13> C 	 -66.9782 	 48.8505 	 126.388
| 14> H 	 -68.0512 	 49.1209 	 126.327
| 15> H 	 -66.5566 	 49.8263 	 126.571
| 16> C 	 -66.6691 	 47.918 	 127.549
| 17> H 	 -67.1806 	 46.9911 	 127.474
| 18> H 	 -65.6114 	 47.5907 	 127.385
| 19> C 	 -66.9355 	 48.4699 	 128.915
| 20> H 	 -68.0509 	 48.2758 	 129.097
| 21> H 	 -66.4808 	 47.8565 	 129.641
| 22> H 	 -66.6342 	 49.4925 	 129.05
| 23> S 	 -66.1494 	 45.5215 	 121.363
| 24> C 	 -67.3137 	 44.9272 	 120.135
| 25> C 	 -68.4657 	 45.7124 	 120.165
| 26> C 	 -68.4416 	 46.7177 	 121.206
| 27> C 	 -67.1918 	 46.9042 	 121.745
| 28> H 	 -69.2754 	 45.5167 	 119.488
| 29> C 	 -69.6681 	 47.5819 	 121.425
| 30> H 	 -69.777 	 48.3213 	 120.604
| 31> H 	 -69.5439 	 48.1562 	 122.295
| 32> C 	 -71.0453 	 46.8387 	 121.482
| 33> H 	 -71.1905 	 46.2315 	 122.317
| 34> H 	 -71.1252 	 46.2256 	 120.601
| 35> C 	 -72.3258 	 47.7591 	 121.456
| 36> H 	 -72.55 	 48.3333 	 122.344
| 37> H 	 -73.1965 	 47.0679 	 121.309
| 38> H 	 -72.2533 	 48.3205 	 120.508
| 39> H 	 -64.4325 	 48.7409 	 125.356
| 40> H 	 -67.1362 	 43.9995 	 119.544
| 41> *
| 42>
| 43>                          ****END OF INPUT****

CARTESIAN COORDINATES (ANGSTROEM)
---------------------------------
  S    -65.004500   48.187000  123.036000
  C    -65.235300   48.575500  124.677000
  C    -66.534400   48.410600  125.030000
  C    -67.356700   47.959600  124.007000
  C    -66.692900   47.686700  122.862000
  H    -68.395600   47.679000  124.155000
  C    -66.978200   48.850500  126.388000
  H    -68.051200   49.120900  126.327000
  H    -66.556600   49.826300  126.571000
  C    -66.669100   47.918000  127.549000
  H    -67.180600   46.991100  127.474000
  H    -65.611400   47.590700  127.385000
  C    -66.935500   48.469900  128.915000
  H    -68.050900   48.275800  129.097000
  H    -66.480800   47.856500  129.641000
  H    -66.634200   49.492500  129.050000
  S    -66.149400   45.521500  121.363000
  C    -67.313700   44.927200  120.135000
  C    -68.465700   45.712400  120.165000
  C    -68.441600   46.717700  121.206000
  C    -67.191800   46.904200  121.745000
  H    -69.275400   45.516700  119.488000
  C    -69.668100   47.581900  121.425000
  H    -69.777000   48.321300  120.604000
  H    -69.543900   48.156200  122.295000
  C    -71.045300   46.838700  121.482000
  H    -71.190500   46.231500  122.317000
  H    -71.125200   46.225600  120.601000
  C    -72.325800   47.759100  121.456000
  H    -72.550000   48.333300  122.344000
  H    -73.196500   47.067900  121.309000
  H    -72.253300   48.320500  120.508000
  H    -64.432500   48.740900  125.356000
  H    -67.136200   43.999500  119.544000

 Total Charge           Charge          ....    0
 Multiplicity           Mult            ....    1
 Number of Electrons    NEL             ....  134
 Basis Dimension        Dim             ....  322

ORBITAL ENERGIES
----------------

  NO   OCC          E(Eh)            E(eV)
   0   2.0000     -88.964657     -2420.8514
   1   2.0000     -88.961094     -2420.7544
   2   2.0000     -10.327648      -281.0296
   3   2.0000     -10.326244      -280.9914
   4   2.0000     -10.324974      -280.9568
   5   2.0000     -10.306084      -280.4428
   6   2.0000     -10.303948      -280.3847
   7   2.0000     -10.298065      -280.2246
   8   2.0000     -10.292089      -280.0620
   9   2.0000     -10.289310      -279.9864
  10   2.0000     -10.287423      -279.9350
  11   2.0000     -10.286439      -279.9082
  12   2.0000     -10.285879      -279.8930
  13   2.0000     -10.285537      -279.8837
  14   2.0000     -10.281331      -279.7692
  15   2.0000     -10.277320      -279.6601
  16   2.0000      -8.080094      -219.8705
  17   2.0000      -8.075130      -219.7355
  18   2.0000      -6.038507      -164.3161
  19   2.0000      -6.034443      -164.2056
  20   2.0000      -6.033854      -164.1895
  21   2.0000      -6.030968      -164.1110
  22   2.0000      -6.029759      -164.0781
  23   2.0000      -6.025650      -163.9663
  24   2.0000      -1.013822       -27.5875
  25   2.0000      -0.984076       -26.7781
  26   2.0000      -0.915652       -24.9162
  27   2.0000      -0.903195       -24.5772
  28   2.0000      -0.873707       -23.7748
  29   2.0000      -0.857835       -23.3429
  30   2.0000      -0.845014       -22.9940
  31   2.0000      -0.819414       -22.2974
  32   2.0000      -0.780438       -21.2368
  33   2.0000      -0.769930       -20.9509
  34   2.0000      -0.706742       -19.2314
  35   2.0000      -0.701973       -19.1016
  36   2.0000      -0.698444       -19.0056
  37   2.0000      -0.663128       -18.0446
  38   2.0000      -0.643459       -17.5094
  39   2.0000      -0.625220       -17.0131
  40   2.0000      -0.595919       -16.2158
  41   2.0000      -0.572568       -15.5804
  42   2.0000      -0.570737       -15.5306
  43   2.0000      -0.559584       -15.2270
  44   2.0000      -0.535109       -14.5611
  45   2.0000      -0.519776       -14.1438
  46   2.0000      -0.518484       -14.1087
  47   2.0000      -0.514606       -14.0031
  48   2.0000      -0.508802       -13.8452
  49   2.0000      -0.500163       -13.6101
  50   2.0000      -0.496178       -13.5017
  51   2.0000      -0.478895       -13.0314
  52   2.0000      -0.470758       -12.8100
  53   2.0000      -0.467117       -12.7109
  54   2.0000      -0.460292       -12.5252
  55   2.0000      -0.452713       -12.3190
  56   2.0000      -0.442651       -12.0451
  57   2.0000      -0.440148       -11.9770
  58   2.0000      -0.429687       -11.6924
  59   2.0000      -0.425989       -11.5917
  60   2.0000      -0.422342       -11.4925
  61   2.0000      -0.416885       -11.3440
  62   2.0000      -0.404178       -10.9982
  63   2.0000      -0.355327        -9.6689
  64   2.0000      -0.331624        -9.0239
  65   2.0000      -0.326142        -8.8748
  66   2.0000      -0.288719        -7.8565
  67   0.0000       0.025856         0.7036
  68   0.0000       0.072938         1.9847
  69   0.0000       0.105995         2.8843
  70   0.0000       0.118521         3.2251
  71   0.0000       0.128582         3.4989

MULLIKEN ATOMIC CHARGES
-----------------------
   0 S :    0.116299
   1 C :   -0.109250
   2 C :   -0.089391
   3 C :    0.025837
   4 C :   -0.150495
   5 H :    0.015856
   6 C :    0.059134
   7 H :    0.010565
   8 H :    0.019130
   9 C :   -0.071376
  10 H :    0.015528
  11 H :    0.017064
  12 C :   -0.014458
  13 H :    0.036699
  14 H :    0.022349
  15 H :    0.033444
  16 S :    0.076989
  17 C :   -0.109900
  18 C :   -0.024640
  19 C :   -0.043282
  20 C :   -0.106434
  21 H :    0.023023
  22 C :    0.091143
  23 H :    0.037911
  24 H :   -0.002557
  25 C :   -0.082744
  26 H :    0.020839
  27 H :    0.020821
  28 C :   -0.076741
  29 H :    0.046465
  30 H :    0.034428
  31 H :    0.034745
  32 H :    0.045101
  33 H :    0.077896
Sum of atomic charges:   -0.0000000

LOEWDIN ATOMIC CHARGES
----------------------
   0 S :    0.417713
   1 C :   -0.200086
   2 C :   -0.071105
   3 C :   -0.062704
   4 C :   -0.190101
   5 H :    0.034330
   6 C :   -0.034425
   7 H :    0.028229
   8 H :    0.028718
   9 C :   -0.045790
  10 H :    0.020915
  11 H :    0.022543
  12 C :   -0.061020
  13 H :    0.037570
  14 H :    0.022328
  15 H :    0.022023
  16 S :    0.375277
  17 C :   -0.175163
  18 C :   -0.066384
  19 C :   -0.057111
  20 C :   -0.182367
  21 H :    0.028818
  22 C :   -0.028791
  23 H :    0.038682
  24 H :    0.017560
  25 C :   -0.031285
  26 H :    0.014431
  27 H :    0.019645
  28 C :   -0.067073
  29 H :    0.022632
  30 H :    0.032098
  31 H :    0.026051
  32 H :    0.025262
  33 H :    0.038580

  Mayer bond orders larger than 0.100000
B(  0-S ,  1-C ) :   1.1462 B(  0-S ,  4-C ) :   1.1560 B(  1-C ,  2-C ) :   1.5953
B(  1-C , 32-H ) :   0.9698 B(  2-C ,  3-C ) :   1.2942 B(  2-C ,  6-C ) :   1.0123
B(  3-C ,  4-C ) :   1.5511 B(  3-C ,  5-H ) :   0.9853 B(  4-C , 20-C ) :   1.0379
B(  6-C ,  7-H ) :   0.9390 B(  6-C ,  8-H ) :   0.9421 B(  6-C ,  9-C ) :   1.0580
B(  9-C , 10-H ) :   0.9502 B(  9-C , 11-H ) :   0.9558 B(  9-C , 12-C ) :   1.0874
B( 12-C , 13-H ) :   0.9734 B( 12-C , 14-H ) :   0.9693 B( 12-C , 15-H ) :   0.9753
B( 16-S , 17-C ) :   1.1384 B( 16-S , 20-C ) :   1.1265 B( 17-C , 18-C ) :   1.6236
B( 17-C , 33-H ) :   0.9642 B( 18-C , 19-C ) :   1.2011 B( 18-C , 21-H ) :   0.9907
B( 19-C , 20-C ) :   1.6218 B( 19-C , 22-C ) :   1.0526 B( 22-C , 23-H ) :   0.9365
B( 22-C , 24-H ) :   0.9353 B( 22-C , 25-C ) :   1.0496 B( 25-C , 26-H ) :   0.9605
B( 25-C , 27-H ) :   0.9568 B( 25-C , 28-C ) :   1.0843 B( 28-C , 29-H ) :   0.9789
B( 28-C , 30-H ) :   0.9754 B( 28-C , 31-H ) :   0.9755

Dispersion correction           -0.013198340
FINAL SINGLE POINT ENERGY     -1339.869361399029

DIPOLE MOMENT
-------------
                                X             Y             Z
Electronic contribution:     22.57699      -5.84417     -16.52550
Nuclear contribution   :    -23.20679       5.76577      16.89208
                        -----------------------------------------
Total Dipole Moment    :     -0.62980      -0.07840       0.36659
                        -----------------------------------------
Magnitude (a.u.)       :      0.73292
Magnitude (Debye)      :      1.86294

Rotational constants in cm-1:     0.017299     0.008022     0.006075
Rotational constants in MHz :   518.596939   240.480226   182.109738

                             ****ORCA TERMINATED NORMALLY****
TOTAL RUN TIME: 0 days 0 hours 0 minutes 33 seconds 637 msec
