                         Program Version 4.2.1 -  RELEASE  -
|  1> ! wB97X-D3 SP def2-SVP
|  2> %pal
|  3> nprocs 16
|  4> end
|  5>
|  6> * xyz 0 1
|  7> S 	 -44.8396 	 29.6955 	 88.8781
|  8> C 	 -45.2109 	 28.8228 	 90.3529
|  9> C 	 -46.5625 	 28.9963 	 90.7242
| 10> C 	 -47.2918 	 29.6195 	 89.7255
| 11> C 	 -46.5143 	 30.1274 	 88.6918
| 12> H 	 -48.3799 	 29.743 	 89.7958
| 13> C 	 -47.1434 	 28.4125 	 91.993
| 14> H 	 -46.7285 	 28.999 	 92.7863
| 15> H 	 -47.0144 	 27.3437 	 91.9915
| 16> C 	 -48.6489 	 28.4691 	 92.169
| 17> H 	 -49.1975 	 29.449 	 92.1977
| 18> H 	 -48.9906 	 27.9814 	 91.26
| 19> C 	 -49.2361 	 27.6454 	 93.2496
| 20> H 	 -48.8452 	 26.5749 	 93.1488
| 21> H 	 -48.9834 	 27.9224 	 94.3042
| 22> H 	 -50.3159 	 27.6391 	 93.134
| 23> S 	 -47.0567 	 30.0916 	 86.0364
| 24> C 	 -47.4777 	 31.646 	 85.344
| 25> C 	 -47.6331 	 32.6567 	 86.279
| 26> C 	 -47.4704 	 32.1983 	 87.605
| 27> C 	 -46.9296 	 30.912 	 87.5761
| 28> H 	 -47.9574 	 33.6167 	 85.9073
| 29> C 	 -47.6403 	 33.2531 	 88.6533
| 30> H 	 -47.9444 	 32.7522 	 89.5737
| 31> H 	 -48.5983 	 33.8237 	 88.3477
| 32> C 	 -46.4103 	 34.1699 	 88.9936
| 33> H 	 -45.9346 	 34.7165 	 88.1436
| 34> H 	 -45.5639 	 33.6428 	 89.3359
| 35> C 	 -46.8573 	 35.1718 	 90.1041
| 36> H 	 -47.8266 	 35.6223 	 89.9637
| 37> H 	 -46.1575 	 35.9964 	 90.1651
| 38> H 	 -46.9368 	 34.8259 	 91.1455
| 39> H 	 -44.492 	 28.2075 	 90.8851
| 40> H 	 -47.6712 	 31.8634 	 84.2668
| 41> *
| 42>
| 43>                          ****END OF INPUT****

CARTESIAN COORDINATES (ANGSTROEM)
---------------------------------
  S    -44.839600   29.695500   88.878100
  C    -45.210900   28.822800   90.352900
  C    -46.562500   28.996300   90.724200
  C    -47.291800   29.619500   89.725500
  C    -46.514300   30.127400   88.691800
  H    -48.379900   29.743000   89.795800
  C    -47.143400   28.412500   91.993000
  H    -46.728500   28.999000   92.786300
  H    -47.014400   27.343700   91.991500
  C    -48.648900   28.469100   92.169000
  H    -49.197500   29.449000   92.197700
  H    -48.990600   27.981400   91.260000
  C    -49.236100   27.645400   93.249600
  H    -48.845200   26.574900   93.148800
  H    -48.983400   27.922400   94.304200
  H    -50.315900   27.639100   93.134000
  S    -47.056700   30.091600   86.036400
  C    -47.477700   31.646000   85.344000
  C    -47.633100   32.656700   86.279000
  C    -47.470400   32.198300   87.605000
  C    -46.929600   30.912000   87.576100
  H    -47.957400   33.616700   85.907300
  C    -47.640300   33.253100   88.653300
  H    -47.944400   32.752200   89.573700
  H    -48.598300   33.823700   88.347700
  C    -46.410300   34.169900   88.993600
  H    -45.934600   34.716500   88.143600
  H    -45.563900   33.642800   89.335900
  C    -46.857300   35.171800   90.104100
  H    -47.826600   35.622300   89.963700
  H    -46.157500   35.996400   90.165100
  H    -46.936800   34.825900   91.145500
  H    -44.492000   28.207500   90.885100
  H    -47.671200   31.863400   84.266800

 Total Charge           Charge          ....    0
 Multiplicity           Mult            ....    1
 Number of Electrons    NEL             ....  134
 Basis Dimension        Dim             ....  322

ORBITAL ENERGIES
----------------

  NO   OCC          E(Eh)            E(eV)
   0   2.0000     -88.968077     -2420.9444
   1   2.0000     -88.966836     -2420.9107
   2   2.0000     -10.320237      -280.8279
   3   2.0000     -10.319774      -280.8153
   4   2.0000     -10.314873      -280.6820
   5   2.0000     -10.312013      -280.6042
   6   2.0000     -10.299967      -280.2764
   7   2.0000     -10.299721      -280.2696
   8   2.0000     -10.296829      -280.1909
   9   2.0000     -10.292501      -280.0732
  10   2.0000     -10.288919      -279.9757
  11   2.0000     -10.288579      -279.9665
  12   2.0000     -10.286071      -279.8982
  13   2.0000     -10.284473      -279.8547
  14   2.0000     -10.284244      -279.8485
  15   2.0000     -10.276055      -279.6257
  16   2.0000      -8.082669      -219.9406
  17   2.0000      -8.081391      -219.9058
  18   2.0000      -6.041086      -164.3863
  19   2.0000      -6.039635      -164.3468
  20   2.0000      -6.037407      -164.2862
  21   2.0000      -6.035862      -164.2442
  22   2.0000      -6.033338      -164.1755
  23   2.0000      -6.032529      -164.1535
  24   2.0000      -1.007285       -27.4096
  25   2.0000      -0.982997       -26.7487
  26   2.0000      -0.921323       -25.0705
  27   2.0000      -0.902617       -24.5615
  28   2.0000      -0.869777       -23.6678
  29   2.0000      -0.851843       -23.1798
  30   2.0000      -0.850391       -23.1403
  31   2.0000      -0.809948       -22.0398
  32   2.0000      -0.783684       -21.3251
  33   2.0000      -0.765745       -20.8370
  34   2.0000      -0.714626       -19.4460
  35   2.0000      -0.700218       -19.0539
  36   2.0000      -0.681969       -18.5573
  37   2.0000      -0.656093       -17.8532
  38   2.0000      -0.637416       -17.3450
  39   2.0000      -0.621795       -16.9199
  40   2.0000      -0.594568       -16.1790
  41   2.0000      -0.587785       -15.9944
  42   2.0000      -0.562860       -15.3162
  43   2.0000      -0.546684       -14.8760
  44   2.0000      -0.529289       -14.4027
  45   2.0000      -0.523705       -14.2507
  46   2.0000      -0.509176       -13.8554
  47   2.0000      -0.501427       -13.6445
  48   2.0000      -0.499752       -13.5989
  49   2.0000      -0.497606       -13.5406
  50   2.0000      -0.489036       -13.3074
  51   2.0000      -0.478314       -13.0156
  52   2.0000      -0.472748       -12.8641
  53   2.0000      -0.465947       -12.6791
  54   2.0000      -0.458278       -12.4704
  55   2.0000      -0.454780       -12.3752
  56   2.0000      -0.443666       -12.0728
  57   2.0000      -0.441006       -12.0004
  58   2.0000      -0.427954       -11.6452
  59   2.0000      -0.426845       -11.6150
  60   2.0000      -0.422348       -11.4927
  61   2.0000      -0.413441       -11.2503
  62   2.0000      -0.406684       -11.0664
  63   2.0000      -0.340184        -9.2569
  64   2.0000      -0.330717        -8.9993
  65   2.0000      -0.319870        -8.7041
  66   2.0000      -0.294479        -8.0132
  67   0.0000       0.035375         0.9626
  68   0.0000       0.059861         1.6289
  69   0.0000       0.108742         2.9590
  70   0.0000       0.124331         3.3832
  71   0.0000       0.134573         3.6619

MULLIKEN ATOMIC CHARGES
-----------------------
   0 S :    0.127570
   1 C :   -0.137932
   2 C :   -0.119039
   3 C :    0.040723
   4 C :   -0.180243
   5 H :    0.019569
   6 C :    0.142744
   7 H :    0.037357
   8 H :    0.029219
   9 C :   -0.146992
  10 H :    0.037939
  11 H :    0.022353
  12 C :   -0.053061
  13 H :    0.026918
  14 H :    0.035671
  15 H :    0.039525
  16 S :    0.132051
  17 C :   -0.103283
  18 C :   -0.042578
  19 C :    0.013074
  20 C :   -0.194525
  21 H :    0.012809
  22 C :    0.039278
  23 H :    0.019183
  24 H :    0.041569
  25 C :   -0.026034
  26 H :    0.032790
  27 H :    0.025795
  28 C :   -0.057083
  29 H :    0.019162
  30 H :    0.024864
  31 H :    0.033143
  32 H :    0.046221
  33 H :    0.061244
Sum of atomic charges:   -0.0000000

LOEWDIN ATOMIC CHARGES
----------------------
   0 S :    0.422288
   1 C :   -0.202963
   2 C :   -0.065339
   3 C :   -0.066677
   4 C :   -0.208706
   5 H :    0.036037
   6 C :   -0.026485
   7 H :    0.033435
   8 H :    0.036614
   9 C :   -0.060106
  10 H :    0.026134
  11 H :    0.024517
  12 C :   -0.067664
  13 H :    0.027770
  14 H :    0.024524
  15 H :    0.029051
  16 S :    0.412157
  17 C :   -0.192522
  18 C :   -0.070068
  19 C :   -0.052764
  20 C :   -0.210517
  21 H :    0.030313
  22 C :   -0.035950
  23 H :    0.029236
  24 H :    0.043594
  25 C :   -0.030693
  26 H :    0.030231
  27 H :    0.023897
  28 C :   -0.071650
  29 H :    0.020776
  30 H :    0.024125
  31 H :    0.027673
  32 H :    0.025496
  33 H :    0.034238

  Mayer bond orders larger than 0.100000
B(  0-S ,  1-C ) :   1.1599 B(  0-S ,  4-C ) :   1.1770 B(  1-C ,  2-C ) :   1.5621
B(  1-C ,  4-C ) :   0.1175 B(  1-C , 32-H ) :   0.9761 B(  2-C ,  3-C ) :   1.3137
B(  2-C ,  6-C ) :   1.0032 B(  3-C ,  4-C ) :   1.5231 B(  3-C ,  5-H ) :   0.9858
B(  4-C , 20-C ) :   1.0322 B(  6-C ,  7-H ) :   0.9258 B(  6-C ,  8-H ) :   0.9364
B(  6-C ,  9-C ) :   1.0876 B(  9-C , 10-H ) :   0.9455 B(  9-C , 11-H ) :   0.9447
B(  9-C , 12-C ) :   1.1028 B( 12-C , 13-H ) :   0.9674 B( 12-C , 14-H ) :   0.9718
B( 12-C , 15-H ) :   0.9702 B( 16-S , 17-C ) :   1.1440 B( 16-S , 20-C ) :   1.1560
B( 17-C , 18-C ) :   1.6362 B( 17-C , 20-C ) :   0.1022 B( 17-C , 33-H ) :   0.9588
B( 18-C , 19-C ) :   1.2177 B( 18-C , 21-H ) :   0.9901 B( 19-C , 20-C ) :   1.5808
B( 19-C , 22-C ) :   1.0611 B( 22-C , 23-H ) :   0.9271 B( 22-C , 24-H ) :   0.9343
B( 22-C , 25-C ) :   1.0538 B( 25-C , 26-H ) :   0.9603 B( 25-C , 27-H ) :   0.9530
B( 25-C , 28-C ) :   1.0669 B( 28-C , 29-H ) :   0.9769 B( 28-C , 30-H ) :   0.9753
B( 28-C , 31-H ) :   0.9774

Dispersion correction           -0.013728643
FINAL SINGLE POINT ENERGY     -1339.860021477048

DIPOLE MOMENT
-------------
                                X             Y             Z
Electronic contribution:     11.83107      -8.49497     -23.14081
Nuclear contribution   :    -12.19359       8.73246      23.52653
                        -----------------------------------------
Total Dipole Moment    :     -0.36252       0.23749       0.38573
                        -----------------------------------------
Magnitude (a.u.)       :      0.58018
Magnitude (Debye)      :      1.47470

Rotational constants in cm-1:     0.016568     0.008357     0.007086
Rotational constants in MHz :   496.698780   250.527978   212.436754

                             ****ORCA TERMINATED NORMALLY****
TOTAL RUN TIME: 0 days 0 hours 0 minutes 27 seconds 569 msec
