                         Program Version 4.2.1 -  RELEASE  -
|  1> ! wB97X-D3 SP def2-SVP
|  2> %pal
|  3> nprocs 16
|  4> end
|  5>
|  6> * xyz 0 1
|  7> S 	 -108.358 	 58.1567 	 119.713
|  8> C 	 -107.388 	 59.4788 	 119.035
|  9> C 	 -106.33 	 58.9002 	 118.322
| 10> C 	 -106.41 	 57.4552 	 118.181
| 11> C 	 -107.483 	 56.893 	 118.876
| 12> H 	 -105.545 	 56.8296 	 117.791
| 13> C 	 -105.215 	 59.6966 	 117.663
| 14> H 	 -104.301 	 59.4683 	 118.298
| 15> H 	 -105.391 	 60.7729 	 117.862
| 16> C 	 -104.811 	 59.3161 	 116.247
| 17> H 	 -103.872 	 59.7298 	 115.991
| 18> H 	 -104.606 	 58.2611 	 116.27
| 19> C 	 -105.937 	 59.7823 	 115.279
| 20> H 	 -105.567 	 59.541 	 114.214
| 21> H 	 -106.885 	 59.3375 	 115.432
| 22> H 	 -106.258 	 60.8021 	 115.373
| 23> S 	 -107.97 	 54.9978 	 120.819
| 24> C 	 -108.48 	 53.4269 	 120.437
| 25> C 	 -108.337 	 53.2058 	 119.035
| 26> C 	 -107.857 	 54.3663 	 118.316
| 27> C 	 -107.722 	 55.4769 	 119.134
| 28> H 	 -108.673 	 52.2488 	 118.728
| 29> C 	 -107.791 	 54.3609 	 116.81
| 30> H 	 -107.658 	 55.3845 	 116.483
| 31> H 	 -108.774 	 53.9852 	 116.491
| 32> C 	 -106.777 	 53.5003 	 116.076
| 33> H 	 -106.875 	 52.3994 	 116.417
| 34> H 	 -105.701 	 53.6131 	 116.389
| 35> C 	 -106.867 	 53.6862 	 114.494
| 36> H 	 -106.139 	 53.023 	 114.053
| 37> H 	 -106.634 	 54.7489 	 114.316
| 38> H 	 -107.861 	 53.5646 	 114.1
| 39> H 	 -107.376 	 60.5093 	 119.255
| 40> H 	 -108.773 	 52.6816 	 121.167
| 41> *
| 42>
| 43>                          ****END OF INPUT****

CARTESIAN COORDINATES (ANGSTROEM)
---------------------------------
  S    -108.358000   58.156700  119.713000
  C    -107.388000   59.478800  119.035000
  C    -106.330000   58.900200  118.322000
  C    -106.410000   57.455200  118.181000
  C    -107.483000   56.893000  118.876000
  H    -105.545000   56.829600  117.791000
  C    -105.215000   59.696600  117.663000
  H    -104.301000   59.468300  118.298000
  H    -105.391000   60.772900  117.862000
  C    -104.811000   59.316100  116.247000
  H    -103.872000   59.729800  115.991000
  H    -104.606000   58.261100  116.270000
  C    -105.937000   59.782300  115.279000
  H    -105.567000   59.541000  114.214000
  H    -106.885000   59.337500  115.432000
  H    -106.258000   60.802100  115.373000
  S    -107.970000   54.997800  120.819000
  C    -108.480000   53.426900  120.437000
  C    -108.337000   53.205800  119.035000
  C    -107.857000   54.366300  118.316000
  C    -107.722000   55.476900  119.134000
  H    -108.673000   52.248800  118.728000
  C    -107.791000   54.360900  116.810000
  H    -107.658000   55.384500  116.483000
  H    -108.774000   53.985200  116.491000
  C    -106.777000   53.500300  116.076000
  H    -106.875000   52.399400  116.417000
  H    -105.701000   53.613100  116.389000
  C    -106.867000   53.686200  114.494000
  H    -106.139000   53.023000  114.053000
  H    -106.634000   54.748900  114.316000
  H    -107.861000   53.564600  114.100000
  H    -107.376000   60.509300  119.255000
  H    -108.773000   52.681600  121.167000

 Total Charge           Charge          ....    0
 Multiplicity           Mult            ....    1
 Number of Electrons    NEL             ....  134
 Basis Dimension        Dim             ....  322

ORBITAL ENERGIES
----------------

  NO   OCC          E(Eh)            E(eV)
   0   2.0000     -88.968886     -2420.9665
   1   2.0000     -88.964891     -2420.8578
   2   2.0000     -10.337030      -281.2849
   3   2.0000     -10.330474      -281.1065
   4   2.0000     -10.319151      -280.7984
   5   2.0000     -10.315897      -280.7098
   6   2.0000     -10.309813      -280.5443
   7   2.0000     -10.306622      -280.4574
   8   2.0000     -10.303115      -280.3620
   9   2.0000     -10.298674      -280.2412
  10   2.0000     -10.296889      -280.1926
  11   2.0000     -10.296261      -280.1755
  12   2.0000     -10.290687      -280.0238
  13   2.0000     -10.287064      -279.9252
  14   2.0000     -10.283404      -279.8257
  15   2.0000     -10.277910      -279.6761
  16   2.0000      -8.082789      -219.9439
  17   2.0000      -8.080302      -219.8762
  18   2.0000      -6.041552      -164.3990
  19   2.0000      -6.038709      -164.3216
  20   2.0000      -6.037270      -164.2825
  21   2.0000      -6.034502      -164.2072
  22   2.0000      -6.033436      -164.1781
  23   2.0000      -6.031331      -164.1209
  24   2.0000      -1.005817       -27.3697
  25   2.0000      -0.981832       -26.7170
  26   2.0000      -0.912619       -24.8336
  27   2.0000      -0.907232       -24.6870
  28   2.0000      -0.868888       -23.6436
  29   2.0000      -0.849132       -23.1060
  30   2.0000      -0.837499       -22.7895
  31   2.0000      -0.812183       -22.1006
  32   2.0000      -0.781525       -21.2664
  33   2.0000      -0.774240       -21.0681
  34   2.0000      -0.715530       -19.4705
  35   2.0000      -0.700833       -19.0706
  36   2.0000      -0.696382       -18.9495
  37   2.0000      -0.660289       -17.9674
  38   2.0000      -0.634849       -17.2751
  39   2.0000      -0.619871       -16.8676
  40   2.0000      -0.596311       -16.2264
  41   2.0000      -0.569647       -15.5009
  42   2.0000      -0.556376       -15.1398
  43   2.0000      -0.546900       -14.8819
  44   2.0000      -0.535603       -14.5745
  45   2.0000      -0.528834       -14.3903
  46   2.0000      -0.519249       -14.1295
  47   2.0000      -0.513522       -13.9736
  48   2.0000      -0.509156       -13.8548
  49   2.0000      -0.502071       -13.6620
  50   2.0000      -0.490837       -13.3563
  51   2.0000      -0.481173       -13.0934
  52   2.0000      -0.470763       -12.8101
  53   2.0000      -0.466612       -12.6972
  54   2.0000      -0.457004       -12.4357
  55   2.0000      -0.450541       -12.2598
  56   2.0000      -0.448339       -12.1999
  57   2.0000      -0.437357       -11.9011
  58   2.0000      -0.432031       -11.7562
  59   2.0000      -0.420099       -11.4315
  60   2.0000      -0.418524       -11.3886
  61   2.0000      -0.410073       -11.1587
  62   2.0000      -0.407194       -11.0803
  63   2.0000      -0.349654        -9.5146
  64   2.0000      -0.330040        -8.9808
  65   2.0000      -0.323248        -8.7960
  66   2.0000      -0.293087        -7.9753
  67   0.0000       0.024871         0.6768
  68   0.0000       0.070191         1.9100
  69   0.0000       0.111756         3.0410
  70   0.0000       0.117691         3.2025
  71   0.0000       0.126027         3.4294

MULLIKEN ATOMIC CHARGES
-----------------------
   0 S :    0.107781
   1 C :   -0.090780
   2 C :   -0.119013
   3 C :    0.002852
   4 C :   -0.139944
   5 H :    0.051648
   6 C :   -0.002496
   7 H :    0.042904
   8 H :    0.020213
   9 C :    0.002249
  10 H :    0.018068
  11 H :    0.016801
  12 C :   -0.055506
  13 H :    0.044311
  14 H :    0.028569
  15 H :    0.023143
  16 S :    0.112565
  17 C :   -0.110627
  18 C :   -0.042926
  19 C :    0.009150
  20 C :   -0.161292
  21 H :    0.009370
  22 C :    0.075333
  23 H :    0.017073
  24 H :    0.033434
  25 C :   -0.132888
  26 H :    0.029043
  27 H :    0.029629
  28 C :   -0.029914
  29 H :    0.044021
  30 H :    0.032657
  31 H :    0.030872
  32 H :    0.036181
  33 H :    0.067519
Sum of atomic charges:   -0.0000000

LOEWDIN ATOMIC CHARGES
----------------------
   0 S :    0.404615
   1 C :   -0.197930
   2 C :   -0.058738
   3 C :   -0.078478
   4 C :   -0.192258
   5 H :    0.043798
   6 C :   -0.042155
   7 H :    0.040056
   8 H :    0.027423
   9 C :   -0.033669
  10 H :    0.021540
  11 H :    0.022579
  12 C :   -0.068471
  13 H :    0.034168
  14 H :    0.022503
  15 H :    0.024376
  16 S :    0.423533
  17 C :   -0.201794
  18 C :   -0.071446
  19 C :   -0.050549
  20 C :   -0.197335
  21 H :    0.024425
  22 C :   -0.035786
  23 H :    0.026829
  24 H :    0.038225
  25 C :   -0.051834
  26 H :    0.024836
  27 H :    0.024270
  28 C :   -0.058765
  29 H :    0.027711
  30 H :    0.028810
  31 H :    0.022157
  32 H :    0.024741
  33 H :    0.032612

  Mayer bond orders larger than 0.100000
B(  0-S ,  1-C ) :   1.1162 B(  0-S ,  4-C ) :   1.1592 B(  1-C ,  2-C ) :   1.6095
B(  1-C , 32-H ) :   0.9715 B(  2-C ,  3-C ) :   1.2425 B(  2-C ,  6-C ) :   1.0279
B(  3-C ,  4-C ) :   1.5547 B(  3-C ,  5-H ) :   0.9745 B(  4-C , 20-C ) :   1.0532
B(  6-C ,  7-H ) :   0.9301 B(  6-C ,  8-H ) :   0.9480 B(  6-C ,  9-C ) :   1.0820
B(  9-C , 10-H ) :   0.9512 B(  9-C , 11-H ) :   0.9455 B(  9-C , 12-C ) :   1.0609
B( 12-C , 13-H ) :   0.9769 B( 12-C , 14-H ) :   0.9756 B( 12-C , 15-H ) :   0.9747
B( 16-S , 17-C ) :   1.1833 B( 16-S , 20-C ) :   1.1437 B( 17-C , 18-C ) :   1.5772
B( 17-C , 33-H ) :   0.9691 B( 18-C , 19-C ) :   1.2280 B( 18-C , 21-H ) :   1.0023
B( 19-C , 20-C ) :   1.5743 B( 19-C , 22-C ) :   1.0501 B( 22-C , 23-H ) :   0.9336
B( 22-C , 24-H ) :   0.9330 B( 22-C , 25-C ) :   1.0568 B( 25-C , 26-H ) :   0.9545
B( 25-C , 27-H ) :   0.9557 B( 25-C , 28-C ) :   1.0651 B( 28-C , 29-H ) :   0.9759
B( 28-C , 30-H ) :   0.9755 B( 28-C , 31-H ) :   0.9781

Dispersion correction           -0.013937384
FINAL SINGLE POINT ENERGY     -1339.868213796432

DIPOLE MOMENT
-------------
                                X             Y             Z
Electronic contribution:    -12.15379      -0.87519      28.27468
Nuclear contribution   :     12.53351       0.75028     -28.67322
                        -----------------------------------------
Total Dipole Moment    :      0.37972      -0.12491      -0.39854
                        -----------------------------------------
Magnitude (a.u.)       :      0.56447
Magnitude (Debye)      :      1.43476

Rotational constants in cm-1:     0.016174     0.009877     0.006588
Rotational constants in MHz :   484.876639   296.119723   197.517609

                             ****ORCA TERMINATED NORMALLY****
TOTAL RUN TIME: 0 days 0 hours 0 minutes 33 seconds 943 msec
