                         Program Version 4.2.1 -  RELEASE  -
|  1> ! wB97X-D3 SP def2-SVP
|  2> %pal
|  3> nprocs 16
|  4> end
|  5>
|  6> * xyz 0 1
|  7> S 	 66.2914 	 -5.15599 	 87.2291
|  8> C 	 64.95 	 -4.79485 	 88.3501
|  9> C 	 65.4926 	 -4.14606 	 89.4742
| 10> C 	 66.9246 	 -3.88849 	 89.3814
| 11> C 	 67.5384 	 -4.46681 	 88.3118
| 12> H 	 67.5362 	 -3.37387 	 90.1609
| 13> C 	 64.7352 	 -3.7219 	 90.6954
| 14> H 	 64.7738 	 -4.57096 	 91.3993
| 15> H 	 63.6136 	 -3.64494 	 90.3624
| 16> C 	 64.9612 	 -2.34355 	 91.3807
| 17> H 	 65.9224 	 -2.20713 	 91.8291
| 18> H 	 64.7752 	 -1.61833 	 90.6403
| 19> C 	 63.9078 	 -2.1102 	 92.4299
| 20> H 	 64.0159 	 -1.22061 	 93.0971
| 21> H 	 62.8849 	 -2.07346 	 91.9741
| 22> H 	 63.9001 	 -2.93311 	 93.19
| 23> S 	 69.7025 	 -6.02813 	 88.589
| 24> C 	 71.3212 	 -5.3243 	 88.3785
| 25> C 	 71.2541 	 -4.00292 	 87.9911
| 26> C 	 69.9481 	 -3.5066 	 87.8032
| 27> C 	 68.9954 	 -4.51336 	 88.0405
| 28> H 	 72.1567 	 -3.43271 	 87.9374
| 29> C 	 69.5393 	 -2.05826 	 87.5202
| 30> H 	 68.5119 	 -2.09968 	 87.4509
| 31> H 	 69.9073 	 -1.74214 	 86.575
| 32> C 	 70.0244 	 -1.02813 	 88.5235
| 33> H 	 71.0954 	 -1.02839 	 88.6597
| 34> H 	 69.6744 	 -1.27624 	 89.5388
| 35> C 	 69.3737 	 0.333712 	 88.2552
| 36> H 	 68.3069 	 0.395465 	 88.4893
| 37> H 	 69.5795 	 0.726932 	 87.2482
| 38> H 	 69.952 	 1.09893 	 88.9469
| 39> H 	 63.9328 	 -5.03134 	 88.189
| 40> H 	 72.2898 	 -5.76037 	 88.6394
| 41> *
| 42>
| 43>                          ****END OF INPUT****

CARTESIAN COORDINATES (ANGSTROEM)
---------------------------------
  S     66.291400   -5.155990   87.229100
  C     64.950000   -4.794850   88.350100
  C     65.492600   -4.146060   89.474200
  C     66.924600   -3.888490   89.381400
  C     67.538400   -4.466810   88.311800
  H     67.536200   -3.373870   90.160900
  C     64.735200   -3.721900   90.695400
  H     64.773800   -4.570960   91.399300
  H     63.613600   -3.644940   90.362400
  C     64.961200   -2.343550   91.380700
  H     65.922400   -2.207130   91.829100
  H     64.775200   -1.618330   90.640300
  C     63.907800   -2.110200   92.429900
  H     64.015900   -1.220610   93.097100
  H     62.884900   -2.073460   91.974100
  H     63.900100   -2.933110   93.190000
  S     69.702500   -6.028130   88.589000
  C     71.321200   -5.324300   88.378500
  C     71.254100   -4.002920   87.991100
  C     69.948100   -3.506600   87.803200
  C     68.995400   -4.513360   88.040500
  H     72.156700   -3.432710   87.937400
  C     69.539300   -2.058260   87.520200
  H     68.511900   -2.099680   87.450900
  H     69.907300   -1.742140   86.575000
  C     70.024400   -1.028130   88.523500
  H     71.095400   -1.028390   88.659700
  H     69.674400   -1.276240   89.538800
  C     69.373700    0.333712   88.255200
  H     68.306900    0.395465   88.489300
  H     69.579500    0.726932   87.248200
  H     69.952000    1.098930   88.946900
  H     63.932800   -5.031340   88.189000
  H     72.289800   -5.760370   88.639400

 Total Charge           Charge          ....    0
 Multiplicity           Mult            ....    1
 Number of Electrons    NEL             ....  134
 Basis Dimension        Dim             ....  322

ORBITAL ENERGIES
----------------

  NO   OCC          E(Eh)            E(eV)
   0   2.0000     -88.968087     -2420.9447
   1   2.0000     -88.962704     -2420.7982
   2   2.0000     -10.332376      -281.1583
   3   2.0000     -10.328988      -281.0661
   4   2.0000     -10.320282      -280.8291
   5   2.0000     -10.319260      -280.8013
   6   2.0000     -10.307063      -280.4694
   7   2.0000     -10.306733      -280.4605
   8   2.0000     -10.301610      -280.3211
   9   2.0000     -10.297449      -280.2078
  10   2.0000     -10.291852      -280.0555
  11   2.0000     -10.289910      -280.0027
  12   2.0000     -10.287912      -279.9483
  13   2.0000     -10.286162      -279.9007
  14   2.0000     -10.286029      -279.8971
  15   2.0000     -10.282793      -279.8090
  16   2.0000      -8.082100      -219.9251
  17   2.0000      -8.076307      -219.7675
  18   2.0000      -6.040658      -164.3747
  19   2.0000      -6.036683      -164.2665
  20   2.0000      -6.035092      -164.2232
  21   2.0000      -6.032862      -164.1625
  22   2.0000      -6.030854      -164.1079
  23   2.0000      -6.026941      -164.0014
  24   2.0000      -1.000335       -27.2205
  25   2.0000      -0.976798       -26.5800
  26   2.0000      -0.912783       -24.8381
  27   2.0000      -0.911394       -24.8003
  28   2.0000      -0.869920       -23.6717
  29   2.0000      -0.849622       -23.1194
  30   2.0000      -0.843724       -22.9589
  31   2.0000      -0.816388       -22.2150
  32   2.0000      -0.777402       -21.1542
  33   2.0000      -0.763917       -20.7872
  34   2.0000      -0.707708       -19.2577
  35   2.0000      -0.702851       -19.1255
  36   2.0000      -0.695627       -18.9290
  37   2.0000      -0.658435       -17.9169
  38   2.0000      -0.641116       -17.4457
  39   2.0000      -0.615859       -16.7584
  40   2.0000      -0.595263       -16.1979
  41   2.0000      -0.576931       -15.6991
  42   2.0000      -0.572001       -15.5649
  43   2.0000      -0.562483       -15.3059
  44   2.0000      -0.526813       -14.3353
  45   2.0000      -0.522544       -14.2191
  46   2.0000      -0.512014       -13.9326
  47   2.0000      -0.510824       -13.9002
  48   2.0000      -0.504877       -13.7384
  49   2.0000      -0.497767       -13.5449
  50   2.0000      -0.487576       -13.2676
  51   2.0000      -0.482648       -13.1335
  52   2.0000      -0.469766       -12.7830
  53   2.0000      -0.463015       -12.5993
  54   2.0000      -0.454871       -12.3777
  55   2.0000      -0.448325       -12.1995
  56   2.0000      -0.447508       -12.1773
  57   2.0000      -0.440837       -11.9958
  58   2.0000      -0.429007       -11.6739
  59   2.0000      -0.422442       -11.4952
  60   2.0000      -0.420155       -11.4330
  61   2.0000      -0.415743       -11.3129
  62   2.0000      -0.414465       -11.2782
  63   2.0000      -0.342096        -9.3089
  64   2.0000      -0.327698        -8.9171
  65   2.0000      -0.320538        -8.7223
  66   2.0000      -0.306171        -8.3313
  67   0.0000       0.039987         1.0881
  68   0.0000       0.052150         1.4191
  69   0.0000       0.114872         3.1258
  70   0.0000       0.118951         3.2368
  71   0.0000       0.128884         3.5071

MULLIKEN ATOMIC CHARGES
-----------------------
   0 S :    0.091008
   1 C :   -0.100609
   2 C :   -0.071819
   3 C :    0.037874
   4 C :   -0.171591
   5 H :    0.032973
   6 C :   -0.030896
   7 H :    0.052416
   8 H :    0.028665
   9 C :   -0.005475
  10 H :    0.031648
  11 H :    0.025236
  12 C :   -0.094724
  13 H :    0.040206
  14 H :    0.035981
  15 H :    0.026644
  16 S :    0.115380
  17 C :   -0.089698
  18 C :   -0.043915
  19 C :   -0.019221
  20 C :   -0.181736
  21 H :    0.010574
  22 C :    0.162934
  23 H :    0.002462
  24 H :    0.014512
  25 C :   -0.085124
  26 H :    0.028892
  27 H :    0.020192
  28 C :   -0.085223
  29 H :    0.052002
  30 H :    0.033437
  31 H :    0.039467
  32 H :    0.038934
  33 H :    0.058594
Sum of atomic charges:   -0.0000000

LOEWDIN ATOMIC CHARGES
----------------------
   0 S :    0.371384
   1 C :   -0.181876
   2 C :   -0.064945
   3 C :   -0.067899
   4 C :   -0.193365
   5 H :    0.039494
   6 C :   -0.042450
   7 H :    0.035399
   8 H :    0.039360
   9 C :   -0.037678
  10 H :    0.020468
  11 H :    0.023731
  12 C :   -0.073246
  13 H :    0.029924
  14 H :    0.027490
  15 H :    0.025034
  16 S :    0.405555
  17 C :   -0.178422
  18 C :   -0.072539
  19 C :   -0.044384
  20 C :   -0.199620
  21 H :    0.028472
  22 C :   -0.017876
  23 H :    0.021760
  24 H :    0.028157
  25 C :   -0.042981
  26 H :    0.021563
  27 H :    0.025037
  28 C :   -0.070491
  29 H :    0.028609
  30 H :    0.021763
  31 H :    0.037664
  32 H :    0.023299
  33 H :    0.033609

  Mayer bond orders larger than 0.100000
B(  0-S ,  1-C ) :   1.1210 B(  0-S ,  4-C ) :   1.1336 B(  1-C ,  2-C ) :   1.6150
B(  1-C , 32-H ) :   0.9794 B(  2-C ,  3-C ) :   1.2119 B(  2-C ,  6-C ) :   1.0240
B(  3-C ,  4-C ) :   1.6138 B(  3-C ,  5-H ) :   0.9852 B(  4-C , 20-C ) :   0.9885
B(  6-C ,  7-H ) :   0.9359 B(  6-C ,  8-H ) :   0.9495 B(  6-C ,  9-C ) :   1.0563
B(  9-C , 10-H ) :   0.9484 B(  9-C , 11-H ) :   0.9554 B(  9-C , 12-C ) :   1.0890
B( 12-C , 13-H ) :   0.9730 B( 12-C , 14-H ) :   0.9737 B( 12-C , 15-H ) :   0.9737
B( 16-S , 17-C ) :   1.1493 B( 16-S , 20-C ) :   1.1581 B( 17-C , 18-C ) :   1.6204
B( 17-C , 20-C ) :   0.1014 B( 17-C , 33-H ) :   0.9637 B( 18-C , 19-C ) :   1.2402
B( 18-C , 21-H ) :   0.9926 B( 19-C , 20-C ) :   1.5937 B( 19-C , 22-C ) :   1.0387
B( 22-C , 23-H ) :   0.9276 B( 22-C , 24-H ) :   0.9236 B( 22-C , 25-C ) :   1.0643
B( 25-C , 26-H ) :   0.9568 B( 25-C , 27-H ) :   0.9510 B( 25-C , 28-C ) :   1.0812
B( 28-C , 29-H ) :   0.9760 B( 28-C , 30-H ) :   0.9747 B( 28-C , 31-H ) :   0.9734

Dispersion correction           -0.013920321
FINAL SINGLE POINT ENERGY     -1339.870718318671

DIPOLE MOMENT
-------------
                                X             Y             Z
Electronic contribution:      7.34901     -25.93121     -14.52014
Nuclear contribution   :     -7.26144      26.56994      15.06237
                        -----------------------------------------
Total Dipole Moment    :      0.08757       0.63873       0.54224
                        -----------------------------------------
Magnitude (a.u.)       :      0.84242
Magnitude (Debye)      :      2.14126

Rotational constants in cm-1:     0.015892     0.008868     0.006883
Rotational constants in MHz :   476.417982   265.855655   206.346756

                             ****ORCA TERMINATED NORMALLY****
TOTAL RUN TIME: 0 days 0 hours 0 minutes 29 seconds 715 msec
