                         Program Version 4.2.1 -  RELEASE  -
|  1> ! wB97X-D3 SP def2-SVP
|  2> %pal
|  3> nprocs 16
|  4> end
|  5>
|  6> * xyz 0 1
|  7> S 	 -12.3158 	 60.7402 	 60.172
|  8> C 	 -11.0933 	 59.5515 	 59.795
|  9> C 	 -9.9598 	 60.1578 	 59.2345
| 10> C 	 -10.1489 	 61.5561 	 58.9836
| 11> C 	 -11.4388 	 62.0235 	 59.2748
| 12> H 	 -9.33419 	 62.3192 	 58.7254
| 13> C 	 -8.61575 	 59.4561 	 58.9289
| 14> H 	 -8.32686 	 59.8893 	 58.0298
| 15> H 	 -8.86965 	 58.3363 	 58.7955
| 16> C 	 -7.64025 	 59.516 	 59.9966
| 17> H 	 -6.74731 	 58.8124 	 59.9418
| 18> H 	 -7.17738 	 60.5381 	 59.915
| 19> C 	 -8.25266 	 59.297 	 61.3896
| 20> H 	 -7.4288 	 59.0086 	 62.0833
| 21> H 	 -8.84942 	 60.0991 	 61.8288
| 22> H 	 -9.01526 	 58.5165 	 61.3058
| 23> S 	 -12.3995 	 64.4259 	 60.3701
| 24> C 	 -12.8764 	 65.7308 	 59.3241
| 25> C 	 -12.7033 	 65.3843 	 58.0381
| 26> C 	 -12.1841 	 64.0358 	 57.8691
| 27> C 	 -11.9672 	 63.3775 	 59.0502
| 28> H 	 -12.8584 	 66.093 	 57.2129
| 29> C 	 -12.0539 	 63.5648 	 56.4425
| 30> H 	 -13.1215 	 63.5093 	 56.1299
| 31> H 	 -11.7023 	 62.5149 	 56.4943
| 32> C 	 -11.3023 	 64.3873 	 55.4483
| 33> H 	 -11.9078 	 65.3172 	 55.2587
| 34> H 	 -11.3106 	 63.7867 	 54.4947
| 35> C 	 -9.82618 	 64.547 	 55.9276
| 36> H 	 -9.81827 	 64.6831 	 57.0099
| 37> H 	 -9.35032 	 65.3861 	 55.3773
| 38> H 	 -9.16765 	 63.723 	 55.6754
| 39> H 	 -11.1435 	 58.5269 	 59.984
| 40> H 	 -13.3116 	 66.7803 	 59.5813
| 41> *
| 42>
| 43>                          ****END OF INPUT****

CARTESIAN COORDINATES (ANGSTROEM)
---------------------------------
  S    -12.315800   60.740200   60.172000
  C    -11.093300   59.551500   59.795000
  C     -9.959800   60.157800   59.234500
  C    -10.148900   61.556100   58.983600
  C    -11.438800   62.023500   59.274800
  H     -9.334190   62.319200   58.725400
  C     -8.615750   59.456100   58.928900
  H     -8.326860   59.889300   58.029800
  H     -8.869650   58.336300   58.795500
  C     -7.640250   59.516000   59.996600
  H     -6.747310   58.812400   59.941800
  H     -7.177380   60.538100   59.915000
  C     -8.252660   59.297000   61.389600
  H     -7.428800   59.008600   62.083300
  H     -8.849420   60.099100   61.828800
  H     -9.015260   58.516500   61.305800
  S    -12.399500   64.425900   60.370100
  C    -12.876400   65.730800   59.324100
  C    -12.703300   65.384300   58.038100
  C    -12.184100   64.035800   57.869100
  C    -11.967200   63.377500   59.050200
  H    -12.858400   66.093000   57.212900
  C    -12.053900   63.564800   56.442500
  H    -13.121500   63.509300   56.129900
  H    -11.702300   62.514900   56.494300
  C    -11.302300   64.387300   55.448300
  H    -11.907800   65.317200   55.258700
  H    -11.310600   63.786700   54.494700
  C     -9.826180   64.547000   55.927600
  H     -9.818270   64.683100   57.009900
  H     -9.350320   65.386100   55.377300
  H     -9.167650   63.723000   55.675400
  H    -11.143500   58.526900   59.984000
  H    -13.311600   66.780300   59.581300

 Total Charge           Charge          ....    0
 Multiplicity           Mult            ....    1
 Number of Electrons    NEL             ....  134
 Basis Dimension        Dim             ....  322

ORBITAL ENERGIES
----------------

  NO   OCC          E(Eh)            E(eV)
   0   2.0000     -88.969414     -2420.9808
   1   2.0000     -88.963303     -2420.8145
   2   2.0000     -10.337944      -281.3098
   3   2.0000     -10.326967      -281.0111
   4   2.0000     -10.322321      -280.8846
   5   2.0000     -10.316397      -280.7234
   6   2.0000     -10.305938      -280.4388
   7   2.0000     -10.305671      -280.4316
   8   2.0000     -10.301503      -280.3182
   9   2.0000     -10.295219      -280.1472
  10   2.0000     -10.291777      -280.0535
  11   2.0000     -10.290294      -280.0131
  12   2.0000     -10.289628      -279.9950
  13   2.0000     -10.287035      -279.9245
  14   2.0000     -10.279854      -279.7290
  15   2.0000     -10.276768      -279.6451
  16   2.0000      -8.083322      -219.9584
  17   2.0000      -8.078608      -219.8301
  18   2.0000      -6.041899      -164.4084
  19   2.0000      -6.037961      -164.3013
  20   2.0000      -6.037370      -164.2852
  21   2.0000      -6.034031      -164.1943
  22   2.0000      -6.033001      -164.1663
  23   2.0000      -6.029069      -164.0593
  24   2.0000      -1.006724       -27.3944
  25   2.0000      -0.984517       -26.7901
  26   2.0000      -0.920454       -25.0468
  27   2.0000      -0.912653       -24.8346
  28   2.0000      -0.870237       -23.6803
  29   2.0000      -0.843797       -22.9609
  30   2.0000      -0.840169       -22.8622
  31   2.0000      -0.813690       -22.1416
  32   2.0000      -0.784276       -21.3412
  33   2.0000      -0.776001       -21.1161
  34   2.0000      -0.709941       -19.3185
  35   2.0000      -0.691840       -18.8259
  36   2.0000      -0.690694       -18.7947
  37   2.0000      -0.654196       -17.8016
  38   2.0000      -0.638397       -17.3717
  39   2.0000      -0.614992       -16.7348
  40   2.0000      -0.589028       -16.0283
  41   2.0000      -0.568158       -15.4604
  42   2.0000      -0.563159       -15.3243
  43   2.0000      -0.556713       -15.1489
  44   2.0000      -0.551969       -15.0198
  45   2.0000      -0.537734       -14.6325
  46   2.0000      -0.511564       -13.9204
  47   2.0000      -0.509637       -13.8679
  48   2.0000      -0.503045       -13.6885
  49   2.0000      -0.496439       -13.5088
  50   2.0000      -0.488286       -13.2869
  51   2.0000      -0.479848       -13.0573
  52   2.0000      -0.464007       -12.6263
  53   2.0000      -0.458941       -12.4884
  54   2.0000      -0.456848       -12.4315
  55   2.0000      -0.450799       -12.2669
  56   2.0000      -0.447718       -12.1830
  57   2.0000      -0.441293       -12.0082
  58   2.0000      -0.430917       -11.7258
  59   2.0000      -0.424883       -11.5617
  60   2.0000      -0.416666       -11.3381
  61   2.0000      -0.405441       -11.0326
  62   2.0000      -0.400728       -10.9044
  63   2.0000      -0.345654        -9.4057
  64   2.0000      -0.331336        -9.0161
  65   2.0000      -0.325718        -8.8632
  66   2.0000      -0.300294        -8.1714
  67   0.0000       0.031988         0.8704
  68   0.0000       0.062707         1.7063
  69   0.0000       0.112770         3.0686
  70   0.0000       0.123386         3.3575
  71   0.0000       0.124471         3.3870

MULLIKEN ATOMIC CHARGES
-----------------------
   0 S :    0.113864
   1 C :   -0.094733
   2 C :   -0.136958
   3 C :    0.015329
   4 C :   -0.179243
   5 H :    0.053828
   6 C :    0.104931
   7 H :    0.013826
   8 H :    0.031015
   9 C :   -0.092489
  10 H :    0.044962
  11 H :    0.026204
  12 C :   -0.048134
  13 H :    0.041868
  14 H :    0.046106
  15 H :    0.008498
  16 S :    0.102999
  17 C :   -0.110831
  18 C :   -0.045946
  19 C :   -0.059010
  20 C :   -0.156948
  21 H :    0.025916
  22 C :    0.041335
  23 H :    0.042592
  24 H :    0.026752
  25 C :   -0.076113
  26 H :    0.038870
  27 H :    0.042837
  28 C :   -0.058352
  29 H :    0.049496
  30 H :    0.035715
  31 H :    0.030435
  32 H :    0.032472
  33 H :    0.088906
Sum of atomic charges:    0.0000000

LOEWDIN ATOMIC CHARGES
----------------------
   0 S :    0.395996
   1 C :   -0.186407
   2 C :   -0.061301
   3 C :   -0.068662
   4 C :   -0.183276
   5 H :    0.048043
   6 C :   -0.030472
   7 H :    0.020841
   8 H :    0.038004
   9 C :   -0.055091
  10 H :    0.033752
  11 H :    0.025570
  12 C :   -0.069331
  13 H :    0.030147
  14 H :    0.029222
  15 H :    0.019533
  16 S :    0.404395
  17 C :   -0.199233
  18 C :   -0.083174
  19 C :   -0.056458
  20 C :   -0.215106
  21 H :    0.033459
  22 C :   -0.044221
  23 H :    0.040176
  24 H :    0.030614
  25 C :   -0.046738
  26 H :    0.026355
  27 H :    0.035628
  28 C :   -0.068887
  29 H :    0.026002
  30 H :    0.029985
  31 H :    0.026298
  32 H :    0.016613
  33 H :    0.057725

  Mayer bond orders larger than 0.100000
B(  0-S ,  1-C ) :   1.1481 B(  0-S ,  4-C ) :   1.1437 B(  1-C ,  2-C ) :   1.5954
B(  1-C ,  4-C ) :   0.1061 B(  1-C , 32-H ) :   0.9714 B(  2-C ,  3-C ) :   1.2495
B(  2-C ,  6-C ) :   1.0132 B(  3-C ,  4-C ) :   1.5778 B(  3-C ,  5-H ) :   0.9760
B(  4-C , 20-C ) :   1.0299 B(  6-C ,  7-H ) :   0.9418 B(  6-C ,  8-H ) :   0.9335
B(  6-C ,  9-C ) :   1.0860 B(  9-C , 10-H ) :   0.9592 B(  9-C , 11-H ) :   0.9470
B(  9-C , 12-C ) :   1.0756 B( 12-C , 13-H ) :   0.9740 B( 12-C , 14-H ) :   0.9648
B( 12-C , 15-H ) :   0.9729 B( 16-S , 17-C ) :   1.1424 B( 16-S , 20-C ) :   1.1202
B( 17-C , 18-C ) :   1.6528 B( 17-C , 33-H ) :   0.9497 B( 18-C , 19-C ) :   1.2098
B( 18-C , 21-H ) :   0.9850 B( 19-C , 20-C ) :   1.6290 B( 19-C , 22-C ) :   1.0387
B( 22-C , 23-H ) :   0.9334 B( 22-C , 24-H ) :   0.9300 B( 22-C , 25-C ) :   1.0828
B( 25-C , 26-H ) :   0.9519 B( 25-C , 27-H ) :   0.9510 B( 25-C , 28-C ) :   1.0589
B( 28-C , 29-H ) :   0.9779 B( 28-C , 30-H ) :   0.9743 B( 28-C , 31-H ) :   0.9738

Dispersion correction           -0.015263674
FINAL SINGLE POINT ENERGY     -1339.865349507108

DIPOLE MOMENT
-------------
                                X             Y             Z
Electronic contribution:    -18.52855       4.70012      12.29520
Nuclear contribution   :     18.90544      -4.64602     -12.78980
                        -----------------------------------------
Total Dipole Moment    :      0.37689       0.05410      -0.49461
                        -----------------------------------------
Magnitude (a.u.)       :      0.62418
Magnitude (Debye)      :      1.58655

Rotational constants in cm-1:     0.020776     0.008501     0.007045
Rotational constants in MHz :   622.853559   254.841377   211.215171

                             ****ORCA TERMINATED NORMALLY****
TOTAL RUN TIME: 0 days 0 hours 0 minutes 34 seconds 664 msec
