                         Program Version 4.2.1 -  RELEASE  -
|  1> ! wB97X-D3 SP def2-SVP
|  2> %pal
|  3> nprocs 16
|  4> end
|  5>
|  6> * xyz 0 1
|  7> S 	 -2.0369 	 11.7144 	 87.0829
|  8> C 	 -3.38262 	 11.7393 	 86.0715
|  9> C 	 -3.03573 	 11.4524 	 84.7339
| 10> C 	 -1.62345 	 11.5615 	 84.4739
| 11> C 	 -0.931467 	 11.7266 	 85.6525
| 12> H 	 -1.20169 	 11.4692 	 83.5256
| 13> C 	 -4.04576 	 11.2702 	 83.6113
| 14> H 	 -3.53738 	 11.2053 	 82.6712
| 15> H 	 -4.75052 	 12.1571 	 83.5419
| 16> C 	 -4.92176 	 10.0413 	 83.9341
| 17> H 	 -4.27914 	 9.11189 	 84.0931
| 18> H 	 -5.40906 	 10.1954 	 84.877
| 19> C 	 -6.15571 	 9.69523 	 82.9573
| 20> H 	 -6.89438 	 10.4865 	 83.1261
| 21> H 	 -5.86393 	 9.61351 	 81.9386
| 22> H 	 -6.58872 	 8.69618 	 83.3555
| 23> S 	 1.09474 	 10.4717 	 86.9231
| 24> C 	 2.79771 	 10.6552 	 86.436
| 25> C 	 2.8518 	 11.6699 	 85.5041
| 26> C 	 1.56769 	 12.2672 	 85.1541
| 27> C 	 0.503451 	 11.6308 	 85.7855
| 28> H 	 3.81983 	 11.8038 	 84.9763
| 29> C 	 1.44766 	 13.408 	 84.1554
| 30> H 	 0.705758 	 14.1763 	 84.4682
| 31> H 	 1.13252 	 12.9046 	 83.2492
| 32> C 	 2.83843 	 14.1005 	 83.818
| 33> H 	 3.56923 	 13.3808 	 83.3271
| 34> H 	 3.34814 	 14.2873 	 84.7553
| 35> C 	 2.74163 	 15.3763 	 82.8671
| 36> H 	 2.67092 	 16.2082 	 83.5075
| 37> H 	 1.96664 	 15.3061 	 82.0771
| 38> H 	 3.75458 	 15.5166 	 82.4962
| 39> H 	 -4.38736 	 11.5927 	 86.4931
| 40> H 	 3.63522 	 10.1111 	 86.7246
| 41> *
| 42>
| 43>                          ****END OF INPUT****

CARTESIAN COORDINATES (ANGSTROEM)
---------------------------------
  S     -2.036900   11.714400   87.082900
  C     -3.382620   11.739300   86.071500
  C     -3.035730   11.452400   84.733900
  C     -1.623450   11.561500   84.473900
  C     -0.931467   11.726600   85.652500
  H     -1.201690   11.469200   83.525600
  C     -4.045760   11.270200   83.611300
  H     -3.537380   11.205300   82.671200
  H     -4.750520   12.157100   83.541900
  C     -4.921760   10.041300   83.934100
  H     -4.279140    9.111890   84.093100
  H     -5.409060   10.195400   84.877000
  C     -6.155710    9.695230   82.957300
  H     -6.894380   10.486500   83.126100
  H     -5.863930    9.613510   81.938600
  H     -6.588720    8.696180   83.355500
  S      1.094740   10.471700   86.923100
  C      2.797710   10.655200   86.436000
  C      2.851800   11.669900   85.504100
  C      1.567690   12.267200   85.154100
  C      0.503451   11.630800   85.785500
  H      3.819830   11.803800   84.976300
  C      1.447660   13.408000   84.155400
  H      0.705758   14.176300   84.468200
  H      1.132520   12.904600   83.249200
  C      2.838430   14.100500   83.818000
  H      3.569230   13.380800   83.327100
  H      3.348140   14.287300   84.755300
  C      2.741630   15.376300   82.867100
  H      2.670920   16.208200   83.507500
  H      1.966640   15.306100   82.077100
  H      3.754580   15.516600   82.496200
  H     -4.387360   11.592700   86.493100
  H      3.635220   10.111100   86.724600

 Total Charge           Charge          ....    0
 Multiplicity           Mult            ....    1
 Number of Electrons    NEL             ....  134
 Basis Dimension        Dim             ....  322

ORBITAL ENERGIES
----------------

  NO   OCC          E(Eh)            E(eV)
   0   2.0000     -88.969346     -2420.9790
   1   2.0000     -88.960924     -2420.7498
   2   2.0000     -10.333158      -281.1795
   3   2.0000     -10.323812      -280.9252
   4   2.0000     -10.313968      -280.6573
   5   2.0000     -10.313441      -280.6430
   6   2.0000     -10.305145      -280.4173
   7   2.0000     -10.304354      -280.3957
   8   2.0000     -10.296463      -280.1810
   9   2.0000     -10.296320      -280.1771
  10   2.0000     -10.296131      -280.1720
  11   2.0000     -10.295887      -280.1653
  12   2.0000     -10.295647      -280.1588
  13   2.0000     -10.292315      -280.0681
  14   2.0000     -10.287618      -279.9403
  15   2.0000     -10.281428      -279.7719
  16   2.0000      -8.084344      -219.9862
  17   2.0000      -8.075628      -219.7490
  18   2.0000      -6.042806      -164.4331
  19   2.0000      -6.038832      -164.3250
  20   2.0000      -6.035117      -164.2239
  21   2.0000      -6.034348      -164.2030
  22   2.0000      -6.030014      -164.0850
  23   2.0000      -6.026278      -163.9834
  24   2.0000      -1.006688       -27.3934
  25   2.0000      -0.982350       -26.7311
  26   2.0000      -0.903798       -24.5936
  27   2.0000      -0.896327       -24.3903
  28   2.0000      -0.873742       -23.7757
  29   2.0000      -0.849845       -23.1254
  30   2.0000      -0.840095       -22.8601
  31   2.0000      -0.814998       -22.1772
  32   2.0000      -0.776251       -21.1229
  33   2.0000      -0.765823       -20.8391
  34   2.0000      -0.705238       -19.1905
  35   2.0000      -0.703446       -19.1417
  36   2.0000      -0.693068       -18.8593
  37   2.0000      -0.656787       -17.8721
  38   2.0000      -0.640851       -17.4384
  39   2.0000      -0.619543       -16.8586
  40   2.0000      -0.591347       -16.0914
  41   2.0000      -0.566654       -15.4194
  42   2.0000      -0.560599       -15.2547
  43   2.0000      -0.555536       -15.1169
  44   2.0000      -0.528302       -14.3758
  45   2.0000      -0.522151       -14.2084
  46   2.0000      -0.516854       -14.0643
  47   2.0000      -0.510997       -13.9049
  48   2.0000      -0.506703       -13.7881
  49   2.0000      -0.501906       -13.6576
  50   2.0000      -0.488763       -13.2999
  51   2.0000      -0.480433       -13.0732
  52   2.0000      -0.472394       -12.8545
  53   2.0000      -0.469602       -12.7785
  54   2.0000      -0.458895       -12.4872
  55   2.0000      -0.447960       -12.1896
  56   2.0000      -0.442614       -12.0441
  57   2.0000      -0.435994       -11.8640
  58   2.0000      -0.428310       -11.6549
  59   2.0000      -0.420501       -11.4424
  60   2.0000      -0.416515       -11.3339
  61   2.0000      -0.414689       -11.2843
  62   2.0000      -0.408593       -11.1184
  63   2.0000      -0.355985        -9.6868
  64   2.0000      -0.329994        -8.9796
  65   2.0000      -0.321880        -8.7588
  66   2.0000      -0.286934        -7.8079
  67   0.0000       0.027809         0.7567
  68   0.0000       0.064168         1.7461
  69   0.0000       0.108125         2.9422
  70   0.0000       0.120934         3.2908
  71   0.0000       0.134907         3.6710

MULLIKEN ATOMIC CHARGES
-----------------------
   0 S :    0.121388
   1 C :   -0.112770
   2 C :   -0.117488
   3 C :    0.058119
   4 C :   -0.143184
   5 H :   -0.004693
   6 C :    0.090055
   7 H :    0.012561
   8 H :    0.043509
   9 C :   -0.146351
  10 H :    0.043653
  11 H :    0.022430
  12 C :   -0.055398
  13 H :    0.036756
  14 H :    0.037879
  15 H :    0.048756
  16 S :    0.088945
  17 C :   -0.061693
  18 C :   -0.067172
  19 C :   -0.066119
  20 C :   -0.141186
  21 H :    0.035572
  22 C :    0.086830
  23 H :    0.054594
  24 H :    0.033739
  25 C :   -0.171095
  26 H :    0.035842
  27 H :    0.034020
  28 C :    0.005172
  29 H :    0.022538
  30 H :    0.051882
  31 H :    0.023251
  32 H :    0.067404
  33 H :    0.032254
Sum of atomic charges:    0.0000000

LOEWDIN ATOMIC CHARGES
----------------------
   0 S :    0.417767
   1 C :   -0.222165
   2 C :   -0.058445
   3 C :   -0.042418
   4 C :   -0.177502
   5 H :    0.025254
   6 C :   -0.035384
   7 H :    0.022290
   8 H :    0.039314
   9 C :   -0.046710
  10 H :    0.029140
  11 H :    0.016267
  12 C :   -0.068180
  13 H :    0.024171
  14 H :    0.016452
  15 H :    0.039063
  16 S :    0.397474
  17 C :   -0.173438
  18 C :   -0.077908
  19 C :   -0.064243
  20 C :   -0.203508
  21 H :    0.037243
  22 C :   -0.034087
  23 H :    0.039129
  24 H :    0.031991
  25 C :   -0.047260
  26 H :    0.023748
  27 H :    0.020322
  28 C :   -0.062720
  29 H :    0.021010
  30 H :    0.032094
  31 H :    0.029396
  32 H :    0.031273
  33 H :    0.020570

  Mayer bond orders larger than 0.100000
B(  0-S ,  1-C ) :   1.1627 B(  0-S ,  4-C ) :   1.1459 B(  1-C ,  2-C ) :   1.5779
B(  1-C , 32-H ) :   0.9602 B(  2-C ,  3-C ) :   1.2590 B(  2-C ,  6-C ) :   1.0298
B(  3-C ,  4-C ) :   1.5475 B(  3-C ,  5-H ) :   1.0050 B(  4-C , 20-C ) :   1.0626
B(  6-C ,  7-H ) :   0.9442 B(  6-C ,  8-H ) :   0.9429 B(  6-C ,  9-C ) :   1.0420
B(  9-C , 10-H ) :   0.9619 B(  9-C , 11-H ) :   0.9614 B(  9-C , 12-C ) :   1.0657
B( 12-C , 13-H ) :   0.9772 B( 12-C , 14-H ) :   0.9801 B( 12-C , 15-H ) :   0.9765
B( 16-S , 17-C ) :   1.1365 B( 16-S , 20-C ) :   1.1384 B( 17-C , 18-C ) :   1.6266
B( 17-C , 33-H ) :   0.9733 B( 18-C , 19-C ) :   1.2306 B( 18-C , 21-H ) :   0.9764
B( 19-C , 20-C ) :   1.6011 B( 19-C , 22-C ) :   1.0329 B( 22-C , 23-H ) :   0.9436
B( 22-C , 24-H ) :   0.9212 B( 22-C , 25-C ) :   1.0761 B( 25-C , 26-H ) :   0.9538
B( 25-C , 27-H ) :   0.9603 B( 25-C , 28-C ) :   1.0619 B( 28-C , 29-H ) :   0.9748
B( 28-C , 30-H ) :   0.9772 B( 28-C , 31-H ) :   0.9727

Dispersion correction           -0.013212072
FINAL SINGLE POINT ENERGY     -1339.860863092036

DIPOLE MOMENT
-------------
                                X             Y             Z
Electronic contribution:      6.33136      -6.95592      22.30295
Nuclear contribution   :     -6.33407       7.02989     -22.93802
                        -----------------------------------------
Total Dipole Moment    :     -0.00270       0.07397      -0.63507
                        -----------------------------------------
Magnitude (a.u.)       :      0.63937
Magnitude (Debye)      :      1.62514

Rotational constants in cm-1:     0.019788     0.006990     0.005801
Rotational constants in MHz :   593.219167   209.544003   173.923580

                             ****ORCA TERMINATED NORMALLY****
TOTAL RUN TIME: 0 days 0 hours 0 minutes 30 seconds 656 msec
