                         Program Version 4.2.1 -  RELEASE  -
|  1> ! wB97X-D3 SP def2-SVP
|  2> %pal
|  3> nprocs 16
|  4> end
|  5>
|  6> * xyz 0 1
|  7> S 	 -21.833 	 -5.2555 	 99.1198
|  8> C 	 -22.5127 	 -6.56483 	 100.047
|  9> C 	 -23.3845 	 -6.12605 	 101.007
| 10> C 	 -23.3565 	 -4.68714 	 101.175
| 11> C 	 -22.6302 	 -4.01375 	 100.199
| 12> H 	 -23.9504 	 -4.04525 	 101.726
| 13> C 	 -23.9949 	 -7.01381 	 102.049
| 14> H 	 -24.6217 	 -6.37644 	 102.653
| 15> H 	 -23.1399 	 -7.39566 	 102.722
| 16> C 	 -24.8551 	 -8.19739 	 101.521
| 17> H 	 -24.1477 	 -8.72957 	 100.871
| 18> H 	 -25.0859 	 -8.88371 	 102.329
| 19> C 	 -26.1297 	 -7.84553 	 100.724
| 20> H 	 -26.7527 	 -7.01092 	 101.104
| 21> H 	 -25.6728 	 -7.48956 	 99.7524
| 22> H 	 -26.8404 	 -8.62297 	 100.418
| 23> S 	 -21.5461 	 -1.53161 	 100.843
| 24> C 	 -22.2369 	 -0.0724298 	 100.066
| 25> C 	 -23.4716 	 -0.385541 	 99.4679
| 26> C 	 -23.6534 	 -1.77915 	 99.3119
| 27> C 	 -22.6721 	 -2.56915 	 99.9033
| 28> H 	 -23.9827 	 0.463545 	 99.0147
| 29> C 	 -24.7905 	 -2.3296 	 98.3975
| 30> H 	 -24.4315 	 -3.14257 	 97.7467
| 31> H 	 -25.131 	 -1.46937 	 97.7772
| 32> C 	 -25.9227 	 -2.9435 	 99.1742
| 33> H 	 -26.1733 	 -2.42871 	 100.094
| 34> H 	 -25.5982 	 -3.88534 	 99.6321
| 35> C 	 -27.2822 	 -3.14445 	 98.4286
| 36> H 	 -27.8006 	 -2.25407 	 98.6311
| 37> H 	 -27.8794 	 -3.99066 	 98.8729
| 38> H 	 -27.1312 	 -3.44338 	 97.4162
| 39> H 	 -22.1936 	 -7.60052 	 99.9353
| 40> H 	 -21.8867 	 0.927426 	 100.108
| 41> *
| 42>
| 43>                          ****END OF INPUT****

CARTESIAN COORDINATES (ANGSTROEM)
---------------------------------
  S    -21.833000   -5.255500   99.119800
  C    -22.512700   -6.564830  100.047000
  C    -23.384500   -6.126050  101.007000
  C    -23.356500   -4.687140  101.175000
  C    -22.630200   -4.013750  100.199000
  H    -23.950400   -4.045250  101.726000
  C    -23.994900   -7.013810  102.049000
  H    -24.621700   -6.376440  102.653000
  H    -23.139900   -7.395660  102.722000
  C    -24.855100   -8.197390  101.521000
  H    -24.147700   -8.729570  100.871000
  H    -25.085900   -8.883710  102.329000
  C    -26.129700   -7.845530  100.724000
  H    -26.752700   -7.010920  101.104000
  H    -25.672800   -7.489560   99.752400
  H    -26.840400   -8.622970  100.418000
  S    -21.546100   -1.531610  100.843000
  C    -22.236900   -0.072430  100.066000
  C    -23.471600   -0.385541   99.467900
  C    -23.653400   -1.779150   99.311900
  C    -22.672100   -2.569150   99.903300
  H    -23.982700    0.463545   99.014700
  C    -24.790500   -2.329600   98.397500
  H    -24.431500   -3.142570   97.746700
  H    -25.131000   -1.469370   97.777200
  C    -25.922700   -2.943500   99.174200
  H    -26.173300   -2.428710  100.094000
  H    -25.598200   -3.885340   99.632100
  C    -27.282200   -3.144450   98.428600
  H    -27.800600   -2.254070   98.631100
  H    -27.879400   -3.990660   98.872900
  H    -27.131200   -3.443380   97.416200
  H    -22.193600   -7.600520   99.935300
  H    -21.886700    0.927426  100.108000

 Total Charge           Charge          ....    0
 Multiplicity           Mult            ....    1
 Number of Electrons    NEL             ....  134
 Basis Dimension        Dim             ....  322

ORBITAL ENERGIES
----------------

  NO   OCC          E(Eh)            E(eV)
   0   2.0000     -88.966960     -2420.9141
   1   2.0000     -88.965557     -2420.8759
   2   2.0000     -10.336548      -281.2718
   3   2.0000     -10.331466      -281.1335
   4   2.0000     -10.324300      -280.9385
   5   2.0000     -10.317085      -280.7422
   6   2.0000     -10.311209      -280.5823
   7   2.0000     -10.302953      -280.3576
   8   2.0000     -10.299037      -280.2510
   9   2.0000     -10.298122      -280.2261
  10   2.0000     -10.296181      -280.1733
  11   2.0000     -10.296025      -280.1691
  12   2.0000     -10.292246      -280.0663
  13   2.0000     -10.284670      -279.8601
  14   2.0000     -10.278290      -279.6865
  15   2.0000     -10.274645      -279.5873
  16   2.0000      -8.080299      -219.8761
  17   2.0000      -8.079258      -219.8478
  18   2.0000      -6.038888      -164.3265
  19   2.0000      -6.037876      -164.2990
  20   2.0000      -6.035042      -164.2219
  21   2.0000      -6.033813      -164.1884
  22   2.0000      -6.030985      -164.1115
  23   2.0000      -6.030061      -164.0863
  24   2.0000      -0.997894       -27.1541
  25   2.0000      -0.978790       -26.6342
  26   2.0000      -0.907161       -24.6851
  27   2.0000      -0.903498       -24.5854
  28   2.0000      -0.868102       -23.6222
  29   2.0000      -0.845645       -23.0112
  30   2.0000      -0.845077       -22.9957
  31   2.0000      -0.814832       -22.1727
  32   2.0000      -0.780387       -21.2354
  33   2.0000      -0.770098       -20.9554
  34   2.0000      -0.708179       -19.2705
  35   2.0000      -0.702320       -19.1111
  36   2.0000      -0.689460       -18.7612
  37   2.0000      -0.661440       -17.9987
  38   2.0000      -0.648755       -17.6535
  39   2.0000      -0.605455       -16.4753
  40   2.0000      -0.591545       -16.0968
  41   2.0000      -0.575994       -15.6736
  42   2.0000      -0.561700       -15.2846
  43   2.0000      -0.548989       -14.9387
  44   2.0000      -0.537784       -14.6338
  45   2.0000      -0.524380       -14.2691
  46   2.0000      -0.519844       -14.1457
  47   2.0000      -0.513087       -13.9618
  48   2.0000      -0.504311       -13.7230
  49   2.0000      -0.495161       -13.4740
  50   2.0000      -0.483788       -13.1645
  51   2.0000      -0.478941       -13.0327
  52   2.0000      -0.476090       -12.9551
  53   2.0000      -0.471495       -12.8300
  54   2.0000      -0.458586       -12.4788
  55   2.0000      -0.444439       -12.0938
  56   2.0000      -0.444217       -12.0877
  57   2.0000      -0.432595       -11.7715
  58   2.0000      -0.429227       -11.6799
  59   2.0000      -0.419826       -11.4241
  60   2.0000      -0.412711       -11.2304
  61   2.0000      -0.410922       -11.1818
  62   2.0000      -0.406876       -11.0717
  63   2.0000      -0.337835        -9.1930
  64   2.0000      -0.332149        -9.0382
  65   2.0000      -0.318355        -8.6629
  66   2.0000      -0.310589        -8.4516
  67   0.0000       0.031884         0.8676
  68   0.0000       0.043535         1.1846
  69   0.0000       0.105627         2.8743
  70   0.0000       0.115365         3.1392
  71   0.0000       0.118191         3.2161

MULLIKEN ATOMIC CHARGES
-----------------------
   0 S :    0.097791
   1 C :   -0.125534
   2 C :   -0.089291
   3 C :    0.098996
   4 C :   -0.187537
   5 H :   -0.006747
   6 C :    0.031110
   7 H :    0.014844
   8 H :    0.064547
   9 C :   -0.055043
  10 H :    0.019116
  11 H :    0.030090
  12 C :   -0.089579
  13 H :    0.039489
  14 H :    0.040735
  15 H :    0.045102
  16 S :    0.097296
  17 C :   -0.086704
  18 C :   -0.050314
  19 C :   -0.011513
  20 C :   -0.173772
  21 H :    0.031488
  22 C :    0.093446
  23 H :    0.041965
  24 H :    0.025801
  25 C :   -0.119407
  26 H :    0.013642
  27 H :    0.029023
  28 C :   -0.027262
  29 H :    0.033617
  30 H :    0.032404
  31 H :    0.030750
  32 H :    0.062577
  33 H :    0.048873
Sum of atomic charges:   -0.0000000

LOEWDIN ATOMIC CHARGES
----------------------
   0 S :    0.376229
   1 C :   -0.190801
   2 C :   -0.075129
   3 C :   -0.041847
   4 C :   -0.176799
   5 H :    0.021030
   6 C :   -0.033451
   7 H :    0.022727
   8 H :    0.048710
   9 C :   -0.041950
  10 H :    0.021508
  11 H :    0.020916
  12 C :   -0.081313
  13 H :    0.026455
  14 H :    0.034664
  15 H :    0.029611
  16 S :    0.377093
  17 C :   -0.158229
  18 C :   -0.075208
  19 C :   -0.044478
  20 C :   -0.196294
  21 H :    0.036185
  22 C :   -0.026579
  23 H :    0.037407
  24 H :    0.030720
  25 C :   -0.052488
  26 H :    0.018073
  27 H :    0.023131
  28 C :   -0.060377
  29 H :    0.020472
  30 H :    0.034108
  31 H :    0.020241
  32 H :    0.031962
  33 H :    0.023700

  Mayer bond orders larger than 0.100000
B(  0-S ,  1-C ) :   1.1469 B(  0-S ,  4-C ) :   1.1191 B(  1-C ,  2-C ) :   1.6095
B(  1-C , 32-H ) :   0.9657 B(  2-C ,  3-C ) :   1.2126 B(  2-C ,  6-C ) :   1.0222
B(  3-C ,  4-C ) :   1.6134 B(  3-C ,  5-H ) :   0.9931 B(  4-C , 20-C ) :   1.0194
B(  6-C ,  7-H ) :   0.9438 B(  6-C ,  8-H ) :   0.9428 B(  6-C ,  9-C ) :   1.0634
B(  9-C , 10-H ) :   0.9608 B(  9-C , 11-H ) :   0.9585 B(  9-C , 12-C ) :   1.0559
B( 12-C , 13-H ) :   0.9786 B( 12-C , 14-H ) :   0.9738 B( 12-C , 15-H ) :   0.9769
B( 16-S , 17-C ) :   1.1590 B( 16-S , 20-C ) :   1.1233 B( 17-C , 18-C ) :   1.6148
B( 17-C , 20-C ) :   0.1093 B( 17-C , 33-H ) :   0.9716 B( 18-C , 19-C ) :   1.2426
B( 18-C , 21-H ) :   0.9847 B( 19-C , 20-C ) :   1.6059 B( 19-C , 22-C ) :   1.0230
B( 22-C , 23-H ) :   0.9368 B( 22-C , 24-H ) :   0.9449 B( 22-C , 25-C ) :   1.0533
B( 25-C , 26-H ) :   0.9610 B( 25-C , 27-H ) :   0.9526 B( 25-C , 28-C ) :   1.0721
B( 28-C , 29-H ) :   0.9816 B( 28-C , 30-H ) :   0.9750 B( 28-C , 31-H ) :   0.9761

Dispersion correction           -0.015325923
FINAL SINGLE POINT ENERGY     -1339.855773351896

DIPOLE MOMENT
-------------
                                X             Y             Z
Electronic contribution:     26.57143      12.89292       0.49586
Nuclear contribution   :    -27.14306     -12.94293      -0.40700
                        -----------------------------------------
Total Dipole Moment    :     -0.57163      -0.05001       0.08886
                        -----------------------------------------
Magnitude (a.u.)       :      0.58066
Magnitude (Debye)      :      1.47591

Rotational constants in cm-1:     0.018751     0.009109     0.007114
Rotational constants in MHz :   562.143994   273.088643   213.265477

                             ****ORCA TERMINATED NORMALLY****
TOTAL RUN TIME: 0 days 0 hours 0 minutes 31 seconds 111 msec
