                         Program Version 4.2.1 -  RELEASE  -
|  1> ! wB97X-D3 SP def2-SVP
|  2> %pal
|  3> nprocs 16
|  4> end
|  5>
|  6> * xyz 0 1
|  7> S 	 -58.0941 	 35.7229 	 119.083
|  8> C 	 -59.7048 	 35.6527 	 119.732
|  9> C 	 -60.6398 	 36.2803 	 118.871
| 10> C 	 -60.014 	 36.7126 	 117.664
| 11> C 	 -58.6995 	 36.4687 	 117.612
| 12> H 	 -60.3265 	 37.2464 	 116.883
| 13> C 	 -62.1152 	 36.5533 	 119.13
| 14> H 	 -62.3839 	 37.5374 	 118.78
| 15> H 	 -62.2115 	 36.6622 	 120.177
| 16> C 	 -63.056 	 35.3948 	 118.8
| 17> H 	 -64.0599 	 35.8169 	 118.788
| 18> H 	 -62.8054 	 35.0175 	 117.818
| 19> C 	 -62.9845 	 34.2792 	 119.871
| 20> H 	 -63.2859 	 34.668 	 120.839
| 21> H 	 -63.4474 	 33.3354 	 119.617
| 22> H 	 -61.9494 	 33.8687 	 119.938
| 23> S 	 -56.4049 	 37.8065 	 116.898
| 24> C 	 -55.9797 	 37.8899 	 115.232
| 25> C 	 -56.9355 	 37.3568 	 114.422
| 26> C 	 -58.0843 	 36.9119 	 115.142
| 27> C 	 -57.8599 	 36.8753 	 116.531
| 28> H 	 -56.6767 	 37.2153 	 113.341
| 29> C 	 -59.3262 	 36.3901 	 114.399
| 30> H 	 -60.0397 	 35.8335 	 115.075
| 31> H 	 -58.9989 	 35.7251 	 113.641
| 32> C 	 -60.0863 	 37.5889 	 113.716
| 33> H 	 -60.6959 	 37.1184 	 112.876
| 34> H 	 -59.3773 	 38.1955 	 113.122
| 35> C 	 -61.007 	 38.4308 	 114.594
| 36> H 	 -61.9003 	 37.8758 	 114.994
| 37> H 	 -61.5843 	 39.1001 	 113.924
| 38> H 	 -60.5337 	 39.1086 	 115.345
| 39> H 	 -59.8161 	 35.2107 	 120.723
| 40> H 	 -55.024 	 38.2542 	 115.039
| 41> *
| 42>
| 43>                          ****END OF INPUT****

CARTESIAN COORDINATES (ANGSTROEM)
---------------------------------
  S    -58.094100   35.722900  119.083000
  C    -59.704800   35.652700  119.732000
  C    -60.639800   36.280300  118.871000
  C    -60.014000   36.712600  117.664000
  C    -58.699500   36.468700  117.612000
  H    -60.326500   37.246400  116.883000
  C    -62.115200   36.553300  119.130000
  H    -62.383900   37.537400  118.780000
  H    -62.211500   36.662200  120.177000
  C    -63.056000   35.394800  118.800000
  H    -64.059900   35.816900  118.788000
  H    -62.805400   35.017500  117.818000
  C    -62.984500   34.279200  119.871000
  H    -63.285900   34.668000  120.839000
  H    -63.447400   33.335400  119.617000
  H    -61.949400   33.868700  119.938000
  S    -56.404900   37.806500  116.898000
  C    -55.979700   37.889900  115.232000
  C    -56.935500   37.356800  114.422000
  C    -58.084300   36.911900  115.142000
  C    -57.859900   36.875300  116.531000
  H    -56.676700   37.215300  113.341000
  C    -59.326200   36.390100  114.399000
  H    -60.039700   35.833500  115.075000
  H    -58.998900   35.725100  113.641000
  C    -60.086300   37.588900  113.716000
  H    -60.695900   37.118400  112.876000
  H    -59.377300   38.195500  113.122000
  C    -61.007000   38.430800  114.594000
  H    -61.900300   37.875800  114.994000
  H    -61.584300   39.100100  113.924000
  H    -60.533700   39.108600  115.345000
  H    -59.816100   35.210700  120.723000
  H    -55.024000   38.254200  115.039000

 Total Charge           Charge          ....    0
 Multiplicity           Mult            ....    1
 Number of Electrons    NEL             ....  134
 Basis Dimension        Dim             ....  322

ORBITAL ENERGIES
----------------

  NO   OCC          E(Eh)            E(eV)
   0   2.0000     -88.963552     -2420.8213
   1   2.0000     -88.958641     -2420.6877
   2   2.0000     -10.323738      -280.9232
   3   2.0000     -10.318138      -280.7708
   4   2.0000     -10.317559      -280.7551
   5   2.0000     -10.308324      -280.5038
   6   2.0000     -10.306321      -280.4492
   7   2.0000     -10.305996      -280.4404
   8   2.0000     -10.298489      -280.2361
   9   2.0000     -10.296515      -280.1824
  10   2.0000     -10.296233      -280.1748
  11   2.0000     -10.289572      -279.9935
  12   2.0000     -10.286934      -279.9217
  13   2.0000     -10.284946      -279.8676
  14   2.0000     -10.278849      -279.7017
  15   2.0000     -10.276124      -279.6276
  16   2.0000      -8.078628      -219.8306
  17   2.0000      -8.074306      -219.7130
  18   2.0000      -6.037046      -164.2764
  19   2.0000      -6.033133      -164.1699
  20   2.0000      -6.032676      -164.1575
  21   2.0000      -6.029432      -164.0692
  22   2.0000      -6.028738      -164.0503
  23   2.0000      -6.025116      -163.9517
  24   2.0000      -1.008912       -27.4539
  25   2.0000      -0.984416       -26.7873
  26   2.0000      -0.912523       -24.8310
  27   2.0000      -0.903590       -24.5879
  28   2.0000      -0.873190       -23.7607
  29   2.0000      -0.851149       -23.1609
  30   2.0000      -0.845078       -22.9957
  31   2.0000      -0.812448       -22.1078
  32   2.0000      -0.784587       -21.3497
  33   2.0000      -0.773235       -21.0408
  34   2.0000      -0.707417       -19.2498
  35   2.0000      -0.697293       -18.9743
  36   2.0000      -0.694284       -18.8924
  37   2.0000      -0.662252       -18.0208
  38   2.0000      -0.647961       -17.6319
  39   2.0000      -0.621823       -16.9207
  40   2.0000      -0.599861       -16.3230
  41   2.0000      -0.569436       -15.4951
  42   2.0000      -0.556779       -15.1507
  43   2.0000      -0.549826       -14.9615
  44   2.0000      -0.542611       -14.7652
  45   2.0000      -0.531548       -14.4642
  46   2.0000      -0.518432       -14.1073
  47   2.0000      -0.512472       -13.9451
  48   2.0000      -0.498660       -13.5692
  49   2.0000      -0.497245       -13.5307
  50   2.0000      -0.483642       -13.1606
  51   2.0000      -0.477644       -12.9974
  52   2.0000      -0.475576       -12.9411
  53   2.0000      -0.463457       -12.6113
  54   2.0000      -0.458307       -12.4712
  55   2.0000      -0.451148       -12.2764
  56   2.0000      -0.442380       -12.0378
  57   2.0000      -0.439342       -11.9551
  58   2.0000      -0.435287       -11.8448
  59   2.0000      -0.425244       -11.5715
  60   2.0000      -0.421556       -11.4711
  61   2.0000      -0.413325       -11.2471
  62   2.0000      -0.408072       -11.1042
  63   2.0000      -0.352644        -9.5959
  64   2.0000      -0.329876        -8.9764
  65   2.0000      -0.327502        -8.9118
  66   2.0000      -0.285822        -7.7776
  67   0.0000       0.029430         0.8008
  68   0.0000       0.075122         2.0442
  69   0.0000       0.113279         3.0825
  70   0.0000       0.125445         3.4135
  71   0.0000       0.129820         3.5326

MULLIKEN ATOMIC CHARGES
-----------------------
   0 S :    0.109059
   1 C :   -0.141808
   2 C :   -0.071493
   3 C :    0.102016
   4 C :   -0.138987
   5 H :   -0.118784
   6 C :    0.102530
   7 H :    0.023125
   8 H :   -0.004754
   9 C :   -0.033409
  10 H :    0.032021
  11 H :    0.024058
  12 C :   -0.064624
  13 H :    0.033618
  14 H :    0.030218
  15 H :    0.027205
  16 S :    0.086121
  17 C :   -0.077617
  18 C :   -0.036804
  19 C :   -0.047658
  20 C :   -0.137139
  21 H :    0.042525
  22 C :    0.063543
  23 H :    0.040805
  24 H :    0.022019
  25 C :   -0.107924
  26 H :    0.031188
  27 H :    0.034254
  28 C :   -0.056583
  29 H :    0.040302
  30 H :    0.027882
  31 H :    0.067539
  32 H :    0.060436
  33 H :    0.037121
Sum of atomic charges:    0.0000000

LOEWDIN ATOMIC CHARGES
----------------------
   0 S :    0.403079
   1 C :   -0.201307
   2 C :   -0.051082
   3 C :   -0.048589
   4 C :   -0.188742
   5 H :    0.008883
   6 C :   -0.030806
   7 H :    0.030243
   8 H :    0.023920
   9 C :   -0.031526
  10 H :    0.025156
  11 H :    0.020506
  12 C :   -0.071223
  13 H :    0.023108
  14 H :    0.026453
  15 H :    0.030047
  16 S :    0.399866
  17 C :   -0.178310
  18 C :   -0.079488
  19 C :   -0.056565
  20 C :   -0.191871
  21 H :    0.043393
  22 C :   -0.031290
  23 H :    0.035854
  24 H :    0.026224
  25 C :   -0.046182
  26 H :    0.030373
  27 H :    0.025432
  28 C :   -0.086030
  29 H :    0.032641
  30 H :    0.033225
  31 H :    0.033977
  32 H :    0.027430
  33 H :    0.013200

  Mayer bond orders larger than 0.100000
B(  0-S ,  1-C ) :   1.1511 B(  0-S ,  4-C ) :   1.1323 B(  1-C ,  2-C ) :   1.5791
B(  1-C , 32-H ) :   0.9705 B(  2-C ,  3-C ) :   1.2100 B(  2-C ,  6-C ) :   1.0256
B(  3-C ,  4-C ) :   1.5973 B(  3-C ,  5-H ) :   1.0109 B(  4-C , 20-C ) :   1.0585
B(  6-C ,  7-H ) :   0.9430 B(  6-C ,  8-H ) :   0.9310 B(  6-C ,  9-C ) :   1.0558
B(  9-C , 10-H ) :   0.9560 B(  9-C , 11-H ) :   0.9582 B(  9-C , 12-C ) :   1.0797
B( 12-C , 13-H ) :   0.9753 B( 12-C , 14-H ) :   0.9720 B( 12-C , 15-H ) :   0.9693
B( 16-S , 17-C ) :   1.1619 B( 16-S , 20-C ) :   1.1390 B( 17-C , 18-C ) :   1.6038
B( 17-C , 20-C ) :   0.1028 B( 17-C , 33-H ) :   0.9782 B( 18-C , 19-C ) :   1.2214
B( 18-C , 21-H ) :   0.9842 B( 19-C , 20-C ) :   1.5901 B( 19-C , 22-C ) :   1.0409
B( 22-C , 23-H ) :   0.9436 B( 22-C , 24-H ) :   0.9351 B( 22-C , 25-C ) :   1.0601
B( 25-C , 26-H ) :   0.9548 B( 25-C , 27-H ) :   0.9565 B( 25-C , 28-C ) :   1.0913
B( 28-C , 29-H ) :   0.9612 B( 28-C , 30-H ) :   0.9629 B( 28-C , 31-H ) :   0.9598

Dispersion correction           -0.015123020
FINAL SINGLE POINT ENERGY     -1339.870438112523

DIPOLE MOMENT
-------------
                                X             Y             Z
Electronic contribution:     27.45294       1.97860       6.51008
Nuclear contribution   :    -28.00087      -1.90967      -6.90375
                        -----------------------------------------
Total Dipole Moment    :     -0.54794       0.06893      -0.39367
                        -----------------------------------------
Magnitude (a.u.)       :      0.67821
Magnitude (Debye)      :      1.72386

Rotational constants in cm-1:     0.020468     0.009240     0.006898
Rotational constants in MHz :   613.627977   276.997822   206.791547

                             ****ORCA TERMINATED NORMALLY****
TOTAL RUN TIME: 0 days 0 hours 0 minutes 31 seconds 892 msec
