                         Program Version 4.2.1 -  RELEASE  -
|  1> ! wB97X-D3 SP def2-SVP
|  2> %pal
|  3> nprocs 16
|  4> end
|  5>
|  6> * xyz 0 1
|  7> S 	 55.7007 	 28.0395 	 40.2598
|  8> C 	 56.4953 	 28.17 	 41.8273
|  9> C 	 55.5767 	 27.8027 	 42.8522
| 10> C 	 54.4035 	 27.1979 	 42.3194
| 11> C 	 54.3985 	 27.0942 	 40.9534
| 12> H 	 53.5535 	 26.8359 	 42.8498
| 13> C 	 55.7709 	 27.9471 	 44.3474
| 14> H 	 56.2424 	 27.0636 	 44.7307
| 15> H 	 54.8485 	 28.1825 	 44.8701
| 16> C 	 56.5176 	 29.26 	 44.6173
| 17> H 	 56.6159 	 29.2613 	 45.6711
| 18> H 	 57.5732 	 29.2332 	 44.2892
| 19> C 	 55.9219 	 30.5052 	 44.0144
| 20> H 	 56.0659 	 30.5439 	 42.9627
| 21> H 	 54.8734 	 30.549 	 44.1293
| 22> H 	 56.3898 	 31.4107 	 44.3518
| 23> S 	 52.224 	 28.2042 	 39.6404
| 24> C 	 50.8939 	 27.1528 	 39.1681
| 25> C 	 51.2828 	 25.8303 	 39.2175
| 26> C 	 52.5088 	 25.6187 	 39.9064
| 27> C 	 53.2014 	 26.7875 	 40.176
| 28> H 	 50.4783 	 25.1447 	 38.8561
| 29> C 	 52.956 	 24.1952 	 40.2721
| 30> H 	 52.1054 	 23.6273 	 40.6057
| 31> H 	 53.6304 	 24.2801 	 41.0929
| 32> C 	 53.6348 	 23.573 	 39.0841
| 33> H 	 54.1914 	 24.292 	 38.5276
| 34> H 	 52.8405 	 23.1557 	 38.4635
| 35> C 	 54.5271 	 22.327 	 39.4382
| 36> H 	 55.15 	 22.1195 	 38.586
| 37> H 	 54.0088 	 21.4696 	 39.8192
| 38> H 	 55.3029 	 22.6254 	 40.1601
| 39> H 	 57.4726 	 28.5748 	 42.0615
| 40> H 	 49.8871 	 27.5358 	 38.8353
| 41> *
| 42>
| 43>                          ****END OF INPUT****

CARTESIAN COORDINATES (ANGSTROEM)
---------------------------------
  S     55.700700   28.039500   40.259800
  C     56.495300   28.170000   41.827300
  C     55.576700   27.802700   42.852200
  C     54.403500   27.197900   42.319400
  C     54.398500   27.094200   40.953400
  H     53.553500   26.835900   42.849800
  C     55.770900   27.947100   44.347400
  H     56.242400   27.063600   44.730700
  H     54.848500   28.182500   44.870100
  C     56.517600   29.260000   44.617300
  H     56.615900   29.261300   45.671100
  H     57.573200   29.233200   44.289200
  C     55.921900   30.505200   44.014400
  H     56.065900   30.543900   42.962700
  H     54.873400   30.549000   44.129300
  H     56.389800   31.410700   44.351800
  S     52.224000   28.204200   39.640400
  C     50.893900   27.152800   39.168100
  C     51.282800   25.830300   39.217500
  C     52.508800   25.618700   39.906400
  C     53.201400   26.787500   40.176000
  H     50.478300   25.144700   38.856100
  C     52.956000   24.195200   40.272100
  H     52.105400   23.627300   40.605700
  H     53.630400   24.280100   41.092900
  C     53.634800   23.573000   39.084100
  H     54.191400   24.292000   38.527600
  H     52.840500   23.155700   38.463500
  C     54.527100   22.327000   39.438200
  H     55.150000   22.119500   38.586000
  H     54.008800   21.469600   39.819200
  H     55.302900   22.625400   40.160100
  H     57.472600   28.574800   42.061500
  H     49.887100   27.535800   38.835300

 Total Charge           Charge          ....    0
 Multiplicity           Mult            ....    1
 Number of Electrons    NEL             ....  134
 Basis Dimension        Dim             ....  322

ORBITAL ENERGIES
----------------

  NO   OCC          E(Eh)            E(eV)
   0   2.0000     -88.968591     -2420.9584
   1   2.0000     -88.959676     -2420.7159
   2   2.0000     -10.326782      -281.0060
   3   2.0000     -10.325078      -280.9597
   4   2.0000     -10.321387      -280.8592
   5   2.0000     -10.320005      -280.8216
   6   2.0000     -10.305190      -280.4185
   7   2.0000     -10.303042      -280.3600
   8   2.0000     -10.294966      -280.1403
   9   2.0000     -10.290951      -280.0310
  10   2.0000     -10.289612      -279.9946
  11   2.0000     -10.283571      -279.8302
  12   2.0000     -10.281085      -279.7625
  13   2.0000     -10.279875      -279.7296
  14   2.0000     -10.273053      -279.5440
  15   2.0000     -10.264787      -279.3191
  16   2.0000      -8.082754      -219.9429
  17   2.0000      -8.073884      -219.7016
  18   2.0000      -6.041287      -164.3918
  19   2.0000      -6.037416      -164.2864
  20   2.0000      -6.033441      -164.1783
  21   2.0000      -6.032492      -164.1525
  22   2.0000      -6.028510      -164.0441
  23   2.0000      -6.024516      -163.9354
  24   2.0000      -1.003044       -27.2942
  25   2.0000      -0.979434       -26.6518
  26   2.0000      -0.918138       -24.9838
  27   2.0000      -0.907750       -24.7011
  28   2.0000      -0.864141       -23.5145
  29   2.0000      -0.849386       -23.1130
  30   2.0000      -0.841546       -22.8996
  31   2.0000      -0.809829       -22.0366
  32   2.0000      -0.786665       -21.4062
  33   2.0000      -0.773571       -21.0499
  34   2.0000      -0.706893       -19.2355
  35   2.0000      -0.700767       -19.0688
  36   2.0000      -0.692341       -18.8396
  37   2.0000      -0.653233       -17.7754
  38   2.0000      -0.641036       -17.4435
  39   2.0000      -0.609999       -16.5989
  40   2.0000      -0.592076       -16.1112
  41   2.0000      -0.578536       -15.7428
  42   2.0000      -0.569819       -15.5056
  43   2.0000      -0.564672       -15.3655
  44   2.0000      -0.535865       -14.5816
  45   2.0000      -0.524130       -14.2623
  46   2.0000      -0.512396       -13.9430
  47   2.0000      -0.510386       -13.8883
  48   2.0000      -0.499546       -13.5933
  49   2.0000      -0.496532       -13.5113
  50   2.0000      -0.485596       -13.2137
  51   2.0000      -0.482929       -13.1412
  52   2.0000      -0.477884       -13.0039
  53   2.0000      -0.465884       -12.6773
  54   2.0000      -0.458331       -12.4718
  55   2.0000      -0.449435       -12.2297
  56   2.0000      -0.441787       -12.0216
  57   2.0000      -0.436449       -11.8764
  58   2.0000      -0.433142       -11.7864
  59   2.0000      -0.417357       -11.3569
  60   2.0000      -0.415807       -11.3147
  61   2.0000      -0.413454       -11.2507
  62   2.0000      -0.410176       -11.1615
  63   2.0000      -0.340907        -9.2765
  64   2.0000      -0.326455        -8.8833
  65   2.0000      -0.324735        -8.8365
  66   2.0000      -0.296624        -8.0715
  67   0.0000       0.036575         0.9953
  68   0.0000       0.049950         1.3592
  69   0.0000       0.107927         2.9368
  70   0.0000       0.122760         3.3405
  71   0.0000       0.131103         3.5675

MULLIKEN ATOMIC CHARGES
-----------------------
   0 S :    0.109393
   1 C :   -0.109104
   2 C :   -0.118226
   3 C :    0.048807
   4 C :   -0.154341
   5 H :    0.008495
   6 C :    0.089678
   7 H :    0.047712
   8 H :    0.030971
   9 C :   -0.103497
  10 H :    0.013687
  11 H :    0.016734
  12 C :    0.014578
  13 H :    0.018876
  14 H :    0.014195
  15 H :    0.026861
  16 S :    0.090093
  17 C :   -0.132680
  18 C :   -0.041726
  19 C :   -0.067755
  20 C :   -0.162998
  21 H :    0.037326
  22 C :    0.135421
  23 H :    0.020436
  24 H :    0.006427
  25 C :   -0.079911
  26 H :    0.035633
  27 H :    0.027682
  28 C :   -0.040482
  29 H :    0.027168
  30 H :    0.036187
  31 H :    0.024588
  32 H :    0.051073
  33 H :    0.078699
Sum of atomic charges:   -0.0000000

LOEWDIN ATOMIC CHARGES
----------------------
   0 S :    0.407046
   1 C :   -0.194223
   2 C :   -0.058099
   3 C :   -0.050903
   4 C :   -0.203745
   5 H :    0.030364
   6 C :   -0.025996
   7 H :    0.034455
   8 H :    0.034022
   9 C :   -0.043667
  10 H :    0.016830
  11 H :    0.019289
  12 C :   -0.057615
  13 H :    0.023038
  14 H :    0.019658
  15 H :    0.027559
  16 S :    0.370292
  17 C :   -0.184681
  18 C :   -0.086513
  19 C :   -0.049514
  20 C :   -0.190310
  21 H :    0.041696
  22 C :   -0.021814
  23 H :    0.028445
  24 H :    0.022010
  25 C :   -0.033166
  26 H :    0.024016
  27 H :    0.025239
  28 C :   -0.065674
  29 H :    0.025945
  30 H :    0.021662
  31 H :    0.025248
  32 H :    0.028151
  33 H :    0.040956

  Mayer bond orders larger than 0.100000
B(  0-S ,  1-C ) :   1.1426 B(  0-S ,  4-C ) :   1.1476 B(  1-C ,  2-C ) :   1.5769
B(  1-C ,  4-C ) :   0.1030 B(  1-C , 32-H ) :   0.9695 B(  2-C ,  3-C ) :   1.2567
B(  2-C ,  6-C ) :   1.0124 B(  3-C ,  4-C ) :   1.5661 B(  3-C ,  5-H ) :   1.0024
B(  4-C , 20-C ) :   1.0151 B(  6-C ,  7-H ) :   0.9378 B(  6-C ,  8-H ) :   0.9492
B(  6-C ,  9-C ) :   1.0733 B(  9-C , 10-H ) :   0.9583 B(  9-C , 11-H ) :   0.9475
B(  9-C , 12-C ) :   1.0822 B( 12-C , 13-H ) :   0.9634 B( 12-C , 14-H ) :   0.9723
B( 12-C , 15-H ) :   0.9685 B( 16-S , 17-C ) :   1.1532 B( 16-S , 20-C ) :   1.1191
B( 17-C , 18-C ) :   1.6382 B( 17-C , 33-H ) :   0.9587 B( 18-C , 19-C ) :   1.2031
B( 18-C , 21-H ) :   0.9839 B( 19-C , 20-C ) :   1.6437 B( 19-C , 22-C ) :   1.0430
B( 22-C , 23-H ) :   0.9313 B( 22-C , 24-H ) :   0.9317 B( 22-C , 25-C ) :   1.0649
B( 25-C , 26-H ) :   0.9598 B( 25-C , 27-H ) :   0.9530 B( 25-C , 28-C ) :   1.0875
B( 28-C , 29-H ) :   0.9741 B( 28-C , 30-H ) :   0.9763 B( 28-C , 31-H ) :   0.9753

Dispersion correction           -0.014330357
FINAL SINGLE POINT ENERGY     -1339.862395689159

DIPOLE MOMENT
-------------
                                X             Y             Z
Electronic contribution:     -6.65613       9.75842     -11.89960
Nuclear contribution   :      6.51213     -10.02285      12.39581
                        -----------------------------------------
Total Dipole Moment    :     -0.14400      -0.26443       0.49621
                        -----------------------------------------
Magnitude (a.u.)       :      0.58042
Magnitude (Debye)      :      1.47530

Rotational constants in cm-1:     0.020933     0.008073     0.006768
Rotational constants in MHz :   627.547222   242.028154   202.907246

                             ****ORCA TERMINATED NORMALLY****
TOTAL RUN TIME: 0 days 0 hours 0 minutes 29 seconds 854 msec
