                         Program Version 4.2.1 -  RELEASE  -
|  1> ! wB97X-D3 SP def2-SVP
|  2> %pal
|  3> nprocs 16
|  4> end
|  5>
|  6> * xyz 0 1
|  7> S 	 -1.92872 	 -16.8297 	 69.9309
|  8> C 	 -1.61995 	 -18.078 	 68.8269
|  9> C 	 -2.50142 	 -18.1068 	 67.7756
| 10> C 	 -3.38458 	 -16.9765 	 67.9011
| 11> C 	 -3.26007 	 -16.2537 	 69.0109
| 12> H 	 -4.21805 	 -16.8822 	 67.2401
| 13> C 	 -2.55302 	 -19.0744 	 66.637
| 14> H 	 -1.88199 	 -18.7519 	 65.8745
| 15> H 	 -3.59894 	 -19.0942 	 66.2112
| 16> C 	 -2.03491 	 -20.4968 	 67.0271
| 17> H 	 -2.17039 	 -21.1596 	 66.1806
| 18> H 	 -0.928781 	 -20.3967 	 67.1846
| 19> C 	 -2.83633 	 -21.1995 	 68.2016
| 20> H 	 -2.60492 	 -22.2655 	 68.2069
| 21> H 	 -2.59894 	 -20.9725 	 69.2244
| 22> H 	 -3.88896 	 -21.067 	 68.0972
| 23> S 	 -5.83776 	 -15.1768 	 69.2035
| 24> C 	 -6.02396 	 -13.51 	 69.7442
| 25> C 	 -4.82588 	 -13.0393 	 70.2212
| 26> C 	 -3.65905 	 -13.8913 	 69.9971
| 27> C 	 -4.04968 	 -15.048 	 69.3414
| 28> H 	 -4.76241 	 -12.0412 	 70.7573
| 29> C 	 -2.31665 	 -13.7569 	 70.7328
| 30> H 	 -1.98881 	 -12.7201 	 70.7039
| 31> H 	 -1.65661 	 -14.3171 	 70.0907
| 32> C 	 -2.16717 	 -14.2708 	 72.1258
| 33> H 	 -2.61911 	 -15.2587 	 72.2153
| 34> H 	 -2.76307 	 -13.6408 	 72.7119
| 35> C 	 -0.651094 	 -14.3985 	 72.5226
| 36> H 	 -0.0600228 	 -14.8933 	 71.7227
| 37> H 	 -0.512228 	 -14.9656 	 73.4496
| 38> H 	 -0.185019 	 -13.4417 	 72.6142
| 39> H 	 -0.902315 	 -18.8368 	 68.8209
| 40> H 	 -7.02315 	 -13.05 	 69.8803
| 41> *
| 42>
| 43>                          ****END OF INPUT****

CARTESIAN COORDINATES (ANGSTROEM)
---------------------------------
  S     -1.928720  -16.829700   69.930900
  C     -1.619950  -18.078000   68.826900
  C     -2.501420  -18.106800   67.775600
  C     -3.384580  -16.976500   67.901100
  C     -3.260070  -16.253700   69.010900
  H     -4.218050  -16.882200   67.240100
  C     -2.553020  -19.074400   66.637000
  H     -1.881990  -18.751900   65.874500
  H     -3.598940  -19.094200   66.211200
  C     -2.034910  -20.496800   67.027100
  H     -2.170390  -21.159600   66.180600
  H     -0.928781  -20.396700   67.184600
  C     -2.836330  -21.199500   68.201600
  H     -2.604920  -22.265500   68.206900
  H     -2.598940  -20.972500   69.224400
  H     -3.888960  -21.067000   68.097200
  S     -5.837760  -15.176800   69.203500
  C     -6.023960  -13.510000   69.744200
  C     -4.825880  -13.039300   70.221200
  C     -3.659050  -13.891300   69.997100
  C     -4.049680  -15.048000   69.341400
  H     -4.762410  -12.041200   70.757300
  C     -2.316650  -13.756900   70.732800
  H     -1.988810  -12.720100   70.703900
  H     -1.656610  -14.317100   70.090700
  C     -2.167170  -14.270800   72.125800
  H     -2.619110  -15.258700   72.215300
  H     -2.763070  -13.640800   72.711900
  C     -0.651094  -14.398500   72.522600
  H     -0.060023  -14.893300   71.722700
  H     -0.512228  -14.965600   73.449600
  H     -0.185019  -13.441700   72.614200
  H     -0.902315  -18.836800   68.820900
  H     -7.023150  -13.050000   69.880300

 Total Charge           Charge          ....    0
 Multiplicity           Mult            ....    1
 Number of Electrons    NEL             ....  134
 Basis Dimension        Dim             ....  322

ORBITAL ENERGIES
----------------

  NO   OCC          E(Eh)            E(eV)
   0   2.0000     -88.968322     -2420.9511
   1   2.0000     -88.964366     -2420.8435
   2   2.0000     -10.331474      -281.1337
   3   2.0000     -10.321190      -280.8539
   4   2.0000     -10.320966      -280.8478
   5   2.0000     -10.305250      -280.4201
   6   2.0000     -10.302923      -280.3568
   7   2.0000     -10.300983      -280.3040
   8   2.0000     -10.299253      -280.2569
   9   2.0000     -10.296419      -280.1798
  10   2.0000     -10.294162      -280.1184
  11   2.0000     -10.285915      -279.8940
  12   2.0000     -10.282445      -279.7996
  13   2.0000     -10.280444      -279.7451
  14   2.0000     -10.279531      -279.7202
  15   2.0000     -10.276643      -279.6417
  16   2.0000      -8.083668      -219.9678
  17   2.0000      -8.078268      -219.8209
  18   2.0000      -6.042212      -164.4169
  19   2.0000      -6.038011      -164.3026
  20   2.0000      -6.036924      -164.2731
  21   2.0000      -6.034416      -164.2048
  22   2.0000      -6.033138      -164.1700
  23   2.0000      -6.028679      -164.0487
  24   2.0000      -1.014706       -27.6116
  25   2.0000      -0.982736       -26.7416
  26   2.0000      -0.913196       -24.8493
  27   2.0000      -0.908426       -24.7195
  28   2.0000      -0.867111       -23.5953
  29   2.0000      -0.849888       -23.1266
  30   2.0000      -0.841782       -22.9061
  31   2.0000      -0.811766       -22.0893
  32   2.0000      -0.786081       -21.3904
  33   2.0000      -0.775217       -21.0947
  34   2.0000      -0.712265       -19.3817
  35   2.0000      -0.706072       -19.2132
  36   2.0000      -0.694427       -18.8963
  37   2.0000      -0.658864       -17.9286
  38   2.0000      -0.636653       -17.3242
  39   2.0000      -0.610525       -16.6132
  40   2.0000      -0.593669       -16.1545
  41   2.0000      -0.578440       -15.7402
  42   2.0000      -0.566128       -15.4051
  43   2.0000      -0.557604       -15.1732
  44   2.0000      -0.534044       -14.5321
  45   2.0000      -0.520770       -14.1709
  46   2.0000      -0.516761       -14.0618
  47   2.0000      -0.508328       -13.8323
  48   2.0000      -0.506727       -13.7887
  49   2.0000      -0.496704       -13.5160
  50   2.0000      -0.487962       -13.2781
  51   2.0000      -0.480243       -13.0681
  52   2.0000      -0.468927       -12.7601
  53   2.0000      -0.463765       -12.6197
  54   2.0000      -0.459126       -12.4935
  55   2.0000      -0.446152       -12.1404
  56   2.0000      -0.444397       -12.0927
  57   2.0000      -0.439087       -11.9482
  58   2.0000      -0.433015       -11.7829
  59   2.0000      -0.424993       -11.5646
  60   2.0000      -0.421910       -11.4808
  61   2.0000      -0.420358       -11.4385
  62   2.0000      -0.415386       -11.3032
  63   2.0000      -0.354229        -9.6391
  64   2.0000      -0.329147        -8.9566
  65   2.0000      -0.325253        -8.8506
  66   2.0000      -0.294286        -8.0079
  67   0.0000       0.032180         0.8757
  68   0.0000       0.078778         2.1436
  69   0.0000       0.101435         2.7602
  70   0.0000       0.123134         3.3507
  71   0.0000       0.126622         3.4456

MULLIKEN ATOMIC CHARGES
-----------------------
   0 S :    0.105844
   1 C :   -0.060432
   2 C :   -0.123038
   3 C :    0.007510
   4 C :   -0.105117
   5 H :   -0.001996
   6 C :    0.078726
   7 H :    0.041284
   8 H :    0.037950
   9 C :   -0.116365
  10 H :    0.033900
  11 H :    0.040800
  12 C :   -0.037689
  13 H :    0.027393
  14 H :    0.027542
  15 H :    0.032328
  16 S :    0.086399
  17 C :   -0.102541
  18 C :   -0.053227
  19 C :   -0.044252
  20 C :   -0.133526
  21 H :    0.041123
  22 C :    0.020306
  23 H :    0.021312
  24 H :    0.018864
  25 C :   -0.011238
  26 H :    0.024508
  27 H :    0.011482
  28 C :   -0.047643
  29 H :    0.031885
  30 H :    0.042785
  31 H :    0.024442
  32 H :    0.005458
  33 H :    0.075223
Sum of atomic charges:   -0.0000000

LOEWDIN ATOMIC CHARGES
----------------------
   0 S :    0.463535
   1 C :   -0.206064
   2 C :   -0.062973
   3 C :   -0.063157
   4 C :   -0.204154
   5 H :    0.023087
   6 C :   -0.033143
   7 H :    0.034318
   8 H :    0.036978
   9 C :   -0.040491
  10 H :    0.026222
  11 H :    0.027072
  12 C :   -0.068602
  13 H :    0.027807
  14 H :    0.022278
  15 H :    0.024634
  16 S :    0.376613
  17 C :   -0.189567
  18 C :   -0.077155
  19 C :   -0.061188
  20 C :   -0.166837
  21 H :    0.039669
  22 C :   -0.039899
  23 H :    0.028530
  24 H :    0.013334
  25 C :   -0.036657
  26 H :    0.018220
  27 H :    0.016623
  28 C :   -0.060825
  29 H :    0.027679
  30 H :    0.029350
  31 H :    0.019933
  32 H :    0.016101
  33 H :    0.038731

  Mayer bond orders larger than 0.100000
B(  0-S ,  1-C ) :   1.1459 B(  0-S ,  4-C ) :   1.1314 B(  1-C ,  2-C ) :   1.6220
B(  1-C , 32-H ) :   0.9626 B(  2-C ,  3-C ) :   1.2543 B(  2-C ,  6-C ) :   1.0162
B(  3-C ,  4-C ) :   1.5894 B(  3-C ,  5-H ) :   0.9970 B(  4-C , 20-C ) :   1.0213
B(  6-C ,  7-H ) :   0.9305 B(  6-C ,  8-H ) :   0.9418 B(  6-C ,  9-C ) :   1.0846
B(  9-C , 10-H ) :   0.9580 B(  9-C , 11-H ) :   0.9519 B(  9-C , 12-C ) :   1.0599
B( 12-C , 13-H ) :   0.9770 B( 12-C , 14-H ) :   0.9758 B( 12-C , 15-H ) :   0.9777
B( 16-S , 17-C ) :   1.1273 B( 16-S , 20-C ) :   1.1367 B( 17-C , 18-C ) :   1.6355
B( 17-C , 33-H ) :   0.9650 B( 18-C , 19-C ) :   1.2102 B( 18-C , 21-H ) :   0.9761
B( 19-C , 20-C ) :   1.6065 B( 19-C , 22-C ) :   1.0567 B( 22-C , 23-H ) :   0.9283
B( 22-C , 24-H ) :   0.9261 B( 22-C , 25-C ) :   1.0612 B( 25-C , 26-H ) :   0.9512
B( 25-C , 27-H ) :   0.9515 B( 25-C , 28-C ) :   1.0671 B( 28-C , 29-H ) :   0.9742
B( 28-C , 30-H ) :   0.9761 B( 28-C , 31-H ) :   0.9772

Dispersion correction           -0.014727680
FINAL SINGLE POINT ENERGY     -1339.875415953822

DIPOLE MOMENT
-------------
                                X             Y             Z
Electronic contribution:    -11.99042      10.18218      -2.24376
Nuclear contribution   :     12.15109     -10.38950       2.23757
                        -----------------------------------------
Total Dipole Moment    :      0.16067      -0.20732      -0.00619
                        -----------------------------------------
Magnitude (a.u.)       :      0.26236
Magnitude (Debye)      :      0.66688

Rotational constants in cm-1:     0.021171     0.008685     0.006608
Rotational constants in MHz :   634.681858   260.363580   198.104627

                             ****ORCA TERMINATED NORMALLY****
TOTAL RUN TIME: 0 days 0 hours 0 minutes 36 seconds 990 msec
