                         Program Version 4.2.1 -  RELEASE  -
|  1> ! wB97X-D3 SP def2-SVP
|  2> %pal
|  3> nprocs 16
|  4> end
|  5>
|  6> * xyz 0 1
|  7> S 	 12.1948 	 -14.0655 	 79.4323
|  8> C 	 12.4856 	 -12.6943 	 80.4964
|  9> C 	 13.8694 	 -12.4411 	 80.6243
| 10> C 	 14.6483 	 -13.387 	 79.8725
| 11> C 	 13.9786 	 -14.431 	 79.2612
| 12> H 	 15.7632 	 -13.4481 	 79.8742
| 13> C 	 14.5537 	 -11.2462 	 81.4184
| 14> H 	 15.359 	 -11.622 	 81.9697
| 15> H 	 13.9295 	 -10.9605 	 82.1851
| 16> C 	 15.0109 	 -10.1412 	 80.4888
| 17> H 	 15.8999 	 -10.3111 	 79.9282
| 18> H 	 14.3279 	 -9.95728 	 79.6258
| 19> C 	 14.9326 	 -8.77189 	 81.2044
| 20> H 	 13.8952 	 -8.29407 	 81.3019
| 21> H 	 15.2377 	 -8.89204 	 82.2633
| 22> H 	 15.667 	 -8.03444 	 80.8057
| 23> S 	 13.9128 	 -17.1059 	 78.9789
| 24> C 	 15.1264 	 -17.9014 	 78.0814
| 25> C 	 15.7334 	 -17.0101 	 77.2657
| 26> C 	 15.3781 	 -15.6511 	 77.441
| 27> C 	 14.4706 	 -15.5777 	 78.5175
| 28> H 	 16.4755 	 -17.3641 	 76.5706
| 29> C 	 15.9323 	 -14.4508 	 76.6133
| 30> H 	 17.0078 	 -14.5725 	 76.4553
| 31> H 	 15.9046 	 -13.581 	 77.3011
| 32> C 	 15.2349 	 -14.2108 	 75.3058
| 33> H 	 14.1592 	 -14.408 	 75.3461
| 34> H 	 15.6481 	 -15.0022 	 74.6076
| 35> C 	 15.5 	 -12.7484 	 74.8274
| 36> H 	 15.2692 	 -11.9885 	 75.4665
| 37> H 	 15.1435 	 -12.554 	 73.7705
| 38> H 	 16.5795 	 -12.7114 	 74.7831
| 39> H 	 11.7914 	 -12.0004 	 81.0184
| 40> H 	 15.2692 	 -18.9967 	 77.9048
| 41> *
| 42>
| 43>                          ****END OF INPUT****

CARTESIAN COORDINATES (ANGSTROEM)
---------------------------------
  S     12.194800  -14.065500   79.432300
  C     12.485600  -12.694300   80.496400
  C     13.869400  -12.441100   80.624300
  C     14.648300  -13.387000   79.872500
  C     13.978600  -14.431000   79.261200
  H     15.763200  -13.448100   79.874200
  C     14.553700  -11.246200   81.418400
  H     15.359000  -11.622000   81.969700
  H     13.929500  -10.960500   82.185100
  C     15.010900  -10.141200   80.488800
  H     15.899900  -10.311100   79.928200
  H     14.327900   -9.957280   79.625800
  C     14.932600   -8.771890   81.204400
  H     13.895200   -8.294070   81.301900
  H     15.237700   -8.892040   82.263300
  H     15.667000   -8.034440   80.805700
  S     13.912800  -17.105900   78.978900
  C     15.126400  -17.901400   78.081400
  C     15.733400  -17.010100   77.265700
  C     15.378100  -15.651100   77.441000
  C     14.470600  -15.577700   78.517500
  H     16.475500  -17.364100   76.570600
  C     15.932300  -14.450800   76.613300
  H     17.007800  -14.572500   76.455300
  H     15.904600  -13.581000   77.301100
  C     15.234900  -14.210800   75.305800
  H     14.159200  -14.408000   75.346100
  H     15.648100  -15.002200   74.607600
  C     15.500000  -12.748400   74.827400
  H     15.269200  -11.988500   75.466500
  H     15.143500  -12.554000   73.770500
  H     16.579500  -12.711400   74.783100
  H     11.791400  -12.000400   81.018400
  H     15.269200  -18.996700   77.904800

 Total Charge           Charge          ....    0
 Multiplicity           Mult            ....    1
 Number of Electrons    NEL             ....  134
 Basis Dimension        Dim             ....  322

ORBITAL ENERGIES
----------------

  NO   OCC          E(Eh)            E(eV)
   0   2.0000     -88.966190     -2420.8931
   1   2.0000     -88.965320     -2420.8694
   2   2.0000     -10.334678      -281.2209
   3   2.0000     -10.325738      -280.9776
   4   2.0000     -10.321215      -280.8545
   5   2.0000     -10.313172      -280.6357
   6   2.0000     -10.307202      -280.4732
   7   2.0000     -10.307194      -280.4730
   8   2.0000     -10.298440      -280.2348
   9   2.0000     -10.295637      -280.1585
  10   2.0000     -10.290735      -280.0251
  11   2.0000     -10.289753      -279.9984
  12   2.0000     -10.288652      -279.9685
  13   2.0000     -10.287897      -279.9479
  14   2.0000     -10.287656      -279.9414
  15   2.0000     -10.275869      -279.6206
  16   2.0000      -8.082825      -219.9449
  17   2.0000      -8.078492      -219.8269
  18   2.0000      -6.041119      -164.3872
  19   2.0000      -6.037185      -164.2802
  20   2.0000      -6.037037      -164.2761
  21   2.0000      -6.033694      -164.1852
  22   2.0000      -6.033235      -164.1727
  23   2.0000      -6.029107      -164.0603
  24   2.0000      -1.014899       -27.6168
  25   2.0000      -0.977432       -26.5973
  26   2.0000      -0.910019       -24.7629
  27   2.0000      -0.909408       -24.7462
  28   2.0000      -0.870970       -23.7003
  29   2.0000      -0.851210       -23.1626
  30   2.0000      -0.837795       -22.7975
  31   2.0000      -0.813709       -22.1421
  32   2.0000      -0.782290       -21.2872
  33   2.0000      -0.770904       -20.9774
  34   2.0000      -0.710210       -19.3258
  35   2.0000      -0.702963       -19.1286
  36   2.0000      -0.696189       -18.9443
  37   2.0000      -0.658526       -17.9194
  38   2.0000      -0.637980       -17.3603
  39   2.0000      -0.614442       -16.7198
  40   2.0000      -0.596817       -16.2402
  41   2.0000      -0.566384       -15.4121
  42   2.0000      -0.561223       -15.2717
  43   2.0000      -0.553927       -15.0731
  44   2.0000      -0.527508       -14.3542
  45   2.0000      -0.524721       -14.2784
  46   2.0000      -0.516281       -14.0487
  47   2.0000      -0.511693       -13.9239
  48   2.0000      -0.501741       -13.6531
  49   2.0000      -0.501021       -13.6335
  50   2.0000      -0.490921       -13.3586
  51   2.0000      -0.479326       -13.0431
  52   2.0000      -0.475684       -12.9440
  53   2.0000      -0.467271       -12.7151
  54   2.0000      -0.456962       -12.4346
  55   2.0000      -0.452011       -12.2998
  56   2.0000      -0.447014       -12.1639
  57   2.0000      -0.438598       -11.9349
  58   2.0000      -0.431054       -11.7296
  59   2.0000      -0.423457       -11.5229
  60   2.0000      -0.418434       -11.3862
  61   2.0000      -0.411530       -11.1983
  62   2.0000      -0.402079       -10.9411
  63   2.0000      -0.348053        -9.4710
  64   2.0000      -0.332277        -9.0417
  65   2.0000      -0.327415        -8.9094
  66   2.0000      -0.292688        -7.9644
  67   0.0000       0.028886         0.7860
  68   0.0000       0.066056         1.7975
  69   0.0000       0.115426         3.1409
  70   0.0000       0.126172         3.4333
  71   0.0000       0.129542         3.5250

MULLIKEN ATOMIC CHARGES
-----------------------
   0 S :    0.093049
   1 C :   -0.115500
   2 C :   -0.141812
   3 C :    0.025235
   4 C :   -0.148330
   5 H :    0.030165
   6 C :    0.141753
   7 H :    0.017032
   8 H :   -0.002609
   9 C :   -0.050720
  10 H :    0.024218
  11 H :    0.037107
  12 C :   -0.112411
  13 H :    0.053869
  14 H :    0.025767
  15 H :    0.041077
  16 S :    0.134857
  17 C :   -0.092610
  18 C :   -0.057428
  19 C :   -0.016658
  20 C :   -0.192383
  21 H :    0.009581
  22 C :    0.059309
  23 H :    0.025632
  24 H :    0.017331
  25 C :   -0.070752
  26 H :    0.042192
  27 H :    0.035829
  28 C :   -0.024659
  29 H :    0.024413
  30 H :    0.045365
  31 H :    0.011207
  32 H :    0.059628
  33 H :    0.071254
Sum of atomic charges:   -0.0000000

LOEWDIN ATOMIC CHARGES
----------------------
   0 S :    0.365358
   1 C :   -0.205794
   2 C :   -0.060894
   3 C :   -0.071616
   4 C :   -0.172556
   5 H :    0.036437
   6 C :   -0.015798
   7 H :    0.028379
   8 H :    0.020123
   9 C :   -0.047069
  10 H :    0.022040
  11 H :    0.033441
  12 C :   -0.078124
  13 H :    0.034598
  14 H :    0.020373
  15 H :    0.028974
  16 S :    0.458168
  17 C :   -0.212503
  18 C :   -0.076841
  19 C :   -0.048805
  20 C :   -0.223545
  21 H :    0.027721
  22 C :   -0.034419
  23 H :    0.029817
  24 H :    0.030187
  25 C :   -0.041060
  26 H :    0.024661
  27 H :    0.031558
  28 C :   -0.059402
  29 H :    0.013060
  30 H :    0.034848
  31 H :    0.023631
  32 H :    0.040499
  33 H :    0.044555

  Mayer bond orders larger than 0.100000
B(  0-S ,  1-C ) :   1.1338 B(  0-S ,  4-C ) :   1.1143 B(  1-C ,  2-C ) :   1.6282
B(  1-C ,  4-C ) :   0.1055 B(  1-C , 32-H ) :   0.9590 B(  2-C ,  3-C ) :   1.2343
B(  2-C ,  6-C ) :   1.0207 B(  3-C ,  4-C ) :   1.6182 B(  3-C ,  5-H ) :   0.9782
B(  4-C , 20-C ) :   1.0427 B(  6-C ,  7-H ) :   0.9323 B(  6-C ,  8-H ) :   0.9446
B(  6-C ,  9-C ) :   1.0434 B(  9-C , 10-H ) :   0.9586 B(  9-C , 11-H ) :   0.9624
B(  9-C , 12-C ) :   1.0627 B( 12-C , 13-H ) :   0.9784 B( 12-C , 14-H ) :   0.9770
B( 12-C , 15-H ) :   0.9746 B( 16-S , 17-C ) :   1.1619 B( 16-S , 20-C ) :   1.1838
B( 17-C , 18-C ) :   1.5954 B( 17-C , 20-C ) :   0.1001 B( 17-C , 33-H ) :   0.9603
B( 18-C , 19-C ) :   1.2756 B( 18-C , 21-H ) :   0.9898 B( 19-C , 20-C ) :   1.5286
B( 19-C , 22-C ) :   1.0309 B( 22-C , 23-H ) :   0.9320 B( 22-C , 24-H ) :   0.9374
B( 22-C , 25-C ) :   1.0515 B( 25-C , 26-H ) :   0.9624 B( 25-C , 27-H ) :   0.9534
B( 25-C , 28-C ) :   1.0696 B( 28-C , 29-H ) :   0.9800 B( 28-C , 30-H ) :   0.9743
B( 28-C , 31-H ) :   0.9702

Dispersion correction           -0.013719804
FINAL SINGLE POINT ENERGY     -1339.853647058957

DIPOLE MOMENT
-------------
                                X             Y             Z
Electronic contribution:    -13.34516     -26.01572       6.45805
Nuclear contribution   :     13.93426      26.38115      -6.61930
                        -----------------------------------------
Total Dipole Moment    :      0.58910       0.36542      -0.16125
                        -----------------------------------------
Magnitude (a.u.)       :      0.71174
Magnitude (Debye)      :      1.80909

Rotational constants in cm-1:     0.018020     0.008278     0.006566
Rotational constants in MHz :   540.233969   248.161828   196.849839

                             ****ORCA TERMINATED NORMALLY****
TOTAL RUN TIME: 0 days 0 hours 0 minutes 29 seconds 991 msec
