                         Program Version 4.2.1 -  RELEASE  -
|  1> ! wB97X-D3 SP def2-SVP
|  2> %pal
|  3> nprocs 16
|  4> end
|  5>
|  6> * xyz 0 1
|  7> S 	 5.80225 	 26.6101 	 69.3577
|  8> C 	 5.07087 	 26.435 	 67.7015
|  9> C 	 6.02415 	 26.8084 	 66.7629
| 10> C 	 7.32226 	 27.1849 	 67.318
| 11> C 	 7.32762 	 27.241 	 68.6978
| 12> H 	 8.14593 	 27.5527 	 66.7869
| 13> C 	 5.69892 	 26.7539 	 65.2431
| 14> H 	 6.32771 	 27.391 	 64.6068
| 15> H 	 4.69683 	 27.3005 	 65.1034
| 16> C 	 5.68735 	 25.3444 	 64.6537
| 17> H 	 6.69699 	 25.0133 	 65.0853
| 18> H 	 4.95298 	 24.6653 	 65.1206
| 19> C 	 5.5604 	 25.3331 	 63.1064
| 20> H 	 4.6588 	 25.9087 	 62.9025
| 21> H 	 6.45096 	 25.7573 	 62.6595
| 22> H 	 5.38716 	 24.346 	 62.7037
| 23> S 	 9.08888 	 26.8452 	 70.8635
| 24> C 	 10.5448 	 27.8028 	 70.9437
| 25> C 	 10.4219 	 28.9394 	 70.1175
| 26> C 	 9.16886 	 28.9716 	 69.3936
| 27> C 	 8.44098 	 27.7938 	 69.5425
| 28> H 	 11.1778 	 29.7229 	 70.0394
| 29> C 	 8.67037 	 30.2279 	 68.5658
| 30> H 	 8.44796 	 30.9369 	 69.3912
| 31> H 	 7.75689 	 29.7985 	 68.163
| 32> C 	 9.64308 	 30.7934 	 67.5914
| 33> H 	 10.1166 	 29.9928 	 66.9942
| 34> H 	 10.4397 	 31.1603 	 68.1129
| 35> C 	 9.0839 	 31.9582 	 66.7206
| 36> H 	 9.84837 	 32.6244 	 66.3781
| 37> H 	 8.46978 	 32.5866 	 67.4051
| 38> H 	 8.54437 	 31.5956 	 65.8969
| 39> H 	 4.11078 	 26.0238 	 67.4279
| 40> H 	 11.352 	 27.4571 	 71.5963
| 41> *
| 42>
| 43>                          ****END OF INPUT****

CARTESIAN COORDINATES (ANGSTROEM)
---------------------------------
  S      5.802250   26.610100   69.357700
  C      5.070870   26.435000   67.701500
  C      6.024150   26.808400   66.762900
  C      7.322260   27.184900   67.318000
  C      7.327620   27.241000   68.697800
  H      8.145930   27.552700   66.786900
  C      5.698920   26.753900   65.243100
  H      6.327710   27.391000   64.606800
  H      4.696830   27.300500   65.103400
  C      5.687350   25.344400   64.653700
  H      6.696990   25.013300   65.085300
  H      4.952980   24.665300   65.120600
  C      5.560400   25.333100   63.106400
  H      4.658800   25.908700   62.902500
  H      6.450960   25.757300   62.659500
  H      5.387160   24.346000   62.703700
  S      9.088880   26.845200   70.863500
  C     10.544800   27.802800   70.943700
  C     10.421900   28.939400   70.117500
  C      9.168860   28.971600   69.393600
  C      8.440980   27.793800   69.542500
  H     11.177800   29.722900   70.039400
  C      8.670370   30.227900   68.565800
  H      8.447960   30.936900   69.391200
  H      7.756890   29.798500   68.163000
  C      9.643080   30.793400   67.591400
  H     10.116600   29.992800   66.994200
  H     10.439700   31.160300   68.112900
  C      9.083900   31.958200   66.720600
  H      9.848370   32.624400   66.378100
  H      8.469780   32.586600   67.405100
  H      8.544370   31.595600   65.896900
  H      4.110780   26.023800   67.427900
  H     11.352000   27.457100   71.596300

 Total Charge           Charge          ....    0
 Multiplicity           Mult            ....    1
 Number of Electrons    NEL             ....  134
 Basis Dimension        Dim             ....  322

ORBITAL ENERGIES
----------------

  NO   OCC          E(Eh)            E(eV)
   0   2.0000     -88.966621     -2420.9048
   1   2.0000     -88.964578     -2420.8492
   2   2.0000     -10.338971      -281.3377
   3   2.0000     -10.330927      -281.1188
   4   2.0000     -10.326669      -281.0030
   5   2.0000     -10.321616      -280.8654
   6   2.0000     -10.310028      -280.5501
   7   2.0000     -10.309940      -280.5477
   8   2.0000     -10.303332      -280.3679
   9   2.0000     -10.300249      -280.2840
  10   2.0000     -10.296515      -280.1824
  11   2.0000     -10.295264      -280.1484
  12   2.0000     -10.293392      -280.0974
  13   2.0000     -10.281295      -279.7683
  14   2.0000     -10.281100      -279.7629
  15   2.0000     -10.277729      -279.6712
  16   2.0000      -8.079820      -219.8631
  17   2.0000      -8.079768      -219.8617
  18   2.0000      -6.038613      -164.3190
  19   2.0000      -6.038206      -164.3079
  20   2.0000      -6.034546      -164.2083
  21   2.0000      -6.034201      -164.1990
  22   2.0000      -6.030589      -164.1007
  23   2.0000      -6.030337      -164.0938
  24   2.0000      -0.999207       -27.1898
  25   2.0000      -0.975947       -26.5569
  26   2.0000      -0.911352       -24.7991
  27   2.0000      -0.906016       -24.6540
  28   2.0000      -0.863341       -23.4927
  29   2.0000      -0.848992       -23.1022
  30   2.0000      -0.838576       -22.8188
  31   2.0000      -0.814199       -22.1555
  32   2.0000      -0.782895       -21.3037
  33   2.0000      -0.771855       -21.0032
  34   2.0000      -0.709400       -19.3038
  35   2.0000      -0.697007       -18.9665
  36   2.0000      -0.693241       -18.8640
  37   2.0000      -0.658225       -17.9112
  38   2.0000      -0.641449       -17.4547
  39   2.0000      -0.613565       -16.6959
  40   2.0000      -0.593575       -16.1520
  41   2.0000      -0.573432       -15.6039
  42   2.0000      -0.569224       -15.4894
  43   2.0000      -0.557383       -15.1672
  44   2.0000      -0.531664       -14.4673
  45   2.0000      -0.522047       -14.2056
  46   2.0000      -0.516555       -14.0562
  47   2.0000      -0.509614       -13.8673
  48   2.0000      -0.506042       -13.7701
  49   2.0000      -0.502768       -13.6810
  50   2.0000      -0.492921       -13.4131
  51   2.0000      -0.478490       -13.0204
  52   2.0000      -0.472848       -12.8668
  53   2.0000      -0.463484       -12.6120
  54   2.0000      -0.458812       -12.4849
  55   2.0000      -0.449349       -12.2274
  56   2.0000      -0.445645       -12.1266
  57   2.0000      -0.438442       -11.9306
  58   2.0000      -0.434776       -11.8309
  59   2.0000      -0.424715       -11.5571
  60   2.0000      -0.417403       -11.3581
  61   2.0000      -0.412401       -11.2220
  62   2.0000      -0.405154       -11.0248
  63   2.0000      -0.343985        -9.3603
  64   2.0000      -0.331007        -9.0072
  65   2.0000      -0.329070        -8.9544
  66   2.0000      -0.295637        -8.0447
  67   0.0000       0.027489         0.7480
  68   0.0000       0.062249         1.6939
  69   0.0000       0.102685         2.7942
  70   0.0000       0.121138         3.2963
  71   0.0000       0.125397         3.4122

MULLIKEN ATOMIC CHARGES
-----------------------
   0 S :    0.091163
   1 C :   -0.104903
   2 C :   -0.097032
   3 C :    0.064726
   4 C :   -0.138489
   5 H :   -0.005031
   6 C :    0.015651
   7 H :    0.018630
   8 H :    0.033405
   9 C :   -0.107078
  10 H :    0.037377
  11 H :    0.033063
  12 C :   -0.019957
  13 H :    0.030330
  14 H :    0.038979
  15 H :    0.035908
  16 S :    0.102756
  17 C :   -0.109016
  18 C :   -0.027748
  19 C :   -0.080544
  20 C :   -0.164675
  21 H :    0.027357
  22 C :    0.080768
  23 H :    0.048076
  24 H :    0.033258
  25 C :   -0.063280
  26 H :    0.028224
  27 H :    0.000634
  28 C :   -0.018083
  29 H :    0.026236
  30 H :    0.028265
  31 H :    0.034531
  32 H :    0.050841
  33 H :    0.075657
Sum of atomic charges:    0.0000000

LOEWDIN ATOMIC CHARGES
----------------------
   0 S :    0.363032
   1 C :   -0.175324
   2 C :   -0.057604
   3 C :   -0.060818
   4 C :   -0.175090
   5 H :    0.023895
   6 C :   -0.043888
   7 H :    0.026460
   8 H :    0.031453
   9 C :   -0.050252
  10 H :    0.031748
  11 H :    0.022307
  12 C :   -0.061482
  13 H :    0.027723
  14 H :    0.026547
  15 H :    0.026528
  16 S :    0.406601
  17 C :   -0.182243
  18 C :   -0.076470
  19 C :   -0.050889
  20 C :   -0.208672
  21 H :    0.031391
  22 C :   -0.024668
  23 H :    0.040603
  24 H :    0.029712
  25 C :   -0.043836
  26 H :    0.027255
  27 H :    0.010685
  28 C :   -0.053787
  29 H :    0.024096
  30 H :    0.031093
  31 H :    0.019257
  32 H :    0.031498
  33 H :    0.033139

  Mayer bond orders larger than 0.100000
B(  0-S ,  1-C ) :   1.1076 B(  0-S ,  4-C ) :   1.1403 B(  1-C ,  2-C ) :   1.6417
B(  1-C , 32-H ) :   0.9718 B(  2-C ,  3-C ) :   1.2067 B(  2-C ,  6-C ) :   1.0170
B(  3-C ,  4-C ) :   1.5934 B(  3-C ,  5-H ) :   1.0027 B(  4-C , 20-C ) :   1.0102
B(  6-C ,  7-H ) :   0.9500 B(  6-C ,  8-H ) :   0.9401 B(  6-C ,  9-C ) :   1.0416
B(  9-C , 10-H ) :   0.9576 B(  9-C , 11-H ) :   0.9595 B(  9-C , 12-C ) :   1.0686
B( 12-C , 13-H ) :   0.9734 B( 12-C , 14-H ) :   0.9759 B( 12-C , 15-H ) :   0.9760
B( 16-S , 17-C ) :   1.1750 B( 16-S , 20-C ) :   1.1403 B( 17-C , 18-C ) :   1.5650
B( 17-C , 33-H ) :   0.9715 B( 18-C , 19-C ) :   1.2482 B( 18-C , 21-H ) :   0.9924
B( 19-C , 20-C ) :   1.5950 B( 19-C , 22-C ) :   1.0094 B( 22-C , 23-H ) :   0.9293
B( 22-C , 24-H ) :   0.9400 B( 22-C , 25-C ) :   1.0703 B( 25-C , 26-H ) :   0.9585
B( 25-C , 27-H ) :   0.9444 B( 25-C , 28-C ) :   1.0825 B( 28-C , 29-H ) :   0.9756
B( 28-C , 30-H ) :   0.9722 B( 28-C , 31-H ) :   0.9799

Dispersion correction           -0.013717913
FINAL SINGLE POINT ENERGY     -1339.865034804740

DIPOLE MOMENT
-------------
                                X             Y             Z
Electronic contribution:      0.73430     -10.56567      28.11010
Nuclear contribution   :     -0.47390      10.96701     -28.71021
                        -----------------------------------------
Total Dipole Moment    :      0.26040       0.40134      -0.60010
                        -----------------------------------------
Magnitude (a.u.)       :      0.76747
Magnitude (Debye)      :      1.95075

Rotational constants in cm-1:     0.016868     0.008042     0.006171
Rotational constants in MHz :   505.699192   241.094514   185.002091

                             ****ORCA TERMINATED NORMALLY****
TOTAL RUN TIME: 0 days 0 hours 0 minutes 33 seconds 278 msec
