                         Program Version 4.2.1 -  RELEASE  -
|  1> ! wB97X-D3 SP def2-SVP
|  2> %pal
|  3> nprocs 16
|  4> end
|  5>
|  6> * xyz 0 1
|  7> S 	 55.0472 	 7.32079 	 62.9423
|  8> C 	 55.9572 	 8.41645 	 63.9189
|  9> C 	 56.1564 	 9.60219 	 63.218
| 10> C 	 55.7652 	 9.59245 	 61.8477
| 11> C 	 55.0575 	 8.42122 	 61.5868
| 12> H 	 55.8011 	 10.3182 	 61.0956
| 13> C 	 56.7673 	 10.8923 	 63.7997
| 14> H 	 57.73 	 10.9901 	 63.4024
| 15> H 	 56.7435 	 10.8286 	 64.9219
| 16> C 	 55.8569 	 12.1245 	 63.5922
| 17> H 	 55.3734 	 12.168 	 62.5397
| 18> H 	 54.9783 	 11.9779 	 64.2433
| 19> C 	 56.4656 	 13.424 	 64.1242
| 20> H 	 56.8916 	 13.3628 	 65.0914
| 21> H 	 57.2037 	 13.7074 	 63.4284
| 22> H 	 55.7322 	 14.2201 	 64.0197
| 23> S 	 53.0384 	 8.72149 	 59.6444
| 24> C 	 53.4758 	 8.24689 	 58.0328
| 25> C 	 54.625 	 7.53999 	 58.0044
| 26> C 	 55.3502 	 7.47484 	 59.2338
| 27> C 	 54.5972 	 8.1088 	 60.2405
| 28> H 	 55.0079 	 7.1763 	 57.0456
| 29> C 	 56.7665 	 6.94724 	 59.2822
| 30> H 	 57.3656 	 7.57554 	 59.8656
| 31> H 	 57.1045 	 6.97681 	 58.2786
| 32> C 	 56.7738 	 5.57557 	 59.8935
| 33> H 	 56.3741 	 5.65123 	 60.8955
| 34> H 	 57.823 	 5.28223 	 60.1068
| 35> C 	 56.0275 	 4.56817 	 59.0085
| 36> H 	 54.9341 	 4.68734 	 59.1043
| 37> H 	 56.3539 	 3.57577 	 59.2496
| 38> H 	 56.4064 	 4.71064 	 57.9702
| 39> H 	 56.5245 	 8.26906 	 64.8858
| 40> H 	 52.864 	 8.32314 	 57.2286
| 41> *
| 42>
| 43>                          ****END OF INPUT****

CARTESIAN COORDINATES (ANGSTROEM)
---------------------------------
  S     55.047200    7.320790   62.942300
  C     55.957200    8.416450   63.918900
  C     56.156400    9.602190   63.218000
  C     55.765200    9.592450   61.847700
  C     55.057500    8.421220   61.586800
  H     55.801100   10.318200   61.095600
  C     56.767300   10.892300   63.799700
  H     57.730000   10.990100   63.402400
  H     56.743500   10.828600   64.921900
  C     55.856900   12.124500   63.592200
  H     55.373400   12.168000   62.539700
  H     54.978300   11.977900   64.243300
  C     56.465600   13.424000   64.124200
  H     56.891600   13.362800   65.091400
  H     57.203700   13.707400   63.428400
  H     55.732200   14.220100   64.019700
  S     53.038400    8.721490   59.644400
  C     53.475800    8.246890   58.032800
  C     54.625000    7.539990   58.004400
  C     55.350200    7.474840   59.233800
  C     54.597200    8.108800   60.240500
  H     55.007900    7.176300   57.045600
  C     56.766500    6.947240   59.282200
  H     57.365600    7.575540   59.865600
  H     57.104500    6.976810   58.278600
  C     56.773800    5.575570   59.893500
  H     56.374100    5.651230   60.895500
  H     57.823000    5.282230   60.106800
  C     56.027500    4.568170   59.008500
  H     54.934100    4.687340   59.104300
  H     56.353900    3.575770   59.249600
  H     56.406400    4.710640   57.970200
  H     56.524500    8.269060   64.885800
  H     52.864000    8.323140   57.228600

 Total Charge           Charge          ....    0
 Multiplicity           Mult            ....    1
 Number of Electrons    NEL             ....  134
 Basis Dimension        Dim             ....  322

ORBITAL ENERGIES
----------------

  NO   OCC          E(Eh)            E(eV)
   0   2.0000     -88.970765     -2421.0176
   1   2.0000     -88.964973     -2420.8600
   2   2.0000     -10.326032      -280.9856
   3   2.0000     -10.325110      -280.9605
   4   2.0000     -10.316367      -280.7226
   5   2.0000     -10.304930      -280.4114
   6   2.0000     -10.301404      -280.3154
   7   2.0000     -10.300986      -280.3041
   8   2.0000     -10.291351      -280.0419
   9   2.0000     -10.290746      -280.0254
  10   2.0000     -10.290694      -280.0240
  11   2.0000     -10.287846      -279.9465
  12   2.0000     -10.279316      -279.7144
  13   2.0000     -10.277690      -279.6702
  14   2.0000     -10.274859      -279.5931
  15   2.0000     -10.271193      -279.4934
  16   2.0000      -8.084974      -220.0033
  17   2.0000      -8.079528      -219.8551
  18   2.0000      -6.043445      -164.4505
  19   2.0000      -6.039392      -164.3402
  20   2.0000      -6.037993      -164.3021
  21   2.0000      -6.035965      -164.2470
  22   2.0000      -6.034122      -164.1968
  23   2.0000      -6.030309      -164.0931
  24   2.0000      -1.005924       -27.3726
  25   2.0000      -0.984930       -26.8013
  26   2.0000      -0.915772       -24.9194
  27   2.0000      -0.908107       -24.7109
  28   2.0000      -0.870113       -23.6770
  29   2.0000      -0.851148       -23.1609
  30   2.0000      -0.843411       -22.9504
  31   2.0000      -0.812955       -22.1216
  32   2.0000      -0.784983       -21.3605
  33   2.0000      -0.771944       -21.0057
  34   2.0000      -0.710713       -19.3395
  35   2.0000      -0.692855       -18.8535
  36   2.0000      -0.687708       -18.7135
  37   2.0000      -0.657772       -17.8989
  38   2.0000      -0.643904       -17.5215
  39   2.0000      -0.614385       -16.7183
  40   2.0000      -0.598186       -16.2775
  41   2.0000      -0.566262       -15.4088
  42   2.0000      -0.563312       -15.3285
  43   2.0000      -0.556662       -15.1475
  44   2.0000      -0.548230       -14.9181
  45   2.0000      -0.520350       -14.1594
  46   2.0000      -0.518936       -14.1210
  47   2.0000      -0.509117       -13.8538
  48   2.0000      -0.503216       -13.6932
  49   2.0000      -0.501937       -13.6584
  50   2.0000      -0.485305       -13.2058
  51   2.0000      -0.484490       -13.1836
  52   2.0000      -0.474151       -12.9023
  53   2.0000      -0.470408       -12.8005
  54   2.0000      -0.457880       -12.4596
  55   2.0000      -0.449455       -12.2303
  56   2.0000      -0.441374       -12.0104
  57   2.0000      -0.432564       -11.7707
  58   2.0000      -0.429076       -11.6757
  59   2.0000      -0.426351       -11.6016
  60   2.0000      -0.419534       -11.4161
  61   2.0000      -0.411369       -11.1939
  62   2.0000      -0.407366       -11.0850
  63   2.0000      -0.337611        -9.1869
  64   2.0000      -0.330650        -8.9974
  65   2.0000      -0.312870        -8.5136
  66   2.0000      -0.311861        -8.4862
  67   0.0000       0.042736         1.1629
  68   0.0000       0.055342         1.5059
  69   0.0000       0.115979         3.1559
  70   0.0000       0.126949         3.4544
  71   0.0000       0.127738         3.4759

MULLIKEN ATOMIC CHARGES
-----------------------
   0 S :    0.129429
   1 C :   -0.135675
   2 C :   -0.104200
   3 C :    0.063855
   4 C :   -0.173098
   5 H :    0.002252
   6 C :    0.091638
   7 H :    0.028939
   8 H :    0.023965
   9 C :   -0.158420
  10 H :    0.045102
  11 H :    0.030345
  12 C :    0.009481
  13 H :    0.030591
  14 H :    0.013437
  15 H :    0.029969
  16 S :    0.111050
  17 C :   -0.046197
  18 C :   -0.038681
  19 C :   -0.051635
  20 C :   -0.216500
  21 H :    0.016779
  22 C :    0.169194
  23 H :    0.008390
  24 H :    0.007049
  25 C :   -0.081276
  26 H :    0.017492
  27 H :    0.021934
  28 C :   -0.042051
  29 H :    0.061876
  30 H :    0.026021
  31 H :    0.022140
  32 H :    0.072792
  33 H :    0.014012
Sum of atomic charges:   -0.0000000

LOEWDIN ATOMIC CHARGES
----------------------
   0 S :    0.429561
   1 C :   -0.231299
   2 C :   -0.061541
   3 C :   -0.047911
   4 C :   -0.198185
   5 H :    0.025850
   6 C :   -0.029608
   7 H :    0.019887
   8 H :    0.034543
   9 C :   -0.050652
  10 H :    0.029727
  11 H :    0.025119
  12 C :   -0.058224
  13 H :    0.022351
  14 H :    0.018634
  15 H :    0.030091
  16 S :    0.397508
  17 C :   -0.173131
  18 C :   -0.072910
  19 C :   -0.040325
  20 C :   -0.202568
  21 H :    0.030922
  22 C :   -0.018343
  23 H :    0.026074
  24 H :    0.023347
  25 C :   -0.040969
  26 H :    0.013644
  27 H :    0.022944
  28 C :   -0.064809
  29 H :    0.033865
  30 H :    0.022415
  31 H :    0.026030
  32 H :    0.049423
  33 H :    0.008540

  Mayer bond orders larger than 0.100000
B(  0-S ,  1-C ) :   1.1357 B(  0-S ,  4-C ) :   1.1654 B(  1-C ,  2-C ) :   1.6216
B(  1-C , 32-H ) :   0.9565 B(  2-C ,  3-C ) :   1.2283 B(  2-C ,  6-C ) :   1.0168
B(  3-C ,  4-C ) :   1.5724 B(  3-C ,  5-H ) :   0.9990 B(  4-C , 20-C ) :   1.0197
B(  6-C ,  7-H ) :   0.9434 B(  6-C ,  8-H ) :   0.9470 B(  6-C ,  9-C ) :   1.0485
B(  9-C , 10-H ) :   0.9564 B(  9-C , 11-H ) :   0.9591 B(  9-C , 12-C ) :   1.0803
B( 12-C , 13-H ) :   0.9716 B( 12-C , 14-H ) :   0.9739 B( 12-C , 15-H ) :   0.9714
B( 16-S , 17-C ) :   1.1460 B( 16-S , 20-C ) :   1.1436 B( 17-C , 18-C ) :   1.6363
B( 17-C , 33-H ) :   0.9742 B( 18-C , 19-C ) :   1.2373 B( 18-C , 21-H ) :   0.9816
B( 19-C , 20-C ) :   1.5931 B( 19-C , 22-C ) :   1.0273 B( 22-C , 23-H ) :   0.9168
B( 22-C , 24-H ) :   0.9348 B( 22-C , 25-C ) :   1.0861 B( 25-C , 26-H ) :   0.9496
B( 25-C , 27-H ) :   0.9549 B( 25-C , 28-C ) :   1.0668 B( 28-C , 29-H ) :   0.9713
B( 28-C , 30-H ) :   0.9735 B( 28-C , 31-H ) :   0.9747

Dispersion correction           -0.015137279
FINAL SINGLE POINT ENERGY     -1339.865617892564

DIPOLE MOMENT
-------------
                                X             Y             Z
Electronic contribution:    -14.32341      -6.21066      -2.07985
Nuclear contribution   :     14.86056       6.44956       1.95637
                        -----------------------------------------
Total Dipole Moment    :      0.53715       0.23891      -0.12348
                        -----------------------------------------
Magnitude (a.u.)       :      0.60071
Magnitude (Debye)      :      1.52689

Rotational constants in cm-1:     0.021532     0.008098     0.006930
Rotational constants in MHz :   645.514065   242.773793   207.766959

                             ****ORCA TERMINATED NORMALLY****
TOTAL RUN TIME: 0 days 0 hours 0 minutes 28 seconds 970 msec
