                         Program Version 4.2.1 -  RELEASE  -
|  1> ! wB97X-D3 SP def2-SVP
|  2> %pal
|  3> nprocs 16
|  4> end
|  5>
|  6> * xyz 0 1
|  7> S 	 -101.776 	 43.6031 	 123.242
|  8> C 	 -103.091 	 44.0662 	 124.351
|  9> C 	 -103.755 	 45.1635 	 123.846
| 10> C 	 -103.14 	 45.7512 	 122.704
| 11> C 	 -102.195 	 44.8612 	 122.174
| 12> H 	 -103.453 	 46.7041 	 122.261
| 13> C 	 -104.841 	 45.8774 	 124.566
| 14> H 	 -104.89 	 45.3417 	 125.506
| 15> H 	 -105.734 	 45.7031 	 123.868
| 16> C 	 -104.652 	 47.2988 	 124.866
| 17> H 	 -103.715 	 47.4216 	 125.426
| 18> H 	 -104.548 	 47.7503 	 123.869
| 19> C 	 -105.84 	 48.0363 	 125.534
| 20> H 	 -105.851 	 49.1321 	 125.382
| 21> H 	 -106.754 	 47.7146 	 125.016
| 22> H 	 -105.902 	 47.6409 	 126.573
| 23> S 	 -99.7342 	 45.1052 	 121.063
| 24> C 	 -99.6405 	 45.5729 	 119.381
| 25> C 	 -100.884 	 45.6037 	 118.741
| 26> C 	 -101.996 	 45.2475 	 119.647
| 27> C 	 -101.496 	 45.0385 	 120.93
| 28> H 	 -101.056 	 45.7856 	 117.655
| 29> C 	 -103.427 	 45.4263 	 119.248
| 30> H 	 -103.977 	 45.5919 	 120.169
| 31> H 	 -103.831 	 44.5361 	 118.831
| 32> C 	 -103.829 	 46.5465 	 118.33
| 33> H 	 -104.913 	 46.514 	 118.017
| 34> H 	 -103.193 	 46.4938 	 117.45
| 35> C 	 -103.639 	 47.9429 	 118.996
| 36> H 	 -104.242 	 48.0692 	 119.938
| 37> H 	 -103.964 	 48.7397 	 118.295
| 38> H 	 -102.629 	 48.199 	 119.22
| 39> H 	 -103.453 	 43.5445 	 125.211
| 40> H 	 -98.6649 	 45.7354 	 118.837
| 41> *
| 42>
| 43>                          ****END OF INPUT****

CARTESIAN COORDINATES (ANGSTROEM)
---------------------------------
  S    -101.776000   43.603100  123.242000
  C    -103.091000   44.066200  124.351000
  C    -103.755000   45.163500  123.846000
  C    -103.140000   45.751200  122.704000
  C    -102.195000   44.861200  122.174000
  H    -103.453000   46.704100  122.261000
  C    -104.841000   45.877400  124.566000
  H    -104.890000   45.341700  125.506000
  H    -105.734000   45.703100  123.868000
  C    -104.652000   47.298800  124.866000
  H    -103.715000   47.421600  125.426000
  H    -104.548000   47.750300  123.869000
  C    -105.840000   48.036300  125.534000
  H    -105.851000   49.132100  125.382000
  H    -106.754000   47.714600  125.016000
  H    -105.902000   47.640900  126.573000
  S    -99.734200   45.105200  121.063000
  C    -99.640500   45.572900  119.381000
  C    -100.884000   45.603700  118.741000
  C    -101.996000   45.247500  119.647000
  C    -101.496000   45.038500  120.930000
  H    -101.056000   45.785600  117.655000
  C    -103.427000   45.426300  119.248000
  H    -103.977000   45.591900  120.169000
  H    -103.831000   44.536100  118.831000
  C    -103.829000   46.546500  118.330000
  H    -104.913000   46.514000  118.017000
  H    -103.193000   46.493800  117.450000
  C    -103.639000   47.942900  118.996000
  H    -104.242000   48.069200  119.938000
  H    -103.964000   48.739700  118.295000
  H    -102.629000   48.199000  119.220000
  H    -103.453000   43.544500  125.211000
  H    -98.664900   45.735400  118.837000

 Total Charge           Charge          ....    0
 Multiplicity           Mult            ....    1
 Number of Electrons    NEL             ....  134
 Basis Dimension        Dim             ....  322

ORBITAL ENERGIES
----------------

  NO   OCC          E(Eh)            E(eV)
   0   2.0000     -88.968381     -2420.9527
   1   2.0000     -88.968211     -2420.9481
   2   2.0000     -10.326425      -280.9963
   3   2.0000     -10.325669      -280.9757
   4   2.0000     -10.325362      -280.9674
   5   2.0000     -10.310913      -280.5742
   6   2.0000     -10.308651      -280.5127
   7   2.0000     -10.303629      -280.3760
   8   2.0000     -10.295149      -280.1453
   9   2.0000     -10.293610      -280.1034
  10   2.0000     -10.293246      -280.0935
  11   2.0000     -10.288571      -279.9663
  12   2.0000     -10.286507      -279.9101
  13   2.0000     -10.285411      -279.8803
  14   2.0000     -10.284241      -279.8484
  15   2.0000     -10.280058      -279.7346
  16   2.0000      -8.083205      -219.9552
  17   2.0000      -8.082904      -219.9470
  18   2.0000      -6.041653      -164.4017
  19   2.0000      -6.041446      -164.3961
  20   2.0000      -6.037752      -164.2956
  21   2.0000      -6.037573      -164.2907
  22   2.0000      -6.033934      -164.1917
  23   2.0000      -6.033512      -164.1802
  24   2.0000      -1.008908       -27.4538
  25   2.0000      -0.980967       -26.6935
  26   2.0000      -0.923806       -25.1380
  27   2.0000      -0.914216       -24.8771
  28   2.0000      -0.869149       -23.6507
  29   2.0000      -0.850328       -23.1386
  30   2.0000      -0.841973       -22.9112
  31   2.0000      -0.810742       -22.0614
  32   2.0000      -0.785827       -21.3834
  33   2.0000      -0.773745       -21.0547
  34   2.0000      -0.711560       -19.3625
  35   2.0000      -0.695977       -18.9385
  36   2.0000      -0.690145       -18.7798
  37   2.0000      -0.654154       -17.8004
  38   2.0000      -0.633811       -17.2469
  39   2.0000      -0.623231       -16.9590
  40   2.0000      -0.599344       -16.3090
  41   2.0000      -0.578206       -15.7338
  42   2.0000      -0.558212       -15.1897
  43   2.0000      -0.555487       -15.1156
  44   2.0000      -0.545624       -14.8472
  45   2.0000      -0.523288       -14.2394
  46   2.0000      -0.517638       -14.0857
  47   2.0000      -0.507342       -13.8055
  48   2.0000      -0.505445       -13.7539
  49   2.0000      -0.500469       -13.6185
  50   2.0000      -0.495936       -13.4951
  51   2.0000      -0.479549       -13.0492
  52   2.0000      -0.466667       -12.6986
  53   2.0000      -0.462763       -12.5924
  54   2.0000      -0.457051       -12.4370
  55   2.0000      -0.454040       -12.3551
  56   2.0000      -0.450058       -12.2467
  57   2.0000      -0.437393       -11.9021
  58   2.0000      -0.431320       -11.7368
  59   2.0000      -0.426087       -11.5944
  60   2.0000      -0.422509       -11.4971
  61   2.0000      -0.416143       -11.3238
  62   2.0000      -0.405877       -11.0445
  63   2.0000      -0.340862        -9.2753
  64   2.0000      -0.331175        -9.0117
  65   2.0000      -0.330206        -8.9853
  66   2.0000      -0.291318        -7.9272
  67   0.0000       0.030260         0.8234
  68   0.0000       0.068255         1.8573
  69   0.0000       0.103075         2.8048
  70   0.0000       0.115228         3.1355
  71   0.0000       0.125790         3.4229

MULLIKEN ATOMIC CHARGES
-----------------------
   0 S :    0.116805
   1 C :   -0.113068
   2 C :   -0.108792
   3 C :    0.016538
   4 C :   -0.149964
   5 H :    0.026857
   6 C :    0.078486
   7 H :    0.000809
   8 H :    0.044151
   9 C :   -0.104254
  10 H :    0.040930
  11 H :    0.019340
  12 C :   -0.034850
  13 H :    0.049669
  14 H :    0.017318
  15 H :    0.041767
  16 S :    0.114289
  17 C :   -0.105087
  18 C :   -0.059413
  19 C :   -0.031280
  20 C :   -0.170738
  21 H :    0.040379
  22 C :    0.113969
  23 H :    0.005699
  24 H :    0.027266
  25 C :   -0.085380
  26 H :    0.045187
  27 H :    0.024862
  28 C :   -0.083003
  29 H :    0.034315
  30 H :    0.034236
  31 H :    0.035989
  32 H :    0.038874
  33 H :    0.078093
Sum of atomic charges:   -0.0000000

LOEWDIN ATOMIC CHARGES
----------------------
   0 S :    0.417071
   1 C :   -0.199901
   2 C :   -0.061420
   3 C :   -0.066970
   4 C :   -0.202483
   5 H :    0.032384
   6 C :   -0.039296
   7 H :    0.024312
   8 H :    0.042079
   9 C :   -0.048570
  10 H :    0.028940
  11 H :    0.021152
  12 C :   -0.067066
  13 H :    0.033133
  14 H :    0.024636
  15 H :    0.030380
  16 S :    0.398664
  17 C :   -0.195288
  18 C :   -0.076011
  19 C :   -0.046328
  20 C :   -0.195003
  21 H :    0.036879
  22 C :   -0.037458
  23 H :    0.029683
  24 H :    0.032206
  25 C :   -0.038698
  26 H :    0.036320
  27 H :    0.018714
  28 C :   -0.072448
  29 H :    0.025794
  30 H :    0.028525
  31 H :    0.020243
  32 H :    0.025133
  33 H :    0.040691

  Mayer bond orders larger than 0.100000
B(  0-S ,  1-C ) :   1.1092 B(  0-S ,  4-C ) :   1.1833 B(  1-C ,  2-C ) :   1.6253
B(  1-C , 32-H ) :   0.9657 B(  2-C ,  3-C ) :   1.2349 B(  2-C ,  6-C ) :   1.0325
B(  3-C ,  4-C ) :   1.5422 B(  3-C ,  5-H ) :   0.9836 B(  4-C , 20-C ) :   1.0321
B(  6-C ,  7-H ) :   0.9342 B(  6-C ,  8-H ) :   0.9171 B(  6-C ,  9-C ) :   1.0895
B(  9-C , 10-H ) :   0.9555 B(  9-C , 11-H ) :   0.9420 B(  9-C , 12-C ) :   1.0815
B( 12-C , 13-H ) :   0.9750 B( 12-C , 14-H ) :   0.9707 B( 12-C , 15-H ) :   0.9745
B( 16-S , 17-C ) :   1.1433 B( 16-S , 20-C ) :   1.1344 B( 17-C , 18-C ) :   1.6324
B( 17-C , 33-H ) :   0.9590 B( 18-C , 19-C ) :   1.2106 B( 18-C , 21-H ) :   0.9758
B( 19-C , 20-C ) :   1.6209 B( 19-C , 22-C ) :   1.0426 B( 22-C , 23-H ) :   0.9317
B( 22-C , 24-H ) :   0.9127 B( 22-C , 25-C ) :   1.0854 B( 25-C , 26-H ) :   0.9523
B( 25-C , 27-H ) :   0.9477 B( 25-C , 28-C ) :   1.0771 B( 28-C , 29-H ) :   0.9723
B( 28-C , 30-H ) :   0.9744 B( 28-C , 31-H ) :   0.9766

Dispersion correction           -0.014498009
FINAL SINGLE POINT ENERGY     -1339.872662917305

DIPOLE MOMENT
-------------
                                X             Y             Z
Electronic contribution:     23.54718     -19.03640       0.55251
Nuclear contribution   :    -24.05726      19.43528      -0.77952
                        -----------------------------------------
Total Dipole Moment    :     -0.51008       0.39888      -0.22701
                        -----------------------------------------
Magnitude (a.u.)       :      0.68617
Magnitude (Debye)      :      1.74410

Rotational constants in cm-1:     0.017904     0.009221     0.006896
Rotational constants in MHz :   536.736206   276.435674   206.732918

                             ****ORCA TERMINATED NORMALLY****
TOTAL RUN TIME: 0 days 0 hours 0 minutes 34 seconds 522 msec
