                         Program Version 4.2.1 -  RELEASE  -
|  1> ! wB97X-D3 SP def2-SVP
|  2> %pal
|  3> nprocs 16
|  4> end
|  5>
|  6> * xyz 0 1
|  7> S 	 -2.96024 	 74.53 	 53.4526
|  8> C 	 -2.25461 	 72.9548 	 53.2587
|  9> C 	 -3.20344 	 71.9815 	 52.9426
| 10> C 	 -4.56463 	 72.4442 	 53.2325
| 11> C 	 -4.59874 	 73.8397 	 53.39
| 12> H 	 -5.48667 	 71.8928 	 53.2686
| 13> C 	 -2.77566 	 70.5793 	 52.3863
| 14> H 	 -2.04864 	 70.0377 	 53.0428
| 15> H 	 -2.34983 	 70.8873 	 51.4083
| 16> C 	 -4.08952 	 69.7352 	 52.147
| 17> H 	 -4.65854 	 69.4219 	 53.0642
| 18> H 	 -4.77032 	 70.3983 	 51.6467
| 19> C 	 -3.92928 	 68.4433 	 51.3289
| 20> H 	 -4.84456 	 67.8346 	 51.3563
| 21> H 	 -3.79617 	 68.9074 	 50.3242
| 22> H 	 -3.09947 	 67.8048 	 51.6286
| 23> S 	 -5.63702 	 76.1274 	 54.6354
| 24> C 	 -7.3375 	 76.496 	 54.5703
| 25> C 	 -7.98872 	 75.6013 	 53.7332
| 26> C 	 -7.16973 	 74.5283 	 53.2189
| 27> C 	 -5.82708 	 74.6719 	 53.5902
| 28> H 	 -9.03916 	 75.678 	 53.577
| 29> C 	 -7.78525 	 73.5997 	 52.2277
| 30> H 	 -6.95472 	 73.2641 	 51.5017
| 31> H 	 -8.52171 	 74.111 	 51.6345
| 32> C 	 -8.45988 	 72.2829 	 52.7421
| 33> H 	 -9.16972 	 72.4103 	 53.515
| 34> H 	 -7.78087 	 71.5246 	 53.25
| 35> C 	 -9.07654 	 71.3373 	 51.6827
| 36> H 	 -8.30317 	 71.0654 	 51.0726
| 37> H 	 -9.7487 	 71.8307 	 50.9984
| 38> H 	 -9.70623 	 70.5155 	 52.147
| 39> H 	 -1.25556 	 72.8745 	 53.0607
| 40> H 	 -7.70623 	 77.3958 	 55.0727
| 41> *
| 42>
| 43>                          ****END OF INPUT****

CARTESIAN COORDINATES (ANGSTROEM)
---------------------------------
  S     -2.960240   74.530000   53.452600
  C     -2.254610   72.954800   53.258700
  C     -3.203440   71.981500   52.942600
  C     -4.564630   72.444200   53.232500
  C     -4.598740   73.839700   53.390000
  H     -5.486670   71.892800   53.268600
  C     -2.775660   70.579300   52.386300
  H     -2.048640   70.037700   53.042800
  H     -2.349830   70.887300   51.408300
  C     -4.089520   69.735200   52.147000
  H     -4.658540   69.421900   53.064200
  H     -4.770320   70.398300   51.646700
  C     -3.929280   68.443300   51.328900
  H     -4.844560   67.834600   51.356300
  H     -3.796170   68.907400   50.324200
  H     -3.099470   67.804800   51.628600
  S     -5.637020   76.127400   54.635400
  C     -7.337500   76.496000   54.570300
  C     -7.988720   75.601300   53.733200
  C     -7.169730   74.528300   53.218900
  C     -5.827080   74.671900   53.590200
  H     -9.039160   75.678000   53.577000
  C     -7.785250   73.599700   52.227700
  H     -6.954720   73.264100   51.501700
  H     -8.521710   74.111000   51.634500
  C     -8.459880   72.282900   52.742100
  H     -9.169720   72.410300   53.515000
  H     -7.780870   71.524600   53.250000
  C     -9.076540   71.337300   51.682700
  H     -8.303170   71.065400   51.072600
  H     -9.748700   71.830700   50.998400
  H     -9.706230   70.515500   52.147000
  H     -1.255560   72.874500   53.060700
  H     -7.706230   77.395800   55.072700

 Total Charge           Charge          ....    0
 Multiplicity           Mult            ....    1
 Number of Electrons    NEL             ....  134
 Basis Dimension        Dim             ....  322

ORBITAL ENERGIES
----------------

  NO   OCC          E(Eh)            E(eV)
   0   2.0000     -88.967657     -2420.9330
   1   2.0000     -88.963865     -2420.8298
   2   2.0000     -10.338712      -281.3306
   3   2.0000     -10.338200      -281.3167
   4   2.0000     -10.321564      -280.8640
   5   2.0000     -10.311710      -280.5959
   6   2.0000     -10.309763      -280.5429
   7   2.0000     -10.309089      -280.5246
   8   2.0000     -10.306571      -280.4561
   9   2.0000     -10.303958      -280.3849
  10   2.0000     -10.302077      -280.3338
  11   2.0000     -10.295528      -280.1556
  12   2.0000     -10.292025      -280.0602
  13   2.0000     -10.291446      -280.0445
  14   2.0000     -10.282401      -279.7984
  15   2.0000     -10.277531      -279.6658
  16   2.0000      -8.082001      -219.9224
  17   2.0000      -8.078247      -219.8203
  18   2.0000      -6.040621      -164.3736
  19   2.0000      -6.036813      -164.2700
  20   2.0000      -6.036611      -164.2645
  21   2.0000      -6.032730      -164.1589
  22   2.0000      -6.032633      -164.1563
  23   2.0000      -6.029042      -164.0586
  24   2.0000      -0.998484       -27.1701
  25   2.0000      -0.978758       -26.6334
  26   2.0000      -0.907184       -24.6857
  27   2.0000      -0.903608       -24.5884
  28   2.0000      -0.865827       -23.5603
  29   2.0000      -0.855973       -23.2922
  30   2.0000      -0.843524       -22.9535
  31   2.0000      -0.814209       -22.1558
  32   2.0000      -0.781991       -21.2791
  33   2.0000      -0.769599       -20.9419
  34   2.0000      -0.709580       -19.3087
  35   2.0000      -0.700553       -19.0630
  36   2.0000      -0.686116       -18.6702
  37   2.0000      -0.663271       -18.0485
  38   2.0000      -0.644174       -17.5289
  39   2.0000      -0.614520       -16.7219
  40   2.0000      -0.598644       -16.2899
  41   2.0000      -0.571616       -15.5545
  42   2.0000      -0.563298       -15.3281
  43   2.0000      -0.557577       -15.1724
  44   2.0000      -0.531183       -14.4542
  45   2.0000      -0.524341       -14.2680
  46   2.0000      -0.519540       -14.1374
  47   2.0000      -0.516354       -14.0507
  48   2.0000      -0.502495       -13.6736
  49   2.0000      -0.497694       -13.5429
  50   2.0000      -0.494151       -13.4465
  51   2.0000      -0.484694       -13.1892
  52   2.0000      -0.469505       -12.7759
  53   2.0000      -0.465027       -12.6540
  54   2.0000      -0.460839       -12.5401
  55   2.0000      -0.450027       -12.2459
  56   2.0000      -0.445667       -12.1272
  57   2.0000      -0.437319       -11.9001
  58   2.0000      -0.430575       -11.7165
  59   2.0000      -0.427132       -11.6228
  60   2.0000      -0.418947       -11.4001
  61   2.0000      -0.411876       -11.2077
  62   2.0000      -0.405737       -11.0407
  63   2.0000      -0.355872        -9.6838
  64   2.0000      -0.330893        -9.0040
  65   2.0000      -0.328398        -8.9362
  66   2.0000      -0.285527        -7.7696
  67   0.0000       0.019888         0.5412
  68   0.0000       0.077304         2.1036
  69   0.0000       0.098340         2.6760
  70   0.0000       0.115275         3.1368
  71   0.0000       0.117133         3.1874

MULLIKEN ATOMIC CHARGES
-----------------------
   0 S :    0.101816
   1 C :   -0.068506
   2 C :   -0.123625
   3 C :    0.013567
   4 C :   -0.113245
   5 H :   -0.003647
   6 C :    0.062128
   7 H :    0.061515
   8 H :    0.048955
   9 C :   -0.145396
  10 H :    0.039603
  11 H :    0.026815
  12 C :   -0.033988
  13 H :    0.038127
  14 H :    0.034719
  15 H :    0.040414
  16 S :    0.081806
  17 C :   -0.097527
  18 C :   -0.020810
  19 C :   -0.013892
  20 C :   -0.132335
  21 H :    0.012586
  22 C :    0.026117
  23 H :    0.041897
  24 H :    0.027792
  25 C :   -0.089182
  26 H :    0.014809
  27 H :    0.033181
  28 C :   -0.033372
  29 H :    0.011236
  30 H :    0.013131
  31 H :    0.052626
  32 H :    0.020169
  33 H :    0.072513
Sum of atomic charges:    0.0000000

LOEWDIN ATOMIC CHARGES
----------------------
   0 S :    0.397037
   1 C :   -0.192184
   2 C :   -0.053421
   3 C :   -0.064757
   4 C :   -0.179488
   5 H :    0.028283
   6 C :   -0.027891
   7 H :    0.038623
   8 H :    0.040289
   9 C :   -0.052037
  10 H :    0.025311
  11 H :    0.018113
  12 C :   -0.068921
  13 H :    0.028554
  14 H :    0.030837
  15 H :    0.024459
  16 S :    0.384508
  17 C :   -0.184069
  18 C :   -0.068244
  19 C :   -0.060385
  20 C :   -0.174574
  21 H :    0.026605
  22 C :   -0.033935
  23 H :    0.041692
  24 H :    0.031391
  25 C :   -0.045785
  26 H :    0.014310
  27 H :    0.028539
  28 C :   -0.063033
  29 H :    0.011127
  30 H :    0.017408
  31 H :    0.040159
  32 H :    0.007247
  33 H :    0.034231

  Mayer bond orders larger than 0.100000
B(  0-S ,  1-C ) :   1.1337 B(  0-S ,  4-C ) :   1.1515 B(  1-C ,  2-C ) :   1.6370
B(  1-C , 32-H ) :   0.9750 B(  2-C ,  3-C ) :   1.2163 B(  2-C ,  6-C ) :   0.9910
B(  3-C ,  4-C ) :   1.5641 B(  3-C ,  5-H ) :   0.9915 B(  4-C , 20-C ) :   1.0492
B(  6-C ,  7-H ) :   0.9481 B(  6-C ,  8-H ) :   0.9416 B(  6-C ,  9-C ) :   1.0764
B(  9-C , 10-H ) :   0.9561 B(  9-C , 11-H ) :   0.9549 B(  9-C , 12-C ) :   1.0710
B( 12-C , 13-H ) :   0.9737 B( 12-C , 14-H ) :   0.9804 B( 12-C , 15-H ) :   0.9760
B( 16-S , 17-C ) :   1.1584 B( 16-S , 20-C ) :   1.1318 B( 17-C , 18-C ) :   1.5905
B( 17-C , 33-H ) :   0.9686 B( 18-C , 19-C ) :   1.2391 B( 18-C , 21-H ) :   0.9942
B( 19-C , 20-C ) :   1.5889 B( 19-C , 22-C ) :   1.0484 B( 22-C , 23-H ) :   0.9372
B( 22-C , 24-H ) :   0.9401 B( 22-C , 25-C ) :   1.0453 B( 25-C , 26-H ) :   0.9565
B( 25-C , 27-H ) :   0.9525 B( 25-C , 28-C ) :   1.0740 B( 28-C , 29-H ) :   0.9761
B( 28-C , 30-H ) :   0.9729 B( 28-C , 31-H ) :   0.9735

Dispersion correction           -0.013955344
FINAL SINGLE POINT ENERGY     -1339.858377634271

DIPOLE MOMENT
-------------
                                X             Y             Z
Electronic contribution:     12.10940      29.60292      13.76901
Nuclear contribution   :    -12.49665     -30.09845     -14.12906
                        -----------------------------------------
Total Dipole Moment    :     -0.38725      -0.49553      -0.36005
                        -----------------------------------------
Magnitude (a.u.)       :      0.72467
Magnitude (Debye)      :      1.84196

Rotational constants in cm-1:     0.016042     0.009872     0.006271
Rotational constants in MHz :   480.938327   295.953115   188.010735

                             ****ORCA TERMINATED NORMALLY****
TOTAL RUN TIME: 0 days 0 hours 0 minutes 32 seconds 281 msec
