                         Program Version 4.2.1 -  RELEASE  -
|  1> ! wB97X-D3 SP def2-SVP
|  2> %pal
|  3> nprocs 16
|  4> end
|  5>
|  6> * xyz 0 1
|  7> S 	 -35.811 	 44.7445 	 95.9321
|  8> C 	 -37.0025 	 45.9334 	 96.3611
|  9> C 	 -38.3065 	 45.4179 	 96.4174
| 10> C 	 -38.2987 	 43.9856 	 96.032
| 11> C 	 -37.0746 	 43.5182 	 95.6812
| 12> H 	 -39.0889 	 43.2788 	 96.0836
| 13> C 	 -39.5525 	 46.2316 	 96.6301
| 14> H 	 -39.2767 	 47.2308 	 97.081
| 15> H 	 -40.2301 	 45.7223 	 97.3331
| 16> C 	 -40.4031 	 46.3897 	 95.3471
| 17> H 	 -40.8467 	 45.3871 	 95.2008
| 18> H 	 -41.2652 	 46.9923 	 95.6305
| 19> C 	 -39.6199 	 46.8781 	 94.0717
| 20> H 	 -38.8434 	 47.638 	 94.3905
| 21> H 	 -39.0211 	 46.0849 	 93.7035
| 22> H 	 -40.3753 	 47.2028 	 93.344
| 23> S 	 -35.8745 	 41.2986 	 96.8338
| 24> C 	 -36.0337 	 39.7503 	 96.1363
| 25> C 	 -36.9177 	 39.8204 	 95.0689
| 26> C 	 -37.2324 	 41.1397 	 94.6865
| 27> C 	 -36.7417 	 42.1159 	 95.5448
| 28> H 	 -37.1474 	 38.8336 	 94.6674
| 29> C 	 -38.11 	 41.4696 	 93.4644
| 30> H 	 -37.5701 	 41.0542 	 92.6493
| 31> H 	 -38.1968 	 42.5919 	 93.2897
| 32> C 	 -39.4816 	 40.7847 	 93.5044
| 33> H 	 -40.0587 	 41.2768 	 94.3015
| 34> H 	 -39.3093 	 39.7672 	 93.7053
| 35> C 	 -40.148 	 41.0309 	 92.128
| 36> H 	 -41.102 	 40.5365 	 92.0634
| 37> H 	 -39.7029 	 40.5018 	 91.317
| 38> H 	 -40.3127 	 42.0459 	 91.8692
| 39> H 	 -36.8098 	 46.9876 	 96.5705
| 40> H 	 -35.581 	 38.7893 	 96.4186
| 41> *
| 42>
| 43>                          ****END OF INPUT****

CARTESIAN COORDINATES (ANGSTROEM)
---------------------------------
  S    -35.811000   44.744500   95.932100
  C    -37.002500   45.933400   96.361100
  C    -38.306500   45.417900   96.417400
  C    -38.298700   43.985600   96.032000
  C    -37.074600   43.518200   95.681200
  H    -39.088900   43.278800   96.083600
  C    -39.552500   46.231600   96.630100
  H    -39.276700   47.230800   97.081000
  H    -40.230100   45.722300   97.333100
  C    -40.403100   46.389700   95.347100
  H    -40.846700   45.387100   95.200800
  H    -41.265200   46.992300   95.630500
  C    -39.619900   46.878100   94.071700
  H    -38.843400   47.638000   94.390500
  H    -39.021100   46.084900   93.703500
  H    -40.375300   47.202800   93.344000
  S    -35.874500   41.298600   96.833800
  C    -36.033700   39.750300   96.136300
  C    -36.917700   39.820400   95.068900
  C    -37.232400   41.139700   94.686500
  C    -36.741700   42.115900   95.544800
  H    -37.147400   38.833600   94.667400
  C    -38.110000   41.469600   93.464400
  H    -37.570100   41.054200   92.649300
  H    -38.196800   42.591900   93.289700
  C    -39.481600   40.784700   93.504400
  H    -40.058700   41.276800   94.301500
  H    -39.309300   39.767200   93.705300
  C    -40.148000   41.030900   92.128000
  H    -41.102000   40.536500   92.063400
  H    -39.702900   40.501800   91.317000
  H    -40.312700   42.045900   91.869200
  H    -36.809800   46.987600   96.570500
  H    -35.581000   38.789300   96.418600

 Total Charge           Charge          ....    0
 Multiplicity           Mult            ....    1
 Number of Electrons    NEL             ....  134
 Basis Dimension        Dim             ....  322

ORBITAL ENERGIES
----------------

  NO   OCC          E(Eh)            E(eV)
   0   2.0000     -88.966139     -2420.8917
   1   2.0000     -88.962039     -2420.7801
   2   2.0000     -10.328442      -281.0512
   3   2.0000     -10.322315      -280.8845
   4   2.0000     -10.319316      -280.8029
   5   2.0000     -10.315520      -280.6996
   6   2.0000     -10.308641      -280.5124
   7   2.0000     -10.302077      -280.3338
   8   2.0000     -10.298462      -280.2354
   9   2.0000     -10.297771      -280.2166
  10   2.0000     -10.291325      -280.0412
  11   2.0000     -10.290889      -280.0293
  12   2.0000     -10.288364      -279.9606
  13   2.0000     -10.286051      -279.8977
  14   2.0000     -10.281589      -279.7763
  15   2.0000     -10.271147      -279.4921
  16   2.0000      -8.080780      -219.8892
  17   2.0000      -8.077434      -219.7981
  18   2.0000      -6.039386      -164.3401
  19   2.0000      -6.035872      -164.2444
  20   2.0000      -6.035337      -164.2299
  21   2.0000      -6.031710      -164.1312
  22   2.0000      -6.031383      -164.1223
  23   2.0000      -6.028335      -164.0393
  24   2.0000      -1.008323       -27.4379
  25   2.0000      -0.983908       -26.7735
  26   2.0000      -0.909606       -24.7516
  27   2.0000      -0.908873       -24.7317
  28   2.0000      -0.871785       -23.7225
  29   2.0000      -0.848150       -23.0793
  30   2.0000      -0.840176       -22.8624
  31   2.0000      -0.815268       -22.1846
  32   2.0000      -0.782266       -21.2865
  33   2.0000      -0.773410       -21.0455
  34   2.0000      -0.709907       -19.3176
  35   2.0000      -0.701218       -19.0811
  36   2.0000      -0.692090       -18.8327
  37   2.0000      -0.653788       -17.7905
  38   2.0000      -0.642442       -17.4817
  39   2.0000      -0.618505       -16.8304
  40   2.0000      -0.593110       -16.1394
  41   2.0000      -0.569698       -15.5023
  42   2.0000      -0.566841       -15.4245
  43   2.0000      -0.547202       -14.8901
  44   2.0000      -0.546447       -14.8696
  45   2.0000      -0.523470       -14.2444
  46   2.0000      -0.515466       -14.0266
  47   2.0000      -0.509625       -13.8676
  48   2.0000      -0.502740       -13.6803
  49   2.0000      -0.498023       -13.5519
  50   2.0000      -0.491744       -13.3810
  51   2.0000      -0.480667       -13.0796
  52   2.0000      -0.472555       -12.8589
  53   2.0000      -0.463696       -12.6178
  54   2.0000      -0.460095       -12.5198
  55   2.0000      -0.449819       -12.2402
  56   2.0000      -0.440880       -11.9970
  57   2.0000      -0.436692       -11.8830
  58   2.0000      -0.433177       -11.7874
  59   2.0000      -0.428535       -11.6610
  60   2.0000      -0.423849       -11.5335
  61   2.0000      -0.415354       -11.3023
  62   2.0000      -0.407285       -11.0828
  63   2.0000      -0.346449        -9.4274
  64   2.0000      -0.328380        -8.9357
  65   2.0000      -0.322278        -8.7696
  66   2.0000      -0.300732        -8.1833
  67   0.0000       0.034971         0.9516
  68   0.0000       0.066108         1.7989
  69   0.0000       0.115929         3.1546
  70   0.0000       0.119921         3.2632
  71   0.0000       0.127691         3.4747

MULLIKEN ATOMIC CHARGES
-----------------------
   0 S :    0.109267
   1 C :   -0.110740
   2 C :   -0.098199
   3 C :    0.050903
   4 C :   -0.174203
   5 H :    0.006872
   6 C :    0.037024
   7 H :    0.031796
   8 H :    0.034144
   9 C :   -0.100654
  10 H :    0.024950
  11 H :    0.031918
  12 C :   -0.035471
  13 H :    0.035235
  14 H :    0.037780
  15 H :    0.050096
  16 S :    0.115443
  17 C :   -0.104630
  18 C :   -0.067207
  19 C :   -0.016215
  20 C :   -0.142625
  21 H :    0.020337
  22 C :    0.047420
  23 H :    0.017841
  24 H :    0.041650
  25 C :   -0.061001
  26 H :    0.032909
  27 H :    0.022394
  28 C :   -0.015061
  29 H :    0.014587
  30 H :    0.016857
  31 H :    0.028802
  32 H :    0.053381
  33 H :    0.064399
Sum of atomic charges:   -0.0000000

LOEWDIN ATOMIC CHARGES
----------------------
   0 S :    0.395595
   1 C :   -0.198500
   2 C :   -0.061548
   3 C :   -0.044150
   4 C :   -0.190390
   5 H :    0.027058
   6 C :   -0.040444
   7 H :    0.031674
   8 H :    0.034700
   9 C :   -0.043473
  10 H :    0.022169
  11 H :    0.022655
  12 C :   -0.066054
  13 H :    0.032624
  14 H :    0.023087
  15 H :    0.031605
  16 S :    0.423900
  17 C :   -0.201671
  18 C :   -0.085965
  19 C :   -0.057247
  20 C :   -0.209167
  21 H :    0.032636
  22 C :   -0.030403
  23 H :    0.024737
  24 H :    0.035205
  25 C :   -0.028025
  26 H :    0.025717
  27 H :    0.017462
  28 C :   -0.064050
  29 H :    0.024818
  30 H :    0.023408
  31 H :    0.022316
  32 H :    0.030778
  33 H :    0.038943

  Mayer bond orders larger than 0.100000
B(  0-S ,  1-C ) :   1.1382 B(  0-S ,  4-C ) :   1.1223 B(  1-C ,  2-C ) :   1.6310
B(  1-C , 32-H ) :   0.9616 B(  2-C ,  3-C ) :   1.1844 B(  2-C ,  6-C ) :   1.0455
B(  3-C ,  4-C ) :   1.6240 B(  3-C ,  5-H ) :   0.9951 B(  4-C , 20-C ) :   1.0281
B(  6-C ,  7-H ) :   0.9420 B(  6-C ,  8-H ) :   0.9375 B(  6-C ,  9-C ) :   1.0687
B(  9-C , 10-H ) :   0.9544 B(  9-C , 11-H ) :   0.9604 B(  9-C , 12-C ) :   1.0584
B( 12-C , 13-H ) :   0.9775 B( 12-C , 14-H ) :   0.9706 B( 12-C , 15-H ) :   0.9751
B( 16-S , 17-C ) :   1.1821 B( 16-S , 20-C ) :   1.1423 B( 17-C , 18-C ) :   1.5921
B( 17-C , 20-C ) :   0.1004 B( 17-C , 33-H ) :   0.9633 B( 18-C , 19-C ) :   1.2464
B( 18-C , 21-H ) :   0.9936 B( 19-C , 20-C ) :   1.5833 B( 19-C , 22-C ) :   1.0287
B( 22-C , 23-H ) :   0.9346 B( 22-C , 24-H ) :   0.9414 B( 22-C , 25-C ) :   1.0638
B( 25-C , 26-H ) :   0.9553 B( 25-C , 27-H ) :   0.9543 B( 25-C , 28-C ) :   1.0913
B( 28-C , 29-H ) :   0.9682 B( 28-C , 30-H ) :   0.9709 B( 28-C , 31-H ) :   0.9750

Dispersion correction           -0.014883845
FINAL SINGLE POINT ENERGY     -1339.877749471874

DIPOLE MOMENT
-------------
                                X             Y             Z
Electronic contribution:     24.43643      -4.94903      15.72579
Nuclear contribution   :    -25.11265       4.81075     -15.94235
                        -----------------------------------------
Total Dipole Moment    :     -0.67622      -0.13828      -0.21656
                        -----------------------------------------
Magnitude (a.u.)       :      0.72339
Magnitude (Debye)      :      1.83870

Rotational constants in cm-1:     0.016933     0.010065     0.007004
Rotational constants in MHz :   507.635933   301.750017   209.978657

                             ****ORCA TERMINATED NORMALLY****
TOTAL RUN TIME: 0 days 0 hours 0 minutes 31 seconds 79 msec
