                         Program Version 4.2.1 -  RELEASE  -
|  1> ! wB97X-D3 SP def2-SVP
|  2> %pal
|  3> nprocs 16
|  4> end
|  5>
|  6> * xyz 0 1
|  7> S 	 3.69617 	 -19.2913 	 86.346
|  8> C 	 3.85834 	 -20.4607 	 87.6723
|  9> C 	 4.87628 	 -20.1385 	 88.5577
| 10> C 	 5.467 	 -18.8871 	 88.2389
| 11> C 	 4.91314 	 -18.3108 	 87.1086
| 12> H 	 6.39702 	 -18.492 	 88.7461
| 13> C 	 5.35347 	 -20.9808 	 89.7239
| 14> H 	 6.24912 	 -21.3561 	 89.3414
| 15> H 	 4.73305 	 -21.869 	 89.9391
| 16> C 	 5.6899 	 -20.278 	 91.0952
| 17> H 	 6.08908 	 -21.1458 	 91.5905
| 18> H 	 6.37035 	 -19.5011 	 90.9354
| 19> C 	 4.58898 	 -19.802 	 92.1592
| 20> H 	 5.06592 	 -19.3476 	 93.1031
| 21> H 	 3.73902 	 -19.2192 	 91.7876
| 22> H 	 4.03513 	 -20.695 	 92.4831
| 23> S 	 6.47245 	 -16.9429 	 85.0595
| 24> C 	 6.21938 	 -15.2771 	 84.7438
| 25> C 	 5.50655 	 -14.7424 	 85.8055
| 26> C 	 5.06594 	 -15.7344 	 86.7774
| 27> C 	 5.33179 	 -17.0386 	 86.4643
| 28> H 	 5.27761 	 -13.6649 	 85.798
| 29> C 	 4.22495 	 -15.3886 	 88.0317
| 30> H 	 4.17944 	 -16.2945 	 88.6307
| 31> H 	 3.23756 	 -15.1793 	 87.6084
| 32> C 	 4.6166 	 -14.2107 	 88.8749
| 33> H 	 3.95803 	 -14.2542 	 89.7117
| 34> H 	 4.35508 	 -13.3535 	 88.3352
| 35> C 	 6.04103 	 -14.1713 	 89.3073
| 36> H 	 6.71613 	 -13.9587 	 88.4999
| 37> H 	 6.28646 	 -15.17 	 89.6892
| 38> H 	 6.17699 	 -13.3631 	 90.0672
| 39> H 	 3.2795 	 -21.3429 	 87.7242
| 40> H 	 6.49322 	 -14.7636 	 83.8476
| 41> *
| 42>
| 43>                          ****END OF INPUT****

CARTESIAN COORDINATES (ANGSTROEM)
---------------------------------
  S      3.696170  -19.291300   86.346000
  C      3.858340  -20.460700   87.672300
  C      4.876280  -20.138500   88.557700
  C      5.467000  -18.887100   88.238900
  C      4.913140  -18.310800   87.108600
  H      6.397020  -18.492000   88.746100
  C      5.353470  -20.980800   89.723900
  H      6.249120  -21.356100   89.341400
  H      4.733050  -21.869000   89.939100
  C      5.689900  -20.278000   91.095200
  H      6.089080  -21.145800   91.590500
  H      6.370350  -19.501100   90.935400
  C      4.588980  -19.802000   92.159200
  H      5.065920  -19.347600   93.103100
  H      3.739020  -19.219200   91.787600
  H      4.035130  -20.695000   92.483100
  S      6.472450  -16.942900   85.059500
  C      6.219380  -15.277100   84.743800
  C      5.506550  -14.742400   85.805500
  C      5.065940  -15.734400   86.777400
  C      5.331790  -17.038600   86.464300
  H      5.277610  -13.664900   85.798000
  C      4.224950  -15.388600   88.031700
  H      4.179440  -16.294500   88.630700
  H      3.237560  -15.179300   87.608400
  C      4.616600  -14.210700   88.874900
  H      3.958030  -14.254200   89.711700
  H      4.355080  -13.353500   88.335200
  C      6.041030  -14.171300   89.307300
  H      6.716130  -13.958700   88.499900
  H      6.286460  -15.170000   89.689200
  H      6.176990  -13.363100   90.067200
  H      3.279500  -21.342900   87.724200
  H      6.493220  -14.763600   83.847600

 Total Charge           Charge          ....    0
 Multiplicity           Mult            ....    1
 Number of Electrons    NEL             ....  134
 Basis Dimension        Dim             ....  322

ORBITAL ENERGIES
----------------

  NO   OCC          E(Eh)            E(eV)
   0   2.0000     -88.970184     -2421.0018
   1   2.0000     -88.954857     -2420.5847
   2   2.0000     -10.333353      -281.1848
   3   2.0000     -10.325428      -280.9692
   4   2.0000     -10.316387      -280.7232
   5   2.0000     -10.314026      -280.6589
   6   2.0000     -10.303011      -280.3592
   7   2.0000     -10.302709      -280.3510
   8   2.0000     -10.301330      -280.3135
   9   2.0000     -10.297325      -280.2045
  10   2.0000     -10.295824      -280.1636
  11   2.0000     -10.293469      -280.0995
  12   2.0000     -10.291076      -280.0344
  13   2.0000     -10.282101      -279.7902
  14   2.0000     -10.271828      -279.5106
  15   2.0000     -10.270002      -279.4610
  16   2.0000      -8.084551      -219.9918
  17   2.0000      -8.069775      -219.5897
  18   2.0000      -6.042969      -164.4376
  19   2.0000      -6.039155      -164.3338
  20   2.0000      -6.035378      -164.2310
  21   2.0000      -6.028376      -164.0404
  22   2.0000      -6.024191      -163.9266
  23   2.0000      -6.020463      -163.8251
  24   2.0000      -1.002383       -27.2762
  25   2.0000      -0.982199       -26.7270
  26   2.0000      -0.913110       -24.8470
  27   2.0000      -0.907473       -24.6936
  28   2.0000      -0.866071       -23.5670
  29   2.0000      -0.847670       -23.0663
  30   2.0000      -0.837537       -22.7905
  31   2.0000      -0.812123       -22.0990
  32   2.0000      -0.785888       -21.3851
  33   2.0000      -0.776294       -21.1240
  34   2.0000      -0.709725       -19.3126
  35   2.0000      -0.696975       -18.9657
  36   2.0000      -0.694493       -18.8981
  37   2.0000      -0.649872       -17.6839
  38   2.0000      -0.638615       -17.3776
  39   2.0000      -0.622304       -16.9338
  40   2.0000      -0.594103       -16.1664
  41   2.0000      -0.570528       -15.5249
  42   2.0000      -0.556278       -15.1371
  43   2.0000      -0.549577       -14.9548
  44   2.0000      -0.542331       -14.7576
  45   2.0000      -0.535907       -14.5828
  46   2.0000      -0.521864       -14.2006
  47   2.0000      -0.516310       -14.0495
  48   2.0000      -0.499496       -13.5920
  49   2.0000      -0.490355       -13.3432
  50   2.0000      -0.488225       -13.2853
  51   2.0000      -0.481233       -13.0950
  52   2.0000      -0.471786       -12.8380
  53   2.0000      -0.463657       -12.6167
  54   2.0000      -0.462476       -12.5846
  55   2.0000      -0.449373       -12.2281
  56   2.0000      -0.444284       -12.0896
  57   2.0000      -0.433807       -11.8045
  58   2.0000      -0.431952       -11.7540
  59   2.0000      -0.429582       -11.6895
  60   2.0000      -0.418727       -11.3942
  61   2.0000      -0.408986       -11.1291
  62   2.0000      -0.401173       -10.9165
  63   2.0000      -0.336273        -9.1505
  64   2.0000      -0.323794        -8.8109
  65   2.0000      -0.319129        -8.6839
  66   2.0000      -0.311033        -8.4636
  67   0.0000       0.037419         1.0182
  68   0.0000       0.058656         1.5961
  69   0.0000       0.111968         3.0468
  70   0.0000       0.118543         3.2257
  71   0.0000       0.132879         3.6158

MULLIKEN ATOMIC CHARGES
-----------------------
   0 S :    0.129394
   1 C :   -0.122396
   2 C :   -0.069338
   3 C :    0.020896
   4 C :   -0.195174
   5 H :    0.045029
   6 C :    0.080006
   7 H :    0.027592
   8 H :    0.020582
   9 C :   -0.071193
  10 H :    0.035052
  11 H :    0.027467
  12 C :   -0.083510
  13 H :    0.057514
  14 H :    0.042536
  15 H :    0.020457
  16 S :    0.083454
  17 C :   -0.085423
  18 C :   -0.047054
  19 C :   -0.042674
  20 C :   -0.165264
  21 H :    0.028767
  22 C :    0.055949
  23 H :    0.028400
  24 H :    0.036257
  25 C :   -0.026535
  26 H :    0.020005
  27 H :    0.004737
  28 C :   -0.037200
  29 H :    0.031907
  30 H :    0.023897
  31 H :    0.037918
  32 H :    0.029126
  33 H :    0.058823
Sum of atomic charges:   -0.0000000

LOEWDIN ATOMIC CHARGES
----------------------
   0 S :    0.413792
   1 C :   -0.185010
   2 C :   -0.063102
   3 C :   -0.063668
   4 C :   -0.196297
   5 H :    0.045008
   6 C :   -0.026004
   7 H :    0.032457
   8 H :    0.032368
   9 C :   -0.031908
  10 H :    0.030657
  11 H :    0.011891
  12 C :   -0.079922
  13 H :    0.040378
  14 H :    0.025244
  15 H :    0.023626
  16 S :    0.379234
  17 C :   -0.183934
  18 C :   -0.087873
  19 C :   -0.053023
  20 C :   -0.196063
  21 H :    0.033306
  22 C :   -0.028674
  23 H :    0.026690
  24 H :    0.036904
  25 C :   -0.042427
  26 H :    0.025896
  27 H :    0.013736
  28 C :   -0.061708
  29 H :    0.023382
  30 H :    0.025525
  31 H :    0.031246
  32 H :    0.017196
  33 H :    0.031082

  Mayer bond orders larger than 0.100000
B(  0-S ,  1-C ) :   1.1345 B(  0-S ,  4-C ) :   1.1701 B(  1-C ,  2-C ) :   1.6145
B(  1-C , 32-H ) :   0.9741 B(  2-C ,  3-C ) :   1.2418 B(  2-C ,  6-C ) :   1.0109
B(  3-C ,  4-C ) :   1.5847 B(  3-C ,  5-H ) :   0.9810 B(  4-C , 20-C ) :   1.0112
B(  6-C ,  7-H ) :   0.9256 B(  6-C ,  8-H ) :   0.9461 B(  6-C ,  9-C ) :   1.0732
B(  9-C , 10-H ) :   0.9584 B(  9-C , 11-H ) :   0.9607 B(  9-C , 12-C ) :   1.0577
B( 12-C , 13-H ) :   0.9741 B( 12-C , 14-H ) :   0.9795 B( 12-C , 15-H ) :   0.9749
B( 16-S , 17-C ) :   1.1716 B( 16-S , 20-C ) :   1.1094 B( 17-C , 18-C ) :   1.5992
B( 17-C , 33-H ) :   0.9717 B( 18-C , 19-C ) :   1.2138 B( 18-C , 21-H ) :   0.9905
B( 19-C , 20-C ) :   1.6310 B( 19-C , 22-C ) :   1.0277 B( 22-C , 23-H ) :   0.9340
B( 22-C , 24-H ) :   0.9335 B( 22-C , 25-C ) :   1.0907 B( 25-C , 26-H ) :   0.9478
B( 25-C , 27-H ) :   0.9435 B( 25-C , 28-C ) :   1.0932 B( 28-C , 29-H ) :   0.9677
B( 28-C , 30-H ) :   0.9748 B( 28-C , 31-H ) :   0.9722

Dispersion correction           -0.014469144
FINAL SINGLE POINT ENERGY     -1339.861946790321

DIPOLE MOMENT
-------------
                                X             Y             Z
Electronic contribution:     -0.56610      -4.81142     -28.14078
Nuclear contribution   :      0.51334       4.80129      28.71501
                        -----------------------------------------
Total Dipole Moment    :     -0.05277      -0.01013       0.57423
                        -----------------------------------------
Magnitude (a.u.)       :      0.57674
Magnitude (Debye)      :      1.46596

Rotational constants in cm-1:     0.017898     0.009046     0.006935
Rotational constants in MHz :   536.569378   271.198101   207.911907

                             ****ORCA TERMINATED NORMALLY****
TOTAL RUN TIME: 0 days 0 hours 0 minutes 34 seconds 729 msec
