                         Program Version 4.2.1 -  RELEASE  -
|  1> ! wB97X-D3 SP def2-SVP
|  2> %pal
|  3> nprocs 16
|  4> end
|  5>
|  6> * xyz 0 1
|  7> S 	 26.696 	 -10.0038 	 79.0077
|  8> C 	 27.7015 	 -9.58837 	 77.6835
|  9> C 	 28.8109 	 -8.90635 	 78.0282
| 10> C 	 29.0282 	 -8.81528 	 79.4759
| 11> C 	 27.885 	 -9.24952 	 80.1135
| 12> H 	 29.8829 	 -8.33507 	 79.8806
| 13> C 	 29.7679 	 -8.42191 	 76.903
| 14> H 	 29.379 	 -8.64615 	 75.9099
| 15> H 	 30.6629 	 -9.00084 	 76.9686
| 16> C 	 30.1388 	 -6.88025 	 77.0922
| 17> H 	 30.5175 	 -6.68675 	 78.1043
| 18> H 	 30.999 	 -6.65988 	 76.4452
| 19> C 	 28.9979 	 -5.91649 	 76.7534
| 20> H 	 28.6401 	 -6.2459 	 75.7073
| 21> H 	 28.1291 	 -6.18036 	 77.3258
| 22> H 	 29.258 	 -4.84979 	 76.7851
| 23> S 	 27.5623 	 -10.4409 	 82.6231
| 24> C 	 27.2073 	 -9.54338 	 84.073
| 25> C 	 27.2412 	 -8.18253 	 83.7418
| 26> C 	 27.3456 	 -7.85452 	 82.321
| 27> C 	 27.6319 	 -9.03194 	 81.5896
| 28> H 	 27.0374 	 -7.48437 	 84.5746
| 29> C 	 27.1476 	 -6.47099 	 81.81
| 30> H 	 26.3284 	 -6.01806 	 82.4304
| 31> H 	 26.6867 	 -6.51196 	 80.8416
| 32> C 	 28.3989 	 -5.60561 	 81.4949
| 33> H 	 28.0204 	 -4.62499 	 81.247
| 34> H 	 28.8725 	 -5.94069 	 80.6331
| 35> C 	 29.3229 	 -5.40099 	 82.7783
| 36> H 	 28.7157 	 -4.98106 	 83.577
| 37> H 	 30.1554 	 -4.67577 	 82.7126
| 38> H 	 29.7017 	 -6.44127 	 83.0183
| 39> H 	 27.3636 	 -9.7899 	 76.6075
| 40> H 	 27.0726 	 -10.0651 	 85.0207
| 41> *
| 42>
| 43>                          ****END OF INPUT****

CARTESIAN COORDINATES (ANGSTROEM)
---------------------------------
  S     26.696000  -10.003800   79.007700
  C     27.701500   -9.588370   77.683500
  C     28.810900   -8.906350   78.028200
  C     29.028200   -8.815280   79.475900
  C     27.885000   -9.249520   80.113500
  H     29.882900   -8.335070   79.880600
  C     29.767900   -8.421910   76.903000
  H     29.379000   -8.646150   75.909900
  H     30.662900   -9.000840   76.968600
  C     30.138800   -6.880250   77.092200
  H     30.517500   -6.686750   78.104300
  H     30.999000   -6.659880   76.445200
  C     28.997900   -5.916490   76.753400
  H     28.640100   -6.245900   75.707300
  H     28.129100   -6.180360   77.325800
  H     29.258000   -4.849790   76.785100
  S     27.562300  -10.440900   82.623100
  C     27.207300   -9.543380   84.073000
  C     27.241200   -8.182530   83.741800
  C     27.345600   -7.854520   82.321000
  C     27.631900   -9.031940   81.589600
  H     27.037400   -7.484370   84.574600
  C     27.147600   -6.470990   81.810000
  H     26.328400   -6.018060   82.430400
  H     26.686700   -6.511960   80.841600
  C     28.398900   -5.605610   81.494900
  H     28.020400   -4.624990   81.247000
  H     28.872500   -5.940690   80.633100
  C     29.322900   -5.400990   82.778300
  H     28.715700   -4.981060   83.577000
  H     30.155400   -4.675770   82.712600
  H     29.701700   -6.441270   83.018300
  H     27.363600   -9.789900   76.607500
  H     27.072600  -10.065100   85.020700

 Total Charge           Charge          ....    0
 Multiplicity           Mult            ....    1
 Number of Electrons    NEL             ....  134
 Basis Dimension        Dim             ....  322

ORBITAL ENERGIES
----------------

  NO   OCC          E(Eh)            E(eV)
   0   2.0000     -88.967464     -2420.9278
   1   2.0000     -88.960749     -2420.7451
   2   2.0000     -10.338688      -281.3300
   3   2.0000     -10.331330      -281.1298
   4   2.0000     -10.320286      -280.8292
   5   2.0000     -10.313483      -280.6441
   6   2.0000     -10.309803      -280.5440
   7   2.0000     -10.302530      -280.3461
   8   2.0000     -10.301336      -280.3136
   9   2.0000     -10.299953      -280.2760
  10   2.0000     -10.297893      -280.2199
  11   2.0000     -10.292941      -280.0852
  12   2.0000     -10.292225      -280.0657
  13   2.0000     -10.286495      -279.9098
  14   2.0000     -10.283183      -279.8196
  15   2.0000     -10.282686      -279.8061
  16   2.0000      -8.082407      -219.9335
  17   2.0000      -8.075822      -219.7543
  18   2.0000      -6.040980      -164.3834
  19   2.0000      -6.036992      -164.2749
  20   2.0000      -6.034259      -164.2005
  21   2.0000      -6.032968      -164.1654
  22   2.0000      -6.030057      -164.0862
  23   2.0000      -6.026866      -163.9994
  24   2.0000      -1.001814       -27.2607
  25   2.0000      -0.982024       -26.7222
  26   2.0000      -0.905057       -24.6279
  27   2.0000      -0.901968       -24.5438
  28   2.0000      -0.863647       -23.5010
  29   2.0000      -0.846776       -23.0420
  30   2.0000      -0.839567       -22.8458
  31   2.0000      -0.813780       -22.1441
  32   2.0000      -0.779670       -21.2159
  33   2.0000      -0.769378       -20.9358
  34   2.0000      -0.710285       -19.3278
  35   2.0000      -0.698308       -19.0019
  36   2.0000      -0.682510       -18.5720
  37   2.0000      -0.656566       -17.8661
  38   2.0000      -0.641386       -17.4530
  39   2.0000      -0.620955       -16.8970
  40   2.0000      -0.590763       -16.0755
  41   2.0000      -0.561187       -15.2707
  42   2.0000      -0.554719       -15.0947
  43   2.0000      -0.549601       -14.9554
  44   2.0000      -0.539618       -14.6838
  45   2.0000      -0.538735       -14.6597
  46   2.0000      -0.512104       -13.9351
  47   2.0000      -0.505393       -13.7524
  48   2.0000      -0.498079       -13.5534
  49   2.0000      -0.491149       -13.3648
  50   2.0000      -0.489068       -13.3082
  51   2.0000      -0.483773       -13.1641
  52   2.0000      -0.471311       -12.8250
  53   2.0000      -0.463469       -12.6116
  54   2.0000      -0.457142       -12.4395
  55   2.0000      -0.450213       -12.2509
  56   2.0000      -0.440250       -11.9798
  57   2.0000      -0.439234       -11.9522
  58   2.0000      -0.432790       -11.7768
  59   2.0000      -0.424183       -11.5426
  60   2.0000      -0.415372       -11.3029
  61   2.0000      -0.412848       -11.2342
  62   2.0000      -0.411247       -11.1906
  63   2.0000      -0.339980        -9.2513
  64   2.0000      -0.326824        -8.8933
  65   2.0000      -0.324669        -8.8347
  66   2.0000      -0.306407        -8.3377
  67   0.0000       0.038256         1.0410
  68   0.0000       0.062757         1.7077
  69   0.0000       0.115242         3.1359
  70   0.0000       0.120717         3.2849
  71   0.0000       0.125461         3.4140

MULLIKEN ATOMIC CHARGES
-----------------------
   0 S :    0.119919
   1 C :   -0.150333
   2 C :   -0.112308
   3 C :    0.076392
   4 C :   -0.147853
   5 H :    0.014852
   6 C :    0.074683
   7 H :    0.017737
   8 H :    0.031914
   9 C :   -0.098210
  10 H :    0.025941
  11 H :    0.028469
  12 C :   -0.052406
  13 H :    0.022787
  14 H :    0.033883
  15 H :    0.054692
  16 S :    0.096752
  17 C :   -0.114980
  18 C :   -0.047307
  19 C :   -0.031436
  20 C :   -0.183013
  21 H :    0.031706
  22 C :    0.054293
  23 H :    0.037513
  24 H :    0.022071
  25 C :   -0.026100
  26 H :    0.020116
  27 H :    0.017438
  28 C :   -0.089539
  29 H :    0.028887
  30 H :    0.038505
  31 H :    0.056704
  32 H :    0.074825
  33 H :    0.073407
Sum of atomic charges:   -0.0000000

LOEWDIN ATOMIC CHARGES
----------------------
   0 S :    0.398701
   1 C :   -0.217754
   2 C :   -0.070294
   3 C :   -0.044018
   4 C :   -0.179755
   5 H :    0.029489
   6 C :   -0.020567
   7 H :    0.026959
   8 H :    0.028899
   9 C :   -0.044346
  10 H :    0.018403
  11 H :    0.022693
  12 C :   -0.071912
  13 H :    0.031740
  14 H :    0.022186
  15 H :    0.030041
  16 S :    0.409009
  17 C :   -0.194134
  18 C :   -0.078063
  19 C :   -0.056789
  20 C :   -0.204798
  21 H :    0.033262
  22 C :   -0.038132
  23 H :    0.039917
  24 H :    0.035310
  25 C :   -0.024558
  26 H :    0.023507
  27 H :    0.012066
  28 C :   -0.075635
  29 H :    0.023258
  30 H :    0.025224
  31 H :    0.032915
  32 H :    0.042970
  33 H :    0.034205

  Mayer bond orders larger than 0.100000
B(  0-S ,  1-C ) :   1.1241 B(  0-S ,  4-C ) :   1.1465 B(  1-C ,  2-C ) :   1.6659
B(  1-C , 32-H ) :   0.9531 B(  2-C ,  3-C ) :   1.2009 B(  2-C ,  6-C ) :   1.0146
B(  3-C ,  4-C ) :   1.6050 B(  3-C ,  5-H ) :   0.9952 B(  4-C , 20-C ) :   0.9982
B(  6-C ,  7-H ) :   0.9514 B(  6-C ,  8-H ) :   0.9399 B(  6-C ,  9-C ) :   1.0612
B(  9-C , 10-H ) :   0.9590 B(  9-C , 11-H ) :   0.9581 B(  9-C , 12-C ) :   1.0647
B( 12-C , 13-H ) :   0.9710 B( 12-C , 14-H ) :   0.9756 B( 12-C , 15-H ) :   0.9751
B( 16-S , 17-C ) :   1.1647 B( 16-S , 20-C ) :   1.1698 B( 17-C , 18-C ) :   1.5842
B( 17-C , 20-C ) :   0.1007 B( 17-C , 33-H ) :   0.9718 B( 18-C , 19-C ) :   1.2371
B( 18-C , 21-H ) :   0.9841 B( 19-C , 20-C ) :   1.5674 B( 19-C , 22-C ) :   1.0552
B( 22-C , 23-H ) :   0.9382 B( 22-C , 24-H ) :   0.9221 B( 22-C , 25-C ) :   1.0701
B( 25-C , 26-H ) :   0.9519 B( 25-C , 27-H ) :   0.9593 B( 25-C , 28-C ) :   1.0615
B( 28-C , 29-H ) :   0.9759 B( 28-C , 30-H ) :   0.9783 B( 28-C , 31-H ) :   0.9759

Dispersion correction           -0.015765945
FINAL SINGLE POINT ENERGY     -1339.873565254303

DIPOLE MOMENT
-------------
                                X             Y             Z
Electronic contribution:    -11.55848     -25.58108       8.39565
Nuclear contribution   :     11.75304      26.14339      -8.59932
                        -----------------------------------------
Total Dipole Moment    :      0.19456       0.56231      -0.20367
                        -----------------------------------------
Magnitude (a.u.)       :      0.62891
Magnitude (Debye)      :      1.59856

Rotational constants in cm-1:     0.018513     0.009959     0.007229
Rotational constants in MHz :   555.011546   298.550497   216.711193

                             ****ORCA TERMINATED NORMALLY****
TOTAL RUN TIME: 0 days 0 hours 0 minutes 31 seconds 486 msec
