                         Program Version 4.2.1 -  RELEASE  -
|  1> ! wB97X-D3 SP def2-SVP
|  2> %pal
|  3> nprocs 16
|  4> end
|  5>
|  6> * xyz 0 1
|  7> S 	 -42.3678 	 23.4417 	 77.2696
|  8> C 	 -43.2981 	 22.4351 	 78.3534
|  9> C 	 -42.513 	 21.8098 	 79.3024
| 10> C 	 -41.0908 	 22.1021 	 79.1572
| 11> C 	 -40.8618 	 22.9535 	 78.0988
| 12> H 	 -40.3104 	 21.7145 	 79.7707
| 13> C 	 -43.0843 	 21.058 	 80.5009
| 14> H 	 -42.3029 	 21.0839 	 81.2037
| 15> H 	 -43.1247 	 20.0603 	 80.2497
| 16> C 	 -44.4563 	 21.3973 	 80.8901
| 17> H 	 -44.5844 	 20.9886 	 81.8175
| 18> H 	 -44.6407 	 22.4791 	 81.0322
| 19> C 	 -45.6364 	 20.8712 	 80.0731
| 20> H 	 -45.7356 	 20.9363 	 78.9837
| 21> H 	 -45.8978 	 19.8294 	 80.2817
| 22> H 	 -46.4246 	 21.4876 	 80.4553
| 23> S 	 -39.5011 	 23.8286 	 75.9346
| 24> C 	 -38.0055 	 24.6012 	 76.1021
| 25> C 	 -37.7137 	 24.7239 	 77.4313
| 26> C 	 -38.5849 	 24.0568 	 78.3245
| 27> C 	 -39.6172 	 23.5041 	 77.6322
| 28> H 	 -36.8252 	 25.2682 	 77.6798
| 29> C 	 -38.5455 	 24.3084 	 79.8617
| 30> H 	 -37.5002 	 24.6382 	 79.9851
| 31> H 	 -38.6549 	 23.28 	 80.3311
| 32> C 	 -39.5175 	 25.3483 	 80.3524
| 33> H 	 -40.5553 	 25.0321 	 80.2171
| 34> H 	 -39.4547 	 26.2553 	 79.7368
| 35> C 	 -39.1466 	 25.7026 	 81.8685
| 36> H 	 -38.2009 	 26.209 	 81.8887
| 37> H 	 -39.069 	 24.8417 	 82.5435
| 38> H 	 -40.012 	 26.3759 	 82.1061
| 39> H 	 -44.3038 	 22.1663 	 78.2928
| 40> H 	 -37.3854 	 25.1418 	 75.4057
| 41> *
| 42>
| 43>                          ****END OF INPUT****

CARTESIAN COORDINATES (ANGSTROEM)
---------------------------------
  S    -42.367800   23.441700   77.269600
  C    -43.298100   22.435100   78.353400
  C    -42.513000   21.809800   79.302400
  C    -41.090800   22.102100   79.157200
  C    -40.861800   22.953500   78.098800
  H    -40.310400   21.714500   79.770700
  C    -43.084300   21.058000   80.500900
  H    -42.302900   21.083900   81.203700
  H    -43.124700   20.060300   80.249700
  C    -44.456300   21.397300   80.890100
  H    -44.584400   20.988600   81.817500
  H    -44.640700   22.479100   81.032200
  C    -45.636400   20.871200   80.073100
  H    -45.735600   20.936300   78.983700
  H    -45.897800   19.829400   80.281700
  H    -46.424600   21.487600   80.455300
  S    -39.501100   23.828600   75.934600
  C    -38.005500   24.601200   76.102100
  C    -37.713700   24.723900   77.431300
  C    -38.584900   24.056800   78.324500
  C    -39.617200   23.504100   77.632200
  H    -36.825200   25.268200   77.679800
  C    -38.545500   24.308400   79.861700
  H    -37.500200   24.638200   79.985100
  H    -38.654900   23.280000   80.331100
  C    -39.517500   25.348300   80.352400
  H    -40.555300   25.032100   80.217100
  H    -39.454700   26.255300   79.736800
  C    -39.146600   25.702600   81.868500
  H    -38.200900   26.209000   81.888700
  H    -39.069000   24.841700   82.543500
  H    -40.012000   26.375900   82.106100
  H    -44.303800   22.166300   78.292800
  H    -37.385400   25.141800   75.405700

 Total Charge           Charge          ....    0
 Multiplicity           Mult            ....    1
 Number of Electrons    NEL             ....  134
 Basis Dimension        Dim             ....  322

ORBITAL ENERGIES
----------------

  NO   OCC          E(Eh)            E(eV)
   0   2.0000     -88.963881     -2420.8303
   1   2.0000     -88.963499     -2420.8199
   2   2.0000     -10.328659      -281.0571
   3   2.0000     -10.317189      -280.7450
   4   2.0000     -10.307498      -280.4813
   5   2.0000     -10.301455      -280.3168
   6   2.0000     -10.297397      -280.2064
   7   2.0000     -10.297384      -280.2061
   8   2.0000     -10.295677      -280.1596
   9   2.0000     -10.292625      -280.0766
  10   2.0000     -10.287349      -279.9330
  11   2.0000     -10.284369      -279.8519
  12   2.0000     -10.283298      -279.8228
  13   2.0000     -10.280604      -279.7495
  14   2.0000     -10.280548      -279.7479
  15   2.0000     -10.277616      -279.6682
  16   2.0000      -8.079599      -219.8571
  17   2.0000      -8.077915      -219.8112
  18   2.0000      -6.037987      -164.3020
  19   2.0000      -6.036586      -164.2639
  20   2.0000      -6.033921      -164.1913
  21   2.0000      -6.032598      -164.1553
  22   2.0000      -6.030379      -164.0949
  23   2.0000      -6.028473      -164.0431
  24   2.0000      -1.014224       -27.5984
  25   2.0000      -0.982287       -26.7294
  26   2.0000      -0.924206       -25.1489
  27   2.0000      -0.905815       -24.6485
  28   2.0000      -0.870912       -23.6987
  29   2.0000      -0.852587       -23.2001
  30   2.0000      -0.844540       -22.9811
  31   2.0000      -0.815815       -22.1994
  32   2.0000      -0.788605       -21.4590
  33   2.0000      -0.773324       -21.0432
  34   2.0000      -0.710652       -19.3378
  35   2.0000      -0.709111       -19.2959
  36   2.0000      -0.694044       -18.8859
  37   2.0000      -0.664329       -18.0773
  38   2.0000      -0.637387       -17.3442
  39   2.0000      -0.618155       -16.8209
  40   2.0000      -0.590699       -16.0737
  41   2.0000      -0.578246       -15.7349
  42   2.0000      -0.560209       -15.2441
  43   2.0000      -0.556259       -15.1366
  44   2.0000      -0.536446       -14.5974
  45   2.0000      -0.527914       -14.3653
  46   2.0000      -0.525283       -14.2937
  47   2.0000      -0.514945       -14.0124
  48   2.0000      -0.505898       -13.7662
  49   2.0000      -0.493537       -13.4298
  50   2.0000      -0.487472       -13.2648
  51   2.0000      -0.485713       -13.2169
  52   2.0000      -0.477120       -12.9831
  53   2.0000      -0.469689       -12.7809
  54   2.0000      -0.459636       -12.5073
  55   2.0000      -0.449793       -12.2395
  56   2.0000      -0.445877       -12.1329
  57   2.0000      -0.438392       -11.9293
  58   2.0000      -0.434373       -11.8199
  59   2.0000      -0.427152       -11.6234
  60   2.0000      -0.419224       -11.4077
  61   2.0000      -0.410817       -11.1789
  62   2.0000      -0.403198       -10.9716
  63   2.0000      -0.353402        -9.6166
  64   2.0000      -0.331206        -9.0126
  65   2.0000      -0.325966        -8.8700
  66   2.0000      -0.285404        -7.7662
  67   0.0000       0.028705         0.7811
  68   0.0000       0.079710         2.1690
  69   0.0000       0.110273         3.0007
  70   0.0000       0.129914         3.5351
  71   0.0000       0.139403         3.7934

MULLIKEN ATOMIC CHARGES
-----------------------
   0 S :    0.103984
   1 C :   -0.077731
   2 C :   -0.139973
   3 C :    0.007249
   4 C :   -0.120215
   5 H :    0.005225
   6 C :    0.190589
   7 H :   -0.001803
   8 H :    0.003973
   9 C :   -0.046578
  10 H :    0.004007
  11 H :    0.033686
  12 C :   -0.083154
  13 H :    0.044813
  14 H :    0.031056
  15 H :    0.028504
  16 S :    0.113064
  17 C :   -0.063142
  18 C :   -0.071963
  19 C :   -0.029447
  20 C :   -0.159486
  21 H :    0.004440
  22 C :    0.047835
  23 H :    0.018059
  24 H :    0.035692
  25 C :   -0.066631
  26 H :    0.044851
  27 H :    0.031462
  28 C :   -0.057484
  29 H :    0.033866
  30 H :    0.038570
  31 H :    0.048811
  32 H :   -0.000634
  33 H :    0.048505
Sum of atomic charges:    0.0000000

LOEWDIN ATOMIC CHARGES
----------------------
   0 S :    0.382715
   1 C :   -0.201645
   2 C :   -0.048327
   3 C :   -0.066106
   4 C :   -0.168924
   5 H :    0.026821
   6 C :   -0.027200
   7 H :    0.025968
   8 H :    0.028672
   9 C :   -0.036606
  10 H :    0.022391
  11 H :    0.028947
  12 C :   -0.068462
  13 H :    0.024122
  14 H :    0.025786
  15 H :    0.031098
  16 S :    0.436454
  17 C :   -0.207674
  18 C :   -0.075651
  19 C :   -0.063443
  20 C :   -0.206440
  21 H :    0.024355
  22 C :   -0.032335
  23 H :    0.029081
  24 H :    0.033563
  25 C :   -0.038995
  26 H :    0.027697
  27 H :    0.028777
  28 C :   -0.063526
  29 H :    0.021203
  30 H :    0.024938
  31 H :    0.035283
  32 H :    0.013204
  33 H :    0.034261

  Mayer bond orders larger than 0.100000
B(  0-S ,  1-C ) :   1.1056 B(  0-S ,  4-C ) :   1.1311 B(  1-C ,  2-C ) :   1.6675
B(  1-C , 32-H ) :   0.9621 B(  2-C ,  3-C ) :   1.2077 B(  2-C ,  6-C ) :   1.0106
B(  3-C ,  4-C ) :   1.5976 B(  3-C ,  5-H ) :   0.9988 B(  4-C , 20-C ) :   1.0717
B(  6-C ,  7-H ) :   0.9342 B(  6-C ,  8-H ) :   0.9009 B(  6-C ,  9-C ) :   1.0870
B(  9-C , 10-H ) :   0.9344 B(  9-C , 11-H ) :   0.9638 B(  9-C , 12-C ) :   1.0630
B( 12-C , 13-H ) :   0.9740 B( 12-C , 14-H ) :   0.9709 B( 12-C , 15-H ) :   0.9742
B( 16-S , 17-C ) :   1.1554 B( 16-S , 20-C ) :   1.1520 B( 17-C , 18-C ) :   1.6130
B( 17-C , 33-H ) :   0.9650 B( 18-C , 19-C ) :   1.2637 B( 18-C , 21-H ) :   0.9883
B( 19-C , 20-C ) :   1.5674 B( 19-C , 22-C ) :   1.0312 B( 22-C , 23-H ) :   0.9371
B( 22-C , 24-H ) :   0.9312 B( 22-C , 25-C ) :   1.0665 B( 25-C , 26-H ) :   0.9556
B( 25-C , 27-H ) :   0.9526 B( 25-C , 28-C ) :   1.0620 B( 28-C , 29-H ) :   0.9785
B( 28-C , 30-H ) :   0.9782 B( 28-C , 31-H ) :   0.9776

Dispersion correction           -0.014523064
FINAL SINGLE POINT ENERGY     -1339.857703110145

DIPOLE MOMENT
-------------
                                X             Y             Z
Electronic contribution:      7.90970       1.77939     -25.58168
Nuclear contribution   :     -7.92066      -1.79487      26.29120
                        -----------------------------------------
Total Dipole Moment    :     -0.01097      -0.01548       0.70952
                        -----------------------------------------
Magnitude (a.u.)       :      0.70977
Magnitude (Debye)      :      1.80410

Rotational constants in cm-1:     0.021125     0.008578     0.006637
Rotational constants in MHz :   633.325563   257.165328   198.974136

                             ****ORCA TERMINATED NORMALLY****
TOTAL RUN TIME: 0 days 0 hours 0 minutes 29 seconds 178 msec
