                         Program Version 4.2.1 -  RELEASE  -
|  1> ! wB97X-D3 SP def2-SVP
|  2> %pal
|  3> nprocs 16
|  4> end
|  5>
|  6> * xyz 0 1
|  7> S 	 -33.1299 	 73.8778 	 151.134
|  8> C 	 -31.6183 	 73.9957 	 150.219
|  9> C 	 -31.4599 	 72.8927 	 149.43
| 10> C 	 -32.4229 	 71.8787 	 149.781
| 11> C 	 -33.3376 	 72.1929 	 150.756
| 12> H 	 -32.4071 	 70.8746 	 149.401
| 13> C 	 -30.2819 	 72.6229 	 148.607
| 14> H 	 -29.7711 	 73.5488 	 148.496
| 15> H 	 -30.6842 	 72.519 	 147.579
| 16> C 	 -29.3126 	 71.5753 	 149.111
| 17> H 	 -29.2045 	 71.6847 	 150.165
| 18> H 	 -29.6974 	 70.5979 	 149.026
| 19> C 	 -27.87 	 71.8044 	 148.525
| 20> H 	 -27.2818 	 71.0648 	 149.027
| 21> H 	 -27.761 	 71.5437 	 147.419
| 22> H 	 -27.4147 	 72.7038 	 148.645
| 23> S 	 -35.8418 	 72.0992 	 151.958
| 24> C 	 -36.4807 	 70.5586 	 152.436
| 25> C 	 -35.5861 	 69.5368 	 152.175
| 26> C 	 -34.4062 	 69.9398 	 151.517
| 27> C 	 -34.2955 	 71.326 	 151.404
| 28> H 	 -35.8816 	 68.5809 	 152.512
| 29> C 	 -33.4822 	 68.8427 	 151.122
| 30> H 	 -33.4371 	 69.0268 	 150.037
| 31> H 	 -34.0566 	 67.8739 	 151.093
| 32> C 	 -32.1146 	 68.6567 	 151.808
| 33> H 	 -32.0897 	 68.3984 	 152.817
| 34> H 	 -31.5204 	 69.5454 	 151.691
| 35> C 	 -31.3989 	 67.5299 	 151.15
| 36> H 	 -30.7097 	 67.0732 	 151.775
| 37> H 	 -30.9394 	 67.8397 	 150.244
| 38> H 	 -32.0771 	 66.7079 	 150.871
| 39> H 	 -30.9318 	 74.8521 	 150.262
| 40> H 	 -37.3796 	 70.4006 	 152.996
| 41> *
| 42>
| 43>                          ****END OF INPUT****

CARTESIAN COORDINATES (ANGSTROEM)
---------------------------------
  S    -33.129900   73.877800  151.134000
  C    -31.618300   73.995700  150.219000
  C    -31.459900   72.892700  149.430000
  C    -32.422900   71.878700  149.781000
  C    -33.337600   72.192900  150.756000
  H    -32.407100   70.874600  149.401000
  C    -30.281900   72.622900  148.607000
  H    -29.771100   73.548800  148.496000
  H    -30.684200   72.519000  147.579000
  C    -29.312600   71.575300  149.111000
  H    -29.204500   71.684700  150.165000
  H    -29.697400   70.597900  149.026000
  C    -27.870000   71.804400  148.525000
  H    -27.281800   71.064800  149.027000
  H    -27.761000   71.543700  147.419000
  H    -27.414700   72.703800  148.645000
  S    -35.841800   72.099200  151.958000
  C    -36.480700   70.558600  152.436000
  C    -35.586100   69.536800  152.175000
  C    -34.406200   69.939800  151.517000
  C    -34.295500   71.326000  151.404000
  H    -35.881600   68.580900  152.512000
  C    -33.482200   68.842700  151.122000
  H    -33.437100   69.026800  150.037000
  H    -34.056600   67.873900  151.093000
  C    -32.114600   68.656700  151.808000
  H    -32.089700   68.398400  152.817000
  H    -31.520400   69.545400  151.691000
  C    -31.398900   67.529900  151.150000
  H    -30.709700   67.073200  151.775000
  H    -30.939400   67.839700  150.244000
  H    -32.077100   66.707900  150.871000
  H    -30.931800   74.852100  150.262000
  H    -37.379600   70.400600  152.996000

 Total Charge           Charge          ....    0
 Multiplicity           Mult            ....    1
 Number of Electrons    NEL             ....  134
 Basis Dimension        Dim             ....  322

ORBITAL ENERGIES
----------------

  NO   OCC          E(Eh)            E(eV)
   0   2.0000     -88.965429     -2420.8724
   1   2.0000     -88.959725     -2420.7172
   2   2.0000     -10.333374      -281.1854
   3   2.0000     -10.328317      -281.0478
   4   2.0000     -10.314660      -280.6762
   5   2.0000     -10.314061      -280.6599
   6   2.0000     -10.304163      -280.3905
   7   2.0000     -10.297992      -280.2226
   8   2.0000     -10.295737      -280.1612
   9   2.0000     -10.288917      -279.9757
  10   2.0000     -10.287265      -279.9307
  11   2.0000     -10.287149      -279.9276
  12   2.0000     -10.284643      -279.8594
  13   2.0000     -10.279933      -279.7312
  14   2.0000     -10.278686      -279.6973
  15   2.0000     -10.267013      -279.3796
  16   2.0000      -8.079533      -219.8553
  17   2.0000      -8.074726      -219.7245
  18   2.0000      -6.038109      -164.3053
  19   2.0000      -6.034140      -164.1973
  20   2.0000      -6.033389      -164.1769
  21   2.0000      -6.030263      -164.0918
  22   2.0000      -6.029293      -164.0654
  23   2.0000      -6.025195      -163.9539
  24   2.0000      -1.006059       -27.3763
  25   2.0000      -0.984412       -26.7872
  26   2.0000      -0.919587       -25.0232
  27   2.0000      -0.917173       -24.9575
  28   2.0000      -0.871667       -23.7193
  29   2.0000      -0.863838       -23.5062
  30   2.0000      -0.843899       -22.9637
  31   2.0000      -0.815195       -22.1826
  32   2.0000      -0.784737       -21.3538
  33   2.0000      -0.774625       -21.0786
  34   2.0000      -0.722152       -19.6507
  35   2.0000      -0.713622       -19.4186
  36   2.0000      -0.697135       -18.9700
  37   2.0000      -0.665126       -18.0990
  38   2.0000      -0.640324       -17.4241
  39   2.0000      -0.622934       -16.9509
  40   2.0000      -0.597982       -16.2719
  41   2.0000      -0.573485       -15.6053
  42   2.0000      -0.569163       -15.4877
  43   2.0000      -0.562053       -15.2942
  44   2.0000      -0.539736       -14.6870
  45   2.0000      -0.533317       -14.5123
  46   2.0000      -0.518114       -14.0986
  47   2.0000      -0.512937       -13.9577
  48   2.0000      -0.506106       -13.7718
  49   2.0000      -0.505760       -13.7624
  50   2.0000      -0.494900       -13.4669
  51   2.0000      -0.482847       -13.1389
  52   2.0000      -0.478841       -13.0299
  53   2.0000      -0.466302       -12.6887
  54   2.0000      -0.456741       -12.4285
  55   2.0000      -0.449112       -12.2210
  56   2.0000      -0.444614       -12.0986
  57   2.0000      -0.443505       -12.0684
  58   2.0000      -0.439715       -11.9653
  59   2.0000      -0.427604       -11.6357
  60   2.0000      -0.421216       -11.4619
  61   2.0000      -0.411002       -11.1839
  62   2.0000      -0.406466       -11.0605
  63   2.0000      -0.358626        -9.7587
  64   2.0000      -0.333500        -9.0750
  65   2.0000      -0.324814        -8.8386
  66   2.0000      -0.282299        -7.6818
  67   0.0000       0.019633         0.5343
  68   0.0000       0.078853         2.1457
  69   0.0000       0.101810         2.7704
  70   0.0000       0.118880         3.2349
  71   0.0000       0.131254         3.5716

MULLIKEN ATOMIC CHARGES
-----------------------
   0 S :    0.089580
   1 C :   -0.139063
   2 C :   -0.084334
   3 C :   -0.012811
   4 C :   -0.102768
   5 H :   -0.016370
   6 C :    0.101670
   7 H :   -0.011768
   8 H :    0.034341
   9 C :   -0.034217
  10 H :    0.025629
  11 H :    0.021562
  12 C :   -0.041852
  13 H :    0.023417
  14 H :    0.037096
  15 H :    0.020413
  16 S :    0.089197
  17 C :   -0.078072
  18 C :   -0.032983
  19 C :   -0.030999
  20 C :   -0.108745
  21 H :   -0.000588
  22 C :   -0.003684
  23 H :    0.035923
  24 H :    0.020464
  25 C :    0.019350
  26 H :    0.016956
  27 H :    0.027301
  28 C :   -0.019961
  29 H :    0.013575
  30 H :    0.017819
  31 H :    0.015656
  32 H :    0.056178
  33 H :    0.052088
Sum of atomic charges:    0.0000000

LOEWDIN ATOMIC CHARGES
----------------------
   0 S :    0.384894
   1 C :   -0.187765
   2 C :   -0.065679
   3 C :   -0.070561
   4 C :   -0.189962
   5 H :    0.020926
   6 C :   -0.038925
   7 H :    0.024567
   8 H :    0.039777
   9 C :   -0.026606
  10 H :    0.026432
  11 H :    0.019360
  12 C :   -0.056458
  13 H :    0.025267
  14 H :    0.033187
  15 H :    0.010267
  16 S :    0.385451
  17 C :   -0.181396
  18 C :   -0.068792
  19 C :   -0.055359
  20 C :   -0.174334
  21 H :    0.025095
  22 C :   -0.038189
  23 H :    0.036477
  24 H :    0.036352
  25 C :   -0.028996
  26 H :    0.021296
  27 H :    0.026520
  28 C :   -0.054554
  29 H :    0.016282
  30 H :    0.018523
  31 H :    0.025723
  32 H :    0.033469
  33 H :    0.027710

  Mayer bond orders larger than 0.100000
B(  0-S ,  1-C ) :   1.1219 B(  0-S ,  4-C ) :   1.1307 B(  1-C ,  2-C ) :   1.6201
B(  1-C , 32-H ) :   0.9662 B(  2-C ,  3-C ) :   1.2089 B(  2-C ,  6-C ) :   1.0539
B(  3-C ,  4-C ) :   1.5866 B(  3-C ,  5-H ) :   0.9982 B(  4-C , 20-C ) :   1.0817
B(  6-C ,  7-H ) :   0.9325 B(  6-C ,  8-H ) :   0.9164 B(  6-C ,  9-C ) :   1.0523
B(  9-C , 10-H ) :   0.9549 B(  9-C , 11-H ) :   0.9530 B(  9-C , 12-C ) :   1.0811
B( 12-C , 13-H ) :   0.9755 B( 12-C , 14-H ) :   0.9763 B( 12-C , 15-H ) :   0.9785
B( 16-S , 17-C ) :   1.1603 B( 16-S , 20-C ) :   1.1163 B( 17-C , 18-C ) :   1.6089
B( 17-C , 20-C ) :   0.1044 B( 17-C , 33-H ) :   0.9652 B( 18-C , 19-C ) :   1.2464
B( 18-C , 21-H ) :   0.9986 B( 19-C , 20-C ) :   1.5823 B( 19-C , 22-C ) :   1.0296
B( 22-C , 23-H ) :   0.9259 B( 22-C , 24-H ) :   0.9299 B( 22-C , 25-C ) :   1.0631
B( 25-C , 26-H ) :   0.9567 B( 25-C , 27-H ) :   0.9502 B( 25-C , 28-C ) :   1.0865
B( 28-C , 29-H ) :   0.9734 B( 28-C , 30-H ) :   0.9750 B( 28-C , 31-H ) :   0.9686

Dispersion correction           -0.014386406
FINAL SINGLE POINT ENERGY     -1339.855475340499

DIPOLE MOMENT
-------------
                                X             Y             Z
Electronic contribution:    -26.29154      18.93103       9.58937
Nuclear contribution   :     26.85601     -19.61996      -9.71167
                        -----------------------------------------
Total Dipole Moment    :      0.56448      -0.68892      -0.12230
                        -----------------------------------------
Magnitude (a.u.)       :      0.89900
Magnitude (Debye)      :      2.28508

Rotational constants in cm-1:     0.018284     0.009517     0.006519
Rotational constants in MHz :   548.146679   285.304270   195.443680

                             ****ORCA TERMINATED NORMALLY****
TOTAL RUN TIME: 0 days 0 hours 0 minutes 36 seconds 224 msec
