                         Program Version 4.2.1 -  RELEASE  -
|  1> ! wB97X-D3 SP def2-SVP
|  2> %pal
|  3> nprocs 16
|  4> end
|  5>
|  6> * xyz 0 1
|  7> S 	 -30.6917 	 62.2119 	 121.303
|  8> C 	 -32.2479 	 61.6353 	 120.818
|  9> C 	 -32.6626 	 62.1492 	 119.61
| 10> C 	 -31.5672 	 62.9465 	 118.982
| 11> C 	 -30.439 	 62.9828 	 119.757
| 12> H 	 -31.6743 	 63.3605 	 117.998
| 13> C 	 -34.0832 	 62.2017 	 119.024
| 14> H 	 -34.6879 	 62.9561 	 119.553
| 15> H 	 -34.5792 	 61.2421 	 119.284
| 16> C 	 -34.2099 	 62.4367 	 117.547
| 17> H 	 -35.2988 	 62.4338 	 117.371
| 18> H 	 -33.7989 	 63.4372 	 117.407
| 19> C 	 -33.4724 	 61.268 	 116.745
| 20> H 	 -33.9093 	 60.2887 	 116.923
| 21> H 	 -33.6097 	 61.4755 	 115.715
| 22> H 	 -32.3648 	 61.2252 	 116.917
| 23> S 	 -27.6327 	 63.1038 	 119.993
| 24> C 	 -26.7597 	 64.2765 	 119.002
| 25> C 	 -27.6526 	 65.1253 	 118.366
| 26> C 	 -29.0462 	 64.7051 	 118.524
| 27> C 	 -29.2265 	 63.6536 	 119.423
| 28> H 	 -27.3211 	 65.7946 	 117.564
| 29> C 	 -30.018 	 65.4696 	 117.629
| 30> H 	 -29.9771 	 66.5004 	 117.831
| 31> H 	 -31.0056 	 65.2385 	 117.873
| 32> C 	 -29.92 	 65.2978 	 116.105
| 33> H 	 -30.3416 	 64.3445 	 115.783
| 34> H 	 -28.8199 	 65.3784 	 115.73
| 35> C 	 -30.8561 	 66.1096 	 115.338
| 36> H 	 -31.9109 	 65.8184 	 115.592
| 37> H 	 -30.766 	 66.0861 	 114.201
| 38> H 	 -30.7046 	 67.2138 	 115.514
| 39> H 	 -32.9266 	 61.0943 	 121.444
| 40> H 	 -25.7381 	 64.3502 	 118.69
| 41> *
| 42>
| 43>                          ****END OF INPUT****

CARTESIAN COORDINATES (ANGSTROEM)
---------------------------------
  S    -30.691700   62.211900  121.303000
  C    -32.247900   61.635300  120.818000
  C    -32.662600   62.149200  119.610000
  C    -31.567200   62.946500  118.982000
  C    -30.439000   62.982800  119.757000
  H    -31.674300   63.360500  117.998000
  C    -34.083200   62.201700  119.024000
  H    -34.687900   62.956100  119.553000
  H    -34.579200   61.242100  119.284000
  C    -34.209900   62.436700  117.547000
  H    -35.298800   62.433800  117.371000
  H    -33.798900   63.437200  117.407000
  C    -33.472400   61.268000  116.745000
  H    -33.909300   60.288700  116.923000
  H    -33.609700   61.475500  115.715000
  H    -32.364800   61.225200  116.917000
  S    -27.632700   63.103800  119.993000
  C    -26.759700   64.276500  119.002000
  C    -27.652600   65.125300  118.366000
  C    -29.046200   64.705100  118.524000
  C    -29.226500   63.653600  119.423000
  H    -27.321100   65.794600  117.564000
  C    -30.018000   65.469600  117.629000
  H    -29.977100   66.500400  117.831000
  H    -31.005600   65.238500  117.873000
  C    -29.920000   65.297800  116.105000
  H    -30.341600   64.344500  115.783000
  H    -28.819900   65.378400  115.730000
  C    -30.856100   66.109600  115.338000
  H    -31.910900   65.818400  115.592000
  H    -30.766000   66.086100  114.201000
  H    -30.704600   67.213800  115.514000
  H    -32.926600   61.094300  121.444000
  H    -25.738100   64.350200  118.690000

 Total Charge           Charge          ....    0
 Multiplicity           Mult            ....    1
 Number of Electrons    NEL             ....  134
 Basis Dimension        Dim             ....  322

ORBITAL ENERGIES
----------------

  NO   OCC          E(Eh)            E(eV)
   0   2.0000     -88.969343     -2420.9789
   1   2.0000     -88.966935     -2420.9134
   2   2.0000     -10.332103      -281.1508
   3   2.0000     -10.329581      -281.0822
   4   2.0000     -10.321024      -280.8493
   5   2.0000     -10.310840      -280.5722
   6   2.0000     -10.308353      -280.5045
   7   2.0000     -10.305115      -280.4164
   8   2.0000     -10.296430      -280.1801
   9   2.0000     -10.295247      -280.1479
  10   2.0000     -10.294669      -280.1322
  11   2.0000     -10.294628      -280.1311
  12   2.0000     -10.293206      -280.0924
  13   2.0000     -10.290163      -280.0096
  14   2.0000     -10.286714      -279.9157
  15   2.0000     -10.282629      -279.8046
  16   2.0000      -8.083016      -219.9501
  17   2.0000      -8.082124      -219.9258
  18   2.0000      -6.041863      -164.4074
  19   2.0000      -6.040781      -164.3780
  20   2.0000      -6.037623      -164.2921
  21   2.0000      -6.036663      -164.2659
  22   2.0000      -6.033504      -164.1800
  23   2.0000      -6.032613      -164.1557
  24   2.0000      -1.006268       -27.3820
  25   2.0000      -0.980011       -26.6674
  26   2.0000      -0.920185       -25.0395
  27   2.0000      -0.913385       -24.8545
  28   2.0000      -0.875927       -23.8352
  29   2.0000      -0.855235       -23.2721
  30   2.0000      -0.837273       -22.7833
  31   2.0000      -0.815609       -22.1938
  32   2.0000      -0.786152       -21.3923
  33   2.0000      -0.776615       -21.1328
  34   2.0000      -0.712217       -19.3804
  35   2.0000      -0.696038       -18.9402
  36   2.0000      -0.691173       -18.8078
  37   2.0000      -0.660882       -17.9835
  38   2.0000      -0.635196       -17.2846
  39   2.0000      -0.630671       -17.1614
  40   2.0000      -0.599029       -16.3004
  41   2.0000      -0.574072       -15.6213
  42   2.0000      -0.566797       -15.4233
  43   2.0000      -0.553945       -15.0736
  44   2.0000      -0.536370       -14.5954
  45   2.0000      -0.523033       -14.2325
  46   2.0000      -0.519710       -14.1420
  47   2.0000      -0.515144       -14.0178
  48   2.0000      -0.509616       -13.8674
  49   2.0000      -0.503601       -13.7037
  50   2.0000      -0.495779       -13.4908
  51   2.0000      -0.482902       -13.1404
  52   2.0000      -0.471069       -12.8184
  53   2.0000      -0.466593       -12.6966
  54   2.0000      -0.460778       -12.5384
  55   2.0000      -0.455718       -12.4007
  56   2.0000      -0.442223       -12.0335
  57   2.0000      -0.431513       -11.7421
  58   2.0000      -0.430233       -11.7072
  59   2.0000      -0.422527       -11.4976
  60   2.0000      -0.420141       -11.4326
  61   2.0000      -0.416184       -11.3249
  62   2.0000      -0.410046       -11.1579
  63   2.0000      -0.363179        -9.8826
  64   2.0000      -0.330743        -9.0000
  65   2.0000      -0.325175        -8.8485
  66   2.0000      -0.286044        -7.7837
  67   0.0000       0.023298         0.6340
  68   0.0000       0.077450         2.1075
  69   0.0000       0.100734         2.7411
  70   0.0000       0.109685         2.9847
  71   0.0000       0.113522         3.0891

MULLIKEN ATOMIC CHARGES
-----------------------
   0 S :    0.114136
   1 C :   -0.104963
   2 C :   -0.091712
   3 C :   -0.024544
   4 C :   -0.113168
   5 H :    0.005163
   6 C :    0.041714
   7 H :    0.047599
   8 H :    0.019163
   9 C :   -0.086565
  10 H :    0.039505
  11 H :    0.033378
  12 C :   -0.059929
  13 H :    0.035929
  14 H :    0.026685
  15 H :    0.057928
  16 S :    0.106552
  17 C :   -0.077323
  18 C :   -0.042162
  19 C :   -0.065715
  20 C :   -0.101096
  21 H :    0.033812
  22 C :    0.117235
  23 H :    0.012229
  24 H :   -0.024429
  25 C :   -0.074001
  26 H :    0.025562
  27 H :    0.042203
  28 C :   -0.097322
  29 H :    0.037319
  30 H :    0.049632
  31 H :    0.025512
  32 H :    0.035249
  33 H :    0.056422
Sum of atomic charges:    0.0000000

LOEWDIN ATOMIC CHARGES
----------------------
   0 S :    0.409526
   1 C :   -0.201564
   2 C :   -0.056068
   3 C :   -0.064417
   4 C :   -0.186496
   5 H :    0.023484
   6 C :   -0.040418
   7 H :    0.035360
   8 H :    0.028710
   9 C :   -0.042067
  10 H :    0.032801
  11 H :    0.021038
  12 C :   -0.065491
  13 H :    0.027726
  14 H :    0.019386
  15 H :    0.035470
  16 S :    0.387296
  17 C :   -0.179258
  18 C :   -0.070476
  19 C :   -0.045968
  20 C :   -0.191678
  21 H :    0.032859
  22 C :   -0.026950
  23 H :    0.028041
  24 H :    0.015655
  25 C :   -0.052144
  26 H :    0.027235
  27 H :    0.030973
  28 C :   -0.077258
  29 H :    0.028191
  30 H :    0.036994
  31 H :    0.020498
  32 H :    0.024626
  33 H :    0.034382

  Mayer bond orders larger than 0.100000
B(  0-S ,  1-C ) :   1.1218 B(  0-S ,  4-C ) :   1.1305 B(  1-C ,  2-C ) :   1.6600
B(  1-C , 32-H ) :   0.9681 B(  2-C ,  3-C ) :   1.2048 B(  2-C ,  6-C ) :   1.0095
B(  3-C ,  4-C ) :   1.5945 B(  3-C ,  5-H ) :   0.9834 B(  4-C , 20-C ) :   1.0989
B(  6-C ,  7-H ) :   0.9393 B(  6-C ,  8-H ) :   0.9371 B(  6-C ,  9-C ) :   1.0832
B(  9-C , 10-H ) :   0.9525 B(  9-C , 11-H ) :   0.9481 B(  9-C , 12-C ) :   1.0674
B( 12-C , 13-H ) :   0.9756 B( 12-C , 14-H ) :   0.9772 B( 12-C , 15-H ) :   0.9734
B( 16-S , 17-C ) :   1.1393 B( 16-S , 20-C ) :   1.1003 B( 17-C , 18-C ) :   1.6393
B( 17-C , 33-H ) :   0.9649 B( 18-C , 19-C ) :   1.2305 B( 18-C , 21-H ) :   0.9761
B( 19-C , 20-C ) :   1.6126 B( 19-C , 22-C ) :   1.0419 B( 22-C , 23-H ) :   0.9284
B( 22-C , 24-H ) :   0.9215 B( 22-C , 25-C ) :   1.0623 B( 25-C , 26-H ) :   0.9508
B( 25-C , 27-H ) :   0.9492 B( 25-C , 28-C ) :   1.0788 B( 28-C , 29-H ) :   0.9721
B( 28-C , 30-H ) :   0.9707 B( 28-C , 31-H ) :   0.9688

Dispersion correction           -0.014618381
FINAL SINGLE POINT ENERGY     -1339.860422582342

DIPOLE MOMENT
-------------
                                X             Y             Z
Electronic contribution:     18.95489      -6.95936      25.74607
Nuclear contribution   :    -19.46288       7.22211     -26.47121
                        -----------------------------------------
Total Dipole Moment    :     -0.50799       0.26274      -0.72514
                        -----------------------------------------
Magnitude (a.u.)       :      0.92354
Magnitude (Debye)      :      2.34744

Rotational constants in cm-1:     0.015801     0.010931     0.006984
Rotational constants in MHz :   473.691088   327.714396   209.374617

                             ****ORCA TERMINATED NORMALLY****
TOTAL RUN TIME: 0 days 0 hours 0 minutes 31 seconds 688 msec
