                         Program Version 4.2.1 -  RELEASE  -
|  1> ! wB97X-D3 SP def2-SVP
|  2> %pal
|  3> nprocs 16
|  4> end
|  5>
|  6> * xyz 0 1
|  7> S 	 3.74664 	 78.5541 	 46.7213
|  8> C 	 3.50822 	 79.8412 	 47.8621
|  9> C 	 3.12179 	 79.4918 	 49.1231
| 10> C 	 2.97685 	 78.0644 	 49.1276
| 11> C 	 3.1629 	 77.4335 	 47.9253
| 12> H 	 2.7493 	 77.4986 	 50.0413
| 13> C 	 3.00618 	 80.3936 	 50.2979
| 14> H 	 3.66379 	 81.345 	 50.1798
| 15> H 	 3.46249 	 79.9151 	 51.2656
| 16> C 	 1.59217 	 80.8356 	 50.6473
| 17> H 	 1.61033 	 81.6514 	 51.3723
| 18> H 	 1.18272 	 81.1717 	 49.7254
| 19> C 	 0.855364 	 79.6231 	 51.2216
| 20> H 	 -0.154564 	 79.8701 	 51.3787
| 21> H 	 0.750188 	 78.7164 	 50.5532
| 22> H 	 1.34111 	 79.4252 	 52.2049
| 23> S 	 4.69098 	 75.3208 	 47.0004
| 24> C 	 4.06238 	 73.7296 	 47.2451
| 25> C 	 2.77673 	 73.6924 	 47.6741
| 26> C 	 2.31 	 74.9871 	 48.0751
| 27> C 	 3.22266 	 75.9725 	 47.6891
| 28> H 	 2.23332 	 72.7961 	 47.8059
| 29> C 	 0.895749 	 75.2052 	 48.6332
| 30> H 	 0.30273 	 74.9979 	 47.8099
| 31> H 	 0.810225 	 76.2579 	 48.8667
| 32> C 	 0.594931 	 74.3908 	 49.9512
| 33> H 	 0.806378 	 73.34 	 49.8759
| 34> H 	 -0.517565 	 74.425 	 50.171
| 35> C 	 1.5526 	 74.9696 	 51.1318
| 36> H 	 1.5888 	 74.3537 	 52.0506
| 37> H 	 1.19318 	 75.965 	 51.4288
| 38> H 	 2.60187 	 75.0553 	 50.744
| 39> H 	 3.82539 	 80.8468 	 47.5261
| 40> H 	 4.51921 	 72.78 	 46.982
| 41> *
| 42>
| 43>                          ****END OF INPUT****

CARTESIAN COORDINATES (ANGSTROEM)
---------------------------------
  S      3.746640   78.554100   46.721300
  C      3.508220   79.841200   47.862100
  C      3.121790   79.491800   49.123100
  C      2.976850   78.064400   49.127600
  C      3.162900   77.433500   47.925300
  H      2.749300   77.498600   50.041300
  C      3.006180   80.393600   50.297900
  H      3.663790   81.345000   50.179800
  H      3.462490   79.915100   51.265600
  C      1.592170   80.835600   50.647300
  H      1.610330   81.651400   51.372300
  H      1.182720   81.171700   49.725400
  C      0.855364   79.623100   51.221600
  H     -0.154564   79.870100   51.378700
  H      0.750188   78.716400   50.553200
  H      1.341110   79.425200   52.204900
  S      4.690980   75.320800   47.000400
  C      4.062380   73.729600   47.245100
  C      2.776730   73.692400   47.674100
  C      2.310000   74.987100   48.075100
  C      3.222660   75.972500   47.689100
  H      2.233320   72.796100   47.805900
  C      0.895749   75.205200   48.633200
  H      0.302730   74.997900   47.809900
  H      0.810225   76.257900   48.866700
  C      0.594931   74.390800   49.951200
  H      0.806378   73.340000   49.875900
  H     -0.517565   74.425000   50.171000
  C      1.552600   74.969600   51.131800
  H      1.588800   74.353700   52.050600
  H      1.193180   75.965000   51.428800
  H      2.601870   75.055300   50.744000
  H      3.825390   80.846800   47.526100
  H      4.519210   72.780000   46.982000

 Total Charge           Charge          ....    0
 Multiplicity           Mult            ....    1
 Number of Electrons    NEL             ....  134
 Basis Dimension        Dim             ....  322

ORBITAL ENERGIES
----------------

  NO   OCC          E(Eh)            E(eV)
   0   2.0000     -88.967499     -2420.9287
   1   2.0000     -88.965108     -2420.8637
   2   2.0000     -10.325316      -280.9661
   3   2.0000     -10.324871      -280.9540
   4   2.0000     -10.313315      -280.6396
   5   2.0000     -10.311269      -280.5839
   6   2.0000     -10.303809      -280.3809
   7   2.0000     -10.301770      -280.3254
   8   2.0000     -10.301321      -280.3132
   9   2.0000     -10.299840      -280.2729
  10   2.0000     -10.292727      -280.0793
  11   2.0000     -10.290091      -280.0076
  12   2.0000     -10.289328      -279.9869
  13   2.0000     -10.286315      -279.9049
  14   2.0000     -10.284476      -279.8548
  15   2.0000     -10.279590      -279.7219
  16   2.0000      -8.082547      -219.9373
  17   2.0000      -8.080604      -219.8844
  18   2.0000      -6.041073      -164.3860
  19   2.0000      -6.039009      -164.3298
  20   2.0000      -6.037150      -164.2792
  21   2.0000      -6.035179      -164.2256
  22   2.0000      -6.033145      -164.1702
  23   2.0000      -6.031271      -164.1192
  24   2.0000      -1.008978       -27.4557
  25   2.0000      -0.988222       -26.8909
  26   2.0000      -0.917528       -24.9672
  27   2.0000      -0.900635       -24.5075
  28   2.0000      -0.868220       -23.6255
  29   2.0000      -0.847543       -23.0628
  30   2.0000      -0.840728       -22.8774
  31   2.0000      -0.813093       -22.1254
  32   2.0000      -0.781399       -21.2630
  33   2.0000      -0.769385       -20.9360
  34   2.0000      -0.707333       -19.2475
  35   2.0000      -0.700024       -19.0486
  36   2.0000      -0.691898       -18.8275
  37   2.0000      -0.658596       -17.9213
  38   2.0000      -0.638951       -17.3867
  39   2.0000      -0.617876       -16.8133
  40   2.0000      -0.593460       -16.1489
  41   2.0000      -0.579770       -15.7763
  42   2.0000      -0.556978       -15.1561
  43   2.0000      -0.546580       -14.8732
  44   2.0000      -0.543212       -14.7815
  45   2.0000      -0.531273       -14.4567
  46   2.0000      -0.511464       -13.9176
  47   2.0000      -0.505799       -13.7635
  48   2.0000      -0.497328       -13.5330
  49   2.0000      -0.486950       -13.2506
  50   2.0000      -0.485474       -13.2104
  51   2.0000      -0.474037       -12.8992
  52   2.0000      -0.469503       -12.7758
  53   2.0000      -0.461977       -12.5710
  54   2.0000      -0.456135       -12.4121
  55   2.0000      -0.452266       -12.3068
  56   2.0000      -0.444823       -12.1042
  57   2.0000      -0.439488       -11.9591
  58   2.0000      -0.434548       -11.8247
  59   2.0000      -0.430563       -11.7162
  60   2.0000      -0.423853       -11.5336
  61   2.0000      -0.420716       -11.4483
  62   2.0000      -0.414990       -11.2925
  63   2.0000      -0.348727        -9.4893
  64   2.0000      -0.332806        -9.0561
  65   2.0000      -0.331307        -9.0153
  66   2.0000      -0.289913        -7.8889
  67   0.0000       0.036856         1.0029
  68   0.0000       0.070904         1.9294
  69   0.0000       0.109328         2.9750
  70   0.0000       0.119549         3.2531
  71   0.0000       0.127101         3.4586

MULLIKEN ATOMIC CHARGES
-----------------------
   0 S :    0.102320
   1 C :   -0.144115
   2 C :   -0.033122
   3 C :    0.016883
   4 C :   -0.152017
   5 H :    0.002930
   6 C :   -0.028796
   7 H :    0.039236
   8 H :    0.040243
   9 C :   -0.015743
  10 H :    0.033642
  11 H :    0.018450
  12 C :   -0.071256
  13 H :    0.019012
  14 H :    0.052623
  15 H :    0.034234
  16 S :    0.119974
  17 C :   -0.076853
  18 C :   -0.015935
  19 C :   -0.097922
  20 C :   -0.141235
  21 H :    0.002827
  22 C :    0.114223
  23 H :    0.029871
  24 H :    0.019142
  25 C :   -0.087499
  26 H :    0.030007
  27 H :    0.045952
  28 C :   -0.109326
  29 H :    0.044291
  30 H :    0.039945
  31 H :    0.067113
  32 H :    0.051794
  33 H :    0.049108
Sum of atomic charges:   -0.0000000

LOEWDIN ATOMIC CHARGES
----------------------
   0 S :    0.403927
   1 C :   -0.189388
   2 C :   -0.070954
   3 C :   -0.060515
   4 C :   -0.198709
   5 H :    0.030646
   6 C :   -0.044226
   7 H :    0.037340
   8 H :    0.037270
   9 C :   -0.034830
  10 H :    0.026596
  11 H :    0.018938
  12 C :   -0.070041
  13 H :    0.016943
  14 H :    0.033687
  15 H :    0.029827
  16 S :    0.411852
  17 C :   -0.190267
  18 C :   -0.067061
  19 C :   -0.053441
  20 C :   -0.203606
  21 H :    0.024666
  22 C :   -0.021066
  23 H :    0.025938
  24 H :    0.028594
  25 C :   -0.036991
  26 H :    0.015909
  27 H :    0.031300
  28 C :   -0.073322
  29 H :    0.027899
  30 H :    0.022258
  31 H :    0.034230
  32 H :    0.025925
  33 H :    0.030671

  Mayer bond orders larger than 0.100000
B(  0-S ,  1-C ) :   1.1507 B(  0-S ,  4-C ) :   1.1418 B(  1-C ,  2-C ) :   1.6215
B(  1-C , 32-H ) :   0.9597 B(  2-C ,  3-C ) :   1.2348 B(  2-C ,  6-C ) :   1.0220
B(  3-C ,  4-C ) :   1.5901 B(  3-C ,  5-H ) :   0.9837 B(  4-C , 20-C ) :   1.0156
B(  6-C ,  7-H ) :   0.9422 B(  6-C ,  8-H ) :   0.9442 B(  6-C ,  9-C ) :   1.0639
B(  9-C , 10-H ) :   0.9542 B(  9-C , 11-H ) :   0.9489 B(  9-C , 12-C ) :   1.0843
B( 12-C , 13-H ) :   0.9693 B( 12-C , 14-H ) :   0.9679 B( 12-C , 15-H ) :   0.9725
B( 16-S , 17-C ) :   1.1460 B( 16-S , 20-C ) :   1.1388 B( 17-C , 18-C ) :   1.6397
B( 17-C , 33-H ) :   0.9614 B( 18-C , 19-C ) :   1.2229 B( 18-C , 21-H ) :   0.9932
B( 19-C , 20-C ) :   1.6138 B( 19-C , 22-C ) :   1.0251 B( 22-C , 23-H ) :   0.9380
B( 22-C , 24-H ) :   0.9369 B( 22-C , 25-C ) :   1.0517 B( 25-C , 26-H ) :   0.9648
B( 25-C , 27-H ) :   0.9619 B( 25-C , 28-C ) :   1.0485 B( 28-C , 29-H ) :   0.9754
B( 28-C , 30-H ) :   0.9744 B( 28-C , 31-H ) :   0.9712

Dispersion correction           -0.015808934
FINAL SINGLE POINT ENERGY     -1339.880271773093

DIPOLE MOMENT
-------------
                                X             Y             Z
Electronic contribution:     17.38159      -3.63504     -24.01534
Nuclear contribution   :    -17.74989       3.60396      24.50609
                        -----------------------------------------
Total Dipole Moment    :     -0.36830      -0.03108       0.49075
                        -----------------------------------------
Magnitude (a.u.)       :      0.61437
Magnitude (Debye)      :      1.56161

Rotational constants in cm-1:     0.018413     0.010419     0.007211
Rotational constants in MHz :   552.004592   312.357363   216.194457

                             ****ORCA TERMINATED NORMALLY****
TOTAL RUN TIME: 0 days 0 hours 0 minutes 36 seconds 321 msec
