                         Program Version 4.2.1 -  RELEASE  -
|  1> ! wB97X-D3 SP def2-SVP
|  2> %pal
|  3> nprocs 16
|  4> end
|  5>
|  6> * xyz 0 1
|  7> S 	 -15.446 	 55.5973 	 63.4845
|  8> C 	 -14.9805 	 53.9074 	 63.7089
|  9> C 	 -16.1223 	 53.0657 	 63.7201
| 10> C 	 -17.3479 	 53.8379 	 63.5141
| 11> C 	 -17.1818 	 55.1993 	 63.5217
| 12> H 	 -18.3207 	 53.4161 	 63.4589
| 13> C 	 -16.1622 	 51.6563 	 64.0605
| 14> H 	 -17.147 	 51.3946 	 64.5553
| 15> H 	 -15.3645 	 51.5661 	 64.7761
| 16> C 	 -16.052 	 50.7297 	 62.8064
| 17> H 	 -15.2271 	 51.0887 	 62.2366
| 18> H 	 -15.7085 	 49.7807 	 63.2154
| 19> C 	 -17.3128 	 50.6427 	 61.9681
| 20> H 	 -17.1126 	 50.0698 	 61.0156
| 21> H 	 -18.1106 	 50.1562 	 62.5371
| 22> H 	 -17.7472 	 51.6074 	 61.7208
| 23> S 	 -18.8373 	 57.0144 	 62.0527
| 24> C 	 -19.6211 	 58.2951 	 62.9928
| 25> C 	 -19.3777 	 58.1192 	 64.3458
| 26> C 	 -18.5756 	 56.993 	 64.6779
| 27> C 	 -18.147 	 56.3108 	 63.5305
| 28> H 	 -19.7709 	 58.8615 	 65.0397
| 29> C 	 -18.3095 	 56.6288 	 66.1487
| 30> H 	 -18.2377 	 57.5767 	 66.6717
| 31> H 	 -17.356 	 56.2628 	 66.3175
| 32> C 	 -19.3334 	 55.6649 	 66.8098
| 33> H 	 -19.4818 	 54.7481 	 66.2518
| 34> H 	 -20.2892 	 56.1773 	 66.8265
| 35> C 	 -18.9074 	 55.4232 	 68.2337
| 36> H 	 -18.7815 	 56.3715 	 68.6666
| 37> H 	 -17.945 	 54.8967 	 68.296
| 38> H 	 -19.724 	 54.8716 	 68.7219
| 39> H 	 -13.9365 	 53.5632 	 63.8894
| 40> H 	 -20.2564 	 59.0335 	 62.4981
| 41> *
| 42>
| 43>                          ****END OF INPUT****

CARTESIAN COORDINATES (ANGSTROEM)
---------------------------------
  S    -15.446000   55.597300   63.484500
  C    -14.980500   53.907400   63.708900
  C    -16.122300   53.065700   63.720100
  C    -17.347900   53.837900   63.514100
  C    -17.181800   55.199300   63.521700
  H    -18.320700   53.416100   63.458900
  C    -16.162200   51.656300   64.060500
  H    -17.147000   51.394600   64.555300
  H    -15.364500   51.566100   64.776100
  C    -16.052000   50.729700   62.806400
  H    -15.227100   51.088700   62.236600
  H    -15.708500   49.780700   63.215400
  C    -17.312800   50.642700   61.968100
  H    -17.112600   50.069800   61.015600
  H    -18.110600   50.156200   62.537100
  H    -17.747200   51.607400   61.720800
  S    -18.837300   57.014400   62.052700
  C    -19.621100   58.295100   62.992800
  C    -19.377700   58.119200   64.345800
  C    -18.575600   56.993000   64.677900
  C    -18.147000   56.310800   63.530500
  H    -19.770900   58.861500   65.039700
  C    -18.309500   56.628800   66.148700
  H    -18.237700   57.576700   66.671700
  H    -17.356000   56.262800   66.317500
  C    -19.333400   55.664900   66.809800
  H    -19.481800   54.748100   66.251800
  H    -20.289200   56.177300   66.826500
  C    -18.907400   55.423200   68.233700
  H    -18.781500   56.371500   68.666600
  H    -17.945000   54.896700   68.296000
  H    -19.724000   54.871600   68.721900
  H    -13.936500   53.563200   63.889400
  H    -20.256400   59.033500   62.498100

 Total Charge           Charge          ....    0
 Multiplicity           Mult            ....    1
 Number of Electrons    NEL             ....  134
 Basis Dimension        Dim             ....  322

ORBITAL ENERGIES
----------------

  NO   OCC          E(Eh)            E(eV)
   0   2.0000     -88.966520     -2420.9021
   1   2.0000     -88.962624     -2420.7961
   2   2.0000     -10.329834      -281.0891
   3   2.0000     -10.328762      -281.0599
   4   2.0000     -10.321746      -280.8690
   5   2.0000     -10.320465      -280.8341
   6   2.0000     -10.305769      -280.4342
   7   2.0000     -10.302177      -280.3365
   8   2.0000     -10.294940      -280.1395
   9   2.0000     -10.293888      -280.1109
  10   2.0000     -10.290860      -280.0285
  11   2.0000     -10.285184      -279.8741
  12   2.0000     -10.284277      -279.8494
  13   2.0000     -10.282428      -279.7991
  14   2.0000     -10.281543      -279.7750
  15   2.0000     -10.272423      -279.5268
  16   2.0000      -8.080411      -219.8792
  17   2.0000      -8.076474      -219.7720
  18   2.0000      -6.038900      -164.3268
  19   2.0000      -6.035125      -164.2241
  20   2.0000      -6.034990      -164.2204
  21   2.0000      -6.031297      -164.1199
  22   2.0000      -6.031048      -164.1132
  23   2.0000      -6.027184      -164.0080
  24   2.0000      -0.996711       -27.1219
  25   2.0000      -0.975882       -26.5551
  26   2.0000      -0.914277       -24.8787
  27   2.0000      -0.909882       -24.7592
  28   2.0000      -0.862712       -23.4756
  29   2.0000      -0.851168       -23.1615
  30   2.0000      -0.843231       -22.9455
  31   2.0000      -0.814328       -22.1590
  32   2.0000      -0.781801       -21.2739
  33   2.0000      -0.765507       -20.8305
  34   2.0000      -0.705259       -19.1911
  35   2.0000      -0.702195       -19.1077
  36   2.0000      -0.693507       -18.8713
  37   2.0000      -0.656494       -17.8641
  38   2.0000      -0.639687       -17.4068
  39   2.0000      -0.615994       -16.7620
  40   2.0000      -0.598123       -16.2758
  41   2.0000      -0.572665       -15.5830
  42   2.0000      -0.565883       -15.3984
  43   2.0000      -0.548714       -14.9313
  44   2.0000      -0.536188       -14.5904
  45   2.0000      -0.527012       -14.3407
  46   2.0000      -0.517350       -14.0778
  47   2.0000      -0.509756       -13.8712
  48   2.0000      -0.508795       -13.8450
  49   2.0000      -0.491997       -13.3879
  50   2.0000      -0.489907       -13.3310
  51   2.0000      -0.474947       -12.9240
  52   2.0000      -0.469053       -12.7636
  53   2.0000      -0.465642       -12.6708
  54   2.0000      -0.457750       -12.4560
  55   2.0000      -0.447007       -12.1637
  56   2.0000      -0.439213       -11.9516
  57   2.0000      -0.437571       -11.9069
  58   2.0000      -0.431233       -11.7344
  59   2.0000      -0.426350       -11.6016
  60   2.0000      -0.424899       -11.5621
  61   2.0000      -0.416594       -11.3361
  62   2.0000      -0.415647       -11.3103
  63   2.0000      -0.334656        -9.1065
  64   2.0000      -0.328845        -8.9483
  65   2.0000      -0.313644        -8.5347
  66   2.0000      -0.308313        -8.3896
  67   0.0000       0.041819         1.1379
  68   0.0000       0.049738         1.3534
  69   0.0000       0.112064         3.0494
  70   0.0000       0.119141         3.2420
  71   0.0000       0.126050         3.4300

MULLIKEN ATOMIC CHARGES
-----------------------
   0 S :    0.105709
   1 C :   -0.134645
   2 C :   -0.105504
   3 C :    0.068349
   4 C :   -0.175608
   5 H :    0.000294
   6 C :    0.021479
   7 H :    0.033750
   8 H :    0.025160
   9 C :   -0.027764
  10 H :    0.016358
  11 H :    0.024784
  12 C :   -0.060378
  13 H :    0.052218
  14 H :    0.026578
  15 H :    0.034859
  16 S :    0.108760
  17 C :   -0.114507
  18 C :   -0.028026
  19 C :   -0.011563
  20 C :   -0.184344
  21 H :    0.023907
  22 C :    0.100260
  23 H :    0.009820
  24 H :   -0.002781
  25 C :   -0.056050
  26 H :    0.029344
  27 H :    0.019029
  28 C :   -0.021896
  29 H :    0.013492
  30 H :    0.037301
  31 H :    0.039423
  32 H :    0.063825
  33 H :    0.068367
Sum of atomic charges:   -0.0000000

LOEWDIN ATOMIC CHARGES
----------------------
   0 S :    0.386528
   1 C :   -0.204653
   2 C :   -0.062567
   3 C :   -0.056740
   4 C :   -0.181864
   5 H :    0.025046
   6 C :   -0.038999
   7 H :    0.036132
   8 H :    0.031701
   9 C :   -0.034090
  10 H :    0.018795
  11 H :    0.023313
  12 C :   -0.068708
  13 H :    0.037908
  14 H :    0.024660
  15 H :    0.025424
  16 S :    0.389523
  17 C :   -0.178035
  18 C :   -0.074763
  19 C :   -0.045128
  20 C :   -0.207804
  21 H :    0.033616
  22 C :   -0.024940
  23 H :    0.030372
  24 H :    0.017926
  25 C :   -0.031337
  26 H :    0.022333
  27 H :    0.022119
  28 C :   -0.059363
  29 H :    0.017573
  30 H :    0.027788
  31 H :    0.030281
  32 H :    0.035604
  33 H :    0.032352

  Mayer bond orders larger than 0.100000
B(  0-S ,  1-C ) :   1.1352 B(  0-S ,  4-C ) :   1.1376 B(  1-C ,  2-C ) :   1.6103
B(  1-C , 32-H ) :   0.9627 B(  2-C ,  3-C ) :   1.2120 B(  2-C ,  6-C ) :   1.0324
B(  3-C ,  4-C ) :   1.6226 B(  3-C ,  5-H ) :   0.9919 B(  4-C , 20-C ) :   1.0198
B(  6-C ,  7-H ) :   0.9463 B(  6-C ,  8-H ) :   0.9380 B(  6-C ,  9-C ) :   1.0584
B(  9-C , 10-H ) :   0.9556 B(  9-C , 11-H ) :   0.9555 B(  9-C , 12-C ) :   1.0750
B( 12-C , 13-H ) :   0.9717 B( 12-C , 14-H ) :   0.9735 B( 12-C , 15-H ) :   0.9729
B( 16-S , 17-C ) :   1.1573 B( 16-S , 20-C ) :   1.1423 B( 17-C , 18-C ) :   1.5934
B( 17-C , 20-C ) :   0.1012 B( 17-C , 33-H ) :   0.9679 B( 18-C , 19-C ) :   1.2578
B( 18-C , 21-H ) :   0.9877 B( 19-C , 20-C ) :   1.5838 B( 19-C , 22-C ) :   1.0358
B( 22-C , 23-H ) :   0.9292 B( 22-C , 24-H ) :   0.9246 B( 22-C , 25-C ) :   1.0646
B( 25-C , 26-H ) :   0.9554 B( 25-C , 27-H ) :   0.9520 B( 25-C , 28-C ) :   1.0872
B( 28-C , 29-H ) :   0.9710 B( 28-C , 30-H ) :   0.9746 B( 28-C , 31-H ) :   0.9722

Dispersion correction           -0.014521857
FINAL SINGLE POINT ENERGY     -1339.884787649738

DIPOLE MOMENT
-------------
                                X             Y             Z
Electronic contribution:      4.19508      18.70158     -14.41850
Nuclear contribution   :     -4.40484     -19.00964      14.90837
                        -----------------------------------------
Total Dipole Moment    :     -0.20976      -0.30806       0.48986
                        -----------------------------------------
Magnitude (a.u.)       :      0.61552
Magnitude (Debye)      :      1.56453

Rotational constants in cm-1:     0.017597     0.008628     0.007255
Rotational constants in MHz :   527.537312   258.653565   217.507508

                             ****ORCA TERMINATED NORMALLY****
TOTAL RUN TIME: 0 days 0 hours 0 minutes 31 seconds 729 msec
