                         Program Version 4.2.1 -  RELEASE  -
|  1> ! wB97X-D3 SP def2-SVP
|  2> %pal
|  3> nprocs 16
|  4> end
|  5>
|  6> * xyz 0 1
|  7> S 	 6.21605 	 21.2781 	 39.6901
|  8> C 	 6.08789 	 22.9247 	 39.0779
|  9> C 	 7.11097 	 23.7629 	 39.4517
| 10> C 	 7.93034 	 23.0771 	 40.471
| 11> C 	 7.62405 	 21.7455 	 40.6814
| 12> H 	 8.67725 	 23.5508 	 41.1755
| 13> C 	 7.29069 	 25.2012 	 39.194
| 14> H 	 6.85233 	 25.2754 	 38.2004
| 15> H 	 8.39791 	 25.5511 	 39.243
| 16> C 	 6.46888 	 26.2492 	 40.0608
| 17> H 	 5.47717 	 25.9375 	 39.9864
| 18> H 	 6.69504 	 26.1831 	 41.1456
| 19> C 	 6.78722 	 27.706 	 39.651
| 20> H 	 6.80064 	 27.8805 	 38.5432
| 21> H 	 6.10469 	 28.4524 	 39.954
| 22> H 	 7.72863 	 28.058 	 40.0193
| 23> S 	 7.23388 	 20.4062 	 43.0462
| 24> C 	 8.58976 	 19.4695 	 43.7407
| 25> C 	 9.69425 	 19.6111 	 42.9732
| 26> C 	 9.57896 	 20.4631 	 41.8478
| 27> C 	 8.24746 	 20.9268 	 41.7117
| 28> H 	 10.6915 	 19.1 	 43.2595
| 29> C 	 10.5898 	 20.6541 	 40.7995
| 30> H 	 10.2517 	 21.3724 	 40.0681
| 31> H 	 10.6323 	 19.7748 	 40.2069
| 32> C 	 11.9697 	 21.0503 	 41.339
| 33> H 	 12.2936 	 20.0527 	 41.6081
| 34> H 	 11.9814 	 21.7308 	 42.2827
| 35> C 	 12.8767 	 21.5719 	 40.2007
| 36> H 	 13.9616 	 21.5365 	 40.4191
| 37> H 	 12.4731 	 22.6152 	 40.0558
| 38> H 	 12.8217 	 20.9191 	 39.2933
| 39> H 	 5.28802 	 23.0726 	 38.2676
| 40> H 	 8.56414 	 18.8071 	 44.6261
| 41> *
| 42>
| 43>                          ****END OF INPUT****

CARTESIAN COORDINATES (ANGSTROEM)
---------------------------------
  S      6.216050   21.278100   39.690100
  C      6.087890   22.924700   39.077900
  C      7.110970   23.762900   39.451700
  C      7.930340   23.077100   40.471000
  C      7.624050   21.745500   40.681400
  H      8.677250   23.550800   41.175500
  C      7.290690   25.201200   39.194000
  H      6.852330   25.275400   38.200400
  H      8.397910   25.551100   39.243000
  C      6.468880   26.249200   40.060800
  H      5.477170   25.937500   39.986400
  H      6.695040   26.183100   41.145600
  C      6.787220   27.706000   39.651000
  H      6.800640   27.880500   38.543200
  H      6.104690   28.452400   39.954000
  H      7.728630   28.058000   40.019300
  S      7.233880   20.406200   43.046200
  C      8.589760   19.469500   43.740700
  C      9.694250   19.611100   42.973200
  C      9.578960   20.463100   41.847800
  C      8.247460   20.926800   41.711700
  H     10.691500   19.100000   43.259500
  C     10.589800   20.654100   40.799500
  H     10.251700   21.372400   40.068100
  H     10.632300   19.774800   40.206900
  C     11.969700   21.050300   41.339000
  H     12.293600   20.052700   41.608100
  H     11.981400   21.730800   42.282700
  C     12.876700   21.571900   40.200700
  H     13.961600   21.536500   40.419100
  H     12.473100   22.615200   40.055800
  H     12.821700   20.919100   39.293300
  H      5.288020   23.072600   38.267600
  H      8.564140   18.807100   44.626100

 Total Charge           Charge          ....    0
 Multiplicity           Mult            ....    1
 Number of Electrons    NEL             ....  134
 Basis Dimension        Dim             ....  322

ORBITAL ENERGIES
----------------

  NO   OCC          E(Eh)            E(eV)
   0   2.0000     -88.966254     -2420.8948
   1   2.0000     -88.964301     -2420.8417
   2   2.0000     -10.328998      -281.0663
   3   2.0000     -10.326150      -280.9888
   4   2.0000     -10.324844      -280.9533
   5   2.0000     -10.318874      -280.7908
   6   2.0000     -10.306866      -280.4641
   7   2.0000     -10.300834      -280.2999
   8   2.0000     -10.300748      -280.2976
   9   2.0000     -10.300535      -280.2918
  10   2.0000     -10.296464      -280.1810
  11   2.0000     -10.292144      -280.0635
  12   2.0000     -10.290968      -280.0315
  13   2.0000     -10.288231      -279.9570
  14   2.0000     -10.280767      -279.7539
  15   2.0000     -10.278901      -279.7031
  16   2.0000      -8.080443      -219.8800
  17   2.0000      -8.078378      -219.8238
  18   2.0000      -6.039043      -164.3307
  19   2.0000      -6.036955      -164.2739
  20   2.0000      -6.035139      -164.2245
  21   2.0000      -6.032972      -164.1655
  22   2.0000      -6.031028      -164.1126
  23   2.0000      -6.029104      -164.0603
  24   2.0000      -1.001059       -27.2402
  25   2.0000      -0.979425       -26.6515
  26   2.0000      -0.912592       -24.8329
  27   2.0000      -0.907682       -24.6993
  28   2.0000      -0.868915       -23.6444
  29   2.0000      -0.848287       -23.0831
  30   2.0000      -0.845282       -23.0013
  31   2.0000      -0.812868       -22.1193
  32   2.0000      -0.778912       -21.1953
  33   2.0000      -0.766215       -20.8498
  34   2.0000      -0.710144       -19.3240
  35   2.0000      -0.697336       -18.9755
  36   2.0000      -0.696982       -18.9658
  37   2.0000      -0.647018       -17.6062
  38   2.0000      -0.637121       -17.3369
  39   2.0000      -0.612766       -16.6742
  40   2.0000      -0.596592       -16.2341
  41   2.0000      -0.571607       -15.5542
  42   2.0000      -0.570508       -15.5243
  43   2.0000      -0.550513       -14.9802
  44   2.0000      -0.520338       -14.1591
  45   2.0000      -0.517632       -14.0855
  46   2.0000      -0.513711       -13.9788
  47   2.0000      -0.508757       -13.8440
  48   2.0000      -0.506003       -13.7690
  49   2.0000      -0.497634       -13.5413
  50   2.0000      -0.487011       -13.2523
  51   2.0000      -0.474212       -12.9040
  52   2.0000      -0.470985       -12.8161
  53   2.0000      -0.462104       -12.5745
  54   2.0000      -0.458715       -12.4823
  55   2.0000      -0.447705       -12.1827
  56   2.0000      -0.446229       -12.1425
  57   2.0000      -0.436259       -11.8712
  58   2.0000      -0.432307       -11.7637
  59   2.0000      -0.426912       -11.6169
  60   2.0000      -0.422311       -11.4917
  61   2.0000      -0.417418       -11.3585
  62   2.0000      -0.402453       -10.9513
  63   2.0000      -0.343204        -9.3391
  64   2.0000      -0.329310        -8.9610
  65   2.0000      -0.325101        -8.8465
  66   2.0000      -0.296671        -8.0728
  67   0.0000       0.032754         0.8913
  68   0.0000       0.065270         1.7761
  69   0.0000       0.107945         2.9373
  70   0.0000       0.118535         3.2255
  71   0.0000       0.125073         3.4034

MULLIKEN ATOMIC CHARGES
-----------------------
   0 S :    0.103884
   1 C :   -0.169261
   2 C :   -0.041185
   3 C :    0.011750
   4 C :   -0.168864
   5 H :    0.042834
   6 C :    0.006668
   7 H :    0.027068
   8 H :    0.048983
   9 C :   -0.032694
  10 H :    0.013782
  11 H :    0.033059
  12 C :   -0.042281
  13 H :    0.026312
  14 H :    0.024626
  15 H :    0.025958
  16 S :    0.104078
  17 C :   -0.101263
  18 C :   -0.059482
  19 C :   -0.016101
  20 C :   -0.179673
  21 H :    0.047924
  22 C :    0.088859
  23 H :    0.009510
  24 H :    0.029670
  25 C :   -0.128530
  26 H :    0.022270
  27 H :    0.059663
  28 C :   -0.064372
  29 H :    0.041924
  30 H :    0.051694
  31 H :    0.036425
  32 H :    0.080536
  33 H :    0.066228
Sum of atomic charges:   -0.0000000

LOEWDIN ATOMIC CHARGES
----------------------
   0 S :    0.380160
   1 C :   -0.196234
   2 C :   -0.071996
   3 C :   -0.057028
   4 C :   -0.196677
   5 H :    0.042580
   6 C :   -0.041159
   7 H :    0.033630
   8 H :    0.042432
   9 C :   -0.030069
  10 H :    0.014131
  11 H :    0.028474
  12 C :   -0.068889
  13 H :    0.029072
  14 H :    0.023135
  15 H :    0.023116
  16 S :    0.389862
  17 C :   -0.181897
  18 C :   -0.083163
  19 C :   -0.055031
  20 C :   -0.196940
  21 H :    0.045482
  22 C :   -0.033722
  23 H :    0.025223
  24 H :    0.033008
  25 C :   -0.050087
  26 H :    0.018253
  27 H :    0.036842
  28 C :   -0.074416
  29 H :    0.027569
  30 H :    0.034498
  31 H :    0.030185
  32 H :    0.040395
  33 H :    0.039262

  Mayer bond orders larger than 0.100000
B(  0-S ,  1-C ) :   1.1354 B(  0-S ,  4-C ) :   1.1189 B(  1-C ,  2-C ) :   1.6264
B(  1-C , 32-H ) :   0.9535 B(  2-C ,  3-C ) :   1.1883 B(  2-C ,  6-C ) :   1.0473
B(  3-C ,  4-C ) :   1.6303 B(  3-C ,  5-H ) :   0.9768 B(  4-C , 20-C ) :   1.0391
B(  6-C ,  7-H ) :   0.9299 B(  6-C ,  8-H ) :   0.9444 B(  6-C ,  9-C ) :   1.0543
B(  9-C , 10-H ) :   0.9571 B(  9-C , 11-H ) :   0.9586 B(  9-C , 12-C ) :   1.0681
B( 12-C , 13-H ) :   0.9756 B( 12-C , 14-H ) :   0.9738 B( 12-C , 15-H ) :   0.9761
B( 16-S , 17-C ) :   1.1324 B( 16-S , 20-C ) :   1.1486 B( 17-C , 18-C ) :   1.6382
B( 17-C , 33-H ) :   0.9624 B( 18-C , 19-C ) :   1.2404 B( 18-C , 21-H ) :   0.9675
B( 19-C , 20-C ) :   1.5757 B( 19-C , 22-C ) :   1.0621 B( 22-C , 23-H ) :   0.9287
B( 22-C , 24-H ) :   0.9242 B( 22-C , 25-C ) :   1.0218 B( 25-C , 26-H ) :   0.9514
B( 25-C , 27-H ) :   0.9676 B( 25-C , 28-C ) :   1.0776 B( 28-C , 29-H ) :   0.9750
B( 28-C , 30-H ) :   0.9769 B( 28-C , 31-H ) :   0.9689

Dispersion correction           -0.013615355
FINAL SINGLE POINT ENERGY     -1339.861794522129

DIPOLE MOMENT
-------------
                                X             Y             Z
Electronic contribution:    -16.88427     -20.31753       7.63226
Nuclear contribution   :     17.30925      20.65680      -7.74359
                        -----------------------------------------
Total Dipole Moment    :      0.42498       0.33927      -0.11133
                        -----------------------------------------
Magnitude (a.u.)       :      0.55507
Magnitude (Debye)      :      1.41088

Rotational constants in cm-1:     0.017042     0.007928     0.006434
Rotational constants in MHz :   510.893236   237.690323   192.893827

                             ****ORCA TERMINATED NORMALLY****
TOTAL RUN TIME: 0 days 0 hours 0 minutes 33 seconds 923 msec
