                         Program Version 4.2.1 -  RELEASE  -
|  1> ! wB97X-D3 SP def2-SVP
|  2> %pal
|  3> nprocs 16
|  4> end
|  5>
|  6> * xyz 0 1
|  7> S 	 -36.0946 	 74.2752 	 152.561
|  8> C 	 -35.2274 	 75.6159 	 152.013
|  9> C 	 -33.8746 	 75.3194 	 151.946
| 10> C 	 -33.5674 	 73.8785 	 152.035
| 11> C 	 -34.7564 	 73.1913 	 152.297
| 12> H 	 -32.6361 	 73.4103 	 151.841
| 13> C 	 -32.7473 	 76.2692 	 151.597
| 14> H 	 -33.185 	 77.256 	 151.39
| 15> H 	 -32.2605 	 75.9206 	 150.717
| 16> C 	 -31.7115 	 76.4572 	 152.755
| 17> H 	 -32.2639 	 76.6248 	 153.671
| 18> H 	 -31.2383 	 75.5087 	 152.952
| 19> C 	 -30.7075 	 77.5452 	 152.539
| 20> H 	 -30.3624 	 77.8992 	 153.482
| 21> H 	 -29.84 	 77.2034 	 152.039
| 22> H 	 -31.2312 	 78.3013 	 151.974
| 23> S 	 -35.1598 	 70.82 	 150.913
| 24> C 	 -35.2666 	 69.3144 	 151.767
| 25> C 	 -35.2417 	 69.5626 	 153.119
| 26> C 	 -35.1203 	 70.9058 	 153.472
| 27> C 	 -34.9764 	 71.7269 	 152.377
| 28> H 	 -35.2486 	 68.75 	 153.86
| 29> C 	 -34.9454 	 71.3421 	 154.93
| 30> H 	 -35.8395 	 71.1372 	 155.558
| 31> H 	 -34.849 	 72.4962 	 154.879
| 32> C 	 -33.6761 	 70.8025 	 155.675
| 33> H 	 -32.7813 	 71.0809 	 155.088
| 34> H 	 -33.7017 	 69.7163 	 155.655
| 35> C 	 -33.6158 	 71.3764 	 157.065
| 36> H 	 -34.534 	 71.1839 	 157.567
| 37> H 	 -33.543 	 72.5117 	 157.026
| 38> H 	 -32.7807 	 70.9504 	 157.608
| 39> H 	 -35.638 	 76.6226 	 151.883
| 40> H 	 -35.1418 	 68.378 	 151.298
| 41> *
| 42>
| 43>                          ****END OF INPUT****

CARTESIAN COORDINATES (ANGSTROEM)
---------------------------------
  S    -36.094600   74.275200  152.561000
  C    -35.227400   75.615900  152.013000
  C    -33.874600   75.319400  151.946000
  C    -33.567400   73.878500  152.035000
  C    -34.756400   73.191300  152.297000
  H    -32.636100   73.410300  151.841000
  C    -32.747300   76.269200  151.597000
  H    -33.185000   77.256000  151.390000
  H    -32.260500   75.920600  150.717000
  C    -31.711500   76.457200  152.755000
  H    -32.263900   76.624800  153.671000
  H    -31.238300   75.508700  152.952000
  C    -30.707500   77.545200  152.539000
  H    -30.362400   77.899200  153.482000
  H    -29.840000   77.203400  152.039000
  H    -31.231200   78.301300  151.974000
  S    -35.159800   70.820000  150.913000
  C    -35.266600   69.314400  151.767000
  C    -35.241700   69.562600  153.119000
  C    -35.120300   70.905800  153.472000
  C    -34.976400   71.726900  152.377000
  H    -35.248600   68.750000  153.860000
  C    -34.945400   71.342100  154.930000
  H    -35.839500   71.137200  155.558000
  H    -34.849000   72.496200  154.879000
  C    -33.676100   70.802500  155.675000
  H    -32.781300   71.080900  155.088000
  H    -33.701700   69.716300  155.655000
  C    -33.615800   71.376400  157.065000
  H    -34.534000   71.183900  157.567000
  H    -33.543000   72.511700  157.026000
  H    -32.780700   70.950400  157.608000
  H    -35.638000   76.622600  151.883000
  H    -35.141800   68.378000  151.298000

 Total Charge           Charge          ....    0
 Multiplicity           Mult            ....    1
 Number of Electrons    NEL             ....  134
 Basis Dimension        Dim             ....  322

ORBITAL ENERGIES
----------------

  NO   OCC          E(Eh)            E(eV)
   0   2.0000     -88.964359     -2420.8433
   1   2.0000     -88.963062     -2420.8080
   2   2.0000     -10.331125      -281.1242
   3   2.0000     -10.322617      -280.8927
   4   2.0000     -10.312537      -280.6184
   5   2.0000     -10.311691      -280.5954
   6   2.0000     -10.303356      -280.3686
   7   2.0000     -10.299794      -280.2716
   8   2.0000     -10.297413      -280.2069
   9   2.0000     -10.296156      -280.1727
  10   2.0000     -10.289442      -279.9899
  11   2.0000     -10.288975      -279.9772
  12   2.0000     -10.285886      -279.8932
  13   2.0000     -10.279763      -279.7266
  14   2.0000     -10.277198      -279.6568
  15   2.0000     -10.268938      -279.4320
  16   2.0000      -8.080310      -219.8764
  17   2.0000      -8.078504      -219.8273
  18   2.0000      -6.038697      -164.3213
  19   2.0000      -6.036918      -164.2729
  20   2.0000      -6.034651      -164.2112
  21   2.0000      -6.032806      -164.1610
  22   2.0000      -6.031099      -164.1146
  23   2.0000      -6.029423      -164.0690
  24   2.0000      -1.009976       -27.4828
  25   2.0000      -0.990119       -26.9425
  26   2.0000      -0.911370       -24.7996
  27   2.0000      -0.904427       -24.6107
  28   2.0000      -0.869444       -23.6588
  29   2.0000      -0.853058       -23.2129
  30   2.0000      -0.851472       -23.1697
  31   2.0000      -0.815154       -22.1815
  32   2.0000      -0.777483       -21.1564
  33   2.0000      -0.766569       -20.8594
  34   2.0000      -0.704532       -19.1713
  35   2.0000      -0.696159       -18.9435
  36   2.0000      -0.691713       -18.8225
  37   2.0000      -0.659220       -17.9383
  38   2.0000      -0.648544       -17.6478
  39   2.0000      -0.616292       -16.7702
  40   2.0000      -0.598369       -16.2825
  41   2.0000      -0.571105       -15.5406
  42   2.0000      -0.564265       -15.3544
  43   2.0000      -0.559693       -15.2300
  44   2.0000      -0.531668       -14.4674
  45   2.0000      -0.525409       -14.2971
  46   2.0000      -0.517831       -14.0909
  47   2.0000      -0.513476       -13.9724
  48   2.0000      -0.508848       -13.8465
  49   2.0000      -0.505266       -13.7490
  50   2.0000      -0.492488       -13.4013
  51   2.0000      -0.478977       -13.0336
  52   2.0000      -0.468204       -12.7405
  53   2.0000      -0.465034       -12.6542
  54   2.0000      -0.457655       -12.4534
  55   2.0000      -0.451860       -12.2957
  56   2.0000      -0.441090       -12.0027
  57   2.0000      -0.432726       -11.7751
  58   2.0000      -0.430044       -11.7021
  59   2.0000      -0.423840       -11.5333
  60   2.0000      -0.419132       -11.4052
  61   2.0000      -0.418189       -11.3795
  62   2.0000      -0.414871       -11.2892
  63   2.0000      -0.335521        -9.1300
  64   2.0000      -0.332315        -9.0428
  65   2.0000      -0.321082        -8.7371
  66   2.0000      -0.307498        -8.3674
  67   0.0000       0.046337         1.2609
  68   0.0000       0.057494         1.5645
  69   0.0000       0.111768         3.0414
  70   0.0000       0.125502         3.4151
  71   0.0000       0.137703         3.7471

MULLIKEN ATOMIC CHARGES
-----------------------
   0 S :    0.134513
   1 C :   -0.116418
   2 C :   -0.110824
   3 C :    0.064352
   4 C :   -0.187155
   5 H :    0.011178
   6 C :    0.068811
   7 H :    0.008506
   8 H :    0.028709
   9 C :   -0.100617
  10 H :    0.021852
  11 H :    0.014617
  12 C :    0.021742
  13 H :    0.023239
  14 H :    0.023234
  15 H :    0.022913
  16 S :    0.116552
  17 C :   -0.083552
  18 C :   -0.041723
  19 C :    0.020243
  20 C :   -0.187156
  21 H :    0.021449
  22 C :   -0.004868
  23 H :    0.037284
  24 H :    0.036867
  25 C :   -0.074679
  26 H :    0.032345
  27 H :    0.023973
  28 C :   -0.025275
  29 H :    0.018615
  30 H :    0.037865
  31 H :    0.038583
  32 H :    0.056037
  33 H :    0.048788
Sum of atomic charges:   -0.0000000

LOEWDIN ATOMIC CHARGES
----------------------
   0 S :    0.435879
   1 C :   -0.220656
   2 C :   -0.060999
   3 C :   -0.047644
   4 C :   -0.197279
   5 H :    0.029164
   6 C :   -0.029813
   7 H :    0.024780
   8 H :    0.025241
   9 C :   -0.040925
  10 H :    0.023083
  11 H :    0.017344
  12 C :   -0.054815
  13 H :    0.025864
  14 H :    0.021721
  15 H :    0.025324
  16 S :    0.425383
  17 C :   -0.185832
  18 C :   -0.072026
  19 C :   -0.067287
  20 C :   -0.212613
  21 H :    0.032580
  22 C :   -0.038615
  23 H :    0.030763
  24 H :    0.034489
  25 C :   -0.041493
  26 H :    0.026859
  27 H :    0.018011
  28 C :   -0.063761
  29 H :    0.019127
  30 H :    0.034504
  31 H :    0.026670
  32 H :    0.034171
  33 H :    0.022801

  Mayer bond orders larger than 0.100000
B(  0-S ,  1-C ) :   1.1456 B(  0-S ,  4-C ) :   1.1680 B(  1-C ,  2-C ) :   1.6174
B(  1-C , 32-H ) :   0.9659 B(  2-C ,  3-C ) :   1.2041 B(  2-C ,  6-C ) :   1.0443
B(  3-C ,  4-C ) :   1.5878 B(  3-C ,  5-H ) :   1.0005 B(  4-C , 20-C ) :   0.9865
B(  6-C ,  7-H ) :   0.9383 B(  6-C ,  8-H ) :   0.9420 B(  6-C ,  9-C ) :   1.0594
B(  9-C , 10-H ) :   0.9573 B(  9-C , 11-H ) :   0.9533 B(  9-C , 12-C ) :   1.0888
B( 12-C , 13-H ) :   0.9720 B( 12-C , 14-H ) :   0.9731 B( 12-C , 15-H ) :   0.9732
B( 16-S , 17-C ) :   1.1666 B( 16-S , 20-C ) :   1.1701 B( 17-C , 18-C ) :   1.5761
B( 17-C , 20-C ) :   0.1050 B( 17-C , 33-H ) :   0.9747 B( 18-C , 19-C ) :   1.2725
B( 18-C , 21-H ) :   0.9871 B( 19-C , 20-C ) :   1.5847 B( 19-C , 22-C ) :   1.0395
B( 22-C , 23-H ) :   0.9366 B( 22-C , 24-H ) :   0.9346 B( 22-C , 25-C ) :   1.0590
B( 25-C , 26-H ) :   0.9528 B( 25-C , 27-H ) :   0.9535 B( 25-C , 28-C ) :   1.0888
B( 28-C , 29-H ) :   0.9711 B( 28-C , 30-H ) :   0.9727 B( 28-C , 31-H ) :   0.9718

Dispersion correction           -0.013796200
FINAL SINGLE POINT ENERGY     -1339.889010065141

DIPOLE MOMENT
-------------
                                X             Y             Z
Electronic contribution:    -19.11926     -10.37288     -16.55683
Nuclear contribution   :     19.64077      10.45289      16.84543
                        -----------------------------------------
Total Dipole Moment    :      0.52150       0.08001       0.28861
                        -----------------------------------------
Magnitude (a.u.)       :      0.60138
Magnitude (Debye)      :      1.52860

Rotational constants in cm-1:     0.017616     0.008106     0.006695
Rotational constants in MHz :   528.125622   243.014899   200.700638

                             ****ORCA TERMINATED NORMALLY****
TOTAL RUN TIME: 0 days 0 hours 0 minutes 33 seconds 498 msec
