                         Program Version 4.2.1 -  RELEASE  -
|  1> ! wB97X-D3 SP def2-SVP
|  2> %pal
|  3> nprocs 16
|  4> end
|  5>
|  6> * xyz 0 1
|  7> S 	 46.3184 	 22.2672 	 89.6579
|  8> C 	 47.4641 	 21.5893 	 90.7649
|  9> C 	 48.0031 	 20.38 	 90.3416
| 10> C 	 47.305 	 19.9558 	 89.1481
| 11> C 	 46.2069 	 20.7432 	 88.8026
| 12> H 	 47.3743 	 19.0241 	 88.617
| 13> C 	 49.0617 	 19.6681 	 91.0874
| 14> H 	 48.8632 	 19.5565 	 92.106
| 15> H 	 50.0032 	 20.2977 	 91.0232
| 16> C 	 49.5423 	 18.3426 	 90.493
| 17> H 	 48.8285 	 17.6015 	 90.2379
| 18> H 	 49.8435 	 18.6721 	 89.5352
| 19> C 	 50.7203 	 17.7602 	 91.3468
| 20> H 	 51.5869 	 18.4521 	 91.4209
| 21> H 	 50.3105 	 17.6824 	 92.4213
| 22> H 	 51.1286 	 16.8575 	 90.8308
| 23> S 	 44.3422 	 18.9398 	 87.8683
| 24> C 	 43.5193 	 19.159 	 86.3058
| 25> C 	 43.8112 	 20.4496 	 85.8597
| 26> C 	 44.8017 	 21.2114 	 86.6499
| 27> C 	 45.2525 	 20.4272 	 87.7455
| 28> H 	 43.378 	 20.84 	 85.0051
| 29> C 	 45.3996 	 22.4427 	 86.042
| 30> H 	 45.9082 	 23.0104 	 86.8146
| 31> H 	 44.5384 	 22.9854 	 85.6977
| 32> C 	 46.3501 	 22.2503 	 84.8279
| 33> H 	 46.3457 	 23.2951 	 84.4864
| 34> H 	 45.9184 	 21.5265 	 84.1203
| 35> C 	 47.791 	 21.7777 	 85.2008
| 36> H 	 47.7798 	 20.8072 	 85.7349
| 37> H 	 48.2053 	 22.4264 	 85.9027
| 38> H 	 48.459 	 21.6991 	 84.3244
| 39> H 	 48.035 	 22.1504 	 91.4915
| 40> H 	 42.8548 	 18.4923 	 85.8298
| 41> *
| 42>
| 43>                          ****END OF INPUT****

CARTESIAN COORDINATES (ANGSTROEM)
---------------------------------
  S     46.318400   22.267200   89.657900
  C     47.464100   21.589300   90.764900
  C     48.003100   20.380000   90.341600
  C     47.305000   19.955800   89.148100
  C     46.206900   20.743200   88.802600
  H     47.374300   19.024100   88.617000
  C     49.061700   19.668100   91.087400
  H     48.863200   19.556500   92.106000
  H     50.003200   20.297700   91.023200
  C     49.542300   18.342600   90.493000
  H     48.828500   17.601500   90.237900
  H     49.843500   18.672100   89.535200
  C     50.720300   17.760200   91.346800
  H     51.586900   18.452100   91.420900
  H     50.310500   17.682400   92.421300
  H     51.128600   16.857500   90.830800
  S     44.342200   18.939800   87.868300
  C     43.519300   19.159000   86.305800
  C     43.811200   20.449600   85.859700
  C     44.801700   21.211400   86.649900
  C     45.252500   20.427200   87.745500
  H     43.378000   20.840000   85.005100
  C     45.399600   22.442700   86.042000
  H     45.908200   23.010400   86.814600
  H     44.538400   22.985400   85.697700
  C     46.350100   22.250300   84.827900
  H     46.345700   23.295100   84.486400
  H     45.918400   21.526500   84.120300
  C     47.791000   21.777700   85.200800
  H     47.779800   20.807200   85.734900
  H     48.205300   22.426400   85.902700
  H     48.459000   21.699100   84.324400
  H     48.035000   22.150400   91.491500
  H     42.854800   18.492300   85.829800

 Total Charge           Charge          ....    0
 Multiplicity           Mult            ....    1
 Number of Electrons    NEL             ....  134
 Basis Dimension        Dim             ....  322

ORBITAL ENERGIES
----------------

  NO   OCC          E(Eh)            E(eV)
   0   2.0000     -88.969126     -2420.9730
   1   2.0000     -88.966169     -2420.8925
   2   2.0000     -10.331500      -281.1344
   3   2.0000     -10.330373      -281.1038
   4   2.0000     -10.320343      -280.8308
   5   2.0000     -10.309961      -280.5483
   6   2.0000     -10.306411      -280.4517
   7   2.0000     -10.303912      -280.3837
   8   2.0000     -10.296604      -280.1848
   9   2.0000     -10.294484      -280.1272
  10   2.0000     -10.294148      -280.1180
  11   2.0000     -10.291556      -280.0475
  12   2.0000     -10.291155      -280.0366
  13   2.0000     -10.289223      -279.9840
  14   2.0000     -10.281646      -279.7778
  15   2.0000     -10.272886      -279.5394
  16   2.0000      -8.083638      -219.9670
  17   2.0000      -8.080174      -219.8727
  18   2.0000      -6.042125      -164.4146
  19   2.0000      -6.038796      -164.3240
  20   2.0000      -6.038273      -164.3098
  21   2.0000      -6.034693      -164.2123
  22   2.0000      -6.034343      -164.2028
  23   2.0000      -6.030927      -164.1099
  24   2.0000      -1.003844       -27.3160
  25   2.0000      -0.979299       -26.6481
  26   2.0000      -0.917320       -24.9615
  27   2.0000      -0.906376       -24.6638
  28   2.0000      -0.869960       -23.6728
  29   2.0000      -0.847601       -23.0644
  30   2.0000      -0.839876       -22.8542
  31   2.0000      -0.814624       -22.1671
  32   2.0000      -0.782065       -21.2811
  33   2.0000      -0.769583       -20.9414
  34   2.0000      -0.716818       -19.5056
  35   2.0000      -0.699717       -19.0403
  36   2.0000      -0.688023       -18.7220
  37   2.0000      -0.666283       -18.1305
  38   2.0000      -0.639013       -17.3884
  39   2.0000      -0.617436       -16.8013
  40   2.0000      -0.597641       -16.2626
  41   2.0000      -0.574930       -15.6446
  42   2.0000      -0.571788       -15.5591
  43   2.0000      -0.548822       -14.9342
  44   2.0000      -0.540150       -14.6982
  45   2.0000      -0.527650       -14.3581
  46   2.0000      -0.517766       -14.0891
  47   2.0000      -0.503937       -13.7128
  48   2.0000      -0.497988       -13.5510
  49   2.0000      -0.496085       -13.4991
  50   2.0000      -0.490600       -13.3499
  51   2.0000      -0.482196       -13.1212
  52   2.0000      -0.471730       -12.8364
  53   2.0000      -0.461996       -12.5716
  54   2.0000      -0.459952       -12.5159
  55   2.0000      -0.450109       -12.2481
  56   2.0000      -0.441127       -12.0037
  57   2.0000      -0.437856       -11.9147
  58   2.0000      -0.431661       -11.7461
  59   2.0000      -0.428273       -11.6539
  60   2.0000      -0.423638       -11.5278
  61   2.0000      -0.417421       -11.3586
  62   2.0000      -0.410474       -11.1696
  63   2.0000      -0.344426        -9.3723
  64   2.0000      -0.330103        -8.9826
  65   2.0000      -0.323576        -8.8050
  66   2.0000      -0.291260        -7.9256
  67   0.0000       0.023903         0.6504
  68   0.0000       0.067519         1.8373
  69   0.0000       0.102415         2.7868
  70   0.0000       0.113026         3.0756
  71   0.0000       0.134195         3.6516

MULLIKEN ATOMIC CHARGES
-----------------------
   0 S :    0.122184
   1 C :   -0.101205
   2 C :   -0.076079
   3 C :    0.014854
   4 C :   -0.145670
   5 H :    0.010511
   6 C :    0.040781
   7 H :    0.023821
   8 H :    0.040519
   9 C :   -0.068095
  10 H :    0.030952
  11 H :    0.010559
  12 C :   -0.069790
  13 H :    0.031571
  14 H :    0.049150
  15 H :    0.050441
  16 S :    0.105460
  17 C :   -0.078056
  18 C :   -0.017247
  19 C :   -0.051279
  20 C :   -0.170824
  21 H :   -0.007458
  22 C :    0.061353
  23 H :    0.013437
  24 H :    0.024835
  25 C :   -0.064867
  26 H :    0.037809
  27 H :    0.035985
  28 C :   -0.039069
  29 H :    0.038040
  30 H :    0.013129
  31 H :    0.041891
  32 H :    0.043385
  33 H :    0.048971
Sum of atomic charges:   -0.0000000

LOEWDIN ATOMIC CHARGES
----------------------
   0 S :    0.418194
   1 C :   -0.203226
   2 C :   -0.060337
   3 C :   -0.061275
   4 C :   -0.197290
   5 H :    0.025564
   6 C :   -0.033261
   7 H :    0.021856
   8 H :    0.045163
   9 C :   -0.042138
  10 H :    0.018284
  11 H :    0.018024
  12 C :   -0.071090
  13 H :    0.024696
  14 H :    0.036896
  15 H :    0.033677
  16 S :    0.401255
  17 C :   -0.175704
  18 C :   -0.055203
  19 C :   -0.059792
  20 C :   -0.201582
  21 H :    0.014555
  22 C :   -0.035791
  23 H :    0.021687
  24 H :    0.032272
  25 C :   -0.031859
  26 H :    0.029295
  27 H :    0.025255
  28 C :   -0.065713
  29 H :    0.031643
  30 H :    0.014853
  31 H :    0.029531
  32 H :    0.026628
  33 H :    0.024931

  Mayer bond orders larger than 0.100000
B(  0-S ,  1-C ) :   1.1472 B(  0-S ,  4-C ) :   1.1419 B(  1-C ,  2-C ) :   1.6107
B(  1-C , 32-H ) :   0.9651 B(  2-C ,  3-C ) :   1.2423 B(  2-C ,  6-C ) :   1.0210
B(  3-C ,  4-C ) :   1.5513 B(  3-C ,  5-H ) :   0.9908 B(  4-C , 20-C ) :   1.0625
B(  6-C ,  7-H ) :   0.9458 B(  6-C ,  8-H ) :   0.9332 B(  6-C ,  9-C ) :   1.0688
B(  9-C , 10-H ) :   0.9574 B(  9-C , 11-H ) :   0.9461 B(  9-C , 12-C ) :   1.0770
B( 12-C , 13-H ) :   0.9752 B( 12-C , 14-H ) :   0.9738 B( 12-C , 15-H ) :   0.9723
B( 16-S , 17-C ) :   1.1324 B( 16-S , 20-C ) :   1.1523 B( 17-C , 18-C ) :   1.6065
B( 17-C , 33-H ) :   0.9780 B( 18-C , 19-C ) :   1.2297 B( 18-C , 21-H ) :   0.9941
B( 19-C , 20-C ) :   1.5541 B( 19-C , 22-C ) :   1.0661 B( 22-C , 23-H ) :   0.9291
B( 22-C , 24-H ) :   0.9252 B( 22-C , 25-C ) :   1.0626 B( 25-C , 26-H ) :   0.9550
B( 25-C , 27-H ) :   0.9568 B( 25-C , 28-C ) :   1.0740 B( 28-C , 29-H ) :   0.9752
B( 28-C , 30-H ) :   0.9743 B( 28-C , 31-H ) :   0.9750

Dispersion correction           -0.014599986
FINAL SINGLE POINT ENERGY     -1339.861050741435

DIPOLE MOMENT
-------------
                                X             Y             Z
Electronic contribution:    -20.73101       2.93671       3.78152
Nuclear contribution   :     21.15872      -2.92545      -4.05170
                        -----------------------------------------
Total Dipole Moment    :      0.42771       0.01126      -0.27018
                        -----------------------------------------
Magnitude (a.u.)       :      0.50603
Magnitude (Debye)      :      1.28622

Rotational constants in cm-1:     0.019845     0.007812     0.007217
Rotational constants in MHz :   594.935708   234.211520   216.351226

                             ****ORCA TERMINATED NORMALLY****
TOTAL RUN TIME: 0 days 0 hours 0 minutes 28 seconds 181 msec
