                         Program Version 4.2.1 -  RELEASE  -
|  1> ! wB97X-D3 SP def2-SVP
|  2> %pal
|  3> nprocs 16
|  4> end
|  5>
|  6> * xyz 0 1
|  7> S 	 -50.0187 	 65.2277 	 136.565
|  8> C 	 -49.5734 	 63.6127 	 136.136
|  9> C 	 -48.8625 	 63.0891 	 137.21
| 10> C 	 -48.8157 	 63.9002 	 138.376
| 11> C 	 -49.5571 	 65.0781 	 138.218
| 12> H 	 -48.2597 	 63.7131 	 139.256
| 13> C 	 -48.1864 	 61.7292 	 137.255
| 14> H 	 -48.2546 	 61.223 	 136.289
| 15> H 	 -48.7816 	 61.1188 	 137.876
| 16> C 	 -46.6934 	 61.5919 	 137.672
| 17> H 	 -46.132 	 61.845 	 136.749
| 18> H 	 -46.3263 	 62.2343 	 138.474
| 19> C 	 -46.3371 	 60.1454 	 138.207
| 20> H 	 -46.5815 	 60.1051 	 139.25
| 21> H 	 -46.9358 	 59.4653 	 137.649
| 22> H 	 -45.2825 	 59.8727 	 138.157
| 23> S 	 -49.394 	 67.8278 	 138.498
| 24> C 	 -49.8177 	 68.5107 	 140.068
| 25> C 	 -49.9857 	 67.5493 	 141.015
| 26> C 	 -49.8509 	 66.2704 	 140.485
| 27> C 	 -49.6861 	 66.1993 	 139.139
| 28> H 	 -50.3169 	 67.8346 	 142.052
| 29> C 	 -49.9866 	 65.0935 	 141.395
| 30> H 	 -50.1151 	 65.503 	 142.414
| 31> H 	 -49.1005 	 64.4527 	 141.583
| 32> C 	 -51.1902 	 64.2262 	 141.076
| 33> H 	 -51.0122 	 63.7034 	 140.203
| 34> H 	 -52.0429 	 64.819 	 140.833
| 35> C 	 -51.5356 	 63.2623 	 142.191
| 36> H 	 -52.3586 	 63.5938 	 142.827
| 37> H 	 -50.6501 	 63.1096 	 142.752
| 38> H 	 -51.8653 	 62.3007 	 141.8
| 39> H 	 -49.7672 	 62.96 	 135.307
| 40> H 	 -49.9732 	 69.6068 	 140.241
| 41> *
| 42>
| 43>                          ****END OF INPUT****

CARTESIAN COORDINATES (ANGSTROEM)
---------------------------------
  S    -50.018700   65.227700  136.565000
  C    -49.573400   63.612700  136.136000
  C    -48.862500   63.089100  137.210000
  C    -48.815700   63.900200  138.376000
  C    -49.557100   65.078100  138.218000
  H    -48.259700   63.713100  139.256000
  C    -48.186400   61.729200  137.255000
  H    -48.254600   61.223000  136.289000
  H    -48.781600   61.118800  137.876000
  C    -46.693400   61.591900  137.672000
  H    -46.132000   61.845000  136.749000
  H    -46.326300   62.234300  138.474000
  C    -46.337100   60.145400  138.207000
  H    -46.581500   60.105100  139.250000
  H    -46.935800   59.465300  137.649000
  H    -45.282500   59.872700  138.157000
  S    -49.394000   67.827800  138.498000
  C    -49.817700   68.510700  140.068000
  C    -49.985700   67.549300  141.015000
  C    -49.850900   66.270400  140.485000
  C    -49.686100   66.199300  139.139000
  H    -50.316900   67.834600  142.052000
  C    -49.986600   65.093500  141.395000
  H    -50.115100   65.503000  142.414000
  H    -49.100500   64.452700  141.583000
  C    -51.190200   64.226200  141.076000
  H    -51.012200   63.703400  140.203000
  H    -52.042900   64.819000  140.833000
  C    -51.535600   63.262300  142.191000
  H    -52.358600   63.593800  142.827000
  H    -50.650100   63.109600  142.752000
  H    -51.865300   62.300700  141.800000
  H    -49.767200   62.960000  135.307000
  H    -49.973200   69.606800  140.241000

 Total Charge           Charge          ....    0
 Multiplicity           Mult            ....    1
 Number of Electrons    NEL             ....  134
 Basis Dimension        Dim             ....  322

ORBITAL ENERGIES
----------------

  NO   OCC          E(Eh)            E(eV)
   0   2.0000     -88.969120     -2420.9728
   1   2.0000     -88.965143     -2420.8646
   2   2.0000     -10.331917      -281.1457
   3   2.0000     -10.326159      -280.9891
   4   2.0000     -10.319209      -280.8000
   5   2.0000     -10.313297      -280.6391
   6   2.0000     -10.301037      -280.3055
   7   2.0000     -10.295828      -280.1637
   8   2.0000     -10.293571      -280.1023
   9   2.0000     -10.293113      -280.0898
  10   2.0000     -10.291792      -280.0539
  11   2.0000     -10.289696      -279.9969
  12   2.0000     -10.289103      -279.9807
  13   2.0000     -10.278381      -279.6890
  14   2.0000     -10.268832      -279.4291
  15   2.0000     -10.266550      -279.3670
  16   2.0000      -8.084153      -219.9810
  17   2.0000      -8.079521      -219.8549
  18   2.0000      -6.042744      -164.4314
  19   2.0000      -6.038487      -164.3156
  20   2.0000      -6.038128      -164.3058
  21   2.0000      -6.034920      -164.2185
  22   2.0000      -6.034167      -164.1980
  23   2.0000      -6.030119      -164.0879
  24   2.0000      -1.013611       -27.5818
  25   2.0000      -0.991190       -26.9716
  26   2.0000      -0.913825       -24.8664
  27   2.0000      -0.907857       -24.7040
  28   2.0000      -0.872380       -23.7387
  29   2.0000      -0.854550       -23.2535
  30   2.0000      -0.846672       -23.0391
  31   2.0000      -0.816899       -22.2289
  32   2.0000      -0.781636       -21.2694
  33   2.0000      -0.772298       -21.0153
  34   2.0000      -0.714261       -19.4360
  35   2.0000      -0.703073       -19.1316
  36   2.0000      -0.693545       -18.8723
  37   2.0000      -0.662964       -18.0402
  38   2.0000      -0.640207       -17.4209
  39   2.0000      -0.625131       -17.0107
  40   2.0000      -0.603574       -16.4241
  41   2.0000      -0.571089       -15.5401
  42   2.0000      -0.560868       -15.2620
  43   2.0000      -0.559109       -15.2141
  44   2.0000      -0.529461       -14.4074
  45   2.0000      -0.528339       -14.3768
  46   2.0000      -0.517570       -14.0838
  47   2.0000      -0.510478       -13.8908
  48   2.0000      -0.508896       -13.8478
  49   2.0000      -0.502002       -13.6602
  50   2.0000      -0.493839       -13.4380
  51   2.0000      -0.489861       -13.3298
  52   2.0000      -0.469022       -12.7627
  53   2.0000      -0.463694       -12.6177
  54   2.0000      -0.456933       -12.4338
  55   2.0000      -0.453460       -12.3393
  56   2.0000      -0.446684       -12.1549
  57   2.0000      -0.437213       -11.8972
  58   2.0000      -0.431637       -11.7454
  59   2.0000      -0.425351       -11.5744
  60   2.0000      -0.421495       -11.4695
  61   2.0000      -0.415386       -11.3032
  62   2.0000      -0.407784       -11.0964
  63   2.0000      -0.354306        -9.6412
  64   2.0000      -0.334269        -9.0959
  65   2.0000      -0.327973        -8.9246
  66   2.0000      -0.288371        -7.8470
  67   0.0000       0.021622         0.5884
  68   0.0000       0.072834         1.9819
  69   0.0000       0.105941         2.8828
  70   0.0000       0.125582         3.4173
  71   0.0000       0.132194         3.5972

MULLIKEN ATOMIC CHARGES
-----------------------
   0 S :    0.117940
   1 C :   -0.083847
   2 C :   -0.099882
   3 C :    0.037677
   4 C :   -0.147586
   5 H :   -0.000457
   6 C :    0.067885
   7 H :    0.010887
   8 H :    0.021906
   9 C :   -0.104547
  10 H :    0.042104
  11 H :    0.036743
  12 C :   -0.051811
  13 H :    0.030803
  14 H :    0.026739
  15 H :    0.039499
  16 S :    0.095425
  17 C :   -0.109874
  18 C :   -0.046125
  19 C :   -0.024114
  20 C :   -0.124802
  21 H :    0.041970
  22 C :    0.021899
  23 H :    0.005532
  24 H :    0.036245
  25 C :   -0.033998
  26 H :    0.016696
  27 H :    0.017883
  28 C :   -0.024104
  29 H :    0.035926
  30 H :    0.015531
  31 H :    0.022546
  32 H :    0.037450
  33 H :    0.071860
Sum of atomic charges:    0.0000000

LOEWDIN ATOMIC CHARGES
----------------------
   0 S :    0.435246
   1 C :   -0.213600
   2 C :   -0.059847
   3 C :   -0.058733
   4 C :   -0.195927
   5 H :    0.024820
   6 C :   -0.035449
   7 H :    0.028498
   8 H :    0.023338
   9 C :   -0.039352
  10 H :    0.027742
  11 H :    0.020907
  12 C :   -0.059553
  13 H :    0.023247
  14 H :    0.017995
  15 H :    0.028945
  16 S :    0.384471
  17 C :   -0.180412
  18 C :   -0.078647
  19 C :   -0.064498
  20 C :   -0.184067
  21 H :    0.045605
  22 C :   -0.035652
  23 H :    0.027920
  24 H :    0.029876
  25 C :   -0.036393
  26 H :    0.014165
  27 H :    0.023410
  28 C :   -0.059295
  29 H :    0.027545
  30 H :    0.017804
  31 H :    0.026608
  32 H :    0.034173
  33 H :    0.039111

  Mayer bond orders larger than 0.100000
B(  0-S ,  1-C ) :   1.1340 B(  0-S ,  4-C ) :   1.1788 B(  1-C ,  2-C ) :   1.5870
B(  1-C ,  4-C ) :   0.1040 B(  1-C , 32-H ) :   0.9692 B(  2-C ,  3-C ) :   1.2651
B(  2-C ,  6-C ) :   1.0227 B(  3-C ,  4-C ) :   1.5063 B(  3-C ,  5-H ) :   1.0033
B(  4-C , 20-C ) :   1.0610 B(  6-C ,  7-H ) :   0.9367 B(  6-C ,  8-H ) :   0.9457
B(  6-C ,  9-C ) :   1.0445 B(  9-C , 10-H ) :   0.9624 B(  9-C , 11-H ) :   0.9671
B(  9-C , 12-C ) :   1.0646 B( 12-C , 13-H ) :   0.9782 B( 12-C , 14-H ) :   0.9801
B( 12-C , 15-H ) :   0.9763 B( 16-S , 17-C ) :   1.1492 B( 16-S , 20-C ) :   1.1212
B( 17-C , 18-C ) :   1.6222 B( 17-C , 33-H ) :   0.9579 B( 18-C , 19-C ) :   1.2483
B( 18-C , 21-H ) :   0.9810 B( 19-C , 20-C ) :   1.6186 B( 19-C , 22-C ) :   1.0455
B( 22-C , 23-H ) :   0.9348 B( 22-C , 24-H ) :   0.9235 B( 22-C , 25-C ) :   1.0698
B( 25-C , 26-H ) :   0.9502 B( 25-C , 27-H ) :   0.9535 B( 25-C , 28-C ) :   1.0845
B( 28-C , 29-H ) :   0.9765 B( 28-C , 30-H ) :   0.9744 B( 28-C , 31-H ) :   0.9730

Dispersion correction           -0.014074974
FINAL SINGLE POINT ENERGY     -1339.867344323239

DIPOLE MOMENT
-------------
                                X             Y             Z
Electronic contribution:     -4.75245      26.63479     -14.20090
Nuclear contribution   :      4.84826     -27.13146      14.63558
                        -----------------------------------------
Total Dipole Moment    :      0.09581      -0.49667       0.43468
                        -----------------------------------------
Magnitude (a.u.)       :      0.66694
Magnitude (Debye)      :      1.69522

Rotational constants in cm-1:     0.017626     0.008901     0.007000
Rotational constants in MHz :   528.401384   266.853939   209.864716

                             ****ORCA TERMINATED NORMALLY****
TOTAL RUN TIME: 0 days 0 hours 0 minutes 32 seconds 995 msec
