                         Program Version 4.2.1 -  RELEASE  -
|  1> ! wB97X-D3 SP def2-SVP
|  2> %pal
|  3> nprocs 16
|  4> end
|  5>
|  6> * xyz 0 1
|  7> S 	 36.3361 	 13.0459 	 80.7481
|  8> C 	 36.5703 	 14.2257 	 82.0325
|  9> C 	 37.1188 	 15.4156 	 81.5041
| 10> C 	 37.215 	 15.3502 	 80.137
| 11> C 	 37.0437 	 14.1027 	 79.5849
| 12> H 	 37.6831 	 16.0506 	 79.5255
| 13> C 	 37.6499 	 16.5824 	 82.2825
| 14> H 	 38.0538 	 16.3412 	 83.2946
| 15> H 	 36.8275 	 17.236 	 82.4985
| 16> C 	 38.6314 	 17.4548 	 81.6392
| 17> H 	 39.5067 	 16.8967 	 81.2556
| 18> H 	 38.1965 	 17.9098 	 80.8141
| 19> C 	 39.1927 	 18.5346 	 82.5441
| 20> H 	 38.5011 	 19.1384 	 83.1409
| 21> H 	 39.9894 	 18.1876 	 83.1613
| 22> H 	 39.6607 	 19.1948 	 81.7497
| 23> S 	 35.6979 	 13.0158 	 77.4536
| 24> C 	 36.2315 	 13.2578 	 75.8474
| 25> C 	 37.5397 	 13.582 	 75.8313
| 26> C 	 38.1101 	 13.8175 	 77.1632
| 27> C 	 37.1916 	 13.6282 	 78.202
| 28> H 	 38.1127 	 13.5718 	 74.9528
| 29> C 	 39.5561 	 14.3096 	 77.251
| 30> H 	 39.5675 	 15.3414 	 77.598
| 31> H 	 40.0241 	 14.3316 	 76.2692
| 32> C 	 40.4731 	 13.4357 	 78.1139
| 33> H 	 41.4778 	 13.8431 	 78.0877
| 34> H 	 40.5777 	 12.4858 	 77.6703
| 35> C 	 40.1286 	 13.2079 	 79.5997
| 36> H 	 40.9845 	 12.6871 	 80.031
| 37> H 	 39.358 	 12.5052 	 79.6577
| 38> H 	 39.8174 	 14.1497 	 80.0689
| 39> H 	 36.3127 	 14.116 	 83.0863
| 40> H 	 35.6707 	 13.0562 	 74.9659
| 41> *
| 42>
| 43>                          ****END OF INPUT****

CARTESIAN COORDINATES (ANGSTROEM)
---------------------------------
  S     36.336100   13.045900   80.748100
  C     36.570300   14.225700   82.032500
  C     37.118800   15.415600   81.504100
  C     37.215000   15.350200   80.137000
  C     37.043700   14.102700   79.584900
  H     37.683100   16.050600   79.525500
  C     37.649900   16.582400   82.282500
  H     38.053800   16.341200   83.294600
  H     36.827500   17.236000   82.498500
  C     38.631400   17.454800   81.639200
  H     39.506700   16.896700   81.255600
  H     38.196500   17.909800   80.814100
  C     39.192700   18.534600   82.544100
  H     38.501100   19.138400   83.140900
  H     39.989400   18.187600   83.161300
  H     39.660700   19.194800   81.749700
  S     35.697900   13.015800   77.453600
  C     36.231500   13.257800   75.847400
  C     37.539700   13.582000   75.831300
  C     38.110100   13.817500   77.163200
  C     37.191600   13.628200   78.202000
  H     38.112700   13.571800   74.952800
  C     39.556100   14.309600   77.251000
  H     39.567500   15.341400   77.598000
  H     40.024100   14.331600   76.269200
  C     40.473100   13.435700   78.113900
  H     41.477800   13.843100   78.087700
  H     40.577700   12.485800   77.670300
  C     40.128600   13.207900   79.599700
  H     40.984500   12.687100   80.031000
  H     39.358000   12.505200   79.657700
  H     39.817400   14.149700   80.068900
  H     36.312700   14.116000   83.086300
  H     35.670700   13.056200   74.965900

 Total Charge           Charge          ....    0
 Multiplicity           Mult            ....    1
 Number of Electrons    NEL             ....  134
 Basis Dimension        Dim             ....  322

ORBITAL ENERGIES
----------------

  NO   OCC          E(Eh)            E(eV)
   0   2.0000     -88.967293     -2420.9231
   1   2.0000     -88.959533     -2420.7120
   2   2.0000     -10.331399      -281.1317
   3   2.0000     -10.328738      -281.0593
   4   2.0000     -10.314790      -280.6797
   5   2.0000     -10.313087      -280.6334
   6   2.0000     -10.310793      -280.5709
   7   2.0000     -10.298275      -280.2303
   8   2.0000     -10.291963      -280.0586
   9   2.0000     -10.289255      -279.9849
  10   2.0000     -10.285542      -279.8838
  11   2.0000     -10.281835      -279.7830
  12   2.0000     -10.281357      -279.7699
  13   2.0000     -10.278531      -279.6931
  14   2.0000     -10.275187      -279.6021
  15   2.0000     -10.263994      -279.2975
  16   2.0000      -8.081945      -219.9209
  17   2.0000      -8.075086      -219.7343
  18   2.0000      -6.040361      -164.3666
  19   2.0000      -6.036292      -164.2559
  20   2.0000      -6.033747      -164.1866
  21   2.0000      -6.032989      -164.1660
  22   2.0000      -6.029343      -164.0668
  23   2.0000      -6.025735      -163.9686
  24   2.0000      -1.010293       -27.4915
  25   2.0000      -0.988293       -26.8928
  26   2.0000      -0.927266       -25.2322
  27   2.0000      -0.906504       -24.6672
  28   2.0000      -0.873163       -23.7600
  29   2.0000      -0.852558       -23.1993
  30   2.0000      -0.842940       -22.9376
  31   2.0000      -0.818020       -22.2595
  32   2.0000      -0.787064       -21.4171
  33   2.0000      -0.776753       -21.1365
  34   2.0000      -0.712455       -19.3869
  35   2.0000      -0.694326       -18.8936
  36   2.0000      -0.687516       -18.7083
  37   2.0000      -0.662289       -18.0218
  38   2.0000      -0.647403       -17.6167
  39   2.0000      -0.626943       -17.0600
  40   2.0000      -0.596720       -16.2376
  41   2.0000      -0.582164       -15.8415
  42   2.0000      -0.573515       -15.6061
  43   2.0000      -0.548957       -14.9379
  44   2.0000      -0.545857       -14.8535
  45   2.0000      -0.527428       -14.3521
  46   2.0000      -0.518513       -14.1095
  47   2.0000      -0.512180       -13.9371
  48   2.0000      -0.504258       -13.7216
  49   2.0000      -0.502891       -13.6844
  50   2.0000      -0.493965       -13.4415
  51   2.0000      -0.483368       -13.1531
  52   2.0000      -0.476005       -12.9528
  53   2.0000      -0.469654       -12.7799
  54   2.0000      -0.458908       -12.4875
  55   2.0000      -0.446479       -12.1493
  56   2.0000      -0.438644       -11.9361
  57   2.0000      -0.435773       -11.8580
  58   2.0000      -0.431091       -11.7306
  59   2.0000      -0.428510       -11.6603
  60   2.0000      -0.417126       -11.3506
  61   2.0000      -0.414018       -11.2660
  62   2.0000      -0.406119       -11.0511
  63   2.0000      -0.345703        -9.4071
  64   2.0000      -0.334265        -9.0958
  65   2.0000      -0.324572        -8.8321
  66   2.0000      -0.290108        -7.8942
  67   0.0000       0.030042         0.8175
  68   0.0000       0.062119         1.6903
  69   0.0000       0.108229         2.9451
  70   0.0000       0.124588         3.3902
  71   0.0000       0.132431         3.6036

MULLIKEN ATOMIC CHARGES
-----------------------
   0 S :    0.113878
   1 C :   -0.119673
   2 C :   -0.080964
   3 C :    0.073773
   4 C :   -0.181754
   5 H :   -0.018180
   6 C :    0.096780
   7 H :    0.024553
   8 H :    0.022797
   9 C :   -0.106963
  10 H :    0.031554
  11 H :    0.019823
  12 C :   -0.050009
  13 H :    0.036198
  14 H :    0.034957
  15 H :    0.034324
  16 S :    0.090031
  17 C :   -0.060985
  18 C :   -0.020098
  19 C :   -0.074458
  20 C :   -0.124854
  21 H :    0.002001
  22 C :    0.089385
  23 H :    0.032146
  24 H :    0.013440
  25 C :   -0.081968
  26 H :    0.017883
  27 H :    0.010170
  28 C :   -0.007952
  29 H :    0.029316
  30 H :    0.019313
  31 H :    0.037116
  32 H :    0.047748
  33 H :    0.050673
Sum of atomic charges:    0.0000000

LOEWDIN ATOMIC CHARGES
----------------------
   0 S :    0.423326
   1 C :   -0.200837
   2 C :   -0.059283
   3 C :   -0.064821
   4 C :   -0.192680
   5 H :    0.019870
   6 C :   -0.038190
   7 H :    0.034561
   8 H :    0.033689
   9 C :   -0.045576
  10 H :    0.028099
  11 H :    0.012876
  12 C :   -0.061119
  13 H :    0.024370
  14 H :    0.021411
  15 H :    0.038928
  16 S :    0.405260
  17 C :   -0.181452
  18 C :   -0.073034
  19 C :   -0.046870
  20 C :   -0.199664
  21 H :    0.022288
  22 C :   -0.032162
  23 H :    0.029701
  24 H :    0.032000
  25 C :   -0.037696
  26 H :    0.020654
  27 H :    0.017165
  28 C :   -0.058736
  29 H :    0.029454
  30 H :    0.013708
  31 H :    0.025443
  32 H :    0.030082
  33 H :    0.029233

  Mayer bond orders larger than 0.100000
B(  0-S ,  1-C ) :   1.1500 B(  0-S ,  4-C ) :   1.1777 B(  1-C ,  2-C ) :   1.5691
B(  1-C ,  4-C ) :   0.1184 B(  1-C , 32-H ) :   0.9718 B(  2-C ,  3-C ) :   1.2916
B(  2-C ,  6-C ) :   1.0091 B(  3-C ,  4-C ) :   1.5581 B(  3-C ,  5-H ) :   0.9842
B(  4-C , 20-C ) :   1.0022 B(  6-C ,  7-H ) :   0.9477 B(  6-C ,  8-H ) :   0.9119
B(  6-C ,  9-C ) :   1.0991 B(  9-C , 10-H ) :   0.9495 B(  9-C , 11-H ) :   0.9406
B(  9-C , 12-C ) :   1.0864 B( 12-C , 13-H ) :   0.9743 B( 12-C , 14-H ) :   0.9746
B( 12-C , 15-H ) :   0.9746 B( 16-S , 17-C ) :   1.1678 B( 16-S , 20-C ) :   1.1195
B( 17-C , 18-C ) :   1.6079 B( 17-C , 33-H ) :   0.9688 B( 18-C , 19-C ) :   1.2433
B( 18-C , 21-H ) :   0.9982 B( 19-C , 20-C ) :   1.6103 B( 19-C , 22-C ) :   1.0329
B( 22-C , 23-H ) :   0.9334 B( 22-C , 24-H ) :   0.9305 B( 22-C , 25-C ) :   1.0822
B( 25-C , 26-H ) :   0.9559 B( 25-C , 27-H ) :   0.9506 B( 25-C , 28-C ) :   1.0912
B( 28-C , 29-H ) :   0.9678 B( 28-C , 30-H ) :   0.9647 B( 28-C , 31-H ) :   0.9716

Dispersion correction           -0.015546186
FINAL SINGLE POINT ENERGY     -1339.861742187532

DIPOLE MOMENT
-------------
                                X             Y             Z
Electronic contribution:    -21.81335     -16.74069      -8.83437
Nuclear contribution   :     22.34033      17.22839       8.70932
                        -----------------------------------------
Total Dipole Moment    :      0.52699       0.48770      -0.12506
                        -----------------------------------------
Magnitude (a.u.)       :      0.72884
Magnitude (Debye)      :      1.85256

Rotational constants in cm-1:     0.020047     0.009119     0.007681
Rotational constants in MHz :   600.984432   273.365974   230.264024

                             ****ORCA TERMINATED NORMALLY****
TOTAL RUN TIME: 0 days 0 hours 0 minutes 32 seconds 637 msec
