                         Program Version 4.2.1 -  RELEASE  -
|  1> ! wB97X-D3 SP def2-SVP
|  2> %pal
|  3> nprocs 16
|  4> end
|  5>
|  6> * xyz 0 1
|  7> S 	 14.2191 	 27.2776 	 47.9331
|  8> C 	 15.4845 	 26.141 	 47.7094
|  9> C 	 15.0041 	 24.8661 	 47.9137
| 10> C 	 13.5376 	 24.7943 	 47.9413
| 11> C 	 12.963 	 26.0496 	 48.0208
| 12> H 	 12.9465 	 23.9047 	 48.0691
| 13> C 	 15.9467 	 23.6149 	 47.9139
| 14> H 	 15.2945 	 22.7174 	 48.0441
| 15> H 	 16.629 	 23.7501 	 48.7165
| 16> C 	 16.764 	 23.3937 	 46.6222
| 17> H 	 16.0962 	 23.3197 	 45.7764
| 18> H 	 17.407 	 24.2277 	 46.5111
| 19> C 	 17.6093 	 22.0943 	 46.7246
| 20> H 	 18.1457 	 22.1764 	 47.6797
| 21> H 	 17.1525 	 21.1083 	 46.6737
| 22> H 	 18.4156 	 22.2773 	 46.0368
| 23> S 	 11.2287 	 27.352 	 46.4859
| 24> C 	 9.52036 	 27.1202 	 46.7571
| 25> C 	 9.21765 	 26.1647 	 47.6479
| 26> C 	 10.4162 	 25.7651 	 48.3299
| 27> C 	 11.5843 	 26.372 	 47.8791
| 28> H 	 8.22926 	 25.8826 	 47.825
| 29> C 	 10.2768 	 24.9327 	 49.5798
| 30> H 	 11.2219 	 24.3391 	 49.6739
| 31> H 	 9.58824 	 24.1967 	 49.3609
| 32> C 	 9.97239 	 25.7189 	 50.8803
| 33> H 	 8.98275 	 26.2297 	 50.6645
| 34> H 	 10.7448 	 26.5071 	 51.132
| 35> C 	 9.82511 	 24.7806 	 52.0792
| 36> H 	 10.7169 	 24.6245 	 52.5857
| 37> H 	 9.42626 	 23.737 	 51.8652
| 38> H 	 9.19835 	 25.3314 	 52.7798
| 39> H 	 16.5624 	 26.3836 	 47.6954
| 40> H 	 8.72526 	 27.5602 	 46.1979
| 41> *
| 42>
| 43>                          ****END OF INPUT****

CARTESIAN COORDINATES (ANGSTROEM)
---------------------------------
  S     14.219100   27.277600   47.933100
  C     15.484500   26.141000   47.709400
  C     15.004100   24.866100   47.913700
  C     13.537600   24.794300   47.941300
  C     12.963000   26.049600   48.020800
  H     12.946500   23.904700   48.069100
  C     15.946700   23.614900   47.913900
  H     15.294500   22.717400   48.044100
  H     16.629000   23.750100   48.716500
  C     16.764000   23.393700   46.622200
  H     16.096200   23.319700   45.776400
  H     17.407000   24.227700   46.511100
  C     17.609300   22.094300   46.724600
  H     18.145700   22.176400   47.679700
  H     17.152500   21.108300   46.673700
  H     18.415600   22.277300   46.036800
  S     11.228700   27.352000   46.485900
  C      9.520360   27.120200   46.757100
  C      9.217650   26.164700   47.647900
  C     10.416200   25.765100   48.329900
  C     11.584300   26.372000   47.879100
  H      8.229260   25.882600   47.825000
  C     10.276800   24.932700   49.579800
  H     11.221900   24.339100   49.673900
  H      9.588240   24.196700   49.360900
  C      9.972390   25.718900   50.880300
  H      8.982750   26.229700   50.664500
  H     10.744800   26.507100   51.132000
  C      9.825110   24.780600   52.079200
  H     10.716900   24.624500   52.585700
  H      9.426260   23.737000   51.865200
  H      9.198350   25.331400   52.779800
  H     16.562400   26.383600   47.695400
  H      8.725260   27.560200   46.197900

 Total Charge           Charge          ....    0
 Multiplicity           Mult            ....    1
 Number of Electrons    NEL             ....  134
 Basis Dimension        Dim             ....  322

ORBITAL ENERGIES
----------------

  NO   OCC          E(Eh)            E(eV)
   0   2.0000     -88.962625     -2420.7961
   1   2.0000     -88.961700     -2420.7709
   2   2.0000     -10.327021      -281.0125
   3   2.0000     -10.320116      -280.8246
   4   2.0000     -10.312321      -280.6125
   5   2.0000     -10.308888      -280.5191
   6   2.0000     -10.303475      -280.3718
   7   2.0000     -10.300143      -280.2811
   8   2.0000     -10.296321      -280.1771
   9   2.0000     -10.295127      -280.1447
  10   2.0000     -10.292279      -280.0671
  11   2.0000     -10.285124      -279.8725
  12   2.0000     -10.284080      -279.8440
  13   2.0000     -10.284063      -279.8436
  14   2.0000     -10.278059      -279.6802
  15   2.0000     -10.275289      -279.6048
  16   2.0000      -8.077919      -219.8113
  17   2.0000      -8.077053      -219.7878
  18   2.0000      -6.036507      -164.2617
  19   2.0000      -6.035600      -164.2370
  20   2.0000      -6.032204      -164.1446
  21   2.0000      -6.031543      -164.1266
  22   2.0000      -6.028706      -164.0494
  23   2.0000      -6.027626      -164.0200
  24   2.0000      -1.010910       -27.5083
  25   2.0000      -0.985253       -26.8101
  26   2.0000      -0.908423       -24.7195
  27   2.0000      -0.905217       -24.6322
  28   2.0000      -0.877955       -23.8904
  29   2.0000      -0.851180       -23.1618
  30   2.0000      -0.842161       -22.9164
  31   2.0000      -0.818424       -22.2705
  32   2.0000      -0.779359       -21.2074
  33   2.0000      -0.767248       -20.8779
  34   2.0000      -0.705482       -19.1971
  35   2.0000      -0.700907       -19.0726
  36   2.0000      -0.691866       -18.8266
  37   2.0000      -0.667517       -18.1641
  38   2.0000      -0.640033       -17.4162
  39   2.0000      -0.614818       -16.7301
  40   2.0000      -0.592397       -16.1200
  41   2.0000      -0.575023       -15.6472
  42   2.0000      -0.568404       -15.4671
  43   2.0000      -0.556096       -15.1321
  44   2.0000      -0.527764       -14.3612
  45   2.0000      -0.521906       -14.2018
  46   2.0000      -0.516594       -14.0572
  47   2.0000      -0.509647       -13.8682
  48   2.0000      -0.505629       -13.7589
  49   2.0000      -0.498172       -13.5560
  50   2.0000      -0.496971       -13.5233
  51   2.0000      -0.482096       -13.1185
  52   2.0000      -0.475360       -12.9352
  53   2.0000      -0.467001       -12.7078
  54   2.0000      -0.454421       -12.3654
  55   2.0000      -0.450185       -12.2502
  56   2.0000      -0.442060       -12.0291
  57   2.0000      -0.439442       -11.9578
  58   2.0000      -0.429726       -11.6934
  59   2.0000      -0.424794       -11.5592
  60   2.0000      -0.416455       -11.3323
  61   2.0000      -0.412035       -11.2120
  62   2.0000      -0.409193       -11.1347
  63   2.0000      -0.353652        -9.6234
  64   2.0000      -0.328129        -8.9288
  65   2.0000      -0.323776        -8.8104
  66   2.0000      -0.290622        -7.9082
  67   0.0000       0.028958         0.7880
  68   0.0000       0.076207         2.0737
  69   0.0000       0.113208         3.0805
  70   0.0000       0.114732         3.1220
  71   0.0000       0.142238         3.8705

MULLIKEN ATOMIC CHARGES
-----------------------
   0 S :    0.106028
   1 C :   -0.133808
   2 C :   -0.106849
   3 C :    0.043635
   4 C :   -0.168107
   5 H :    0.016468
   6 C :    0.055955
   7 H :    0.025022
   8 H :    0.025308
   9 C :   -0.069271
  10 H :    0.034673
  11 H :    0.015865
  12 C :   -0.036141
  13 H :    0.012548
  14 H :    0.051969
  15 H :    0.025804
  16 S :    0.107111
  17 C :   -0.061053
  18 C :   -0.009614
  19 C :   -0.086276
  20 C :   -0.103110
  21 H :   -0.002754
  22 C :    0.082747
  23 H :    0.010148
  24 H :   -0.001013
  25 C :   -0.083036
  26 H :    0.032810
  27 H :    0.051662
  28 C :   -0.032712
  29 H :    0.021358
  30 H :    0.038404
  31 H :    0.031578
  32 H :    0.066265
  33 H :    0.038386
Sum of atomic charges:   -0.0000000

LOEWDIN ATOMIC CHARGES
----------------------
   0 S :    0.410231
   1 C :   -0.216650
   2 C :   -0.062863
   3 C :   -0.057278
   4 C :   -0.196955
   5 H :    0.028950
   6 C :   -0.030009
   7 H :    0.030904
   8 H :    0.023431
   9 C :   -0.030933
  10 H :    0.023899
  11 H :    0.016217
  12 C :   -0.067724
  13 H :    0.025157
  14 H :    0.027963
  15 H :    0.027345
  16 S :    0.413174
  17 C :   -0.171848
  18 C :   -0.064046
  19 C :   -0.051450
  20 C :   -0.206859
  21 H :    0.025172
  22 C :   -0.036597
  23 H :    0.028185
  24 H :    0.017186
  25 C :   -0.038102
  26 H :    0.027074
  27 H :    0.037217
  28 C :   -0.068519
  29 H :    0.015741
  30 H :    0.032255
  31 H :    0.029447
  32 H :    0.036710
  33 H :    0.023578

  Mayer bond orders larger than 0.100000
B(  0-S ,  1-C ) :   1.1397 B(  0-S ,  4-C ) :   1.1508 B(  1-C ,  2-C ) :   1.6069
B(  1-C , 32-H ) :   0.9656 B(  2-C ,  3-C ) :   1.2398 B(  2-C ,  6-C ) :   1.0163
B(  3-C ,  4-C ) :   1.5731 B(  3-C ,  5-H ) :   0.9864 B(  4-C , 20-C ) :   1.0450
B(  6-C ,  7-H ) :   0.9499 B(  6-C ,  8-H ) :   0.9364 B(  6-C ,  9-C ) :   1.0768
B(  9-C , 10-H ) :   0.9586 B(  9-C , 11-H ) :   0.9532 B(  9-C , 12-C ) :   1.0797
B( 12-C , 13-H ) :   0.9700 B( 12-C , 14-H ) :   0.9784 B( 12-C , 15-H ) :   0.9729
B( 16-S , 17-C ) :   1.1513 B( 16-S , 20-C ) :   1.1297 B( 17-C , 18-C ) :   1.6360
B( 17-C , 33-H ) :   0.9625 B( 18-C , 19-C ) :   1.2193 B( 18-C , 21-H ) :   1.0047
B( 19-C , 20-C ) :   1.6004 B( 19-C , 22-C ) :   1.0583 B( 22-C , 23-H ) :   0.9285
B( 22-C , 24-H ) :   0.9253 B( 22-C , 25-C ) :   1.0612 B( 25-C , 26-H ) :   0.9601
B( 25-C , 27-H ) :   0.9542 B( 25-C , 28-C ) :   1.0702 B( 28-C , 29-H ) :   0.9757
B( 28-C , 30-H ) :   0.9750 B( 28-C , 31-H ) :   0.9735

Dispersion correction           -0.013381567
FINAL SINGLE POINT ENERGY     -1339.863652210568

DIPOLE MOMENT
-------------
                                X             Y             Z
Electronic contribution:     -5.68105      21.19171     -11.57098
Nuclear contribution   :      5.62700     -21.77552      11.79009
                        -----------------------------------------
Total Dipole Moment    :     -0.05404      -0.58381       0.21911
                        -----------------------------------------
Magnitude (a.u.)       :      0.62591
Magnitude (Debye)      :      1.59095

Rotational constants in cm-1:     0.019424     0.007361     0.006222
Rotational constants in MHz :   582.314938   220.672136   186.519891

                             ****ORCA TERMINATED NORMALLY****
TOTAL RUN TIME: 0 days 0 hours 0 minutes 35 seconds 172 msec
