                         Program Version 4.2.1 -  RELEASE  -
|  1> ! wB97X-D3 SP def2-SVP
|  2> %pal
|  3> nprocs 16
|  4> end
|  5>
|  6> * xyz 0 1
|  7> S 	 -115.51 	 45.929 	 136.924
|  8> C 	 -116.005 	 45.2705 	 135.4
|  9> C 	 -116.1 	 46.1987 	 134.397
| 10> C 	 -116.172 	 47.5056 	 134.959
| 11> C 	 -115.73 	 47.6013 	 136.255
| 12> H 	 -116.387 	 48.3792 	 134.439
| 13> C 	 -116.486 	 45.9265 	 132.932
| 14> H 	 -115.678 	 45.6449 	 132.274
| 15> H 	 -116.865 	 46.807 	 132.459
| 16> C 	 -117.613 	 44.8145 	 132.745
| 17> H 	 -117.523 	 44.6796 	 131.7
| 18> H 	 -117.346 	 43.9068 	 133.235
| 19> C 	 -118.934 	 45.2727 	 133.258
| 20> H 	 -119.739 	 44.6799 	 132.767
| 21> H 	 -119.025 	 45.0914 	 134.333
| 22> H 	 -119.078 	 46.3519 	 133.109
| 23> S 	 -116.79 	 49.0895 	 138.322
| 24> C 	 -115.789 	 50.3778 	 139.038
| 25> C 	 -114.748 	 50.6626 	 138.132
| 26> C 	 -114.577 	 49.7256 	 137.062
| 27> C 	 -115.551 	 48.7807 	 137.082
| 28> H 	 -114.12 	 51.5701 	 138.28
| 29> C 	 -113.499 	 49.9614 	 135.995
| 30> H 	 -113.437 	 49.1918 	 135.226
| 31> H 	 -112.531 	 49.8545 	 136.367
| 32> C 	 -113.594 	 51.3454 	 135.253
| 33> H 	 -113.646 	 52.1729 	 136.001
| 34> H 	 -114.527 	 51.3902 	 134.719
| 35> C 	 -112.562 	 51.5996 	 134.157
| 36> H 	 -112.584 	 52.6277 	 133.686
| 37> H 	 -112.59 	 50.8281 	 133.357
| 38> H 	 -111.669 	 51.4636 	 134.602
| 39> H 	 -115.758 	 44.2638 	 134.979
| 40> H 	 -115.996 	 50.9878 	 139.957
| 41> *
| 42>
| 43>                          ****END OF INPUT****

CARTESIAN COORDINATES (ANGSTROEM)
---------------------------------
  S    -115.510000   45.929000  136.924000
  C    -116.005000   45.270500  135.400000
  C    -116.100000   46.198700  134.397000
  C    -116.172000   47.505600  134.959000
  C    -115.730000   47.601300  136.255000
  H    -116.387000   48.379200  134.439000
  C    -116.486000   45.926500  132.932000
  H    -115.678000   45.644900  132.274000
  H    -116.865000   46.807000  132.459000
  C    -117.613000   44.814500  132.745000
  H    -117.523000   44.679600  131.700000
  H    -117.346000   43.906800  133.235000
  C    -118.934000   45.272700  133.258000
  H    -119.739000   44.679900  132.767000
  H    -119.025000   45.091400  134.333000
  H    -119.078000   46.351900  133.109000
  S    -116.790000   49.089500  138.322000
  C    -115.789000   50.377800  139.038000
  C    -114.748000   50.662600  138.132000
  C    -114.577000   49.725600  137.062000
  C    -115.551000   48.780700  137.082000
  H    -114.120000   51.570100  138.280000
  C    -113.499000   49.961400  135.995000
  H    -113.437000   49.191800  135.226000
  H    -112.531000   49.854500  136.367000
  C    -113.594000   51.345400  135.253000
  H    -113.646000   52.172900  136.001000
  H    -114.527000   51.390200  134.719000
  C    -112.562000   51.599600  134.157000
  H    -112.584000   52.627700  133.686000
  H    -112.590000   50.828100  133.357000
  H    -111.669000   51.463600  134.602000
  H    -115.758000   44.263800  134.979000
  H    -115.996000   50.987800  139.957000

 Total Charge           Charge          ....    0
 Multiplicity           Mult            ....    1
 Number of Electrons    NEL             ....  134
 Basis Dimension        Dim             ....  322

ORBITAL ENERGIES
----------------

  NO   OCC          E(Eh)            E(eV)
   0   2.0000     -88.965809     -2420.8827
   1   2.0000     -88.965266     -2420.8680
   2   2.0000     -10.329536      -281.0810
   3   2.0000     -10.327543      -281.0267
   4   2.0000     -10.326220      -280.9907
   5   2.0000     -10.311519      -280.5907
   6   2.0000     -10.306868      -280.4641
   7   2.0000     -10.299810      -280.2721
   8   2.0000     -10.299106      -280.2529
   9   2.0000     -10.293189      -280.0919
  10   2.0000     -10.292970      -280.0860
  11   2.0000     -10.289951      -280.0038
  12   2.0000     -10.289437      -279.9898
  13   2.0000     -10.280812      -279.7551
  14   2.0000     -10.277635      -279.6687
  15   2.0000     -10.274695      -279.5887
  16   2.0000      -8.079816      -219.8630
  17   2.0000      -8.079115      -219.8439
  18   2.0000      -6.038450      -164.3146
  19   2.0000      -6.037760      -164.2958
  20   2.0000      -6.034482      -164.2066
  21   2.0000      -6.033859      -164.1896
  22   2.0000      -6.030416      -164.0960
  23   2.0000      -6.029642      -164.0749
  24   2.0000      -1.002755       -27.2863
  25   2.0000      -0.980997       -26.6943
  26   2.0000      -0.909560       -24.7504
  27   2.0000      -0.905397       -24.6371
  28   2.0000      -0.867140       -23.5961
  29   2.0000      -0.851383       -23.1673
  30   2.0000      -0.847466       -23.0607
  31   2.0000      -0.810124       -22.0446
  32   2.0000      -0.785155       -21.3652
  33   2.0000      -0.774809       -21.0836
  34   2.0000      -0.705838       -19.2068
  35   2.0000      -0.702919       -19.1274
  36   2.0000      -0.696802       -18.9609
  37   2.0000      -0.658440       -17.9171
  38   2.0000      -0.637013       -17.3340
  39   2.0000      -0.614422       -16.7193
  40   2.0000      -0.598874       -16.2962
  41   2.0000      -0.575388       -15.6571
  42   2.0000      -0.560869       -15.2620
  43   2.0000      -0.548589       -14.9279
  44   2.0000      -0.537904       -14.6371
  45   2.0000      -0.523951       -14.2574
  46   2.0000      -0.515411       -14.0251
  47   2.0000      -0.509794       -13.8722
  48   2.0000      -0.507270       -13.8035
  49   2.0000      -0.493876       -13.4390
  50   2.0000      -0.484380       -13.1806
  51   2.0000      -0.478985       -13.0338
  52   2.0000      -0.469145       -12.7661
  53   2.0000      -0.464123       -12.6294
  54   2.0000      -0.462506       -12.5854
  55   2.0000      -0.451883       -12.2964
  56   2.0000      -0.439044       -11.9470
  57   2.0000      -0.434729       -11.8296
  58   2.0000      -0.429796       -11.6953
  59   2.0000      -0.426823       -11.6145
  60   2.0000      -0.425921       -11.5899
  61   2.0000      -0.415459       -11.3052
  62   2.0000      -0.411905       -11.2085
  63   2.0000      -0.337826        -9.1927
  64   2.0000      -0.331540        -9.0217
  65   2.0000      -0.321554        -8.7499
  66   2.0000      -0.306224        -8.3328
  67   0.0000       0.032609         0.8873
  68   0.0000       0.052692         1.4338
  69   0.0000       0.104355         2.8396
  70   0.0000       0.119222         3.2442
  71   0.0000       0.128103         3.4859

MULLIKEN ATOMIC CHARGES
-----------------------
   0 S :    0.116763
   1 C :   -0.103966
   2 C :   -0.108685
   3 C :    0.074700
   4 C :   -0.169743
   5 H :   -0.013488
   6 C :    0.039153
   7 H :    0.030208
   8 H :    0.010806
   9 C :   -0.056411
  10 H :    0.018426
  11 H :    0.020440
  12 C :   -0.044414
  13 H :    0.038844
  14 H :    0.042081
  15 H :    0.028043
  16 S :    0.110146
  17 C :   -0.116657
  18 C :   -0.065080
  19 C :    0.032083
  20 C :   -0.206188
  21 H :    0.035926
  22 C :    0.109252
  23 H :    0.012331
  24 H :    0.007195
  25 C :   -0.104554
  26 H :    0.031701
  27 H :    0.026014
  28 C :   -0.023312
  29 H :    0.051529
  30 H :    0.030202
  31 H :   -0.001169
  32 H :    0.066461
  33 H :    0.081362
Sum of atomic charges:   -0.0000000

LOEWDIN ATOMIC CHARGES
----------------------
   0 S :    0.389483
   1 C :   -0.215218
   2 C :   -0.066209
   3 C :   -0.044936
   4 C :   -0.175940
   5 H :    0.020741
   6 C :   -0.026888
   7 H :    0.028748
   8 H :    0.023581
   9 C :   -0.032290
  10 H :    0.018184
  11 H :    0.018124
  12 C :   -0.067454
  13 H :    0.031419
  14 H :    0.031027
  15 H :    0.024633
  16 S :    0.383474
  17 C :   -0.186059
  18 C :   -0.073910
  19 C :   -0.050070
  20 C :   -0.193673
  21 H :    0.034598
  22 C :   -0.024838
  23 H :    0.030469
  24 H :    0.021991
  25 C :   -0.038452
  26 H :    0.023436
  27 H :    0.020550
  28 C :   -0.062425
  29 H :    0.038925
  30 H :    0.029211
  31 H :    0.005402
  32 H :    0.040192
  33 H :    0.044173

  Mayer bond orders larger than 0.100000
B(  0-S ,  1-C ) :   1.1435 B(  0-S ,  4-C ) :   1.1201 B(  1-C ,  2-C ) :   1.6554
B(  1-C , 32-H ) :   0.9412 B(  2-C ,  3-C ) :   1.2127 B(  2-C ,  6-C ) :   1.0152
B(  3-C ,  4-C ) :   1.6224 B(  3-C ,  5-H ) :   0.9970 B(  4-C , 20-C ) :   1.0300
B(  6-C ,  7-H ) :   0.9392 B(  6-C ,  8-H ) :   0.9486 B(  6-C ,  9-C ) :   1.0812
B(  9-C , 10-H ) :   0.9570 B(  9-C , 11-H ) :   0.9532 B(  9-C , 12-C ) :   1.0766
B( 12-C , 13-H ) :   0.9724 B( 12-C , 14-H ) :   0.9719 B( 12-C , 15-H ) :   0.9786
B( 16-S , 17-C ) :   1.1381 B( 16-S , 20-C ) :   1.1352 B( 17-C , 18-C ) :   1.6224
B( 17-C , 33-H ) :   0.9630 B( 18-C , 19-C ) :   1.2198 B( 18-C , 21-H ) :   0.9772
B( 19-C , 20-C ) :   1.6329 B( 19-C , 22-C ) :   1.0433 B( 22-C , 23-H ) :   0.9328
B( 22-C , 24-H ) :   0.9277 B( 22-C , 25-C ) :   1.0485 B( 25-C , 26-H ) :   0.9562
B( 25-C , 27-H ) :   0.9590 B( 25-C , 28-C ) :   1.0798 B( 28-C , 29-H ) :   0.9726
B( 28-C , 30-H ) :   0.9725 B( 28-C , 31-H ) :   0.9740

Dispersion correction           -0.014082564
FINAL SINGLE POINT ENERGY     -1339.852451363437

DIPOLE MOMENT
-------------
                                X             Y             Z
Electronic contribution:     -3.27635      -4.49096      23.59272
Nuclear contribution   :      3.56527       4.81482     -24.24217
                        -----------------------------------------
Total Dipole Moment    :      0.28892       0.32386      -0.64945
                        -----------------------------------------
Magnitude (a.u.)       :      0.78112
Magnitude (Debye)      :      1.98544

Rotational constants in cm-1:     0.018564     0.008086     0.006499
Rotational constants in MHz :   556.529655   242.417022   194.835460

                             ****ORCA TERMINATED NORMALLY****
TOTAL RUN TIME: 0 days 0 hours 0 minutes 34 seconds 605 msec
