                         Program Version 4.2.1 -  RELEASE  -
|  1> ! wB97X-D3 SP def2-SVP
|  2> %pal
|  3> nprocs 16
|  4> end
|  5>
|  6> * xyz 0 1
|  7> S 	 42.4942 	 12.4858 	 48.3285
|  8> C 	 42.7662 	 13.8388 	 47.2601
|  9> C 	 42.8849 	 14.9758 	 48.0186
| 10> C 	 43.0316 	 14.6785 	 49.43
| 11> C 	 42.8782 	 13.333 	 49.7915
| 12> H 	 43.099 	 15.2889 	 50.3415
| 13> C 	 42.955 	 16.4258 	 47.5338
| 14> H 	 42.8523 	 16.908 	 48.4657
| 15> H 	 42.0379 	 16.7295 	 47.0311
| 16> C 	 44.1923 	 16.8759 	 46.6623
| 17> H 	 45.0593 	 16.4676 	 47.1666
| 18> H 	 44.2224 	 16.5508 	 45.6273
| 19> C 	 44.2569 	 18.3806 	 46.377
| 20> H 	 43.253 	 18.7352 	 46.2011
| 21> H 	 44.4996 	 19.0828 	 47.2482
| 22> H 	 44.9517 	 18.7175 	 45.6142
| 23> S 	 44.0052 	 11.2021 	 51.1007
| 24> C 	 43.9067 	 11.0296 	 52.7845
| 25> C 	 43.3323 	 12.1885 	 53.2948
| 26> C 	 42.7082 	 13.0994 	 52.3299
| 27> C 	 43.0663 	 12.7289 	 51.0819
| 28> H 	 43.2954 	 12.2025 	 54.3866
| 29> C 	 41.6537 	 14.1505 	 52.7404
| 30> H 	 40.9972 	 13.587 	 53.2889
| 31> H 	 41.1363 	 14.4859 	 51.8248
| 32> C 	 42.0762 	 15.3197 	 53.6509
| 33> H 	 42.8096 	 15.9151 	 53.1571
| 34> H 	 42.6682 	 14.8879 	 54.4892
| 35> C 	 40.8255 	 16.1316 	 54.0308
| 36> H 	 40.0607 	 15.6283 	 54.5574
| 37> H 	 40.4486 	 16.7883 	 53.2398
| 38> H 	 41.1923 	 16.8508 	 54.8337
| 39> H 	 42.6274 	 13.9653 	 46.221
| 40> H 	 44.1093 	 10.1983 	 53.4463
| 41> *
| 42>
| 43>                          ****END OF INPUT****

CARTESIAN COORDINATES (ANGSTROEM)
---------------------------------
  S     42.494200   12.485800   48.328500
  C     42.766200   13.838800   47.260100
  C     42.884900   14.975800   48.018600
  C     43.031600   14.678500   49.430000
  C     42.878200   13.333000   49.791500
  H     43.099000   15.288900   50.341500
  C     42.955000   16.425800   47.533800
  H     42.852300   16.908000   48.465700
  H     42.037900   16.729500   47.031100
  C     44.192300   16.875900   46.662300
  H     45.059300   16.467600   47.166600
  H     44.222400   16.550800   45.627300
  C     44.256900   18.380600   46.377000
  H     43.253000   18.735200   46.201100
  H     44.499600   19.082800   47.248200
  H     44.951700   18.717500   45.614200
  S     44.005200   11.202100   51.100700
  C     43.906700   11.029600   52.784500
  C     43.332300   12.188500   53.294800
  C     42.708200   13.099400   52.329900
  C     43.066300   12.728900   51.081900
  H     43.295400   12.202500   54.386600
  C     41.653700   14.150500   52.740400
  H     40.997200   13.587000   53.288900
  H     41.136300   14.485900   51.824800
  C     42.076200   15.319700   53.650900
  H     42.809600   15.915100   53.157100
  H     42.668200   14.887900   54.489200
  C     40.825500   16.131600   54.030800
  H     40.060700   15.628300   54.557400
  H     40.448600   16.788300   53.239800
  H     41.192300   16.850800   54.833700
  H     42.627400   13.965300   46.221000
  H     44.109300   10.198300   53.446300

 Total Charge           Charge          ....    0
 Multiplicity           Mult            ....    1
 Number of Electrons    NEL             ....  134
 Basis Dimension        Dim             ....  322

ORBITAL ENERGIES
----------------

  NO   OCC          E(Eh)            E(eV)
   0   2.0000     -88.965498     -2420.8743
   1   2.0000     -88.961355     -2420.7615
   2   2.0000     -10.328158      -281.0435
   3   2.0000     -10.327689      -281.0307
   4   2.0000     -10.316189      -280.7178
   5   2.0000     -10.311692      -280.5954
   6   2.0000     -10.308648      -280.5126
   7   2.0000     -10.304296      -280.3941
   8   2.0000     -10.296788      -280.1898
   9   2.0000     -10.295876      -280.1650
  10   2.0000     -10.293264      -280.0939
  11   2.0000     -10.292942      -280.0852
  12   2.0000     -10.291709      -280.0516
  13   2.0000     -10.290915      -280.0300
  14   2.0000     -10.285448      -279.8813
  15   2.0000     -10.281987      -279.7871
  16   2.0000      -8.080216      -219.8738
  17   2.0000      -8.076694      -219.7780
  18   2.0000      -6.038794      -164.3239
  19   2.0000      -6.035305      -164.2290
  20   2.0000      -6.034577      -164.2092
  21   2.0000      -6.031058      -164.1134
  22   2.0000      -6.031000      -164.1118
  23   2.0000      -6.027304      -164.0113
  24   2.0000      -1.009645       -27.4738
  25   2.0000      -0.986835       -26.8531
  26   2.0000      -0.912276       -24.8243
  27   2.0000      -0.907036       -24.6817
  28   2.0000      -0.875820       -23.8323
  29   2.0000      -0.853658       -23.2292
  30   2.0000      -0.842497       -22.9255
  31   2.0000      -0.813590       -22.1389
  32   2.0000      -0.784982       -21.3604
  33   2.0000      -0.777594       -21.1594
  34   2.0000      -0.713879       -19.4256
  35   2.0000      -0.709120       -19.2961
  36   2.0000      -0.702535       -19.1169
  37   2.0000      -0.661850       -18.0098
  38   2.0000      -0.641851       -17.4657
  39   2.0000      -0.610360       -16.6087
  40   2.0000      -0.592546       -16.1240
  41   2.0000      -0.570612       -15.5271
  42   2.0000      -0.569101       -15.4860
  43   2.0000      -0.556610       -15.1461
  44   2.0000      -0.528036       -14.3686
  45   2.0000      -0.524740       -14.2789
  46   2.0000      -0.523516       -14.2456
  47   2.0000      -0.518852       -14.1187
  48   2.0000      -0.510200       -13.8833
  49   2.0000      -0.505117       -13.7449
  50   2.0000      -0.495262       -13.4768
  51   2.0000      -0.481653       -13.1064
  52   2.0000      -0.475086       -12.9277
  53   2.0000      -0.463913       -12.6237
  54   2.0000      -0.456813       -12.4305
  55   2.0000      -0.447903       -12.1881
  56   2.0000      -0.445337       -12.1182
  57   2.0000      -0.437151       -11.8955
  58   2.0000      -0.434479       -11.8228
  59   2.0000      -0.426391       -11.6027
  60   2.0000      -0.418533       -11.3889
  61   2.0000      -0.412768       -11.2320
  62   2.0000      -0.405421       -11.0321
  63   2.0000      -0.352292        -9.5864
  64   2.0000      -0.328282        -8.9330
  65   2.0000      -0.323886        -8.8134
  66   2.0000      -0.295066        -8.0291
  67   0.0000       0.024416         0.6644
  68   0.0000       0.079519         2.1638
  69   0.0000       0.110805         3.0152
  70   0.0000       0.119939         3.2637
  71   0.0000       0.128185         3.4881

MULLIKEN ATOMIC CHARGES
-----------------------
   0 S :    0.115411
   1 C :   -0.077088
   2 C :   -0.128517
   3 C :    0.024332
   4 C :   -0.178300
   5 H :    0.012632
   6 C :    0.099327
   7 H :    0.004958
   8 H :    0.025258
   9 C :   -0.041682
  10 H :    0.037755
  11 H :    0.033104
  12 C :   -0.078564
  13 H :    0.019001
  14 H :    0.024296
  15 H :    0.043031
  16 S :    0.108355
  17 C :   -0.085602
  18 C :   -0.073884
  19 C :   -0.014358
  20 C :   -0.154029
  21 H :    0.018159
  22 C :    0.085361
  23 H :    0.009054
  24 H :    0.029722
  25 C :   -0.068261
  26 H :    0.021094
  27 H :    0.032020
  28 C :   -0.050543
  29 H :    0.031104
  30 H :    0.046855
  31 H :    0.032079
  32 H :    0.034183
  33 H :    0.063738
Sum of atomic charges:    0.0000000

LOEWDIN ATOMIC CHARGES
----------------------
   0 S :    0.419146
   1 C :   -0.191660
   2 C :   -0.065847
   3 C :   -0.072195
   4 C :   -0.206503
   5 H :    0.032934
   6 C :   -0.030041
   7 H :    0.027081
   8 H :    0.029914
   9 C :   -0.037628
  10 H :    0.025473
  11 H :    0.029319
  12 C :   -0.076865
  13 H :    0.022394
  14 H :    0.027049
  15 H :    0.026755
  16 S :    0.405173
  17 C :   -0.202544
  18 C :   -0.079941
  19 C :   -0.052030
  20 C :   -0.185728
  21 H :    0.025808
  22 C :   -0.023391
  23 H :    0.021861
  24 H :    0.032582
  25 C :   -0.037390
  26 H :    0.019002
  27 H :    0.029136
  28 C :   -0.066922
  29 H :    0.020395
  30 H :    0.031240
  31 H :    0.036597
  32 H :    0.028199
  33 H :    0.038629

  Mayer bond orders larger than 0.100000
B(  0-S ,  1-C ) :   1.1406 B(  0-S ,  4-C ) :   1.1553 B(  1-C ,  2-C ) :   1.6014
B(  1-C , 32-H ) :   0.9740 B(  2-C ,  3-C ) :   1.2388 B(  2-C ,  6-C ) :   1.0214
B(  3-C ,  4-C ) :   1.5672 B(  3-C ,  5-H ) :   0.9853 B(  4-C , 20-C ) :   1.0605
B(  6-C ,  7-H ) :   0.9397 B(  6-C ,  8-H ) :   0.9312 B(  6-C ,  9-C ) :   1.0549
B(  9-C , 10-H ) :   0.9615 B(  9-C , 11-H ) :   0.9569 B(  9-C , 12-C ) :   1.0648
B( 12-C , 13-H ) :   0.9716 B( 12-C , 14-H ) :   0.9734 B( 12-C , 15-H ) :   0.9789
B( 16-S , 17-C ) :   1.1499 B( 16-S , 20-C ) :   1.1178 B( 17-C , 18-C ) :   1.6450
B( 17-C , 33-H ) :   0.9668 B( 18-C , 19-C ) :   1.1939 B( 18-C , 21-H ) :   0.9822
B( 19-C , 20-C ) :   1.6272 B( 19-C , 22-C ) :   1.0272 B( 22-C , 23-H ) :   0.9319
B( 22-C , 24-H ) :   0.9376 B( 22-C , 25-C ) :   1.0595 B( 25-C , 26-H ) :   0.9545
B( 25-C , 27-H ) :   0.9545 B( 25-C , 28-C ) :   1.0804 B( 28-C , 29-H ) :   0.9767
B( 28-C , 30-H ) :   0.9745 B( 28-C , 31-H ) :   0.9714

Dispersion correction           -0.013287393
FINAL SINGLE POINT ENERGY     -1339.845882601343

DIPOLE MOMENT
-------------
                                X             Y             Z
Electronic contribution:      3.69176     -29.98299      -3.06541
Nuclear contribution   :     -3.98056      30.61332       3.43661
                        -----------------------------------------
Total Dipole Moment    :     -0.28881       0.63033       0.37120
                        -----------------------------------------
Magnitude (a.u.)       :      0.78646
Magnitude (Debye)      :      1.99903

Rotational constants in cm-1:     0.016837     0.008005     0.006004
Rotational constants in MHz :   504.767843   239.980250   179.993115

                             ****ORCA TERMINATED NORMALLY****
TOTAL RUN TIME: 0 days 0 hours 0 minutes 32 seconds 668 msec
