                         Program Version 4.2.1 -  RELEASE  -
|  1> ! wB97X-D3 SP def2-SVP
|  2> %pal
|  3> nprocs 16
|  4> end
|  5>
|  6> * xyz 0 1
|  7> S 	 58.4392 	 -9.79778 	 90.4001
|  8> C 	 58.3837 	 -8.09708 	 90.4824
|  9> C 	 59.429 	 -7.45624 	 89.7847
| 10> C 	 60.17 	 -8.40727 	 89.0393
| 11> C 	 59.8695 	 -9.71042 	 89.3207
| 12> H 	 60.9347 	 -8.19434 	 88.2662
| 13> C 	 59.5734 	 -5.99617 	 89.5515
| 14> H 	 58.5412 	 -5.586 	 89.2845
| 15> H 	 60.1161 	 -5.77536 	 88.6043
| 16> C 	 60.2639 	 -5.15926 	 90.5557
| 17> H 	 60.5467 	 -4.22396 	 90.05
| 18> H 	 59.6521 	 -4.87498 	 91.4892
| 19> C 	 61.5886 	 -5.77013 	 90.9831
| 20> H 	 62.0258 	 -5.01203 	 91.6559
| 21> H 	 61.389 	 -6.64913 	 91.6121
| 22> H 	 62.2848 	 -5.95341 	 90.1493
| 23> S 	 59.3282 	 -12.0794 	 88.1103
| 24> C 	 60.5296 	 -13.2815 	 87.7949
| 25> C 	 61.7859 	 -12.8471 	 88.257
| 26> C 	 61.7278 	 -11.5372 	 88.8413
| 27> C 	 60.4536 	 -10.9291 	 88.7775
| 28> H 	 62.6183 	 -13.4787 	 88.1466
| 29> C 	 62.984 	 -10.8781 	 89.336
| 30> H 	 63.3262 	 -10.0689 	 88.6323
| 31> H 	 63.7715 	 -11.6043 	 89.1955
| 32> C 	 62.9201 	 -10.3237 	 90.7755
| 33> H 	 62.0895 	 -9.53802 	 90.8601
| 34> H 	 63.9081 	 -9.76626 	 90.9518
| 35> C 	 62.7744 	 -11.4419 	 91.8664
| 36> H 	 61.8757 	 -12.0877 	 91.5386
| 37> H 	 62.7225 	 -11.1594 	 92.9179
| 38> H 	 63.6096 	 -12.0876 	 91.8051
| 39> H 	 57.7275 	 -7.41558 	 91.0748
| 40> H 	 60.3386 	 -14.1935 	 87.2295
| 41> *
| 42>
| 43>                          ****END OF INPUT****

CARTESIAN COORDINATES (ANGSTROEM)
---------------------------------
  S     58.439200   -9.797780   90.400100
  C     58.383700   -8.097080   90.482400
  C     59.429000   -7.456240   89.784700
  C     60.170000   -8.407270   89.039300
  C     59.869500   -9.710420   89.320700
  H     60.934700   -8.194340   88.266200
  C     59.573400   -5.996170   89.551500
  H     58.541200   -5.586000   89.284500
  H     60.116100   -5.775360   88.604300
  C     60.263900   -5.159260   90.555700
  H     60.546700   -4.223960   90.050000
  H     59.652100   -4.874980   91.489200
  C     61.588600   -5.770130   90.983100
  H     62.025800   -5.012030   91.655900
  H     61.389000   -6.649130   91.612100
  H     62.284800   -5.953410   90.149300
  S     59.328200  -12.079400   88.110300
  C     60.529600  -13.281500   87.794900
  C     61.785900  -12.847100   88.257000
  C     61.727800  -11.537200   88.841300
  C     60.453600  -10.929100   88.777500
  H     62.618300  -13.478700   88.146600
  C     62.984000  -10.878100   89.336000
  H     63.326200  -10.068900   88.632300
  H     63.771500  -11.604300   89.195500
  C     62.920100  -10.323700   90.775500
  H     62.089500   -9.538020   90.860100
  H     63.908100   -9.766260   90.951800
  C     62.774400  -11.441900   91.866400
  H     61.875700  -12.087700   91.538600
  H     62.722500  -11.159400   92.917900
  H     63.609600  -12.087600   91.805100
  H     57.727500   -7.415580   91.074800
  H     60.338600  -14.193500   87.229500

 Total Charge           Charge          ....    0
 Multiplicity           Mult            ....    1
 Number of Electrons    NEL             ....  134
 Basis Dimension        Dim             ....  322

ORBITAL ENERGIES
----------------

  NO   OCC          E(Eh)            E(eV)
   0   2.0000     -88.971911     -2421.0488
   1   2.0000     -88.964912     -2420.8583
   2   2.0000     -10.330142      -281.0975
   3   2.0000     -10.327313      -281.0205
   4   2.0000     -10.320098      -280.8241
   5   2.0000     -10.317048      -280.7411
   6   2.0000     -10.306821      -280.4629
   7   2.0000     -10.298936      -280.2483
   8   2.0000     -10.294952      -280.1399
   9   2.0000     -10.294847      -280.1370
  10   2.0000     -10.294517      -280.1280
  11   2.0000     -10.292422      -280.0710
  12   2.0000     -10.292159      -280.0639
  13   2.0000     -10.288038      -279.9517
  14   2.0000     -10.277151      -279.6555
  15   2.0000     -10.275532      -279.6114
  16   2.0000      -8.086275      -220.0387
  17   2.0000      -8.080141      -219.8718
  18   2.0000      -6.044738      -164.4857
  19   2.0000      -6.040807      -164.3787
  20   2.0000      -6.038540      -164.3170
  21   2.0000      -6.037118      -164.2783
  22   2.0000      -6.034275      -164.2010
  23   2.0000      -6.031283      -164.1195
  24   2.0000      -1.007336       -27.4110
  25   2.0000      -0.985227       -26.8094
  26   2.0000      -0.919628       -25.0243
  27   2.0000      -0.902149       -24.5487
  28   2.0000      -0.869363       -23.6566
  29   2.0000      -0.852513       -23.1981
  30   2.0000      -0.839880       -22.8543
  31   2.0000      -0.813111       -22.1259
  32   2.0000      -0.780559       -21.2401
  33   2.0000      -0.768954       -20.9243
  34   2.0000      -0.705412       -19.1952
  35   2.0000      -0.693585       -18.8734
  36   2.0000      -0.682444       -18.5703
  37   2.0000      -0.665619       -18.1124
  38   2.0000      -0.635183       -17.2842
  39   2.0000      -0.611325       -16.6350
  40   2.0000      -0.589243       -16.0341
  41   2.0000      -0.579983       -15.7821
  42   2.0000      -0.553892       -15.0722
  43   2.0000      -0.551393       -15.0042
  44   2.0000      -0.540178       -14.6990
  45   2.0000      -0.536819       -14.6076
  46   2.0000      -0.510845       -13.9008
  47   2.0000      -0.505685       -13.7604
  48   2.0000      -0.500659       -13.6236
  49   2.0000      -0.496534       -13.5114
  50   2.0000      -0.484507       -13.1841
  51   2.0000      -0.472789       -12.8653
  52   2.0000      -0.471451       -12.8288
  53   2.0000      -0.466644       -12.6980
  54   2.0000      -0.462265       -12.5789
  55   2.0000      -0.445056       -12.1106
  56   2.0000      -0.441176       -12.0050
  57   2.0000      -0.434200       -11.8152
  58   2.0000      -0.429454       -11.6860
  59   2.0000      -0.419127       -11.4050
  60   2.0000      -0.414632       -11.2827
  61   2.0000      -0.410675       -11.1750
  62   2.0000      -0.407923       -11.1001
  63   2.0000      -0.347444        -9.4544
  64   2.0000      -0.330894        -9.0041
  65   2.0000      -0.329041        -8.9537
  66   2.0000      -0.289747        -7.8844
  67   0.0000       0.027689         0.7535
  68   0.0000       0.060754         1.6532
  69   0.0000       0.111732         3.0404
  70   0.0000       0.120584         3.2813
  71   0.0000       0.122845         3.3428

MULLIKEN ATOMIC CHARGES
-----------------------
   0 S :    0.136989
   1 C :   -0.108552
   2 C :   -0.089689
   3 C :    0.020864
   4 C :   -0.161067
   5 H :    0.027426
   6 C :    0.019495
   7 H :    0.040783
   8 H :    0.024705
   9 C :   -0.085166
  10 H :    0.026853
  11 H :    0.039863
  12 C :   -0.069666
  13 H :    0.031803
  14 H :    0.053497
  15 H :    0.036112
  16 S :    0.106276
  17 C :   -0.103262
  18 C :   -0.021659
  19 C :   -0.037817
  20 C :   -0.164764
  21 H :    0.005556
  22 C :    0.061881
  23 H :    0.046598
  24 H :    0.002090
  25 C :   -0.118782
  26 H :    0.068559
  27 H :    0.034186
  28 C :   -0.052474
  29 H :    0.049098
  30 H :    0.043013
  31 H :    0.012271
  32 H :    0.057530
  33 H :    0.067450
Sum of atomic charges:   -0.0000000

LOEWDIN ATOMIC CHARGES
----------------------
   0 S :    0.417011
   1 C :   -0.216247
   2 C :   -0.072883
   3 C :   -0.058879
   4 C :   -0.190055
   5 H :    0.039527
   6 C :   -0.050461
   7 H :    0.039659
   8 H :    0.036353
   9 C :   -0.051955
  10 H :    0.026065
  11 H :    0.028934
  12 C :   -0.068724
  13 H :    0.028776
  14 H :    0.028323
  15 H :    0.025683
  16 S :    0.427250
  17 C :   -0.193094
  18 C :   -0.069099
  19 C :   -0.055734
  20 C :   -0.210064
  21 H :    0.024161
  22 C :   -0.039424
  23 H :    0.040590
  24 H :    0.024857
  25 C :   -0.049547
  26 H :    0.033357
  27 H :    0.027558
  28 C :   -0.073288
  29 H :    0.037337
  30 H :    0.026809
  31 H :    0.015003
  32 H :    0.039111
  33 H :    0.033092

  Mayer bond orders larger than 0.100000
B(  0-S ,  1-C ) :   1.1587 B(  0-S ,  4-C ) :   1.1305 B(  1-C ,  2-C ) :   1.5938
B(  1-C , 32-H ) :   0.9555 B(  2-C ,  3-C ) :   1.2462 B(  2-C ,  6-C ) :   1.0187
B(  3-C ,  4-C ) :   1.5897 B(  3-C ,  5-H ) :   0.9872 B(  4-C , 20-C ) :   1.0519
B(  6-C ,  7-H ) :   0.9408 B(  6-C ,  8-H ) :   0.9443 B(  6-C ,  9-C ) :   1.0812
B(  9-C , 10-H ) :   0.9541 B(  9-C , 11-H ) :   0.9519 B(  9-C , 12-C ) :   1.0847
B( 12-C , 13-H ) :   0.9719 B( 12-C , 14-H ) :   0.9663 B( 12-C , 15-H ) :   0.9744
B( 16-S , 17-C ) :   1.1859 B( 16-S , 20-C ) :   1.1594 B( 17-C , 18-C ) :   1.5558
B( 17-C , 20-C ) :   0.1070 B( 17-C , 33-H ) :   0.9673 B( 18-C , 19-C ) :   1.2721
B( 18-C , 21-H ) :   0.9994 B( 19-C , 20-C ) :   1.5315 B( 19-C , 22-C ) :   1.0398
B( 22-C , 23-H ) :   0.9363 B( 22-C , 24-H ) :   0.9331 B( 22-C , 25-C ) :   1.0586
B( 25-C , 26-H ) :   0.9530 B( 25-C , 27-H ) :   0.9545 B( 25-C , 28-C ) :   1.0590
B( 28-C , 29-H ) :   0.9749 B( 28-C , 30-H ) :   0.9779 B( 28-C , 31-H ) :   0.9740

Dispersion correction           -0.015730949
FINAL SINGLE POINT ENERGY     -1339.880844397509

DIPOLE MOMENT
-------------
                                X             Y             Z
Electronic contribution:    -18.28655     -16.62302     -10.10561
Nuclear contribution   :     18.74024      16.94578      10.00806
                        -----------------------------------------
Total Dipole Moment    :      0.45369       0.32276      -0.09755
                        -----------------------------------------
Magnitude (a.u.)       :      0.56527
Magnitude (Debye)      :      1.43680

Rotational constants in cm-1:     0.021027     0.009353     0.007596
Rotational constants in MHz :   630.366681   280.410828   227.716256

                             ****ORCA TERMINATED NORMALLY****
TOTAL RUN TIME: 0 days 0 hours 0 minutes 29 seconds 992 msec
