                         Program Version 4.2.1 -  RELEASE  -
|  1> ! wB97X-D3 SP def2-SVP
|  2> %pal
|  3> nprocs 16
|  4> end
|  5>
|  6> * xyz 0 1
|  7> S 	 -28.7522 	 53.312 	 110.811
|  8> C 	 -27.2931 	 54.1213 	 110.262
|  9> C 	 -27.5451 	 55.0638 	 109.281
| 10> C 	 -28.9709 	 54.988 	 108.855
| 11> C 	 -29.7455 	 54.1443 	 109.626
| 12> H 	 -29.4672 	 55.5677 	 108.065
| 13> C 	 -26.6102 	 56.0874 	 108.648
| 14> H 	 -27.1836 	 56.7615 	 107.974
| 15> H 	 -25.9681 	 55.448 	 108.105
| 16> C 	 -25.6395 	 56.9384 	 109.575
| 17> H 	 -26.0504 	 57.9566 	 109.841
| 18> H 	 -25.3572 	 56.3838 	 110.488
| 19> C 	 -24.339 	 57.3186 	 108.834
| 20> H 	 -23.579 	 57.8879 	 109.504
| 21> H 	 -23.7156 	 56.4655 	 108.479
| 22> H 	 -24.611 	 57.8756 	 107.887
| 23> S 	 -32.1008 	 54.7911 	 110.852
| 24> C 	 -33.5413 	 54.4832 	 110.003
| 25> C 	 -33.3764 	 53.5683 	 108.986
| 26> C 	 -32.0281 	 53.3542 	 108.73
| 27> C 	 -31.2185 	 54.027 	 109.642
| 28> H 	 -34.2214 	 53.1963 	 108.376
| 29> C 	 -31.517 	 52.419 	 107.624
| 30> H 	 -32.2756 	 51.7774 	 107.23
| 31> H 	 -30.6275 	 51.8238 	 107.921
| 32> C 	 -31.0598 	 53.1402 	 106.35
| 33> H 	 -30.4335 	 52.5042 	 105.701
| 34> H 	 -30.455 	 53.9797 	 106.477
| 35> C 	 -32.3003 	 53.6699 	 105.518
| 36> H 	 -32.2963 	 53.0234 	 104.667
| 37> H 	 -32.2736 	 54.6206 	 105.126
| 38> H 	 -33.3006 	 53.5512 	 106.042
| 39> H 	 -26.2804 	 54.0387 	 110.757
| 40> H 	 -34.5499 	 54.7368 	 110.296
| 41> *
| 42>
| 43>                          ****END OF INPUT****

CARTESIAN COORDINATES (ANGSTROEM)
---------------------------------
  S    -28.752200   53.312000  110.811000
  C    -27.293100   54.121300  110.262000
  C    -27.545100   55.063800  109.281000
  C    -28.970900   54.988000  108.855000
  C    -29.745500   54.144300  109.626000
  H    -29.467200   55.567700  108.065000
  C    -26.610200   56.087400  108.648000
  H    -27.183600   56.761500  107.974000
  H    -25.968100   55.448000  108.105000
  C    -25.639500   56.938400  109.575000
  H    -26.050400   57.956600  109.841000
  H    -25.357200   56.383800  110.488000
  C    -24.339000   57.318600  108.834000
  H    -23.579000   57.887900  109.504000
  H    -23.715600   56.465500  108.479000
  H    -24.611000   57.875600  107.887000
  S    -32.100800   54.791100  110.852000
  C    -33.541300   54.483200  110.003000
  C    -33.376400   53.568300  108.986000
  C    -32.028100   53.354200  108.730000
  C    -31.218500   54.027000  109.642000
  H    -34.221400   53.196300  108.376000
  C    -31.517000   52.419000  107.624000
  H    -32.275600   51.777400  107.230000
  H    -30.627500   51.823800  107.921000
  C    -31.059800   53.140200  106.350000
  H    -30.433500   52.504200  105.701000
  H    -30.455000   53.979700  106.477000
  C    -32.300300   53.669900  105.518000
  H    -32.296300   53.023400  104.667000
  H    -32.273600   54.620600  105.126000
  H    -33.300600   53.551200  106.042000
  H    -26.280400   54.038700  110.757000
  H    -34.549900   54.736800  110.296000

 Total Charge           Charge          ....    0
 Multiplicity           Mult            ....    1
 Number of Electrons    NEL             ....  134
 Basis Dimension        Dim             ....  322

ORBITAL ENERGIES
----------------

  NO   OCC          E(Eh)            E(eV)
   0   2.0000     -88.970692     -2421.0156
   1   2.0000     -88.964097     -2420.8362
   2   2.0000     -10.328601      -281.0555
   3   2.0000     -10.319204      -280.7998
   4   2.0000     -10.318346      -280.7765
   5   2.0000     -10.310292      -280.5573
   6   2.0000     -10.309099      -280.5249
   7   2.0000     -10.300598      -280.2935
   8   2.0000     -10.299776      -280.2712
   9   2.0000     -10.299203      -280.2556
  10   2.0000     -10.298934      -280.2482
  11   2.0000     -10.293506      -280.1005
  12   2.0000     -10.290627      -280.0222
  13   2.0000     -10.290551      -280.0201
  14   2.0000     -10.280129      -279.7365
  15   2.0000     -10.269220      -279.4397
  16   2.0000      -8.087262      -220.0656
  17   2.0000      -8.078578      -219.8293
  18   2.0000      -6.045419      -164.5042
  19   2.0000      -6.041548      -164.3989
  20   2.0000      -6.038239      -164.3088
  21   2.0000      -6.037259      -164.2822
  22   2.0000      -6.033051      -164.1677
  23   2.0000      -6.029246      -164.0641
  24   2.0000      -1.017177       -27.6788
  25   2.0000      -0.983357       -26.7585
  26   2.0000      -0.906731       -24.6734
  27   2.0000      -0.904856       -24.6224
  28   2.0000      -0.867405       -23.6033
  29   2.0000      -0.850095       -23.1323
  30   2.0000      -0.843094       -22.9418
  31   2.0000      -0.811871       -22.0921
  32   2.0000      -0.781361       -21.2619
  33   2.0000      -0.769253       -20.9324
  34   2.0000      -0.704879       -19.1807
  35   2.0000      -0.697914       -18.9912
  36   2.0000      -0.688093       -18.7240
  37   2.0000      -0.661782       -18.0080
  38   2.0000      -0.636889       -17.3306
  39   2.0000      -0.611413       -16.6374
  40   2.0000      -0.598291       -16.2803
  41   2.0000      -0.574120       -15.6226
  42   2.0000      -0.555535       -15.1169
  43   2.0000      -0.549131       -14.9426
  44   2.0000      -0.539341       -14.6762
  45   2.0000      -0.520441       -14.1619
  46   2.0000      -0.515156       -14.0181
  47   2.0000      -0.508004       -13.8235
  48   2.0000      -0.502729       -13.6800
  49   2.0000      -0.493709       -13.4345
  50   2.0000      -0.483916       -13.1680
  51   2.0000      -0.481323       -13.0975
  52   2.0000      -0.476063       -12.9543
  53   2.0000      -0.466685       -12.6991
  54   2.0000      -0.458190       -12.4680
  55   2.0000      -0.448794       -12.2123
  56   2.0000      -0.438017       -11.9190
  57   2.0000      -0.435364       -11.8469
  58   2.0000      -0.427624       -11.6362
  59   2.0000      -0.426205       -11.5976
  60   2.0000      -0.424231       -11.5439
  61   2.0000      -0.420545       -11.4436
  62   2.0000      -0.407951       -11.1009
  63   2.0000      -0.342425        -9.3179
  64   2.0000      -0.328087        -8.9277
  65   2.0000      -0.321680        -8.7533
  66   2.0000      -0.303608        -8.2616
  67   0.0000       0.045066         1.2263
  68   0.0000       0.057499         1.5646
  69   0.0000       0.116028         3.1573
  70   0.0000       0.120652         3.2831
  71   0.0000       0.125064         3.4032

MULLIKEN ATOMIC CHARGES
-----------------------
   0 S :    0.106781
   1 C :   -0.146086
   2 C :   -0.101432
   3 C :    0.040716
   4 C :   -0.183711
   5 H :    0.027237
   6 C :    0.086621
   7 H :    0.038435
   8 H :    0.030794
   9 C :   -0.075220
  10 H :    0.050225
  11 H :    0.036764
  12 C :   -0.134732
  13 H :    0.053345
  14 H :    0.034274
  15 H :    0.044982
  16 S :    0.161616
  17 C :   -0.090062
  18 C :   -0.064391
  19 C :    0.007618
  20 C :   -0.194556
  21 H :    0.032638
  22 C :    0.088721
  23 H :    0.017553
  24 H :    0.040766
  25 C :   -0.061440
  26 H :    0.028985
  27 H :    0.001388
  28 C :   -0.058464
  29 H :    0.021483
  30 H :    0.015974
  31 H :    0.029799
  32 H :    0.067654
  33 H :    0.045726
Sum of atomic charges:   -0.0000000

LOEWDIN ATOMIC CHARGES
----------------------
   0 S :    0.393716
   1 C :   -0.213426
   2 C :   -0.059759
   3 C :   -0.061962
   4 C :   -0.195703
   5 H :    0.032835
   6 C :   -0.030621
   7 H :    0.036824
   8 H :    0.032270
   9 C :   -0.043424
  10 H :    0.034177
  11 H :    0.024544
  12 C :   -0.086733
  13 H :    0.036501
  14 H :    0.021100
  15 H :    0.029461
  16 S :    0.473908
  17 C :   -0.204528
  18 C :   -0.075374
  19 C :   -0.051819
  20 C :   -0.233246
  21 H :    0.037237
  22 C :   -0.024547
  23 H :    0.026960
  24 H :    0.037955
  25 C :   -0.033174
  26 H :    0.025211
  27 H :    0.009309
  28 C :   -0.068427
  29 H :    0.023395
  30 H :    0.012096
  31 H :    0.028558
  32 H :    0.039595
  33 H :    0.027090

  Mayer bond orders larger than 0.100000
B(  0-S ,  1-C ) :   1.1236 B(  0-S ,  4-C ) :   1.1439 B(  1-C ,  2-C ) :   1.6486
B(  1-C , 32-H ) :   0.9574 B(  2-C ,  3-C ) :   1.2047 B(  2-C ,  6-C ) :   1.0077
B(  3-C ,  4-C ) :   1.6377 B(  3-C ,  5-H ) :   0.9786 B(  4-C , 20-C ) :   0.9929
B(  6-C ,  7-H ) :   0.9463 B(  6-C ,  8-H ) :   0.9399 B(  6-C ,  9-C ) :   1.0451
B(  9-C , 10-H ) :   0.9602 B(  9-C , 11-H ) :   0.9607 B(  9-C , 12-C ) :   1.0649
B( 12-C , 13-H ) :   0.9738 B( 12-C , 14-H ) :   0.9748 B( 12-C , 15-H ) :   0.9758
B( 16-S , 17-C ) :   1.1897 B( 16-S , 20-C ) :   1.1879 B( 17-C , 18-C ) :   1.5696
B( 17-C , 20-C ) :   0.1031 B( 17-C , 33-H ) :   0.9650 B( 18-C , 19-C ) :   1.3011
B( 18-C , 21-H ) :   0.9803 B( 19-C , 20-C ) :   1.5553 B( 19-C , 22-C ) :   1.0458
B( 22-C , 23-H ) :   0.9436 B( 22-C , 24-H ) :   0.9311 B( 22-C , 25-C ) :   1.0665
B( 25-C , 26-H ) :   0.9658 B( 25-C , 27-H ) :   0.9609 B( 25-C , 28-C ) :   1.0405
B( 28-C , 29-H ) :   0.9793 B( 28-C , 30-H ) :   0.9804 B( 28-C , 31-H ) :   0.9814

Dispersion correction           -0.014283191
FINAL SINGLE POINT ENERGY     -1339.858502780287

DIPOLE MOMENT
-------------
                                X             Y             Z
Electronic contribution:    -12.94827      -7.22567      20.85521
Nuclear contribution   :     13.08126       7.44094     -21.31018
                        -----------------------------------------
Total Dipole Moment    :      0.13299       0.21526      -0.45497
                        -----------------------------------------
Magnitude (a.u.)       :      0.52059
Magnitude (Debye)      :      1.32325

Rotational constants in cm-1:     0.021313     0.007415     0.006430
Rotational constants in MHz :   638.946196   222.309406   192.773310

                             ****ORCA TERMINATED NORMALLY****
TOTAL RUN TIME: 0 days 0 hours 0 minutes 29 seconds 576 msec
