                         Program Version 4.2.1 -  RELEASE  -
|  1> ! wB97X-D3 SP def2-SVP
|  2> %pal
|  3> nprocs 16
|  4> end
|  5>
|  6> * xyz 0 1
|  7> S 	 7.00128 	 20.8169 	 39.7952
|  8> C 	 7.35812 	 19.1303 	 39.7335
|  9> C 	 8.02698 	 18.6997 	 40.8291
| 10> C 	 8.07111 	 19.7325 	 41.8345
| 11> C 	 7.63272 	 21.013 	 41.3743
| 12> H 	 8.39018 	 19.6266 	 42.8458
| 13> C 	 8.5658 	 17.2865 	 40.9879
| 14> H 	 7.82847 	 16.6036 	 40.6078
| 15> H 	 8.51863 	 17.0269 	 42.0876
| 16> C 	 9.90111 	 17.0406 	 40.3692
| 17> H 	 9.85185 	 17.5532 	 39.4152
| 18> H 	 10.6168 	 17.4982 	 41.0706
| 19> C 	 10.0884 	 15.5441 	 40.2557
| 20> H 	 11.1165 	 15.2531 	 40.0167
| 21> H 	 9.79675 	 14.8683 	 41.1053
| 22> H 	 9.61436 	 15.1695 	 39.3765
| 23> S 	 6.09958 	 23.1627 	 41.9256
| 24> C 	 6.66111 	 24.3474 	 43.06
| 25> C 	 7.89989 	 24.0294 	 43.5365
| 26> C 	 8.38621 	 22.7999 	 43.011
| 27> C 	 7.48341 	 22.2296 	 42.1207
| 28> H 	 8.37176 	 24.6418 	 44.2397
| 29> C 	 9.80845 	 22.2393 	 43.4331
| 30> H 	 9.99721 	 21.2193 	 43.1086
| 31> H 	 10.0178 	 22.1635 	 44.4921
| 32> C 	 10.9224 	 23.121 	 42.7165
| 33> H 	 10.7338 	 24.1875 	 42.8493
| 34> H 	 10.979 	 22.8773 	 41.5823
| 35> C 	 12.3385 	 22.8309 	 43.2313
| 36> H 	 12.558 	 23.3283 	 44.19
| 37> H 	 13.0869 	 23.1733 	 42.5744
| 38> H 	 12.5717 	 21.7935 	 43.3553
| 39> H 	 7.20999 	 18.4702 	 38.972
| 40> H 	 6.09833 	 25.2567 	 43.2588
| 41> *
| 42>
| 43>                          ****END OF INPUT****

CARTESIAN COORDINATES (ANGSTROEM)
---------------------------------
  S      7.001280   20.816900   39.795200
  C      7.358120   19.130300   39.733500
  C      8.026980   18.699700   40.829100
  C      8.071110   19.732500   41.834500
  C      7.632720   21.013000   41.374300
  H      8.390180   19.626600   42.845800
  C      8.565800   17.286500   40.987900
  H      7.828470   16.603600   40.607800
  H      8.518630   17.026900   42.087600
  C      9.901110   17.040600   40.369200
  H      9.851850   17.553200   39.415200
  H     10.616800   17.498200   41.070600
  C     10.088400   15.544100   40.255700
  H     11.116500   15.253100   40.016700
  H      9.796750   14.868300   41.105300
  H      9.614360   15.169500   39.376500
  S      6.099580   23.162700   41.925600
  C      6.661110   24.347400   43.060000
  C      7.899890   24.029400   43.536500
  C      8.386210   22.799900   43.011000
  C      7.483410   22.229600   42.120700
  H      8.371760   24.641800   44.239700
  C      9.808450   22.239300   43.433100
  H      9.997210   21.219300   43.108600
  H     10.017800   22.163500   44.492100
  C     10.922400   23.121000   42.716500
  H     10.733800   24.187500   42.849300
  H     10.979000   22.877300   41.582300
  C     12.338500   22.830900   43.231300
  H     12.558000   23.328300   44.190000
  H     13.086900   23.173300   42.574400
  H     12.571700   21.793500   43.355300
  H      7.209990   18.470200   38.972000
  H      6.098330   25.256700   43.258800

 Total Charge           Charge          ....    0
 Multiplicity           Mult            ....    1
 Number of Electrons    NEL             ....  134
 Basis Dimension        Dim             ....  322

ORBITAL ENERGIES
----------------

  NO   OCC          E(Eh)            E(eV)
   0   2.0000     -88.966140     -2420.8917
   1   2.0000     -88.965733     -2420.8807
   2   2.0000     -10.327253      -281.0188
   3   2.0000     -10.321252      -280.8555
   4   2.0000     -10.314133      -280.6618
   5   2.0000     -10.306118      -280.4437
   6   2.0000     -10.300446      -280.2894
   7   2.0000     -10.298236      -280.2293
   8   2.0000     -10.295925      -280.1664
   9   2.0000     -10.293574      -280.1024
  10   2.0000     -10.293430      -280.0985
  11   2.0000     -10.289467      -279.9906
  12   2.0000     -10.288955      -279.9767
  13   2.0000     -10.286538      -279.9109
  14   2.0000     -10.279397      -279.7166
  15   2.0000     -10.269773      -279.4547
  16   2.0000      -8.082246      -219.9291
  17   2.0000      -8.081711      -219.9145
  18   2.0000      -6.040523      -164.3710
  19   2.0000      -6.040121      -164.3600
  20   2.0000      -6.036500      -164.2615
  21   2.0000      -6.036017      -164.2484
  22   2.0000      -6.033132      -164.1699
  23   2.0000      -6.032613      -164.1558
  24   2.0000      -1.016970       -27.6732
  25   2.0000      -0.991704       -26.9856
  26   2.0000      -0.922032       -25.0898
  27   2.0000      -0.897325       -24.4175
  28   2.0000      -0.877986       -23.8912
  29   2.0000      -0.850599       -23.1460
  30   2.0000      -0.845923       -23.0187
  31   2.0000      -0.813643       -22.1404
  32   2.0000      -0.783790       -21.3280
  33   2.0000      -0.774802       -21.0834
  34   2.0000      -0.707714       -19.2579
  35   2.0000      -0.702939       -19.1279
  36   2.0000      -0.692832       -18.8529
  37   2.0000      -0.667387       -18.1605
  38   2.0000      -0.641811       -17.4646
  39   2.0000      -0.618563       -16.8320
  40   2.0000      -0.601134       -16.3577
  41   2.0000      -0.581052       -15.8112
  42   2.0000      -0.565939       -15.4000
  43   2.0000      -0.554361       -15.0849
  44   2.0000      -0.526474       -14.3261
  45   2.0000      -0.520718       -14.1694
  46   2.0000      -0.516632       -14.0583
  47   2.0000      -0.511525       -13.9193
  48   2.0000      -0.505892       -13.7660
  49   2.0000      -0.504700       -13.7336
  50   2.0000      -0.495858       -13.4930
  51   2.0000      -0.484788       -13.1918
  52   2.0000      -0.469136       -12.7658
  53   2.0000      -0.466093       -12.6830
  54   2.0000      -0.459160       -12.4944
  55   2.0000      -0.452161       -12.3039
  56   2.0000      -0.448202       -12.1962
  57   2.0000      -0.433601       -11.7989
  58   2.0000      -0.431094       -11.7307
  59   2.0000      -0.424009       -11.5379
  60   2.0000      -0.420540       -11.4435
  61   2.0000      -0.415695       -11.3116
  62   2.0000      -0.413364       -11.2482
  63   2.0000      -0.355313        -9.6686
  64   2.0000      -0.333099        -9.0641
  65   2.0000      -0.329468        -8.9653
  66   2.0000      -0.286947        -7.8082
  67   0.0000       0.028926         0.7871
  68   0.0000       0.085500         2.3266
  69   0.0000       0.116974         3.1830
  70   0.0000       0.122324         3.3286
  71   0.0000       0.135497         3.6871

MULLIKEN ATOMIC CHARGES
-----------------------
   0 S :    0.117814
   1 C :   -0.065448
   2 C :   -0.101612
   3 C :    0.032534
   4 C :   -0.160290
   5 H :    0.003609
   6 C :    0.019190
   7 H :    0.015489
   8 H :    0.026303
   9 C :   -0.012832
  10 H :    0.032554
  11 H :    0.035111
  12 C :   -0.052931
  13 H :    0.022271
  14 H :    0.043788
  15 H :    0.020446
  16 S :    0.121921
  17 C :   -0.102663
  18 C :   -0.002651
  19 C :   -0.029327
  20 C :   -0.147136
  21 H :   -0.001877
  22 C :    0.080276
  23 H :    0.012133
  24 H :    0.031506
  25 C :   -0.126488
  26 H :    0.038059
  27 H :    0.053130
  28 C :   -0.027357
  29 H :    0.026707
  30 H :    0.020427
  31 H :    0.017396
  32 H :   -0.000647
  33 H :    0.060594
Sum of atomic charges:   -0.0000000

LOEWDIN ATOMIC CHARGES
----------------------
   0 S :    0.433073
   1 C :   -0.194853
   2 C :   -0.062407
   3 C :   -0.061385
   4 C :   -0.204825
   5 H :    0.021649
   6 C :   -0.036945
   7 H :    0.024483
   8 H :    0.033340
   9 C :   -0.037146
  10 H :    0.029005
  11 H :    0.029882
  12 C :   -0.073005
  13 H :    0.025455
  14 H :    0.033680
  15 H :    0.023192
  16 S :    0.443118
  17 C :   -0.190297
  18 C :   -0.060849
  19 C :   -0.051123
  20 C :   -0.226453
  21 H :    0.023855
  22 C :   -0.027701
  23 H :    0.026018
  24 H :    0.027810
  25 C :   -0.041405
  26 H :    0.021278
  27 H :    0.037821
  28 C :   -0.071025
  29 H :    0.024875
  30 H :    0.020902
  31 H :    0.019725
  32 H :    0.009798
  33 H :    0.030459

  Mayer bond orders larger than 0.100000
B(  0-S ,  1-C ) :   1.1412 B(  0-S ,  4-C ) :   1.1685 B(  1-C ,  2-C ) :   1.6081
B(  1-C , 32-H ) :   0.9729 B(  2-C ,  3-C ) :   1.2637 B(  2-C ,  6-C ) :   1.0146
B(  3-C ,  4-C ) :   1.5291 B(  3-C ,  5-H ) :   0.9916 B(  4-C , 20-C ) :   1.0669
B(  6-C ,  7-H ) :   0.9456 B(  6-C ,  8-H ) :   0.9375 B(  6-C ,  9-C ) :   1.0543
B(  9-C , 10-H ) :   0.9563 B(  9-C , 11-H ) :   0.9524 B(  9-C , 12-C ) :   1.0789
B( 12-C , 13-H ) :   0.9710 B( 12-C , 14-H ) :   0.9737 B( 12-C , 15-H ) :   0.9711
B( 16-S , 17-C ) :   1.1594 B( 16-S , 20-C ) :   1.1686 B( 17-C , 18-C ) :   1.5856
B( 17-C , 33-H ) :   0.9702 B( 18-C , 19-C ) :   1.2614 B( 18-C , 21-H ) :   1.0040
B( 19-C , 20-C ) :   1.5668 B( 19-C , 22-C ) :   1.0317 B( 22-C , 23-H ) :   0.9316
B( 22-C , 24-H ) :   0.9519 B( 22-C , 25-C ) :   1.0444 B( 25-C , 26-H ) :   0.9652
B( 25-C , 27-H ) :   0.9593 B( 25-C , 28-C ) :   1.0790 B( 28-C , 29-H ) :   0.9738
B( 28-C , 30-H ) :   0.9731 B( 28-C , 31-H ) :   0.9729

Dispersion correction           -0.013540306
FINAL SINGLE POINT ENERGY     -1339.875018858769

DIPOLE MOMENT
-------------
                                X             Y             Z
Electronic contribution:    -25.89728      15.90972      -5.19657
Nuclear contribution   :     26.37077     -16.17852       5.45130
                        -----------------------------------------
Total Dipole Moment    :      0.47349      -0.26881       0.25474
                        -----------------------------------------
Magnitude (a.u.)       :      0.60112
Magnitude (Debye)      :      1.52792

Rotational constants in cm-1:     0.018389     0.008365     0.006197
Rotational constants in MHz :   551.285510   250.776056   185.788888

                             ****ORCA TERMINATED NORMALLY****
TOTAL RUN TIME: 0 days 0 hours 0 minutes 33 seconds 928 msec
