                         Program Version 4.2.1 -  RELEASE  -
|  1> ! wB97X-D3 SP def2-SVP
|  2> %pal
|  3> nprocs 16
|  4> end
|  5>
|  6> * xyz 0 1
|  7> S 	 -12.0198 	 -9.14036 	 82.8396
|  8> C 	 -12.8644 	 -10.5149 	 83.3782
|  9> C 	 -12.9362 	 -10.4686 	 84.7969
| 10> C 	 -12.4574 	 -9.24134 	 85.404
| 11> C 	 -11.8434 	 -8.50938 	 84.4426
| 12> H 	 -12.3791 	 -8.99742 	 86.436
| 13> C 	 -13.4291 	 -11.5831 	 85.7024
| 14> H 	 -12.7423 	 -11.6186 	 86.4925
| 15> H 	 -13.1786 	 -12.5556 	 85.2267
| 16> C 	 -14.9054 	 -11.5344 	 86.0899
| 17> H 	 -15.1165 	 -10.5741 	 86.5985
| 18> H 	 -15.556 	 -11.5059 	 85.2456
| 19> C 	 -15.3694 	 -12.7 	 87.0367
| 20> H 	 -16.4007 	 -12.6257 	 87.2065
| 21> H 	 -15.2133 	 -13.7055 	 86.5877
| 22> H 	 -14.8563 	 -12.6392 	 87.9782
| 23> S 	 -12.1473 	 -5.80167 	 84.0138
| 24> C 	 -10.9878 	 -4.67859 	 84.5656
| 25> C 	 -10.1119 	 -5.2747 	 85.4785
| 26> C 	 -10.2702 	 -6.71699 	 85.5156
| 27> C 	 -11.3098 	 -7.15185 	 84.665
| 28> H 	 -9.38692 	 -4.71327 	 86.0302
| 29> C 	 -9.36598 	 -7.59126 	 86.377
| 30> H 	 -9.97396 	 -7.96513 	 87.1435
| 31> H 	 -8.75041 	 -6.90821 	 86.9102
| 32> C 	 -8.59834 	 -8.73845 	 85.715
| 33> H 	 -9.25845 	 -9.57912 	 85.4294
| 34> H 	 -7.93478 	 -9.15642 	 86.4716
| 35> C 	 -7.82972 	 -8.30908 	 84.4397
| 36> H 	 -7.18206 	 -7.47388 	 84.7255
| 37> H 	 -8.38606 	 -8.03829 	 83.5534
| 38> H 	 -7.21483 	 -9.09866 	 83.9651
| 39> H 	 -13.1657 	 -11.2598 	 82.7138
| 40> H 	 -11.0552 	 -3.64725 	 84.2871
| 41> *
| 42>
| 43>                          ****END OF INPUT****

CARTESIAN COORDINATES (ANGSTROEM)
---------------------------------
  S    -12.019800   -9.140360   82.839600
  C    -12.864400  -10.514900   83.378200
  C    -12.936200  -10.468600   84.796900
  C    -12.457400   -9.241340   85.404000
  C    -11.843400   -8.509380   84.442600
  H    -12.379100   -8.997420   86.436000
  C    -13.429100  -11.583100   85.702400
  H    -12.742300  -11.618600   86.492500
  H    -13.178600  -12.555600   85.226700
  C    -14.905400  -11.534400   86.089900
  H    -15.116500  -10.574100   86.598500
  H    -15.556000  -11.505900   85.245600
  C    -15.369400  -12.700000   87.036700
  H    -16.400700  -12.625700   87.206500
  H    -15.213300  -13.705500   86.587700
  H    -14.856300  -12.639200   87.978200
  S    -12.147300   -5.801670   84.013800
  C    -10.987800   -4.678590   84.565600
  C    -10.111900   -5.274700   85.478500
  C    -10.270200   -6.716990   85.515600
  C    -11.309800   -7.151850   84.665000
  H     -9.386920   -4.713270   86.030200
  C     -9.365980   -7.591260   86.377000
  H     -9.973960   -7.965130   87.143500
  H     -8.750410   -6.908210   86.910200
  C     -8.598340   -8.738450   85.715000
  H     -9.258450   -9.579120   85.429400
  H     -7.934780   -9.156420   86.471600
  C     -7.829720   -8.309080   84.439700
  H     -7.182060   -7.473880   84.725500
  H     -8.386060   -8.038290   83.553400
  H     -7.214830   -9.098660   83.965100
  H    -13.165700  -11.259800   82.713800
  H    -11.055200   -3.647250   84.287100

 Total Charge           Charge          ....    0
 Multiplicity           Mult            ....    1
 Number of Electrons    NEL             ....  134
 Basis Dimension        Dim             ....  322

ORBITAL ENERGIES
----------------

  NO   OCC          E(Eh)            E(eV)
   0   2.0000     -88.965796     -2420.8824
   1   2.0000     -88.961839     -2420.7747
   2   2.0000     -10.324196      -280.9356
   3   2.0000     -10.320116      -280.8246
   4   2.0000     -10.312313      -280.6123
   5   2.0000     -10.312284      -280.6115
   6   2.0000     -10.306099      -280.4432
   7   2.0000     -10.303447      -280.3710
   8   2.0000     -10.294192      -280.1192
   9   2.0000     -10.292340      -280.0688
  10   2.0000     -10.286889      -279.9205
  11   2.0000     -10.286853      -279.9195
  12   2.0000     -10.285799      -279.8908
  13   2.0000     -10.283921      -279.8397
  14   2.0000     -10.275982      -279.6237
  15   2.0000     -10.271585      -279.5040
  16   2.0000      -8.081695      -219.9141
  17   2.0000      -8.077980      -219.8130
  18   2.0000      -6.040004      -164.3569
  19   2.0000      -6.036294      -164.2559
  20   2.0000      -6.035905      -164.2453
  21   2.0000      -6.032734      -164.1590
  22   2.0000      -6.032204      -164.1446
  23   2.0000      -6.028957      -164.0563
  24   2.0000      -1.010271       -27.4909
  25   2.0000      -0.987121       -26.8609
  26   2.0000      -0.906347       -24.6630
  27   2.0000      -0.906102       -24.6563
  28   2.0000      -0.868776       -23.6406
  29   2.0000      -0.851302       -23.1651
  30   2.0000      -0.841966       -22.9111
  31   2.0000      -0.812963       -22.1218
  32   2.0000      -0.783838       -21.3293
  33   2.0000      -0.770118       -20.9560
  34   2.0000      -0.706766       -19.2321
  35   2.0000      -0.705185       -19.1891
  36   2.0000      -0.686174       -18.6718
  37   2.0000      -0.664207       -18.0740
  38   2.0000      -0.654080       -17.7984
  39   2.0000      -0.616204       -16.7678
  40   2.0000      -0.588549       -16.0152
  41   2.0000      -0.566449       -15.4139
  42   2.0000      -0.559212       -15.2169
  43   2.0000      -0.553092       -15.0504
  44   2.0000      -0.539224       -14.6730
  45   2.0000      -0.528551       -14.3826
  46   2.0000      -0.519916       -14.1476
  47   2.0000      -0.510894       -13.9021
  48   2.0000      -0.507227       -13.8023
  49   2.0000      -0.494786       -13.4638
  50   2.0000      -0.488110       -13.2821
  51   2.0000      -0.478914       -13.0319
  52   2.0000      -0.468547       -12.7498
  53   2.0000      -0.463950       -12.6247
  54   2.0000      -0.462297       -12.5797
  55   2.0000      -0.450460       -12.2576
  56   2.0000      -0.445695       -12.1280
  57   2.0000      -0.445500       -12.1227
  58   2.0000      -0.428185       -11.6515
  59   2.0000      -0.422171       -11.4878
  60   2.0000      -0.416910       -11.3447
  61   2.0000      -0.413159       -11.2426
  62   2.0000      -0.410294       -11.1647
  63   2.0000      -0.345218        -9.3939
  64   2.0000      -0.325551        -8.8587
  65   2.0000      -0.320621        -8.7245
  66   2.0000      -0.298443        -8.1210
  67   0.0000       0.037973         1.0333
  68   0.0000       0.069211         1.8833
  69   0.0000       0.115815         3.1515
  70   0.0000       0.120691         3.2842
  71   0.0000       0.135995         3.7006

MULLIKEN ATOMIC CHARGES
-----------------------
   0 S :    0.123172
   1 C :   -0.097401
   2 C :   -0.110715
   3 C :    0.056911
   4 C :   -0.167642
   5 H :    0.014489
   6 C :    0.086275
   7 H :    0.003239
   8 H :    0.011436
   9 C :   -0.061301
  10 H :    0.024289
  11 H :    0.021161
  12 C :   -0.032778
  13 H :    0.024363
  14 H :    0.032623
  15 H :    0.029820
  16 S :    0.125983
  17 C :   -0.099040
  18 C :   -0.026730
  19 C :   -0.077809
  20 C :   -0.169289
  21 H :    0.012299
  22 C :    0.140946
  23 H :    0.009500
  24 H :   -0.006837
  25 C :   -0.053945
  26 H :    0.039494
  27 H :    0.030308
  28 C :   -0.061196
  29 H :    0.026733
  30 H :    0.034712
  31 H :    0.028430
  32 H :    0.033516
  33 H :    0.054983
Sum of atomic charges:    0.0000000

LOEWDIN ATOMIC CHARGES
----------------------
   0 S :    0.437944
   1 C :   -0.207267
   2 C :   -0.052650
   3 C :   -0.053188
   4 C :   -0.201823
   5 H :    0.032934
   6 C :   -0.038052
   7 H :    0.021409
   8 H :    0.030797
   9 C :   -0.035573
  10 H :    0.025771
  11 H :    0.020353
  12 C :   -0.060592
  13 H :    0.019304
  14 H :    0.027617
  15 H :    0.022330
  16 S :    0.443424
  17 C :   -0.198625
  18 C :   -0.071463
  19 C :   -0.052050
  20 C :   -0.222334
  21 H :    0.026321
  22 C :   -0.028985
  23 H :    0.026315
  24 H :    0.024838
  25 C :   -0.038098
  26 H :    0.028035
  27 H :    0.027084
  28 C :   -0.073650
  29 H :    0.023584
  30 H :    0.025998
  31 H :    0.028542
  32 H :    0.017326
  33 H :    0.024425

  Mayer bond orders larger than 0.100000
B(  0-S ,  1-C ) :   1.1538 B(  0-S ,  4-C ) :   1.1778 B(  1-C ,  2-C ) :   1.5710
B(  1-C , 32-H ) :   0.9865 B(  2-C ,  3-C ) :   1.2392 B(  2-C ,  6-C ) :   1.0255
B(  3-C ,  4-C ) :   1.5744 B(  3-C ,  5-H ) :   0.9969 B(  4-C , 20-C ) :   1.0018
B(  6-C ,  7-H ) :   0.9390 B(  6-C ,  8-H ) :   0.9394 B(  6-C ,  9-C ) :   1.0572
B(  9-C , 10-H ) :   0.9557 B(  9-C , 11-H ) :   0.9568 B(  9-C , 12-C ) :   1.0812
B( 12-C , 13-H ) :   0.9751 B( 12-C , 14-H ) :   0.9761 B( 12-C , 15-H ) :   0.9769
B( 16-S , 17-C ) :   1.1874 B( 16-S , 20-C ) :   1.1767 B( 17-C , 18-C ) :   1.5527
B( 17-C , 20-C ) :   0.1002 B( 17-C , 33-H ) :   0.9739 B( 18-C , 19-C ) :   1.2788
B( 18-C , 21-H ) :   0.9931 B( 19-C , 20-C ) :   1.5586 B( 19-C , 22-C ) :   1.0323
B( 22-C , 23-H ) :   0.9196 B( 22-C , 24-H ) :   0.9245 B( 22-C , 25-C ) :   1.0762
B( 25-C , 26-H ) :   0.9508 B( 25-C , 27-H ) :   0.9540 B( 25-C , 28-C ) :   1.0757
B( 28-C , 29-H ) :   0.9791 B( 28-C , 30-H ) :   0.9708 B( 28-C , 31-H ) :   0.9743

Dispersion correction           -0.015107414
FINAL SINGLE POINT ENERGY     -1339.881149086360

DIPOLE MOMENT
-------------
                                X             Y             Z
Electronic contribution:     -2.87135      17.55638     -14.79675
Nuclear contribution   :      2.92699     -17.84692      15.27602
                        -----------------------------------------
Total Dipole Moment    :      0.05564      -0.29054       0.47926
                        -----------------------------------------
Magnitude (a.u.)       :      0.56321
Magnitude (Debye)      :      1.43156

Rotational constants in cm-1:     0.020960     0.007833     0.007250
Rotational constants in MHz :   628.355059   234.814752   217.357584

                             ****ORCA TERMINATED NORMALLY****
TOTAL RUN TIME: 0 days 0 hours 0 minutes 33 seconds 401 msec
