                         Program Version 4.2.1 -  RELEASE  -
|  1> ! wB97X-D3 SP def2-SVP
|  2> %pal
|  3> nprocs 16
|  4> end
|  5>
|  6> * xyz 0 1
|  7> S 	 -13.4508 	 50.5217 	 32.0234
|  8> C 	 -12.4366 	 50.9123 	 30.6292
|  9> C 	 -11.4586 	 49.9949 	 30.3812
| 10> C 	 -11.583 	 48.8876 	 31.2298
| 11> C 	 -12.5979 	 48.9685 	 32.1468
| 12> H 	 -10.8625 	 48.075 	 31.2989
| 13> C 	 -10.3399 	 50.1225 	 29.3347
| 14> H 	 -9.34398 	 50.1254 	 29.8294
| 15> H 	 -10.4369 	 51.1348 	 28.9002
| 16> C 	 -10.4667 	 49.139 	 28.1589
| 17> H 	 -10.3761 	 48.1941 	 28.5669
| 18> H 	 -11.4775 	 49.2036 	 27.754
| 19> C 	 -9.37626 	 49.379 	 27.0849
| 20> H 	 -9.33081 	 50.4776 	 26.8468
| 21> H 	 -8.4249 	 48.8745 	 27.3059
| 22> H 	 -9.71497 	 48.8638 	 26.186
| 23> S 	 -12.493 	 48.674 	 34.8508
| 24> C 	 -12.9469 	 47.1338 	 35.5546
| 25> C 	 -13.2589 	 46.2233 	 34.5453
| 26> C 	 -13.2992 	 46.7412 	 33.2032
| 27> C 	 -12.8472 	 48.0247 	 33.2128
| 28> H 	 -13.546 	 45.2455 	 34.8751
| 29> C 	 -13.8276 	 45.9644 	 32.0581
| 30> H 	 -13.8666 	 44.8896 	 32.4173
| 31> H 	 -13.0268 	 45.9632 	 31.3739
| 32> C 	 -15.0638 	 46.4854 	 31.306
| 33> H 	 -15.0862 	 47.5817 	 31.1769
| 34> H 	 -15.9328 	 46.2023 	 31.8816
| 35> C 	 -15.1772 	 45.7917 	 29.95
| 36> H 	 -16.0574 	 46.0568 	 29.3836
| 37> H 	 -15.231 	 44.7227 	 29.969
| 38> H 	 -14.3555 	 46.0267 	 29.3707
| 39> H 	 -12.6194 	 51.7145 	 29.9778
| 40> H 	 -12.9322 	 46.8431 	 36.5459
| 41> *
| 42>
| 43>                          ****END OF INPUT****

CARTESIAN COORDINATES (ANGSTROEM)
---------------------------------
  S    -13.450800   50.521700   32.023400
  C    -12.436600   50.912300   30.629200
  C    -11.458600   49.994900   30.381200
  C    -11.583000   48.887600   31.229800
  C    -12.597900   48.968500   32.146800
  H    -10.862500   48.075000   31.298900
  C    -10.339900   50.122500   29.334700
  H     -9.343980   50.125400   29.829400
  H    -10.436900   51.134800   28.900200
  C    -10.466700   49.139000   28.158900
  H    -10.376100   48.194100   28.566900
  H    -11.477500   49.203600   27.754000
  C     -9.376260   49.379000   27.084900
  H     -9.330810   50.477600   26.846800
  H     -8.424900   48.874500   27.305900
  H     -9.714970   48.863800   26.186000
  S    -12.493000   48.674000   34.850800
  C    -12.946900   47.133800   35.554600
  C    -13.258900   46.223300   34.545300
  C    -13.299200   46.741200   33.203200
  C    -12.847200   48.024700   33.212800
  H    -13.546000   45.245500   34.875100
  C    -13.827600   45.964400   32.058100
  H    -13.866600   44.889600   32.417300
  H    -13.026800   45.963200   31.373900
  C    -15.063800   46.485400   31.306000
  H    -15.086200   47.581700   31.176900
  H    -15.932800   46.202300   31.881600
  C    -15.177200   45.791700   29.950000
  H    -16.057400   46.056800   29.383600
  H    -15.231000   44.722700   29.969000
  H    -14.355500   46.026700   29.370700
  H    -12.619400   51.714500   29.977800
  H    -12.932200   46.843100   36.545900

 Total Charge           Charge          ....    0
 Multiplicity           Mult            ....    1
 Number of Electrons    NEL             ....  134
 Basis Dimension        Dim             ....  322

ORBITAL ENERGIES
----------------

  NO   OCC          E(Eh)            E(eV)
   0   2.0000     -88.967960     -2420.9413
   1   2.0000     -88.962707     -2420.7983
   2   2.0000     -10.326350      -280.9943
   3   2.0000     -10.321936      -280.8742
   4   2.0000     -10.311151      -280.5807
   5   2.0000     -10.309545      -280.5370
   6   2.0000     -10.299907      -280.2747
   7   2.0000     -10.296593      -280.1845
   8   2.0000     -10.296530      -280.1828
   9   2.0000     -10.290068      -280.0070
  10   2.0000     -10.290027      -280.0059
  11   2.0000     -10.289826      -280.0004
  12   2.0000     -10.285744      -279.8893
  13   2.0000     -10.285392      -279.8798
  14   2.0000     -10.282936      -279.8129
  15   2.0000     -10.265485      -279.3381
  16   2.0000      -8.081925      -219.9204
  17   2.0000      -8.076751      -219.7796
  18   2.0000      -6.040428      -164.3684
  19   2.0000      -6.036652      -164.2657
  20   2.0000      -6.035386      -164.2312
  21   2.0000      -6.032625      -164.1561
  22   2.0000      -6.031379      -164.1222
  23   2.0000      -6.027407      -164.0141
  24   2.0000      -1.005017       -27.3479
  25   2.0000      -0.981097       -26.6970
  26   2.0000      -0.910916       -24.7873
  27   2.0000      -0.909785       -24.7565
  28   2.0000      -0.868712       -23.6389
  29   2.0000      -0.854928       -23.2638
  30   2.0000      -0.847147       -23.0520
  31   2.0000      -0.811725       -22.0882
  32   2.0000      -0.783103       -21.3093
  33   2.0000      -0.772597       -21.0234
  34   2.0000      -0.714191       -19.4341
  35   2.0000      -0.702444       -19.1145
  36   2.0000      -0.696892       -18.9634
  37   2.0000      -0.663302       -18.0494
  38   2.0000      -0.643591       -17.5130
  39   2.0000      -0.620844       -16.8940
  40   2.0000      -0.593359       -16.1461
  41   2.0000      -0.569500       -15.4969
  42   2.0000      -0.566491       -15.4150
  43   2.0000      -0.558912       -15.2088
  44   2.0000      -0.525790       -14.3075
  45   2.0000      -0.521266       -14.1844
  46   2.0000      -0.518068       -14.0973
  47   2.0000      -0.513683       -13.9780
  48   2.0000      -0.503454       -13.6997
  49   2.0000      -0.495535       -13.4842
  50   2.0000      -0.493236       -13.4216
  51   2.0000      -0.482251       -13.1227
  52   2.0000      -0.466549       -12.6954
  53   2.0000      -0.462905       -12.5963
  54   2.0000      -0.459699       -12.5091
  55   2.0000      -0.446861       -12.1597
  56   2.0000      -0.444120       -12.0851
  57   2.0000      -0.437409       -11.9025
  58   2.0000      -0.434115       -11.8129
  59   2.0000      -0.427284       -11.6270
  60   2.0000      -0.423734       -11.5304
  61   2.0000      -0.421747       -11.4763
  62   2.0000      -0.419421       -11.4130
  63   2.0000      -0.339888        -9.2488
  64   2.0000      -0.332889        -9.0584
  65   2.0000      -0.326919        -8.8959
  66   2.0000      -0.296067        -8.0564
  67   0.0000       0.036139         0.9834
  68   0.0000       0.060244         1.6393
  69   0.0000       0.110455         3.0056
  70   0.0000       0.121312         3.3011
  71   0.0000       0.133017         3.6196

MULLIKEN ATOMIC CHARGES
-----------------------
   0 S :    0.112860
   1 C :   -0.108505
   2 C :   -0.073059
   3 C :    0.041825
   4 C :   -0.182134
   5 H :    0.016504
   6 C :    0.050502
   7 H :    0.046161
   8 H :    0.008259
   9 C :   -0.056917
  10 H :    0.009126
  11 H :    0.031626
  12 C :   -0.049022
  13 H :    0.042212
  14 H :    0.042628
  15 H :    0.029378
  16 S :    0.102529
  17 C :   -0.055798
  18 C :   -0.056038
  19 C :   -0.008885
  20 C :   -0.191228
  21 H :    0.004025
  22 C :    0.102868
  23 H :    0.025921
  24 H :    0.002043
  25 C :   -0.042611
  26 H :    0.047082
  27 H :    0.026812
  28 C :   -0.024365
  29 H :    0.025291
  30 H :    0.017452
  31 H :    0.012663
  32 H :    0.024414
  33 H :    0.026379
Sum of atomic charges:    0.0000000

LOEWDIN ATOMIC CHARGES
----------------------
   0 S :    0.386355
   1 C :   -0.178898
   2 C :   -0.066433
   3 C :   -0.058895
   4 C :   -0.190404
   5 H :    0.033236
   6 C :   -0.030511
   7 H :    0.036288
   8 H :    0.025999
   9 C :   -0.036316
  10 H :    0.011406
  11 H :    0.027485
  12 C :   -0.068121
  13 H :    0.031675
  14 H :    0.029515
  15 H :    0.027232
  16 S :    0.382395
  17 C :   -0.174593
  18 C :   -0.067786
  19 C :   -0.054561
  20 C :   -0.183199
  21 H :    0.023539
  22 C :   -0.033085
  23 H :    0.040155
  24 H :    0.025644
  25 C :   -0.029386
  26 H :    0.031877
  27 H :    0.023620
  28 C :   -0.059461
  29 H :    0.026553
  30 H :    0.022262
  31 H :    0.014212
  32 H :    0.016389
  33 H :    0.015811

  Mayer bond orders larger than 0.100000
B(  0-S ,  1-C ) :   1.1295 B(  0-S ,  4-C ) :   1.1315 B(  1-C ,  2-C ) :   1.6392
B(  1-C , 32-H ) :   0.9658 B(  2-C ,  3-C ) :   1.2332 B(  2-C ,  6-C ) :   1.0192
B(  3-C ,  4-C ) :   1.6061 B(  3-C ,  5-H ) :   0.9888 B(  4-C , 20-C ) :   1.0287
B(  6-C ,  7-H ) :   0.9431 B(  6-C ,  8-H ) :   0.9380 B(  6-C ,  9-C ) :   1.0559
B(  9-C , 10-H ) :   0.9560 B(  9-C , 11-H ) :   0.9562 B(  9-C , 12-C ) :   1.0833
B( 12-C , 13-H ) :   0.9746 B( 12-C , 14-H ) :   0.9748 B( 12-C , 15-H ) :   0.9747
B( 16-S , 17-C ) :   1.1345 B( 16-S , 20-C ) :   1.1277 B( 17-C , 18-C ) :   1.6475
B( 17-C , 33-H ) :   0.9740 B( 18-C , 19-C ) :   1.2059 B( 18-C , 21-H ) :   0.9862
B( 19-C , 20-C ) :   1.6306 B( 19-C , 22-C ) :   1.0399 B( 22-C , 23-H ) :   0.9240
B( 22-C , 24-H ) :   0.9190 B( 22-C , 25-C ) :   1.0544 B( 25-C , 26-H ) :   0.9563
B( 25-C , 27-H ) :   0.9539 B( 25-C , 28-C ) :   1.0843 B( 28-C , 29-H ) :   0.9717
B( 28-C , 30-H ) :   0.9727 B( 28-C , 31-H ) :   0.9756

Dispersion correction           -0.014146445
FINAL SINGLE POINT ENERGY     -1339.877894685638

DIPOLE MOMENT
-------------
                                X             Y             Z
Electronic contribution:     -3.70597      11.27510      26.45664
Nuclear contribution   :      3.87260     -11.71737     -26.99600
                        -----------------------------------------
Total Dipole Moment    :      0.16663      -0.44227      -0.53936
                        -----------------------------------------
Magnitude (a.u.)       :      0.71713
Magnitude (Debye)      :      1.82280

Rotational constants in cm-1:     0.018001     0.008501     0.007053
Rotational constants in MHz :   539.664604   254.839832   211.440872

                             ****ORCA TERMINATED NORMALLY****
TOTAL RUN TIME: 0 days 0 hours 0 minutes 31 seconds 319 msec
