                         Program Version 4.2.1 -  RELEASE  -
|  1> ! wB97X-D3 SP def2-SVP
|  2> %pal
|  3> nprocs 16
|  4> end
|  5>
|  6> * xyz 0 1
|  7> S 	 2.52036 	 -3.39444 	 79.1786
|  8> C 	 2.30648 	 -1.66963 	 79.4271
|  9> C 	 2.94291 	 -1.28661 	 80.607
| 10> C 	 3.53109 	 -2.38537 	 81.3755
| 11> C 	 3.35462 	 -3.6047 	 80.7939
| 12> H 	 4.11087 	 -2.28011 	 82.2417
| 13> C 	 3.2154 	 0.126789 	 81.1148
| 14> H 	 4.01643 	 0.527091 	 80.548
| 15> H 	 3.52186 	 0.104984 	 82.2631
| 16> C 	 2.00682 	 1.05602 	 80.9905
| 17> H 	 2.36638 	 2.05395 	 80.8296
| 18> H 	 1.45108 	 0.765276 	 80.0895
| 19> C 	 0.942852 	 0.976287 	 82.0414
| 20> H 	 0.16206 	 1.73013 	 81.9836
| 21> H 	 0.470655 	 0.0171715 	 82.2257
| 22> H 	 1.45239 	 1.22975 	 82.9892
| 23> S 	 5.29168 	 -5.38026 	 80.3914
| 24> C 	 5.62153 	 -6.66492 	 81.44
| 25> C 	 4.82794 	 -6.55133 	 82.581
| 26> C 	 3.79097 	 -5.54601 	 82.3608
| 27> C 	 3.92712 	 -4.85014 	 81.1699
| 28> H 	 4.86414 	 -7.14424 	 83.4877
| 29> C 	 2.65642 	 -5.33024 	 83.2952
| 30> H 	 1.77469 	 -5.52362 	 82.6693
| 31> H 	 2.56345 	 -4.29383 	 83.5082
| 32> C 	 2.63197 	 -6.11734 	 84.6767
| 33> H 	 3.49407 	 -5.8015 	 85.2582
| 34> H 	 2.60224 	 -7.13905 	 84.4426
| 35> C 	 1.27185 	 -5.84437 	 85.3891
| 36> H 	 1.18122 	 -4.81902 	 85.8001
| 37> H 	 1.25998 	 -6.53071 	 86.246
| 38> H 	 0.404714 	 -6.09413 	 84.774
| 39> H 	 1.86075 	 -0.99763 	 78.668
| 40> H 	 6.51344 	 -7.24049 	 81.4657
| 41> *
| 42>
| 43>                          ****END OF INPUT****

CARTESIAN COORDINATES (ANGSTROEM)
---------------------------------
  S      2.520360   -3.394440   79.178600
  C      2.306480   -1.669630   79.427100
  C      2.942910   -1.286610   80.607000
  C      3.531090   -2.385370   81.375500
  C      3.354620   -3.604700   80.793900
  H      4.110870   -2.280110   82.241700
  C      3.215400    0.126789   81.114800
  H      4.016430    0.527091   80.548000
  H      3.521860    0.104984   82.263100
  C      2.006820    1.056020   80.990500
  H      2.366380    2.053950   80.829600
  H      1.451080    0.765276   80.089500
  C      0.942852    0.976287   82.041400
  H      0.162060    1.730130   81.983600
  H      0.470655    0.017171   82.225700
  H      1.452390    1.229750   82.989200
  S      5.291680   -5.380260   80.391400
  C      5.621530   -6.664920   81.440000
  C      4.827940   -6.551330   82.581000
  C      3.790970   -5.546010   82.360800
  C      3.927120   -4.850140   81.169900
  H      4.864140   -7.144240   83.487700
  C      2.656420   -5.330240   83.295200
  H      1.774690   -5.523620   82.669300
  H      2.563450   -4.293830   83.508200
  C      2.631970   -6.117340   84.676700
  H      3.494070   -5.801500   85.258200
  H      2.602240   -7.139050   84.442600
  C      1.271850   -5.844370   85.389100
  H      1.181220   -4.819020   85.800100
  H      1.259980   -6.530710   86.246000
  H      0.404714   -6.094130   84.774000
  H      1.860750   -0.997630   78.668000
  H      6.513440   -7.240490   81.465700

 Total Charge           Charge          ....    0
 Multiplicity           Mult            ....    1
 Number of Electrons    NEL             ....  134
 Basis Dimension        Dim             ....  322

ORBITAL ENERGIES
----------------

  NO   OCC          E(Eh)            E(eV)
   0   2.0000     -88.962139     -2420.7829
   1   2.0000     -88.962083     -2420.7813
   2   2.0000     -10.331206      -281.1264
   3   2.0000     -10.321432      -280.8605
   4   2.0000     -10.311229      -280.5828
   5   2.0000     -10.310862      -280.5728
   6   2.0000     -10.305970      -280.4397
   7   2.0000     -10.298767      -280.2437
   8   2.0000     -10.298661      -280.2408
   9   2.0000     -10.295225      -280.1473
  10   2.0000     -10.293851      -280.1099
  11   2.0000     -10.289752      -279.9984
  12   2.0000     -10.282747      -279.8078
  13   2.0000     -10.282553      -279.8025
  14   2.0000     -10.282207      -279.7931
  15   2.0000     -10.274257      -279.5768
  16   2.0000      -8.079600      -219.8571
  17   2.0000      -8.075873      -219.7557
  18   2.0000      -6.037845      -164.2981
  19   2.0000      -6.034562      -164.2088
  20   2.0000      -6.033516      -164.1803
  21   2.0000      -6.030628      -164.1017
  22   2.0000      -6.030524      -164.0989
  23   2.0000      -6.026486      -163.9890
  24   2.0000      -1.017596       -27.6902
  25   2.0000      -0.980252       -26.6740
  26   2.0000      -0.912153       -24.8210
  27   2.0000      -0.906097       -24.6562
  28   2.0000      -0.876114       -23.8403
  29   2.0000      -0.850106       -23.1326
  30   2.0000      -0.845046       -22.9949
  31   2.0000      -0.817753       -22.2522
  32   2.0000      -0.778430       -21.1822
  33   2.0000      -0.766480       -20.8570
  34   2.0000      -0.710596       -19.3363
  35   2.0000      -0.705219       -19.1900
  36   2.0000      -0.695420       -18.9234
  37   2.0000      -0.655178       -17.8283
  38   2.0000      -0.642770       -17.4907
  39   2.0000      -0.612888       -16.6775
  40   2.0000      -0.596319       -16.2267
  41   2.0000      -0.576360       -15.6836
  42   2.0000      -0.573652       -15.6099
  43   2.0000      -0.557508       -15.1706
  44   2.0000      -0.540723       -14.7138
  45   2.0000      -0.522752       -14.2248
  46   2.0000      -0.520094       -14.1525
  47   2.0000      -0.511520       -13.9192
  48   2.0000      -0.507988       -13.8231
  49   2.0000      -0.497807       -13.5460
  50   2.0000      -0.485650       -13.2152
  51   2.0000      -0.475497       -12.9389
  52   2.0000      -0.474210       -12.9039
  53   2.0000      -0.472556       -12.8589
  54   2.0000      -0.459291       -12.4979
  55   2.0000      -0.449221       -12.2239
  56   2.0000      -0.446143       -12.1402
  57   2.0000      -0.443005       -12.0548
  58   2.0000      -0.431389       -11.7387
  59   2.0000      -0.422869       -11.5068
  60   2.0000      -0.415203       -11.2983
  61   2.0000      -0.409999       -11.1566
  62   2.0000      -0.405575       -11.0363
  63   2.0000      -0.346597        -9.4314
  64   2.0000      -0.325018        -8.8442
  65   2.0000      -0.319461        -8.6930
  66   2.0000      -0.300070        -8.1653
  67   0.0000       0.035816         0.9746
  68   0.0000       0.060757         1.6533
  69   0.0000       0.114438         3.1140
  70   0.0000       0.124249         3.3810
  71   0.0000       0.129102         3.5130

MULLIKEN ATOMIC CHARGES
-----------------------
   0 S :    0.087658
   1 C :   -0.136427
   2 C :   -0.100610
   3 C :    0.073829
   4 C :   -0.180710
   5 H :    0.000743
   6 C :    0.045649
   7 H :    0.039533
   8 H :    0.039283
   9 C :   -0.065028
  10 H :    0.021438
  11 H :    0.015920
  12 C :   -0.038510
  13 H :    0.032166
  14 H :    0.039127
  15 H :    0.008887
  16 S :    0.132490
  17 C :   -0.059145
  18 C :   -0.055615
  19 C :   -0.091474
  20 C :   -0.116199
  21 H :    0.023975
  22 C :    0.054031
  23 H :    0.036109
  24 H :    0.009342
  25 C :   -0.073066
  26 H :    0.043941
  27 H :    0.030242
  28 C :   -0.054001
  29 H :    0.039694
  30 H :    0.030398
  31 H :    0.038847
  32 H :    0.075355
  33 H :    0.052130
Sum of atomic charges:   -0.0000000

LOEWDIN ATOMIC CHARGES
----------------------
   0 S :    0.364775
   1 C :   -0.202823
   2 C :   -0.064444
   3 C :   -0.045421
   4 C :   -0.167591
   5 H :    0.026200
   6 C :   -0.031053
   7 H :    0.030383
   8 H :    0.038597
   9 C :   -0.046688
  10 H :    0.022119
  11 H :    0.023261
  12 C :   -0.066394
  13 H :    0.027234
  14 H :    0.027165
  15 H :    0.021478
  16 S :    0.483180
  17 C :   -0.206516
  18 C :   -0.074323
  19 C :   -0.053896
  20 C :   -0.253397
  21 H :    0.030200
  22 C :   -0.040347
  23 H :    0.040124
  24 H :    0.024095
  25 C :   -0.031358
  26 H :    0.026765
  27 H :    0.018045
  28 C :   -0.064239
  29 H :    0.026928
  30 H :    0.026187
  31 H :    0.027376
  32 H :    0.037843
  33 H :    0.026533

  Mayer bond orders larger than 0.100000
B(  0-S ,  1-C ) :   1.1268 B(  0-S ,  4-C ) :   1.1169 B(  1-C ,  2-C ) :   1.6299
B(  1-C , 32-H ) :   0.9608 B(  2-C ,  3-C ) :   1.2067 B(  2-C ,  6-C ) :   1.0075
B(  3-C ,  4-C ) :   1.6236 B(  3-C ,  5-H ) :   1.0006 B(  4-C , 20-C ) :   1.0207
B(  6-C ,  7-H ) :   0.9347 B(  6-C ,  8-H ) :   0.9516 B(  6-C ,  9-C ) :   1.0720
B(  9-C , 10-H ) :   0.9532 B(  9-C , 11-H ) :   0.9531 B(  9-C , 12-C ) :   1.0811
B( 12-C , 13-H ) :   0.9728 B( 12-C , 14-H ) :   0.9754 B( 12-C , 15-H ) :   0.9695
B( 16-S , 17-C ) :   1.2061 B( 16-S , 20-C ) :   1.1784 B( 17-C , 18-C ) :   1.5292
B( 17-C , 33-H ) :   0.9669 B( 18-C , 19-C ) :   1.3077 B( 18-C , 21-H ) :   0.9868
B( 19-C , 20-C ) :   1.5369 B( 19-C , 22-C ) :   1.0431 B( 22-C , 23-H ) :   0.9323
B( 22-C , 24-H ) :   0.9207 B( 22-C , 25-C ) :   1.0756 B( 25-C , 26-H ) :   0.9545
B( 25-C , 27-H ) :   0.9497 B( 25-C , 28-C ) :   1.0877 B( 28-C , 29-H ) :   0.9760
B( 28-C , 30-H ) :   0.9751 B( 28-C , 31-H ) :   0.9752

Dispersion correction           -0.013632424
FINAL SINGLE POINT ENERGY     -1339.863868307592

DIPOLE MOMENT
-------------
                                X             Y             Z
Electronic contribution:     13.49461     -12.52875     -21.39427
Nuclear contribution   :    -13.42947      12.88467      22.01037
                        -----------------------------------------
Total Dipole Moment    :      0.06514       0.35592       0.61610
                        -----------------------------------------
Magnitude (a.u.)       :      0.71449
Magnitude (Debye)      :      1.81609

Rotational constants in cm-1:     0.017725     0.008345     0.006383
Rotational constants in MHz :   531.374992   250.191749   191.359202

                             ****ORCA TERMINATED NORMALLY****
TOTAL RUN TIME: 0 days 0 hours 0 minutes 31 seconds 647 msec
