                         Program Version 4.2.1 -  RELEASE  -
|  1> ! wB97X-D3 SP def2-SVP
|  2> %pal
|  3> nprocs 16
|  4> end
|  5>
|  6> * xyz 0 1
|  7> S 	 -17.6225 	 -7.09527 	 86.4273
|  8> C 	 -16.8627 	 -7.89474 	 85.0346
|  9> C 	 -16.8357 	 -9.29424 	 85.2166
| 10> C 	 -17.437 	 -9.70272 	 86.4407
| 11> C 	 -17.9117 	 -8.69051 	 87.185
| 12> H 	 -17.3606 	 -10.6754 	 86.8992
| 13> C 	 -16.1595 	 -10.3863 	 84.3313
| 14> H 	 -15.5586 	 -10.9983 	 84.9793
| 15> H 	 -15.3762 	 -9.94959 	 83.7578
| 16> C 	 -17.154 	 -11.2584 	 83.5632
| 17> H 	 -17.832 	 -11.6941 	 84.294
| 18> H 	 -17.7754 	 -10.7447 	 82.8689
| 19> C 	 -16.5091 	 -12.3918 	 82.7738
| 20> H 	 -17.2743 	 -13.0079 	 82.2059
| 21> H 	 -15.6831 	 -12.1494 	 82.1469
| 22> H 	 -16.0781 	 -13.0647 	 83.4551
| 23> S 	 -19.709 	 -10.1435 	 88.6287
| 24> C 	 -19.7199 	 -10.0911 	 90.374
| 25> C 	 -19.0641 	 -8.93462 	 90.7624
| 26> C 	 -18.5048 	 -8.19094 	 89.7137
| 27> C 	 -18.5805 	 -8.84509 	 88.4767
| 28> H 	 -18.955 	 -8.68187 	 91.8306
| 29> C 	 -17.6974 	 -6.91913 	 90.0399
| 30> H 	 -18.4567 	 -6.23057 	 90.4202
| 31> H 	 -17.3886 	 -6.27825 	 89.1536
| 32> C 	 -16.5738 	 -7.09443 	 91.0222
| 33> H 	 -15.8545 	 -7.93468 	 90.6893
| 34> H 	 -16.9703 	 -7.35321 	 92.0008
| 35> C 	 -15.9668 	 -5.62529 	 91.1577
| 36> H 	 -15.1449 	 -5.54638 	 91.8278
| 37> H 	 -16.7815 	 -4.88759 	 91.3044
| 38> H 	 -15.4589 	 -5.43706 	 90.2167
| 39> H 	 -16.3949 	 -7.42303 	 84.1945
| 40> H 	 -20.2108 	 -10.7333 	 91.0554
| 41> *
| 42>
| 43>                          ****END OF INPUT****

CARTESIAN COORDINATES (ANGSTROEM)
---------------------------------
  S    -17.622500   -7.095270   86.427300
  C    -16.862700   -7.894740   85.034600
  C    -16.835700   -9.294240   85.216600
  C    -17.437000   -9.702720   86.440700
  C    -17.911700   -8.690510   87.185000
  H    -17.360600  -10.675400   86.899200
  C    -16.159500  -10.386300   84.331300
  H    -15.558600  -10.998300   84.979300
  H    -15.376200   -9.949590   83.757800
  C    -17.154000  -11.258400   83.563200
  H    -17.832000  -11.694100   84.294000
  H    -17.775400  -10.744700   82.868900
  C    -16.509100  -12.391800   82.773800
  H    -17.274300  -13.007900   82.205900
  H    -15.683100  -12.149400   82.146900
  H    -16.078100  -13.064700   83.455100
  S    -19.709000  -10.143500   88.628700
  C    -19.719900  -10.091100   90.374000
  C    -19.064100   -8.934620   90.762400
  C    -18.504800   -8.190940   89.713700
  C    -18.580500   -8.845090   88.476700
  H    -18.955000   -8.681870   91.830600
  C    -17.697400   -6.919130   90.039900
  H    -18.456700   -6.230570   90.420200
  H    -17.388600   -6.278250   89.153600
  C    -16.573800   -7.094430   91.022200
  H    -15.854500   -7.934680   90.689300
  H    -16.970300   -7.353210   92.000800
  C    -15.966800   -5.625290   91.157700
  H    -15.144900   -5.546380   91.827800
  H    -16.781500   -4.887590   91.304400
  H    -15.458900   -5.437060   90.216700
  H    -16.394900   -7.423030   84.194500
  H    -20.210800  -10.733300   91.055400

 Total Charge           Charge          ....    0
 Multiplicity           Mult            ....    1
 Number of Electrons    NEL             ....  134
 Basis Dimension        Dim             ....  322

ORBITAL ENERGIES
----------------

  NO   OCC          E(Eh)            E(eV)
   0   2.0000     -88.969329     -2420.9785
   1   2.0000     -88.964572     -2420.8491
   2   2.0000     -10.330967      -281.1199
   3   2.0000     -10.326985      -281.0115
   4   2.0000     -10.319539      -280.8089
   5   2.0000     -10.314145      -280.6622
   6   2.0000     -10.306444      -280.4526
   7   2.0000     -10.301650      -280.3221
   8   2.0000     -10.294438      -280.1259
   9   2.0000     -10.292793      -280.0811
  10   2.0000     -10.292514      -280.0735
  11   2.0000     -10.291955      -280.0583
  12   2.0000     -10.288687      -279.9694
  13   2.0000     -10.282734      -279.8074
  14   2.0000     -10.279760      -279.7265
  15   2.0000     -10.273233      -279.5489
  16   2.0000      -8.082530      -219.9368
  17   2.0000      -8.079480      -219.8538
  18   2.0000      -6.041207      -164.3896
  19   2.0000      -6.037939      -164.3007
  20   2.0000      -6.037349      -164.2846
  21   2.0000      -6.033834      -164.1890
  22   2.0000      -6.033115      -164.1694
  23   2.0000      -6.030404      -164.0956
  24   2.0000      -1.008026       -27.4298
  25   2.0000      -0.982777       -26.7427
  26   2.0000      -0.909501       -24.7488
  27   2.0000      -0.908709       -24.7272
  28   2.0000      -0.870697       -23.6929
  29   2.0000      -0.850764       -23.1505
  30   2.0000      -0.842262       -22.9191
  31   2.0000      -0.814492       -22.1635
  32   2.0000      -0.779760       -21.2184
  33   2.0000      -0.768526       -20.9127
  34   2.0000      -0.707839       -19.2613
  35   2.0000      -0.704431       -19.1685
  36   2.0000      -0.696602       -18.9555
  37   2.0000      -0.665719       -18.1151
  38   2.0000      -0.636587       -17.3224
  39   2.0000      -0.619868       -16.8675
  40   2.0000      -0.600244       -16.3335
  41   2.0000      -0.567688       -15.4476
  42   2.0000      -0.560514       -15.2524
  43   2.0000      -0.559837       -15.2339
  44   2.0000      -0.529430       -14.4065
  45   2.0000      -0.524982       -14.2855
  46   2.0000      -0.518239       -14.1020
  47   2.0000      -0.513577       -13.9751
  48   2.0000      -0.502050       -13.6615
  49   2.0000      -0.499833       -13.6012
  50   2.0000      -0.484572       -13.1859
  51   2.0000      -0.479953       -13.0602
  52   2.0000      -0.466995       -12.7076
  53   2.0000      -0.461527       -12.5588
  54   2.0000      -0.460004       -12.5174
  55   2.0000      -0.448309       -12.1991
  56   2.0000      -0.443560       -12.0699
  57   2.0000      -0.442767       -12.0483
  58   2.0000      -0.437763       -11.9121
  59   2.0000      -0.424581       -11.5534
  60   2.0000      -0.417702       -11.3663
  61   2.0000      -0.414440       -11.2775
  62   2.0000      -0.407999       -11.1022
  63   2.0000      -0.351554        -9.5663
  64   2.0000      -0.335166        -9.1203
  65   2.0000      -0.327748        -8.9185
  66   2.0000      -0.288104        -7.8397
  67   0.0000       0.023338         0.6351
  68   0.0000       0.080022         2.1775
  69   0.0000       0.105564         2.8725
  70   0.0000       0.115909         3.1540
  71   0.0000       0.133337         3.6283

MULLIKEN ATOMIC CHARGES
-----------------------
   0 S :    0.103427
   1 C :   -0.114109
   2 C :   -0.083987
   3 C :   -0.012332
   4 C :   -0.100998
   5 H :    0.025124
   6 C :    0.088776
   7 H :    0.013144
   8 H :    0.003139
   9 C :   -0.046210
  10 H :    0.026735
  11 H :    0.025143
  12 C :   -0.037762
  13 H :    0.042804
  14 H :    0.024062
  15 H :    0.006409
  16 S :    0.108302
  17 C :   -0.079574
  18 C :   -0.063143
  19 C :    0.006471
  20 C :   -0.162112
  21 H :    0.029024
  22 C :    0.002638
  23 H :    0.028208
  24 H :    0.023301
  25 C :   -0.087623
  26 H :    0.059855
  27 H :    0.029849
  28 C :   -0.040357
  29 H :    0.024837
  30 H :    0.042784
  31 H :    0.028830
  32 H :    0.041790
  33 H :    0.043557
Sum of atomic charges:    0.0000000

LOEWDIN ATOMIC CHARGES
----------------------
   0 S :    0.382975
   1 C :   -0.189276
   2 C :   -0.052505
   3 C :   -0.070859
   4 C :   -0.173282
   5 H :    0.033400
   6 C :   -0.025540
   7 H :    0.029184
   8 H :    0.022194
   9 C :   -0.035496
  10 H :    0.027371
  11 H :    0.020928
  12 C :   -0.066267
  13 H :    0.035999
  14 H :    0.020010
  15 H :    0.015715
  16 S :    0.426641
  17 C :   -0.188070
  18 C :   -0.073230
  19 C :   -0.064104
  20 C :   -0.201392
  21 H :    0.034961
  22 C :   -0.049220
  23 H :    0.033761
  24 H :    0.026426
  25 C :   -0.040941
  26 H :    0.038667
  27 H :    0.018218
  28 C :   -0.063399
  29 H :    0.018276
  30 H :    0.031625
  31 H :    0.026461
  32 H :    0.026139
  33 H :    0.024628

  Mayer bond orders larger than 0.100000
B(  0-S ,  1-C ) :   1.1234 B(  0-S ,  4-C ) :   1.1192 B(  1-C ,  2-C ) :   1.6338
B(  1-C , 32-H ) :   0.9707 B(  2-C ,  3-C ) :   1.2159 B(  2-C ,  6-C ) :   1.0190
B(  3-C ,  4-C ) :   1.6060 B(  3-C ,  5-H ) :   0.9877 B(  4-C , 20-C ) :   1.0513
B(  6-C ,  7-H ) :   0.9417 B(  6-C ,  8-H ) :   0.9412 B(  6-C ,  9-C ) :   1.0540
B(  9-C , 10-H ) :   0.9546 B(  9-C , 11-H ) :   0.9595 B(  9-C , 12-C ) :   1.0840
B( 12-C , 13-H ) :   0.9738 B( 12-C , 14-H ) :   0.9749 B( 12-C , 15-H ) :   0.9716
B( 16-S , 17-C ) :   1.1568 B( 16-S , 20-C ) :   1.1623 B( 17-C , 18-C ) :   1.5722
B( 17-C , 20-C ) :   0.1031 B( 17-C , 33-H ) :   0.9767 B( 18-C , 19-C ) :   1.2839
B( 18-C , 21-H ) :   0.9866 B( 19-C , 20-C ) :   1.5300 B( 19-C , 22-C ) :   1.0201
B( 22-C , 23-H ) :   0.9260 B( 22-C , 24-H ) :   0.9460 B( 22-C , 25-C ) :   1.0593
B( 25-C , 26-H ) :   0.9591 B( 25-C , 27-H ) :   0.9497 B( 25-C , 28-C ) :   1.0640
B( 28-C , 29-H ) :   0.9741 B( 28-C , 30-H ) :   0.9729 B( 28-C , 31-H ) :   0.9761

Dispersion correction           -0.013522006
FINAL SINGLE POINT ENERGY     -1339.868420791308

DIPOLE MOMENT
-------------
                                X             Y             Z
Electronic contribution:    -13.73157       2.74736       2.65775
Nuclear contribution   :     14.16455      -2.89929      -2.48296
                        -----------------------------------------
Total Dipole Moment    :      0.43298      -0.15193       0.17478
                        -----------------------------------------
Magnitude (a.u.)       :      0.49103
Magnitude (Debye)      :      1.24809

Rotational constants in cm-1:     0.020976     0.007515     0.006117
Rotational constants in MHz :   628.831058   225.289297   183.381386

                             ****ORCA TERMINATED NORMALLY****
TOTAL RUN TIME: 0 days 0 hours 0 minutes 30 seconds 649 msec
