                         Program Version 4.2.1 -  RELEASE  -
|  1> ! wB97X-D3 SP def2-SVP
|  2> %pal
|  3> nprocs 16
|  4> end
|  5>
|  6> * xyz 0 1
|  7> S 	 -13.7757 	 39.4993 	 37.5863
|  8> C 	 -12.7618 	 40.3025 	 36.4021
|  9> C 	 -12.1483 	 39.4074 	 35.5576
| 10> C 	 -12.1754 	 38.1181 	 36.1182
| 11> C 	 -12.8644 	 38.0007 	 37.2797
| 12> H 	 -11.5354 	 37.3487 	 35.8676
| 13> C 	 -11.4417 	 39.7299 	 34.2401
| 14> H 	 -10.5115 	 39.1793 	 34.1982
| 15> H 	 -11.0085 	 40.7211 	 34.3786
| 16> C 	 -12.3004 	 39.7844 	 32.9483
| 17> H 	 -12.9209 	 40.6776 	 33.0928
| 18> H 	 -11.5758 	 39.9105 	 32.1077
| 19> C 	 -13.1292 	 38.4751 	 32.8014
| 20> H 	 -12.5527 	 37.8299 	 32.2334
| 21> H 	 -13.5678 	 38.0312 	 33.7731
| 22> H 	 -14.0189 	 38.778 	 32.2227
| 23> S 	 -12.972 	 37.3266 	 39.8711
| 24> C 	 -12.8718 	 35.6429 	 40.2864
| 25> C 	 -12.7209 	 34.8148 	 39.2301
| 26> C 	 -12.7209 	 35.5344 	 37.9769
| 27> C 	 -12.8604 	 36.8922 	 38.203
| 28> H 	 -12.6582 	 33.745 	 39.3268
| 29> C 	 -12.6196 	 34.7852 	 36.6722
| 30> H 	 -12.8784 	 35.3335 	 35.7751
| 31> H 	 -13.4595 	 34.1077 	 36.5577
| 32> C 	 -11.4024 	 34.0187 	 36.5148
| 33> H 	 -11.2662 	 33.3103 	 37.3778
| 34> H 	 -10.6815 	 34.7779 	 36.6611
| 35> C 	 -11.4021 	 33.3379 	 35.0689
| 36> H 	 -10.4754 	 32.7817 	 34.9959
| 37> H 	 -11.4226 	 33.9999 	 34.1957
| 38> H 	 -12.2294 	 32.58 	 34.9628
| 39> H 	 -12.7707 	 41.3813 	 36.2278
| 40> H 	 -12.7149 	 35.2222 	 41.291
| 41> *
| 42>
| 43>                          ****END OF INPUT****

CARTESIAN COORDINATES (ANGSTROEM)
---------------------------------
  S    -13.775700   39.499300   37.586300
  C    -12.761800   40.302500   36.402100
  C    -12.148300   39.407400   35.557600
  C    -12.175400   38.118100   36.118200
  C    -12.864400   38.000700   37.279700
  H    -11.535400   37.348700   35.867600
  C    -11.441700   39.729900   34.240100
  H    -10.511500   39.179300   34.198200
  H    -11.008500   40.721100   34.378600
  C    -12.300400   39.784400   32.948300
  H    -12.920900   40.677600   33.092800
  H    -11.575800   39.910500   32.107700
  C    -13.129200   38.475100   32.801400
  H    -12.552700   37.829900   32.233400
  H    -13.567800   38.031200   33.773100
  H    -14.018900   38.778000   32.222700
  S    -12.972000   37.326600   39.871100
  C    -12.871800   35.642900   40.286400
  C    -12.720900   34.814800   39.230100
  C    -12.720900   35.534400   37.976900
  C    -12.860400   36.892200   38.203000
  H    -12.658200   33.745000   39.326800
  C    -12.619600   34.785200   36.672200
  H    -12.878400   35.333500   35.775100
  H    -13.459500   34.107700   36.557700
  C    -11.402400   34.018700   36.514800
  H    -11.266200   33.310300   37.377800
  H    -10.681500   34.777900   36.661100
  C    -11.402100   33.337900   35.068900
  H    -10.475400   32.781700   34.995900
  H    -11.422600   33.999900   34.195700
  H    -12.229400   32.580000   34.962800
  H    -12.770700   41.381300   36.227800
  H    -12.714900   35.222200   41.291000

 Total Charge           Charge          ....    0
 Multiplicity           Mult            ....    1
 Number of Electrons    NEL             ....  134
 Basis Dimension        Dim             ....  322

ORBITAL ENERGIES
----------------

  NO   OCC          E(Eh)            E(eV)
   0   2.0000     -88.966931     -2420.9133
   1   2.0000     -88.963231     -2420.8126
   2   2.0000     -10.323606      -280.9196
   3   2.0000     -10.323088      -280.9055
   4   2.0000     -10.312638      -280.6211
   5   2.0000     -10.311961      -280.6027
   6   2.0000     -10.302196      -280.3370
   7   2.0000     -10.297531      -280.2101
   8   2.0000     -10.294856      -280.1373
   9   2.0000     -10.290953      -280.0311
  10   2.0000     -10.290132      -280.0087
  11   2.0000     -10.288935      -279.9762
  12   2.0000     -10.287763      -279.9443
  13   2.0000     -10.281141      -279.7641
  14   2.0000     -10.279798      -279.7275
  15   2.0000     -10.278082      -279.6808
  16   2.0000      -8.082307      -219.9308
  17   2.0000      -8.077709      -219.8056
  18   2.0000      -6.040811      -164.3788
  19   2.0000      -6.036846      -164.2709
  20   2.0000      -6.036240      -164.2544
  21   2.0000      -6.032884      -164.1631
  22   2.0000      -6.032582      -164.1549
  23   2.0000      -6.028137      -164.0340
  24   2.0000      -1.012173       -27.5426
  25   2.0000      -0.987480       -26.8707
  26   2.0000      -0.923356       -25.1258
  27   2.0000      -0.906578       -24.6692
  28   2.0000      -0.870792       -23.6955
  29   2.0000      -0.851788       -23.1783
  30   2.0000      -0.842135       -22.9156
  31   2.0000      -0.815135       -22.1809
  32   2.0000      -0.784893       -21.3580
  33   2.0000      -0.773243       -21.0410
  34   2.0000      -0.709373       -19.3030
  35   2.0000      -0.699199       -19.0262
  36   2.0000      -0.696597       -18.9554
  37   2.0000      -0.664126       -18.0718
  38   2.0000      -0.639083       -17.3903
  39   2.0000      -0.621129       -16.9018
  40   2.0000      -0.604492       -16.4491
  41   2.0000      -0.575237       -15.6530
  42   2.0000      -0.565669       -15.3926
  43   2.0000      -0.545070       -14.8321
  44   2.0000      -0.538492       -14.6531
  45   2.0000      -0.525890       -14.3102
  46   2.0000      -0.516760       -14.0618
  47   2.0000      -0.507988       -13.8231
  48   2.0000      -0.497248       -13.5308
  49   2.0000      -0.493824       -13.4376
  50   2.0000      -0.489937       -13.3319
  51   2.0000      -0.479701       -13.0533
  52   2.0000      -0.472822       -12.8661
  53   2.0000      -0.467739       -12.7278
  54   2.0000      -0.462386       -12.5822
  55   2.0000      -0.456646       -12.4260
  56   2.0000      -0.448050       -12.1921
  57   2.0000      -0.438942       -11.9442
  58   2.0000      -0.427220       -11.6253
  59   2.0000      -0.424806       -11.5595
  60   2.0000      -0.422355       -11.4929
  61   2.0000      -0.412402       -11.2220
  62   2.0000      -0.408783       -11.1236
  63   2.0000      -0.356328        -9.6962
  64   2.0000      -0.332784        -9.0555
  65   2.0000      -0.329034        -8.9535
  66   2.0000      -0.283578        -7.7166
  67   0.0000       0.024024         0.6537
  68   0.0000       0.080971         2.2033
  69   0.0000       0.100318         2.7298
  70   0.0000       0.118188         3.2161
  71   0.0000       0.129008         3.5105

MULLIKEN ATOMIC CHARGES
-----------------------
   0 S :    0.097528
   1 C :   -0.129250
   2 C :   -0.088309
   3 C :    0.024591
   4 C :   -0.130312
   5 H :   -0.018999
   6 C :    0.058123
   7 H :    0.018160
   8 H :    0.009539
   9 C :   -0.058713
  10 H :    0.034171
  11 H :    0.043878
  12 C :   -0.066677
  13 H :    0.023710
  14 H :    0.072929
  15 H :    0.033893
  16 S :    0.121481
  17 C :   -0.078124
  18 C :   -0.040974
  19 C :   -0.024862
  20 C :   -0.143951
  21 H :    0.016839
  22 C :    0.070842
  23 H :    0.005694
  24 H :    0.007328
  25 C :   -0.080246
  26 H :    0.038428
  27 H :    0.017369
  28 C :   -0.056700
  29 H :    0.033372
  30 H :    0.042397
  31 H :    0.041753
  32 H :    0.047176
  33 H :    0.057918
Sum of atomic charges:   -0.0000000

LOEWDIN ATOMIC CHARGES
----------------------
   0 S :    0.372134
   1 C :   -0.189161
   2 C :   -0.062329
   3 C :   -0.062266
   4 C :   -0.173005
   5 H :    0.018675
   6 C :   -0.040275
   7 H :    0.025090
   8 H :    0.029445
   9 C :   -0.033662
  10 H :    0.024448
  11 H :    0.032545
  12 C :   -0.071357
  13 H :    0.014154
  14 H :    0.042537
  15 H :    0.029817
  16 S :    0.421246
  17 C :   -0.192666
  18 C :   -0.065359
  19 C :   -0.050046
  20 C :   -0.201141
  21 H :    0.030387
  22 C :   -0.048208
  23 H :    0.028259
  24 H :    0.028360
  25 C :   -0.038077
  26 H :    0.029747
  27 H :    0.018457
  28 C :   -0.065617
  29 H :    0.025330
  30 H :    0.028219
  31 H :    0.032370
  32 H :    0.027019
  33 H :    0.034930

  Mayer bond orders larger than 0.100000
B(  0-S ,  1-C ) :   1.1217 B(  0-S ,  4-C ) :   1.1214 B(  1-C ,  2-C ) :   1.6362
B(  1-C , 32-H ) :   0.9662 B(  2-C ,  3-C ) :   1.2098 B(  2-C ,  6-C ) :   1.0169
B(  3-C ,  4-C ) :   1.6099 B(  3-C ,  5-H ) :   1.0051 B(  4-C , 20-C ) :   1.0685
B(  6-C ,  7-H ) :   0.9431 B(  6-C ,  8-H ) :   0.9363 B(  6-C ,  9-C ) :   1.0559
B(  9-C , 10-H ) :   0.9610 B(  9-C , 11-H ) :   0.9568 B(  9-C , 12-C ) :   1.0663
B( 12-C , 13-H ) :   0.9785 B( 12-C , 14-H ) :   0.9707 B( 12-C , 15-H ) :   0.9756
B( 16-S , 17-C ) :   1.1370 B( 16-S , 20-C ) :   1.1369 B( 17-C , 18-C ) :   1.6476
B( 17-C , 33-H ) :   0.9587 B( 18-C , 19-C ) :   1.2175 B( 18-C , 21-H ) :   0.9889
B( 19-C , 20-C ) :   1.6057 B( 19-C , 22-C ) :   1.0377 B( 22-C , 23-H ) :   0.9322
B( 22-C , 24-H ) :   0.9190 B( 22-C , 25-C ) :   1.0521 B( 25-C , 26-H ) :   0.9525
B( 25-C , 27-H ) :   0.9553 B( 25-C , 28-C ) :   1.0672 B( 28-C , 29-H ) :   0.9761
B( 28-C , 30-H ) :   0.9759 B( 28-C , 31-H ) :   0.9749

Dispersion correction           -0.014571966
FINAL SINGLE POINT ENERGY     -1339.855550067703

DIPOLE MOMENT
-------------
                                X             Y             Z
Electronic contribution:     -8.04358      11.94765      26.76993
Nuclear contribution   :      8.41714     -12.32186     -27.29600
                        -----------------------------------------
Total Dipole Moment    :      0.37355      -0.37421      -0.52608
                        -----------------------------------------
Magnitude (a.u.)       :      0.74588
Magnitude (Debye)      :      1.89587

Rotational constants in cm-1:     0.017026     0.010224     0.006775
Rotational constants in MHz :   510.423621   306.506038   203.117748

                             ****ORCA TERMINATED NORMALLY****
TOTAL RUN TIME: 0 days 0 hours 0 minutes 35 seconds 876 msec
