                         Program Version 4.2.1 -  RELEASE  -
|  1> ! wB97X-D3 SP def2-SVP
|  2> %pal
|  3> nprocs 16
|  4> end
|  5>
|  6> * xyz 0 1
|  7> S 	 -35.6564 	 35.6069 	 44.3459
|  8> C 	 -35.1451 	 34.3 	 45.4248
|  9> C 	 -33.8077 	 33.9947 	 45.2901
| 10> C 	 -33.3204 	 34.5637 	 44.0683
| 11> C 	 -34.2036 	 35.3738 	 43.4566
| 12> H 	 -32.3411 	 34.2569 	 43.6176
| 13> C 	 -32.9887 	 32.9493 	 46.0939
| 14> H 	 -32.7657 	 33.2013 	 47.1107
| 15> H 	 -31.9854 	 33.013 	 45.6765
| 16> C 	 -33.4652 	 31.4602 	 45.9315
| 17> H 	 -34.121 	 31.4216 	 45.0646
| 18> H 	 -32.6622 	 30.7615 	 45.8361
| 19> C 	 -34.306 	 30.9299 	 47.1122
| 20> H 	 -34.9536 	 30.0902 	 46.8117
| 21> H 	 -33.6818 	 30.3859 	 47.8533
| 22> H 	 -34.9975 	 31.6507 	 47.5526
| 23> S 	 -34.1088 	 37.7199 	 42.0237
| 24> C 	 -33.8668 	 37.7025 	 40.29
| 25> C 	 -33.9991 	 36.4096 	 39.9065
| 26> C 	 -34.0539 	 35.4202 	 40.9097
| 27> C 	 -34.0263 	 36.0199 	 42.1432
| 28> H 	 -34.0635 	 36.2478 	 38.8765
| 29> C 	 -34.0829 	 33.9212 	 40.6555
| 30> H 	 -35.1233 	 33.5419 	 40.808
| 31> H 	 -33.4799 	 33.4922 	 41.4857
| 32> C 	 -33.3763 	 33.3483 	 39.4116
| 33> H 	 -33.9428 	 33.6708 	 38.5103
| 34> H 	 -33.4216 	 32.2542 	 39.4212
| 35> C 	 -31.9163 	 33.8029 	 39.259
| 36> H 	 -31.8906 	 34.8247 	 38.9433
| 37> H 	 -31.5126 	 33.1705 	 38.4143
| 38> H 	 -31.2239 	 33.843 	 40.0864
| 39> H 	 -35.6598 	 33.9526 	 46.275
| 40> H 	 -33.6068 	 38.4646 	 39.6035
| 41> *
| 42>
| 43>                          ****END OF INPUT****

CARTESIAN COORDINATES (ANGSTROEM)
---------------------------------
  S    -35.656400   35.606900   44.345900
  C    -35.145100   34.300000   45.424800
  C    -33.807700   33.994700   45.290100
  C    -33.320400   34.563700   44.068300
  C    -34.203600   35.373800   43.456600
  H    -32.341100   34.256900   43.617600
  C    -32.988700   32.949300   46.093900
  H    -32.765700   33.201300   47.110700
  H    -31.985400   33.013000   45.676500
  C    -33.465200   31.460200   45.931500
  H    -34.121000   31.421600   45.064600
  H    -32.662200   30.761500   45.836100
  C    -34.306000   30.929900   47.112200
  H    -34.953600   30.090200   46.811700
  H    -33.681800   30.385900   47.853300
  H    -34.997500   31.650700   47.552600
  S    -34.108800   37.719900   42.023700
  C    -33.866800   37.702500   40.290000
  C    -33.999100   36.409600   39.906500
  C    -34.053900   35.420200   40.909700
  C    -34.026300   36.019900   42.143200
  H    -34.063500   36.247800   38.876500
  C    -34.082900   33.921200   40.655500
  H    -35.123300   33.541900   40.808000
  H    -33.479900   33.492200   41.485700
  C    -33.376300   33.348300   39.411600
  H    -33.942800   33.670800   38.510300
  H    -33.421600   32.254200   39.421200
  C    -31.916300   33.802900   39.259000
  H    -31.890600   34.824700   38.943300
  H    -31.512600   33.170500   38.414300
  H    -31.223900   33.843000   40.086400
  H    -35.659800   33.952600   46.275000
  H    -33.606800   38.464600   39.603500

 Total Charge           Charge          ....    0
 Multiplicity           Mult            ....    1
 Number of Electrons    NEL             ....  134
 Basis Dimension        Dim             ....  322

ORBITAL ENERGIES
----------------

  NO   OCC          E(Eh)            E(eV)
   0   2.0000     -88.968118     -2420.9456
   1   2.0000     -88.962535     -2420.7936
   2   2.0000     -10.322813      -280.8980
   3   2.0000     -10.319726      -280.8140
   4   2.0000     -10.310001      -280.5494
   5   2.0000     -10.309947      -280.5479
   6   2.0000     -10.303059      -280.3605
   7   2.0000     -10.297430      -280.2073
   8   2.0000     -10.296130      -280.1719
   9   2.0000     -10.293821      -280.1091
  10   2.0000     -10.292960      -280.0857
  11   2.0000     -10.292438      -280.0715
  12   2.0000     -10.288802      -279.9725
  13   2.0000     -10.282376      -279.7977
  14   2.0000     -10.280940      -279.7586
  15   2.0000     -10.276837      -279.6470
  16   2.0000      -8.083117      -219.9528
  17   2.0000      -8.078094      -219.8161
  18   2.0000      -6.041595      -164.4002
  19   2.0000      -6.037850      -164.2982
  20   2.0000      -6.036603      -164.2643
  21   2.0000      -6.033626      -164.1833
  22   2.0000      -6.032474      -164.1520
  23   2.0000      -6.028816      -164.0524
  24   2.0000      -1.015365       -27.6295
  25   2.0000      -0.991346       -26.9759
  26   2.0000      -0.906425       -24.6651
  27   2.0000      -0.906099       -24.6562
  28   2.0000      -0.870223       -23.6800
  29   2.0000      -0.850561       -23.1449
  30   2.0000      -0.844524       -22.9807
  31   2.0000      -0.817615       -22.2484
  32   2.0000      -0.785711       -21.3803
  33   2.0000      -0.776402       -21.1270
  34   2.0000      -0.704462       -19.1694
  35   2.0000      -0.702234       -19.1088
  36   2.0000      -0.697771       -18.9873
  37   2.0000      -0.657057       -17.8794
  38   2.0000      -0.641811       -17.4646
  39   2.0000      -0.619891       -16.8681
  40   2.0000      -0.594715       -16.1830
  41   2.0000      -0.577612       -15.7176
  42   2.0000      -0.552870       -15.0444
  43   2.0000      -0.549700       -14.9581
  44   2.0000      -0.540000       -14.6942
  45   2.0000      -0.527735       -14.3604
  46   2.0000      -0.523575       -14.2472
  47   2.0000      -0.511931       -13.9303
  48   2.0000      -0.502255       -13.6671
  49   2.0000      -0.497741       -13.5442
  50   2.0000      -0.492048       -13.3893
  51   2.0000      -0.479579       -13.0500
  52   2.0000      -0.473083       -12.8732
  53   2.0000      -0.470425       -12.8009
  54   2.0000      -0.459984       -12.5168
  55   2.0000      -0.446704       -12.1554
  56   2.0000      -0.438513       -11.9325
  57   2.0000      -0.433828       -11.8050
  58   2.0000      -0.433140       -11.7863
  59   2.0000      -0.425000       -11.5648
  60   2.0000      -0.420397       -11.4396
  61   2.0000      -0.415111       -11.2957
  62   2.0000      -0.409110       -11.1324
  63   2.0000      -0.342025        -9.3070
  64   2.0000      -0.334451        -9.1009
  65   2.0000      -0.328083        -8.9276
  66   2.0000      -0.298658        -8.1269
  67   0.0000       0.043948         1.1959
  68   0.0000       0.058431         1.5900
  69   0.0000       0.106481         2.8975
  70   0.0000       0.128875         3.5069
  71   0.0000       0.130604         3.5539

MULLIKEN ATOMIC CHARGES
-----------------------
   0 S :    0.126738
   1 C :   -0.106939
   2 C :   -0.095352
   3 C :    0.009005
   4 C :   -0.143700
   5 H :    0.031317
   6 C :    0.076409
   7 H :    0.031128
   8 H :    0.009085
   9 C :   -0.046498
  10 H :    0.040322
  11 H :    0.029064
  12 C :   -0.087712
  13 H :    0.025899
  14 H :    0.033981
  15 H :    0.035616
  16 S :    0.104569
  17 C :   -0.075863
  18 C :   -0.035738
  19 C :   -0.026967
  20 C :   -0.177641
  21 H :   -0.005917
  22 C :    0.073102
  23 H :    0.050954
  24 H :    0.022346
  25 C :   -0.073689
  26 H :    0.032160
  27 H :    0.036143
  28 C :   -0.052753
  29 H :    0.019374
  30 H :    0.040707
  31 H :    0.030610
  32 H :    0.026827
  33 H :    0.043414
Sum of atomic charges:   -0.0000000

LOEWDIN ATOMIC CHARGES
----------------------
   0 S :    0.410611
   1 C :   -0.184368
   2 C :   -0.056789
   3 C :   -0.067985
   4 C :   -0.199964
   5 H :    0.038623
   6 C :   -0.030415
   7 H :    0.028601
   8 H :    0.031255
   9 C :   -0.034059
  10 H :    0.027536
  11 H :    0.023275
  12 C :   -0.076917
  13 H :    0.027770
  14 H :    0.027547
  15 H :    0.021602
  16 S :    0.419533
  17 C :   -0.184937
  18 C :   -0.067173
  19 C :   -0.063069
  20 C :   -0.209566
  21 H :    0.019347
  22 C :   -0.039302
  23 H :    0.040012
  24 H :    0.034827
  25 C :   -0.042728
  26 H :    0.025121
  27 H :    0.027223
  28 C :   -0.070896
  29 H :    0.021452
  30 H :    0.035479
  31 H :    0.023462
  32 H :    0.015600
  33 H :    0.029291

  Mayer bond orders larger than 0.100000
B(  0-S ,  1-C ) :   1.1284 B(  0-S ,  4-C ) :   1.1452 B(  1-C ,  2-C ) :   1.6445
B(  1-C , 32-H ) :   0.9705 B(  2-C ,  3-C ) :   1.2216 B(  2-C ,  6-C ) :   1.0289
B(  3-C ,  4-C ) :   1.6316 B(  3-C ,  5-H ) :   0.9799 B(  4-C , 20-C ) :   0.9941
B(  6-C ,  7-H ) :   0.9452 B(  6-C ,  8-H ) :   0.9396 B(  6-C ,  9-C ) :   1.0442
B(  9-C , 10-H ) :   0.9665 B(  9-C , 11-H ) :   0.9610 B(  9-C , 12-C ) :   1.0740
B( 12-C , 13-H ) :   0.9737 B( 12-C , 14-H ) :   0.9768 B( 12-C , 15-H ) :   0.9786
B( 16-S , 17-C ) :   1.1400 B( 16-S , 20-C ) :   1.1677 B( 17-C , 18-C ) :   1.6109
B( 17-C , 20-C ) :   0.1007 B( 17-C , 33-H ) :   0.9733 B( 18-C , 19-C ) :   1.2548
B( 18-C , 21-H ) :   0.9918 B( 19-C , 20-C ) :   1.5850 B( 19-C , 22-C ) :   1.0253
B( 22-C , 23-H ) :   0.9264 B( 22-C , 24-H ) :   0.9350 B( 22-C , 25-C ) :   1.0757
B( 25-C , 26-H ) :   0.9479 B( 25-C , 27-H ) :   0.9590 B( 25-C , 28-C ) :   1.0727
B( 28-C , 29-H ) :   0.9693 B( 28-C , 30-H ) :   0.9735 B( 28-C , 31-H ) :   0.9773

Dispersion correction           -0.014537446
FINAL SINGLE POINT ENERGY     -1339.862663401827

DIPOLE MOMENT
-------------
                                X             Y             Z
Electronic contribution:     -9.96888      26.34659       0.76523
Nuclear contribution   :     10.27404     -26.99261      -0.94136
                        -----------------------------------------
Total Dipole Moment    :      0.30516      -0.64603      -0.17613
                        -----------------------------------------
Magnitude (a.u.)       :      0.73586
Magnitude (Debye)      :      1.87042

Rotational constants in cm-1:     0.020678     0.008238     0.006449
Rotational constants in MHz :   619.916179   246.971131   193.345363

                             ****ORCA TERMINATED NORMALLY****
TOTAL RUN TIME: 0 days 0 hours 0 minutes 33 seconds 744 msec
