                         Program Version 4.2.1 -  RELEASE  -
|  1> ! wB97X-D3 SP def2-SVP
|  2> %pal
|  3> nprocs 16
|  4> end
|  5>
|  6> * xyz 0 1
|  7> S 	 -35.6376 	 53.5614 	 110.592
|  8> C 	 -37.3147 	 53.2984 	 111.05
|  9> C 	 -37.8558 	 52.1725 	 110.516
| 10> C 	 -36.8739 	 51.4495 	 109.656
| 11> C 	 -35.6376 	 52.0894 	 109.593
| 12> H 	 -36.9804 	 50.5069 	 109.168
| 13> C 	 -39.2443 	 51.6372 	 110.663
| 14> H 	 -39.8278 	 51.5277 	 109.726
| 15> H 	 -39.7177 	 52.4146 	 111.179
| 16> C 	 -39.3174 	 50.4427 	 111.59
| 17> H 	 -39.0146 	 49.5876 	 111.069
| 18> H 	 -38.7117 	 50.5426 	 112.499
| 19> C 	 -40.7205 	 50.0847 	 112.054
| 20> H 	 -40.6655 	 49.3862 	 112.87
| 21> H 	 -41.2741 	 50.9003 	 112.486
| 22> H 	 -41.2815 	 49.665 	 111.219
| 23> S 	 -33.3971 	 50.5181 	 109.538
| 24> C 	 -32.381 	 50.5247 	 108.178
| 25> C 	 -32.6538 	 51.5888 	 107.31
| 26> C 	 -33.933 	 52.191 	 107.634
| 27> C 	 -34.4778 	 51.6606 	 108.81
| 28> H 	 -31.9978 	 51.7212 	 106.471
| 29> C 	 -34.6077 	 53.2948 	 106.809
| 30> H 	 -33.9213 	 53.7552 	 106.052
| 31> H 	 -34.8237 	 53.9925 	 107.546
| 32> C 	 -35.8279 	 52.8065 	 106.061
| 33> H 	 -36.542 	 53.5561 	 105.855
| 34> H 	 -36.2741 	 52.0762 	 106.721
| 35> C 	 -35.6018 	 51.9276 	 104.839
| 36> H 	 -36.3917 	 51.1632 	 104.629
| 37> H 	 -34.7496 	 51.3105 	 105.025
| 38> H 	 -35.4331 	 52.5548 	 103.902
| 39> H 	 -38.0401 	 53.9737 	 111.516
| 40> H 	 -31.4978 	 49.869 	 108.149
| 41> *
| 42>
| 43>                          ****END OF INPUT****

CARTESIAN COORDINATES (ANGSTROEM)
---------------------------------
  S    -35.637600   53.561400  110.592000
  C    -37.314700   53.298400  111.050000
  C    -37.855800   52.172500  110.516000
  C    -36.873900   51.449500  109.656000
  C    -35.637600   52.089400  109.593000
  H    -36.980400   50.506900  109.168000
  C    -39.244300   51.637200  110.663000
  H    -39.827800   51.527700  109.726000
  H    -39.717700   52.414600  111.179000
  C    -39.317400   50.442700  111.590000
  H    -39.014600   49.587600  111.069000
  H    -38.711700   50.542600  112.499000
  C    -40.720500   50.084700  112.054000
  H    -40.665500   49.386200  112.870000
  H    -41.274100   50.900300  112.486000
  H    -41.281500   49.665000  111.219000
  S    -33.397100   50.518100  109.538000
  C    -32.381000   50.524700  108.178000
  C    -32.653800   51.588800  107.310000
  C    -33.933000   52.191000  107.634000
  C    -34.477800   51.660600  108.810000
  H    -31.997800   51.721200  106.471000
  C    -34.607700   53.294800  106.809000
  H    -33.921300   53.755200  106.052000
  H    -34.823700   53.992500  107.546000
  C    -35.827900   52.806500  106.061000
  H    -36.542000   53.556100  105.855000
  H    -36.274100   52.076200  106.721000
  C    -35.601800   51.927600  104.839000
  H    -36.391700   51.163200  104.629000
  H    -34.749600   51.310500  105.025000
  H    -35.433100   52.554800  103.902000
  H    -38.040100   53.973700  111.516000
  H    -31.497800   49.869000  108.149000

 Total Charge           Charge          ....    0
 Multiplicity           Mult            ....    1
 Number of Electrons    NEL             ....  134
 Basis Dimension        Dim             ....  322

ORBITAL ENERGIES
----------------

  NO   OCC          E(Eh)            E(eV)
   0   2.0000     -88.967725     -2420.9349
   1   2.0000     -88.965322     -2420.8695
   2   2.0000     -10.331896      -281.1452
   3   2.0000     -10.322907      -280.9006
   4   2.0000     -10.317465      -280.7525
   5   2.0000     -10.314939      -280.6838
   6   2.0000     -10.309610      -280.5388
   7   2.0000     -10.302921      -280.3567
   8   2.0000     -10.297302      -280.2038
   9   2.0000     -10.297200      -280.2011
  10   2.0000     -10.288223      -279.9568
  11   2.0000     -10.286755      -279.9168
  12   2.0000     -10.279852      -279.7290
  13   2.0000     -10.275870      -279.6206
  14   2.0000     -10.273065      -279.5443
  15   2.0000     -10.272114      -279.5184
  16   2.0000      -8.081505      -219.9089
  17   2.0000      -8.081397      -219.9060
  18   2.0000      -6.040280      -164.3644
  19   2.0000      -6.039621      -164.3464
  20   2.0000      -6.036147      -164.2519
  21   2.0000      -6.035647      -164.2383
  22   2.0000      -6.032452      -164.1514
  23   2.0000      -6.032021      -164.1396
  24   2.0000      -1.006055       -27.3761
  25   2.0000      -0.981899       -26.7188
  26   2.0000      -0.918793       -25.0016
  27   2.0000      -0.911634       -24.8068
  28   2.0000      -0.870710       -23.6932
  29   2.0000      -0.847831       -23.0706
  30   2.0000      -0.845638       -23.0110
  31   2.0000      -0.814286       -22.1578
  32   2.0000      -0.784473       -21.3466
  33   2.0000      -0.773713       -21.0538
  34   2.0000      -0.707508       -19.2523
  35   2.0000      -0.698161       -18.9979
  36   2.0000      -0.685505       -18.6535
  37   2.0000      -0.661516       -18.0008
  38   2.0000      -0.640679       -17.4338
  39   2.0000      -0.615020       -16.7355
  40   2.0000      -0.592149       -16.1132
  41   2.0000      -0.581927       -15.8350
  42   2.0000      -0.563628       -15.3371
  43   2.0000      -0.556971       -15.1559
  44   2.0000      -0.548413       -14.9231
  45   2.0000      -0.527242       -14.3470
  46   2.0000      -0.511431       -13.9167
  47   2.0000      -0.509556       -13.8657
  48   2.0000      -0.506779       -13.7902
  49   2.0000      -0.496705       -13.5160
  50   2.0000      -0.482750       -13.1363
  51   2.0000      -0.479528       -13.0486
  52   2.0000      -0.474200       -12.9036
  53   2.0000      -0.467482       -12.7208
  54   2.0000      -0.456532       -12.4229
  55   2.0000      -0.448337       -12.1999
  56   2.0000      -0.443020       -12.0552
  57   2.0000      -0.438635       -11.9359
  58   2.0000      -0.436523       -11.8784
  59   2.0000      -0.424334       -11.5467
  60   2.0000      -0.421564       -11.4713
  61   2.0000      -0.416795       -11.3416
  62   2.0000      -0.400648       -10.9022
  63   2.0000      -0.332881        -9.0581
  64   2.0000      -0.327436        -8.9100
  65   2.0000      -0.322523        -8.7763
  66   2.0000      -0.313998        -8.5443
  67   0.0000       0.040167         1.0930
  68   0.0000       0.058442         1.5903
  69   0.0000       0.110010         2.9935
  70   0.0000       0.117110         3.1867
  71   0.0000       0.126350         3.4382

MULLIKEN ATOMIC CHARGES
-----------------------
   0 S :    0.115077
   1 C :   -0.103575
   2 C :   -0.127562
   3 C :    0.066834
   4 C :   -0.171531
   5 H :    0.009153
   6 C :    0.111634
   7 H :    0.044388
   8 H :   -0.020369
   9 C :   -0.064167
  10 H :    0.015939
  11 H :    0.035459
  12 C :   -0.039363
  13 H :    0.027097
  14 H :    0.020225
  15 H :    0.030463
  16 S :    0.133467
  17 C :   -0.117878
  18 C :   -0.026252
  19 C :   -0.073211
  20 C :   -0.194654
  21 H :    0.020211
  22 C :    0.142167
  23 H :    0.023638
  24 H :    0.010943
  25 C :   -0.043849
  26 H :    0.023458
  27 H :    0.017789
  28 C :   -0.075560
  29 H :    0.038392
  30 H :    0.018117
  31 H :    0.036644
  32 H :    0.049199
  33 H :    0.067678
Sum of atomic charges:   -0.0000000

LOEWDIN ATOMIC CHARGES
----------------------
   0 S :    0.385888
   1 C :   -0.202085
   2 C :   -0.056895
   3 C :   -0.047810
   4 C :   -0.190976
   5 H :    0.026906
   6 C :   -0.033545
   7 H :    0.038983
   8 H :    0.019475
   9 C :   -0.034462
  10 H :    0.016797
  11 H :    0.030527
  12 C :   -0.061116
  13 H :    0.025649
  14 H :    0.018909
  15 H :    0.024680
  16 S :    0.444158
  17 C :   -0.201626
  18 C :   -0.074688
  19 C :   -0.042882
  20 C :   -0.225624
  21 H :    0.030454
  22 C :   -0.023025
  23 H :    0.033132
  24 H :    0.021853
  25 C :   -0.042057
  26 H :    0.018587
  27 H :    0.027001
  28 C :   -0.070748
  29 H :    0.031166
  30 H :    0.019694
  31 H :    0.026273
  32 H :    0.036251
  33 H :    0.031157

  Mayer bond orders larger than 0.100000
B(  0-S ,  1-C ) :   1.1098 B(  0-S ,  4-C ) :   1.1188 B(  1-C ,  2-C ) :   1.6944
B(  1-C , 32-H ) :   0.9488 B(  2-C ,  3-C ) :   1.1694 B(  2-C ,  6-C ) :   1.0361
B(  3-C ,  4-C ) :   1.6355 B(  3-C ,  5-H ) :   0.9904 B(  4-C , 20-C ) :   1.0223
B(  6-C ,  7-H ) :   0.9370 B(  6-C ,  8-H ) :   0.9224 B(  6-C ,  9-C ) :   1.0634
B(  9-C , 10-H ) :   0.9536 B(  9-C , 11-H ) :   0.9560 B(  9-C , 12-C ) :   1.0946
B( 12-C , 13-H ) :   0.9744 B( 12-C , 14-H ) :   0.9745 B( 12-C , 15-H ) :   0.9742
B( 16-S , 17-C ) :   1.1967 B( 16-S , 20-C ) :   1.1661 B( 17-C , 18-C ) :   1.5701
B( 17-C , 20-C ) :   0.1022 B( 17-C , 33-H ) :   0.9644 B( 18-C , 19-C ) :   1.2500
B( 18-C , 21-H ) :   0.9975 B( 19-C , 20-C ) :   1.5745 B( 19-C , 22-C ) :   1.0317
B( 22-C , 23-H ) :   0.9405 B( 22-C , 24-H ) :   0.9144 B( 22-C , 25-C ) :   1.0750
B( 25-C , 26-H ) :   0.9573 B( 25-C , 27-H ) :   0.9555 B( 25-C , 28-C ) :   1.0692
B( 28-C , 29-H ) :   0.9764 B( 28-C , 30-H ) :   0.9733 B( 28-C , 31-H ) :   0.9745

Dispersion correction           -0.014670872
FINAL SINGLE POINT ENERGY     -1339.869881498193

DIPOLE MOMENT
-------------
                                X             Y             Z
Electronic contribution:     20.79603       4.25949       8.63685
Nuclear contribution   :    -21.16349      -4.41332      -8.80365
                        -----------------------------------------
Total Dipole Moment    :     -0.36745      -0.15382      -0.16680
                        -----------------------------------------
Magnitude (a.u.)       :      0.43187
Magnitude (Debye)      :      1.09771

Rotational constants in cm-1:     0.020441     0.007649     0.007049
Rotational constants in MHz :   612.792455   229.310364   211.329508

                             ****ORCA TERMINATED NORMALLY****
TOTAL RUN TIME: 0 days 0 hours 0 minutes 30 seconds 58 msec
