                         Program Version 4.2.1 -  RELEASE  -
|  1> ! wB97X-D3 SP def2-SVP
|  2> %pal
|  3> nprocs 16
|  4> end
|  5>
|  6> * xyz 0 1
|  7> S 	 11.2369 	 11.3028 	 83.2625
|  8> C 	 11.5994 	 10.4817 	 81.7263
|  9> C 	 10.6795 	 9.47389 	 81.3929
| 10> C 	 9.62517 	 9.35574 	 82.3465
| 11> C 	 9.81009 	 10.3065 	 83.3617
| 12> H 	 8.77883 	 8.7393 	 82.4385
| 13> C 	 10.7732 	 8.59226 	 80.1594
| 14> H 	 9.89669 	 7.96297 	 80.2365
| 15> H 	 11.7244 	 8.07325 	 80.1725
| 16> C 	 10.8884 	 9.48343 	 78.898
| 17> H 	 11.6354 	 10.214 	 79.0205
| 18> H 	 11.2881 	 8.9805 	 78.0778
| 19> C 	 9.61737 	 10.2945 	 78.638
| 20> H 	 9.83533 	 10.8996 	 77.8226
| 21> H 	 8.85401 	 9.54255 	 78.3624
| 22> H 	 9.24084 	 10.8696 	 79.5572
| 23> S 	 8.44844 	 12.1511 	 84.7811
| 24> C 	 7.57273 	 11.6081 	 86.2364
| 25> C 	 7.50375 	 10.2484 	 86.3165
| 26> C 	 8.30057 	 9.56363 	 85.2989
| 27> C 	 8.87068 	 10.4753 	 84.4397
| 28> H 	 6.88555 	 9.77285 	 87.0119
| 29> C 	 8.38509 	 8.05472 	 85.1768
| 30> H 	 8.01902 	 7.76672 	 84.2344
| 31> H 	 7.6172 	 7.60737 	 85.8479
| 32> C 	 9.72528 	 7.52478 	 85.6341
| 33> H 	 9.88435 	 7.91538 	 86.6236
| 34> H 	 10.5459 	 7.89338 	 85.0847
| 35> C 	 9.85642 	 6.02744 	 85.4701
| 36> H 	 9.54 	 5.77917 	 84.4287
| 37> H 	 9.15243 	 5.39868 	 86.0654
| 38> H 	 10.8568 	 5.57595 	 85.6238
| 39> H 	 12.3915 	 10.7828 	 81.0909
| 40> H 	 7.06672 	 12.3799 	 86.8162
| 41> *
| 42>
| 43>                          ****END OF INPUT****

CARTESIAN COORDINATES (ANGSTROEM)
---------------------------------
  S     11.236900   11.302800   83.262500
  C     11.599400   10.481700   81.726300
  C     10.679500    9.473890   81.392900
  C      9.625170    9.355740   82.346500
  C      9.810090   10.306500   83.361700
  H      8.778830    8.739300   82.438500
  C     10.773200    8.592260   80.159400
  H      9.896690    7.962970   80.236500
  H     11.724400    8.073250   80.172500
  C     10.888400    9.483430   78.898000
  H     11.635400   10.214000   79.020500
  H     11.288100    8.980500   78.077800
  C      9.617370   10.294500   78.638000
  H      9.835330   10.899600   77.822600
  H      8.854010    9.542550   78.362400
  H      9.240840   10.869600   79.557200
  S      8.448440   12.151100   84.781100
  C      7.572730   11.608100   86.236400
  C      7.503750   10.248400   86.316500
  C      8.300570    9.563630   85.298900
  C      8.870680   10.475300   84.439700
  H      6.885550    9.772850   87.011900
  C      8.385090    8.054720   85.176800
  H      8.019020    7.766720   84.234400
  H      7.617200    7.607370   85.847900
  C      9.725280    7.524780   85.634100
  H      9.884350    7.915380   86.623600
  H     10.545900    7.893380   85.084700
  C      9.856420    6.027440   85.470100
  H      9.540000    5.779170   84.428700
  H      9.152430    5.398680   86.065400
  H     10.856800    5.575950   85.623800
  H     12.391500   10.782800   81.090900
  H      7.066720   12.379900   86.816200

 Total Charge           Charge          ....    0
 Multiplicity           Mult            ....    1
 Number of Electrons    NEL             ....  134
 Basis Dimension        Dim             ....  322

ORBITAL ENERGIES
----------------

  NO   OCC          E(Eh)            E(eV)
   0   2.0000     -88.972326     -2421.0601
   1   2.0000     -88.960806     -2420.7466
   2   2.0000     -10.325389      -280.9681
   3   2.0000     -10.320927      -280.8467
   4   2.0000     -10.317874      -280.7636
   5   2.0000     -10.310354      -280.5590
   6   2.0000     -10.303247      -280.3656
   7   2.0000     -10.302979      -280.3583
   8   2.0000     -10.293849      -280.1099
   9   2.0000     -10.292195      -280.0649
  10   2.0000     -10.291482      -280.0455
  11   2.0000     -10.290863      -280.0286
  12   2.0000     -10.281083      -279.7625
  13   2.0000     -10.277325      -279.6602
  14   2.0000     -10.275809      -279.6190
  15   2.0000     -10.273660      -279.5605
  16   2.0000      -8.086236      -220.0377
  17   2.0000      -8.075474      -219.7448
  18   2.0000      -6.044576      -164.4813
  19   2.0000      -6.040982      -164.3835
  20   2.0000      -6.037114      -164.2782
  21   2.0000      -6.033964      -164.1925
  22   2.0000      -6.030138      -164.0884
  23   2.0000      -6.026116      -163.9789
  24   2.0000      -1.004447       -27.3324
  25   2.0000      -0.976980       -26.5850
  26   2.0000      -0.915305       -24.9067
  27   2.0000      -0.913543       -24.8588
  28   2.0000      -0.865762       -23.5586
  29   2.0000      -0.854594       -23.2547
  30   2.0000      -0.845531       -23.0081
  31   2.0000      -0.810998       -22.0684
  32   2.0000      -0.782329       -21.2883
  33   2.0000      -0.768819       -20.9206
  34   2.0000      -0.711689       -19.3660
  35   2.0000      -0.707106       -19.2413
  36   2.0000      -0.690539       -18.7905
  37   2.0000      -0.669163       -18.2089
  38   2.0000      -0.644144       -17.5281
  39   2.0000      -0.609410       -16.5829
  40   2.0000      -0.596342       -16.2273
  41   2.0000      -0.569873       -15.5070
  42   2.0000      -0.566062       -15.4033
  43   2.0000      -0.556525       -15.1438
  44   2.0000      -0.536957       -14.6113
  45   2.0000      -0.526667       -14.3313
  46   2.0000      -0.523447       -14.2437
  47   2.0000      -0.518678       -14.1139
  48   2.0000      -0.502400       -13.6710
  49   2.0000      -0.492860       -13.4114
  50   2.0000      -0.485281       -13.2052
  51   2.0000      -0.482252       -13.1227
  52   2.0000      -0.470650       -12.8070
  53   2.0000      -0.460927       -12.5425
  54   2.0000      -0.453987       -12.3536
  55   2.0000      -0.449781       -12.2392
  56   2.0000      -0.443709       -12.0739
  57   2.0000      -0.439043       -11.9470
  58   2.0000      -0.434673       -11.8280
  59   2.0000      -0.427745       -11.6395
  60   2.0000      -0.424133       -11.5412
  61   2.0000      -0.412809       -11.2331
  62   2.0000      -0.410684       -11.1753
  63   2.0000      -0.344365        -9.3706
  64   2.0000      -0.333074        -9.0634
  65   2.0000      -0.329600        -8.9689
  66   2.0000      -0.286074        -7.7845
  67   0.0000       0.026225         0.7136
  68   0.0000       0.071035         1.9330
  69   0.0000       0.100561         2.7364
  70   0.0000       0.112437         3.0596
  71   0.0000       0.139557         3.7976

MULLIKEN ATOMIC CHARGES
-----------------------
   0 S :    0.133187
   1 C :   -0.125135
   2 C :   -0.092484
   3 C :    0.028768
   4 C :   -0.148988
   5 H :   -0.011450
   6 C :    0.126679
   7 H :    0.020653
   8 H :    0.035598
   9 C :   -0.057951
  10 H :    0.000080
  11 H :    0.005552
  12 C :   -0.051752
  13 H :    0.024338
  14 H :    0.026921
  15 H :    0.066354
  16 S :    0.083304
  17 C :   -0.100923
  18 C :    0.011497
  19 C :   -0.053478
  20 C :   -0.173917
  21 H :   -0.001309
  22 C :    0.078843
  23 H :    0.009374
  24 H :    0.012504
  25 C :   -0.023411
  26 H :    0.022498
  27 H :    0.030575
  28 C :   -0.057317
  29 H :    0.020360
  30 H :    0.022290
  31 H :    0.042939
  32 H :    0.032349
  33 H :    0.063450
Sum of atomic charges:    0.0000000

LOEWDIN ATOMIC CHARGES
----------------------
   0 S :    0.408022
   1 C :   -0.196057
   2 C :   -0.051201
   3 C :   -0.060671
   4 C :   -0.190990
   5 H :    0.024513
   6 C :   -0.022265
   7 H :    0.027488
   8 H :    0.036749
   9 C :   -0.036007
  10 H :    0.015636
  11 H :    0.014414
  12 C :   -0.061622
  13 H :    0.015576
  14 H :    0.024327
  15 H :    0.041127
  16 S :    0.373934
  17 C :   -0.169717
  18 C :   -0.060079
  19 C :   -0.054083
  20 C :   -0.190417
  21 H :    0.022652
  22 C :   -0.025679
  23 H :    0.017629
  24 H :    0.035236
  25 C :   -0.037230
  26 H :    0.025836
  27 H :    0.024478
  28 C :   -0.072253
  29 H :    0.027304
  30 H :    0.021651
  31 H :    0.029355
  32 H :    0.014379
  33 H :    0.027964

  Mayer bond orders larger than 0.100000
B(  0-S ,  1-C ) :   1.1226 B(  0-S ,  4-C ) :   1.1673 B(  1-C ,  2-C ) :   1.5981
B(  1-C , 32-H ) :   0.9719 B(  2-C ,  3-C ) :   1.2179 B(  2-C ,  6-C ) :   1.0125
B(  3-C ,  4-C ) :   1.5503 B(  3-C ,  5-H ) :   1.0057 B(  4-C , 20-C ) :   1.0587
B(  6-C ,  7-H ) :   0.9498 B(  6-C ,  8-H ) :   0.9300 B(  6-C ,  9-C ) :   1.0742
B(  9-C , 10-H ) :   0.9526 B(  9-C , 11-H ) :   0.9524 B(  9-C , 12-C ) :   1.0684
B( 12-C , 13-H ) :   0.9739 B( 12-C , 14-H ) :   0.9782 B( 12-C , 15-H ) :   0.9719
B( 16-S , 17-C ) :   1.1304 B( 16-S , 20-C ) :   1.1325 B( 17-C , 18-C ) :   1.6273
B( 17-C , 33-H ) :   0.9691 B( 18-C , 19-C ) :   1.2100 B( 18-C , 21-H ) :   0.9983
B( 19-C , 20-C ) :   1.6279 B( 19-C , 22-C ) :   1.0381 B( 22-C , 23-H ) :   0.9367
B( 22-C , 24-H ) :   0.9264 B( 22-C , 25-C ) :   1.0568 B( 25-C , 26-H ) :   0.9498
B( 25-C , 27-H ) :   0.9552 B( 25-C , 28-C ) :   1.0777 B( 28-C , 29-H ) :   0.9699
B( 28-C , 30-H ) :   0.9736 B( 28-C , 31-H ) :   0.9755

Dispersion correction           -0.014953944
FINAL SINGLE POINT ENERGY     -1339.867839520209

DIPOLE MOMENT
-------------
                                X             Y             Z
Electronic contribution:     -0.34525      20.93398      11.54130
Nuclear contribution   :      0.26225     -21.42918     -11.73468
                        -----------------------------------------
Total Dipole Moment    :     -0.08300      -0.49519      -0.19338
                        -----------------------------------------
Magnitude (a.u.)       :      0.53805
Magnitude (Debye)      :      1.36763

Rotational constants in cm-1:     0.018647     0.009271     0.007322
Rotational constants in MHz :   559.012775   277.945590   219.515062

                             ****ORCA TERMINATED NORMALLY****
TOTAL RUN TIME: 0 days 0 hours 0 minutes 34 seconds 260 msec
