                         Program Version 4.2.1 -  RELEASE  -
|  1> ! wB97X-D3 SP def2-SVP
|  2> %pal
|  3> nprocs 16
|  4> end
|  5>
|  6> * xyz 0 1
|  7> S 	 -11.9246 	 -3.35668 	 80.6713
|  8> C 	 -11.4118 	 -2.79537 	 82.2404
|  9> C 	 -12.3994 	 -2.03246 	 82.8547
| 10> C 	 -13.539 	 -1.91649 	 82.0623
| 11> C 	 -13.5393 	 -2.64633 	 80.8757
| 12> H 	 -14.3901 	 -1.28446 	 82.2759
| 13> C 	 -12.1491 	 -1.20128 	 84.1434
| 14> H 	 -11.0602 	 -1.15342 	 84.2195
| 15> H 	 -12.4637 	 -1.96462 	 84.9228
| 16> C 	 -12.849 	 0.121616 	 84.3957
| 17> H 	 -12.6434 	 0.785691 	 83.5305
| 18> H 	 -13.907 	 -0.155533 	 84.3416
| 19> C 	 -12.4983 	 0.634551 	 85.8366
| 20> H 	 -12.794 	 -0.0999027 	 86.6575
| 21> H 	 -11.4218 	 0.758352 	 85.8663
| 22> H 	 -12.9489 	 1.58984 	 85.9607
| 23> S 	 -14.1118 	 -2.9761 	 78.2242
| 24> C 	 -15.6604 	 -2.84484 	 77.5484
| 25> C 	 -16.6127 	 -2.71851 	 78.5838
| 26> C 	 -16.0566 	 -2.73935 	 79.8893
| 27> C 	 -14.6416 	 -2.82786 	 79.8611
| 28> H 	 -17.6495 	 -2.69978 	 78.3271
| 29> C 	 -16.9166 	 -2.73229 	 81.0634
| 30> H 	 -16.3204 	 -2.45515 	 81.9253
| 31> H 	 -17.2209 	 -3.79295 	 81.0579
| 32> C 	 -18.1558 	 -1.86838 	 81.0404
| 33> H 	 -18.7154 	 -1.96762 	 82.0025
| 34> H 	 -18.8247 	 -2.18879 	 80.2124
| 35> C 	 -17.825 	 -0.403843 	 80.7015
| 36> H 	 -18.632 	 0.26235 	 80.9206
| 37> H 	 -17.7689 	 -0.23625 	 79.6355
| 38> H 	 -16.8389 	 -0.0656597 	 81.1821
| 39> H 	 -10.5139 	 -3.02929 	 82.7334
| 40> H 	 -15.8688 	 -2.72991 	 76.445
| 41> *
| 42>
| 43>                          ****END OF INPUT****

CARTESIAN COORDINATES (ANGSTROEM)
---------------------------------
  S    -11.924600   -3.356680   80.671300
  C    -11.411800   -2.795370   82.240400
  C    -12.399400   -2.032460   82.854700
  C    -13.539000   -1.916490   82.062300
  C    -13.539300   -2.646330   80.875700
  H    -14.390100   -1.284460   82.275900
  C    -12.149100   -1.201280   84.143400
  H    -11.060200   -1.153420   84.219500
  H    -12.463700   -1.964620   84.922800
  C    -12.849000    0.121616   84.395700
  H    -12.643400    0.785691   83.530500
  H    -13.907000   -0.155533   84.341600
  C    -12.498300    0.634551   85.836600
  H    -12.794000   -0.099903   86.657500
  H    -11.421800    0.758352   85.866300
  H    -12.948900    1.589840   85.960700
  S    -14.111800   -2.976100   78.224200
  C    -15.660400   -2.844840   77.548400
  C    -16.612700   -2.718510   78.583800
  C    -16.056600   -2.739350   79.889300
  C    -14.641600   -2.827860   79.861100
  H    -17.649500   -2.699780   78.327100
  C    -16.916600   -2.732290   81.063400
  H    -16.320400   -2.455150   81.925300
  H    -17.220900   -3.792950   81.057900
  C    -18.155800   -1.868380   81.040400
  H    -18.715400   -1.967620   82.002500
  H    -18.824700   -2.188790   80.212400
  C    -17.825000   -0.403843   80.701500
  H    -18.632000    0.262350   80.920600
  H    -17.768900   -0.236250   79.635500
  H    -16.838900   -0.065660   81.182100
  H    -10.513900   -3.029290   82.733400
  H    -15.868800   -2.729910   76.445000

 Total Charge           Charge          ....    0
 Multiplicity           Mult            ....    1
 Number of Electrons    NEL             ....  134
 Basis Dimension        Dim             ....  322

ORBITAL ENERGIES
----------------

  NO   OCC          E(Eh)            E(eV)
   0   2.0000     -88.967449     -2420.9274
   1   2.0000     -88.965083     -2420.8630
   2   2.0000     -10.337041      -281.2852
   3   2.0000     -10.331247      -281.1275
   4   2.0000     -10.321497      -280.8622
   5   2.0000     -10.308361      -280.5048
   6   2.0000     -10.304611      -280.4027
   7   2.0000     -10.298304      -280.2311
   8   2.0000     -10.295819      -280.1635
   9   2.0000     -10.295074      -280.1432
  10   2.0000     -10.293049      -280.0881
  11   2.0000     -10.292886      -280.0837
  12   2.0000     -10.289617      -279.9947
  13   2.0000     -10.288098      -279.9534
  14   2.0000     -10.287173      -279.9282
  15   2.0000     -10.278897      -279.7030
  16   2.0000      -8.081469      -219.9080
  17   2.0000      -8.081121      -219.8985
  18   2.0000      -6.040029      -164.3575
  19   2.0000      -6.039472      -164.3424
  20   2.0000      -6.036037      -164.2489
  21   2.0000      -6.035209      -164.2264
  22   2.0000      -6.032282      -164.1467
  23   2.0000      -6.032224      -164.1452
  24   2.0000      -1.007742       -27.4221
  25   2.0000      -0.986732       -26.8503
  26   2.0000      -0.921853       -25.0849
  27   2.0000      -0.908119       -24.7112
  28   2.0000      -0.864468       -23.5234
  29   2.0000      -0.851832       -23.1795
  30   2.0000      -0.843677       -22.9576
  31   2.0000      -0.814367       -22.1600
  32   2.0000      -0.784001       -21.3338
  33   2.0000      -0.771478       -20.9930
  34   2.0000      -0.712206       -19.3801
  35   2.0000      -0.698982       -19.0203
  36   2.0000      -0.689501       -18.7623
  37   2.0000      -0.656683       -17.8693
  38   2.0000      -0.637637       -17.3510
  39   2.0000      -0.622691       -16.9443
  40   2.0000      -0.596602       -16.2344
  41   2.0000      -0.568794       -15.4777
  42   2.0000      -0.565834       -15.3971
  43   2.0000      -0.564125       -15.3506
  44   2.0000      -0.538253       -14.6466
  45   2.0000      -0.526532       -14.3277
  46   2.0000      -0.513813       -13.9816
  47   2.0000      -0.507622       -13.8131
  48   2.0000      -0.501651       -13.6506
  49   2.0000      -0.496918       -13.5218
  50   2.0000      -0.492157       -13.3923
  51   2.0000      -0.487042       -13.2531
  52   2.0000      -0.473521       -12.8852
  53   2.0000      -0.470037       -12.7903
  54   2.0000      -0.460634       -12.5345
  55   2.0000      -0.446995       -12.1634
  56   2.0000      -0.442525       -12.0417
  57   2.0000      -0.436767       -11.8850
  58   2.0000      -0.434399       -11.8206
  59   2.0000      -0.424980       -11.5643
  60   2.0000      -0.420137       -11.4325
  61   2.0000      -0.416998       -11.3471
  62   2.0000      -0.413574       -11.2539
  63   2.0000      -0.353341        -9.6149
  64   2.0000      -0.333526        -9.0757
  65   2.0000      -0.325426        -8.8553
  66   2.0000      -0.278841        -7.5877
  67   0.0000       0.023889         0.6500
  68   0.0000       0.076927         2.0933
  69   0.0000       0.108037         2.9398
  70   0.0000       0.122623         3.3368
  71   0.0000       0.129976         3.5368

MULLIKEN ATOMIC CHARGES
-----------------------
   0 S :    0.106705
   1 C :   -0.108058
   2 C :   -0.067720
   3 C :   -0.016647
   4 C :   -0.118146
   5 H :    0.006389
   6 C :    0.011916
   7 H :    0.018433
   8 H :    0.042841
   9 C :   -0.082871
  10 H :    0.049662
  11 H :    0.035051
  12 C :   -0.035158
  13 H :    0.050049
  14 H :    0.031701
  15 H :    0.035642
  16 S :    0.106638
  17 C :   -0.111227
  18 C :   -0.052258
  19 C :   -0.067752
  20 C :   -0.134240
  21 H :    0.009683
  22 C :    0.083475
  23 H :    0.016547
  24 H :    0.053857
  25 C :   -0.093870
  26 H :    0.045780
  27 H :    0.029152
  28 C :   -0.054513
  29 H :    0.025419
  30 H :    0.026191
  31 H :    0.043816
  32 H :    0.028227
  33 H :    0.085289
Sum of atomic charges:    0.0000000

LOEWDIN ATOMIC CHARGES
----------------------
   0 S :    0.399929
   1 C :   -0.198656
   2 C :   -0.064790
   3 C :   -0.080129
   4 C :   -0.179197
   5 H :    0.025620
   6 C :   -0.039136
   7 H :    0.023978
   8 H :    0.039538
   9 C :   -0.045785
  10 H :    0.031830
  11 H :    0.024122
  12 C :   -0.058266
  13 H :    0.038303
  14 H :    0.024884
  15 H :    0.022918
  16 S :    0.444833
  17 C :   -0.213342
  18 C :   -0.076542
  19 C :   -0.057550
  20 C :   -0.211246
  21 H :    0.025611
  22 C :   -0.038313
  23 H :    0.028527
  24 H :    0.048938
  25 C :   -0.045227
  26 H :    0.031627
  27 H :    0.024751
  28 C :   -0.071976
  29 H :    0.022648
  30 H :    0.025479
  31 H :    0.031755
  32 H :    0.019276
  33 H :    0.045591

  Mayer bond orders larger than 0.100000
B(  0-S ,  1-C ) :   1.1433 B(  0-S ,  4-C ) :   1.1615 B(  1-C ,  2-C ) :   1.5947
B(  1-C ,  4-C ) :   0.1110 B(  1-C , 32-H ) :   0.9708 B(  2-C ,  3-C ) :   1.2862
B(  2-C ,  6-C ) :   0.9894 B(  3-C ,  4-C ) :   1.5554 B(  3-C ,  5-H ) :   0.9847
B(  4-C , 20-C ) :   1.0260 B(  6-C ,  7-H ) :   0.9500 B(  6-C ,  8-H ) :   0.9327
B(  6-C ,  9-C ) :   1.0681 B(  9-C , 10-H ) :   0.9585 B(  9-C , 11-H ) :   0.9431
B(  9-C , 12-C ) :   1.0731 B( 12-C , 13-H ) :   0.9739 B( 12-C , 14-H ) :   0.9776
B( 12-C , 15-H ) :   0.9742 B( 16-S , 17-C ) :   1.2018 B( 16-S , 20-C ) :   1.1653
B( 17-C , 18-C ) :   1.5394 B( 17-C , 20-C ) :   0.1044 B( 17-C , 33-H ) :   0.9610
B( 18-C , 19-C ) :   1.2908 B( 18-C , 21-H ) :   0.9965 B( 19-C , 20-C ) :   1.5286
B( 19-C , 22-C ) :   1.0366 B( 22-C , 23-H ) :   0.9346 B( 22-C , 24-H ) :   0.9232
B( 22-C , 25-C ) :   1.0878 B( 25-C , 26-H ) :   0.9572 B( 25-C , 27-H ) :   0.9450
B( 25-C , 28-C ) :   1.0750 B( 28-C , 29-H ) :   0.9716 B( 28-C , 30-H ) :   0.9673
B( 28-C , 31-H ) :   0.9764

Dispersion correction           -0.013989849
FINAL SINGLE POINT ENERGY     -1339.872591735832

DIPOLE MOMENT
-------------
                                X             Y             Z
Electronic contribution:     12.78261     -16.61602     -21.74794
Nuclear contribution   :    -13.27708      17.01095      22.12930
                        -----------------------------------------
Total Dipole Moment    :     -0.49447       0.39493       0.38136
                        -----------------------------------------
Magnitude (a.u.)       :      0.73886
Magnitude (Debye)      :      1.87802

Rotational constants in cm-1:     0.018000     0.008757     0.006280
Rotational constants in MHz :   539.615796   262.526648   188.276820

                             ****ORCA TERMINATED NORMALLY****
TOTAL RUN TIME: 0 days 0 hours 0 minutes 33 seconds 890 msec
