                         Program Version 4.2.1 -  RELEASE  -
|  1> ! wB97X-D3 SP def2-SVP
|  2> %pal
|  3> nprocs 16
|  4> end
|  5>
|  6> * xyz 0 1
|  7> S 	 -48.4992 	 66.9057 	 126.755
|  8> C 	 -46.7922 	 66.4634 	 126.402
|  9> C 	 -46.277 	 65.7955 	 127.459
| 10> C 	 -47.2424 	 65.1566 	 128.29
| 11> C 	 -48.4981 	 65.617 	 127.941
| 12> H 	 -47.0413 	 64.3738 	 128.998
| 13> C 	 -44.8861 	 65.2457 	 127.539
| 14> H 	 -44.6162 	 64.81 	 128.464
| 15> H 	 -44.1675 	 66.0705 	 127.46
| 16> C 	 -44.5557 	 64.2523 	 126.409
| 17> H 	 -45.3137 	 63.4616 	 126.474
| 18> H 	 -44.7232 	 64.7468 	 125.483
| 19> C 	 -43.1613 	 63.6474 	 126.504
| 20> H 	 -43.1605 	 62.9375 	 127.345
| 21> H 	 -42.8707 	 63.0359 	 125.652
| 22> H 	 -42.4198 	 64.3579 	 126.728
| 23> S 	 -50.9467 	 66.5001 	 128.705
| 24> C 	 -52.1496 	 65.4006 	 129.367
| 25> C 	 -51.7027 	 64.1124 	 129.354
| 26> C 	 -50.352 	 63.9919 	 128.843
| 27> C 	 -49.7437 	 65.2186 	 128.567
| 28> H 	 -52.4058 	 63.3089 	 129.706
| 29> C 	 -49.7706 	 62.6995 	 128.482
| 30> H 	 -48.8034 	 62.6022 	 128.93
| 31> H 	 -49.6997 	 62.7041 	 127.387
| 32> C 	 -50.4989 	 61.3989 	 128.813
| 33> H 	 -51.5328 	 61.51 	 128.451
| 34> H 	 -50.4675 	 61.2232 	 129.977
| 35> C 	 -49.8957 	 60.1372 	 128.113
| 36> H 	 -49.3189 	 59.4816 	 128.82
| 37> H 	 -49.2447 	 60.1994 	 127.203
| 38> H 	 -50.7605 	 59.5397 	 127.733
| 39> H 	 -46.3074 	 67.037 	 125.677
| 40> H 	 -53.1189 	 65.6675 	 129.814
| 41> *
| 42>
| 43>                          ****END OF INPUT****

CARTESIAN COORDINATES (ANGSTROEM)
---------------------------------
  S    -48.499200   66.905700  126.755000
  C    -46.792200   66.463400  126.402000
  C    -46.277000   65.795500  127.459000
  C    -47.242400   65.156600  128.290000
  C    -48.498100   65.617000  127.941000
  H    -47.041300   64.373800  128.998000
  C    -44.886100   65.245700  127.539000
  H    -44.616200   64.810000  128.464000
  H    -44.167500   66.070500  127.460000
  C    -44.555700   64.252300  126.409000
  H    -45.313700   63.461600  126.474000
  H    -44.723200   64.746800  125.483000
  C    -43.161300   63.647400  126.504000
  H    -43.160500   62.937500  127.345000
  H    -42.870700   63.035900  125.652000
  H    -42.419800   64.357900  126.728000
  S    -50.946700   66.500100  128.705000
  C    -52.149600   65.400600  129.367000
  C    -51.702700   64.112400  129.354000
  C    -50.352000   63.991900  128.843000
  C    -49.743700   65.218600  128.567000
  H    -52.405800   63.308900  129.706000
  C    -49.770600   62.699500  128.482000
  H    -48.803400   62.602200  128.930000
  H    -49.699700   62.704100  127.387000
  C    -50.498900   61.398900  128.813000
  H    -51.532800   61.510000  128.451000
  H    -50.467500   61.223200  129.977000
  C    -49.895700   60.137200  128.113000
  H    -49.318900   59.481600  128.820000
  H    -49.244700   60.199400  127.203000
  H    -50.760500   59.539700  127.733000
  H    -46.307400   67.037000  125.677000
  H    -53.118900   65.667500  129.814000

 Total Charge           Charge          ....    0
 Multiplicity           Mult            ....    1
 Number of Electrons    NEL             ....  134
 Basis Dimension        Dim             ....  322

ORBITAL ENERGIES
----------------

  NO   OCC          E(Eh)            E(eV)
   0   2.0000     -88.964725     -2420.8532
   1   2.0000     -88.961478     -2420.7649
   2   2.0000     -10.331038      -281.1218
   3   2.0000     -10.324278      -280.9379
   4   2.0000     -10.316578      -280.7284
   5   2.0000     -10.310256      -280.5563
   6   2.0000     -10.303528      -280.3732
   7   2.0000     -10.300958      -280.3033
   8   2.0000     -10.299287      -280.2578
   9   2.0000     -10.296402      -280.1793
  10   2.0000     -10.292986      -280.0864
  11   2.0000     -10.290042      -280.0063
  12   2.0000     -10.285053      -279.8705
  13   2.0000     -10.284548      -279.8568
  14   2.0000     -10.282877      -279.8113
  15   2.0000     -10.275431      -279.6087
  16   2.0000      -8.079237      -219.8472
  17   2.0000      -8.076144      -219.7631
  18   2.0000      -6.037764      -164.2959
  19   2.0000      -6.034820      -164.2158
  20   2.0000      -6.034158      -164.1978
  21   2.0000      -6.030671      -164.1029
  22   2.0000      -6.029599      -164.0737
  23   2.0000      -6.026742      -163.9960
  24   2.0000      -1.008508       -27.4429
  25   2.0000      -0.983984       -26.7756
  26   2.0000      -0.915766       -24.9193
  27   2.0000      -0.909968       -24.7615
  28   2.0000      -0.871421       -23.7126
  29   2.0000      -0.852943       -23.2097
  30   2.0000      -0.842126       -22.9154
  31   2.0000      -0.817386       -22.2422
  32   2.0000      -0.781204       -21.2576
  33   2.0000      -0.770492       -20.9662
  34   2.0000      -0.709006       -19.2930
  35   2.0000      -0.703834       -19.1523
  36   2.0000      -0.695503       -18.9256
  37   2.0000      -0.654768       -17.8171
  38   2.0000      -0.639127       -17.3915
  39   2.0000      -0.623735       -16.9727
  40   2.0000      -0.596537       -16.2326
  41   2.0000      -0.575711       -15.6659
  42   2.0000      -0.571411       -15.5489
  43   2.0000      -0.557811       -15.1788
  44   2.0000      -0.527152       -14.3445
  45   2.0000      -0.523468       -14.2443
  46   2.0000      -0.517984       -14.0951
  47   2.0000      -0.510895       -13.9022
  48   2.0000      -0.506834       -13.7917
  49   2.0000      -0.497116       -13.5272
  50   2.0000      -0.488646       -13.2967
  51   2.0000      -0.483744       -13.1633
  52   2.0000      -0.478625       -13.0240
  53   2.0000      -0.463098       -12.6015
  54   2.0000      -0.456128       -12.4119
  55   2.0000      -0.452167       -12.3041
  56   2.0000      -0.445490       -12.1224
  57   2.0000      -0.433988       -11.8094
  58   2.0000      -0.428895       -11.6708
  59   2.0000      -0.424562       -11.5529
  60   2.0000      -0.415430       -11.3044
  61   2.0000      -0.415110       -11.2957
  62   2.0000      -0.413000       -11.2383
  63   2.0000      -0.354287        -9.6406
  64   2.0000      -0.333989        -9.0883
  65   2.0000      -0.324816        -8.8387
  66   2.0000      -0.283926        -7.7260
  67   0.0000       0.021591         0.5875
  68   0.0000       0.063953         1.7403
  69   0.0000       0.096171         2.6169
  70   0.0000       0.122133         3.3234
  71   0.0000       0.134047         3.6476

MULLIKEN ATOMIC CHARGES
-----------------------
   0 S :    0.091605
   1 C :   -0.115985
   2 C :   -0.016244
   3 C :   -0.006680
   4 C :   -0.108584
   5 H :    0.019094
   6 C :    0.045204
   7 H :    0.002142
   8 H :    0.016544
   9 C :   -0.058430
  10 H :    0.021279
  11 H :    0.018601
  12 C :   -0.019881
  13 H :    0.020671
  14 H :    0.037703
  15 H :    0.020691
  16 S :    0.074689
  17 C :   -0.085118
  18 C :   -0.066707
  19 C :   -0.052281
  20 C :   -0.126000
  21 H :    0.045155
  22 C :    0.069972
  23 H :    0.024425
  24 H :    0.045234
  25 C :   -0.125438
  26 H :    0.039358
  27 H :    0.053689
  28 C :   -0.081096
  29 H :    0.042553
  30 H :    0.041142
  31 H :    0.037108
  32 H :    0.034708
  33 H :    0.060876
Sum of atomic charges:    0.0000000

LOEWDIN ATOMIC CHARGES
----------------------
   0 S :    0.374959
   1 C :   -0.167342
   2 C :   -0.053379
   3 C :   -0.058001
   4 C :   -0.174605
   5 H :    0.032860
   6 C :   -0.031130
   7 H :    0.019177
   8 H :    0.027771
   9 C :   -0.031909
  10 H :    0.024053
  11 H :    0.016267
  12 C :   -0.062846
  13 H :    0.027032
  14 H :    0.029638
  15 H :    0.017493
  16 S :    0.385226
  17 C :   -0.185045
  18 C :   -0.083583
  19 C :   -0.059682
  20 C :   -0.189466
  21 H :    0.043877
  22 C :   -0.042487
  23 H :    0.028150
  24 H :    0.041836
  25 C :   -0.047951
  26 H :    0.022824
  27 H :    0.037329
  28 C :   -0.083745
  29 H :    0.030058
  30 H :    0.030159
  31 H :    0.032806
  32 H :    0.013318
  33 H :    0.036337

  Mayer bond orders larger than 0.100000
B(  0-S ,  1-C ) :   1.1006 B(  0-S ,  4-C ) :   1.1434 B(  1-C ,  2-C ) :   1.6266
B(  1-C , 32-H ) :   0.9806 B(  2-C ,  3-C ) :   1.1868 B(  2-C ,  6-C ) :   1.0541
B(  3-C ,  4-C ) :   1.5747 B(  3-C ,  5-H ) :   1.0052 B(  4-C , 20-C ) :   1.0780
B(  6-C ,  7-H ) :   0.9477 B(  6-C ,  8-H ) :   0.9263 B(  6-C ,  9-C ) :   1.0614
B(  9-C , 10-H ) :   0.9566 B(  9-C , 11-H ) :   0.9552 B(  9-C , 12-C ) :   1.0800
B( 12-C , 13-H ) :   0.9729 B( 12-C , 14-H ) :   0.9728 B( 12-C , 15-H ) :   0.9752
B( 16-S , 17-C ) :   1.1475 B( 16-S , 20-C ) :   1.1148 B( 17-C , 18-C ) :   1.6326
B( 17-C , 33-H ) :   0.9581 B( 18-C , 19-C ) :   1.2278 B( 18-C , 21-H ) :   0.9771
B( 19-C , 20-C ) :   1.5997 B( 19-C , 22-C ) :   1.0495 B( 22-C , 23-H ) :   0.9230
B( 22-C , 24-H ) :   0.9214 B( 22-C , 25-C ) :   1.0971 B( 25-C , 26-H ) :   0.9520
B( 25-C , 27-H ) :   0.9551 B( 25-C , 28-C ) :   1.0536 B( 28-C , 29-H ) :   0.9789
B( 28-C , 30-H ) :   0.9777 B( 28-C , 31-H ) :   0.9801

Dispersion correction           -0.013460802
FINAL SINGLE POINT ENERGY     -1339.858466390101

DIPOLE MOMENT
-------------
                                X             Y             Z
Electronic contribution:    -17.05106      26.65032       2.12531
Nuclear contribution   :     17.35782     -27.33359      -2.10675
                        -----------------------------------------
Total Dipole Moment    :      0.30676      -0.68327       0.01856
                        -----------------------------------------
Magnitude (a.u.)       :      0.74920
Magnitude (Debye)      :      1.90431

Rotational constants in cm-1:     0.017069     0.008812     0.006144
Rotational constants in MHz :   511.702796   264.162973   184.207074

                             ****ORCA TERMINATED NORMALLY****
TOTAL RUN TIME: 0 days 0 hours 0 minutes 36 seconds 964 msec
