                         Program Version 4.2.1 -  RELEASE  -
|  1> ! wB97X-D3 SP def2-SVP
|  2> %pal
|  3> nprocs 16
|  4> end
|  5>
|  6> * xyz 0 1
|  7> S 	 -78.3418 	 48.8176 	 138.527
|  8> C 	 -80.0571 	 48.4948 	 138.865
|  9> C 	 -80.825 	 49.6238 	 138.664
| 10> C 	 -80.0929 	 50.7562 	 138.213
| 11> C 	 -78.7026 	 50.5126 	 138.181
| 12> H 	 -80.4666 	 51.7429 	 137.939
| 13> C 	 -82.2841 	 49.7011 	 138.948
| 14> H 	 -82.6026 	 50.5469 	 139.468
| 15> H 	 -82.4089 	 48.9019 	 139.636
| 16> C 	 -83.2247 	 49.4786 	 137.784
| 17> H 	 -82.8098 	 49.9976 	 136.886
| 18> H 	 -83.1571 	 48.4588 	 137.541
| 19> C 	 -84.6822 	 49.7623 	 138.119
| 20> H 	 -85.1562 	 49.0094 	 138.846
| 21> H 	 -84.7161 	 50.7805 	 138.553
| 22> H 	 -85.2749 	 49.8926 	 137.179
| 23> S 	 -77.4061 	 51.483 	 135.927
| 24> C 	 -76.2305 	 52.7168 	 136.342
| 25> C 	 -75.9732 	 52.9118 	 137.663
| 26> C 	 -76.8877 	 52.2655 	 138.485
| 27> C 	 -77.6465 	 51.389 	 137.737
| 28> H 	 -75.1045 	 53.4014 	 137.981
| 29> C 	 -76.8922 	 52.2928 	 140
| 30> H 	 -75.9738 	 51.8165 	 140.404
| 31> H 	 -77.7385 	 51.642 	 140.295
| 32> C 	 -76.8551 	 53.7137 	 140.66
| 33> H 	 -76.0838 	 54.3186 	 140.137
| 34> H 	 -76.6793 	 53.6998 	 141.713
| 35> C 	 -78.1573 	 54.5801 	 140.385
| 36> H 	 -77.8862 	 55.5607 	 140.688
| 37> H 	 -79.0002 	 54.2157 	 141.003
| 38> H 	 -78.3871 	 54.6069 	 139.325
| 39> H 	 -80.5164 	 47.6263 	 139.213
| 40> H 	 -75.5302 	 53.0396 	 135.591
| 41> *
| 42>
| 43>                          ****END OF INPUT****

CARTESIAN COORDINATES (ANGSTROEM)
---------------------------------
  S    -78.341800   48.817600  138.527000
  C    -80.057100   48.494800  138.865000
  C    -80.825000   49.623800  138.664000
  C    -80.092900   50.756200  138.213000
  C    -78.702600   50.512600  138.181000
  H    -80.466600   51.742900  137.939000
  C    -82.284100   49.701100  138.948000
  H    -82.602600   50.546900  139.468000
  H    -82.408900   48.901900  139.636000
  C    -83.224700   49.478600  137.784000
  H    -82.809800   49.997600  136.886000
  H    -83.157100   48.458800  137.541000
  C    -84.682200   49.762300  138.119000
  H    -85.156200   49.009400  138.846000
  H    -84.716100   50.780500  138.553000
  H    -85.274900   49.892600  137.179000
  S    -77.406100   51.483000  135.927000
  C    -76.230500   52.716800  136.342000
  C    -75.973200   52.911800  137.663000
  C    -76.887700   52.265500  138.485000
  C    -77.646500   51.389000  137.737000
  H    -75.104500   53.401400  137.981000
  C    -76.892200   52.292800  140.000000
  H    -75.973800   51.816500  140.404000
  H    -77.738500   51.642000  140.295000
  C    -76.855100   53.713700  140.660000
  H    -76.083800   54.318600  140.137000
  H    -76.679300   53.699800  141.713000
  C    -78.157300   54.580100  140.385000
  H    -77.886200   55.560700  140.688000
  H    -79.000200   54.215700  141.003000
  H    -78.387100   54.606900  139.325000
  H    -80.516400   47.626300  139.213000
  H    -75.530200   53.039600  135.591000

 Total Charge           Charge          ....    0
 Multiplicity           Mult            ....    1
 Number of Electrons    NEL             ....  134
 Basis Dimension        Dim             ....  322

ORBITAL ENERGIES
----------------

  NO   OCC          E(Eh)            E(eV)
   0   2.0000     -88.967967     -2420.9415
   1   2.0000     -88.966463     -2420.9005
   2   2.0000     -10.326700      -281.0038
   3   2.0000     -10.324777      -280.9515
   4   2.0000     -10.313784      -280.6523
   5   2.0000     -10.310442      -280.5614
   6   2.0000     -10.301647      -280.3221
   7   2.0000     -10.296559      -280.1836
   8   2.0000     -10.296177      -280.1732
   9   2.0000     -10.295240      -280.1477
  10   2.0000     -10.291755      -280.0529
  11   2.0000     -10.288549      -279.9656
  12   2.0000     -10.285717      -279.8886
  13   2.0000     -10.279555      -279.7209
  14   2.0000     -10.276349      -279.6337
  15   2.0000     -10.273856      -279.5658
  16   2.0000      -8.081855      -219.9185
  17   2.0000      -8.080221      -219.8740
  18   2.0000      -6.040082      -164.3590
  19   2.0000      -6.038754      -164.3228
  20   2.0000      -6.037011      -164.2754
  21   2.0000      -6.034850      -164.2166
  22   2.0000      -6.032414      -164.1503
  23   2.0000      -6.031023      -164.1125
  24   2.0000      -1.002981       -27.2925
  25   2.0000      -0.980925       -26.6923
  26   2.0000      -0.917089       -24.9553
  27   2.0000      -0.901256       -24.5244
  28   2.0000      -0.868691       -23.6383
  29   2.0000      -0.850352       -23.1393
  30   2.0000      -0.844841       -22.9893
  31   2.0000      -0.812009       -22.0959
  32   2.0000      -0.783977       -21.3331
  33   2.0000      -0.769488       -20.9388
  34   2.0000      -0.707358       -19.2482
  35   2.0000      -0.699039       -19.0218
  36   2.0000      -0.694806       -18.9066
  37   2.0000      -0.660926       -17.9847
  38   2.0000      -0.641577       -17.4582
  39   2.0000      -0.613861       -16.7040
  40   2.0000      -0.596867       -16.2416
  41   2.0000      -0.575488       -15.6598
  42   2.0000      -0.559059       -15.2128
  43   2.0000      -0.550928       -14.9915
  44   2.0000      -0.539615       -14.6837
  45   2.0000      -0.523238       -14.2380
  46   2.0000      -0.516922       -14.0662
  47   2.0000      -0.512567       -13.9476
  48   2.0000      -0.499558       -13.5937
  49   2.0000      -0.496952       -13.5228
  50   2.0000      -0.488412       -13.2904
  51   2.0000      -0.471380       -12.8269
  52   2.0000      -0.467301       -12.7159
  53   2.0000      -0.462244       -12.5783
  54   2.0000      -0.457082       -12.4378
  55   2.0000      -0.456122       -12.4117
  56   2.0000      -0.446512       -12.1502
  57   2.0000      -0.436438       -11.8761
  58   2.0000      -0.428544       -11.6613
  59   2.0000      -0.426793       -11.6136
  60   2.0000      -0.424259       -11.5447
  61   2.0000      -0.414273       -11.2729
  62   2.0000      -0.413605       -11.2548
  63   2.0000      -0.339516        -9.2387
  64   2.0000      -0.329270        -8.9599
  65   2.0000      -0.312029        -8.4907
  66   2.0000      -0.310895        -8.4599
  67   0.0000       0.041718         1.1352
  68   0.0000       0.045292         1.2325
  69   0.0000       0.101679         2.7668
  70   0.0000       0.118293         3.2189
  71   0.0000       0.122290         3.3277

MULLIKEN ATOMIC CHARGES
-----------------------
   0 S :    0.112336
   1 C :   -0.080326
   2 C :   -0.101575
   3 C :    0.055278
   4 C :   -0.213710
   5 H :    0.017354
   6 C :    0.104730
   7 H :    0.003334
   8 H :   -0.005441
   9 C :   -0.053171
  10 H :    0.031657
  11 H :    0.007201
  12 C :   -0.073337
  13 H :    0.055301
  14 H :    0.026853
  15 H :    0.044326
  16 S :    0.112325
  17 C :   -0.072595
  18 C :   -0.021852
  19 C :    0.001369
  20 C :   -0.186853
  21 H :    0.004096
  22 C :    0.067385
  23 H :    0.044996
  24 H :    0.042134
  25 C :   -0.100564
  26 H :    0.029901
  27 H :    0.034934
  28 C :   -0.056050
  29 H :    0.023315
  30 H :    0.039848
  31 H :    0.042289
  32 H :    0.015598
  33 H :    0.048915
Sum of atomic charges:    0.0000000

LOEWDIN ATOMIC CHARGES
----------------------
   0 S :    0.393127
   1 C :   -0.183811
   2 C :   -0.059796
   3 C :   -0.054961
   4 C :   -0.197001
   5 H :    0.034544
   6 C :   -0.029586
   7 H :    0.019504
   8 H :    0.025608
   9 C :   -0.042477
  10 H :    0.028577
  11 H :    0.016414
  12 C :   -0.075110
  13 H :    0.037173
  14 H :    0.023813
  15 H :    0.033770
  16 S :    0.373339
  17 C :   -0.169048
  18 C :   -0.066029
  19 C :   -0.046803
  20 C :   -0.182603
  21 H :    0.025686
  22 C :   -0.033367
  23 H :    0.039525
  24 H :    0.034857
  25 C :   -0.036293
  26 H :    0.025340
  27 H :    0.021212
  28 C :   -0.063255
  29 H :    0.018724
  30 H :    0.026223
  31 H :    0.025058
  32 H :    0.016491
  33 H :    0.021154

  Mayer bond orders larger than 0.100000
B(  0-S ,  1-C ) :   1.1257 B(  0-S ,  4-C ) :   1.1512 B(  1-C ,  2-C ) :   1.6267
B(  1-C ,  4-C ) :   0.1013 B(  1-C , 32-H ) :   0.9681 B(  2-C ,  3-C ) :   1.2272
B(  2-C ,  6-C ) :   1.0266 B(  3-C ,  4-C ) :   1.5782 B(  3-C ,  5-H ) :   0.9960
B(  4-C , 20-C ) :   1.0177 B(  6-C ,  7-H ) :   0.9430 B(  6-C ,  8-H ) :   0.9279
B(  6-C ,  9-C ) :   1.0577 B(  9-C , 10-H ) :   0.9587 B(  9-C , 11-H ) :   0.9486
B(  9-C , 12-C ) :   1.0792 B( 12-C , 13-H ) :   0.9727 B( 12-C , 14-H ) :   0.9740
B( 12-C , 15-H ) :   0.9722 B( 16-S , 17-C ) :   1.1435 B( 16-S , 20-C ) :   1.1241
B( 17-C , 18-C ) :   1.6546 B( 17-C , 20-C ) :   0.1037 B( 17-C , 33-H ) :   0.9579
B( 18-C , 19-C ) :   1.2029 B( 18-C , 21-H ) :   0.9923 B( 19-C , 20-C ) :   1.6318
B( 19-C , 22-C ) :   1.0431 B( 22-C , 23-H ) :   0.9373 B( 22-C , 24-H ) :   0.9320
B( 22-C , 25-C ) :   1.0534 B( 25-C , 26-H ) :   0.9603 B( 25-C , 27-H ) :   0.9609
B( 25-C , 28-C ) :   1.0710 B( 28-C , 29-H ) :   0.9772 B( 28-C , 30-H ) :   0.9783
B( 28-C , 31-H ) :   0.9771

Dispersion correction           -0.014226507
FINAL SINGLE POINT ENERGY     -1339.864759823872

DIPOLE MOMENT
-------------
                                X             Y             Z
Electronic contribution:     18.00124      -9.85749     -12.58543
Nuclear contribution   :    -18.11639      10.12063      12.89529
                        -----------------------------------------
Total Dipole Moment    :     -0.11516       0.26314       0.30986
                        -----------------------------------------
Magnitude (a.u.)       :      0.42251
Magnitude (Debye)      :      1.07394

Rotational constants in cm-1:     0.019364     0.007625     0.006869
Rotational constants in MHz :   580.504888   228.597939   205.934285

                             ****ORCA TERMINATED NORMALLY****
TOTAL RUN TIME: 0 days 0 hours 0 minutes 35 seconds 35 msec
