                         Program Version 4.2.1 -  RELEASE  -
|  1> ! wB97X-D3 SP def2-SVP
|  2> %pal
|  3> nprocs 16
|  4> end
|  5>
|  6> * xyz 0 1
|  7> S 	 -2.72666 	 75.5124 	 46.0214
|  8> C 	 -3.69222 	 74.317 	 46.9412
|  9> C 	 -3.14393 	 73.0582 	 46.8483
| 10> C 	 -1.77419 	 73.1017 	 46.3797
| 11> C 	 -1.34602 	 74.3803 	 46.0237
| 12> H 	 -1.07882 	 72.2639 	 46.3013
| 13> C 	 -3.87413 	 71.7683 	 47.1144
| 14> H 	 -3.35305 	 71.0561 	 46.3899
| 15> H 	 -4.87692 	 71.8207 	 46.8066
| 16> C 	 -3.73096 	 71.2691 	 48.54
| 17> H 	 -3.99735 	 70.224 	 48.5458
| 18> H 	 -2.6617 	 71.2521 	 49.0155
| 19> C 	 -4.73749 	 71.9197 	 49.4808
| 20> H 	 -4.84465 	 71.262 	 50.3597
| 21> H 	 -4.42656 	 72.8824 	 49.7669
| 22> H 	 -5.75453 	 71.909 	 49.0365
| 23> S 	 0.0635083 	 75.4361 	 43.7944
| 24> C 	 1.83725 	 75.6919 	 44.0465
| 25> C 	 2.23673 	 75.1375 	 45.2648
| 26> C 	 1.2285 	 74.5073 	 46.0128
| 27> C 	 -0.0508136 	 74.6608 	 45.4435
| 28> H 	 3.23038 	 75.341 	 45.6007
| 29> C 	 1.64257 	 73.9294 	 47.3844
| 30> H 	 2.67045 	 73.5014 	 47.303
| 31> H 	 1.04253 	 73.0465 	 47.4808
| 32> C 	 1.39354 	 74.7307 	 48.6126
| 33> H 	 1.33043 	 74.1827 	 49.4964
| 34> H 	 0.361279 	 75.0045 	 48.4964
| 35> C 	 2.387 	 75.9027 	 48.7588
| 36> H 	 3.42161 	 75.5497 	 49.0723
| 37> H 	 1.87297 	 76.5568 	 49.5333
| 38> H 	 2.36838 	 76.4362 	 47.8209
| 39> H 	 -4.74708 	 74.4364 	 47.1579
| 40> H 	 2.41355 	 76.2972 	 43.3702
| 41> *
| 42>
| 43>                          ****END OF INPUT****

CARTESIAN COORDINATES (ANGSTROEM)
---------------------------------
  S     -2.726660   75.512400   46.021400
  C     -3.692220   74.317000   46.941200
  C     -3.143930   73.058200   46.848300
  C     -1.774190   73.101700   46.379700
  C     -1.346020   74.380300   46.023700
  H     -1.078820   72.263900   46.301300
  C     -3.874130   71.768300   47.114400
  H     -3.353050   71.056100   46.389900
  H     -4.876920   71.820700   46.806600
  C     -3.730960   71.269100   48.540000
  H     -3.997350   70.224000   48.545800
  H     -2.661700   71.252100   49.015500
  C     -4.737490   71.919700   49.480800
  H     -4.844650   71.262000   50.359700
  H     -4.426560   72.882400   49.766900
  H     -5.754530   71.909000   49.036500
  S      0.063508   75.436100   43.794400
  C      1.837250   75.691900   44.046500
  C      2.236730   75.137500   45.264800
  C      1.228500   74.507300   46.012800
  C     -0.050814   74.660800   45.443500
  H      3.230380   75.341000   45.600700
  C      1.642570   73.929400   47.384400
  H      2.670450   73.501400   47.303000
  H      1.042530   73.046500   47.480800
  C      1.393540   74.730700   48.612600
  H      1.330430   74.182700   49.496400
  H      0.361279   75.004500   48.496400
  C      2.387000   75.902700   48.758800
  H      3.421610   75.549700   49.072300
  H      1.872970   76.556800   49.533300
  H      2.368380   76.436200   47.820900
  H     -4.747080   74.436400   47.157900
  H      2.413550   76.297200   43.370200

 Total Charge           Charge          ....    0
 Multiplicity           Mult            ....    1
 Number of Electrons    NEL             ....  134
 Basis Dimension        Dim             ....  322

ORBITAL ENERGIES
----------------

  NO   OCC          E(Eh)            E(eV)
   0   2.0000     -88.967790     -2420.9367
   1   2.0000     -88.967211     -2420.9209
   2   2.0000     -10.335750      -281.2501
   3   2.0000     -10.334147      -281.2064
   4   2.0000     -10.323395      -280.9139
   5   2.0000     -10.315648      -280.7031
   6   2.0000     -10.307122      -280.4711
   7   2.0000     -10.304086      -280.3884
   8   2.0000     -10.299926      -280.2752
   9   2.0000     -10.295740      -280.1613
  10   2.0000     -10.293355      -280.0964
  11   2.0000     -10.292984      -280.0863
  12   2.0000     -10.288409      -279.9618
  13   2.0000     -10.282640      -279.8048
  14   2.0000     -10.277357      -279.6611
  15   2.0000     -10.273314      -279.5511
  16   2.0000      -8.081250      -219.9020
  17   2.0000      -8.079945      -219.8665
  18   2.0000      -6.039956      -164.3556
  19   2.0000      -6.038580      -164.3181
  20   2.0000      -6.036220      -164.2539
  21   2.0000      -6.034813      -164.2156
  22   2.0000      -6.031580      -164.1276
  23   2.0000      -6.030606      -164.1011
  24   2.0000      -0.996878       -27.1264
  25   2.0000      -0.974216       -26.5098
  26   2.0000      -0.916300       -24.9338
  27   2.0000      -0.910227       -24.7685
  28   2.0000      -0.868045       -23.6207
  29   2.0000      -0.847513       -23.0620
  30   2.0000      -0.842543       -22.9268
  31   2.0000      -0.809451       -22.0263
  32   2.0000      -0.783974       -21.3330
  33   2.0000      -0.773581       -21.0502
  34   2.0000      -0.713017       -19.4022
  35   2.0000      -0.696972       -18.9656
  36   2.0000      -0.690079       -18.7780
  37   2.0000      -0.660619       -17.9764
  38   2.0000      -0.638932       -17.3862
  39   2.0000      -0.617359       -16.7992
  40   2.0000      -0.592135       -16.1128
  41   2.0000      -0.570462       -15.5231
  42   2.0000      -0.555539       -15.1170
  43   2.0000      -0.552653       -15.0385
  44   2.0000      -0.544028       -14.8038
  45   2.0000      -0.538902       -14.6643
  46   2.0000      -0.519154       -14.1269
  47   2.0000      -0.511652       -13.9228
  48   2.0000      -0.498989       -13.5782
  49   2.0000      -0.493359       -13.4250
  50   2.0000      -0.484929       -13.1956
  51   2.0000      -0.481761       -13.1094
  52   2.0000      -0.474956       -12.9242
  53   2.0000      -0.464248       -12.6328
  54   2.0000      -0.458503       -12.4765
  55   2.0000      -0.442873       -12.0512
  56   2.0000      -0.439639       -11.9632
  57   2.0000      -0.437584       -11.9073
  58   2.0000      -0.434605       -11.8262
  59   2.0000      -0.426195       -11.5974
  60   2.0000      -0.417865       -11.3707
  61   2.0000      -0.411009       -11.1841
  62   2.0000      -0.405106       -11.0235
  63   2.0000      -0.343682        -9.3521
  64   2.0000      -0.334827        -9.1111
  65   2.0000      -0.327397        -8.9089
  66   2.0000      -0.289352        -7.8737
  67   0.0000       0.017994         0.4896
  68   0.0000       0.056635         1.5411
  69   0.0000       0.099598         2.7102
  70   0.0000       0.109606         2.9825
  71   0.0000       0.129569         3.5258

MULLIKEN ATOMIC CHARGES
-----------------------
   0 S :    0.099540
   1 C :   -0.108137
   2 C :   -0.099842
   3 C :    0.019702
   4 C :   -0.149449
   5 H :    0.026025
   6 C :    0.071818
   7 H :    0.037237
   8 H :    0.017469
   9 C :   -0.085936
  10 H :    0.021861
  11 H :    0.046705
  12 C :   -0.040719
  13 H :    0.032423
  14 H :    0.035313
  15 H :    0.025274
  16 S :    0.086253
  17 C :   -0.102971
  18 C :   -0.022015
  19 C :   -0.040110
  20 C :   -0.170951
  21 H :    0.017478
  22 C :    0.077924
  23 H :    0.023797
  24 H :    0.000355
  25 C :   -0.015434
  26 H :    0.009330
  27 H :    0.020763
  28 C :   -0.072483
  29 H :    0.048516
  30 H :    0.044139
  31 H :    0.037600
  32 H :    0.048748
  33 H :    0.059777
Sum of atomic charges:    0.0000000

LOEWDIN ATOMIC CHARGES
----------------------
   0 S :    0.372671
   1 C :   -0.190127
   2 C :   -0.058352
   3 C :   -0.056075
   4 C :   -0.184945
   5 H :    0.032850
   6 C :   -0.029661
   7 H :    0.042467
   8 H :    0.023924
   9 C :   -0.048029
  10 H :    0.020356
  11 H :    0.037314
  12 C :   -0.062614
  13 H :    0.029936
  14 H :    0.016900
  15 H :    0.026575
  16 S :    0.350320
  17 C :   -0.162311
  18 C :   -0.068203
  19 C :   -0.052401
  20 C :   -0.174799
  21 H :    0.029008
  22 C :   -0.032256
  23 H :    0.031220
  24 H :    0.026424
  25 C :   -0.041148
  26 H :    0.016889
  27 H :    0.029259
  28 C :   -0.069378
  29 H :    0.032353
  30 H :    0.035871
  31 H :    0.023230
  32 H :    0.026726
  33 H :    0.026006

  Mayer bond orders larger than 0.100000
B(  0-S ,  1-C ) :   1.1124 B(  0-S ,  4-C ) :   1.1233 B(  1-C ,  2-C ) :   1.6426
B(  1-C , 32-H ) :   0.9628 B(  2-C ,  3-C ) :   1.2200 B(  2-C ,  6-C ) :   1.0185
B(  3-C ,  4-C ) :   1.5837 B(  3-C ,  5-H ) :   0.9862 B(  4-C , 20-C ) :   1.0869
B(  6-C ,  7-H ) :   0.9401 B(  6-C ,  8-H ) :   0.9409 B(  6-C ,  9-C ) :   1.0704
B(  9-C , 10-H ) :   0.9532 B(  9-C , 11-H ) :   0.9547 B(  9-C , 12-C ) :   1.0806
B( 12-C , 13-H ) :   0.9736 B( 12-C , 14-H ) :   0.9765 B( 12-C , 15-H ) :   0.9727
B( 16-S , 17-C ) :   1.1343 B( 16-S , 20-C ) :   1.1252 B( 17-C , 18-C ) :   1.6057
B( 17-C , 20-C ) :   0.1088 B( 17-C , 33-H ) :   0.9704 B( 18-C , 19-C ) :   1.2456
B( 18-C , 21-H ) :   0.9896 B( 19-C , 20-C ) :   1.5871 B( 19-C , 22-C ) :   1.0338
B( 22-C , 23-H ) :   0.9361 B( 22-C , 24-H ) :   0.9167 B( 22-C , 25-C ) :   1.0828
B( 25-C , 26-H ) :   0.9484 B( 25-C , 27-H ) :   0.9467 B( 25-C , 28-C ) :   1.0701
B( 28-C , 29-H ) :   0.9743 B( 28-C , 30-H ) :   0.9742 B( 28-C , 31-H ) :   0.9760

Dispersion correction           -0.014730326
FINAL SINGLE POINT ENERGY     -1339.855423456416

DIPOLE MOMENT
-------------
                                X             Y             Z
Electronic contribution:     -0.38129      12.39076     -23.18853
Nuclear contribution   :      0.37537     -12.94037      23.60222
                        -----------------------------------------
Total Dipole Moment    :     -0.00592      -0.54961       0.41369
                        -----------------------------------------
Magnitude (a.u.)       :      0.68793
Magnitude (Debye)      :      1.74857

Rotational constants in cm-1:     0.020399     0.008271     0.006800
Rotational constants in MHz :   611.535910   247.944119   203.861906

                             ****ORCA TERMINATED NORMALLY****
TOTAL RUN TIME: 0 days 0 hours 0 minutes 34 seconds 726 msec
