                         Program Version 4.2.1 -  RELEASE  -
|  1> ! wB97X-D3 SP def2-SVP
|  2> %pal
|  3> nprocs 16
|  4> end
|  5>
|  6> * xyz 0 1
|  7> S 	 9.03097 	 22.4196 	 33.9907
|  8> C 	 10.2931 	 21.4068 	 33.2254
|  9> C 	 10.9736 	 20.6109 	 34.0639
| 10> C 	 10.6607 	 20.9726 	 35.392
| 11> C 	 9.66976 	 21.8917 	 35.5302
| 12> H 	 11.1134 	 20.4803 	 36.2253
| 13> C 	 11.9422 	 19.4041 	 33.6747
| 14> H 	 12.5768 	 19.0599 	 34.4914
| 15> H 	 12.5686 	 19.9233 	 32.9701
| 16> C 	 11.3212 	 18.0715 	 33.1396
| 17> H 	 10.3978 	 17.7904 	 33.6701
| 18> H 	 11.207 	 18.2018 	 32.1357
| 19> C 	 12.3659 	 16.8912 	 33.3047
| 20> H 	 11.9642 	 15.9108 	 33.0024
| 21> H 	 13.1605 	 16.881 	 32.4685
| 22> H 	 12.9634 	 16.7622 	 34.277
| 23> S 	 7.36866 	 21.9756 	 37.0901
| 24> C 	 7.36316 	 22.845 	 38.6125
| 25> C 	 8.69119 	 23.2079 	 38.9636
| 26> C 	 9.6868 	 22.9853 	 37.9109
| 27> C 	 9.07599 	 22.361 	 36.7903
| 28> H 	 8.80557 	 23.7579 	 39.9559
| 29> C 	 11.0606 	 23.5123 	 38.0086
| 30> H 	 11.6056 	 23.3097 	 37.0679
| 31> H 	 11.6147 	 22.8174 	 38.7497
| 32> C 	 11.114 	 24.9929 	 38.3245
| 33> H 	 10.7402 	 25.1601 	 39.3899
| 34> H 	 10.4882 	 25.4193 	 37.5155
| 35> C 	 12.5648 	 25.452 	 38.0543
| 36> H 	 12.6719 	 26.4965 	 38.4341
| 37> H 	 12.9956 	 25.2852 	 37.0419
| 38> H 	 13.2669 	 24.7962 	 38.5806
| 39> H 	 10.3513 	 21.3092 	 32.1104
| 40> H 	 6.54128 	 23.0795 	 39.2535
| 41> *
| 42>
| 43>                          ****END OF INPUT****

CARTESIAN COORDINATES (ANGSTROEM)
---------------------------------
  S      9.030970   22.419600   33.990700
  C     10.293100   21.406800   33.225400
  C     10.973600   20.610900   34.063900
  C     10.660700   20.972600   35.392000
  C      9.669760   21.891700   35.530200
  H     11.113400   20.480300   36.225300
  C     11.942200   19.404100   33.674700
  H     12.576800   19.059900   34.491400
  H     12.568600   19.923300   32.970100
  C     11.321200   18.071500   33.139600
  H     10.397800   17.790400   33.670100
  H     11.207000   18.201800   32.135700
  C     12.365900   16.891200   33.304700
  H     11.964200   15.910800   33.002400
  H     13.160500   16.881000   32.468500
  H     12.963400   16.762200   34.277000
  S      7.368660   21.975600   37.090100
  C      7.363160   22.845000   38.612500
  C      8.691190   23.207900   38.963600
  C      9.686800   22.985300   37.910900
  C      9.075990   22.361000   36.790300
  H      8.805570   23.757900   39.955900
  C     11.060600   23.512300   38.008600
  H     11.605600   23.309700   37.067900
  H     11.614700   22.817400   38.749700
  C     11.114000   24.992900   38.324500
  H     10.740200   25.160100   39.389900
  H     10.488200   25.419300   37.515500
  C     12.564800   25.452000   38.054300
  H     12.671900   26.496500   38.434100
  H     12.995600   25.285200   37.041900
  H     13.266900   24.796200   38.580600
  H     10.351300   21.309200   32.110400
  H      6.541280   23.079500   39.253500

 Total Charge           Charge          ....    0
 Multiplicity           Mult            ....    1
 Number of Electrons    NEL             ....  134
 Basis Dimension        Dim             ....  322

ORBITAL ENERGIES
----------------

  NO   OCC          E(Eh)            E(eV)
   0   2.0000     -88.966982     -2420.9146
   1   2.0000     -88.964688     -2420.8522
   2   2.0000     -10.328550      -281.0541
   3   2.0000     -10.326001      -280.9848
   4   2.0000     -10.318704      -280.7862
   5   2.0000     -10.315853      -280.7086
   6   2.0000     -10.306979      -280.4672
   7   2.0000     -10.303046      -280.3601
   8   2.0000     -10.301239      -280.3110
   9   2.0000     -10.300505      -280.2910
  10   2.0000     -10.296446      -280.1805
  11   2.0000     -10.294212      -280.1197
  12   2.0000     -10.293983      -280.1135
  13   2.0000     -10.292247      -280.0663
  14   2.0000     -10.288170      -279.9553
  15   2.0000     -10.282612      -279.8041
  16   2.0000      -8.081397      -219.9060
  17   2.0000      -8.078735      -219.8335
  18   2.0000      -6.039900      -164.3540
  19   2.0000      -6.037314      -164.2837
  20   2.0000      -6.036219      -164.2539
  21   2.0000      -6.033314      -164.1748
  22   2.0000      -6.031904      -164.1365
  23   2.0000      -6.029482      -164.0706
  24   2.0000      -1.003867       -27.3166
  25   2.0000      -0.976458       -26.5708
  26   2.0000      -0.913011       -24.8443
  27   2.0000      -0.903385       -24.5824
  28   2.0000      -0.864655       -23.5285
  29   2.0000      -0.848341       -23.0845
  30   2.0000      -0.840932       -22.8829
  31   2.0000      -0.807397       -21.9704
  32   2.0000      -0.778911       -21.1952
  33   2.0000      -0.765626       -20.8337
  34   2.0000      -0.707582       -19.2543
  35   2.0000      -0.700568       -19.0634
  36   2.0000      -0.694422       -18.8962
  37   2.0000      -0.647869       -17.6294
  38   2.0000      -0.636867       -17.3300
  39   2.0000      -0.619411       -16.8550
  40   2.0000      -0.592042       -16.1103
  41   2.0000      -0.576027       -15.6745
  42   2.0000      -0.564131       -15.3508
  43   2.0000      -0.556360       -15.1393
  44   2.0000      -0.528715       -14.3871
  45   2.0000      -0.519025       -14.1234
  46   2.0000      -0.514098       -13.9893
  47   2.0000      -0.503657       -13.7052
  48   2.0000      -0.494897       -13.4668
  49   2.0000      -0.491825       -13.3832
  50   2.0000      -0.489731       -13.3263
  51   2.0000      -0.473888       -12.8951
  52   2.0000      -0.467359       -12.7175
  53   2.0000      -0.461812       -12.5665
  54   2.0000      -0.452678       -12.3180
  55   2.0000      -0.450342       -12.2544
  56   2.0000      -0.434887       -11.8339
  57   2.0000      -0.433677       -11.8009
  58   2.0000      -0.430971       -11.7273
  59   2.0000      -0.427880       -11.6432
  60   2.0000      -0.423416       -11.5217
  61   2.0000      -0.420019       -11.4293
  62   2.0000      -0.411474       -11.1968
  63   2.0000      -0.337340        -9.1795
  64   2.0000      -0.337116        -9.1734
  65   2.0000      -0.323557        -8.8044
  66   2.0000      -0.294638        -8.0175
  67   0.0000       0.033551         0.9130
  68   0.0000       0.066841         1.8188
  69   0.0000       0.107682         2.9302
  70   0.0000       0.115966         3.1556
  71   0.0000       0.134192         3.6515

MULLIKEN ATOMIC CHARGES
-----------------------
   0 S :    0.112875
   1 C :   -0.157900
   2 C :   -0.066468
   3 C :    0.047277
   4 C :   -0.164152
   5 H :   -0.001909
   6 C :    0.054638
   7 H :    0.019569
   8 H :    0.035733
   9 C :    0.003747
  10 H :    0.055231
  11 H :    0.015675
  12 C :   -0.142200
  13 H :    0.034179
  14 H :    0.030664
  15 H :    0.058052
  16 S :    0.106357
  17 C :   -0.094693
  18 C :   -0.078566
  19 C :   -0.015157
  20 C :   -0.160544
  21 H :    0.045987
  22 C :    0.012913
  23 H :    0.023489
  24 H :    0.044718
  25 C :   -0.081706
  26 H :    0.055154
  27 H :    0.052438
  28 C :   -0.053932
  29 H :    0.046836
  30 H :    0.040075
  31 H :    0.014330
  32 H :    0.054014
  33 H :    0.053273
Sum of atomic charges:    0.0000000

LOEWDIN ATOMIC CHARGES
----------------------
   0 S :    0.388374
   1 C :   -0.184502
   2 C :   -0.067203
   3 C :   -0.055746
   4 C :   -0.197706
   5 H :    0.028296
   6 C :   -0.022885
   7 H :    0.027540
   8 H :    0.031788
   9 C :   -0.024099
  10 H :    0.034071
  11 H :    0.014484
  12 C :   -0.092779
  13 H :    0.027308
  14 H :    0.031592
  15 H :    0.033371
  16 S :    0.393070
  17 C :   -0.190119
  18 C :   -0.079521
  19 C :   -0.055410
  20 C :   -0.198119
  21 H :    0.040147
  22 C :   -0.050118
  23 H :    0.031454
  24 H :    0.040003
  25 C :   -0.042490
  26 H :    0.035097
  27 H :    0.036815
  28 C :   -0.076748
  29 H :    0.030343
  30 H :    0.032754
  31 H :    0.022281
  32 H :    0.030942
  33 H :    0.027716

  Mayer bond orders larger than 0.100000
B(  0-S ,  1-C ) :   1.1252 B(  0-S ,  4-C ) :   1.1380 B(  1-C ,  2-C ) :   1.6655
B(  1-C , 32-H ) :   0.9592 B(  2-C ,  3-C ) :   1.2327 B(  2-C ,  6-C ) :   0.9870
B(  3-C ,  4-C ) :   1.5977 B(  3-C ,  5-H ) :   1.0031 B(  4-C , 20-C ) :   1.0205
B(  6-C ,  7-H ) :   0.9555 B(  6-C ,  8-H ) :   0.9440 B(  6-C ,  9-C ) :   1.0510
B(  9-C , 10-H ) :   0.9634 B(  9-C , 11-H ) :   0.9529 B(  9-C , 12-C ) :   1.0698
B( 12-C , 13-H ) :   0.9740 B( 12-C , 14-H ) :   0.9752 B( 12-C , 15-H ) :   0.9752
B( 16-S , 17-C ) :   1.1464 B( 16-S , 20-C ) :   1.1422 B( 17-C , 18-C ) :   1.6261
B( 17-C , 20-C ) :   0.1008 B( 17-C , 33-H ) :   0.9708 B( 18-C , 19-C ) :   1.2139
B( 18-C , 21-H ) :   0.9737 B( 19-C , 20-C ) :   1.5848 B( 19-C , 22-C ) :   1.0641
B( 22-C , 23-H ) :   0.9360 B( 22-C , 24-H ) :   0.9155 B( 22-C , 25-C ) :   1.0559
B( 25-C , 26-H ) :   0.9483 B( 25-C , 27-H ) :   0.9550 B( 25-C , 28-C ) :   1.0821
B( 28-C , 29-H ) :   0.9737 B( 28-C , 30-H ) :   0.9722 B( 28-C , 31-H ) :   0.9681

Dispersion correction           -0.013422739
FINAL SINGLE POINT ENERGY     -1339.848997528282

DIPOLE MOMENT
-------------
                                X             Y             Z
Electronic contribution:    -23.62267       6.19202      -0.56977
Nuclear contribution   :     24.17585      -6.44340       0.62921
                        -----------------------------------------
Total Dipole Moment    :      0.55318      -0.25138       0.05944
                        -----------------------------------------
Magnitude (a.u.)       :      0.61052
Magnitude (Debye)      :      1.55182

Rotational constants in cm-1:     0.018843     0.007214     0.006285
Rotational constants in MHz :   564.896902   216.272091   188.420909

                             ****ORCA TERMINATED NORMALLY****
TOTAL RUN TIME: 0 days 0 hours 0 minutes 33 seconds 74 msec
