                         Program Version 4.2.1 -  RELEASE  -
|  1> ! wB97X-D3 SP def2-SVP
|  2> %pal
|  3> nprocs 16
|  4> end
|  5>
|  6> * xyz 0 1
|  7> S 	 -15.3662 	 49.3787 	 45.2559
|  8> C 	 -16.7636 	 50.3971 	 44.9964
|  9> C 	 -16.5382 	 51.6982 	 44.6516
| 10> C 	 -15.1522 	 51.924 	 44.8137
| 11> C 	 -14.4097 	 50.8873 	 45.2383
| 12> H 	 -14.6081 	 52.8392 	 44.6339
| 13> C 	 -17.5896 	 52.8062 	 44.2413
| 14> H 	 -18.5412 	 52.5325 	 44.6033
| 15> H 	 -17.6884 	 52.7683 	 43.1748
| 16> C 	 -17.2955 	 54.2535 	 44.7749
| 17> H 	 -17.0051 	 54.2554 	 45.8208
| 18> H 	 -16.4246 	 54.6189 	 44.2765
| 19> C 	 -18.4792 	 55.2095 	 44.6572
| 20> H 	 -19.416 	 54.9841 	 45.1348
| 21> H 	 -18.2224 	 56.1905 	 45.02
| 22> H 	 -18.7751 	 55.3025 	 43.6097
| 23> S 	 -11.9782 	 50.2233 	 44.1849
| 24> C 	 -10.5225 	 50.8971 	 44.8007
| 25> C 	 -10.768 	 51.4954 	 45.9763
| 26> C 	 -12.1683 	 51.6523 	 46.3017
| 27> C 	 -12.9963 	 51.0239 	 45.3586
| 28> H 	 -10.0056 	 51.8595 	 46.5279
| 29> C 	 -12.6003 	 52.4639 	 47.4925
| 30> H 	 -11.9425 	 52.3734 	 48.2954
| 31> H 	 -13.5233 	 52.0648 	 47.819
| 32> C 	 -12.9725 	 53.9115 	 47.1416
| 33> H 	 -13.2677 	 54.4637 	 48.045
| 34> H 	 -13.8141 	 53.9192 	 46.4679
| 35> C 	 -11.7978 	 54.7486 	 46.5438
| 36> H 	 -11.4971 	 54.2746 	 45.6319
| 37> H 	 -10.9881 	 54.7565 	 47.305
| 38> H 	 -12.1036 	 55.7912 	 46.4266
| 39> H 	 -17.755 	 50.0017 	 44.9857
| 40> H 	 -9.48664 	 50.714 	 44.434
| 41> *
| 42>
| 43>                          ****END OF INPUT****

CARTESIAN COORDINATES (ANGSTROEM)
---------------------------------
  S    -15.366200   49.378700   45.255900
  C    -16.763600   50.397100   44.996400
  C    -16.538200   51.698200   44.651600
  C    -15.152200   51.924000   44.813700
  C    -14.409700   50.887300   45.238300
  H    -14.608100   52.839200   44.633900
  C    -17.589600   52.806200   44.241300
  H    -18.541200   52.532500   44.603300
  H    -17.688400   52.768300   43.174800
  C    -17.295500   54.253500   44.774900
  H    -17.005100   54.255400   45.820800
  H    -16.424600   54.618900   44.276500
  C    -18.479200   55.209500   44.657200
  H    -19.416000   54.984100   45.134800
  H    -18.222400   56.190500   45.020000
  H    -18.775100   55.302500   43.609700
  S    -11.978200   50.223300   44.184900
  C    -10.522500   50.897100   44.800700
  C    -10.768000   51.495400   45.976300
  C    -12.168300   51.652300   46.301700
  C    -12.996300   51.023900   45.358600
  H    -10.005600   51.859500   46.527900
  C    -12.600300   52.463900   47.492500
  H    -11.942500   52.373400   48.295400
  H    -13.523300   52.064800   47.819000
  C    -12.972500   53.911500   47.141600
  H    -13.267700   54.463700   48.045000
  H    -13.814100   53.919200   46.467900
  C    -11.797800   54.748600   46.543800
  H    -11.497100   54.274600   45.631900
  H    -10.988100   54.756500   47.305000
  H    -12.103600   55.791200   46.426600
  H    -17.755000   50.001700   44.985700
  H     -9.486640   50.714000   44.434000

 Total Charge           Charge          ....    0
 Multiplicity           Mult            ....    1
 Number of Electrons    NEL             ....  134
 Basis Dimension        Dim             ....  322

ORBITAL ENERGIES
----------------

  NO   OCC          E(Eh)            E(eV)
   0   2.0000     -88.969665     -2420.9877
   1   2.0000     -88.957506     -2420.6568
   2   2.0000     -10.321836      -280.8714
   3   2.0000     -10.321435      -280.8605
   4   2.0000     -10.312150      -280.6079
   5   2.0000     -10.311852      -280.5998
   6   2.0000     -10.302855      -280.3550
   7   2.0000     -10.301545      -280.3193
   8   2.0000     -10.298975      -280.2494
   9   2.0000     -10.290741      -280.0253
  10   2.0000     -10.287970      -279.9499
  11   2.0000     -10.283338      -279.8239
  12   2.0000     -10.279196      -279.7112
  13   2.0000     -10.279180      -279.7107
  14   2.0000     -10.278788      -279.7000
  15   2.0000     -10.274046      -279.5710
  16   2.0000      -8.083917      -219.9746
  17   2.0000      -8.073288      -219.6853
  18   2.0000      -6.042461      -164.4237
  19   2.0000      -6.038866      -164.3259
  20   2.0000      -6.034286      -164.2013
  21   2.0000      -6.031839      -164.1347
  22   2.0000      -6.027544      -164.0178
  23   2.0000      -6.024041      -163.9225
  24   2.0000      -1.010621       -27.5004
  25   2.0000      -0.987847       -26.8807
  26   2.0000      -0.908855       -24.7312
  27   2.0000      -0.907689       -24.6995
  28   2.0000      -0.878078       -23.8937
  29   2.0000      -0.852241       -23.1906
  30   2.0000      -0.840611       -22.8742
  31   2.0000      -0.818376       -22.2691
  32   2.0000      -0.787834       -21.4380
  33   2.0000      -0.774999       -21.0888
  34   2.0000      -0.715939       -19.4817
  35   2.0000      -0.702345       -19.1118
  36   2.0000      -0.687092       -18.6967
  37   2.0000      -0.661518       -18.0008
  38   2.0000      -0.646445       -17.5907
  39   2.0000      -0.621639       -16.9156
  40   2.0000      -0.594722       -16.1832
  41   2.0000      -0.569928       -15.5085
  42   2.0000      -0.564445       -15.3593
  43   2.0000      -0.555366       -15.1123
  44   2.0000      -0.545427       -14.8418
  45   2.0000      -0.529080       -14.3970
  46   2.0000      -0.516075       -14.0431
  47   2.0000      -0.508051       -13.8248
  48   2.0000      -0.499740       -13.5986
  49   2.0000      -0.495926       -13.4948
  50   2.0000      -0.493704       -13.4344
  51   2.0000      -0.484112       -13.1734
  52   2.0000      -0.475488       -12.9387
  53   2.0000      -0.469440       -12.7741
  54   2.0000      -0.463266       -12.6061
  55   2.0000      -0.448586       -12.2066
  56   2.0000      -0.441242       -12.0068
  57   2.0000      -0.438669       -11.9368
  58   2.0000      -0.437037       -11.8924
  59   2.0000      -0.432928       -11.7806
  60   2.0000      -0.420110       -11.4318
  61   2.0000      -0.417328       -11.3561
  62   2.0000      -0.409930       -11.1548
  63   2.0000      -0.344394        -9.3714
  64   2.0000      -0.333175        -9.0661
  65   2.0000      -0.322715        -8.7815
  66   2.0000      -0.299373        -8.1463
  67   0.0000       0.040652         1.1062
  68   0.0000       0.059315         1.6140
  69   0.0000       0.114039         3.1032
  70   0.0000       0.122558         3.3350
  71   0.0000       0.139174         3.7871

MULLIKEN ATOMIC CHARGES
-----------------------
   0 S :    0.122325
   1 C :   -0.120890
   2 C :   -0.051372
   3 C :   -0.003519
   4 C :   -0.144472
   5 H :    0.020441
   6 C :    0.117256
   7 H :    0.002419
   8 H :    0.038459
   9 C :   -0.082608
  10 H :    0.035460
  11 H :    0.030568
  12 C :   -0.037008
  13 H :    0.027884
  14 H :    0.029034
  15 H :    0.022362
  16 S :    0.098455
  17 C :   -0.087932
  18 C :    0.002212
  19 C :   -0.063463
  20 C :   -0.195535
  21 H :   -0.030690
  22 C :    0.155378
  23 H :    0.006119
  24 H :    0.011423
  25 C :   -0.088389
  26 H :    0.025258
  27 H :    0.014978
  28 C :   -0.057971
  29 H :    0.045478
  30 H :    0.025154
  31 H :    0.035207
  32 H :    0.028889
  33 H :    0.069090
Sum of atomic charges:    0.0000000

LOEWDIN ATOMIC CHARGES
----------------------
   0 S :    0.387325
   1 C :   -0.179477
   2 C :   -0.061532
   3 C :   -0.050249
   4 C :   -0.195062
   5 H :    0.029694
   6 C :   -0.015593
   7 H :    0.021996
   8 H :    0.032291
   9 C :   -0.037839
  10 H :    0.026536
  11 H :    0.021225
  12 C :   -0.064675
  13 H :    0.023755
  14 H :    0.026865
  15 H :    0.025102
  16 S :    0.409942
  17 C :   -0.196508
  18 C :   -0.066761
  19 C :   -0.048648
  20 C :   -0.200047
  21 H :    0.010925
  22 C :   -0.023829
  23 H :    0.021734
  24 H :    0.030966
  25 C :   -0.032782
  26 H :    0.023479
  27 H :    0.015026
  28 C :   -0.065609
  29 H :    0.020898
  30 H :    0.024371
  31 H :    0.025539
  32 H :    0.018714
  33 H :    0.042227

  Mayer bond orders larger than 0.100000
B(  0-S ,  1-C ) :   1.1397 B(  0-S ,  4-C ) :   1.0983 B(  1-C ,  2-C ) :   1.6571
B(  1-C , 32-H ) :   0.9620 B(  2-C ,  3-C ) :   1.2114 B(  2-C ,  6-C ) :   1.0018
B(  3-C ,  4-C ) :   1.6300 B(  3-C ,  5-H ) :   0.9826 B(  4-C , 20-C ) :   1.0648
B(  6-C ,  7-H ) :   0.9441 B(  6-C ,  8-H ) :   0.9346 B(  6-C ,  9-C ) :   1.0589
B(  9-C , 10-H ) :   0.9617 B(  9-C , 11-H ) :   0.9493 B(  9-C , 12-C ) :   1.0901
B( 12-C , 13-H ) :   0.9754 B( 12-C , 14-H ) :   0.9727 B( 12-C , 15-H ) :   0.9736
B( 16-S , 17-C ) :   1.1518 B( 16-S , 20-C ) :   1.1454 B( 17-C , 18-C ) :   1.6142
B( 17-C , 33-H ) :   0.9608 B( 18-C , 19-C ) :   1.2301 B( 18-C , 21-H ) :   1.0076
B( 19-C , 20-C ) :   1.5862 B( 19-C , 22-C ) :   1.0554 B( 22-C , 23-H ) :   0.9350
B( 22-C , 24-H ) :   0.9134 B( 22-C , 25-C ) :   1.0763 B( 25-C , 26-H ) :   0.9544
B( 25-C , 27-H ) :   0.9546 B( 25-C , 28-C ) :   1.0766 B( 28-C , 29-H ) :   0.9743
B( 28-C , 30-H ) :   0.9757 B( 28-C , 31-H ) :   0.9747

Dispersion correction           -0.015066206
FINAL SINGLE POINT ENERGY     -1339.870182596162

DIPOLE MOMENT
-------------
                                X             Y             Z
Electronic contribution:      9.27730     -28.74453      -6.05289
Nuclear contribution   :     -9.53121      29.38947       6.20978
                        -----------------------------------------
Total Dipole Moment    :     -0.25391       0.64494       0.15688
                        -----------------------------------------
Magnitude (a.u.)       :      0.71066
Magnitude (Debye)      :      1.80634

Rotational constants in cm-1:     0.017684     0.009472     0.006978
Rotational constants in MHz :   530.155024   283.973629   209.187451

                             ****ORCA TERMINATED NORMALLY****
TOTAL RUN TIME: 0 days 0 hours 0 minutes 35 seconds 472 msec
