                         Program Version 4.2.1 -  RELEASE  -
|  1> ! wB97X-D3 SP def2-SVP
|  2> %pal
|  3> nprocs 16
|  4> end
|  5>
|  6> * xyz 0 1
|  7> S 	 -56.9581 	 27.5857 	 99.6623
|  8> C 	 -55.2542 	 27.2976 	 100.213
|  9> C 	 -54.9408 	 25.9808 	 100.349
| 10> C 	 -56.0424 	 25.175 	 99.9326
| 11> C 	 -57.0698 	 25.8968 	 99.4115
| 12> H 	 -56.177 	 24.0902 	 99.9238
| 13> C 	 -53.5982 	 25.3919 	 100.763
| 14> H 	 -52.8122 	 26.1345 	 100.457
| 15> H 	 -53.3247 	 24.4295 	 100.299
| 16> C 	 -53.4309 	 25.0929 	 102.327
| 17> H 	 -53.3942 	 26.0176 	 102.825
| 18> H 	 -54.4061 	 24.6591 	 102.688
| 19> C 	 -52.2889 	 24.1927 	 102.56
| 20> H 	 -52.2118 	 23.9824 	 103.619
| 21> H 	 -52.4844 	 23.2273 	 102.076
| 22> H 	 -51.3884 	 24.6759 	 102.142
| 23> S 	 -59.7693 	 25.5418 	 99.861
| 24> C 	 -60.6906 	 24.3872 	 98.9814
| 25> C 	 -59.9128 	 23.9115 	 97.9276
| 26> C 	 -58.5341 	 24.3174 	 97.9493
| 27> C 	 -58.2859 	 25.2996 	 98.8682
| 28> H 	 -60.3686 	 23.1603 	 97.2633
| 29> C 	 -57.4733 	 23.7007 	 96.9724
| 30> H 	 -57.843 	 22.8275 	 96.5583
| 31> H 	 -56.5241 	 23.4797 	 97.4925
| 32> C 	 -57.047 	 24.6872 	 95.8967
| 33> H 	 -56.3233 	 25.4553 	 96.3122
| 34> H 	 -57.9359 	 25.1534 	 95.5316
| 35> C 	 -56.3583 	 24.0234 	 94.6615
| 36> H 	 -55.4581 	 23.4179 	 94.8488
| 37> H 	 -56.1299 	 24.8353 	 93.963
| 38> H 	 -56.9675 	 23.3562 	 94.0549
| 39> H 	 -54.446 	 28.0018 	 100.458
| 40> H 	 -61.7065 	 24.1458 	 99.2643
| 41> *
| 42>
| 43>                          ****END OF INPUT****

CARTESIAN COORDINATES (ANGSTROEM)
---------------------------------
  S    -56.958100   27.585700   99.662300
  C    -55.254200   27.297600  100.213000
  C    -54.940800   25.980800  100.349000
  C    -56.042400   25.175000   99.932600
  C    -57.069800   25.896800   99.411500
  H    -56.177000   24.090200   99.923800
  C    -53.598200   25.391900  100.763000
  H    -52.812200   26.134500  100.457000
  H    -53.324700   24.429500  100.299000
  C    -53.430900   25.092900  102.327000
  H    -53.394200   26.017600  102.825000
  H    -54.406100   24.659100  102.688000
  C    -52.288900   24.192700  102.560000
  H    -52.211800   23.982400  103.619000
  H    -52.484400   23.227300  102.076000
  H    -51.388400   24.675900  102.142000
  S    -59.769300   25.541800   99.861000
  C    -60.690600   24.387200   98.981400
  C    -59.912800   23.911500   97.927600
  C    -58.534100   24.317400   97.949300
  C    -58.285900   25.299600   98.868200
  H    -60.368600   23.160300   97.263300
  C    -57.473300   23.700700   96.972400
  H    -57.843000   22.827500   96.558300
  H    -56.524100   23.479700   97.492500
  C    -57.047000   24.687200   95.896700
  H    -56.323300   25.455300   96.312200
  H    -57.935900   25.153400   95.531600
  C    -56.358300   24.023400   94.661500
  H    -55.458100   23.417900   94.848800
  H    -56.129900   24.835300   93.963000
  H    -56.967500   23.356200   94.054900
  H    -54.446000   28.001800  100.458000
  H    -61.706500   24.145800   99.264300

 Total Charge           Charge          ....    0
 Multiplicity           Mult            ....    1
 Number of Electrons    NEL             ....  134
 Basis Dimension        Dim             ....  322

ORBITAL ENERGIES
----------------

  NO   OCC          E(Eh)            E(eV)
   0   2.0000     -88.970386     -2421.0073
   1   2.0000     -88.958967     -2420.6966
   2   2.0000     -10.325368      -280.9676
   3   2.0000     -10.323414      -280.9144
   4   2.0000     -10.319445      -280.8064
   5   2.0000     -10.316065      -280.7144
   6   2.0000     -10.307448      -280.4799
   7   2.0000     -10.301762      -280.3252
   8   2.0000     -10.301543      -280.3192
   9   2.0000     -10.297827      -280.2181
  10   2.0000     -10.290025      -280.0058
  11   2.0000     -10.289083      -279.9802
  12   2.0000     -10.285903      -279.8936
  13   2.0000     -10.284999      -279.8690
  14   2.0000     -10.279405      -279.7168
  15   2.0000     -10.277710      -279.6707
  16   2.0000      -8.084787      -219.9982
  17   2.0000      -8.074040      -219.7058
  18   2.0000      -6.043382      -164.4488
  19   2.0000      -6.039650      -164.3472
  20   2.0000      -6.035151      -164.2248
  21   2.0000      -6.032532      -164.1535
  22   2.0000      -6.028344      -164.0396
  23   2.0000      -6.024939      -163.9469
  24   2.0000      -1.008545       -27.4439
  25   2.0000      -0.983546       -26.7637
  26   2.0000      -0.912774       -24.8378
  27   2.0000      -0.905305       -24.6346
  28   2.0000      -0.873714       -23.7750
  29   2.0000      -0.851918       -23.1819
  30   2.0000      -0.840610       -22.8742
  31   2.0000      -0.810351       -22.0508
  32   2.0000      -0.782772       -21.3003
  33   2.0000      -0.774272       -21.0690
  34   2.0000      -0.703378       -19.1399
  35   2.0000      -0.698889       -19.0177
  36   2.0000      -0.690190       -18.7810
  37   2.0000      -0.662184       -18.0189
  38   2.0000      -0.639097       -17.3907
  39   2.0000      -0.615049       -16.7363
  40   2.0000      -0.596833       -16.2406
  41   2.0000      -0.572634       -15.5822
  42   2.0000      -0.563835       -15.3427
  43   2.0000      -0.559152       -15.2153
  44   2.0000      -0.528471       -14.3804
  45   2.0000      -0.524296       -14.2668
  46   2.0000      -0.517662       -14.0863
  47   2.0000      -0.512538       -13.9469
  48   2.0000      -0.496530       -13.5113
  49   2.0000      -0.495472       -13.4825
  50   2.0000      -0.493232       -13.4215
  51   2.0000      -0.480399       -13.0723
  52   2.0000      -0.468088       -12.7373
  53   2.0000      -0.466728       -12.7003
  54   2.0000      -0.457075       -12.4376
  55   2.0000      -0.454146       -12.3579
  56   2.0000      -0.442463       -12.0400
  57   2.0000      -0.437130       -11.8949
  58   2.0000      -0.432164       -11.7598
  59   2.0000      -0.424850       -11.5608
  60   2.0000      -0.419959       -11.4277
  61   2.0000      -0.418383       -11.3848
  62   2.0000      -0.410178       -11.1615
  63   2.0000      -0.340598        -9.2681
  64   2.0000      -0.334097        -9.0912
  65   2.0000      -0.328622        -8.9423
  66   2.0000      -0.296491        -8.0679
  67   0.0000       0.037101         1.0096
  68   0.0000       0.061287         1.6677
  69   0.0000       0.102528         2.7899
  70   0.0000       0.120718         3.2849
  71   0.0000       0.129082         3.5125

MULLIKEN ATOMIC CHARGES
-----------------------
   0 S :    0.121166
   1 C :   -0.116126
   2 C :   -0.051861
   3 C :    0.022487
   4 C :   -0.163884
   5 H :    0.020466
   6 C :    0.017140
   7 H :    0.032480
   8 H :    0.025320
   9 C :   -0.077984
  10 H :    0.016939
  11 H :    0.030863
  12 C :   -0.023179
  13 H :    0.037410
  14 H :    0.033304
  15 H :    0.037157
  16 S :    0.081839
  17 C :   -0.100369
  18 C :   -0.042512
  19 C :   -0.059940
  20 C :   -0.138796
  21 H :    0.027220
  22 C :    0.131963
  23 H :   -0.005455
  24 H :    0.024563
  25 C :   -0.090723
  26 H :    0.056635
  27 H :    0.028000
  28 C :   -0.067753
  29 H :    0.031796
  30 H :    0.034927
  31 H :    0.021369
  32 H :    0.039422
  33 H :    0.066114
Sum of atomic charges:   -0.0000000

LOEWDIN ATOMIC CHARGES
----------------------
   0 S :    0.398708
   1 C :   -0.184306
   2 C :   -0.062547
   3 C :   -0.061778
   4 C :   -0.205727
   5 H :    0.035252
   6 C :   -0.032160
   7 H :    0.033208
   8 H :    0.029063
   9 C :   -0.040093
  10 H :    0.014322
  11 H :    0.027356
  12 C :   -0.064966
  13 H :    0.028808
  14 H :    0.027938
  15 H :    0.030104
  16 S :    0.391098
  17 C :   -0.187912
  18 C :   -0.082219
  19 C :   -0.052645
  20 C :   -0.186421
  21 H :    0.032928
  22 C :   -0.020826
  23 H :    0.016081
  24 H :    0.033570
  25 C :   -0.037444
  26 H :    0.036423
  27 H :    0.020777
  28 C :   -0.074615
  29 H :    0.023913
  30 H :    0.029642
  31 H :    0.020478
  32 H :    0.032411
  33 H :    0.031577

  Mayer bond orders larger than 0.100000
B(  0-S ,  1-C ) :   1.1042 B(  0-S ,  4-C ) :   1.1386 B(  1-C ,  2-C ) :   1.6795
B(  1-C , 32-H ) :   0.9567 B(  2-C ,  3-C ) :   1.1858 B(  2-C ,  6-C ) :   1.0206
B(  3-C ,  4-C ) :   1.6301 B(  3-C ,  5-H ) :   0.9908 B(  4-C , 20-C ) :   1.0007
B(  6-C ,  7-H ) :   0.9393 B(  6-C ,  8-H ) :   0.9525 B(  6-C ,  9-C ) :   1.0417
B(  9-C , 10-H ) :   0.9533 B(  9-C , 11-H ) :   0.9583 B(  9-C , 12-C ) :   1.0916
B( 12-C , 13-H ) :   0.9693 B( 12-C , 14-H ) :   0.9706 B( 12-C , 15-H ) :   0.9699
B( 16-S , 17-C ) :   1.1768 B( 16-S , 20-C ) :   1.1284 B( 17-C , 18-C ) :   1.5861
B( 17-C , 20-C ) :   0.1023 B( 17-C , 33-H ) :   0.9717 B( 18-C , 19-C ) :   1.2348
B( 18-C , 21-H ) :   0.9872 B( 19-C , 20-C ) :   1.6301 B( 19-C , 22-C ) :   1.0428
B( 22-C , 23-H ) :   0.9341 B( 22-C , 24-H ) :   0.9324 B( 22-C , 25-C ) :   1.0680
B( 25-C , 26-H ) :   0.9552 B( 25-C , 27-H ) :   0.9559 B( 25-C , 28-C ) :   1.0825
B( 28-C , 29-H ) :   0.9756 B( 28-C , 30-H ) :   0.9748 B( 28-C , 31-H ) :   0.9751

Dispersion correction           -0.013832623
FINAL SINGLE POINT ENERGY     -1339.872063824293

DIPOLE MOMENT
-------------
                                X             Y             Z
Electronic contribution:    -22.55712      13.53259       5.86239
Nuclear contribution   :     22.96308     -14.09876      -5.91782
                        -----------------------------------------
Total Dipole Moment    :      0.40596      -0.56617      -0.05544
                        -----------------------------------------
Magnitude (a.u.)       :      0.69888
Magnitude (Debye)      :      1.77640

Rotational constants in cm-1:     0.017179     0.008071     0.006820
Rotational constants in MHz :   515.019013   241.974262   204.470418

                             ****ORCA TERMINATED NORMALLY****
TOTAL RUN TIME: 0 days 0 hours 0 minutes 29 seconds 285 msec
