                         Program Version 4.2.1 -  RELEASE  -
|  1> ! wB97X-D3 SP def2-SVP
|  2> %pal
|  3> nprocs 16
|  4> end
|  5>
|  6> * xyz 0 1
|  7> S 	 -72.2335 	 57.5088 	 123.199
|  8> C 	 -72.2665 	 59.0798 	 122.417
|  9> C 	 -71.3795 	 59.9731 	 123.023
| 10> C 	 -70.6196 	 59.3249 	 124.072
| 11> C 	 -70.9528 	 58.0213 	 124.272
| 12> H 	 -69.9534 	 59.8674 	 124.727
| 13> C 	 -71.1734 	 61.4656 	 122.642
| 14> H 	 -70.9168 	 61.3844 	 121.488
| 15> H 	 -70.353 	 61.754 	 123.219
| 16> C 	 -72.317 	 62.4041 	 123.003
| 17> H 	 -73.1884 	 62.2816 	 122.371
| 18> H 	 -72.6394 	 62.1315 	 124.013
| 19> C 	 -71.74 	 63.8471 	 123.175
| 20> H 	 -70.8703 	 63.9937 	 123.905
| 21> H 	 -71.3134 	 63.9859 	 122.144
| 22> H 	 -72.5507 	 64.6113 	 123.42
| 23> S 	 -71.6897 	 56.4026 	 126.301
| 24> C 	 -70.4405 	 55.6594 	 127.236
| 25> C 	 -69.1855 	 55.8296 	 126.74
| 26> C 	 -69.1349 	 56.7829 	 125.707
| 27> C 	 -70.4435 	 57.2228 	 125.365
| 28> H 	 -68.252 	 55.4251 	 127.19
| 29> C 	 -67.8375 	 57.2126 	 124.931
| 30> H 	 -67.6979 	 58.2349 	 124.646
| 31> H 	 -67.9207 	 56.8121 	 123.872
| 32> C 	 -66.5189 	 56.6328 	 125.508
| 33> H 	 -66.5861 	 55.5584 	 125.687
| 34> H 	 -66.3853 	 57.0599 	 126.505
| 35> C 	 -65.305 	 56.8214 	 124.582
| 36> H 	 -65.5087 	 56.5301 	 123.581
| 37> H 	 -64.3825 	 56.2702 	 124.969
| 38> H 	 -65.206 	 57.9274 	 124.469
| 39> H 	 -72.9082 	 59.3548 	 121.531
| 40> H 	 -70.5915 	 54.7623 	 127.762
| 41> *
| 42>
| 43>                          ****END OF INPUT****

CARTESIAN COORDINATES (ANGSTROEM)
---------------------------------
  S    -72.233500   57.508800  123.199000
  C    -72.266500   59.079800  122.417000
  C    -71.379500   59.973100  123.023000
  C    -70.619600   59.324900  124.072000
  C    -70.952800   58.021300  124.272000
  H    -69.953400   59.867400  124.727000
  C    -71.173400   61.465600  122.642000
  H    -70.916800   61.384400  121.488000
  H    -70.353000   61.754000  123.219000
  C    -72.317000   62.404100  123.003000
  H    -73.188400   62.281600  122.371000
  H    -72.639400   62.131500  124.013000
  C    -71.740000   63.847100  123.175000
  H    -70.870300   63.993700  123.905000
  H    -71.313400   63.985900  122.144000
  H    -72.550700   64.611300  123.420000
  S    -71.689700   56.402600  126.301000
  C    -70.440500   55.659400  127.236000
  C    -69.185500   55.829600  126.740000
  C    -69.134900   56.782900  125.707000
  C    -70.443500   57.222800  125.365000
  H    -68.252000   55.425100  127.190000
  C    -67.837500   57.212600  124.931000
  H    -67.697900   58.234900  124.646000
  H    -67.920700   56.812100  123.872000
  C    -66.518900   56.632800  125.508000
  H    -66.586100   55.558400  125.687000
  H    -66.385300   57.059900  126.505000
  C    -65.305000   56.821400  124.582000
  H    -65.508700   56.530100  123.581000
  H    -64.382500   56.270200  124.969000
  H    -65.206000   57.927400  124.469000
  H    -72.908200   59.354800  121.531000
  H    -70.591500   54.762300  127.762000

 Total Charge           Charge          ....    0
 Multiplicity           Mult            ....    1
 Number of Electrons    NEL             ....  134
 Basis Dimension        Dim             ....  322

ORBITAL ENERGIES
----------------

  NO   OCC          E(Eh)            E(eV)
   0   2.0000     -88.968730     -2420.9622
   1   2.0000     -88.967896     -2420.9395
   2   2.0000     -10.327135      -281.0156
   3   2.0000     -10.324940      -280.9559
   4   2.0000     -10.319177      -280.7991
   5   2.0000     -10.310345      -280.5588
   6   2.0000     -10.305451      -280.4256
   7   2.0000     -10.303856      -280.3822
   8   2.0000     -10.300239      -280.2837
   9   2.0000     -10.299909      -280.2748
  10   2.0000     -10.295680      -280.1597
  11   2.0000     -10.293321      -280.0955
  12   2.0000     -10.291473      -280.0452
  13   2.0000     -10.290267      -280.0124
  14   2.0000     -10.289219      -279.9839
  15   2.0000     -10.286051      -279.8977
  16   2.0000      -8.083247      -219.9563
  17   2.0000      -8.082814      -219.9446
  18   2.0000      -6.041806      -164.4059
  19   2.0000      -6.041057      -164.3855
  20   2.0000      -6.037839      -164.2980
  21   2.0000      -6.037426      -164.2867
  22   2.0000      -6.033901      -164.1908
  23   2.0000      -6.033715      -164.1857
  24   2.0000      -1.007792       -27.4234
  25   2.0000      -0.983560       -26.7640
  26   2.0000      -0.911291       -24.7975
  27   2.0000      -0.905240       -24.6328
  28   2.0000      -0.869782       -23.6680
  29   2.0000      -0.852419       -23.1955
  30   2.0000      -0.844310       -22.9749
  31   2.0000      -0.810763       -22.0620
  32   2.0000      -0.778170       -21.1751
  33   2.0000      -0.765238       -20.8232
  34   2.0000      -0.705328       -19.1929
  35   2.0000      -0.702784       -19.1237
  36   2.0000      -0.696828       -18.9617
  37   2.0000      -0.652381       -17.7522
  38   2.0000      -0.636079       -17.3086
  39   2.0000      -0.617566       -16.8048
  40   2.0000      -0.600926       -16.3520
  41   2.0000      -0.570081       -15.5127
  42   2.0000      -0.558683       -15.2025
  43   2.0000      -0.556099       -15.1322
  44   2.0000      -0.528379       -14.3779
  45   2.0000      -0.521645       -14.1947
  46   2.0000      -0.514834       -14.0093
  47   2.0000      -0.506780       -13.7902
  48   2.0000      -0.497640       -13.5415
  49   2.0000      -0.488939       -13.3047
  50   2.0000      -0.485926       -13.2227
  51   2.0000      -0.481444       -13.1008
  52   2.0000      -0.472050       -12.8451
  53   2.0000      -0.465846       -12.6763
  54   2.0000      -0.459254       -12.4969
  55   2.0000      -0.457154       -12.4398
  56   2.0000      -0.445693       -12.1279
  57   2.0000      -0.442078       -12.0296
  58   2.0000      -0.432752       -11.7758
  59   2.0000      -0.430279       -11.7085
  60   2.0000      -0.423861       -11.5339
  61   2.0000      -0.413384       -11.2487
  62   2.0000      -0.400587       -10.9005
  63   2.0000      -0.347470        -9.4551
  64   2.0000      -0.335372        -9.1259
  65   2.0000      -0.328453        -8.9377
  66   2.0000      -0.288879        -7.8608
  67   0.0000       0.026396         0.7183
  68   0.0000       0.065235         1.7751
  69   0.0000       0.108595         2.9550
  70   0.0000       0.125655         3.4192
  71   0.0000       0.130595         3.5537

MULLIKEN ATOMIC CHARGES
-----------------------
   0 S :    0.117532
   1 C :   -0.151545
   2 C :   -0.116601
   3 C :    0.019881
   4 C :   -0.132456
   5 H :    0.015112
   6 C :    0.067031
   7 H :    0.061964
   8 H :   -0.004231
   9 C :   -0.045143
  10 H :    0.037202
  11 H :    0.030508
  12 C :   -0.120825
  13 H :    0.055159
  14 H :    0.038114
  15 H :    0.056102
  16 S :    0.106513
  17 C :   -0.034049
  18 C :   -0.093615
  19 C :   -0.002928
  20 C :   -0.179068
  21 H :    0.039222
  22 C :    0.041044
  23 H :    0.019537
  24 H :    0.036510
  25 C :   -0.110716
  26 H :    0.032241
  27 H :    0.036650
  28 C :   -0.039547
  29 H :    0.021783
  30 H :    0.057094
  31 H :    0.027977
  32 H :    0.068329
  33 H :    0.045219
Sum of atomic charges:   -0.0000000

LOEWDIN ATOMIC CHARGES
----------------------
   0 S :    0.403298
   1 C :   -0.212269
   2 C :   -0.062795
   3 C :   -0.064395
   4 C :   -0.202270
   5 H :    0.030414
   6 C :   -0.032466
   7 H :    0.048070
   8 H :    0.018857
   9 C :   -0.042965
  10 H :    0.024793
  11 H :    0.025850
  12 C :   -0.081439
  13 H :    0.033626
  14 H :    0.028373
  15 H :    0.033478
  16 S :    0.417999
  17 C :   -0.198986
  18 C :   -0.072742
  19 C :   -0.050237
  20 C :   -0.190256
  21 H :    0.040506
  22 C :   -0.036840
  23 H :    0.025336
  24 H :    0.041665
  25 C :   -0.048987
  26 H :    0.020521
  27 H :    0.022905
  28 C :   -0.067040
  29 H :    0.018671
  30 H :    0.039194
  31 H :    0.028535
  32 H :    0.040399
  33 H :    0.021199

  Mayer bond orders larger than 0.100000
B(  0-S ,  1-C ) :   1.1299 B(  0-S ,  4-C ) :   1.1434 B(  1-C ,  2-C ) :   1.6138
B(  1-C , 32-H ) :   0.9634 B(  2-C ,  3-C ) :   1.2493 B(  2-C ,  6-C ) :   1.0138
B(  3-C ,  4-C ) :   1.5776 B(  3-C ,  5-H ) :   0.9916 B(  4-C , 20-C ) :   1.0582
B(  6-C ,  7-H ) :   0.9349 B(  6-C ,  8-H ) :   0.9384 B(  6-C ,  9-C ) :   1.0596
B(  9-C , 10-H ) :   0.9572 B(  9-C , 11-H ) :   0.9562 B(  9-C , 12-C ) :   1.0613
B( 12-C , 13-H ) :   0.9749 B( 12-C , 14-H ) :   0.9761 B( 12-C , 15-H ) :   0.9741
B( 16-S , 17-C ) :   1.1578 B( 16-S , 20-C ) :   1.1617 B( 17-C , 18-C ) :   1.6059
B( 17-C , 20-C ) :   0.1023 B( 17-C , 33-H ) :   0.9517 B( 18-C , 19-C ) :   1.3009
B( 18-C , 21-H ) :   0.9697 B( 19-C , 20-C ) :   1.5584 B( 19-C , 22-C ) :   1.0125
B( 22-C , 23-H ) :   0.9440 B( 22-C , 24-H ) :   0.9302 B( 22-C , 25-C ) :   1.0667
B( 25-C , 26-H ) :   0.9483 B( 25-C , 27-H ) :   0.9569 B( 25-C , 28-C ) :   1.0791
B( 28-C , 29-H ) :   0.9734 B( 28-C , 30-H ) :   0.9726 B( 28-C , 31-H ) :   0.9735

Dispersion correction           -0.013175968
FINAL SINGLE POINT ENERGY     -1339.856069921488

DIPOLE MOMENT
-------------
                                X             Y             Z
Electronic contribution:    -18.70437     -18.42475       5.42408
Nuclear contribution   :     19.13359      18.72159      -5.61607
                        -----------------------------------------
Total Dipole Moment    :      0.42921       0.29684      -0.19199
                        -----------------------------------------
Magnitude (a.u.)       :      0.55606
Magnitude (Debye)      :      1.41338

Rotational constants in cm-1:     0.017745     0.007491     0.006050
Rotational constants in MHz :   531.991016   224.562047   181.364764

                             ****ORCA TERMINATED NORMALLY****
TOTAL RUN TIME: 0 days 0 hours 0 minutes 32 seconds 988 msec
