                         Program Version 4.2.1 -  RELEASE  -
|  1> ! wB97X-D3 SP def2-SVP
|  2> %pal
|  3> nprocs 16
|  4> end
|  5>
|  6> * xyz 0 1
|  7> S 	 45.5276 	 18.6393 	 45.9497
|  8> C 	 44.7899 	 17.0495 	 45.7689
|  9> C 	 43.4201 	 17.1134 	 45.3698
| 10> C 	 43.0072 	 18.4385 	 45.2463
| 11> C 	 43.862 	 19.3263 	 45.8485
| 12> H 	 42.1019 	 18.8054 	 44.9881
| 13> C 	 42.4735 	 15.8933 	 45.2031
| 14> H 	 42.5928 	 15.3623 	 46.131
| 15> H 	 42.996 	 15.3139 	 44.4884
| 16> C 	 41.0354 	 16.2344 	 44.7399
| 17> H 	 41.1219 	 16.9684 	 43.9682
| 18> H 	 40.5999 	 15.2935 	 44.3673
| 19> C 	 40.189 	 16.7187 	 45.8957
| 20> H 	 39.9008 	 15.8287 	 46.5301
| 21> H 	 40.6992 	 17.4023 	 46.5306
| 22> H 	 39.1786 	 17.0752 	 45.5043
| 23> S 	 45.0048 	 21.6069 	 45.1506
| 24> C 	 44.3706 	 23.1196 	 45.693
| 25> C 	 43.0737 	 22.931 	 46.1873
| 26> C 	 42.7105 	 21.5991 	 46.3213
| 27> C 	 43.7013 	 20.7431 	 45.8106
| 28> H 	 42.4137 	 23.6894 	 46.464
| 29> C 	 41.4863 	 21.2002 	 47.1434
| 30> H 	 41.7455 	 21.2831 	 48.1529
| 31> H 	 41.3397 	 20.1432 	 46.9509
| 32> C 	 40.1811 	 21.9064 	 46.7893
| 33> H 	 40.2176 	 23.0004 	 46.8453
| 34> H 	 39.417 	 21.5978 	 47.5283
| 35> C 	 39.6059 	 21.515 	 45.3911
| 36> H 	 40.1638 	 22.0232 	 44.5996
| 37> H 	 38.628 	 21.8928 	 45.3716
| 38> H 	 39.6048 	 20.4943 	 45.162
| 39> H 	 45.18 	 16.0549 	 45.9295
| 40> H 	 44.7195 	 24.0771 	 45.4831
| 41> *
| 42>
| 43>                          ****END OF INPUT****

CARTESIAN COORDINATES (ANGSTROEM)
---------------------------------
  S     45.527600   18.639300   45.949700
  C     44.789900   17.049500   45.768900
  C     43.420100   17.113400   45.369800
  C     43.007200   18.438500   45.246300
  C     43.862000   19.326300   45.848500
  H     42.101900   18.805400   44.988100
  C     42.473500   15.893300   45.203100
  H     42.592800   15.362300   46.131000
  H     42.996000   15.313900   44.488400
  C     41.035400   16.234400   44.739900
  H     41.121900   16.968400   43.968200
  H     40.599900   15.293500   44.367300
  C     40.189000   16.718700   45.895700
  H     39.900800   15.828700   46.530100
  H     40.699200   17.402300   46.530600
  H     39.178600   17.075200   45.504300
  S     45.004800   21.606900   45.150600
  C     44.370600   23.119600   45.693000
  C     43.073700   22.931000   46.187300
  C     42.710500   21.599100   46.321300
  C     43.701300   20.743100   45.810600
  H     42.413700   23.689400   46.464000
  C     41.486300   21.200200   47.143400
  H     41.745500   21.283100   48.152900
  H     41.339700   20.143200   46.950900
  C     40.181100   21.906400   46.789300
  H     40.217600   23.000400   46.845300
  H     39.417000   21.597800   47.528300
  C     39.605900   21.515000   45.391100
  H     40.163800   22.023200   44.599600
  H     38.628000   21.892800   45.371600
  H     39.604800   20.494300   45.162000
  H     45.180000   16.054900   45.929500
  H     44.719500   24.077100   45.483100

 Total Charge           Charge          ....    0
 Multiplicity           Mult            ....    1
 Number of Electrons    NEL             ....  134
 Basis Dimension        Dim             ....  322

ORBITAL ENERGIES
----------------

  NO   OCC          E(Eh)            E(eV)
   0   2.0000     -88.970216     -2421.0027
   1   2.0000     -88.965640     -2420.8781
   2   2.0000     -10.324832      -280.9530
   3   2.0000     -10.316712      -280.7320
   4   2.0000     -10.314177      -280.6630
   5   2.0000     -10.308423      -280.5065
   6   2.0000     -10.302164      -280.3361
   7   2.0000     -10.294264      -280.1212
   8   2.0000     -10.292013      -280.0599
   9   2.0000     -10.291532      -280.0468
  10   2.0000     -10.291513      -280.0463
  11   2.0000     -10.286133      -279.8999
  12   2.0000     -10.285213      -279.8749
  13   2.0000     -10.283256      -279.8216
  14   2.0000     -10.283149      -279.8187
  15   2.0000     -10.269732      -279.4536
  16   2.0000      -8.083472      -219.9624
  17   2.0000      -8.081481      -219.9083
  18   2.0000      -6.042064      -164.4129
  19   2.0000      -6.039890      -164.3538
  20   2.0000      -6.038508      -164.3162
  21   2.0000      -6.035665      -164.2388
  22   2.0000      -6.033889      -164.1905
  23   2.0000      -6.032444      -164.1512
  24   2.0000      -1.013157       -27.5694
  25   2.0000      -0.982765       -26.7424
  26   2.0000      -0.915182       -24.9034
  27   2.0000      -0.909546       -24.7500
  28   2.0000      -0.871420       -23.7125
  29   2.0000      -0.854596       -23.2547
  30   2.0000      -0.846002       -23.0209
  31   2.0000      -0.817127       -22.2351
  32   2.0000      -0.787435       -21.4272
  33   2.0000      -0.770240       -20.9593
  34   2.0000      -0.712539       -19.3892
  35   2.0000      -0.702608       -19.1189
  36   2.0000      -0.695147       -18.9159
  37   2.0000      -0.662705       -18.0331
  38   2.0000      -0.642861       -17.4931
  39   2.0000      -0.627646       -17.0791
  40   2.0000      -0.598701       -16.2915
  41   2.0000      -0.564930       -15.3725
  42   2.0000      -0.559297       -15.2192
  43   2.0000      -0.555408       -15.1134
  44   2.0000      -0.541013       -14.7217
  45   2.0000      -0.537047       -14.6138
  46   2.0000      -0.522426       -14.2159
  47   2.0000      -0.516399       -14.0519
  48   2.0000      -0.505231       -13.7480
  49   2.0000      -0.496146       -13.5008
  50   2.0000      -0.491636       -13.3781
  51   2.0000      -0.484380       -13.1806
  52   2.0000      -0.470549       -12.8043
  53   2.0000      -0.462793       -12.5932
  54   2.0000      -0.455909       -12.4059
  55   2.0000      -0.453563       -12.3421
  56   2.0000      -0.447136       -12.1672
  57   2.0000      -0.442128       -12.0309
  58   2.0000      -0.436709       -11.8835
  59   2.0000      -0.429422       -11.6852
  60   2.0000      -0.426038       -11.5931
  61   2.0000      -0.418079       -11.3765
  62   2.0000      -0.413269       -11.2456
  63   2.0000      -0.349411        -9.5080
  64   2.0000      -0.332813        -9.0563
  65   2.0000      -0.326554        -8.8860
  66   2.0000      -0.278140        -7.5686
  67   0.0000       0.019630         0.5341
  68   0.0000       0.065941         1.7944
  69   0.0000       0.100644         2.7387
  70   0.0000       0.125543         3.4162
  71   0.0000       0.127247         3.4626

MULLIKEN ATOMIC CHARGES
-----------------------
   0 S :    0.108078
   1 C :   -0.100674
   2 C :   -0.119474
   3 C :    0.052127
   4 C :   -0.137758
   5 H :   -0.034948
   6 C :    0.088640
   7 H :    0.031747
   8 H :    0.023595
   9 C :   -0.051325
  10 H :    0.035203
  11 H :    0.036990
  12 C :   -0.079496
  13 H :    0.034240
  14 H :    0.044093
  15 H :    0.046082
  16 S :    0.116286
  17 C :   -0.057015
  18 C :   -0.030531
  19 C :   -0.058624
  20 C :   -0.172154
  21 H :   -0.012507
  22 C :    0.133274
  23 H :    0.032173
  24 H :    0.001745
  25 C :   -0.115081
  26 H :    0.032952
  27 H :    0.032987
  28 C :   -0.021325
  29 H :    0.035614
  30 H :    0.021605
  31 H :    0.020635
  32 H :    0.032026
  33 H :    0.030820
Sum of atomic charges:    0.0000000

LOEWDIN ATOMIC CHARGES
----------------------
   0 S :    0.381735
   1 C :   -0.203462
   2 C :   -0.052629
   3 C :   -0.049632
   4 C :   -0.170603
   5 H :    0.010909
   6 C :   -0.027757
   7 H :    0.032484
   8 H :    0.028508
   9 C :   -0.037564
  10 H :    0.021547
  11 H :    0.032487
  12 C :   -0.070507
  13 H :    0.032673
  14 H :    0.017434
  15 H :    0.033588
  16 S :    0.443908
  17 C :   -0.191119
  18 C :   -0.060062
  19 C :   -0.064967
  20 C :   -0.216455
  21 H :    0.018603
  22 C :   -0.024589
  23 H :    0.028009
  24 H :    0.026916
  25 C :   -0.038096
  26 H :    0.021343
  27 H :    0.028248
  28 C :   -0.055849
  29 H :    0.028469
  30 H :    0.021381
  31 H :    0.015007
  32 H :    0.024583
  33 H :    0.015459

  Mayer bond orders larger than 0.100000
B(  0-S ,  1-C ) :   1.1334 B(  0-S ,  4-C ) :   1.1271 B(  1-C ,  2-C ) :   1.6035
B(  1-C ,  4-C ) :   0.1094 B(  1-C , 32-H ) :   0.9673 B(  2-C ,  3-C ) :   1.2592
B(  2-C ,  6-C ) :   0.9769 B(  3-C ,  4-C ) :   1.5590 B(  3-C ,  5-H ) :   0.9972
B(  4-C , 20-C ) :   1.0658 B(  6-C ,  7-H ) :   0.9425 B(  6-C ,  8-H ) :   0.9299
B(  6-C ,  9-C ) :   1.0834 B(  9-C , 10-H ) :   0.9525 B(  9-C , 11-H ) :   0.9534
B(  9-C , 12-C ) :   1.0736 B( 12-C , 13-H ) :   0.9705 B( 12-C , 14-H ) :   0.9791
B( 12-C , 15-H ) :   0.9722 B( 16-S , 17-C ) :   1.1606 B( 16-S , 20-C ) :   1.1796
B( 17-C , 18-C ) :   1.5529 B( 17-C , 20-C ) :   0.1054 B( 17-C , 33-H ) :   0.9764
B( 18-C , 19-C ) :   1.3099 B( 18-C , 21-H ) :   0.9960 B( 19-C , 20-C ) :   1.5350
B( 19-C , 22-C ) :   1.0272 B( 22-C , 23-H ) :   0.9339 B( 22-C , 24-H ) :   0.9282
B( 22-C , 25-C ) :   1.0752 B( 25-C , 26-H ) :   0.9561 B( 25-C , 27-H ) :   0.9556
B( 25-C , 28-C ) :   1.0744 B( 28-C , 29-H ) :   0.9746 B( 28-C , 30-H ) :   0.9734
B( 28-C , 31-H ) :   0.9767

Dispersion correction           -0.015235182
FINAL SINGLE POINT ENERGY     -1339.848393141544

DIPOLE MOMENT
-------------
                                X             Y             Z
Electronic contribution:     29.92636       7.20145      -1.42443
Nuclear contribution   :    -30.67721      -7.44350       1.44114
                        -----------------------------------------
Total Dipole Moment    :     -0.75085      -0.24205       0.01671
                        -----------------------------------------
Magnitude (a.u.)       :      0.78908
Magnitude (Debye)      :      2.00567

Rotational constants in cm-1:     0.016670     0.011358     0.007241
Rotational constants in MHz :   499.742242   340.501721   217.084953

                             ****ORCA TERMINATED NORMALLY****
TOTAL RUN TIME: 0 days 0 hours 0 minutes 37 seconds 303 msec
