                         Program Version 4.2.1 -  RELEASE  -
|  1> ! wB97X-D3 SP def2-SVP
|  2> %pal
|  3> nprocs 16
|  4> end
|  5>
|  6> * xyz 0 1
|  7> S 	 -30.8369 	 67.5713 	 117.175
|  8> C 	 -32.3794 	 66.7596 	 117.081
|  9> C 	 -32.3654 	 65.8417 	 116.045
| 10> C 	 -31.1535 	 65.8235 	 115.322
| 11> C 	 -30.2435 	 66.7797 	 115.776
| 12> H 	 -30.9877 	 65.1888 	 114.482
| 13> C 	 -33.6506 	 65.0373 	 115.657
| 14> H 	 -33.9988 	 65.5362 	 114.766
| 15> H 	 -34.409 	 65.116 	 116.359
| 16> C 	 -33.313 	 63.5468 	 115.32
| 17> H 	 -33.8648 	 63.196 	 114.466
| 18> H 	 -32.1798 	 63.5434 	 115.069
| 19> C 	 -33.449 	 62.6632 	 116.519
| 20> H 	 -33.354 	 61.6012 	 116.24
| 21> H 	 -32.7748 	 62.8929 	 117.363
| 22> H 	 -34.5265 	 62.7485 	 116.884
| 23> S 	 -27.8141 	 66.0583 	 115.13
| 24> C 	 -26.7886 	 67.0694 	 114.177
| 25> C 	 -27.4348 	 68.2452 	 113.842
| 26> C 	 -28.7858 	 68.3141 	 114.321
| 27> C 	 -29.1107 	 67.1472 	 114.997
| 28> H 	 -26.8889 	 69.0192 	 113.354
| 29> C 	 -29.5552 	 69.6797 	 114.138
| 30> H 	 -29.0349 	 70.2105 	 113.349
| 31> H 	 -29.4259 	 70.2015 	 115.038
| 32> C 	 -31.1079 	 69.6434 	 113.941
| 33> H 	 -31.5934 	 69.0934 	 114.712
| 34> H 	 -31.3378 	 69.2389 	 112.94
| 35> C 	 -31.7563 	 71.0169 	 114.023
| 36> H 	 -32.7858 	 70.8516 	 113.898
| 37> H 	 -31.3471 	 71.6487 	 113.216
| 38> H 	 -31.6367 	 71.5162 	 114.982
| 39> H 	 -33.2973 	 66.8824 	 117.586
| 40> H 	 -25.7267 	 66.9509 	 113.919
| 41> *
| 42>
| 43>                          ****END OF INPUT****

CARTESIAN COORDINATES (ANGSTROEM)
---------------------------------
  S    -30.836900   67.571300  117.175000
  C    -32.379400   66.759600  117.081000
  C    -32.365400   65.841700  116.045000
  C    -31.153500   65.823500  115.322000
  C    -30.243500   66.779700  115.776000
  H    -30.987700   65.188800  114.482000
  C    -33.650600   65.037300  115.657000
  H    -33.998800   65.536200  114.766000
  H    -34.409000   65.116000  116.359000
  C    -33.313000   63.546800  115.320000
  H    -33.864800   63.196000  114.466000
  H    -32.179800   63.543400  115.069000
  C    -33.449000   62.663200  116.519000
  H    -33.354000   61.601200  116.240000
  H    -32.774800   62.892900  117.363000
  H    -34.526500   62.748500  116.884000
  S    -27.814100   66.058300  115.130000
  C    -26.788600   67.069400  114.177000
  C    -27.434800   68.245200  113.842000
  C    -28.785800   68.314100  114.321000
  C    -29.110700   67.147200  114.997000
  H    -26.888900   69.019200  113.354000
  C    -29.555200   69.679700  114.138000
  H    -29.034900   70.210500  113.349000
  H    -29.425900   70.201500  115.038000
  C    -31.107900   69.643400  113.941000
  H    -31.593400   69.093400  114.712000
  H    -31.337800   69.238900  112.940000
  C    -31.756300   71.016900  114.023000
  H    -32.785800   70.851600  113.898000
  H    -31.347100   71.648700  113.216000
  H    -31.636700   71.516200  114.982000
  H    -33.297300   66.882400  117.586000
  H    -25.726700   66.950900  113.919000

 Total Charge           Charge          ....    0
 Multiplicity           Mult            ....    1
 Number of Electrons    NEL             ....  134
 Basis Dimension        Dim             ....  322

ORBITAL ENERGIES
----------------

  NO   OCC          E(Eh)            E(eV)
   0   2.0000     -88.971020     -2421.0245
   1   2.0000     -88.964675     -2420.8519
   2   2.0000     -10.323499      -280.9167
   3   2.0000     -10.317895      -280.7642
   4   2.0000     -10.312778      -280.6249
   5   2.0000     -10.307958      -280.4938
   6   2.0000     -10.304608      -280.4026
   7   2.0000     -10.298495      -280.2363
   8   2.0000     -10.291400      -280.0432
   9   2.0000     -10.290185      -280.0102
  10   2.0000     -10.289962      -280.0041
  11   2.0000     -10.289529      -279.9923
  12   2.0000     -10.288195      -279.9560
  13   2.0000     -10.281076      -279.7623
  14   2.0000     -10.279702      -279.7249
  15   2.0000     -10.269754      -279.4542
  16   2.0000      -8.085490      -220.0174
  17   2.0000      -8.080596      -219.8842
  18   2.0000      -6.043954      -164.4644
  19   2.0000      -6.039906      -164.3542
  20   2.0000      -6.039066      -164.3313
  21   2.0000      -6.036428      -164.2596
  22   2.0000      -6.034757      -164.2141
  23   2.0000      -6.031506      -164.1256
  24   2.0000      -1.014655       -27.6102
  25   2.0000      -0.988316       -26.8935
  26   2.0000      -0.910409       -24.7735
  27   2.0000      -0.902198       -24.5501
  28   2.0000      -0.874198       -23.7881
  29   2.0000      -0.852451       -23.1964
  30   2.0000      -0.846905       -23.0454
  31   2.0000      -0.812897       -22.1200
  32   2.0000      -0.783178       -21.3114
  33   2.0000      -0.771717       -20.9995
  34   2.0000      -0.711864       -19.3708
  35   2.0000      -0.692280       -18.8379
  36   2.0000      -0.685857       -18.6631
  37   2.0000      -0.660331       -17.9685
  38   2.0000      -0.636638       -17.3238
  39   2.0000      -0.624282       -16.9876
  40   2.0000      -0.591208       -16.0876
  41   2.0000      -0.571378       -15.5480
  42   2.0000      -0.570466       -15.5232
  43   2.0000      -0.557737       -15.1768
  44   2.0000      -0.534902       -14.5554
  45   2.0000      -0.524335       -14.2679
  46   2.0000      -0.513193       -13.9647
  47   2.0000      -0.510824       -13.9002
  48   2.0000      -0.502855       -13.6834
  49   2.0000      -0.495644       -13.4872
  50   2.0000      -0.491222       -13.3668
  51   2.0000      -0.482984       -13.1427
  52   2.0000      -0.479034       -13.0352
  53   2.0000      -0.470643       -12.8068
  54   2.0000      -0.458740       -12.4830
  55   2.0000      -0.449998       -12.2451
  56   2.0000      -0.442333       -12.0365
  57   2.0000      -0.439912       -11.9706
  58   2.0000      -0.429126       -11.6771
  59   2.0000      -0.422552       -11.4982
  60   2.0000      -0.416848       -11.3430
  61   2.0000      -0.413950       -11.2641
  62   2.0000      -0.409140       -11.1333
  63   2.0000      -0.337040        -9.1713
  64   2.0000      -0.334612        -9.1053
  65   2.0000      -0.322660        -8.7800
  66   2.0000      -0.300323        -8.1722
  67   0.0000       0.038724         1.0537
  68   0.0000       0.065640         1.7861
  69   0.0000       0.121382         3.3030
  70   0.0000       0.127265         3.4631
  71   0.0000       0.130399         3.5483

MULLIKEN ATOMIC CHARGES
-----------------------
   0 S :    0.133457
   1 C :   -0.106034
   2 C :   -0.121107
   3 C :    0.037656
   4 C :   -0.151483
   5 H :    0.010827
   6 C :    0.122651
   7 H :    0.035204
   8 H :   -0.006255
   9 C :   -0.101272
  10 H :    0.030164
  11 H :    0.042683
  12 C :   -0.070296
  13 H :    0.038421
  14 H :    0.050983
  15 H :    0.026806
  16 S :    0.131063
  17 C :   -0.092065
  18 C :   -0.060353
  19 C :   -0.004495
  20 C :   -0.205923
  21 H :    0.008513
  22 C :    0.101458
  23 H :    0.018066
  24 H :    0.020814
  25 C :   -0.082702
  26 H :    0.033960
  27 H :    0.032405
  28 C :   -0.038824
  29 H :    0.024377
  30 H :    0.029183
  31 H :    0.029776
  32 H :    0.022611
  33 H :    0.059729
Sum of atomic charges:    0.0000000

LOEWDIN ATOMIC CHARGES
----------------------
   0 S :    0.432620
   1 C :   -0.209726
   2 C :   -0.058369
   3 C :   -0.059387
   4 C :   -0.217208
   5 H :    0.026594
   6 C :   -0.017518
   7 H :    0.033503
   8 H :    0.013415
   9 C :   -0.046366
  10 H :    0.021224
  11 H :    0.035421
  12 C :   -0.073223
  13 H :    0.027594
  14 H :    0.031141
  15 H :    0.026157
  16 S :    0.448359
  17 C :   -0.204753
  18 C :   -0.071806
  19 C :   -0.051042
  20 C :   -0.221791
  21 H :    0.025560
  22 C :   -0.020462
  23 H :    0.028141
  24 H :    0.026199
  25 C :   -0.036229
  26 H :    0.018493
  27 H :    0.025639
  28 C :   -0.060662
  29 H :    0.021377
  30 H :    0.024605
  31 H :    0.022979
  32 H :    0.023480
  33 H :    0.036038

  Mayer bond orders larger than 0.100000
B(  0-S ,  1-C ) :   1.1310 B(  0-S ,  4-C ) :   1.1615 B(  1-C ,  2-C ) :   1.6039
B(  1-C , 32-H ) :   0.9705 B(  2-C ,  3-C ) :   1.2775 B(  2-C ,  6-C ) :   1.0169
B(  3-C ,  4-C ) :   1.5350 B(  3-C ,  5-H ) :   0.9901 B(  4-C , 20-C ) :   1.0127
B(  6-C ,  7-H ) :   0.9386 B(  6-C ,  8-H ) :   0.9454 B(  6-C ,  9-C ) :   1.0488
B(  9-C , 10-H ) :   0.9564 B(  9-C , 11-H ) :   0.9584 B(  9-C , 12-C ) :   1.0804
B( 12-C , 13-H ) :   0.9721 B( 12-C , 14-H ) :   0.9752 B( 12-C , 15-H ) :   0.9729
B( 16-S , 17-C ) :   1.1576 B( 16-S , 20-C ) :   1.1753 B( 17-C , 18-C ) :   1.6113
B( 17-C , 33-H ) :   0.9631 B( 18-C , 19-C ) :   1.2512 B( 18-C , 21-H ) :   0.9901
B( 19-C , 20-C ) :   1.5858 B( 19-C , 22-C ) :   1.0217 B( 22-C , 23-H ) :   0.9380
B( 22-C , 24-H ) :   0.9336 B( 22-C , 25-C ) :   1.0682 B( 25-C , 26-H ) :   0.9520
B( 25-C , 27-H ) :   0.9580 B( 25-C , 28-C ) :   1.0948 B( 28-C , 29-H ) :   0.9728
B( 28-C , 30-H ) :   0.9747 B( 28-C , 31-H ) :   0.9731

Dispersion correction           -0.014640227
FINAL SINGLE POINT ENERGY     -1339.869624963156

DIPOLE MOMENT
-------------
                                X             Y             Z
Electronic contribution:     19.02586      -0.52654       6.87124
Nuclear contribution   :    -19.38127       0.66707      -7.16717
                        -----------------------------------------
Total Dipole Moment    :     -0.35541       0.14053      -0.29593
                        -----------------------------------------
Magnitude (a.u.)       :      0.48337
Magnitude (Debye)      :      1.22862

Rotational constants in cm-1:     0.018287     0.009174     0.007172
Rotational constants in MHz :   548.235328   275.040461   215.014830

                             ****ORCA TERMINATED NORMALLY****
TOTAL RUN TIME: 0 days 0 hours 0 minutes 26 seconds 210 msec
