                         Program Version 4.2.1 -  RELEASE  -
|  1> ! wB97X-D3 SP def2-SVP
|  2> %pal
|  3> nprocs 16
|  4> end
|  5>
|  6> * xyz 0 1
|  7> S 	 -3.48418 	 12.7385 	 84.5451
|  8> C 	 -5.0382 	 11.9153 	 84.3041
|  9> C 	 -5.98838 	 12.4278 	 85.1407
| 10> C 	 -5.49473 	 13.3938 	 86.0638
| 11> C 	 -4.16825 	 13.7769 	 85.7865
| 12> H 	 -6.05785 	 13.9824 	 86.7835
| 13> C 	 -7.39694 	 12.0663 	 85.0704
| 14> H 	 -7.72084 	 12.2463 	 84.0357
| 15> H 	 -7.98794 	 12.7125 	 85.6644
| 16> C 	 -7.55135 	 10.6908 	 85.6381
| 17> H 	 -8.55023 	 10.3003 	 85.4057
| 18> H 	 -6.84252 	 9.96397 	 85.2766
| 19> C 	 -7.56482 	 10.6821 	 87.1568
| 20> H 	 -8.37058 	 11.2394 	 87.5976
| 21> H 	 -7.82749 	 9.68984 	 87.567
| 22> H 	 -6.70031 	 11.1159 	 87.6799
| 23> S 	 -3.37625 	 16.4155 	 86.3277
| 24> C 	 -2.04247 	 16.6814 	 87.4712
| 25> C 	 -1.6874 	 15.4845 	 88.0712
| 26> C 	 -2.38219 	 14.3467 	 87.5018
| 27> C 	 -3.34603 	 14.7031 	 86.5989
| 28> H 	 -0.832627 	 15.4626 	 88.7126
| 29> C 	 -2.10352 	 12.9562 	 88.0623
| 30> H 	 -1.25984 	 12.5724 	 87.4414
| 31> H 	 -2.95424 	 12.3741 	 87.9889
| 32> C 	 -1.76651 	 12.8424 	 89.5271
| 33> H 	 -0.875906 	 13.4387 	 89.6875
| 34> H 	 -1.45062 	 11.8642 	 89.8713
| 35> C 	 -2.89753 	 13.3148 	 90.4881
| 36> H 	 -2.785 	 12.8561 	 91.4526
| 37> H 	 -3.78993 	 12.9203 	 90.0774
| 38> H 	 -2.96454 	 14.3584 	 90.6172
| 39> H 	 -5.20604 	 11.1299 	 83.5787
| 40> H 	 -1.57062 	 17.6614 	 87.5788
| 41> *
| 42>
| 43>                          ****END OF INPUT****

CARTESIAN COORDINATES (ANGSTROEM)
---------------------------------
  S     -3.484180   12.738500   84.545100
  C     -5.038200   11.915300   84.304100
  C     -5.988380   12.427800   85.140700
  C     -5.494730   13.393800   86.063800
  C     -4.168250   13.776900   85.786500
  H     -6.057850   13.982400   86.783500
  C     -7.396940   12.066300   85.070400
  H     -7.720840   12.246300   84.035700
  H     -7.987940   12.712500   85.664400
  C     -7.551350   10.690800   85.638100
  H     -8.550230   10.300300   85.405700
  H     -6.842520    9.963970   85.276600
  C     -7.564820   10.682100   87.156800
  H     -8.370580   11.239400   87.597600
  H     -7.827490    9.689840   87.567000
  H     -6.700310   11.115900   87.679900
  S     -3.376250   16.415500   86.327700
  C     -2.042470   16.681400   87.471200
  C     -1.687400   15.484500   88.071200
  C     -2.382190   14.346700   87.501800
  C     -3.346030   14.703100   86.598900
  H     -0.832627   15.462600   88.712600
  C     -2.103520   12.956200   88.062300
  H     -1.259840   12.572400   87.441400
  H     -2.954240   12.374100   87.988900
  C     -1.766510   12.842400   89.527100
  H     -0.875906   13.438700   89.687500
  H     -1.450620   11.864200   89.871300
  C     -2.897530   13.314800   90.488100
  H     -2.785000   12.856100   91.452600
  H     -3.789930   12.920300   90.077400
  H     -2.964540   14.358400   90.617200
  H     -5.206040   11.129900   83.578700
  H     -1.570620   17.661400   87.578800

 Total Charge           Charge          ....    0
 Multiplicity           Mult            ....    1
 Number of Electrons    NEL             ....  134
 Basis Dimension        Dim             ....  322

ORBITAL ENERGIES
----------------

  NO   OCC          E(Eh)            E(eV)
   0   2.0000     -88.966586     -2420.9039
   1   2.0000     -88.963379     -2420.8166
   2   2.0000     -10.331196      -281.1261
   3   2.0000     -10.323094      -280.9057
   4   2.0000     -10.322270      -280.8832
   5   2.0000     -10.312018      -280.6043
   6   2.0000     -10.301924      -280.3296
   7   2.0000     -10.295069      -280.1431
   8   2.0000     -10.294493      -280.1274
   9   2.0000     -10.293671      -280.1050
  10   2.0000     -10.283816      -279.8369
  11   2.0000     -10.283420      -279.8261
  12   2.0000     -10.281777      -279.7814
  13   2.0000     -10.281110      -279.7632
  14   2.0000     -10.275042      -279.5981
  15   2.0000     -10.265907      -279.3495
  16   2.0000      -8.080445      -219.8801
  17   2.0000      -8.078144      -219.8175
  18   2.0000      -6.038986      -164.3292
  19   2.0000      -6.036670      -164.2661
  20   2.0000      -6.034963      -164.2197
  21   2.0000      -6.032619      -164.1559
  22   2.0000      -6.031343      -164.1212
  23   2.0000      -6.028910      -164.0550
  24   2.0000      -1.003181       -27.2979
  25   2.0000      -0.983636       -26.7661
  26   2.0000      -0.924025       -25.1440
  27   2.0000      -0.910341       -24.7716
  28   2.0000      -0.866282       -23.5727
  29   2.0000      -0.845845       -23.0166
  30   2.0000      -0.842618       -22.9288
  31   2.0000      -0.815417       -22.1886
  32   2.0000      -0.785651       -21.3786
  33   2.0000      -0.773920       -21.0594
  34   2.0000      -0.709197       -19.2982
  35   2.0000      -0.703054       -19.1311
  36   2.0000      -0.694535       -18.8993
  37   2.0000      -0.657463       -17.8905
  38   2.0000      -0.641895       -17.4669
  39   2.0000      -0.611517       -16.6402
  40   2.0000      -0.600700       -16.3459
  41   2.0000      -0.580543       -15.7974
  42   2.0000      -0.560814       -15.2605
  43   2.0000      -0.557267       -15.1640
  44   2.0000      -0.542303       -14.7568
  45   2.0000      -0.535650       -14.5758
  46   2.0000      -0.518968       -14.1218
  47   2.0000      -0.514423       -13.9982
  48   2.0000      -0.501762       -13.6536
  49   2.0000      -0.490148       -13.3376
  50   2.0000      -0.485784       -13.2189
  51   2.0000      -0.482138       -13.1197
  52   2.0000      -0.470644       -12.8069
  53   2.0000      -0.466144       -12.6844
  54   2.0000      -0.461611       -12.5611
  55   2.0000      -0.448119       -12.1939
  56   2.0000      -0.445745       -12.1293
  57   2.0000      -0.433143       -11.7864
  58   2.0000      -0.431942       -11.7537
  59   2.0000      -0.424549       -11.5526
  60   2.0000      -0.421181       -11.4609
  61   2.0000      -0.412827       -11.2336
  62   2.0000      -0.406503       -11.0615
  63   2.0000      -0.334062        -9.0903
  64   2.0000      -0.332511        -9.0481
  65   2.0000      -0.319982        -8.7072
  66   2.0000      -0.307626        -8.3709
  67   0.0000       0.042774         1.1640
  68   0.0000       0.054937         1.4949
  69   0.0000       0.116190         3.1617
  70   0.0000       0.118408         3.2220
  71   0.0000       0.128036         3.4840

MULLIKEN ATOMIC CHARGES
-----------------------
   0 S :    0.115393
   1 C :   -0.132197
   2 C :   -0.098666
   3 C :    0.042162
   4 C :   -0.172608
   5 H :    0.018684
   6 C :    0.117498
   7 H :    0.040681
   8 H :   -0.001623
   9 C :   -0.043441
  10 H :    0.020121
  11 H :    0.030846
  12 C :   -0.068406
  13 H :    0.009289
  14 H :    0.030489
  15 H :    0.036956
  16 S :    0.101804
  17 C :   -0.114438
  18 C :   -0.014995
  19 C :   -0.060584
  20 C :   -0.180541
  21 H :    0.020222
  22 C :    0.125583
  23 H :    0.046714
  24 H :    0.013491
  25 C :   -0.092089
  26 H :    0.009209
  27 H :    0.024634
  28 C :   -0.007912
  29 H :    0.023754
  30 H :    0.012064
  31 H :    0.032371
  32 H :    0.046820
  33 H :    0.068713
Sum of atomic charges:    0.0000000

LOEWDIN ATOMIC CHARGES
----------------------
   0 S :    0.400724
   1 C :   -0.189864
   2 C :   -0.064427
   3 C :   -0.062075
   4 C :   -0.189686
   5 H :    0.033289
   6 C :   -0.030555
   7 H :    0.037998
   8 H :    0.024553
   9 C :   -0.034108
  10 H :    0.025084
  11 H :    0.021976
  12 C :   -0.071005
  13 H :    0.019962
  14 H :    0.030177
  15 H :    0.024400
  16 S :    0.398543
  17 C :   -0.173198
  18 C :   -0.069788
  19 C :   -0.052449
  20 C :   -0.216523
  21 H :    0.028520
  22 C :   -0.027064
  23 H :    0.043153
  24 H :    0.018884
  25 C :   -0.040044
  26 H :    0.014290
  27 H :    0.026121
  28 C :   -0.053147
  29 H :    0.025134
  30 H :    0.019828
  31 H :    0.020259
  32 H :    0.028144
  33 H :    0.032893

  Mayer bond orders larger than 0.100000
B(  0-S ,  1-C ) :   1.1329 B(  0-S ,  4-C ) :   1.1617 B(  1-C ,  2-C ) :   1.6070
B(  1-C ,  4-C ) :   0.1002 B(  1-C , 32-H ) :   0.9686 B(  2-C ,  3-C ) :   1.2442
B(  2-C ,  6-C ) :   1.0244 B(  3-C ,  4-C ) :   1.5778 B(  3-C ,  5-H ) :   0.9876
B(  4-C , 20-C ) :   0.9981 B(  6-C ,  7-H ) :   0.9367 B(  6-C ,  8-H ) :   0.9350
B(  6-C ,  9-C ) :   1.0674 B(  9-C , 10-H ) :   0.9489 B(  9-C , 11-H ) :   0.9623
B(  9-C , 12-C ) :   1.0781 B( 12-C , 13-H ) :   0.9690 B( 12-C , 14-H ) :   0.9721
B( 12-C , 15-H ) :   0.9746 B( 16-S , 17-C ) :   1.1565 B( 16-S , 20-C ) :   1.1375
B( 17-C , 18-C ) :   1.6124 B( 17-C , 33-H ) :   0.9668 B( 18-C , 19-C ) :   1.2258
B( 18-C , 21-H ) :   0.9892 B( 19-C , 20-C ) :   1.6340 B( 19-C , 22-C ) :   1.0227
B( 22-C , 23-H ) :   0.9213 B( 22-C , 24-H ) :   0.9384 B( 22-C , 25-C ) :   1.0890
B( 25-C , 26-H ) :   0.9463 B( 25-C , 27-H ) :   0.9551 B( 25-C , 28-C ) :   1.0720
B( 28-C , 29-H ) :   0.9755 B( 28-C , 30-H ) :   0.9757 B( 28-C , 31-H ) :   0.9752

Dispersion correction           -0.015049655
FINAL SINGLE POINT ENERGY     -1339.876015158547

DIPOLE MOMENT
-------------
                                X             Y             Z
Electronic contribution:      9.77567      16.29513     -16.99037
Nuclear contribution   :     -9.94606     -16.59651      17.32100
                        -----------------------------------------
Total Dipole Moment    :     -0.17039      -0.30138       0.33063
                        -----------------------------------------
Magnitude (a.u.)       :      0.47872
Magnitude (Debye)      :      1.21681

Rotational constants in cm-1:     0.019661     0.008726     0.007337
Rotational constants in MHz :   589.431768   261.596388   219.959663

                             ****ORCA TERMINATED NORMALLY****
TOTAL RUN TIME: 0 days 0 hours 0 minutes 35 seconds 717 msec
