                         Program Version 4.2.1 -  RELEASE  -
|  1> ! wB97X-D3 SP def2-SVP
|  2> %pal
|  3> nprocs 16
|  4> end
|  5>
|  6> * xyz 0 1
|  7> S 	 -65.7091 	 35.7675 	 143.517
|  8> C 	 -67.0545 	 35.2048 	 142.517
|  9> C 	 -67.6171 	 36.3276 	 141.842
| 10> C 	 -66.8683 	 37.5238 	 142.005
| 11> C 	 -65.8278 	 37.3192 	 142.864
| 12> H 	 -67.0688 	 38.4612 	 141.559
| 13> C 	 -68.9008 	 36.2936 	 141.083
| 14> H 	 -69.3891 	 37.3594 	 141.107
| 15> H 	 -69.5881 	 35.647 	 141.701
| 16> C 	 -68.8069 	 35.6954 	 139.649
| 17> H 	 -68.0242 	 36.1844 	 139.114
| 18> H 	 -68.4008 	 34.6589 	 139.814
| 19> C 	 -70.1189 	 35.6612 	 138.76
| 20> H 	 -70.9271 	 35.3332 	 139.33
| 21> H 	 -70.2528 	 36.658 	 138.3
| 22> H 	 -70.0115 	 34.8886 	 137.974
| 23> S 	 -63.0891 	 37.5476 	 143.069
| 24> C 	 -62.3895 	 39.1728 	 143.376
| 25> C 	 -63.3777 	 40.1516 	 143.486
| 26> C 	 -64.682 	 39.558 	 143.421
| 27> C 	 -64.7245 	 38.2106 	 143.153
| 28> H 	 -63.0544 	 41.1537 	 143.742
| 29> C 	 -65.9532 	 40.3967 	 143.599
| 30> H 	 -66.9067 	 39.8423 	 143.395
| 31> H 	 -65.8191 	 41.2025 	 142.903
| 32> C 	 -66.0236 	 40.9903 	 145.043
| 33> H 	 -66.7195 	 41.8237 	 145.113
| 34> H 	 -65.0903 	 41.5492 	 145.219
| 35> C 	 -66.4477 	 39.9057 	 146.011
| 36> H 	 -67.2544 	 39.2982 	 145.634
| 37> H 	 -66.9111 	 40.3749 	 146.883
| 38> H 	 -65.6172 	 39.3169 	 146.406
| 39> H 	 -67.5094 	 34.246 	 142.669
| 40> H 	 -61.3412 	 39.3269 	 143.399
| 41> *
| 42>
| 43>                          ****END OF INPUT****

CARTESIAN COORDINATES (ANGSTROEM)
---------------------------------
  S    -65.709100   35.767500  143.517000
  C    -67.054500   35.204800  142.517000
  C    -67.617100   36.327600  141.842000
  C    -66.868300   37.523800  142.005000
  C    -65.827800   37.319200  142.864000
  H    -67.068800   38.461200  141.559000
  C    -68.900800   36.293600  141.083000
  H    -69.389100   37.359400  141.107000
  H    -69.588100   35.647000  141.701000
  C    -68.806900   35.695400  139.649000
  H    -68.024200   36.184400  139.114000
  H    -68.400800   34.658900  139.814000
  C    -70.118900   35.661200  138.760000
  H    -70.927100   35.333200  139.330000
  H    -70.252800   36.658000  138.300000
  H    -70.011500   34.888600  137.974000
  S    -63.089100   37.547600  143.069000
  C    -62.389500   39.172800  143.376000
  C    -63.377700   40.151600  143.486000
  C    -64.682000   39.558000  143.421000
  C    -64.724500   38.210600  143.153000
  H    -63.054400   41.153700  143.742000
  C    -65.953200   40.396700  143.599000
  H    -66.906700   39.842300  143.395000
  H    -65.819100   41.202500  142.903000
  C    -66.023600   40.990300  145.043000
  H    -66.719500   41.823700  145.113000
  H    -65.090300   41.549200  145.219000
  C    -66.447700   39.905700  146.011000
  H    -67.254400   39.298200  145.634000
  H    -66.911100   40.374900  146.883000
  H    -65.617200   39.316900  146.406000
  H    -67.509400   34.246000  142.669000
  H    -61.341200   39.326900  143.399000

 Total Charge           Charge          ....    0
 Multiplicity           Mult            ....    1
 Number of Electrons    NEL             ....  134
 Basis Dimension        Dim             ....  322

ORBITAL ENERGIES
----------------

  NO   OCC          E(Eh)            E(eV)
   0   2.0000     -88.967668     -2420.9333
   1   2.0000     -88.962899     -2420.8035
   2   2.0000     -10.323348      -280.9126
   3   2.0000     -10.322410      -280.8871
   4   2.0000     -10.320773      -280.8425
   5   2.0000     -10.315424      -280.6969
   6   2.0000     -10.305497      -280.4268
   7   2.0000     -10.302376      -280.3419
   8   2.0000     -10.301901      -280.3290
   9   2.0000     -10.299861      -280.2735
  10   2.0000     -10.291011      -280.0326
  11   2.0000     -10.290463      -280.0177
  12   2.0000     -10.289316      -279.9865
  13   2.0000     -10.284847      -279.8649
  14   2.0000     -10.281699      -279.7793
  15   2.0000     -10.270464      -279.4735
  16   2.0000      -8.083265      -219.9568
  17   2.0000      -8.076813      -219.7813
  18   2.0000      -6.041625      -164.4010
  19   2.0000      -6.037573      -164.2907
  20   2.0000      -6.035442      -164.2327
  21   2.0000      -6.034201      -164.1989
  22   2.0000      -6.031454      -164.1242
  23   2.0000      -6.027467      -164.0157
  24   2.0000      -1.011742       -27.5309
  25   2.0000      -0.979963       -26.6662
  26   2.0000      -0.907561       -24.6960
  27   2.0000      -0.903462       -24.5845
  28   2.0000      -0.865266       -23.5451
  29   2.0000      -0.853248       -23.2181
  30   2.0000      -0.841273       -22.8922
  31   2.0000      -0.815201       -22.1828
  32   2.0000      -0.779809       -21.2197
  33   2.0000      -0.768226       -20.9045
  34   2.0000      -0.703889       -19.1538
  35   2.0000      -0.700264       -19.0552
  36   2.0000      -0.695975       -18.9385
  37   2.0000      -0.660349       -17.9690
  38   2.0000      -0.644735       -17.5441
  39   2.0000      -0.621443       -16.9103
  40   2.0000      -0.593002       -16.1364
  41   2.0000      -0.564772       -15.3682
  42   2.0000      -0.557147       -15.1608
  43   2.0000      -0.553670       -15.0661
  44   2.0000      -0.537342       -14.6218
  45   2.0000      -0.523339       -14.2408
  46   2.0000      -0.517159       -14.0726
  47   2.0000      -0.509780       -13.8718
  48   2.0000      -0.506228       -13.7752
  49   2.0000      -0.496342       -13.5062
  50   2.0000      -0.489581       -13.3222
  51   2.0000      -0.474767       -12.9191
  52   2.0000      -0.471317       -12.8252
  53   2.0000      -0.462150       -12.5757
  54   2.0000      -0.458399       -12.4737
  55   2.0000      -0.452492       -12.3129
  56   2.0000      -0.443764       -12.0754
  57   2.0000      -0.438546       -11.9334
  58   2.0000      -0.431744       -11.7483
  59   2.0000      -0.423595       -11.5266
  60   2.0000      -0.419284       -11.4093
  61   2.0000      -0.413077       -11.2404
  62   2.0000      -0.405639       -11.0380
  63   2.0000      -0.350233        -9.5303
  64   2.0000      -0.331544        -9.0218
  65   2.0000      -0.328867        -8.9489
  66   2.0000      -0.287007        -7.8099
  67   0.0000       0.028040         0.7630
  68   0.0000       0.070651         1.9225
  69   0.0000       0.099254         2.7008
  70   0.0000       0.116438         3.1684
  71   0.0000       0.140789         3.8311

MULLIKEN ATOMIC CHARGES
-----------------------
   0 S :    0.116071
   1 C :   -0.123479
   2 C :   -0.082669
   3 C :    0.044495
   4 C :   -0.147458
   5 H :    0.002743
   6 C :    0.004433
   7 H :    0.038200
   8 H :    0.033830
   9 C :   -0.088850
  10 H :    0.024903
  11 H :    0.028131
  12 C :   -0.020842
  13 H :    0.019985
  14 H :    0.046126
  15 H :    0.037161
  16 S :    0.089734
  17 C :   -0.094632
  18 C :   -0.026933
  19 C :   -0.042570
  20 C :   -0.125001
  21 H :    0.028019
  22 C :    0.048587
  23 H :    0.036873
  24 H :    0.021845
  25 C :   -0.078923
  26 H :    0.018318
  27 H :    0.021868
  28 C :   -0.027392
  29 H :    0.029923
  30 H :    0.019959
  31 H :    0.049268
  32 H :    0.049057
  33 H :    0.049222
Sum of atomic charges:   -0.0000000

LOEWDIN ATOMIC CHARGES
----------------------
   0 S :    0.435373
   1 C :   -0.203783
   2 C :   -0.053266
   3 C :   -0.062449
   4 C :   -0.201605
   5 H :    0.027975
   6 C :   -0.046941
   7 H :    0.036248
   8 H :    0.033618
   9 C :   -0.042392
  10 H :    0.018502
  11 H :    0.027423
  12 C :   -0.060960
  13 H :    0.015272
  14 H :    0.031039
  15 H :    0.032650
  16 S :    0.372898
  17 C :   -0.158123
  18 C :   -0.067846
  19 C :   -0.058190
  20 C :   -0.198334
  21 H :    0.034820
  22 C :   -0.029449
  23 H :    0.031552
  24 H :    0.025484
  25 C :   -0.044190
  26 H :    0.020318
  27 H :    0.023364
  28 C :   -0.065721
  29 H :    0.026615
  30 H :    0.026456
  31 H :    0.031132
  32 H :    0.022317
  33 H :    0.020194

  Mayer bond orders larger than 0.100000
B(  0-S ,  1-C ) :   1.1344 B(  0-S ,  4-C ) :   1.1907 B(  1-C ,  2-C ) :   1.5649
B(  1-C ,  4-C ) :   0.1015 B(  1-C , 32-H ) :   0.9750 B(  2-C ,  3-C ) :   1.2595
B(  2-C ,  6-C ) :   1.0258 B(  3-C ,  4-C ) :   1.5395 B(  3-C ,  5-H ) :   1.0000
B(  4-C , 20-C ) :   1.0239 B(  6-C ,  7-H ) :   0.9469 B(  6-C ,  8-H ) :   0.9379
B(  6-C ,  9-C ) :   1.0508 B(  9-C , 10-H ) :   0.9615 B(  9-C , 11-H ) :   0.9564
B(  9-C , 12-C ) :   1.0692 B( 12-C , 13-H ) :   0.9768 B( 12-C , 14-H ) :   0.9777
B( 12-C , 15-H ) :   0.9758 B( 16-S , 17-C ) :   1.1458 B( 16-S , 20-C ) :   1.1163
B( 17-C , 18-C ) :   1.6218 B( 17-C , 33-H ) :   0.9726 B( 18-C , 19-C ) :   1.2099
B( 18-C , 21-H ) :   0.9907 B( 19-C , 20-C ) :   1.6299 B( 19-C , 22-C ) :   1.0317
B( 22-C , 23-H ) :   0.9446 B( 22-C , 24-H ) :   0.9296 B( 22-C , 25-C ) :   1.0806
B( 25-C , 26-H ) :   0.9576 B( 25-C , 27-H ) :   0.9551 B( 25-C , 28-C ) :   1.0650
B( 28-C , 29-H ) :   0.9733 B( 28-C , 30-H ) :   0.9733 B( 28-C , 31-H ) :   0.9763

Dispersion correction           -0.014336883
FINAL SINGLE POINT ENERGY     -1339.878538867254

DIPOLE MOMENT
-------------
                                X             Y             Z
Electronic contribution:     21.75880      -8.00114       5.49486
Nuclear contribution   :    -22.17281       8.42476      -5.56568
                        -----------------------------------------
Total Dipole Moment    :     -0.41401       0.42363      -0.07082
                        -----------------------------------------
Magnitude (a.u.)       :      0.59655
Magnitude (Debye)      :      1.51632

Rotational constants in cm-1:     0.021496     0.007591     0.006744
Rotational constants in MHz :   644.438049   227.577719   202.168676

                             ****ORCA TERMINATED NORMALLY****
TOTAL RUN TIME: 0 days 0 hours 0 minutes 33 seconds 707 msec
