                         Program Version 4.2.1 -  RELEASE  -
|  1> ! wB97X-D3 SP def2-SVP
|  2> %pal
|  3> nprocs 16
|  4> end
|  5>
|  6> * xyz 0 1
|  7> S 	 17.533 	 18.8843 	 40.6672
|  8> C 	 17.5905 	 18.2987 	 38.9954
|  9> C 	 16.5119 	 18.6878 	 38.2702
| 10> C 	 15.5774 	 19.5091 	 38.996
| 11> C 	 15.8791 	 19.5086 	 40.3527
| 12> H 	 14.6654 	 19.9879 	 38.5573
| 13> C 	 16.2743 	 18.2779 	 36.7885
| 14> H 	 15.2055 	 18.1035 	 36.7065
| 15> H 	 16.8387 	 17.3916 	 36.6146
| 16> C 	 16.7152 	 19.3874 	 35.8511
| 17> H 	 16.2248 	 19.1364 	 34.9281
| 18> H 	 16.3975 	 20.3614 	 36.2171
| 19> C 	 18.2834 	 19.4358 	 35.7195
| 20> H 	 18.7578 	 19.5728 	 36.6846
| 21> H 	 18.6539 	 18.557 	 35.2245
| 22> H 	 18.5486 	 20.3854 	 35.1332
| 23> S 	 14.5697 	 18.668 	 42.5864
| 24> C 	 13.3784 	 19.7452 	 43.3306
| 25> C 	 13.3916 	 20.9128 	 42.7173
| 26> C 	 14.419 	 21.0898 	 41.7234
| 27> C 	 15.0191 	 19.9014 	 41.4364
| 28> H 	 12.7216 	 21.6424 	 43.0741
| 29> C 	 14.7039 	 22.4172 	 41.0043
| 30> H 	 13.9494 	 23.1338 	 41.2508
| 31> H 	 14.5509 	 22.2396 	 39.9097
| 32> C 	 16.115 	 23.0246 	 41.3533
| 33> H 	 16.196 	 24.0337 	 40.8562
| 34> H 	 16.838 	 22.263 	 41.0106
| 35> C 	 16.1656 	 23.2781 	 42.912
| 36> H 	 16.249 	 22.2772 	 43.4158
| 37> H 	 15.1906 	 23.8115 	 43.1921
| 38> H 	 17.0242 	 23.9388 	 43.1482
| 39> H 	 18.3085 	 17.5204 	 38.6733
| 40> H 	 12.7284 	 19.5099 	 44.1902
| 41> *
| 42>
| 43>                          ****END OF INPUT****

CARTESIAN COORDINATES (ANGSTROEM)
---------------------------------
  S     17.533000   18.884300   40.667200
  C     17.590500   18.298700   38.995400
  C     16.511900   18.687800   38.270200
  C     15.577400   19.509100   38.996000
  C     15.879100   19.508600   40.352700
  H     14.665400   19.987900   38.557300
  C     16.274300   18.277900   36.788500
  H     15.205500   18.103500   36.706500
  H     16.838700   17.391600   36.614600
  C     16.715200   19.387400   35.851100
  H     16.224800   19.136400   34.928100
  H     16.397500   20.361400   36.217100
  C     18.283400   19.435800   35.719500
  H     18.757800   19.572800   36.684600
  H     18.653900   18.557000   35.224500
  H     18.548600   20.385400   35.133200
  S     14.569700   18.668000   42.586400
  C     13.378400   19.745200   43.330600
  C     13.391600   20.912800   42.717300
  C     14.419000   21.089800   41.723400
  C     15.019100   19.901400   41.436400
  H     12.721600   21.642400   43.074100
  C     14.703900   22.417200   41.004300
  H     13.949400   23.133800   41.250800
  H     14.550900   22.239600   39.909700
  C     16.115000   23.024600   41.353300
  H     16.196000   24.033700   40.856200
  H     16.838000   22.263000   41.010600
  C     16.165600   23.278100   42.912000
  H     16.249000   22.277200   43.415800
  H     15.190600   23.811500   43.192100
  H     17.024200   23.938800   43.148200
  H     18.308500   17.520400   38.673300
  H     12.728400   19.509900   44.190200

 Total Charge           Charge          ....    0
 Multiplicity           Mult            ....    1
 Number of Electrons    NEL             ....  134
 Basis Dimension        Dim             ....  322

ORBITAL ENERGIES
----------------

  NO   OCC          E(Eh)            E(eV)
   0   2.0000     -88.964925     -2420.8587
   1   2.0000     -88.959608     -2420.7140
   2   2.0000     -10.333846      -281.1982
   3   2.0000     -10.320539      -280.8361
   4   2.0000     -10.313512      -280.6449
   5   2.0000     -10.312894      -280.6281
   6   2.0000     -10.303785      -280.3802
   7   2.0000     -10.301680      -280.3230
   8   2.0000     -10.300385      -280.2877
   9   2.0000     -10.293702      -280.1059
  10   2.0000     -10.293450      -280.0990
  11   2.0000     -10.290392      -280.0158
  12   2.0000     -10.286737      -279.9164
  13   2.0000     -10.286571      -279.9118
  14   2.0000     -10.284506      -279.8556
  15   2.0000     -10.281164      -279.7647
  16   2.0000      -8.078801      -219.8353
  17   2.0000      -8.074693      -219.7236
  18   2.0000      -6.037412      -164.2863
  19   2.0000      -6.033644      -164.1838
  20   2.0000      -6.033309      -164.1747
  21   2.0000      -6.029296      -164.0655
  22   2.0000      -6.029209      -164.0631
  23   2.0000      -6.025224      -163.9547
  24   2.0000      -1.008068       -27.4309
  25   2.0000      -0.982692       -26.7404
  26   2.0000      -0.911534       -24.8041
  27   2.0000      -0.898934       -24.4612
  28   2.0000      -0.872234       -23.7347
  29   2.0000      -0.842482       -22.9251
  30   2.0000      -0.835805       -22.7434
  31   2.0000      -0.814200       -22.1555
  32   2.0000      -0.779901       -21.2222
  33   2.0000      -0.768149       -20.9024
  34   2.0000      -0.711909       -19.3720
  35   2.0000      -0.692971       -18.8567
  36   2.0000      -0.682853       -18.5814
  37   2.0000      -0.660288       -17.9674
  38   2.0000      -0.636696       -17.3254
  39   2.0000      -0.620016       -16.8715
  40   2.0000      -0.590747       -16.0750
  41   2.0000      -0.570965       -15.5368
  42   2.0000      -0.552516       -15.0347
  43   2.0000      -0.548660       -14.9298
  44   2.0000      -0.543827       -14.7983
  45   2.0000      -0.534696       -14.5498
  46   2.0000      -0.513374       -13.9696
  47   2.0000      -0.508559       -13.8386
  48   2.0000      -0.502791       -13.6816
  49   2.0000      -0.493537       -13.4298
  50   2.0000      -0.483331       -13.1521
  51   2.0000      -0.474891       -12.9224
  52   2.0000      -0.467742       -12.7279
  53   2.0000      -0.464594       -12.6422
  54   2.0000      -0.457139       -12.4394
  55   2.0000      -0.450369       -12.2552
  56   2.0000      -0.440902       -11.9975
  57   2.0000      -0.435681       -11.8555
  58   2.0000      -0.427321       -11.6280
  59   2.0000      -0.425328       -11.5738
  60   2.0000      -0.421246       -11.4627
  61   2.0000      -0.413342       -11.2476
  62   2.0000      -0.411028       -11.1846
  63   2.0000      -0.343693        -9.3524
  64   2.0000      -0.329088        -8.9549
  65   2.0000      -0.326588        -8.8869
  66   2.0000      -0.300187        -8.1685
  67   0.0000       0.029740         0.8093
  68   0.0000       0.067177         1.8280
  69   0.0000       0.110708         3.0125
  70   0.0000       0.120632         3.2826
  71   0.0000       0.128589         3.4991

MULLIKEN ATOMIC CHARGES
-----------------------
   0 S :    0.096854
   1 C :   -0.132736
   2 C :   -0.129382
   3 C :    0.045252
   4 C :   -0.179641
   5 H :    0.039038
   6 C :    0.095700
   7 H :    0.027631
   8 H :    0.011949
   9 C :   -0.051034
  10 H :    0.029357
  11 H :    0.027581
  12 C :   -0.077695
  13 H :    0.040948
  14 H :    0.032624
  15 H :    0.043330
  16 S :    0.099376
  17 C :   -0.089820
  18 C :   -0.015193
  19 C :   -0.047227
  20 C :   -0.164003
  21 H :   -0.001503
  22 C :    0.072955
  23 H :    0.005177
  24 H :    0.035091
  25 C :   -0.089325
  26 H :    0.044904
  27 H :    0.052249
  28 C :   -0.099578
  29 H :    0.065205
  30 H :    0.036813
  31 H :    0.048359
  32 H :    0.062936
  33 H :    0.063809
Sum of atomic charges:   -0.0000000

LOEWDIN ATOMIC CHARGES
----------------------
   0 S :    0.365609
   1 C :   -0.201176
   2 C :   -0.061753
   3 C :   -0.057688
   4 C :   -0.173534
   5 H :    0.041641
   6 C :   -0.019880
   7 H :    0.029073
   8 H :    0.023982
   9 C :   -0.034207
  10 H :    0.021643
  11 H :    0.023077
  12 C :   -0.066749
  13 H :    0.024372
  14 H :    0.019393
  15 H :    0.034991
  16 S :    0.390191
  17 C :   -0.175550
  18 C :   -0.072211
  19 C :   -0.055607
  20 C :   -0.204637
  21 H :    0.024829
  22 C :   -0.034537
  23 H :    0.019924
  24 H :    0.033397
  25 C :   -0.039350
  26 H :    0.029373
  27 H :    0.026251
  28 C :   -0.076293
  29 H :    0.034617
  30 H :    0.029463
  31 H :    0.027330
  32 H :    0.034197
  33 H :    0.039820

  Mayer bond orders larger than 0.100000
B(  0-S ,  1-C ) :   1.1010 B(  0-S ,  4-C ) :   1.1333 B(  1-C ,  2-C ) :   1.6774
B(  1-C , 32-H ) :   0.9559 B(  2-C ,  3-C ) :   1.2076 B(  2-C ,  6-C ) :   1.0150
B(  3-C ,  4-C ) :   1.6112 B(  3-C ,  5-H ) :   0.9791 B(  4-C , 20-C ) :   1.0448
B(  6-C ,  7-H ) :   0.9409 B(  6-C ,  8-H ) :   0.9425 B(  6-C ,  9-C ) :   1.0646
B(  9-C , 10-H ) :   0.9572 B(  9-C , 11-H ) :   0.9596 B(  9-C , 12-C ) :   1.0705
B( 12-C , 13-H ) :   0.9743 B( 12-C , 14-H ) :   0.9779 B( 12-C , 15-H ) :   0.9754
B( 16-S , 17-C ) :   1.1203 B( 16-S , 20-C ) :   1.1314 B( 17-C , 18-C ) :   1.6717
B( 17-C , 33-H ) :   0.9620 B( 18-C , 19-C ) :   1.2007 B( 18-C , 21-H ) :   0.9933
B( 19-C , 20-C ) :   1.6175 B( 19-C , 22-C ) :   1.0342 B( 22-C , 23-H ) :   0.9350
B( 22-C , 24-H ) :   0.9359 B( 22-C , 25-C ) :   1.0591 B( 25-C , 26-H ) :   0.9589
B( 25-C , 27-H ) :   0.9589 B( 25-C , 28-C ) :   1.0579 B( 28-C , 29-H ) :   0.9718
B( 28-C , 30-H ) :   0.9758 B( 28-C , 31-H ) :   0.9764

Dispersion correction           -0.015352894
FINAL SINGLE POINT ENERGY     -1339.878957377155

DIPOLE MOMENT
-------------
                                X             Y             Z
Electronic contribution:     -4.23333     -14.31202      16.00175
Nuclear contribution   :      3.89775      14.60981     -16.42121
                        -----------------------------------------
Total Dipole Moment    :     -0.33558       0.29779      -0.41946
                        -----------------------------------------
Magnitude (a.u.)       :      0.61420
Magnitude (Debye)      :      1.56118

Rotational constants in cm-1:     0.022421     0.008158     0.007248
Rotational constants in MHz :   672.162024   244.564563   217.292357

                             ****ORCA TERMINATED NORMALLY****
TOTAL RUN TIME: 0 days 0 hours 0 minutes 35 seconds 816 msec
