                         Program Version 4.2.1 -  RELEASE  -
|  1> ! wB97X-D3 SP def2-SVP
|  2> %pal
|  3> nprocs 16
|  4> end
|  5>
|  6> * xyz 0 1
|  7> S 	 15.4965 	 -11.8216 	 79.4579
|  8> C 	 17.0104 	 -11.2653 	 78.7327
|  9> C 	 17.4694 	 -12.149 	 77.7501
| 10> C 	 16.4519 	 -13.0681 	 77.3443
| 11> C 	 15.2989 	 -12.9337 	 78.0886
| 12> H 	 16.4759 	 -13.6377 	 76.373
| 13> C 	 18.7524 	 -11.9792 	 77.0267
| 14> H 	 19.4409 	 -12.8246 	 77.1106
| 15> H 	 19.1235 	 -11.0833 	 77.3335
| 16> C 	 18.5345 	 -11.6816 	 75.5321
| 17> H 	 18.1247 	 -12.5795 	 75.0146
| 18> H 	 17.8589 	 -10.8412 	 75.4578
| 19> C 	 19.9297 	 -11.5668 	 74.7912
| 20> H 	 20.5208 	 -10.8826 	 75.4207
| 21> H 	 20.5597 	 -12.4575 	 74.793
| 22> H 	 19.9169 	 -11.2591 	 73.7531
| 23> S 	 13.4846 	 -14.6593 	 79.1599
| 24> C 	 12.1404 	 -15.3115 	 78.2257
| 25> C 	 12.2014 	 -14.8719 	 76.9126
| 26> C 	 13.3964 	 -14.0861 	 76.6574
| 27> C 	 14.0681 	 -13.7284 	 77.7975
| 28> H 	 11.381 	 -15.1972 	 76.2867
| 29> C 	 13.7051 	 -13.6273 	 75.2568
| 30> H 	 12.9887 	 -14.0992 	 74.6439
| 31> H 	 14.6105 	 -14.1241 	 75.0194
| 32> C 	 13.7401 	 -12.1143 	 75.0029
| 33> H 	 14.2662 	 -11.5793 	 75.7697
| 34> H 	 12.7344 	 -11.7696 	 75.3096
| 35> C 	 14.0899 	 -11.715 	 73.5603
| 36> H 	 13.8948 	 -12.486 	 72.8327
| 37> H 	 15.1645 	 -11.5271 	 73.4793
| 38> H 	 13.5557 	 -10.8263 	 73.2368
| 39> H 	 17.579 	 -10.5103 	 79.1063
| 40> H 	 11.3816 	 -16.035 	 78.4913
| 41> *
| 42>
| 43>                          ****END OF INPUT****

CARTESIAN COORDINATES (ANGSTROEM)
---------------------------------
  S     15.496500  -11.821600   79.457900
  C     17.010400  -11.265300   78.732700
  C     17.469400  -12.149000   77.750100
  C     16.451900  -13.068100   77.344300
  C     15.298900  -12.933700   78.088600
  H     16.475900  -13.637700   76.373000
  C     18.752400  -11.979200   77.026700
  H     19.440900  -12.824600   77.110600
  H     19.123500  -11.083300   77.333500
  C     18.534500  -11.681600   75.532100
  H     18.124700  -12.579500   75.014600
  H     17.858900  -10.841200   75.457800
  C     19.929700  -11.566800   74.791200
  H     20.520800  -10.882600   75.420700
  H     20.559700  -12.457500   74.793000
  H     19.916900  -11.259100   73.753100
  S     13.484600  -14.659300   79.159900
  C     12.140400  -15.311500   78.225700
  C     12.201400  -14.871900   76.912600
  C     13.396400  -14.086100   76.657400
  C     14.068100  -13.728400   77.797500
  H     11.381000  -15.197200   76.286700
  C     13.705100  -13.627300   75.256800
  H     12.988700  -14.099200   74.643900
  H     14.610500  -14.124100   75.019400
  C     13.740100  -12.114300   75.002900
  H     14.266200  -11.579300   75.769700
  H     12.734400  -11.769600   75.309600
  C     14.089900  -11.715000   73.560300
  H     13.894800  -12.486000   72.832700
  H     15.164500  -11.527100   73.479300
  H     13.555700  -10.826300   73.236800
  H     17.579000  -10.510300   79.106300
  H     11.381600  -16.035000   78.491300

 Total Charge           Charge          ....    0
 Multiplicity           Mult            ....    1
 Number of Electrons    NEL             ....  134
 Basis Dimension        Dim             ....  322

ORBITAL ENERGIES
----------------

  NO   OCC          E(Eh)            E(eV)
   0   2.0000     -88.971465     -2421.0367
   1   2.0000     -88.961846     -2420.7749
   2   2.0000     -10.335335      -281.2388
   3   2.0000     -10.326230      -280.9910
   4   2.0000     -10.314775      -280.6793
   5   2.0000     -10.312425      -280.6154
   6   2.0000     -10.303058      -280.3605
   7   2.0000     -10.302393      -280.3424
   8   2.0000     -10.297784      -280.2169
   9   2.0000     -10.294206      -280.1196
  10   2.0000     -10.293857      -280.1101
  11   2.0000     -10.285617      -279.8859
  12   2.0000     -10.283612      -279.8313
  13   2.0000     -10.282456      -279.7999
  14   2.0000     -10.282229      -279.7937
  15   2.0000     -10.276840      -279.6470
  16   2.0000      -8.085276      -220.0115
  17   2.0000      -8.076469      -219.7719
  18   2.0000      -6.043829      -164.4610
  19   2.0000      -6.040144      -164.3607
  20   2.0000      -6.035804      -164.2426
  21   2.0000      -6.035098      -164.2234
  22   2.0000      -6.030956      -164.1107
  23   2.0000      -6.027144      -164.0069
  24   2.0000      -1.003690       -27.3118
  25   2.0000      -0.982469       -26.7343
  26   2.0000      -0.917671       -24.9711
  27   2.0000      -0.907343       -24.6901
  28   2.0000      -0.866101       -23.5678
  29   2.0000      -0.849369       -23.1125
  30   2.0000      -0.844444       -22.9785
  31   2.0000      -0.817790       -22.2532
  32   2.0000      -0.781441       -21.2641
  33   2.0000      -0.772765       -21.0280
  34   2.0000      -0.715017       -19.4566
  35   2.0000      -0.704358       -19.1666
  36   2.0000      -0.694874       -18.9085
  37   2.0000      -0.660754       -17.9800
  38   2.0000      -0.640630       -17.4324
  39   2.0000      -0.624374       -16.9901
  40   2.0000      -0.588461       -16.0128
  41   2.0000      -0.580318       -15.7913
  42   2.0000      -0.567941       -15.4545
  43   2.0000      -0.555912       -15.1271
  44   2.0000      -0.526266       -14.3204
  45   2.0000      -0.525137       -14.2897
  46   2.0000      -0.512958       -13.9583
  47   2.0000      -0.506425       -13.7805
  48   2.0000      -0.504395       -13.7253
  49   2.0000      -0.500213       -13.6115
  50   2.0000      -0.494741       -13.4626
  51   2.0000      -0.489453       -13.3187
  52   2.0000      -0.476481       -12.9657
  53   2.0000      -0.462590       -12.5877
  54   2.0000      -0.460950       -12.5431
  55   2.0000      -0.449824       -12.2403
  56   2.0000      -0.448740       -12.2108
  57   2.0000      -0.439586       -11.9618
  58   2.0000      -0.434476       -11.8227
  59   2.0000      -0.432097       -11.7580
  60   2.0000      -0.418610       -11.3910
  61   2.0000      -0.409896       -11.1538
  62   2.0000      -0.405784       -11.0419
  63   2.0000      -0.347464        -9.4550
  64   2.0000      -0.331441        -9.0190
  65   2.0000      -0.326134        -8.8745
  66   2.0000      -0.291686        -7.9372
  67   0.0000       0.029560         0.8044
  68   0.0000       0.064596         1.7577
  69   0.0000       0.106184         2.8894
  70   0.0000       0.119304         3.2464
  71   0.0000       0.129569         3.5258

MULLIKEN ATOMIC CHARGES
-----------------------
   0 S :    0.116694
   1 C :   -0.080716
   2 C :   -0.093780
   3 C :    0.012558
   4 C :   -0.143037
   5 H :    0.038126
   6 C :    0.131055
   7 H :    0.042147
   8 H :   -0.015754
   9 C :   -0.124448
  10 H :    0.036305
  11 H :    0.043634
  12 C :   -0.051060
  13 H :    0.017213
  14 H :    0.028060
  15 H :    0.042508
  16 S :    0.091062
  17 C :   -0.086466
  18 C :   -0.053033
  19 C :   -0.083799
  20 C :   -0.136488
  21 H :    0.023487
  22 C :    0.126046
  23 H :   -0.005494
  24 H :    0.013330
  25 C :   -0.065613
  26 H :    0.032512
  27 H :    0.017091
  28 C :   -0.025614
  29 H :    0.023973
  30 H :    0.032727
  31 H :    0.035694
  32 H :    0.008762
  33 H :    0.052316
Sum of atomic charges:    0.0000000

LOEWDIN ATOMIC CHARGES
----------------------
   0 S :    0.388817
   1 C :   -0.175157
   2 C :   -0.053593
   3 C :   -0.063582
   4 C :   -0.185065
   5 H :    0.042013
   6 C :   -0.024739
   7 H :    0.036841
   8 H :    0.016677
   9 C :   -0.033386
  10 H :    0.021772
  11 H :    0.024417
  12 C :   -0.071407
  13 H :    0.021717
  14 H :    0.026214
  15 H :    0.026002
  16 S :    0.395167
  17 C :   -0.185659
  18 C :   -0.073582
  19 C :   -0.057625
  20 C :   -0.191686
  21 H :    0.034157
  22 C :   -0.027326
  23 H :    0.023383
  24 H :    0.022201
  25 C :   -0.042795
  26 H :    0.024273
  27 H :    0.027690
  28 C :   -0.063513
  29 H :    0.023350
  30 H :    0.028180
  31 H :    0.029013
  32 H :    0.005360
  33 H :    0.031872

  Mayer bond orders larger than 0.100000
B(  0-S ,  1-C ) :   1.1219 B(  0-S ,  4-C ) :   1.1386 B(  1-C ,  2-C ) :   1.6204
B(  1-C , 32-H ) :   0.9774 B(  2-C ,  3-C ) :   1.2122 B(  2-C ,  6-C ) :   1.0499
B(  3-C ,  4-C ) :   1.5987 B(  3-C ,  5-H ) :   0.9794 B(  4-C , 20-C ) :   1.0191
B(  6-C ,  7-H ) :   0.9326 B(  6-C ,  8-H ) :   0.9290 B(  6-C ,  9-C ) :   1.0573
B(  9-C , 10-H ) :   0.9555 B(  9-C , 11-H ) :   0.9620 B(  9-C , 12-C ) :   1.0633
B( 12-C , 13-H ) :   0.9753 B( 12-C , 14-H ) :   0.9752 B( 12-C , 15-H ) :   0.9763
B( 16-S , 17-C ) :   1.1424 B( 16-S , 20-C ) :   1.1334 B( 17-C , 18-C ) :   1.6490
B( 17-C , 33-H ) :   0.9643 B( 18-C , 19-C ) :   1.2097 B( 18-C , 21-H ) :   0.9887
B( 19-C , 20-C ) :   1.6326 B( 19-C , 22-C ) :   1.0375 B( 22-C , 23-H ) :   0.9209
B( 22-C , 24-H ) :   0.9204 B( 22-C , 25-C ) :   1.0607 B( 25-C , 26-H ) :   0.9594
B( 25-C , 27-H ) :   0.9525 B( 25-C , 28-C ) :   1.0665 B( 28-C , 29-H ) :   0.9771
B( 28-C , 30-H ) :   0.9747 B( 28-C , 31-H ) :   0.9761

Dispersion correction           -0.014886110
FINAL SINGLE POINT ENERGY     -1339.855440463129

DIPOLE MOMENT
-------------
                                X             Y             Z
Electronic contribution:    -13.50713      -8.42615      28.18109
Nuclear contribution   :     13.78617       8.46335     -28.91364
                        -----------------------------------------
Total Dipole Moment    :      0.27903       0.03720      -0.73255
                        -----------------------------------------
Magnitude (a.u.)       :      0.78478
Magnitude (Debye)      :      1.99474

Rotational constants in cm-1:     0.018292     0.009392     0.007027
Rotational constants in MHz :   548.369334   281.556862   210.667697

                             ****ORCA TERMINATED NORMALLY****
TOTAL RUN TIME: 0 days 0 hours 0 minutes 31 seconds 572 msec
