                         Program Version 4.2.1 -  RELEASE  -
|  1> ! wB97X-D3 SP def2-SVP
|  2> %pal
|  3> nprocs 16
|  4> end
|  5>
|  6> * xyz 0 1
|  7> S 	 -2.58497 	 30.6361 	 53.5324
|  8> C 	 -0.896754 	 30.4092 	 53.788
|  9> C 	 -0.421681 	 29.4677 	 52.9426
| 10> C 	 -1.2814 	 29.1397 	 51.8734
| 11> C 	 -2.50738 	 29.7701 	 51.9763
| 12> H 	 -1.16682 	 28.5091 	 51.0692
| 13> C 	 0.985378 	 28.8199 	 53.1131
| 14> H 	 1.81494 	 29.5572 	 53.3295
| 15> H 	 1.26053 	 28.4397 	 52.1001
| 16> C 	 0.90609 	 27.7596 	 54.1771
| 17> H 	 1.86064 	 27.2936 	 54.3269
| 18> H 	 0.675567 	 28.183 	 55.161
| 19> C 	 -0.117179 	 26.62 	 53.7763
| 20> H 	 -1.15233 	 27.0171 	 53.5749
| 21> H 	 0.0838809 	 26.2773 	 52.7798
| 22> H 	 -0.109254 	 25.8494 	 54.4977
| 23> S 	 -5.2303 	 29.6228 	 52.0791
| 24> C 	 -6.10272 	 29.4561 	 50.5747
| 25> C 	 -5.33529 	 29.381 	 49.4668
| 26> C 	 -3.95582 	 29.4233 	 49.809
| 27> C 	 -3.73253 	 29.5728 	 51.2038
| 28> H 	 -5.85599 	 29.3193 	 48.5012
| 29> C 	 -2.82316 	 29.3146 	 48.7132
| 30> H 	 -2.40493 	 28.4103 	 48.9749
| 31> H 	 -2.10769 	 30.0927 	 49.008
| 32> C 	 -3.22016 	 29.2665 	 47.2107
| 33> H 	 -3.75691 	 28.3507 	 46.9658
| 34> H 	 -2.21073 	 29.3076 	 46.7472
| 35> C 	 -3.95455 	 30.4702 	 46.5174
| 36> H 	 -4.10682 	 30.1034 	 45.51
| 37> H 	 -3.32259 	 31.3793 	 46.4458
| 38> H 	 -4.88903 	 30.6167 	 47.0194
| 39> H 	 -0.460626 	 30.7111 	 54.7625
| 40> H 	 -7.20275 	 29.5776 	 50.3924
| 41> *
| 42>
| 43>                          ****END OF INPUT****

CARTESIAN COORDINATES (ANGSTROEM)
---------------------------------
  S     -2.584970   30.636100   53.532400
  C     -0.896754   30.409200   53.788000
  C     -0.421681   29.467700   52.942600
  C     -1.281400   29.139700   51.873400
  C     -2.507380   29.770100   51.976300
  H     -1.166820   28.509100   51.069200
  C      0.985378   28.819900   53.113100
  H      1.814940   29.557200   53.329500
  H      1.260530   28.439700   52.100100
  C      0.906090   27.759600   54.177100
  H      1.860640   27.293600   54.326900
  H      0.675567   28.183000   55.161000
  C     -0.117179   26.620000   53.776300
  H     -1.152330   27.017100   53.574900
  H      0.083881   26.277300   52.779800
  H     -0.109254   25.849400   54.497700
  S     -5.230300   29.622800   52.079100
  C     -6.102720   29.456100   50.574700
  C     -5.335290   29.381000   49.466800
  C     -3.955820   29.423300   49.809000
  C     -3.732530   29.572800   51.203800
  H     -5.855990   29.319300   48.501200
  C     -2.823160   29.314600   48.713200
  H     -2.404930   28.410300   48.974900
  H     -2.107690   30.092700   49.008000
  C     -3.220160   29.266500   47.210700
  H     -3.756910   28.350700   46.965800
  H     -2.210730   29.307600   46.747200
  C     -3.954550   30.470200   46.517400
  H     -4.106820   30.103400   45.510000
  H     -3.322590   31.379300   46.445800
  H     -4.889030   30.616700   47.019400
  H     -0.460626   30.711100   54.762500
  H     -7.202750   29.577600   50.392400

 Total Charge           Charge          ....    0
 Multiplicity           Mult            ....    1
 Number of Electrons    NEL             ....  134
 Basis Dimension        Dim             ....  322

ORBITAL ENERGIES
----------------

  NO   OCC          E(Eh)            E(eV)
   0   2.0000     -88.968497     -2420.9559
   1   2.0000     -88.961308     -2420.7603
   2   2.0000     -10.332029      -281.1488
   3   2.0000     -10.327363      -281.0218
   4   2.0000     -10.314074      -280.6602
   5   2.0000     -10.309982      -280.5489
   6   2.0000     -10.308171      -280.4996
   7   2.0000     -10.299452      -280.2623
   8   2.0000     -10.297794      -280.2172
   9   2.0000     -10.296377      -280.1787
  10   2.0000     -10.292952      -280.0855
  11   2.0000     -10.291367      -280.0423
  12   2.0000     -10.289576      -279.9936
  13   2.0000     -10.285949      -279.8949
  14   2.0000     -10.281600      -279.7765
  15   2.0000     -10.274343      -279.5791
  16   2.0000      -8.083386      -219.9601
  17   2.0000      -8.076549      -219.7741
  18   2.0000      -6.041925      -164.4091
  19   2.0000      -6.038006      -164.3025
  20   2.0000      -6.035013      -164.2211
  21   2.0000      -6.033971      -164.1927
  22   2.0000      -6.031171      -164.1165
  23   2.0000      -6.027129      -164.0065
  24   2.0000      -1.009837       -27.4791
  25   2.0000      -0.988121       -26.8881
  26   2.0000      -0.908977       -24.7345
  27   2.0000      -0.902024       -24.5453
  28   2.0000      -0.871703       -23.7202
  29   2.0000      -0.851891       -23.1811
  30   2.0000      -0.840065       -22.8593
  31   2.0000      -0.818050       -22.2603
  32   2.0000      -0.786275       -21.3956
  33   2.0000      -0.771349       -20.9895
  34   2.0000      -0.704736       -19.1769
  35   2.0000      -0.702690       -19.1212
  36   2.0000      -0.690635       -18.7931
  37   2.0000      -0.659241       -17.9389
  38   2.0000      -0.641285       -17.4503
  39   2.0000      -0.615989       -16.7619
  40   2.0000      -0.587622       -15.9900
  41   2.0000      -0.572053       -15.5664
  42   2.0000      -0.558376       -15.1942
  43   2.0000      -0.552329       -15.0296
  44   2.0000      -0.538743       -14.6600
  45   2.0000      -0.533994       -14.5307
  46   2.0000      -0.518860       -14.1189
  47   2.0000      -0.516409       -14.0522
  48   2.0000      -0.502527       -13.6745
  49   2.0000      -0.495509       -13.4835
  50   2.0000      -0.490874       -13.3574
  51   2.0000      -0.480604       -13.0779
  52   2.0000      -0.469483       -12.7753
  53   2.0000      -0.464944       -12.6518
  54   2.0000      -0.459084       -12.4923
  55   2.0000      -0.451794       -12.2939
  56   2.0000      -0.447602       -12.1799
  57   2.0000      -0.437955       -11.9174
  58   2.0000      -0.433615       -11.7993
  59   2.0000      -0.427083       -11.6215
  60   2.0000      -0.419169       -11.4062
  61   2.0000      -0.407691       -11.0938
  62   2.0000      -0.404147       -10.9974
  63   2.0000      -0.359540        -9.7836
  64   2.0000      -0.337019        -9.1708
  65   2.0000      -0.328166        -8.9299
  66   2.0000      -0.282361        -7.6834
  67   0.0000       0.021895         0.5958
  68   0.0000       0.074371         2.0237
  69   0.0000       0.105363         2.8671
  70   0.0000       0.131131         3.5683
  71   0.0000       0.137769         3.7489

MULLIKEN ATOMIC CHARGES
-----------------------
   0 S :    0.078514
   1 C :   -0.115814
   2 C :   -0.075806
   3 C :    0.032681
   4 C :   -0.129117
   5 H :   -0.029999
   6 C :    0.033268
   7 H :    0.042067
   8 H :    0.024541
   9 C :   -0.043973
  10 H :    0.021840
  11 H :    0.027472
  12 C :   -0.053995
  13 H :    0.051070
  14 H :    0.012585
  15 H :    0.034620
  16 S :    0.112422
  17 C :   -0.089549
  18 C :   -0.072913
  19 C :   -0.066928
  20 C :   -0.153948
  21 H :    0.032346
  22 C :    0.094579
  23 H :    0.027218
  24 H :    0.040559
  25 C :   -0.108949
  26 H :    0.039253
  27 H :    0.040047
  28 C :   -0.036832
  29 H :    0.034269
  30 H :    0.044341
  31 H :    0.027559
  32 H :    0.064782
  33 H :    0.061788
Sum of atomic charges:   -0.0000000

LOEWDIN ATOMIC CHARGES
----------------------
   0 S :    0.390514
   1 C :   -0.204903
   2 C :   -0.063427
   3 C :   -0.061708
   4 C :   -0.169729
   5 H :    0.017257
   6 C :   -0.034222
   7 H :    0.036036
   8 H :    0.028126
   9 C :   -0.037777
  10 H :    0.019525
  11 H :    0.023265
  12 C :   -0.062532
  13 H :    0.035151
  14 H :    0.019126
  15 H :    0.018841
  16 S :    0.413013
  17 C :   -0.194486
  18 C :   -0.085769
  19 C :   -0.050133
  20 C :   -0.211885
  21 H :    0.039622
  22 C :   -0.030248
  23 H :    0.022422
  24 H :    0.036017
  25 C :   -0.043800
  26 H :    0.025649
  27 H :    0.036152
  28 C :   -0.061330
  29 H :    0.028363
  30 H :    0.030873
  31 H :    0.016513
  32 H :    0.035426
  33 H :    0.040058

  Mayer bond orders larger than 0.100000
B(  0-S ,  1-C ) :   1.1358 B(  0-S ,  4-C ) :   1.1505 B(  1-C ,  2-C ) :   1.6219
B(  1-C , 32-H ) :   0.9638 B(  2-C ,  3-C ) :   1.2305 B(  2-C ,  6-C ) :   0.9991
B(  3-C ,  4-C ) :   1.5508 B(  3-C ,  5-H ) :   1.0168 B(  4-C , 20-C ) :   1.0803
B(  6-C ,  7-H ) :   0.9487 B(  6-C ,  8-H ) :   0.9485 B(  6-C ,  9-C ) :   1.0726
B(  9-C , 10-H ) :   0.9559 B(  9-C , 11-H ) :   0.9570 B(  9-C , 12-C ) :   1.0641
B( 12-C , 13-H ) :   0.9711 B( 12-C , 14-H ) :   0.9747 B( 12-C , 15-H ) :   0.9765
B( 16-S , 17-C ) :   1.1495 B( 16-S , 20-C ) :   1.1361 B( 17-C , 18-C ) :   1.6475
B( 17-C , 33-H ) :   0.9485 B( 18-C , 19-C ) :   1.2503 B( 18-C , 21-H ) :   0.9788
B( 19-C , 20-C ) :   1.5830 B( 19-C , 22-C ) :   0.9950 B( 22-C , 23-H ) :   0.9288
B( 22-C , 24-H ) :   0.9356 B( 22-C , 25-C ) :   1.0797 B( 25-C , 26-H ) :   0.9532
B( 25-C , 27-H ) :   0.9528 B( 25-C , 28-C ) :   1.0780 B( 28-C , 29-H ) :   0.9732
B( 28-C , 30-H ) :   0.9754 B( 28-C , 31-H ) :   0.9773

Dispersion correction           -0.014537448
FINAL SINGLE POINT ENERGY     -1339.861316550875

DIPOLE MOMENT
-------------
                                X             Y             Z
Electronic contribution:    -14.16718       9.54822      14.28652
Nuclear contribution   :     14.49555      -9.86517     -14.75626
                        -----------------------------------------
Total Dipole Moment    :      0.32837      -0.31695      -0.46973
                        -----------------------------------------
Magnitude (a.u.)       :      0.65493
Magnitude (Debye)      :      1.66470

Rotational constants in cm-1:     0.021140     0.007973     0.006676
Rotational constants in MHz :   633.747766   239.038274   200.153932

                             ****ORCA TERMINATED NORMALLY****
TOTAL RUN TIME: 0 days 0 hours 0 minutes 35 seconds 166 msec
