                         Program Version 4.2.1 -  RELEASE  -
|  1> ! wB97X-D3 SP def2-SVP
|  2> %pal
|  3> nprocs 16
|  4> end
|  5>
|  6> * xyz 0 1
|  7> S 	 2.29836 	 76.1476 	 50.0861
|  8> C 	 2.29875 	 77.5151 	 51.1757
|  9> C 	 1.94402 	 77.1408 	 52.4378
| 10> C 	 1.81684 	 75.7583 	 52.516
| 11> C 	 1.75308 	 75.1066 	 51.3239
| 12> H 	 1.75972 	 75.1212 	 53.4344
| 13> C 	 1.86962 	 77.9632 	 53.7412
| 14> H 	 2.49194 	 78.8208 	 53.5374
| 15> H 	 2.38683 	 77.4508 	 54.5357
| 16> C 	 0.365054 	 78.4518 	 54.048
| 17> H 	 0.449517 	 79.4634 	 54.1345
| 18> H 	 -0.30738 	 78.2659 	 53.1951
| 19> C 	 -0.211629 	 77.7309 	 55.3595
| 20> H 	 -1.27469 	 77.922 	 55.432
| 21> H 	 -0.117692 	 76.6652 	 55.2133
| 22> H 	 0.403168 	 78.0244 	 56.2165
| 23> S 	 3.03661 	 72.8538 	 50.6308
| 24> C 	 2.22838 	 71.3189 	 50.8985
| 25> C 	 0.871164 	 71.5094 	 51.1566
| 26> C 	 0.519725 	 72.8549 	 51.3312
| 27> C 	 1.62054 	 73.6976 	 51.1379
| 28> H 	 0.105853 	 70.7466 	 51.1639
| 29> C 	 -0.874711 	 73.2805 	 51.7719
| 30> H 	 -1.55087 	 72.7778 	 51.0786
| 31> H 	 -1.02586 	 74.3509 	 51.6137
| 32> C 	 -1.24377 	 72.7635 	 53.1378
| 33> H 	 -1.41045 	 71.6933 	 53.1346
| 34> H 	 -2.273 	 73.0658 	 53.5242
| 35> C 	 -0.18008 	 73.0972 	 54.203
| 36> H 	 -0.609061 	 72.8752 	 55.2218
| 37> H 	 0.0771921 	 74.1321 	 54.1438
| 38> H 	 0.724224 	 72.5036 	 54.0434
| 39> H 	 2.48482 	 78.5391 	 50.8381
| 40> H 	 2.66917 	 70.2884 	 50.8799
| 41> *
| 42>
| 43>                          ****END OF INPUT****

CARTESIAN COORDINATES (ANGSTROEM)
---------------------------------
  S      2.298360   76.147600   50.086100
  C      2.298750   77.515100   51.175700
  C      1.944020   77.140800   52.437800
  C      1.816840   75.758300   52.516000
  C      1.753080   75.106600   51.323900
  H      1.759720   75.121200   53.434400
  C      1.869620   77.963200   53.741200
  H      2.491940   78.820800   53.537400
  H      2.386830   77.450800   54.535700
  C      0.365054   78.451800   54.048000
  H      0.449517   79.463400   54.134500
  H     -0.307380   78.265900   53.195100
  C     -0.211629   77.730900   55.359500
  H     -1.274690   77.922000   55.432000
  H     -0.117692   76.665200   55.213300
  H      0.403168   78.024400   56.216500
  S      3.036610   72.853800   50.630800
  C      2.228380   71.318900   50.898500
  C      0.871164   71.509400   51.156600
  C      0.519725   72.854900   51.331200
  C      1.620540   73.697600   51.137900
  H      0.105853   70.746600   51.163900
  C     -0.874711   73.280500   51.771900
  H     -1.550870   72.777800   51.078600
  H     -1.025860   74.350900   51.613700
  C     -1.243770   72.763500   53.137800
  H     -1.410450   71.693300   53.134600
  H     -2.273000   73.065800   53.524200
  C     -0.180080   73.097200   54.203000
  H     -0.609061   72.875200   55.221800
  H      0.077192   74.132100   54.143800
  H      0.724224   72.503600   54.043400
  H      2.484820   78.539100   50.838100
  H      2.669170   70.288400   50.879900

 Total Charge           Charge          ....    0
 Multiplicity           Mult            ....    1
 Number of Electrons    NEL             ....  134
 Basis Dimension        Dim             ....  322

ORBITAL ENERGIES
----------------

  NO   OCC          E(Eh)            E(eV)
   0   2.0000     -88.968854     -2420.9656
   1   2.0000     -88.962584     -2420.7950
   2   2.0000     -10.322249      -280.8827
   3   2.0000     -10.319239      -280.8008
   4   2.0000     -10.315292      -280.6934
   5   2.0000     -10.311285      -280.5843
   6   2.0000     -10.299551      -280.2650
   7   2.0000     -10.294798      -280.1357
   8   2.0000     -10.294033      -280.1149
   9   2.0000     -10.291889      -280.0565
  10   2.0000     -10.290408      -280.0162
  11   2.0000     -10.288876      -279.9745
  12   2.0000     -10.288180      -279.9556
  13   2.0000     -10.284199      -279.8473
  14   2.0000     -10.282499      -279.8010
  15   2.0000     -10.274861      -279.5932
  16   2.0000      -8.083711      -219.9689
  17   2.0000      -8.078363      -219.8234
  18   2.0000      -6.042212      -164.4170
  19   2.0000      -6.038170      -164.3070
  20   2.0000      -6.036764      -164.2687
  21   2.0000      -6.034505      -164.2072
  22   2.0000      -6.032769      -164.1600
  23   2.0000      -6.029139      -164.0612
  24   2.0000      -1.016361       -27.6566
  25   2.0000      -0.989798       -26.9338
  26   2.0000      -0.912923       -24.8419
  27   2.0000      -0.901740       -24.5376
  28   2.0000      -0.868961       -23.6456
  29   2.0000      -0.846526       -23.0352
  30   2.0000      -0.844689       -22.9851
  31   2.0000      -0.810331       -22.0502
  32   2.0000      -0.783186       -21.3116
  33   2.0000      -0.772621       -21.0241
  34   2.0000      -0.709611       -19.3095
  35   2.0000      -0.703312       -19.1381
  36   2.0000      -0.692453       -18.8426
  37   2.0000      -0.660666       -17.9776
  38   2.0000      -0.643657       -17.5148
  39   2.0000      -0.615550       -16.7500
  40   2.0000      -0.592542       -16.1239
  41   2.0000      -0.565143       -15.3783
  42   2.0000      -0.553424       -15.0594
  43   2.0000      -0.547062       -14.8863
  44   2.0000      -0.542298       -14.7567
  45   2.0000      -0.531719       -14.4688
  46   2.0000      -0.516594       -14.0572
  47   2.0000      -0.513783       -13.9808
  48   2.0000      -0.499596       -13.5947
  49   2.0000      -0.498986       -13.5781
  50   2.0000      -0.489239       -13.3129
  51   2.0000      -0.480481       -13.0746
  52   2.0000      -0.466452       -12.6928
  53   2.0000      -0.464167       -12.6306
  54   2.0000      -0.459599       -12.5063
  55   2.0000      -0.450411       -12.2563
  56   2.0000      -0.444981       -12.1085
  57   2.0000      -0.442704       -12.0466
  58   2.0000      -0.433578       -11.7983
  59   2.0000      -0.427074       -11.6213
  60   2.0000      -0.418295       -11.3824
  61   2.0000      -0.415133       -11.2964
  62   2.0000      -0.410775       -11.1777
  63   2.0000      -0.341354        -9.2887
  64   2.0000      -0.329721        -8.9722
  65   2.0000      -0.327752        -8.9186
  66   2.0000      -0.294231        -8.0064
  67   0.0000       0.038956         1.0601
  68   0.0000       0.061382         1.6703
  69   0.0000       0.110160         2.9976
  70   0.0000       0.125203         3.4069
  71   0.0000       0.137472         3.7408

MULLIKEN ATOMIC CHARGES
-----------------------
   0 S :    0.107018
   1 C :   -0.140857
   2 C :   -0.068453
   3 C :    0.000518
   4 C :   -0.168992
   5 H :    0.030602
   6 C :    0.054576
   7 H :    0.013087
   8 H :    0.032709
   9 C :   -0.038758
  10 H :    0.014283
  11 H :    0.042922
  12 C :   -0.061649
  13 H :    0.039092
  14 H :    0.031818
  15 H :    0.043927
  16 S :    0.133218
  17 C :   -0.109762
  18 C :   -0.032298
  19 C :   -0.053416
  20 C :   -0.192077
  21 H :    0.013286
  22 C :    0.121674
  23 H :    0.022740
  24 H :    0.036771
  25 C :   -0.101639
  26 H :    0.018612
  27 H :    0.031642
  28 C :   -0.052419
  29 H :    0.036634
  30 H :    0.023881
  31 H :    0.047812
  32 H :    0.049334
  33 H :    0.074165
Sum of atomic charges:   -0.0000000

LOEWDIN ATOMIC CHARGES
----------------------
   0 S :    0.418940
   1 C :   -0.199819
   2 C :   -0.067836
   3 C :   -0.069704
   4 C :   -0.217460
   5 H :    0.037458
   6 C :   -0.022618
   7 H :    0.026219
   8 H :    0.029367
   9 C :   -0.023562
  10 H :    0.008262
  11 H :    0.029171
  12 C :   -0.060908
  13 H :    0.025482
  14 H :    0.022234
  15 H :    0.027449
  16 S :    0.425490
  17 C :   -0.195764
  18 C :   -0.070238
  19 C :   -0.053863
  20 C :   -0.213499
  21 H :    0.029813
  22 C :   -0.029990
  23 H :    0.035070
  24 H :    0.033439
  25 C :   -0.048837
  26 H :    0.018829
  27 H :    0.030232
  28 C :   -0.066866
  29 H :    0.031056
  30 H :    0.013781
  31 H :    0.028342
  32 H :    0.029123
  33 H :    0.041210

  Mayer bond orders larger than 0.100000
B(  0-S ,  1-C ) :   1.1436 B(  0-S ,  4-C ) :   1.1588 B(  1-C ,  2-C ) :   1.6048
B(  1-C ,  4-C ) :   0.1006 B(  1-C , 32-H ) :   0.9670 B(  2-C ,  3-C ) :   1.2475
B(  2-C ,  6-C ) :   1.0178 B(  3-C ,  4-C ) :   1.5858 B(  3-C ,  5-H ) :   0.9752
B(  4-C , 20-C ) :   1.0219 B(  6-C ,  7-H ) :   0.9457 B(  6-C ,  8-H ) :   0.9554
B(  6-C ,  9-C ) :   1.0230 B(  9-C , 10-H ) :   0.9623 B(  9-C , 11-H ) :   0.9674
B(  9-C , 12-C ) :   1.0673 B( 12-C , 13-H ) :   0.9759 B( 12-C , 14-H ) :   0.9804
B( 12-C , 15-H ) :   0.9791 B( 16-S , 17-C ) :   1.1582 B( 16-S , 20-C ) :   1.1632
B( 17-C , 18-C ) :   1.5794 B( 17-C , 20-C ) :   0.1082 B( 17-C , 33-H ) :   0.9629
B( 18-C , 19-C ) :   1.2739 B( 18-C , 21-H ) :   0.9862 B( 19-C , 20-C ) :   1.5728
B( 19-C , 22-C ) :   1.0435 B( 22-C , 23-H ) :   0.9278 B( 22-C , 24-H ) :   0.9343
B( 22-C , 25-C ) :   1.0704 B( 25-C , 26-H ) :   0.9516 B( 25-C , 27-H ) :   0.9555
B( 25-C , 28-C ) :   1.0775 B( 28-C , 29-H ) :   0.9705 B( 28-C , 30-H ) :   0.9707
B( 28-C , 31-H ) :   0.9661

Dispersion correction           -0.015953428
FINAL SINGLE POINT ENERGY     -1339.869866640288

DIPOLE MOMENT
-------------
                                X             Y             Z
Electronic contribution:     17.26206      -5.97247     -23.69628
Nuclear contribution   :    -17.62487       5.99838      24.19024
                        -----------------------------------------
Total Dipole Moment    :     -0.36281       0.02591       0.49396
                        -----------------------------------------
Magnitude (a.u.)       :      0.61343
Magnitude (Debye)      :      1.55922

Rotational constants in cm-1:     0.018643     0.010447     0.007472
Rotational constants in MHz :   558.906674   313.191463   224.013811

                             ****ORCA TERMINATED NORMALLY****
TOTAL RUN TIME: 0 days 0 hours 0 minutes 35 seconds 44 msec
