                         Program Version 4.2.1 -  RELEASE  -
|  1> ! wB97X-D3 SP def2-SVP
|  2> %pal
|  3> nprocs 16
|  4> end
|  5>
|  6> * xyz 0 1
|  7> S 	 -2.56635 	 31.6352 	 53.9123
|  8> C 	 -1.30057 	 30.9001 	 54.755
|  9> C 	 -0.850101 	 29.7646 	 54.0949
| 10> C 	 -1.57249 	 29.541 	 52.9257
| 11> C 	 -2.6574 	 30.3418 	 52.8002
| 12> H 	 -1.46612 	 28.7378 	 52.2788
| 13> C 	 0.456246 	 29.0057 	 54.3736
| 14> H 	 1.25889 	 29.7647 	 54.4032
| 15> H 	 0.664333 	 28.3943 	 53.4535
| 16> C 	 0.461067 	 28.1078 	 55.6543
| 17> H 	 1.2719 	 27.3376 	 55.5612
| 18> H 	 0.659109 	 28.5844 	 56.5386
| 19> C 	 -0.941316 	 27.3534 	 55.7726
| 20> H 	 -1.64207 	 28.1019 	 55.9794
| 21> H 	 -1.34031 	 27.0367 	 54.8021
| 22> H 	 -1.11471 	 26.4728 	 56.4207
| 23> S 	 -5.35919 	 30.4517 	 52.679
| 24> C 	 -6.08615 	 30.21 	 51.0986
| 25> C 	 -5.19236 	 29.9746 	 50.0707
| 26> C 	 -3.89109 	 29.8557 	 50.6301
| 27> C 	 -3.78732 	 30.3066 	 51.886
| 28> H 	 -5.54888 	 29.7783 	 49.0542
| 29> C 	 -2.78643 	 29.4351 	 49.7542
| 30> H 	 -2.83608 	 28.34 	 49.6467
| 31> H 	 -1.84185 	 29.5446 	 50.2431
| 32> C 	 -2.67591 	 30.0771 	 48.3357
| 33> H 	 -3.59454 	 29.8893 	 47.7476
| 34> H 	 -1.79587 	 29.56 	 47.9187
| 35> C 	 -2.19124 	 31.5237 	 48.3015
| 36> H 	 -1.97349 	 31.9393 	 47.2602
| 37> H 	 -1.38698 	 31.7749 	 48.964
| 38> H 	 -3.06586 	 32.1062 	 48.518
| 39> H 	 -0.843093 	 31.3219 	 55.6334
| 40> H 	 -7.14803 	 30.2571 	 50.9403
| 41> *
| 42>
| 43>                          ****END OF INPUT****

CARTESIAN COORDINATES (ANGSTROEM)
---------------------------------
  S     -2.566350   31.635200   53.912300
  C     -1.300570   30.900100   54.755000
  C     -0.850101   29.764600   54.094900
  C     -1.572490   29.541000   52.925700
  C     -2.657400   30.341800   52.800200
  H     -1.466120   28.737800   52.278800
  C      0.456246   29.005700   54.373600
  H      1.258890   29.764700   54.403200
  H      0.664333   28.394300   53.453500
  C      0.461067   28.107800   55.654300
  H      1.271900   27.337600   55.561200
  H      0.659109   28.584400   56.538600
  C     -0.941316   27.353400   55.772600
  H     -1.642070   28.101900   55.979400
  H     -1.340310   27.036700   54.802100
  H     -1.114710   26.472800   56.420700
  S     -5.359190   30.451700   52.679000
  C     -6.086150   30.210000   51.098600
  C     -5.192360   29.974600   50.070700
  C     -3.891090   29.855700   50.630100
  C     -3.787320   30.306600   51.886000
  H     -5.548880   29.778300   49.054200
  C     -2.786430   29.435100   49.754200
  H     -2.836080   28.340000   49.646700
  H     -1.841850   29.544600   50.243100
  C     -2.675910   30.077100   48.335700
  H     -3.594540   29.889300   47.747600
  H     -1.795870   29.560000   47.918700
  C     -2.191240   31.523700   48.301500
  H     -1.973490   31.939300   47.260200
  H     -1.386980   31.774900   48.964000
  H     -3.065860   32.106200   48.518000
  H     -0.843093   31.321900   55.633400
  H     -7.148030   30.257100   50.940300

 Total Charge           Charge          ....    0
 Multiplicity           Mult            ....    1
 Number of Electrons    NEL             ....  134
 Basis Dimension        Dim             ....  322

ORBITAL ENERGIES
----------------

  NO   OCC          E(Eh)            E(eV)
   0   2.0000     -88.965004     -2420.8608
   1   2.0000     -88.963926     -2420.8315
   2   2.0000     -10.319235      -280.8007
   3   2.0000     -10.318777      -280.7882
   4   2.0000     -10.316591      -280.7287
   5   2.0000     -10.306093      -280.4431
   6   2.0000     -10.300498      -280.2908
   7   2.0000     -10.296331      -280.1774
   8   2.0000     -10.295035      -280.1422
   9   2.0000     -10.294735      -280.1340
  10   2.0000     -10.292404      -280.0705
  11   2.0000     -10.290391      -280.0158
  12   2.0000     -10.288270      -279.9581
  13   2.0000     -10.280401      -279.7439
  14   2.0000     -10.275985      -279.6238
  15   2.0000     -10.271171      -279.4928
  16   2.0000      -8.080643      -219.8855
  17   2.0000      -8.079680      -219.8593
  18   2.0000      -6.038820      -164.3247
  19   2.0000      -6.038208      -164.3080
  20   2.0000      -6.034788      -164.2149
  21   2.0000      -6.034460      -164.2060
  22   2.0000      -6.031729      -164.1317
  23   2.0000      -6.030143      -164.0885
  24   2.0000      -1.020538       -27.7703
  25   2.0000      -0.993813       -27.0430
  26   2.0000      -0.911053       -24.7910
  27   2.0000      -0.904261       -24.6062
  28   2.0000      -0.869452       -23.6590
  29   2.0000      -0.855446       -23.2779
  30   2.0000      -0.847052       -23.0495
  31   2.0000      -0.813286       -22.1306
  32   2.0000      -0.784475       -21.3467
  33   2.0000      -0.773167       -21.0389
  34   2.0000      -0.711737       -19.3674
  35   2.0000      -0.702137       -19.1061
  36   2.0000      -0.694565       -18.9001
  37   2.0000      -0.665347       -18.1050
  38   2.0000      -0.647210       -17.6115
  39   2.0000      -0.619142       -16.8477
  40   2.0000      -0.602270       -16.3886
  41   2.0000      -0.569269       -15.4906
  42   2.0000      -0.553934       -15.0733
  43   2.0000      -0.548379       -14.9222
  44   2.0000      -0.544251       -14.8098
  45   2.0000      -0.534728       -14.5507
  46   2.0000      -0.520983       -14.1767
  47   2.0000      -0.506977       -13.7956
  48   2.0000      -0.499515       -13.5925
  49   2.0000      -0.494900       -13.4669
  50   2.0000      -0.487827       -13.2745
  51   2.0000      -0.472002       -12.8438
  52   2.0000      -0.470847       -12.8124
  53   2.0000      -0.466305       -12.6888
  54   2.0000      -0.464498       -12.6396
  55   2.0000      -0.448858       -12.2140
  56   2.0000      -0.441734       -12.0202
  57   2.0000      -0.439709       -11.9651
  58   2.0000      -0.436059       -11.8658
  59   2.0000      -0.428903       -11.6710
  60   2.0000      -0.428626       -11.6635
  61   2.0000      -0.412203       -11.2166
  62   2.0000      -0.401382       -10.9221
  63   2.0000      -0.353322        -9.6144
  64   2.0000      -0.333878        -9.0853
  65   2.0000      -0.330368        -8.9898
  66   2.0000      -0.287754        -7.8302
  67   0.0000       0.033196         0.9033
  68   0.0000       0.072472         1.9721
  69   0.0000       0.108657         2.9567
  70   0.0000       0.111108         3.0234
  71   0.0000       0.142893         3.8883

MULLIKEN ATOMIC CHARGES
-----------------------
   0 S :    0.124118
   1 C :   -0.109081
   2 C :   -0.114789
   3 C :    0.039320
   4 C :   -0.165097
   5 H :   -0.018034
   6 C :    0.048788
   7 H :    0.042390
   8 H :    0.031034
   9 C :   -0.040863
  10 H :    0.034877
  11 H :    0.018037
  12 C :   -0.058813
  13 H :    0.026630
  14 H :    0.011488
  15 H :    0.044388
  16 S :    0.102550
  17 C :   -0.079919
  18 C :   -0.037220
  19 C :   -0.044125
  20 C :   -0.098359
  21 H :    0.027794
  22 C :    0.046548
  23 H :    0.037667
  24 H :    0.002559
  25 C :   -0.082696
  26 H :    0.040138
  27 H :    0.030835
  28 C :   -0.048017
  29 H :    0.036995
  30 H :    0.039991
  31 H :    0.023298
  32 H :    0.041236
  33 H :    0.046330
Sum of atomic charges:   -0.0000000

LOEWDIN ATOMIC CHARGES
----------------------
   0 S :    0.452369
   1 C :   -0.217359
   2 C :   -0.067168
   3 C :   -0.068894
   4 C :   -0.199843
   5 H :    0.017640
   6 C :   -0.027843
   7 H :    0.034011
   8 H :    0.035612
   9 C :   -0.029052
  10 H :    0.029066
  11 H :    0.009264
  12 C :   -0.074924
  13 H :    0.018961
  14 H :    0.024112
  15 H :    0.028776
  16 S :    0.391527
  17 C :   -0.167603
  18 C :   -0.069291
  19 C :   -0.060028
  20 C :   -0.195390
  21 H :    0.037246
  22 C :   -0.035317
  23 H :    0.039206
  24 H :    0.023579
  25 C :   -0.039239
  26 H :    0.024762
  27 H :    0.028800
  28 C :   -0.071308
  29 H :    0.034629
  30 H :    0.025066
  31 H :    0.022371
  32 H :    0.024647
  33 H :    0.021614

  Mayer bond orders larger than 0.100000
B(  0-S ,  1-C ) :   1.1664 B(  0-S ,  4-C ) :   1.1835 B(  1-C ,  2-C ) :   1.5625
B(  1-C ,  4-C ) :   0.1050 B(  1-C , 32-H ) :   0.9757 B(  2-C ,  3-C ) :   1.2841
B(  2-C ,  6-C ) :   1.0057 B(  3-C ,  4-C ) :   1.5568 B(  3-C ,  5-H ) :   0.9959
B(  4-C , 20-C ) :   1.0070 B(  6-C ,  7-H ) :   0.9479 B(  6-C ,  8-H ) :   0.9475
B(  6-C ,  9-C ) :   1.0561 B(  9-C , 10-H ) :   0.9635 B(  9-C , 11-H ) :   0.9639
B(  9-C , 12-C ) :   1.0617 B( 12-C , 13-H ) :   0.9638 B( 12-C , 14-H ) :   0.9756
B( 12-C , 15-H ) :   0.9790 B( 16-S , 17-C ) :   1.1527 B( 16-S , 20-C ) :   1.1086
B( 17-C , 18-C ) :   1.6414 B( 17-C , 33-H ) :   0.9645 B( 18-C , 19-C ) :   1.1826
B( 18-C , 21-H ) :   0.9901 B( 19-C , 20-C ) :   1.6619 B( 19-C , 22-C ) :   1.0616
B( 22-C , 23-H ) :   0.9173 B( 22-C , 24-H ) :   0.9283 B( 22-C , 25-C ) :   1.0789
B( 25-C , 26-H ) :   0.9536 B( 25-C , 27-H ) :   0.9527 B( 25-C , 28-C ) :   1.0743
B( 28-C , 29-H ) :   0.9729 B( 28-C , 30-H ) :   0.9732 B( 28-C , 31-H ) :   0.9739

Dispersion correction           -0.014728815
FINAL SINGLE POINT ENERGY     -1339.860005856897

DIPOLE MOMENT
-------------
                                X             Y             Z
Electronic contribution:    -16.04646      10.97912       7.81945
Nuclear contribution   :     16.32456     -11.27408      -8.19218
                        -----------------------------------------
Total Dipole Moment    :      0.27810      -0.29497      -0.37273
                        -----------------------------------------
Magnitude (a.u.)       :      0.55071
Magnitude (Debye)      :      1.39978

Rotational constants in cm-1:     0.020670     0.008406     0.007303
Rotational constants in MHz :   619.663481   252.000040   218.950808

                             ****ORCA TERMINATED NORMALLY****
TOTAL RUN TIME: 0 days 0 hours 0 minutes 35 seconds 674 msec
