                         Program Version 4.2.1 -  RELEASE  -
|  1> ! wB97X-D3 SP def2-SVP
|  2> %pal
|  3> nprocs 16
|  4> end
|  5>
|  6> * xyz 0 1
|  7> S 	 -0.297533 	 -27.9154 	 85.2313
|  8> C 	 -0.651573 	 -29.5605 	 84.7503
|  9> C 	 0.0516412 	 -30.5386 	 85.4644
| 10> C 	 0.874052 	 -29.9135 	 86.4948
| 11> C 	 0.744688 	 -28.5471 	 86.5068
| 12> H 	 1.47236 	 -30.3702 	 87.2632
| 13> C 	 0.0293605 	 -32.0531 	 85.1395
| 14> H 	 -1.02042 	 -32.4265 	 85.3243
| 15> H 	 0.643366 	 -32.5022 	 85.8866
| 16> C 	 0.521172 	 -32.4211 	 83.7587
| 17> H 	 0.176156 	 -33.4893 	 83.5264
| 18> H 	 0.125572 	 -31.6504 	 83.0546
| 19> C 	 2.06572 	 -32.6549 	 83.6223
| 20> H 	 2.43457 	 -33.6559 	 83.8827
| 21> H 	 2.38407 	 -32.3863 	 82.598
| 22> H 	 2.52098 	 -32.0329 	 84.3292
| 23> S 	 3.05892 	 -27.0837 	 86.506
| 24> C 	 3.43133 	 -26.2548 	 87.9648
| 25> C 	 2.5598 	 -26.4922 	 89.0044
| 26> C 	 1.4248 	 -27.2446 	 88.5925
| 27> C 	 1.56091 	 -27.6248 	 87.3018
| 28> H 	 2.70765 	 -26.0217 	 89.9407
| 29> C 	 0.333685 	 -27.6023 	 89.6309
| 30> H 	 0.756727 	 -28.0506 	 90.6349
| 31> H 	 -0.179988 	 -28.4442 	 89.2131
| 32> C 	 -0.754291 	 -26.562 	 90.058
| 33> H 	 -1.42183 	 -26.2645 	 89.2119
| 34> H 	 -0.251866 	 -25.6247 	 90.2621
| 35> C 	 -1.5369 	 -26.8306 	 91.317
| 36> H 	 -1.01694 	 -26.8289 	 92.2365
| 37> H 	 -1.86464 	 -27.8332 	 91.1732
| 38> H 	 -2.41274 	 -26.1358 	 91.398
| 39> H 	 -1.27358 	 -29.8639 	 83.9483
| 40> H 	 4.2897 	 -25.5759 	 88.1536
| 41> *
| 42>
| 43>                          ****END OF INPUT****

CARTESIAN COORDINATES (ANGSTROEM)
---------------------------------
  S     -0.297533  -27.915400   85.231300
  C     -0.651573  -29.560500   84.750300
  C      0.051641  -30.538600   85.464400
  C      0.874052  -29.913500   86.494800
  C      0.744688  -28.547100   86.506800
  H      1.472360  -30.370200   87.263200
  C      0.029360  -32.053100   85.139500
  H     -1.020420  -32.426500   85.324300
  H      0.643366  -32.502200   85.886600
  C      0.521172  -32.421100   83.758700
  H      0.176156  -33.489300   83.526400
  H      0.125572  -31.650400   83.054600
  C      2.065720  -32.654900   83.622300
  H      2.434570  -33.655900   83.882700
  H      2.384070  -32.386300   82.598000
  H      2.520980  -32.032900   84.329200
  S      3.058920  -27.083700   86.506000
  C      3.431330  -26.254800   87.964800
  C      2.559800  -26.492200   89.004400
  C      1.424800  -27.244600   88.592500
  C      1.560910  -27.624800   87.301800
  H      2.707650  -26.021700   89.940700
  C      0.333685  -27.602300   89.630900
  H      0.756727  -28.050600   90.634900
  H     -0.179988  -28.444200   89.213100
  C     -0.754291  -26.562000   90.058000
  H     -1.421830  -26.264500   89.211900
  H     -0.251866  -25.624700   90.262100
  C     -1.536900  -26.830600   91.317000
  H     -1.016940  -26.828900   92.236500
  H     -1.864640  -27.833200   91.173200
  H     -2.412740  -26.135800   91.398000
  H     -1.273580  -29.863900   83.948300
  H      4.289700  -25.575900   88.153600

 Total Charge           Charge          ....    0
 Multiplicity           Mult            ....    1
 Number of Electrons    NEL             ....  134
 Basis Dimension        Dim             ....  322

ORBITAL ENERGIES
----------------

  NO   OCC          E(Eh)            E(eV)
   0   2.0000     -88.968146     -2420.9463
   1   2.0000     -88.968034     -2420.9433
   2   2.0000     -10.324375      -280.9405
   3   2.0000     -10.322873      -280.8997
   4   2.0000     -10.314495      -280.6717
   5   2.0000     -10.311932      -280.6019
   6   2.0000     -10.305722      -280.4330
   7   2.0000     -10.303534      -280.3734
   8   2.0000     -10.302279      -280.3393
   9   2.0000     -10.296166      -280.1729
  10   2.0000     -10.295235      -280.1476
  11   2.0000     -10.294807      -280.1359
  12   2.0000     -10.285721      -279.8887
  13   2.0000     -10.285478      -279.8821
  14   2.0000     -10.275662      -279.6150
  15   2.0000     -10.273927      -279.5678
  16   2.0000      -8.082963      -219.9486
  17   2.0000      -8.082482      -219.9355
  18   2.0000      -6.041342      -164.3933
  19   2.0000      -6.040912      -164.3816
  20   2.0000      -6.037698      -164.2941
  21   2.0000      -6.037147      -164.2791
  22   2.0000      -6.033583      -164.1821
  23   2.0000      -6.033264      -164.1735
  24   2.0000      -1.006373       -27.3848
  25   2.0000      -0.981157       -26.6986
  26   2.0000      -0.908156       -24.7122
  27   2.0000      -0.903104       -24.5747
  28   2.0000      -0.864719       -23.5302
  29   2.0000      -0.857252       -23.3270
  30   2.0000      -0.844986       -22.9932
  31   2.0000      -0.810917       -22.0662
  32   2.0000      -0.784735       -21.3537
  33   2.0000      -0.771802       -21.0018
  34   2.0000      -0.702174       -19.1071
  35   2.0000      -0.697763       -18.9871
  36   2.0000      -0.688519       -18.7356
  37   2.0000      -0.660136       -17.9632
  38   2.0000      -0.642736       -17.4897
  39   2.0000      -0.607564       -16.5327
  40   2.0000      -0.595434       -16.2026
  41   2.0000      -0.571589       -15.5537
  42   2.0000      -0.555214       -15.1081
  43   2.0000      -0.549345       -14.9484
  44   2.0000      -0.534956       -14.5569
  45   2.0000      -0.525716       -14.3055
  46   2.0000      -0.515034       -14.0148
  47   2.0000      -0.512980       -13.9589
  48   2.0000      -0.508429       -13.8351
  49   2.0000      -0.492731       -13.4079
  50   2.0000      -0.486249       -13.2315
  51   2.0000      -0.472568       -12.8592
  52   2.0000      -0.468992       -12.7619
  53   2.0000      -0.463806       -12.6208
  54   2.0000      -0.457300       -12.4438
  55   2.0000      -0.451212       -12.2781
  56   2.0000      -0.449708       -12.2372
  57   2.0000      -0.438930       -11.9439
  58   2.0000      -0.437275       -11.8989
  59   2.0000      -0.428151       -11.6506
  60   2.0000      -0.425865       -11.5884
  61   2.0000      -0.402087       -10.9414
  62   2.0000      -0.399343       -10.8667
  63   2.0000      -0.340803        -9.2737
  64   2.0000      -0.331791        -9.0285
  65   2.0000      -0.319179        -8.6853
  66   2.0000      -0.309617        -8.4251
  67   0.0000       0.044843         1.2202
  68   0.0000       0.056261         1.5310
  69   0.0000       0.108050         2.9402
  70   0.0000       0.116820         3.1788
  71   0.0000       0.127060         3.4575

MULLIKEN ATOMIC CHARGES
-----------------------
   0 S :    0.121716
   1 C :   -0.102034
   2 C :   -0.117579
   3 C :    0.056728
   4 C :   -0.197212
   5 H :    0.014358
   6 C :    0.076365
   7 H :    0.049943
   8 H :    0.008184
   9 C :   -0.105065
  10 H :    0.042351
  11 H :    0.042215
  12 C :   -0.038039
  13 H :    0.034124
  14 H :    0.042526
  15 H :    0.014356
  16 S :    0.134090
  17 C :   -0.092954
  18 C :   -0.032269
  19 C :    0.029402
  20 C :   -0.207425
  21 H :    0.003615
  22 C :    0.033260
  23 H :    0.042169
  24 H :    0.018820
  25 C :   -0.071104
  26 H :    0.038177
  27 H :    0.012863
  28 C :   -0.033978
  29 H :    0.026765
  30 H :    0.017197
  31 H :    0.045233
  32 H :    0.032573
  33 H :    0.060632
Sum of atomic charges:   -0.0000000

LOEWDIN ATOMIC CHARGES
----------------------
   0 S :    0.402650
   1 C :   -0.194824
   2 C :   -0.060119
   3 C :   -0.057559
   4 C :   -0.197746
   5 H :    0.032975
   6 C :   -0.036895
   7 H :    0.042186
   8 H :    0.023204
   9 C :   -0.048518
  10 H :    0.034658
  11 H :    0.027749
  12 C :   -0.063892
  13 H :    0.026198
  14 H :    0.032568
  15 H :    0.014008
  16 S :    0.409612
  17 C :   -0.195492
  18 C :   -0.068535
  19 C :   -0.051424
  20 C :   -0.194332
  21 H :    0.024855
  22 C :   -0.035509
  23 H :    0.043062
  24 H :    0.023521
  25 C :   -0.048478
  26 H :    0.031340
  27 H :    0.017189
  28 C :   -0.062715
  29 H :    0.018775
  30 H :    0.020219
  31 H :    0.037724
  32 H :    0.018176
  33 H :    0.035371

  Mayer bond orders larger than 0.100000
B(  0-S ,  1-C ) :   1.1391 B(  0-S ,  4-C ) :   1.1466 B(  1-C ,  2-C ) :   1.6340
B(  1-C , 32-H ) :   0.9667 B(  2-C ,  3-C ) :   1.2146 B(  2-C ,  6-C ) :   1.0105
B(  3-C ,  4-C ) :   1.6209 B(  3-C ,  5-H ) :   0.9919 B(  4-C , 20-C ) :   0.9926
B(  6-C ,  7-H ) :   0.9386 B(  6-C ,  8-H ) :   0.9432 B(  6-C ,  9-C ) :   1.0674
B(  9-C , 10-H ) :   0.9584 B(  9-C , 11-H ) :   0.9619 B(  9-C , 12-C ) :   1.0614
B( 12-C , 13-H ) :   0.9789 B( 12-C , 14-H ) :   0.9755 B( 12-C , 15-H ) :   0.9797
B( 16-S , 17-C ) :   1.1460 B( 16-S , 20-C ) :   1.1374 B( 17-C , 18-C ) :   1.6517
B( 17-C , 33-H ) :   0.9578 B( 18-C , 19-C ) :   1.2077 B( 18-C , 21-H ) :   0.9934
B( 19-C , 20-C ) :   1.6598 B( 19-C , 22-C ) :   1.0315 B( 22-C , 23-H ) :   0.9492
B( 22-C , 24-H ) :   0.9236 B( 22-C , 25-C ) :   1.0535 B( 25-C , 26-H ) :   0.9516
B( 25-C , 27-H ) :   0.9578 B( 25-C , 28-C ) :   1.0831 B( 28-C , 29-H ) :   0.9739
B( 28-C , 30-H ) :   0.9756 B( 28-C , 31-H ) :   0.9708

Dispersion correction           -0.013709382
FINAL SINGLE POINT ENERGY     -1339.863094528175

DIPOLE MOMENT
-------------
                                X             Y             Z
Electronic contribution:      7.60065      13.83149      -8.56439
Nuclear contribution   :     -7.60611     -14.15450       8.89923
                        -----------------------------------------
Total Dipole Moment    :     -0.00546      -0.32301       0.33484
                        -----------------------------------------
Magnitude (a.u.)       :      0.46528
Magnitude (Debye)      :      1.18264

Rotational constants in cm-1:     0.019805     0.007601     0.006454
Rotational constants in MHz :   593.740306   227.879474   193.490082

                             ****ORCA TERMINATED NORMALLY****
TOTAL RUN TIME: 0 days 0 hours 0 minutes 32 seconds 963 msec
