                         Program Version 4.2.1 -  RELEASE  -
|  1> ! wB97X-D3 SP def2-SVP
|  2> %pal
|  3> nprocs 16
|  4> end
|  5>
|  6> * xyz 0 1
|  7> S 	 0.864463 	 29.4392 	 46.2027
|  8> C 	 0.821144 	 28.7128 	 44.698
|  9> C 	 0.232923 	 29.5634 	 43.7539
| 10> C 	 -0.0460829 	 30.8367 	 44.259
| 11> C 	 0.350164 	 31.0165 	 45.5567
| 12> H 	 -0.623626 	 31.6368 	 43.7312
| 13> C 	 -0.145263 	 29.1906 	 42.3403
| 14> H 	 -0.897634 	 29.9261 	 41.9396
| 15> H 	 -0.598223 	 28.2483 	 42.3349
| 16> C 	 1.08179 	 29.0002 	 41.4117
| 17> H 	 1.55888 	 29.8645 	 41.1194
| 18> H 	 1.92613 	 28.5374 	 41.8843
| 19> C 	 0.728982 	 28.2393 	 40.1601
| 20> H 	 1.57052 	 28.089 	 39.5278
| 21> H 	 0.347485 	 27.167 	 40.3641
| 22> H 	 0.0226878 	 28.8954 	 39.5914
| 23> S 	 -0.635418 	 31.8486 	 47.8044
| 24> C 	 -0.332275 	 33.3955 	 48.3522
| 25> C 	 0.536142 	 34.09 	 47.5839
| 26> C 	 0.710502 	 33.4215 	 46.3341
| 27> C 	 0.18244 	 32.1591 	 46.4053
| 28> H 	 0.986771 	 35.0404 	 47.9128
| 29> C 	 1.71074 	 33.8986 	 45.2649
| 30> H 	 1.72896 	 35.0121 	 45.1229
| 31> H 	 1.3806 	 33.6202 	 44.2731
| 32> C 	 3.13319 	 33.4205 	 45.3927
| 33> H 	 3.18846 	 32.3018 	 45.2141
| 34> H 	 3.43988 	 33.521 	 46.4453
| 35> C 	 4.06442 	 34.1832 	 44.457
| 36> H 	 3.89512 	 33.9542 	 43.4351
| 37> H 	 5.12343 	 33.8898 	 44.6977
| 38> H 	 4.00926 	 35.2507 	 44.601
| 39> H 	 1.14285 	 27.692 	 44.4703
| 40> H 	 -0.280912 	 33.557 	 49.4286
| 41> *
| 42>
| 43>                          ****END OF INPUT****

CARTESIAN COORDINATES (ANGSTROEM)
---------------------------------
  S      0.864463   29.439200   46.202700
  C      0.821144   28.712800   44.698000
  C      0.232923   29.563400   43.753900
  C     -0.046083   30.836700   44.259000
  C      0.350164   31.016500   45.556700
  H     -0.623626   31.636800   43.731200
  C     -0.145263   29.190600   42.340300
  H     -0.897634   29.926100   41.939600
  H     -0.598223   28.248300   42.334900
  C      1.081790   29.000200   41.411700
  H      1.558880   29.864500   41.119400
  H      1.926130   28.537400   41.884300
  C      0.728982   28.239300   40.160100
  H      1.570520   28.089000   39.527800
  H      0.347485   27.167000   40.364100
  H      0.022688   28.895400   39.591400
  S     -0.635418   31.848600   47.804400
  C     -0.332275   33.395500   48.352200
  C      0.536142   34.090000   47.583900
  C      0.710502   33.421500   46.334100
  C      0.182440   32.159100   46.405300
  H      0.986771   35.040400   47.912800
  C      1.710740   33.898600   45.264900
  H      1.728960   35.012100   45.122900
  H      1.380600   33.620200   44.273100
  C      3.133190   33.420500   45.392700
  H      3.188460   32.301800   45.214100
  H      3.439880   33.521000   46.445300
  C      4.064420   34.183200   44.457000
  H      3.895120   33.954200   43.435100
  H      5.123430   33.889800   44.697700
  H      4.009260   35.250700   44.601000
  H      1.142850   27.692000   44.470300
  H     -0.280912   33.557000   49.428600

 Total Charge           Charge          ....    0
 Multiplicity           Mult            ....    1
 Number of Electrons    NEL             ....  134
 Basis Dimension        Dim             ....  322

ORBITAL ENERGIES
----------------

  NO   OCC          E(Eh)            E(eV)
   0   2.0000     -88.967602     -2420.9315
   1   2.0000     -88.961798     -2420.7736
   2   2.0000     -10.324113      -280.9334
   3   2.0000     -10.313437      -280.6429
   4   2.0000     -10.311555      -280.5917
   5   2.0000     -10.299260      -280.2571
   6   2.0000     -10.298624      -280.2398
   7   2.0000     -10.296214      -280.1742
   8   2.0000     -10.292006      -280.0597
   9   2.0000     -10.291562      -280.0476
  10   2.0000     -10.290220      -280.0111
  11   2.0000     -10.288288      -279.9586
  12   2.0000     -10.283579      -279.8304
  13   2.0000     -10.282139      -279.7912
  14   2.0000     -10.275411      -279.6081
  15   2.0000     -10.275252      -279.6038
  16   2.0000      -8.083151      -219.9537
  17   2.0000      -8.080567      -219.8834
  18   2.0000      -6.041500      -164.3976
  19   2.0000      -6.038666      -164.3205
  20   2.0000      -6.037512      -164.2891
  21   2.0000      -6.034544      -164.2083
  22   2.0000      -6.034056      -164.1950
  23   2.0000      -6.031444      -164.1239
  24   2.0000      -1.029076       -28.0026
  25   2.0000      -0.998763       -27.1777
  26   2.0000      -0.913906       -24.8687
  27   2.0000      -0.910023       -24.7630
  28   2.0000      -0.878740       -23.9117
  29   2.0000      -0.858738       -23.3674
  30   2.0000      -0.852202       -23.1896
  31   2.0000      -0.816884       -22.2285
  32   2.0000      -0.780714       -21.2443
  33   2.0000      -0.766678       -20.8624
  34   2.0000      -0.705392       -19.1947
  35   2.0000      -0.702170       -19.1070
  36   2.0000      -0.689839       -18.7715
  37   2.0000      -0.666588       -18.1388
  38   2.0000      -0.642190       -17.4749
  39   2.0000      -0.624648       -16.9975
  40   2.0000      -0.603948       -16.4343
  41   2.0000      -0.570441       -15.5225
  42   2.0000      -0.560440       -15.2503
  43   2.0000      -0.554920       -15.1001
  44   2.0000      -0.528981       -14.3943
  45   2.0000      -0.520859       -14.1733
  46   2.0000      -0.516936       -14.0665
  47   2.0000      -0.511060       -13.9066
  48   2.0000      -0.503342       -13.6966
  49   2.0000      -0.500189       -13.6108
  50   2.0000      -0.491897       -13.3852
  51   2.0000      -0.488468       -13.2919
  52   2.0000      -0.471788       -12.8380
  53   2.0000      -0.465240       -12.6598
  54   2.0000      -0.459647       -12.5076
  55   2.0000      -0.453112       -12.3298
  56   2.0000      -0.441465       -12.0129
  57   2.0000      -0.437627       -11.9084
  58   2.0000      -0.432863       -11.7788
  59   2.0000      -0.428212       -11.6523
  60   2.0000      -0.424912       -11.5625
  61   2.0000      -0.417247       -11.3539
  62   2.0000      -0.406458       -11.0603
  63   2.0000      -0.351759        -9.5718
  64   2.0000      -0.333996        -9.0885
  65   2.0000      -0.328144        -8.9292
  66   2.0000      -0.290726        -7.9111
  67   0.0000       0.033718         0.9175
  68   0.0000       0.067188         1.8283
  69   0.0000       0.119027         3.2389
  70   0.0000       0.122108         3.3227
  71   0.0000       0.138567         3.7706

MULLIKEN ATOMIC CHARGES
-----------------------
   0 S :    0.125809
   1 C :   -0.117578
   2 C :   -0.099552
   3 C :    0.021455
   4 C :   -0.161315
   5 H :    0.034592
   6 C :    0.104129
   7 H :    0.032940
   8 H :    0.005735
   9 C :   -0.036992
  10 H :   -0.000738
  11 H :    0.011178
  12 C :   -0.075553
  13 H :    0.024277
  14 H :    0.043453
  15 H :    0.036786
  16 S :    0.125250
  17 C :   -0.066945
  18 C :   -0.081833
  19 C :   -0.007020
  20 C :   -0.174443
  21 H :    0.033402
  22 C :    0.050762
  23 H :    0.016949
  24 H :    0.001433
  25 C :   -0.081230
  26 H :    0.043581
  27 H :    0.022126
  28 C :   -0.035243
  29 H :    0.027584
  30 H :    0.036436
  31 H :    0.027282
  32 H :    0.053453
  33 H :    0.059828
Sum of atomic charges:    0.0000000

LOEWDIN ATOMIC CHARGES
----------------------
   0 S :    0.430228
   1 C :   -0.224763
   2 C :   -0.069002
   3 C :   -0.066897
   4 C :   -0.193358
   5 H :    0.042751
   6 C :   -0.023931
   7 H :    0.037065
   8 H :    0.022312
   9 C :   -0.040866
  10 H :    0.014410
  11 H :    0.021390
  12 C :   -0.069379
  13 H :    0.019468
  14 H :    0.031730
  15 H :    0.029634
  16 S :    0.482794
  17 C :   -0.231784
  18 C :   -0.060527
  19 C :   -0.060188
  20 C :   -0.228131
  21 H :    0.038335
  22 C :   -0.040643
  23 H :    0.030796
  24 H :    0.024209
  25 C :   -0.045868
  26 H :    0.032647
  27 H :    0.021574
  28 C :   -0.062422
  29 H :    0.020079
  30 H :    0.033848
  31 H :    0.021883
  32 H :    0.033326
  33 H :    0.029278

  Mayer bond orders larger than 0.100000
B(  0-S ,  1-C ) :   1.1709 B(  0-S ,  4-C ) :   1.1546 B(  1-C ,  2-C ) :   1.5540
B(  1-C ,  4-C ) :   0.1085 B(  1-C , 32-H ) :   0.9678 B(  2-C ,  3-C ) :   1.2937
B(  2-C ,  6-C ) :   1.0263 B(  3-C ,  4-C ) :   1.5521 B(  3-C ,  5-H ) :   0.9857
B(  4-C , 20-C ) :   1.0353 B(  6-C ,  7-H ) :   0.9436 B(  6-C ,  8-H ) :   0.9360
B(  6-C ,  9-C ) :   1.0474 B(  9-C , 10-H ) :   0.9455 B(  9-C , 11-H ) :   0.9556
B(  9-C , 12-C ) :   1.0927 B( 12-C , 13-H ) :   0.9718 B( 12-C , 14-H ) :   0.9735
B( 12-C , 15-H ) :   0.9733 B( 16-S , 17-C ) :   1.1672 B( 16-S , 20-C ) :   1.2037
B( 17-C , 18-C ) :   1.6173 B( 17-C , 33-H ) :   0.9519 B( 18-C , 19-C ) :   1.2532
B( 18-C , 21-H ) :   0.9871 B( 19-C , 20-C ) :   1.5614 B( 19-C , 22-C ) :   1.0577
B( 22-C , 23-H ) :   0.9385 B( 22-C , 24-H ) :   0.9242 B( 22-C , 25-C ) :   1.0623
B( 25-C , 26-H ) :   0.9496 B( 25-C , 27-H ) :   0.9569 B( 25-C , 28-C ) :   1.0801
B( 28-C , 29-H ) :   0.9758 B( 28-C , 30-H ) :   0.9725 B( 28-C , 31-H ) :   0.9740

Dispersion correction           -0.014020456
FINAL SINGLE POINT ENERGY     -1339.863657926042

DIPOLE MOMENT
-------------
                                X             Y             Z
Electronic contribution:    -12.93734      -2.91055      25.88763
Nuclear contribution   :     13.28614       2.94228     -26.30542
                        -----------------------------------------
Total Dipole Moment    :      0.34880       0.03172      -0.41779
                        -----------------------------------------
Magnitude (a.u.)       :      0.54518
Magnitude (Debye)      :      1.38573

Rotational constants in cm-1:     0.019648     0.008421     0.006639
Rotational constants in MHz :   589.046189   252.455342   199.029913

                             ****ORCA TERMINATED NORMALLY****
TOTAL RUN TIME: 0 days 0 hours 0 minutes 32 seconds 846 msec
