                         Program Version 4.2.1 -  RELEASE  -
|  1> ! wB97X-D3 SP def2-SVP
|  2> %pal
|  3> nprocs 16
|  4> end
|  5>
|  6> * xyz 0 1
|  7> S 	 -52.6866 	 32.0455 	 92.8994
|  8> C 	 -53.4906 	 30.5616 	 92.3272
|  9> C 	 -54.8964 	 30.6923 	 92.3997
| 10> C 	 -55.2343 	 31.931 	 93.1419
| 11> C 	 -54.1843 	 32.74 	 93.4649
| 12> H 	 -56.2011 	 32.1508 	 93.5054
| 13> C 	 -55.9904 	 29.7303 	 92.0186
| 14> H 	 -56.844 	 30.2477 	 91.5617
| 15> H 	 -56.384 	 29.481 	 93.0358
| 16> C 	 -55.5643 	 28.512 	 91.2091
| 17> H 	 -54.6252 	 28.0874 	 91.7498
| 18> H 	 -56.189 	 27.7073 	 91.2634
| 19> C 	 -55.2068 	 28.8641 	 89.7398
| 20> H 	 -54.8518 	 27.9234 	 89.2673
| 21> H 	 -56.0998 	 29.2606 	 89.3578
| 22> H 	 -54.4523 	 29.6022 	 89.7489
| 23> S 	 -54.2017 	 35.4845 	 93.2676
| 24> C 	 -54.6121 	 36.4334 	 94.6825
| 25> C 	 -54.5035 	 35.6295 	 95.7951
| 26> C 	 -54.4347 	 34.2019 	 95.5714
| 27> C 	 -54.3122 	 33.9584 	 94.2387
| 28> H 	 -54.6322 	 36.1292 	 96.7363
| 29> C 	 -54.5391 	 33.1909 	 96.7062
| 30> H 	 -53.9256 	 33.4395 	 97.604
| 31> H 	 -53.9681 	 32.2408 	 96.4276
| 32> C 	 -56.011 	 32.8771 	 97.0753
| 33> H 	 -56.5352 	 32.4078 	 96.183
| 34> H 	 -56.4807 	 33.8636 	 97.2771
| 35> C 	 -56.3081 	 31.9989 	 98.2214
| 36> H 	 -57.3007 	 32.0459 	 98.7241
| 37> H 	 -55.5461 	 32.1557 	 99.018
| 38> H 	 -56.2181 	 30.9315 	 97.9618
| 39> H 	 -52.9735 	 29.7427 	 91.909
| 40> H 	 -54.6253 	 37.5606 	 94.7275
| 41> *
| 42>
| 43>                          ****END OF INPUT****

CARTESIAN COORDINATES (ANGSTROEM)
---------------------------------
  S    -52.686600   32.045500   92.899400
  C    -53.490600   30.561600   92.327200
  C    -54.896400   30.692300   92.399700
  C    -55.234300   31.931000   93.141900
  C    -54.184300   32.740000   93.464900
  H    -56.201100   32.150800   93.505400
  C    -55.990400   29.730300   92.018600
  H    -56.844000   30.247700   91.561700
  H    -56.384000   29.481000   93.035800
  C    -55.564300   28.512000   91.209100
  H    -54.625200   28.087400   91.749800
  H    -56.189000   27.707300   91.263400
  C    -55.206800   28.864100   89.739800
  H    -54.851800   27.923400   89.267300
  H    -56.099800   29.260600   89.357800
  H    -54.452300   29.602200   89.748900
  S    -54.201700   35.484500   93.267600
  C    -54.612100   36.433400   94.682500
  C    -54.503500   35.629500   95.795100
  C    -54.434700   34.201900   95.571400
  C    -54.312200   33.958400   94.238700
  H    -54.632200   36.129200   96.736300
  C    -54.539100   33.190900   96.706200
  H    -53.925600   33.439500   97.604000
  H    -53.968100   32.240800   96.427600
  C    -56.011000   32.877100   97.075300
  H    -56.535200   32.407800   96.183000
  H    -56.480700   33.863600   97.277100
  C    -56.308100   31.998900   98.221400
  H    -57.300700   32.045900   98.724100
  H    -55.546100   32.155700   99.018000
  H    -56.218100   30.931500   97.961800
  H    -52.973500   29.742700   91.909000
  H    -54.625300   37.560600   94.727500

 Total Charge           Charge          ....    0
 Multiplicity           Mult            ....    1
 Number of Electrons    NEL             ....  134
 Basis Dimension        Dim             ....  322

ORBITAL ENERGIES
----------------

  NO   OCC          E(Eh)            E(eV)
   0   2.0000     -88.963898     -2420.8308
   1   2.0000     -88.961006     -2420.7521
   2   2.0000     -10.329184      -281.0714
   3   2.0000     -10.325473      -280.9704
   4   2.0000     -10.321568      -280.8641
   5   2.0000     -10.318123      -280.7704
   6   2.0000     -10.311659      -280.5945
   7   2.0000     -10.309293      -280.5301
   8   2.0000     -10.304747      -280.4064
   9   2.0000     -10.299580      -280.2658
  10   2.0000     -10.293116      -280.0899
  11   2.0000     -10.292234      -280.0659
  12   2.0000     -10.292005      -280.0597
  13   2.0000     -10.288300      -279.9589
  14   2.0000     -10.280700      -279.7521
  15   2.0000     -10.274687      -279.5884
  16   2.0000      -8.078198      -219.8189
  17   2.0000      -8.075284      -219.7396
  18   2.0000      -6.036913      -164.2728
  19   2.0000      -6.033931      -164.1916
  20   2.0000      -6.032785      -164.1604
  21   2.0000      -6.030013      -164.0850
  22   2.0000      -6.028737      -164.0503
  23   2.0000      -6.025746      -163.9689
  24   2.0000      -1.001812       -27.2607
  25   2.0000      -0.977690       -26.6043
  26   2.0000      -0.915246       -24.9051
  27   2.0000      -0.908328       -24.7169
  28   2.0000      -0.867790       -23.6138
  29   2.0000      -0.851614       -23.1736
  30   2.0000      -0.846604       -23.0373
  31   2.0000      -0.810185       -22.0462
  32   2.0000      -0.783854       -21.3298
  33   2.0000      -0.775480       -21.1019
  34   2.0000      -0.711968       -19.3736
  35   2.0000      -0.699465       -19.0334
  36   2.0000      -0.689607       -18.7652
  37   2.0000      -0.657442       -17.8899
  38   2.0000      -0.644431       -17.5359
  39   2.0000      -0.608992       -16.5715
  40   2.0000      -0.594597       -16.1798
  41   2.0000      -0.577368       -15.7110
  42   2.0000      -0.560903       -15.2630
  43   2.0000      -0.554853       -15.0983
  44   2.0000      -0.537331       -14.6215
  45   2.0000      -0.525346       -14.2954
  46   2.0000      -0.520942       -14.1756
  47   2.0000      -0.518395       -14.1062
  48   2.0000      -0.509552       -13.8656
  49   2.0000      -0.499334       -13.5876
  50   2.0000      -0.493809       -13.4372
  51   2.0000      -0.480161       -13.0659
  52   2.0000      -0.470058       -12.7909
  53   2.0000      -0.466276       -12.6880
  54   2.0000      -0.454870       -12.3776
  55   2.0000      -0.449946       -12.2436
  56   2.0000      -0.439160       -11.9501
  57   2.0000      -0.432466       -11.7680
  58   2.0000      -0.426000       -11.5921
  59   2.0000      -0.424538       -11.5523
  60   2.0000      -0.420123       -11.4321
  61   2.0000      -0.418074       -11.3764
  62   2.0000      -0.406398       -11.0587
  63   2.0000      -0.332468        -9.0469
  64   2.0000      -0.330615        -8.9965
  65   2.0000      -0.320876        -8.7315
  66   2.0000      -0.308727        -8.4009
  67   0.0000       0.046689         1.2705
  68   0.0000       0.051811         1.4098
  69   0.0000       0.108511         2.9527
  70   0.0000       0.113190         3.0801
  71   0.0000       0.121381         3.3029

MULLIKEN ATOMIC CHARGES
-----------------------
   0 S :    0.109449
   1 C :   -0.129462
   2 C :   -0.085353
   3 C :    0.039544
   4 C :   -0.137722
   5 H :   -0.001513
   6 C :    0.035382
   7 H :    0.035872
   8 H :    0.044669
   9 C :   -0.068155
  10 H :    0.021395
  11 H :    0.006601
  12 C :   -0.004321
  13 H :    0.045617
  14 H :    0.021460
  15 H :    0.026679
  16 S :    0.090871
  17 C :   -0.107222
  18 C :   -0.043906
  19 C :    0.025981
  20 C :   -0.205443
  21 H :    0.013583
  22 C :    0.039441
  23 H :    0.032607
  24 H :    0.037872
  25 C :   -0.083169
  26 H :    0.038574
  27 H :    0.033217
  28 C :   -0.052156
  29 H :    0.045697
  30 H :    0.022559
  31 H :    0.028875
  32 H :    0.041727
  33 H :    0.080751
Sum of atomic charges:   -0.0000000

LOEWDIN ATOMIC CHARGES
----------------------
   0 S :    0.389605
   1 C :   -0.190302
   2 C :   -0.050334
   3 C :   -0.051240
   4 C :   -0.204261
   5 H :    0.021705
   6 C :   -0.041461
   7 H :    0.033474
   8 H :    0.044841
   9 C :   -0.039036
  10 H :    0.028414
  11 H :    0.009092
  12 C :   -0.048556
  13 H :    0.033662
  14 H :    0.018907
  15 H :    0.018567
  16 S :    0.372473
  17 C :   -0.190551
  18 C :   -0.071894
  19 C :   -0.049917
  20 C :   -0.170618
  21 H :    0.026065
  22 C :   -0.038272
  23 H :    0.034905
  24 H :    0.038263
  25 C :   -0.051590
  26 H :    0.031900
  27 H :    0.028038
  28 C :   -0.079170
  29 H :    0.034045
  30 H :    0.025439
  31 H :    0.025934
  32 H :    0.017402
  33 H :    0.044470

  Mayer bond orders larger than 0.100000
B(  0-S ,  1-C ) :   1.1212 B(  0-S ,  4-C ) :   1.1258 B(  1-C ,  2-C ) :   1.6228
B(  1-C , 32-H ) :   0.9711 B(  2-C ,  3-C ) :   1.2005 B(  2-C ,  6-C ) :   1.0121
B(  3-C ,  4-C ) :   1.6313 B(  3-C ,  5-H ) :   0.9949 B(  4-C , 20-C ) :   1.0203
B(  6-C ,  7-H ) :   0.9418 B(  6-C ,  8-H ) :   0.9317 B(  6-C ,  9-C ) :   1.0755
B(  9-C , 10-H ) :   0.9486 B(  9-C , 11-H ) :   0.9560 B(  9-C , 12-C ) :   1.0623
B( 12-C , 13-H ) :   0.9750 B( 12-C , 14-H ) :   0.9751 B( 12-C , 15-H ) :   0.9794
B( 16-S , 17-C ) :   1.1336 B( 16-S , 20-C ) :   1.1287 B( 17-C , 18-C ) :   1.6592
B( 17-C , 33-H ) :   0.9574 B( 18-C , 19-C ) :   1.1868 B( 18-C , 21-H ) :   0.9849
B( 19-C , 20-C ) :   1.6565 B( 19-C , 22-C ) :   1.0468 B( 22-C , 23-H ) :   0.9360
B( 22-C , 24-H ) :   0.9307 B( 22-C , 25-C ) :   1.0544 B( 25-C , 26-H ) :   0.9514
B( 25-C , 27-H ) :   0.9571 B( 25-C , 28-C ) :   1.0881 B( 28-C , 29-H ) :   0.9725
B( 28-C , 30-H ) :   0.9692 B( 28-C , 31-H ) :   0.9724

Dispersion correction           -0.014284587
FINAL SINGLE POINT ENERGY     -1339.865757119165

DIPOLE MOMENT
-------------
                                X             Y             Z
Electronic contribution:     13.71577      19.58121      -6.65395
Nuclear contribution   :    -14.20464     -19.98308       7.05737
                        -----------------------------------------
Total Dipole Moment    :     -0.48887      -0.40187       0.40342
                        -----------------------------------------
Magnitude (a.u.)       :      0.75049
Magnitude (Debye)      :      1.90760

Rotational constants in cm-1:     0.019292     0.008027     0.006450
Rotational constants in MHz :   578.355735   240.655600   193.358697

                             ****ORCA TERMINATED NORMALLY****
TOTAL RUN TIME: 0 days 0 hours 0 minutes 30 seconds 975 msec
