                         Program Version 4.2.1 -  RELEASE  -
|  1> ! wB97X-D3 SP def2-SVP
|  2> %pal
|  3> nprocs 16
|  4> end
|  5>
|  6> * xyz 0 1
|  7> S 	 26.0239 	 31.3234 	 59.0826
|  8> C 	 24.3481 	 30.9232 	 58.7655
|  9> C 	 23.6189 	 31.954 	 58.2459
| 10> C 	 24.3958 	 33.1819 	 58.354
| 11> C 	 25.7156 	 32.9985 	 58.7869
| 12> H 	 24.0293 	 34.1938 	 58.1372
| 13> C 	 22.1763 	 31.9952 	 57.8487
| 14> H 	 21.7111 	 32.8431 	 58.1643
| 15> H 	 21.7593 	 31.2583 	 58.5266
| 16> C 	 21.8431 	 31.7936 	 56.3457
| 17> H 	 22.4023 	 32.5564 	 55.699
| 18> H 	 22.2405 	 30.8414 	 56.0069
| 19> C 	 20.321 	 31.7972 	 56.1419
| 20> H 	 19.7281 	 31.0604 	 56.6993
| 21> H 	 19.9241 	 32.714 	 56.4635
| 22> H 	 20.0977 	 31.5882 	 55.154
| 23> S 	 27.4134 	 34.1831 	 60.5767
| 24> C 	 28.4513 	 35.5196 	 60.0957
| 25> C 	 28.1759 	 35.8899 	 58.8431
| 26> C 	 27.2153 	 35.0672 	 58.1478
| 27> C 	 26.7679 	 33.9606 	 58.9297
| 28> H 	 28.5614 	 36.7566 	 58.445
| 29> C 	 26.663 	 35.4775 	 56.7899
| 30> H 	 25.7651 	 34.8277 	 56.6703
| 31> H 	 27.3587 	 35.1564 	 56.0647
| 32> C 	 26.2231 	 36.9227 	 56.5327
| 33> H 	 25.709 	 37.0826 	 55.5939
| 34> H 	 27.1156 	 37.523 	 56.2937
| 35> C 	 25.4617 	 37.6779 	 57.6533
| 36> H 	 24.3869 	 37.3698 	 57.7804
| 37> H 	 25.4782 	 38.786 	 57.629
| 38> H 	 26.003 	 37.4312 	 58.5853
| 39> H 	 23.8603 	 29.9641 	 58.9203
| 40> H 	 28.9573 	 36.0999 	 60.831
| 41> *
| 42>
| 43>                          ****END OF INPUT****

CARTESIAN COORDINATES (ANGSTROEM)
---------------------------------
  S     26.023900   31.323400   59.082600
  C     24.348100   30.923200   58.765500
  C     23.618900   31.954000   58.245900
  C     24.395800   33.181900   58.354000
  C     25.715600   32.998500   58.786900
  H     24.029300   34.193800   58.137200
  C     22.176300   31.995200   57.848700
  H     21.711100   32.843100   58.164300
  H     21.759300   31.258300   58.526600
  C     21.843100   31.793600   56.345700
  H     22.402300   32.556400   55.699000
  H     22.240500   30.841400   56.006900
  C     20.321000   31.797200   56.141900
  H     19.728100   31.060400   56.699300
  H     19.924100   32.714000   56.463500
  H     20.097700   31.588200   55.154000
  S     27.413400   34.183100   60.576700
  C     28.451300   35.519600   60.095700
  C     28.175900   35.889900   58.843100
  C     27.215300   35.067200   58.147800
  C     26.767900   33.960600   58.929700
  H     28.561400   36.756600   58.445000
  C     26.663000   35.477500   56.789900
  H     25.765100   34.827700   56.670300
  H     27.358700   35.156400   56.064700
  C     26.223100   36.922700   56.532700
  H     25.709000   37.082600   55.593900
  H     27.115600   37.523000   56.293700
  C     25.461700   37.677900   57.653300
  H     24.386900   37.369800   57.780400
  H     25.478200   38.786000   57.629000
  H     26.003000   37.431200   58.585300
  H     23.860300   29.964100   58.920300
  H     28.957300   36.099900   60.831000

 Total Charge           Charge          ....    0
 Multiplicity           Mult            ....    1
 Number of Electrons    NEL             ....  134
 Basis Dimension        Dim             ....  322

ORBITAL ENERGIES
----------------

  NO   OCC          E(Eh)            E(eV)
   0   2.0000     -88.966054     -2420.8894
   1   2.0000     -88.960089     -2420.7271
   2   2.0000     -10.330691      -281.1124
   3   2.0000     -10.327005      -281.0121
   4   2.0000     -10.314034      -280.6591
   5   2.0000     -10.312686      -280.6225
   6   2.0000     -10.310786      -280.5708
   7   2.0000     -10.300001      -280.2773
   8   2.0000     -10.297108      -280.1985
   9   2.0000     -10.295834      -280.1639
  10   2.0000     -10.291347      -280.0418
  11   2.0000     -10.291201      -280.0378
  12   2.0000     -10.286469      -279.9090
  13   2.0000     -10.285212      -279.8748
  14   2.0000     -10.284249      -279.8486
  15   2.0000     -10.271631      -279.5053
  16   2.0000      -8.081166      -219.8997
  17   2.0000      -8.074645      -219.7223
  18   2.0000      -6.039733      -164.3495
  19   2.0000      -6.035650      -164.2384
  20   2.0000      -6.033180      -164.1712
  21   2.0000      -6.031799      -164.1336
  22   2.0000      -6.029220      -164.0634
  23   2.0000      -6.025315      -163.9572
  24   2.0000      -1.005169       -27.3520
  25   2.0000      -0.982735       -26.7416
  26   2.0000      -0.915199       -24.9038
  27   2.0000      -0.905429       -24.6380
  28   2.0000      -0.875738       -23.8301
  29   2.0000      -0.849930       -23.1278
  30   2.0000      -0.840840       -22.8804
  31   2.0000      -0.814819       -22.1724
  32   2.0000      -0.788489       -21.4559
  33   2.0000      -0.775370       -21.0989
  34   2.0000      -0.713569       -19.4172
  35   2.0000      -0.707467       -19.2512
  36   2.0000      -0.696228       -18.9453
  37   2.0000      -0.660346       -17.9689
  38   2.0000      -0.640078       -17.4174
  39   2.0000      -0.615828       -16.7575
  40   2.0000      -0.595052       -16.1922
  41   2.0000      -0.579648       -15.7730
  42   2.0000      -0.558957       -15.2100
  43   2.0000      -0.554527       -15.0894
  44   2.0000      -0.541011       -14.7216
  45   2.0000      -0.531583       -14.4651
  46   2.0000      -0.520107       -14.1528
  47   2.0000      -0.508985       -13.8502
  48   2.0000      -0.505979       -13.7684
  49   2.0000      -0.498141       -13.5551
  50   2.0000      -0.494309       -13.4508
  51   2.0000      -0.478843       -13.0300
  52   2.0000      -0.471537       -12.8312
  53   2.0000      -0.464072       -12.6280
  54   2.0000      -0.460283       -12.5249
  55   2.0000      -0.451116       -12.2755
  56   2.0000      -0.447444       -12.1756
  57   2.0000      -0.440493       -11.9864
  58   2.0000      -0.436005       -11.8643
  59   2.0000      -0.423895       -11.5348
  60   2.0000      -0.419686       -11.4202
  61   2.0000      -0.416680       -11.3385
  62   2.0000      -0.404052       -10.9948
  63   2.0000      -0.345007        -9.3881
  64   2.0000      -0.330613        -8.9964
  65   2.0000      -0.323136        -8.7930
  66   2.0000      -0.296264        -8.0618
  67   0.0000       0.027724         0.7544
  68   0.0000       0.069643         1.8951
  69   0.0000       0.111853         3.0437
  70   0.0000       0.118484         3.2241
  71   0.0000       0.124985         3.4010

MULLIKEN ATOMIC CHARGES
-----------------------
   0 S :    0.126283
   1 C :   -0.113861
   2 C :   -0.094358
   3 C :    0.029093
   4 C :   -0.174378
   5 H :    0.016946
   6 C :    0.096863
   7 H :   -0.009276
   8 H :    0.013157
   9 C :   -0.078533
  10 H :    0.042827
  11 H :    0.023088
  12 C :    0.008508
  13 H :    0.023148
  14 H :    0.013956
  15 H :    0.019056
  16 S :    0.080831
  17 C :   -0.063457
  18 C :    0.002105
  19 C :   -0.080151
  20 C :   -0.140710
  21 H :   -0.012630
  22 C :    0.119241
  23 H :    0.018905
  24 H :    0.033408
  25 C :   -0.082651
  26 H :    0.027352
  27 H :    0.018710
  28 C :   -0.079628
  29 H :    0.041763
  30 H :    0.039718
  31 H :    0.037779
  32 H :    0.041441
  33 H :    0.055453
Sum of atomic charges:    0.0000000

LOEWDIN ATOMIC CHARGES
----------------------
   0 S :    0.418543
   1 C :   -0.196168
   2 C :   -0.061457
   3 C :   -0.059249
   4 C :   -0.211983
   5 H :    0.029829
   6 C :   -0.028998
   7 H :    0.016254
   8 H :    0.034168
   9 C :   -0.032870
  10 H :    0.034051
  11 H :    0.020808
  12 C :   -0.056606
  13 H :    0.029585
  14 H :    0.017701
  15 H :    0.018061
  16 S :    0.387281
  17 C :   -0.167290
  18 C :   -0.067252
  19 C :   -0.045513
  20 C :   -0.197175
  21 H :    0.018425
  22 C :   -0.032742
  23 H :    0.034034
  24 H :    0.032331
  25 C :   -0.049226
  26 H :    0.026874
  27 H :    0.024040
  28 C :   -0.077666
  29 H :    0.027367
  30 H :    0.029920
  31 H :    0.029010
  32 H :    0.029051
  33 H :    0.026862

  Mayer bond orders larger than 0.100000
B(  0-S ,  1-C ) :   1.1338 B(  0-S ,  4-C ) :   1.1524 B(  1-C ,  2-C ) :   1.6381
B(  1-C , 32-H ) :   0.9618 B(  2-C ,  3-C ) :   1.2233 B(  2-C ,  6-C ) :   1.0187
B(  3-C ,  4-C ) :   1.5790 B(  3-C ,  5-H ) :   0.9866 B(  4-C , 20-C ) :   1.0377
B(  6-C ,  7-H ) :   0.9393 B(  6-C ,  8-H ) :   0.9382 B(  6-C ,  9-C ) :   1.0492
B(  9-C , 10-H ) :   0.9557 B(  9-C , 11-H ) :   0.9574 B(  9-C , 12-C ) :   1.0785
B( 12-C , 13-H ) :   0.9730 B( 12-C , 14-H ) :   0.9740 B( 12-C , 15-H ) :   0.9732
B( 16-S , 17-C ) :   1.1491 B( 16-S , 20-C ) :   1.1443 B( 17-C , 18-C ) :   1.6040
B( 17-C , 33-H ) :   0.9702 B( 18-C , 19-C ) :   1.2388 B( 18-C , 21-H ) :   1.0047
B( 19-C , 20-C ) :   1.5757 B( 19-C , 22-C ) :   1.0329 B( 22-C , 23-H ) :   0.9335
B( 22-C , 24-H ) :   0.9282 B( 22-C , 25-C ) :   1.0695 B( 25-C , 26-H ) :   0.9547
B( 25-C , 27-H ) :   0.9467 B( 25-C , 28-C ) :   1.0730 B( 28-C , 29-H ) :   0.9754
B( 28-C , 30-H ) :   0.9753 B( 28-C , 31-H ) :   0.9707

Dispersion correction           -0.014293040
FINAL SINGLE POINT ENERGY     -1339.864229050697

DIPOLE MOMENT
-------------
                                X             Y             Z
Electronic contribution:     21.06751     -10.92525      17.90033
Nuclear contribution   :    -21.59697      11.39214     -18.30843
                        -----------------------------------------
Total Dipole Moment    :     -0.52946       0.46689      -0.40811
                        -----------------------------------------
Magnitude (a.u.)       :      0.81539
Magnitude (Debye)      :      2.07257

Rotational constants in cm-1:     0.019250     0.008339     0.006288
Rotational constants in MHz :   577.112952   249.994186   188.498613

                             ****ORCA TERMINATED NORMALLY****
TOTAL RUN TIME: 0 days 0 hours 0 minutes 35 seconds 262 msec
