                         Program Version 4.2.1 -  RELEASE  -
|  1> ! wB97X-D3 SP def2-SVP
|  2> %pal
|  3> nprocs 16
|  4> end
|  5>
|  6> * xyz 0 1
|  7> S 	 -35.2157 	 60.5198 	 114.144
|  8> C 	 -36.6568 	 60.9086 	 115.031
|  9> C 	 -36.7241 	 60.0363 	 116.089
| 10> C 	 -35.7267 	 59.0515 	 116.104
| 11> C 	 -34.7097 	 59.3258 	 115.162
| 12> H 	 -35.6968 	 58.2866 	 116.839
| 13> C 	 -37.8868 	 59.9046 	 117.129
| 14> H 	 -38.5471 	 59.082 	 116.86
| 15> H 	 -38.4743 	 60.834 	 117.009
| 16> C 	 -37.3674 	 59.8746 	 118.641
| 17> H 	 -36.7285 	 59.0142 	 118.704
| 18> H 	 -36.8284 	 60.8082 	 118.852
| 19> C 	 -38.4853 	 59.5693 	 119.619
| 20> H 	 -38.8408 	 58.5297 	 119.394
| 21> H 	 -38.1946 	 59.7404 	 120.656
| 22> H 	 -39.3945 	 60.1469 	 119.441
| 23> S 	 -33.0973 	 58.0539 	 113.272
| 24> C 	 -31.7342 	 57.1633 	 113.85
| 25> C 	 -31.615 	 57.1237 	 115.188
| 26> C 	 -32.582 	 57.9727 	 115.831
| 27> C 	 -33.4813 	 58.5593 	 114.939
| 28> H 	 -30.6677 	 56.8306 	 115.613
| 29> C 	 -32.6087 	 58.2229 	 117.311
| 30> H 	 -33.3745 	 57.5646 	 117.739
| 31> H 	 -33.0436 	 59.2139 	 117.535
| 32> C 	 -31.2827 	 58.1967 	 118.066
| 33> H 	 -30.6531 	 58.9769 	 117.51
| 34> H 	 -30.7805 	 57.2506 	 117.741
| 35> C 	 -31.3882 	 58.3435 	 119.62
| 36> H 	 -31.8325 	 57.469 	 120.051
| 37> H 	 -32.0272 	 59.1742 	 119.852
| 38> H 	 -30.3784 	 58.5115 	 119.975
| 39> H 	 -37.274 	 61.6996 	 114.735
| 40> H 	 -30.9132 	 56.7873 	 113.22
| 41> *
| 42>
| 43>                          ****END OF INPUT****

CARTESIAN COORDINATES (ANGSTROEM)
---------------------------------
  S    -35.215700   60.519800  114.144000
  C    -36.656800   60.908600  115.031000
  C    -36.724100   60.036300  116.089000
  C    -35.726700   59.051500  116.104000
  C    -34.709700   59.325800  115.162000
  H    -35.696800   58.286600  116.839000
  C    -37.886800   59.904600  117.129000
  H    -38.547100   59.082000  116.860000
  H    -38.474300   60.834000  117.009000
  C    -37.367400   59.874600  118.641000
  H    -36.728500   59.014200  118.704000
  H    -36.828400   60.808200  118.852000
  C    -38.485300   59.569300  119.619000
  H    -38.840800   58.529700  119.394000
  H    -38.194600   59.740400  120.656000
  H    -39.394500   60.146900  119.441000
  S    -33.097300   58.053900  113.272000
  C    -31.734200   57.163300  113.850000
  C    -31.615000   57.123700  115.188000
  C    -32.582000   57.972700  115.831000
  C    -33.481300   58.559300  114.939000
  H    -30.667700   56.830600  115.613000
  C    -32.608700   58.222900  117.311000
  H    -33.374500   57.564600  117.739000
  H    -33.043600   59.213900  117.535000
  C    -31.282700   58.196700  118.066000
  H    -30.653100   58.976900  117.510000
  H    -30.780500   57.250600  117.741000
  C    -31.388200   58.343500  119.620000
  H    -31.832500   57.469000  120.051000
  H    -32.027200   59.174200  119.852000
  H    -30.378400   58.511500  119.975000
  H    -37.274000   61.699600  114.735000
  H    -30.913200   56.787300  113.220000

 Total Charge           Charge          ....    0
 Multiplicity           Mult            ....    1
 Number of Electrons    NEL             ....  134
 Basis Dimension        Dim             ....  322

ORBITAL ENERGIES
----------------

  NO   OCC          E(Eh)            E(eV)
   0   2.0000     -88.964546     -2420.8484
   1   2.0000     -88.964297     -2420.8416
   2   2.0000     -10.328015      -281.0396
   3   2.0000     -10.325919      -280.9825
   4   2.0000     -10.314574      -280.6738
   5   2.0000     -10.309734      -280.5421
   6   2.0000     -10.305201      -280.4188
   7   2.0000     -10.299361      -280.2599
   8   2.0000     -10.298163      -280.2273
   9   2.0000     -10.295482      -280.1543
  10   2.0000     -10.290353      -280.0148
  11   2.0000     -10.289209      -279.9836
  12   2.0000     -10.288259      -279.9578
  13   2.0000     -10.288236      -279.9571
  14   2.0000     -10.281783      -279.7815
  15   2.0000     -10.281395      -279.7710
  16   2.0000      -8.081638      -219.9125
  17   2.0000      -8.079148      -219.8448
  18   2.0000      -6.039826      -164.3520
  19   2.0000      -6.037668      -164.2933
  20   2.0000      -6.035603      -164.2371
  21   2.0000      -6.033689      -164.1850
  22   2.0000      -6.032789      -164.1605
  23   2.0000      -6.029839      -164.0802
  24   2.0000      -1.016908       -27.6715
  25   2.0000      -0.990473       -26.9522
  26   2.0000      -0.907926       -24.7059
  27   2.0000      -0.906286       -24.6613
  28   2.0000      -0.873318       -23.7642
  29   2.0000      -0.852584       -23.2000
  30   2.0000      -0.845451       -23.0059
  31   2.0000      -0.816296       -22.2126
  32   2.0000      -0.782349       -21.2888
  33   2.0000      -0.773239       -21.0409
  34   2.0000      -0.708326       -19.2745
  35   2.0000      -0.699287       -19.0286
  36   2.0000      -0.694461       -18.8972
  37   2.0000      -0.651977       -17.7412
  38   2.0000      -0.642512       -17.4836
  39   2.0000      -0.624985       -17.0067
  40   2.0000      -0.599612       -16.3163
  41   2.0000      -0.571911       -15.5625
  42   2.0000      -0.564667       -15.3654
  43   2.0000      -0.559280       -15.2188
  44   2.0000      -0.528884       -14.3917
  45   2.0000      -0.525784       -14.3073
  46   2.0000      -0.517442       -14.0803
  47   2.0000      -0.515967       -14.0402
  48   2.0000      -0.504661       -13.7325
  49   2.0000      -0.502586       -13.6761
  50   2.0000      -0.490537       -13.3482
  51   2.0000      -0.483989       -13.1700
  52   2.0000      -0.475271       -12.9328
  53   2.0000      -0.467782       -12.7290
  54   2.0000      -0.463262       -12.6060
  55   2.0000      -0.453610       -12.3434
  56   2.0000      -0.444389       -12.0924
  57   2.0000      -0.439328       -11.9547
  58   2.0000      -0.431382       -11.7385
  59   2.0000      -0.420875       -11.4526
  60   2.0000      -0.417518       -11.3612
  61   2.0000      -0.412795       -11.2327
  62   2.0000      -0.409603       -11.1459
  63   2.0000      -0.351132        -9.5548
  64   2.0000      -0.332281        -9.0418
  65   2.0000      -0.330089        -8.9822
  66   2.0000      -0.291251        -7.9254
  67   0.0000       0.026693         0.7264
  68   0.0000       0.081482         2.2172
  69   0.0000       0.113837         3.0977
  70   0.0000       0.123664         3.3651
  71   0.0000       0.130582         3.5533

MULLIKEN ATOMIC CHARGES
-----------------------
   0 S :    0.113688
   1 C :   -0.119241
   2 C :   -0.072545
   3 C :    0.034359
   4 C :   -0.146387
   5 H :   -0.004123
   6 C :    0.032002
   7 H :    0.046430
   8 H :    0.018499
   9 C :   -0.080430
  10 H :    0.025877
  11 H :    0.043888
  12 C :   -0.046522
  13 H :    0.029485
  14 H :    0.044600
  15 H :    0.021890
  16 S :    0.100791
  17 C :   -0.094150
  18 C :   -0.026886
  19 C :   -0.055602
  20 C :   -0.127063
  21 H :    0.026995
  22 C :    0.044830
  23 H :    0.031693
  24 H :    0.028704
  25 C :   -0.153869
  26 H :    0.041791
  27 H :    0.033443
  28 C :    0.008970
  29 H :    0.033438
  30 H :    0.028374
  31 H :    0.041871
  32 H :    0.031309
  33 H :    0.063889
Sum of atomic charges:   -0.0000000

LOEWDIN ATOMIC CHARGES
----------------------
   0 S :    0.464354
   1 C :   -0.200114
   2 C :   -0.064582
   3 C :   -0.063990
   4 C :   -0.225649
   5 H :    0.021046
   6 C :   -0.028125
   7 H :    0.030985
   8 H :    0.027032
   9 C :   -0.037617
  10 H :    0.018020
  11 H :    0.028535
  12 C :   -0.070333
  13 H :    0.030709
  14 H :    0.028048
  15 H :    0.021164
  16 S :    0.392783
  17 C :   -0.183412
  18 C :   -0.082818
  19 C :   -0.049078
  20 C :   -0.190070
  21 H :    0.033110
  22 C :   -0.046261
  23 H :    0.029028
  24 H :    0.032258
  25 C :   -0.050974
  26 H :    0.031767
  27 H :    0.019855
  28 C :   -0.052509
  29 H :    0.026044
  30 H :    0.024502
  31 H :    0.031117
  32 H :    0.018901
  33 H :    0.036273

  Mayer bond orders larger than 0.100000
B(  0-S ,  1-C ) :   1.1544 B(  0-S ,  4-C ) :   1.2209 B(  1-C ,  2-C ) :   1.5452
B(  1-C ,  4-C ) :   0.1036 B(  1-C , 32-H ) :   0.9903 B(  2-C ,  3-C ) :   1.3083
B(  2-C ,  6-C ) :   1.0105 B(  3-C ,  4-C ) :   1.4713 B(  3-C ,  5-H ) :   1.0006
B(  4-C , 20-C ) :   1.0351 B(  6-C ,  7-H ) :   0.9511 B(  6-C ,  8-H ) :   0.9446
B(  6-C ,  9-C ) :   1.0507 B(  9-C , 10-H ) :   0.9601 B(  9-C , 11-H ) :   0.9589
B(  9-C , 12-C ) :   1.0805 B( 12-C , 13-H ) :   0.9739 B( 12-C , 14-H ) :   0.9740
B( 12-C , 15-H ) :   0.9745 B( 16-S , 17-C ) :   1.1585 B( 16-S , 20-C ) :   1.1181
B( 17-C , 18-C ) :   1.6529 B( 17-C , 33-H ) :   0.9535 B( 18-C , 19-C ) :   1.2296
B( 18-C , 21-H ) :   0.9734 B( 19-C , 20-C ) :   1.6257 B( 19-C , 22-C ) :   1.0461
B( 22-C , 23-H ) :   0.9238 B( 22-C , 24-H ) :   0.9331 B( 22-C , 25-C ) :   1.0533
B( 25-C , 26-H ) :   0.9612 B( 25-C , 27-H ) :   0.9512 B( 25-C , 28-C ) :   1.0685
B( 28-C , 29-H ) :   0.9741 B( 28-C , 30-H ) :   0.9760 B( 28-C , 31-H ) :   0.9745

Dispersion correction           -0.013594329
FINAL SINGLE POINT ENERGY     -1339.878225635030

DIPOLE MOMENT
-------------
                                X             Y             Z
Electronic contribution:      4.39548       1.62163     -31.79146
Nuclear contribution   :     -4.41276      -1.65269      32.43983
                        -----------------------------------------
Total Dipole Moment    :     -0.01728      -0.03106       0.64838
                        -----------------------------------------
Magnitude (a.u.)       :      0.64935
Magnitude (Debye)      :      1.65052

Rotational constants in cm-1:     0.015810     0.009326     0.006334
Rotational constants in MHz :   473.981023   279.582632   189.903139

                             ****ORCA TERMINATED NORMALLY****
TOTAL RUN TIME: 0 days 0 hours 0 minutes 29 seconds 330 msec
