                         Program Version 4.2.1 -  RELEASE  -
|  1> ! wB97X-D3 SP def2-SVP
|  2> %pal
|  3> nprocs 16
|  4> end
|  5>
|  6> * xyz 0 1
|  7> S 	 32.7974 	 19.7948 	 49.3934
|  8> C 	 32.243 	 20.7694 	 50.7169
|  9> C 	 31.9338 	 20.0177 	 51.8406
| 10> C 	 32.1817 	 18.6261 	 51.6765
| 11> C 	 32.6005 	 18.2822 	 50.3801
| 12> H 	 32.0506 	 17.9331 	 52.4169
| 13> C 	 31.5202 	 20.5747 	 53.1299
| 14> H 	 30.4751 	 20.2266 	 53.3022
| 15> H 	 31.5192 	 21.6477 	 53.0749
| 16> C 	 32.2503 	 20.0989 	 54.3341
| 17> H 	 32.2214 	 18.9642 	 54.412
| 18> H 	 33.2991 	 20.4235 	 54.1919
| 19> C 	 31.7421 	 20.6907 	 55.6078
| 20> H 	 31.7436 	 21.7853 	 55.5437
| 21> H 	 30.6603 	 20.388 	 55.7921
| 22> H 	 32.3228 	 20.4251 	 56.4459
| 23> S 	 32.1263 	 16.6961 	 48.2685
| 24> C 	 32.5404 	 15.0776 	 48.1504
| 25> C 	 33.3536 	 14.7489 	 49.1826
| 26> C 	 33.5577 	 15.7529 	 50.1874
| 27> C 	 32.8833 	 16.9632 	 49.8206
| 28> H 	 33.6308 	 13.7475 	 49.0731
| 29> C 	 34.3364 	 15.4208 	 51.4101
| 30> H 	 34.2369 	 14.396 	 51.6606
| 31> H 	 33.911 	 15.9247 	 52.2806
| 32> C 	 35.7635 	 15.6539 	 51.2478
| 33> H 	 36.0825 	 15.3427 	 50.2286
| 34> H 	 36.4057 	 15.0654 	 51.9341
| 35> C 	 36.1032 	 17.1215 	 51.245
| 36> H 	 35.6958 	 17.61 	 52.1564
| 37> H 	 35.6882 	 17.613 	 50.3392
| 38> H 	 37.1427 	 17.2256 	 51.2519
| 39> H 	 32.169 	 21.8324 	 50.6215
| 40> H 	 32.2718 	 14.4466 	 47.3517
| 41> *
| 42>
| 43>                          ****END OF INPUT****

CARTESIAN COORDINATES (ANGSTROEM)
---------------------------------
  S     32.797400   19.794800   49.393400
  C     32.243000   20.769400   50.716900
  C     31.933800   20.017700   51.840600
  C     32.181700   18.626100   51.676500
  C     32.600500   18.282200   50.380100
  H     32.050600   17.933100   52.416900
  C     31.520200   20.574700   53.129900
  H     30.475100   20.226600   53.302200
  H     31.519200   21.647700   53.074900
  C     32.250300   20.098900   54.334100
  H     32.221400   18.964200   54.412000
  H     33.299100   20.423500   54.191900
  C     31.742100   20.690700   55.607800
  H     31.743600   21.785300   55.543700
  H     30.660300   20.388000   55.792100
  H     32.322800   20.425100   56.445900
  S     32.126300   16.696100   48.268500
  C     32.540400   15.077600   48.150400
  C     33.353600   14.748900   49.182600
  C     33.557700   15.752900   50.187400
  C     32.883300   16.963200   49.820600
  H     33.630800   13.747500   49.073100
  C     34.336400   15.420800   51.410100
  H     34.236900   14.396000   51.660600
  H     33.911000   15.924700   52.280600
  C     35.763500   15.653900   51.247800
  H     36.082500   15.342700   50.228600
  H     36.405700   15.065400   51.934100
  C     36.103200   17.121500   51.245000
  H     35.695800   17.610000   52.156400
  H     35.688200   17.613000   50.339200
  H     37.142700   17.225600   51.251900
  H     32.169000   21.832400   50.621500
  H     32.271800   14.446600   47.351700

 Total Charge           Charge          ....    0
 Multiplicity           Mult            ....    1
 Number of Electrons    NEL             ....  134
 Basis Dimension        Dim             ....  322

ORBITAL ENERGIES
----------------

  NO   OCC          E(Eh)            E(eV)
   0   2.0000     -88.966834     -2420.9106
   1   2.0000     -88.958948     -2420.6960
   2   2.0000     -10.339231      -281.3448
   3   2.0000     -10.332922      -281.1731
   4   2.0000     -10.312033      -280.6047
   5   2.0000     -10.311839      -280.5994
   6   2.0000     -10.305028      -280.4141
   7   2.0000     -10.297023      -280.1962
   8   2.0000     -10.291398      -280.0432
   9   2.0000     -10.288594      -279.9669
  10   2.0000     -10.285542      -279.8838
  11   2.0000     -10.284693      -279.8607
  12   2.0000     -10.280509      -279.7469
  13   2.0000     -10.279445      -279.7179
  14   2.0000     -10.277492      -279.6648
  15   2.0000     -10.264388      -279.3082
  16   2.0000      -8.080711      -219.8873
  17   2.0000      -8.075529      -219.7463
  18   2.0000      -6.039325      -164.3384
  19   2.0000      -6.035337      -164.2299
  20   2.0000      -6.033777      -164.1874
  21   2.0000      -6.031414      -164.1231
  22   2.0000      -6.029580      -164.0732
  23   2.0000      -6.026612      -163.9925
  24   2.0000      -1.008814       -27.4512
  25   2.0000      -0.985950       -26.8291
  26   2.0000      -0.926135       -25.2014
  27   2.0000      -0.923853       -25.1393
  28   2.0000      -0.874406       -23.7938
  29   2.0000      -0.853602       -23.2277
  30   2.0000      -0.846409       -23.0320
  31   2.0000      -0.819943       -22.3118
  32   2.0000      -0.785855       -21.3842
  33   2.0000      -0.772666       -21.0253
  34   2.0000      -0.714651       -19.4467
  35   2.0000      -0.690491       -18.7892
  36   2.0000      -0.689403       -18.7596
  37   2.0000      -0.657788       -17.8993
  38   2.0000      -0.643712       -17.5163
  39   2.0000      -0.633271       -17.2322
  40   2.0000      -0.607483       -16.5304
  41   2.0000      -0.579533       -15.7699
  42   2.0000      -0.571044       -15.5389
  43   2.0000      -0.563353       -15.3296
  44   2.0000      -0.538462       -14.6523
  45   2.0000      -0.525381       -14.2963
  46   2.0000      -0.520616       -14.1667
  47   2.0000      -0.517211       -14.0740
  48   2.0000      -0.508362       -13.8332
  49   2.0000      -0.503890       -13.7115
  50   2.0000      -0.494407       -13.4535
  51   2.0000      -0.480202       -13.0670
  52   2.0000      -0.472829       -12.8663
  53   2.0000      -0.471251       -12.8234
  54   2.0000      -0.459388       -12.5006
  55   2.0000      -0.448544       -12.2055
  56   2.0000      -0.441173       -12.0049
  57   2.0000      -0.434975       -11.8363
  58   2.0000      -0.428330       -11.6554
  59   2.0000      -0.426361       -11.6019
  60   2.0000      -0.416856       -11.3432
  61   2.0000      -0.411746       -11.2042
  62   2.0000      -0.406472       -11.0607
  63   2.0000      -0.352185        -9.5834
  64   2.0000      -0.328223        -8.9314
  65   2.0000      -0.327289        -8.9060
  66   2.0000      -0.287722        -7.8293
  67   0.0000       0.028178         0.7668
  68   0.0000       0.068649         1.8680
  69   0.0000       0.115385         3.1398
  70   0.0000       0.121816         3.3148
  71   0.0000       0.128575         3.4987

MULLIKEN ATOMIC CHARGES
-----------------------
   0 S :    0.106224
   1 C :   -0.125923
   2 C :   -0.059824
   3 C :    0.061108
   4 C :   -0.130126
   5 H :   -0.027327
   6 C :    0.087349
   7 H :    0.029526
   8 H :    0.007264
   9 C :   -0.121713
  10 H :    0.039215
  11 H :    0.032669
  12 C :   -0.022733
  13 H :    0.024479
  14 H :    0.031450
  15 H :    0.029728
  16 S :    0.098837
  17 C :   -0.075346
  18 C :   -0.040321
  19 C :   -0.036023
  20 C :   -0.163682
  21 H :   -0.005257
  22 C :    0.142102
  23 H :    0.002885
  24 H :    0.014469
  25 C :   -0.088107
  26 H :    0.021076
  27 H :    0.028256
  28 C :   -0.033837
  29 H :    0.023305
  30 H :    0.047139
  31 H :    0.017260
  32 H :    0.042698
  33 H :    0.043176
Sum of atomic charges:    0.0000000

LOEWDIN ATOMIC CHARGES
----------------------
   0 S :    0.387005
   1 C :   -0.198194
   2 C :   -0.062109
   3 C :   -0.045587
   4 C :   -0.171197
   5 H :    0.013815
   6 C :   -0.037087
   7 H :    0.037354
   8 H :    0.026355
   9 C :   -0.048802
  10 H :    0.028059
  11 H :    0.027138
  12 C :   -0.062520
  13 H :    0.025330
  14 H :    0.030697
  15 H :    0.020989
  16 S :    0.440271
  17 C :   -0.199919
  18 C :   -0.074669
  19 C :   -0.046551
  20 C :   -0.203789
  21 H :    0.024262
  22 C :   -0.034733
  23 H :    0.029384
  24 H :    0.029146
  25 C :   -0.045772
  26 H :    0.028663
  27 H :    0.023577
  28 C :   -0.060047
  29 H :    0.022980
  30 H :    0.031859
  31 H :    0.015527
  32 H :    0.023757
  33 H :    0.024807

  Mayer bond orders larger than 0.100000
B(  0-S ,  1-C ) :   1.1334 B(  0-S ,  4-C ) :   1.1430 B(  1-C ,  2-C ) :   1.5973
B(  1-C , 32-H ) :   0.9701 B(  2-C ,  3-C ) :   1.2345 B(  2-C ,  6-C ) :   1.0464
B(  3-C ,  4-C ) :   1.5639 B(  3-C ,  5-H ) :   1.0102 B(  4-C , 20-C ) :   1.0525
B(  6-C ,  7-H ) :   0.9164 B(  6-C ,  8-H ) :   0.9396 B(  6-C ,  9-C ) :   1.0737
B(  9-C , 10-H ) :   0.9438 B(  9-C , 11-H ) :   0.9501 B(  9-C , 12-C ) :   1.1003
B( 12-C , 13-H ) :   0.9702 B( 12-C , 14-H ) :   0.9698 B( 12-C , 15-H ) :   0.9716
B( 16-S , 17-C ) :   1.1764 B( 16-S , 20-C ) :   1.1701 B( 17-C , 18-C ) :   1.5959
B( 17-C , 20-C ) :   0.1011 B( 17-C , 33-H ) :   0.9725 B( 18-C , 19-C ) :   1.2347
B( 18-C , 21-H ) :   1.0031 B( 19-C , 20-C ) :   1.5257 B( 19-C , 22-C ) :   1.0498
B( 22-C , 23-H ) :   0.9137 B( 22-C , 24-H ) :   0.9332 B( 22-C , 25-C ) :   1.0847
B( 25-C , 26-H ) :   0.9470 B( 25-C , 27-H ) :   0.9530 B( 25-C , 28-C ) :   1.0818
B( 28-C , 29-H ) :   0.9746 B( 28-C , 30-H ) :   0.9714 B( 28-C , 31-H ) :   0.9713

Dispersion correction           -0.014522816
FINAL SINGLE POINT ENERGY     -1339.873055465549

DIPOLE MOMENT
-------------
                                X             Y             Z
Electronic contribution:     -7.99650      -1.80208     -25.89005
Nuclear contribution   :      8.08643       1.57332      26.45077
                        -----------------------------------------
Total Dipole Moment    :      0.08993      -0.22876       0.56072
                        -----------------------------------------
Magnitude (a.u.)       :      0.61223
Magnitude (Debye)      :      1.55616

Rotational constants in cm-1:     0.020027     0.008562     0.007054
Rotational constants in MHz :   600.381895   256.677814   211.462115

                             ****ORCA TERMINATED NORMALLY****
TOTAL RUN TIME: 0 days 0 hours 0 minutes 35 seconds 666 msec
