                         Program Version 4.2.1 -  RELEASE  -
|  1> ! wB97X-D3 SP def2-SVP
|  2> %pal
|  3> nprocs 16
|  4> end
|  5>
|  6> * xyz 0 1
|  7> S 	 11.6905 	 -6.66362 	 70.8638
|  8> C 	 11.2671 	 -4.97579 	 71.4926
|  9> C 	 10.1617 	 -4.41792 	 70.8666
| 10> C 	 9.68864 	 -5.32079 	 69.8742
| 11> C 	 10.1878 	 -6.60998 	 69.8856
| 12> H 	 8.89608 	 -5.15723 	 69.2072
| 13> C 	 9.70753 	 -2.99824 	 71.0089
| 14> H 	 9.74826 	 -2.59646 	 71.988
| 15> H 	 8.63704 	 -3.05427 	 70.6248
| 16> C 	 10.4668 	 -1.96411 	 70.0594
| 17> H 	 11.2158 	 -2.42516 	 69.3533
| 18> H 	 9.76926 	 -1.47854 	 69.4438
| 19> C 	 11.3085 	 -0.904173 	 70.8649
| 20> H 	 10.6009 	 -0.196148 	 71.3459
| 21> H 	 11.859 	 -1.36104 	 71.6829
| 22> H 	 11.9806 	 -0.397357 	 70.206
| 23> S 	 11.0308 	 -8.12858 	 67.7032
| 24> C 	 10.0531 	 -9.45724 	 67.1771
| 25> C 	 8.83854 	 -9.4013 	 67.7819
| 26> C 	 8.69804 	 -8.44561 	 68.824
| 27> C 	 9.79063 	 -7.67444 	 68.9689
| 28> H 	 8.09807 	 -10.0882 	 67.4418
| 29> C 	 7.38953 	 -8.49674 	 69.6217
| 30> H 	 6.60197 	 -8.62629 	 68.8117
| 31> H 	 7.26705 	 -7.56246 	 70.0788
| 32> C 	 7.36661 	 -9.62999 	 70.6873
| 33> H 	 8.24942 	 -9.59859 	 71.4129
| 34> H 	 7.44568 	 -10.5698 	 70.1748
| 35> C 	 6.26237 	 -9.55945 	 71.7478
| 36> H 	 6.31878 	 -10.3178 	 72.4913
| 37> H 	 5.27386 	 -9.64457 	 71.288
| 38> H 	 6.1804 	 -8.59752 	 72.2346
| 39> H 	 11.8489 	 -4.45231 	 72.1062
| 40> H 	 10.4162 	 -10.165 	 66.4409
| 41> *
| 42>
| 43>                          ****END OF INPUT****

CARTESIAN COORDINATES (ANGSTROEM)
---------------------------------
  S     11.690500   -6.663620   70.863800
  C     11.267100   -4.975790   71.492600
  C     10.161700   -4.417920   70.866600
  C      9.688640   -5.320790   69.874200
  C     10.187800   -6.609980   69.885600
  H      8.896080   -5.157230   69.207200
  C      9.707530   -2.998240   71.008900
  H      9.748260   -2.596460   71.988000
  H      8.637040   -3.054270   70.624800
  C     10.466800   -1.964110   70.059400
  H     11.215800   -2.425160   69.353300
  H      9.769260   -1.478540   69.443800
  C     11.308500   -0.904173   70.864900
  H     10.600900   -0.196148   71.345900
  H     11.859000   -1.361040   71.682900
  H     11.980600   -0.397357   70.206000
  S     11.030800   -8.128580   67.703200
  C     10.053100   -9.457240   67.177100
  C      8.838540   -9.401300   67.781900
  C      8.698040   -8.445610   68.824000
  C      9.790630   -7.674440   68.968900
  H      8.098070  -10.088200   67.441800
  C      7.389530   -8.496740   69.621700
  H      6.601970   -8.626290   68.811700
  H      7.267050   -7.562460   70.078800
  C      7.366610   -9.629990   70.687300
  H      8.249420   -9.598590   71.412900
  H      7.445680  -10.569800   70.174800
  C      6.262370   -9.559450   71.747800
  H      6.318780  -10.317800   72.491300
  H      5.273860   -9.644570   71.288000
  H      6.180400   -8.597520   72.234600
  H     11.848900   -4.452310   72.106200
  H     10.416200  -10.165000   66.440900

 Total Charge           Charge          ....    0
 Multiplicity           Mult            ....    1
 Number of Electrons    NEL             ....  134
 Basis Dimension        Dim             ....  322

ORBITAL ENERGIES
----------------

  NO   OCC          E(Eh)            E(eV)
   0   2.0000     -88.966017     -2420.8884
   1   2.0000     -88.956701     -2420.6349
   2   2.0000     -10.331063      -281.1225
   3   2.0000     -10.326822      -281.0071
   4   2.0000     -10.314595      -280.6744
   5   2.0000     -10.312750      -280.6242
   6   2.0000     -10.303806      -280.3808
   7   2.0000     -10.301407      -280.3155
   8   2.0000     -10.301311      -280.3129
   9   2.0000     -10.296661      -280.1864
  10   2.0000     -10.292197      -280.0649
  11   2.0000     -10.291114      -280.0355
  12   2.0000     -10.290622      -280.0221
  13   2.0000     -10.285627      -279.8861
  14   2.0000     -10.282426      -279.7990
  15   2.0000     -10.273345      -279.5519
  16   2.0000      -8.078585      -219.8295
  17   2.0000      -8.071431      -219.6348
  18   2.0000      -6.037231      -164.2814
  19   2.0000      -6.033642      -164.1837
  20   2.0000      -6.030015      -164.0851
  21   2.0000      -6.029059      -164.0590
  22   2.0000      -6.026034      -163.9767
  23   2.0000      -6.022001      -163.8670
  24   2.0000      -1.000675       -27.2298
  25   2.0000      -0.977295       -26.5936
  26   2.0000      -0.905650       -24.6440
  27   2.0000      -0.904165       -24.6036
  28   2.0000      -0.866364       -23.5750
  29   2.0000      -0.851348       -23.1663
  30   2.0000      -0.841236       -22.8912
  31   2.0000      -0.812297       -22.1037
  32   2.0000      -0.783818       -21.3288
  33   2.0000      -0.776540       -21.1307
  34   2.0000      -0.708802       -19.2875
  35   2.0000      -0.703617       -19.1464
  36   2.0000      -0.697309       -18.9747
  37   2.0000      -0.662846       -18.0370
  38   2.0000      -0.647598       -17.6220
  39   2.0000      -0.618842       -16.8395
  40   2.0000      -0.598041       -16.2735
  41   2.0000      -0.567357       -15.4386
  42   2.0000      -0.557466       -15.1694
  43   2.0000      -0.551635       -15.0108
  44   2.0000      -0.530220       -14.4280
  45   2.0000      -0.527960       -14.3665
  46   2.0000      -0.521430       -14.1888
  47   2.0000      -0.513027       -13.9602
  48   2.0000      -0.505765       -13.7626
  49   2.0000      -0.498200       -13.5567
  50   2.0000      -0.493451       -13.4275
  51   2.0000      -0.476226       -12.9588
  52   2.0000      -0.471285       -12.8243
  53   2.0000      -0.464259       -12.6331
  54   2.0000      -0.460728       -12.5370
  55   2.0000      -0.445651       -12.1268
  56   2.0000      -0.442053       -12.0289
  57   2.0000      -0.437563       -11.9067
  58   2.0000      -0.433886       -11.8066
  59   2.0000      -0.429520       -11.6878
  60   2.0000      -0.421043       -11.4572
  61   2.0000      -0.415324       -11.3015
  62   2.0000      -0.401042       -10.9129
  63   2.0000      -0.335341        -9.1251
  64   2.0000      -0.332769        -9.0551
  65   2.0000      -0.323624        -8.8063
  66   2.0000      -0.301090        -8.1931
  67   0.0000       0.028969         0.7883
  68   0.0000       0.061707         1.6791
  69   0.0000       0.102293         2.7835
  70   0.0000       0.115987         3.1562
  71   0.0000       0.125009         3.4017

MULLIKEN ATOMIC CHARGES
-----------------------
   0 S :    0.089778
   1 C :   -0.063244
   2 C :   -0.059128
   3 C :    0.048840
   4 C :   -0.157423
   5 H :   -0.006475
   6 C :    0.057124
   7 H :    0.029379
   8 H :    0.039410
   9 C :   -0.069136
  10 H :    0.048025
  11 H :    0.022783
  12 C :   -0.075685
  13 H :    0.036841
  14 H :    0.031384
  15 H :    0.038220
  16 S :    0.076119
  17 C :   -0.085881
  18 C :   -0.036882
  19 C :   -0.016588
  20 C :   -0.189407
  21 H :    0.006787
  22 C :    0.117157
  23 H :    0.040687
  24 H :   -0.001482
  25 C :   -0.089963
  26 H :    0.044250
  27 H :    0.025421
  28 C :   -0.022432
  29 H :    0.032125
  30 H :    0.012002
  31 H :    0.026748
  32 H :   -0.011784
  33 H :    0.062433
Sum of atomic charges:   -0.0000000

LOEWDIN ATOMIC CHARGES
----------------------
   0 S :    0.348150
   1 C :   -0.137531
   2 C :   -0.058519
   3 C :   -0.048494
   4 C :   -0.181803
   5 H :    0.021339
   6 C :   -0.027909
   7 H :    0.026680
   8 H :    0.042630
   9 C :   -0.034553
  10 H :    0.032327
  11 H :    0.014942
  12 C :   -0.064602
  13 H :    0.026366
  14 H :    0.021281
  15 H :    0.023589
  16 S :    0.365445
  17 C :   -0.174677
  18 C :   -0.078487
  19 C :   -0.052969
  20 C :   -0.174526
  21 H :    0.025803
  22 C :   -0.019958
  23 H :    0.040858
  24 H :    0.018114
  25 C :   -0.041985
  26 H :    0.038610
  27 H :    0.019602
  28 C :   -0.065135
  29 H :    0.023451
  30 H :    0.019537
  31 H :    0.025592
  32 H :   -0.004746
  33 H :    0.031581

  Mayer bond orders larger than 0.100000
B(  0-S ,  1-C ) :   1.1198 B(  0-S ,  4-C ) :   1.1132 B(  1-C ,  2-C ) :   1.6193
B(  1-C , 32-H ) :   0.9826 B(  2-C ,  3-C ) :   1.2094 B(  2-C ,  6-C ) :   1.0442
B(  3-C ,  4-C ) :   1.6221 B(  3-C ,  5-H ) :   0.9893 B(  4-C , 20-C ) :   1.0377
B(  6-C ,  7-H ) :   0.9502 B(  6-C ,  8-H ) :   0.9407 B(  6-C ,  9-C ) :   1.0204
B(  9-C , 10-H ) :   0.9695 B(  9-C , 11-H ) :   0.9622 B(  9-C , 12-C ) :   1.0731
B( 12-C , 13-H ) :   0.9780 B( 12-C , 14-H ) :   0.9796 B( 12-C , 15-H ) :   0.9775
B( 16-S , 17-C ) :   1.1465 B( 16-S , 20-C ) :   1.1115 B( 17-C , 18-C ) :   1.6311
B( 17-C , 33-H ) :   0.9681 B( 18-C , 19-C ) :   1.1977 B( 18-C , 21-H ) :   0.9958
B( 19-C , 20-C ) :   1.6716 B( 19-C , 22-C ) :   1.0308 B( 22-C , 23-H ) :   0.9349
B( 22-C , 24-H ) :   0.9267 B( 22-C , 25-C ) :   1.0584 B( 25-C , 26-H ) :   0.9599
B( 25-C , 27-H ) :   0.9570 B( 25-C , 28-C ) :   1.0792 B( 28-C , 29-H ) :   0.9768
B( 28-C , 30-H ) :   0.9713 B( 28-C , 31-H ) :   0.9736

Dispersion correction           -0.013563144
FINAL SINGLE POINT ENERGY     -1339.851368659583

DIPOLE MOMENT
-------------
                                X             Y             Z
Electronic contribution:     15.35229     -11.99402      -9.57145
Nuclear contribution   :    -15.88232      12.31315       9.56085
                        -----------------------------------------
Total Dipole Moment    :     -0.53003       0.31914      -0.01060
                        -----------------------------------------
Magnitude (a.u.)       :      0.61879
Magnitude (Debye)      :      1.57283

Rotational constants in cm-1:     0.019721     0.007364     0.006275
Rotational constants in MHz :   591.228880   220.757351   188.111762

                             ****ORCA TERMINATED NORMALLY****
TOTAL RUN TIME: 0 days 0 hours 0 minutes 35 seconds 246 msec
