                         Program Version 4.2.1 -  RELEASE  -
|  1> ! wB97X-D3 SP def2-SVP
|  2> %pal
|  3> nprocs 16
|  4> end
|  5>
|  6> * xyz 0 1
|  7> S 	 -93.1754 	 41.6821 	 115.93
|  8> C 	 -92.2571 	 40.3314 	 116.453
|  9> C 	 -90.9234 	 40.4482 	 115.978
| 10> C 	 -90.6632 	 41.6895 	 115.308
| 11> C 	 -91.8057 	 42.4386 	 115.116
| 12> H 	 -89.6729 	 42.0138 	 115.046
| 13> C 	 -89.8102 	 39.4962 	 116.389
| 14> H 	 -90.1039 	 38.5432 	 116.171
| 15> H 	 -89.858 	 39.5336 	 117.536
| 16> C 	 -88.3947 	 39.6788 	 115.9
| 17> H 	 -88.3778 	 39.8145 	 114.813
| 18> H 	 -87.8775 	 40.6134 	 116.279
| 19> C 	 -87.4396 	 38.5299 	 116.337
| 20> H 	 -87.3558 	 38.5458 	 117.389
| 21> H 	 -87.9023 	 37.5729 	 116.089
| 22> H 	 -86.4856 	 38.5432 	 115.921
| 23> S 	 -91.9362 	 43.7908 	 112.712
| 24> C 	 -91.9736 	 45.5215 	 112.774
| 25> C 	 -91.8349 	 46.0012 	 114.054
| 26> C 	 -91.9235 	 45.0197 	 115.083
| 27> C 	 -91.9272 	 43.768 	 114.51
| 28> H 	 -91.5801 	 47.0386 	 114.015
| 29> C 	 -91.7254 	 45.4073 	 116.564
| 30> H 	 -90.8294 	 45.9712 	 116.626
| 31> H 	 -91.6007 	 44.475 	 117.11
| 32> C 	 -92.8363 	 46.2333 	 117.178
| 33> H 	 -93.7815 	 45.6799 	 116.87
| 34> H 	 -92.8974 	 47.2679 	 116.704
| 35> C 	 -92.7286 	 46.2431 	 118.742
| 36> H 	 -91.765 	 45.9799 	 119.19
| 37> H 	 -93.4064 	 45.5161 	 119.132
| 38> H 	 -92.9434 	 47.2979 	 119.056
| 39> H 	 -92.542 	 39.575 	 117.197
| 40> H 	 -91.8452 	 46.1496 	 111.863
| 41> *
| 42>
| 43>                          ****END OF INPUT****

CARTESIAN COORDINATES (ANGSTROEM)
---------------------------------
  S    -93.175400   41.682100  115.930000
  C    -92.257100   40.331400  116.453000
  C    -90.923400   40.448200  115.978000
  C    -90.663200   41.689500  115.308000
  C    -91.805700   42.438600  115.116000
  H    -89.672900   42.013800  115.046000
  C    -89.810200   39.496200  116.389000
  H    -90.103900   38.543200  116.171000
  H    -89.858000   39.533600  117.536000
  C    -88.394700   39.678800  115.900000
  H    -88.377800   39.814500  114.813000
  H    -87.877500   40.613400  116.279000
  C    -87.439600   38.529900  116.337000
  H    -87.355800   38.545800  117.389000
  H    -87.902300   37.572900  116.089000
  H    -86.485600   38.543200  115.921000
  S    -91.936200   43.790800  112.712000
  C    -91.973600   45.521500  112.774000
  C    -91.834900   46.001200  114.054000
  C    -91.923500   45.019700  115.083000
  C    -91.927200   43.768000  114.510000
  H    -91.580100   47.038600  114.015000
  C    -91.725400   45.407300  116.564000
  H    -90.829400   45.971200  116.626000
  H    -91.600700   44.475000  117.110000
  C    -92.836300   46.233300  117.178000
  H    -93.781500   45.679900  116.870000
  H    -92.897400   47.267900  116.704000
  C    -92.728600   46.243100  118.742000
  H    -91.765000   45.979900  119.190000
  H    -93.406400   45.516100  119.132000
  H    -92.943400   47.297900  119.056000
  H    -92.542000   39.575000  117.197000
  H    -91.845200   46.149600  111.863000

 Total Charge           Charge          ....    0
 Multiplicity           Mult            ....    1
 Number of Electrons    NEL             ....  134
 Basis Dimension        Dim             ....  322

ORBITAL ENERGIES
----------------

  NO   OCC          E(Eh)            E(eV)
   0   2.0000     -88.966489     -2420.9012
   1   2.0000     -88.962494     -2420.7925
   2   2.0000     -10.327544      -281.0268
   3   2.0000     -10.327078      -281.0141
   4   2.0000     -10.314355      -280.6679
   5   2.0000     -10.314124      -280.6616
   6   2.0000     -10.306447      -280.4527
   7   2.0000     -10.303168      -280.3635
   8   2.0000     -10.294039      -280.1151
   9   2.0000     -10.293470      -280.0995
  10   2.0000     -10.293237      -280.0932
  11   2.0000     -10.289912      -280.0027
  12   2.0000     -10.288129      -279.9542
  13   2.0000     -10.288087      -279.9531
  14   2.0000     -10.280835      -279.7557
  15   2.0000     -10.273231      -279.5488
  16   2.0000      -8.081078      -219.8973
  17   2.0000      -8.077114      -219.7894
  18   2.0000      -6.039514      -164.3435
  19   2.0000      -6.035522      -164.2349
  20   2.0000      -6.035416      -164.2320
  21   2.0000      -6.032118      -164.1423
  22   2.0000      -6.031816      -164.1340
  23   2.0000      -6.027820      -164.0253
  24   2.0000      -1.002706       -27.2850
  25   2.0000      -0.982103       -26.7244
  26   2.0000      -0.911566       -24.8050
  27   2.0000      -0.906301       -24.6617
  28   2.0000      -0.866668       -23.5832
  29   2.0000      -0.848389       -23.0858
  30   2.0000      -0.846629       -23.0379
  31   2.0000      -0.813733       -22.1428
  32   2.0000      -0.784326       -21.3426
  33   2.0000      -0.770591       -20.9688
  34   2.0000      -0.712668       -19.3927
  35   2.0000      -0.692935       -18.8557
  36   2.0000      -0.685719       -18.6594
  37   2.0000      -0.653995       -17.7961
  38   2.0000      -0.637837       -17.3564
  39   2.0000      -0.621772       -16.9193
  40   2.0000      -0.593220       -16.1423
  41   2.0000      -0.569842       -15.5062
  42   2.0000      -0.567461       -15.4414
  43   2.0000      -0.562838       -15.3156
  44   2.0000      -0.529941       -14.4204
  45   2.0000      -0.521374       -14.1873
  46   2.0000      -0.509890       -13.8748
  47   2.0000      -0.507141       -13.8000
  48   2.0000      -0.501872       -13.6566
  49   2.0000      -0.498613       -13.5679
  50   2.0000      -0.490089       -13.3360
  51   2.0000      -0.481775       -13.1098
  52   2.0000      -0.474740       -12.9183
  53   2.0000      -0.467156       -12.7119
  54   2.0000      -0.457483       -12.4487
  55   2.0000      -0.453773       -12.3478
  56   2.0000      -0.438773       -11.9396
  57   2.0000      -0.435974       -11.8635
  58   2.0000      -0.433721       -11.8022
  59   2.0000      -0.421076       -11.4581
  60   2.0000      -0.418061       -11.3760
  61   2.0000      -0.415126       -11.2961
  62   2.0000      -0.414216       -11.2714
  63   2.0000      -0.338388        -9.2080
  64   2.0000      -0.329191        -8.9578
  65   2.0000      -0.317873        -8.6498
  66   2.0000      -0.303249        -8.2518
  67   0.0000       0.039887         1.0854
  68   0.0000       0.059340         1.6147
  69   0.0000       0.107939         2.9372
  70   0.0000       0.123562         3.3623
  71   0.0000       0.128647         3.5007

MULLIKEN ATOMIC CHARGES
-----------------------
   0 S :    0.126625
   1 C :   -0.134891
   2 C :   -0.102618
   3 C :    0.051041
   4 C :   -0.173674
   5 H :    0.011908
   6 C :    0.069222
   7 H :    0.003562
   8 H :    0.041779
   9 C :   -0.114922
  10 H :    0.036223
  11 H :    0.035084
  12 C :    0.001609
  13 H :    0.019909
  14 H :    0.019553
  15 H :    0.025412
  16 S :    0.108410
  17 C :   -0.117106
  18 C :   -0.045286
  19 C :    0.021982
  20 C :   -0.205319
  21 H :    0.013941
  22 C :    0.103537
  23 H :    0.025012
  24 H :    0.024190
  25 C :   -0.139190
  26 H :    0.044620
  27 H :    0.046897
  28 C :   -0.040836
  29 H :    0.032106
  30 H :    0.039845
  31 H :    0.042833
  32 H :    0.058930
  33 H :    0.069612
Sum of atomic charges:    0.0000000

LOEWDIN ATOMIC CHARGES
----------------------
   0 S :    0.424610
   1 C :   -0.223594
   2 C :   -0.060047
   3 C :   -0.058690
   4 C :   -0.201915
   5 H :    0.031529
   6 C :   -0.037167
   7 H :    0.017715
   8 H :    0.044096
   9 C :   -0.047104
  10 H :    0.023484
  11 H :    0.027753
  12 C :   -0.051350
  13 H :    0.020577
  14 H :    0.024012
  15 H :    0.019866
  16 S :    0.391312
  17 C :   -0.193883
  18 C :   -0.077512
  19 C :   -0.046575
  20 C :   -0.188342
  21 H :    0.030590
  22 C :   -0.025692
  23 H :    0.027189
  24 H :    0.029044
  25 C :   -0.048681
  26 H :    0.032415
  27 H :    0.028431
  28 C :   -0.068230
  29 H :    0.024697
  30 H :    0.026655
  31 H :    0.034114
  32 H :    0.035238
  33 H :    0.035454

  Mayer bond orders larger than 0.100000
B(  0-S ,  1-C ) :   1.1597 B(  0-S ,  4-C ) :   1.1601 B(  1-C ,  2-C ) :   1.5729
B(  1-C ,  4-C ) :   0.1061 B(  1-C , 32-H ) :   0.9711 B(  2-C ,  3-C ) :   1.2805
B(  2-C ,  6-C ) :   1.0067 B(  3-C ,  4-C ) :   1.5533 B(  3-C ,  5-H ) :   0.9937
B(  4-C , 20-C ) :   1.0043 B(  6-C ,  7-H ) :   0.9342 B(  6-C ,  8-H ) :   0.9363
B(  6-C ,  9-C ) :   1.0805 B(  9-C , 10-H ) :   0.9533 B(  9-C , 11-H ) :   0.9479
B(  9-C , 12-C ) :   1.0812 B( 12-C , 13-H ) :   0.9759 B( 12-C , 14-H ) :   0.9752
B( 12-C , 15-H ) :   0.9732 B( 16-S , 17-C ) :   1.1479 B( 16-S , 20-C ) :   1.1423
B( 17-C , 18-C ) :   1.6580 B( 17-C , 33-H ) :   0.9582 B( 18-C , 19-C ) :   1.1807
B( 18-C , 21-H ) :   0.9902 B( 19-C , 20-C ) :   1.6249 B( 19-C , 22-C ) :   1.0386
B( 22-C , 23-H ) :   0.9337 B( 22-C , 24-H ) :   0.9331 B( 22-C , 25-C ) :   1.0557
B( 25-C , 26-H ) :   0.9626 B( 25-C , 27-H ) :   0.9622 B( 25-C , 28-C ) :   1.0525
B( 28-C , 29-H ) :   0.9780 B( 28-C , 30-H ) :   0.9786 B( 28-C , 31-H ) :   0.9786

Dispersion correction           -0.013686542
FINAL SINGLE POINT ENERGY     -1339.867275916075

DIPOLE MOMENT
-------------
                                X             Y             Z
Electronic contribution:    -14.22978       1.37563     -17.63650
Nuclear contribution   :     14.85060      -1.25311      18.08951
                        -----------------------------------------
Total Dipole Moment    :      0.62081       0.12253       0.45301
                        -----------------------------------------
Magnitude (a.u.)       :      0.77823
Magnitude (Debye)      :      1.97811

Rotational constants in cm-1:     0.017581     0.007667     0.006628
Rotational constants in MHz :   527.058194   229.849432   198.706659

                             ****ORCA TERMINATED NORMALLY****
TOTAL RUN TIME: 0 days 0 hours 0 minutes 30 seconds 546 msec
