                         Program Version 4.2.1 -  RELEASE  -
|  1> ! wB97X-D3 SP def2-SVP
|  2> %pal
|  3> nprocs 16
|  4> end
|  5>
|  6> * xyz 0 1
|  7> S 	 -6.55797 	 76.2749 	 45.4685
|  8> C 	 -6.23701 	 77.8914 	 46.0895
|  9> C 	 -4.86278 	 78.1579 	 46.2087
| 10> C 	 -4.10646 	 77.0464 	 45.7286
| 11> C 	 -4.87734 	 75.9078 	 45.4748
| 12> H 	 -3.00806 	 76.9276 	 45.6428
| 13> C 	 -4.07227 	 79.3578 	 46.7432
| 14> H 	 -4.72875 	 80.1427 	 47.0978
| 15> H 	 -3.54692 	 79.7179 	 45.868
| 16> C 	 -3.23762 	 79.0564 	 47.989
| 17> H 	 -3.93782 	 78.7286 	 48.8018
| 18> H 	 -2.46775 	 78.3179 	 47.7057
| 19> C 	 -2.53924 	 80.3399 	 48.4149
| 20> H 	 -3.16944 	 81.2398 	 48.6108
| 21> H 	 -2.0903 	 80.1339 	 49.382
| 22> H 	 -1.79166 	 80.5911 	 47.6534
| 23> S 	 -2.96864 	 74.046 	 46.0534
| 24> C 	 -3.08081 	 72.5033 	 45.2942
| 25> C 	 -3.92861 	 72.5734 	 44.1716
| 26> C 	 -4.52644 	 73.7964 	 43.9666
| 27> C 	 -4.28663 	 74.6683 	 45.036
| 28> H 	 -3.88062 	 71.7658 	 43.4884
| 29> C 	 -5.44702 	 74.0761 	 42.7651
| 30> H 	 -6.46933 	 74.5193 	 43.0665
| 31> H 	 -5.60289 	 73.0634 	 42.4186
| 32> C 	 -4.78126 	 74.8735 	 41.6519
| 33> H 	 -3.75696 	 74.5689 	 41.6199
| 34> H 	 -4.69025 	 75.8298 	 42.1782
| 35> C 	 -5.52184 	 74.7736 	 40.3193
| 36> H 	 -4.96549 	 75.4068 	 39.5669
| 37> H 	 -6.58137 	 74.9577 	 40.4162
| 38> H 	 -5.43324 	 73.7351 	 39.9377
| 39> H 	 -6.99631 	 78.6505 	 46.3382
| 40> H 	 -2.50632 	 71.6598 	 45.5815
| 41> *
| 42>
| 43>                          ****END OF INPUT****

CARTESIAN COORDINATES (ANGSTROEM)
---------------------------------
  S     -6.557970   76.274900   45.468500
  C     -6.237010   77.891400   46.089500
  C     -4.862780   78.157900   46.208700
  C     -4.106460   77.046400   45.728600
  C     -4.877340   75.907800   45.474800
  H     -3.008060   76.927600   45.642800
  C     -4.072270   79.357800   46.743200
  H     -4.728750   80.142700   47.097800
  H     -3.546920   79.717900   45.868000
  C     -3.237620   79.056400   47.989000
  H     -3.937820   78.728600   48.801800
  H     -2.467750   78.317900   47.705700
  C     -2.539240   80.339900   48.414900
  H     -3.169440   81.239800   48.610800
  H     -2.090300   80.133900   49.382000
  H     -1.791660   80.591100   47.653400
  S     -2.968640   74.046000   46.053400
  C     -3.080810   72.503300   45.294200
  C     -3.928610   72.573400   44.171600
  C     -4.526440   73.796400   43.966600
  C     -4.286630   74.668300   45.036000
  H     -3.880620   71.765800   43.488400
  C     -5.447020   74.076100   42.765100
  H     -6.469330   74.519300   43.066500
  H     -5.602890   73.063400   42.418600
  C     -4.781260   74.873500   41.651900
  H     -3.756960   74.568900   41.619900
  H     -4.690250   75.829800   42.178200
  C     -5.521840   74.773600   40.319300
  H     -4.965490   75.406800   39.566900
  H     -6.581370   74.957700   40.416200
  H     -5.433240   73.735100   39.937700
  H     -6.996310   78.650500   46.338200
  H     -2.506320   71.659800   45.581500

 Total Charge           Charge          ....    0
 Multiplicity           Mult            ....    1
 Number of Electrons    NEL             ....  134
 Basis Dimension        Dim             ....  322

ORBITAL ENERGIES
----------------

  NO   OCC          E(Eh)            E(eV)
   0   2.0000     -88.970972     -2421.0232
   1   2.0000     -88.966792     -2420.9095
   2   2.0000     -10.325013      -280.9579
   3   2.0000     -10.324794      -280.9519
   4   2.0000     -10.317017      -280.7403
   5   2.0000     -10.314732      -280.6781
   6   2.0000     -10.303188      -280.3640
   7   2.0000     -10.300124      -280.2806
   8   2.0000     -10.292619      -280.0764
   9   2.0000     -10.291485      -280.0455
  10   2.0000     -10.291404      -280.0433
  11   2.0000     -10.290518      -280.0192
  12   2.0000     -10.288658      -279.9686
  13   2.0000     -10.284723      -279.8615
  14   2.0000     -10.279881      -279.7298
  15   2.0000     -10.279036      -279.7068
  16   2.0000      -8.085266      -220.0113
  17   2.0000      -8.081487      -219.9084
  18   2.0000      -6.043810      -164.4604
  19   2.0000      -6.039849      -164.3527
  20   2.0000      -6.039788      -164.3510
  21   2.0000      -6.036024      -164.2486
  22   2.0000      -6.036018      -164.2484
  23   2.0000      -6.032466      -164.1517
  24   2.0000      -1.007397       -27.4127
  25   2.0000      -0.983973       -26.7753
  26   2.0000      -0.915002       -24.8985
  27   2.0000      -0.909656       -24.7530
  28   2.0000      -0.868206       -23.6251
  29   2.0000      -0.855132       -23.2693
  30   2.0000      -0.847277       -23.0556
  31   2.0000      -0.803003       -21.8508
  32   2.0000      -0.781610       -21.2687
  33   2.0000      -0.770762       -20.9735
  34   2.0000      -0.706090       -19.2137
  35   2.0000      -0.695157       -18.9162
  36   2.0000      -0.689235       -18.7550
  37   2.0000      -0.668673       -18.1955
  38   2.0000      -0.633569       -17.2403
  39   2.0000      -0.616815       -16.7844
  40   2.0000      -0.595713       -16.2102
  41   2.0000      -0.574114       -15.6224
  42   2.0000      -0.563546       -15.3349
  43   2.0000      -0.557445       -15.1689
  44   2.0000      -0.526382       -14.3236
  45   2.0000      -0.523894       -14.2559
  46   2.0000      -0.517478       -14.0813
  47   2.0000      -0.508660       -13.8414
  48   2.0000      -0.504003       -13.7146
  49   2.0000      -0.498765       -13.5721
  50   2.0000      -0.488044       -13.2804
  51   2.0000      -0.477286       -12.9876
  52   2.0000      -0.470136       -12.7931
  53   2.0000      -0.467734       -12.7277
  54   2.0000      -0.460934       -12.5427
  55   2.0000      -0.447009       -12.1637
  56   2.0000      -0.442886       -12.0515
  57   2.0000      -0.439873       -11.9696
  58   2.0000      -0.435530       -11.8514
  59   2.0000      -0.427473       -11.6321
  60   2.0000      -0.416725       -11.3397
  61   2.0000      -0.414138       -11.2693
  62   2.0000      -0.407419       -11.0864
  63   2.0000      -0.342952        -9.3322
  64   2.0000      -0.334964        -9.1148
  65   2.0000      -0.330089        -8.9822
  66   2.0000      -0.281392        -7.6571
  67   0.0000       0.023819         0.6482
  68   0.0000       0.067215         1.8290
  69   0.0000       0.106017         2.8849
  70   0.0000       0.118066         3.2127
  71   0.0000       0.135190         3.6787

MULLIKEN ATOMIC CHARGES
-----------------------
   0 S :    0.127064
   1 C :   -0.143373
   2 C :   -0.052470
   3 C :   -0.034405
   4 C :   -0.117991
   5 H :    0.029231
   6 C :    0.060913
   7 H :    0.006133
   8 H :    0.039546
   9 C :   -0.091864
  10 H :    0.049031
  11 H :    0.039993
  12 C :   -0.051232
  13 H :    0.035097
  14 H :    0.033700
  15 H :    0.034892
  16 S :    0.110786
  17 C :   -0.085776
  18 C :   -0.035256
  19 C :   -0.028997
  20 C :   -0.194835
  21 H :    0.006678
  22 C :    0.032875
  23 H :    0.047741
  24 H :   -0.000403
  25 C :   -0.051247
  26 H :    0.017047
  27 H :    0.028928
  28 C :   -0.033257
  29 H :    0.049620
  30 H :    0.039919
  31 H :    0.031322
  32 H :    0.052791
  33 H :    0.047800
Sum of atomic charges:   -0.0000000

LOEWDIN ATOMIC CHARGES
----------------------
   0 S :    0.424013
   1 C :   -0.210853
   2 C :   -0.057782
   3 C :   -0.074627
   4 C :   -0.208936
   5 H :    0.029979
   6 C :   -0.033609
   7 H :    0.024989
   8 H :    0.033463
   9 C :   -0.038483
  10 H :    0.035090
  11 H :    0.026862
  12 C :   -0.069911
  13 H :    0.027343
  14 H :    0.026063
  15 H :    0.027058
  16 S :    0.418974
  17 C :   -0.188228
  18 C :   -0.070674
  19 C :   -0.061154
  20 C :   -0.187928
  21 H :    0.025262
  22 C :   -0.033783
  23 H :    0.032013
  24 H :    0.019899
  25 C :   -0.047615
  26 H :    0.021480
  27 H :    0.028635
  28 C :   -0.064806
  29 H :    0.036621
  30 H :    0.026182
  31 H :    0.029587
  32 H :    0.032836
  33 H :    0.022042

  Mayer bond orders larger than 0.100000
B(  0-S ,  1-C ) :   1.1313 B(  0-S ,  4-C ) :   1.1563 B(  1-C ,  2-C ) :   1.6053
B(  1-C , 32-H ) :   0.9647 B(  2-C ,  3-C ) :   1.2405 B(  2-C ,  6-C ) :   1.0152
B(  3-C ,  4-C ) :   1.5479 B(  3-C ,  5-H ) :   0.9824 B(  4-C , 20-C ) :   1.0641
B(  6-C ,  7-H ) :   0.9414 B(  6-C ,  8-H ) :   0.9397 B(  6-C ,  9-C ) :   1.0664
B(  9-C , 10-H ) :   0.9538 B(  9-C , 11-H ) :   0.9512 B(  9-C , 12-C ) :   1.0884
B( 12-C , 13-H ) :   0.9728 B( 12-C , 14-H ) :   0.9732 B( 12-C , 15-H ) :   0.9741
B( 16-S , 17-C ) :   1.1777 B( 16-S , 20-C ) :   1.1568 B( 17-C , 18-C ) :   1.5533
B( 17-C , 20-C ) :   0.1190 B( 17-C , 33-H ) :   0.9739 B( 18-C , 19-C ) :   1.3010
B( 18-C , 21-H ) :   0.9893 B( 19-C , 20-C ) :   1.5191 B( 19-C , 22-C ) :   1.0287
B( 22-C , 23-H ) :   0.9388 B( 22-C , 24-H ) :   0.9321 B( 22-C , 25-C ) :   1.0517
B( 25-C , 26-H ) :   0.9515 B( 25-C , 27-H ) :   0.9550 B( 25-C , 28-C ) :   1.0714
B( 28-C , 29-H ) :   0.9734 B( 28-C , 30-H ) :   0.9741 B( 28-C , 31-H ) :   0.9722

Dispersion correction           -0.013987756
FINAL SINGLE POINT ENERGY     -1339.868920193987

DIPOLE MOMENT
-------------
                                X             Y             Z
Electronic contribution:     -4.37404     -13.06479       7.05540
Nuclear contribution   :      4.62328      13.24869      -7.23106
                        -----------------------------------------
Total Dipole Moment    :      0.24925       0.18390      -0.17566
                        -----------------------------------------
Magnitude (a.u.)       :      0.35609
Magnitude (Debye)      :      0.90511

Rotational constants in cm-1:     0.019783     0.007944     0.006605
Rotational constants in MHz :   593.072880   238.148617   198.007448

                             ****ORCA TERMINATED NORMALLY****
TOTAL RUN TIME: 0 days 0 hours 0 minutes 31 seconds 243 msec
