                         Program Version 4.2.1 -  RELEASE  -
|  1> ! wB97X-D3 SP def2-SVP
|  2> %pal
|  3> nprocs 16
|  4> end
|  5>
|  6> * xyz 0 1
|  7> S 	 -31.6902 	 55.9066 	 106.714
|  8> C 	 -31.3307 	 56.0992 	 104.948
|  9> C 	 -31.2906 	 57.4729 	 104.65
| 10> C 	 -31.6357 	 58.237 	 105.788
| 11> C 	 -32.0958 	 57.585 	 106.89
| 12> H 	 -31.6863 	 59.2742 	 105.883
| 13> C 	 -30.9289 	 58.144 	 103.354
| 14> H 	 -31.6553 	 59.055 	 103.333
| 15> H 	 -31.1382 	 57.4772 	 102.533
| 16> C 	 -29.4961 	 58.5676 	 103.099
| 17> H 	 -29.1537 	 59.121 	 103.996
| 18> H 	 -28.9587 	 57.613 	 103.175
| 19> C 	 -29.2789 	 59.2859 	 101.74
| 20> H 	 -29.9607 	 60.1247 	 101.673
| 21> H 	 -28.2765 	 59.658 	 101.562
| 22> H 	 -29.553 	 58.5986 	 100.95
| 23> S 	 -32.2032 	 57.1683 	 109.719
| 24> C 	 -32.9272 	 58.493 	 110.694
| 25> C 	 -33.3716 	 59.5258 	 109.948
| 26> C 	 -33.2139 	 59.2746 	 108.518
| 27> C 	 -32.6195 	 58.0535 	 108.198
| 28> H 	 -33.8056 	 60.3756 	 110.518
| 29> C 	 -33.7685 	 60.2941 	 107.482
| 30> H 	 -34.8095 	 60.3316 	 107.772
| 31> H 	 -33.8493 	 59.9066 	 106.474
| 32> C 	 -32.9198 	 61.5545 	 107.377
| 33> H 	 -31.9186 	 61.3826 	 106.942
| 34> H 	 -32.7109 	 61.927 	 108.404
| 35> C 	 -33.6628 	 62.6829 	 106.704
| 36> H 	 -34.7584 	 62.7177 	 106.975
| 37> H 	 -33.7339 	 62.3973 	 105.63
| 38> H 	 -33.1109 	 63.6143 	 106.727
| 39> H 	 -31.1446 	 55.3368 	 104.224
| 40> H 	 -33.0845 	 58.4944 	 111.707
| 41> *
| 42>
| 43>                          ****END OF INPUT****

CARTESIAN COORDINATES (ANGSTROEM)
---------------------------------
  S    -31.690200   55.906600  106.714000
  C    -31.330700   56.099200  104.948000
  C    -31.290600   57.472900  104.650000
  C    -31.635700   58.237000  105.788000
  C    -32.095800   57.585000  106.890000
  H    -31.686300   59.274200  105.883000
  C    -30.928900   58.144000  103.354000
  H    -31.655300   59.055000  103.333000
  H    -31.138200   57.477200  102.533000
  C    -29.496100   58.567600  103.099000
  H    -29.153700   59.121000  103.996000
  H    -28.958700   57.613000  103.175000
  C    -29.278900   59.285900  101.740000
  H    -29.960700   60.124700  101.673000
  H    -28.276500   59.658000  101.562000
  H    -29.553000   58.598600  100.950000
  S    -32.203200   57.168300  109.719000
  C    -32.927200   58.493000  110.694000
  C    -33.371600   59.525800  109.948000
  C    -33.213900   59.274600  108.518000
  C    -32.619500   58.053500  108.198000
  H    -33.805600   60.375600  110.518000
  C    -33.768500   60.294100  107.482000
  H    -34.809500   60.331600  107.772000
  H    -33.849300   59.906600  106.474000
  C    -32.919800   61.554500  107.377000
  H    -31.918600   61.382600  106.942000
  H    -32.710900   61.927000  108.404000
  C    -33.662800   62.682900  106.704000
  H    -34.758400   62.717700  106.975000
  H    -33.733900   62.397300  105.630000
  H    -33.110900   63.614300  106.727000
  H    -31.144600   55.336800  104.224000
  H    -33.084500   58.494400  111.707000

 Total Charge           Charge          ....    0
 Multiplicity           Mult            ....    1
 Number of Electrons    NEL             ....  134
 Basis Dimension        Dim             ....  322

ORBITAL ENERGIES
----------------

  NO   OCC          E(Eh)            E(eV)
   0   2.0000     -88.966997     -2420.9151
   1   2.0000     -88.963272     -2420.8137
   2   2.0000     -10.337943      -281.3097
   3   2.0000     -10.331436      -281.1327
   4   2.0000     -10.321384      -280.8591
   5   2.0000     -10.316560      -280.7279
   6   2.0000     -10.313750      -280.6514
   7   2.0000     -10.305709      -280.4326
   8   2.0000     -10.301098      -280.3071
   9   2.0000     -10.297674      -280.2139
  10   2.0000     -10.294265      -280.1212
  11   2.0000     -10.292083      -280.0618
  12   2.0000     -10.290510      -280.0190
  13   2.0000     -10.286164      -279.9008
  14   2.0000     -10.283800      -279.8364
  15   2.0000     -10.283041      -279.8158
  16   2.0000      -8.080208      -219.8736
  17   2.0000      -8.077543      -219.8011
  18   2.0000      -6.039099      -164.3323
  19   2.0000      -6.036211      -164.2537
  20   2.0000      -6.035087      -164.2231
  21   2.0000      -6.032243      -164.1457
  22   2.0000      -6.030492      -164.0980
  23   2.0000      -6.028028      -164.0310
  24   2.0000      -1.002857       -27.2891
  25   2.0000      -0.978963       -26.6389
  26   2.0000      -0.914940       -24.8968
  27   2.0000      -0.911925       -24.8147
  28   2.0000      -0.870656       -23.6917
  29   2.0000      -0.850685       -23.1483
  30   2.0000      -0.841313       -22.8933
  31   2.0000      -0.821303       -22.3488
  32   2.0000      -0.784404       -21.3447
  33   2.0000      -0.773364       -21.0443
  34   2.0000      -0.707721       -19.2581
  35   2.0000      -0.702757       -19.1230
  36   2.0000      -0.698753       -19.0140
  37   2.0000      -0.657801       -17.8997
  38   2.0000      -0.647418       -17.6171
  39   2.0000      -0.623543       -16.9675
  40   2.0000      -0.598766       -16.2933
  41   2.0000      -0.569953       -15.5092
  42   2.0000      -0.565582       -15.3903
  43   2.0000      -0.557510       -15.1706
  44   2.0000      -0.538538       -14.6544
  45   2.0000      -0.526787       -14.3346
  46   2.0000      -0.517726       -14.0881
  47   2.0000      -0.512166       -13.9367
  48   2.0000      -0.504407       -13.7256
  49   2.0000      -0.501639       -13.6503
  50   2.0000      -0.495078       -13.4718
  51   2.0000      -0.479397       -13.0450
  52   2.0000      -0.468935       -12.7604
  53   2.0000      -0.466432       -12.6922
  54   2.0000      -0.461410       -12.5556
  55   2.0000      -0.453566       -12.3422
  56   2.0000      -0.448401       -12.2016
  57   2.0000      -0.445608       -12.1256
  58   2.0000      -0.431873       -11.7519
  59   2.0000      -0.423480       -11.5235
  60   2.0000      -0.416363       -11.3298
  61   2.0000      -0.408728       -11.1220
  62   2.0000      -0.407710       -11.0943
  63   2.0000      -0.358353        -9.7513
  64   2.0000      -0.334455        -9.1010
  65   2.0000      -0.325950        -8.8695
  66   2.0000      -0.288832        -7.8595
  67   0.0000       0.019074         0.5190
  68   0.0000       0.075256         2.0478
  69   0.0000       0.089608         2.4384
  70   0.0000       0.118981         3.2376
  71   0.0000       0.128213         3.4888

MULLIKEN ATOMIC CHARGES
-----------------------
   0 S :    0.077553
   1 C :   -0.100701
   2 C :   -0.068263
   3 C :    0.046393
   4 C :   -0.133894
   5 H :   -0.047733
   6 C :    0.020815
   7 H :    0.037457
   8 H :    0.014384
   9 C :   -0.064390
  10 H :    0.026795
  11 H :    0.023514
  12 C :   -0.015211
  13 H :    0.025721
  14 H :    0.043270
  15 H :    0.027744
  16 S :    0.078978
  17 C :   -0.047592
  18 C :   -0.039272
  19 C :   -0.076722
  20 C :   -0.073929
  21 H :    0.041142
  22 C :    0.039047
  23 H :    0.036073
  24 H :    0.018079
  25 C :   -0.080545
  26 H :    0.046094
  27 H :    0.026092
  28 C :   -0.047024
  29 H :    0.041186
  30 H :    0.017757
  31 H :    0.044470
  32 H :    0.038562
  33 H :    0.024148
Sum of atomic charges:   -0.0000000

LOEWDIN ATOMIC CHARGES
----------------------
   0 S :    0.380533
   1 C :   -0.173314
   2 C :   -0.059848
   3 C :   -0.066924
   4 C :   -0.179195
   5 H :    0.016856
   6 C :   -0.038558
   7 H :    0.037184
   8 H :    0.026161
   9 C :   -0.044323
  10 H :    0.023465
  11 H :    0.025243
  12 C :   -0.059122
  13 H :    0.025022
  14 H :    0.029342
  15 H :    0.026240
  16 S :    0.350359
  17 C :   -0.147481
  18 C :   -0.073911
  19 C :   -0.047977
  20 C :   -0.180210
  21 H :    0.044904
  22 C :   -0.033520
  23 H :    0.034918
  24 H :    0.026120
  25 C :   -0.046415
  26 H :    0.028718
  27 H :    0.023078
  28 C :   -0.072382
  29 H :    0.033919
  30 H :    0.024588
  31 H :    0.026697
  32 H :    0.025029
  33 H :    0.014807

  Mayer bond orders larger than 0.100000
B(  0-S ,  1-C ) :   1.1275 B(  0-S ,  4-C ) :   1.1395 B(  1-C ,  2-C ) :   1.5954
B(  1-C ,  4-C ) :   0.1037 B(  1-C , 32-H ) :   0.9758 B(  2-C ,  3-C ) :   1.2313
B(  2-C ,  6-C ) :   1.0296 B(  3-C ,  4-C ) :   1.5892 B(  3-C ,  5-H ) :   0.9956
B(  4-C , 20-C ) :   1.0426 B(  6-C ,  7-H ) :   0.9377 B(  6-C ,  8-H ) :   0.9377
B(  6-C ,  9-C ) :   1.0616 B(  9-C , 10-H ) :   0.9564 B(  9-C , 11-H ) :   0.9507
B(  9-C , 12-C ) :   1.0693 B( 12-C , 13-H ) :   0.9758 B( 12-C , 14-H ) :   0.9754
B( 12-C , 15-H ) :   0.9734 B( 16-S , 17-C ) :   1.1210 B( 16-S , 20-C ) :   1.0945
B( 17-C , 18-C ) :   1.6888 B( 17-C , 33-H ) :   0.9694 B( 18-C , 19-C ) :   1.1826
B( 18-C , 21-H ) :   0.9818 B( 19-C , 20-C ) :   1.6573 B( 19-C , 22-C ) :   1.0246
B( 22-C , 23-H ) :   0.9444 B( 22-C , 24-H ) :   0.9410 B( 22-C , 25-C ) :   1.0475
B( 25-C , 26-H ) :   0.9471 B( 25-C , 27-H ) :   0.9589 B( 25-C , 28-C ) :   1.0808
B( 28-C , 29-H ) :   0.9735 B( 28-C , 30-H ) :   0.9696 B( 28-C , 31-H ) :   0.9727

Dispersion correction           -0.013717703
FINAL SINGLE POINT ENERGY     -1339.860175206007

DIPOLE MOMENT
-------------
                                X             Y             Z
Electronic contribution:     -2.61772     -23.99777      21.97658
Nuclear contribution   :      2.54581      24.75293     -22.31866
                        -----------------------------------------
Total Dipole Moment    :     -0.07191       0.75516      -0.34209
                        -----------------------------------------
Magnitude (a.u.)       :      0.83214
Magnitude (Debye)      :      2.11514

Rotational constants in cm-1:     0.017071     0.008802     0.006149
Rotational constants in MHz :   511.766679   263.873063   184.334611

                             ****ORCA TERMINATED NORMALLY****
TOTAL RUN TIME: 0 days 0 hours 0 minutes 29 seconds 380 msec
