                         Program Version 4.2.1 -  RELEASE  -
|  1> ! wB97X-D3 SP def2-SVP
|  2> %pal
|  3> nprocs 16
|  4> end
|  5>
|  6> * xyz 0 1
|  7> S 	 -14.0647 	 70.4354 	 48.6317
|  8> C 	 -14.692 	 69.1984 	 47.4576
|  9> C 	 -15.9298 	 69.5796 	 46.9768
| 10> C 	 -16.3612 	 70.7884 	 47.4793
| 11> C 	 -15.472 	 71.4446 	 48.3006
| 12> H 	 -17.225 	 71.23 	 47.1907
| 13> C 	 -16.776 	 68.7288 	 46.0319
| 14> H 	 -17.6812 	 68.4753 	 46.4524
| 15> H 	 -16.3085 	 67.8349 	 46.0375
| 16> C 	 -16.9336 	 69.2669 	 44.6004
| 17> H 	 -17.6216 	 70.1405 	 44.5958
| 18> H 	 -15.9315 	 69.5438 	 44.308
| 19> C 	 -17.45 	 68.1378 	 43.5972
| 20> H 	 -17.2882 	 68.4757 	 42.5545
| 21> H 	 -16.9225 	 67.2198 	 43.6872
| 22> H 	 -18.4853 	 67.8867 	 43.6903
| 23> S 	 -15.6055 	 72.6894 	 50.7417
| 24> C 	 -15.8361 	 74.4393 	 50.7615
| 25> C 	 -15.8624 	 75.0204 	 49.5419
| 26> C 	 -15.7341 	 74.0425 	 48.5289
| 27> C 	 -15.657 	 72.7344 	 48.9595
| 28> H 	 -15.9802 	 76.0579 	 49.4211
| 29> C 	 -15.7235 	 74.3275 	 47.026
| 30> H 	 -16.5366 	 75.0231 	 46.7583
| 31> H 	 -15.9336 	 73.4746 	 46.4543
| 32> C 	 -14.3468 	 74.9094 	 46.4571
| 33> H 	 -13.6137 	 74.2366 	 46.7354
| 34> H 	 -14.0267 	 75.8497 	 47.0001
| 35> C 	 -14.2087 	 75.1054 	 44.9193
| 36> H 	 -14.872 	 75.9003 	 44.5343
| 37> H 	 -14.4219 	 74.2176 	 44.2953
| 38> H 	 -13.221 	 75.3586 	 44.7146
| 39> H 	 -14.3289 	 68.1573 	 47.2614
| 40> H 	 -15.9447 	 74.9663 	 51.6837
| 41> *
| 42>
| 43>                          ****END OF INPUT****

CARTESIAN COORDINATES (ANGSTROEM)
---------------------------------
  S    -14.064700   70.435400   48.631700
  C    -14.692000   69.198400   47.457600
  C    -15.929800   69.579600   46.976800
  C    -16.361200   70.788400   47.479300
  C    -15.472000   71.444600   48.300600
  H    -17.225000   71.230000   47.190700
  C    -16.776000   68.728800   46.031900
  H    -17.681200   68.475300   46.452400
  H    -16.308500   67.834900   46.037500
  C    -16.933600   69.266900   44.600400
  H    -17.621600   70.140500   44.595800
  H    -15.931500   69.543800   44.308000
  C    -17.450000   68.137800   43.597200
  H    -17.288200   68.475700   42.554500
  H    -16.922500   67.219800   43.687200
  H    -18.485300   67.886700   43.690300
  S    -15.605500   72.689400   50.741700
  C    -15.836100   74.439300   50.761500
  C    -15.862400   75.020400   49.541900
  C    -15.734100   74.042500   48.528900
  C    -15.657000   72.734400   48.959500
  H    -15.980200   76.057900   49.421100
  C    -15.723500   74.327500   47.026000
  H    -16.536600   75.023100   46.758300
  H    -15.933600   73.474600   46.454300
  C    -14.346800   74.909400   46.457100
  H    -13.613700   74.236600   46.735400
  H    -14.026700   75.849700   47.000100
  C    -14.208700   75.105400   44.919300
  H    -14.872000   75.900300   44.534300
  H    -14.421900   74.217600   44.295300
  H    -13.221000   75.358600   44.714600
  H    -14.328900   68.157300   47.261400
  H    -15.944700   74.966300   51.683700

 Total Charge           Charge          ....    0
 Multiplicity           Mult            ....    1
 Number of Electrons    NEL             ....  134
 Basis Dimension        Dim             ....  322

ORBITAL ENERGIES
----------------

  NO   OCC          E(Eh)            E(eV)
   0   2.0000     -88.969631     -2420.9867
   1   2.0000     -88.962863     -2420.8026
   2   2.0000     -10.330516      -281.1076
   3   2.0000     -10.326185      -280.9898
   4   2.0000     -10.320110      -280.8245
   5   2.0000     -10.316161      -280.7170
   6   2.0000     -10.304812      -280.4082
   7   2.0000     -10.294930      -280.1393
   8   2.0000     -10.294817      -280.1362
   9   2.0000     -10.290689      -280.0239
  10   2.0000     -10.289068      -279.9798
  11   2.0000     -10.285612      -279.8857
  12   2.0000     -10.280531      -279.7475
  13   2.0000     -10.280476      -279.7460
  14   2.0000     -10.277086      -279.6537
  15   2.0000     -10.275870      -279.6206
  16   2.0000      -8.082819      -219.9447
  17   2.0000      -8.077349      -219.7958
  18   2.0000      -6.041424      -164.3955
  19   2.0000      -6.037612      -164.2918
  20   2.0000      -6.035817      -164.2429
  21   2.0000      -6.033489      -164.1796
  22   2.0000      -6.032037      -164.1401
  23   2.0000      -6.028025      -164.0309
  24   2.0000      -1.005185       -27.3525
  25   2.0000      -0.983522       -26.7630
  26   2.0000      -0.911481       -24.8027
  27   2.0000      -0.895535       -24.3687
  28   2.0000      -0.868786       -23.6409
  29   2.0000      -0.848850       -23.0984
  30   2.0000      -0.844828       -22.9889
  31   2.0000      -0.818756       -22.2795
  32   2.0000      -0.786547       -21.4030
  33   2.0000      -0.771564       -20.9953
  34   2.0000      -0.714035       -19.4299
  35   2.0000      -0.701910       -19.0999
  36   2.0000      -0.697999       -18.9935
  37   2.0000      -0.665167       -18.1001
  38   2.0000      -0.641339       -17.4517
  39   2.0000      -0.627409       -17.0727
  40   2.0000      -0.599239       -16.3061
  41   2.0000      -0.576489       -15.6871
  42   2.0000      -0.562570       -15.3083
  43   2.0000      -0.549671       -14.9573
  44   2.0000      -0.521959       -14.2032
  45   2.0000      -0.519421       -14.1342
  46   2.0000      -0.517997       -14.0954
  47   2.0000      -0.507365       -13.8061
  48   2.0000      -0.503988       -13.7142
  49   2.0000      -0.497281       -13.5317
  50   2.0000      -0.491155       -13.3650
  51   2.0000      -0.480482       -13.0746
  52   2.0000      -0.470839       -12.8122
  53   2.0000      -0.465535       -12.6679
  54   2.0000      -0.461918       -12.5694
  55   2.0000      -0.452185       -12.3046
  56   2.0000      -0.446146       -12.1402
  57   2.0000      -0.438891       -11.9428
  58   2.0000      -0.432499       -11.7689
  59   2.0000      -0.429649       -11.6913
  60   2.0000      -0.423625       -11.5274
  61   2.0000      -0.420888       -11.4529
  62   2.0000      -0.413050       -11.2397
  63   2.0000      -0.341865        -9.3026
  64   2.0000      -0.336258        -9.1501
  65   2.0000      -0.330951        -9.0056
  66   2.0000      -0.296985        -8.0814
  67   0.0000       0.032133         0.8744
  68   0.0000       0.061258         1.6669
  69   0.0000       0.106284         2.8921
  70   0.0000       0.123932         3.3724
  71   0.0000       0.133516         3.6332

MULLIKEN ATOMIC CHARGES
-----------------------
   0 S :    0.110350
   1 C :   -0.139096
   2 C :   -0.123582
   3 C :    0.099775
   4 C :   -0.150991
   5 H :   -0.038195
   6 C :    0.179233
   7 H :    0.005649
   8 H :   -0.040599
   9 C :   -0.078001
  10 H :    0.041909
  11 H :    0.032052
  12 C :   -0.052428
  13 H :    0.038031
  14 H :    0.022830
  15 H :    0.030711
  16 S :    0.088770
  17 C :   -0.075882
  18 C :    0.000093
  19 C :   -0.020160
  20 C :   -0.172536
  21 H :    0.004258
  22 C :    0.091550
  23 H :    0.023140
  24 H :    0.000215
  25 C :   -0.082010
  26 H :    0.014546
  27 H :    0.029055
  28 C :   -0.032636
  29 H :    0.030888
  30 H :    0.032220
  31 H :    0.021747
  32 H :    0.061198
  33 H :    0.047896
Sum of atomic charges:   -0.0000000

LOEWDIN ATOMIC CHARGES
----------------------
   0 S :    0.380670
   1 C :   -0.191902
   2 C :   -0.059809
   3 C :   -0.050409
   4 C :   -0.184125
   5 H :    0.013593
   6 C :   -0.019703
   7 H :    0.021781
   8 H :    0.013122
   9 C :   -0.028341
  10 H :    0.027051
  11 H :    0.024545
  12 C :   -0.064630
  13 H :    0.031031
  14 H :    0.019674
  15 H :    0.021418
  16 S :    0.378927
  17 C :   -0.158588
  18 C :   -0.065538
  19 C :   -0.048513
  20 C :   -0.188888
  21 H :    0.029988
  22 C :   -0.026016
  23 H :    0.028740
  24 H :    0.019491
  25 C :   -0.036063
  26 H :    0.013833
  27 H :    0.027281
  28 C :   -0.063374
  29 H :    0.025407
  30 H :    0.028050
  31 H :    0.019380
  32 H :    0.039151
  33 H :    0.022768

  Mayer bond orders larger than 0.100000
B(  0-S ,  1-C ) :   1.1187 B(  0-S ,  4-C ) :   1.1451 B(  1-C ,  2-C ) :   1.6198
B(  1-C ,  4-C ) :   0.1048 B(  1-C , 32-H ) :   0.9540 B(  2-C ,  3-C ) :   1.2575
B(  2-C ,  6-C ) :   1.0228 B(  3-C ,  4-C ) :   1.5623 B(  3-C ,  5-H ) :   1.0119
B(  4-C , 20-C ) :   1.0277 B(  6-C ,  7-H ) :   0.9294 B(  6-C ,  8-H ) :   0.9164
B(  6-C ,  9-C ) :   1.0552 B(  9-C , 10-H ) :   0.9591 B(  9-C , 11-H ) :   0.9581
B(  9-C , 12-C ) :   1.0754 B( 12-C , 13-H ) :   0.9783 B( 12-C , 14-H ) :   0.9771
B( 12-C , 15-H ) :   0.9783 B( 16-S , 17-C ) :   1.1533 B( 16-S , 20-C ) :   1.1198
B( 17-C , 18-C ) :   1.6217 B( 17-C , 33-H ) :   0.9673 B( 18-C , 19-C ) :   1.2153
B( 18-C , 21-H ) :   1.0058 B( 19-C , 20-C ) :   1.6299 B( 19-C , 22-C ) :   1.0495
B( 22-C , 23-H ) :   0.9377 B( 22-C , 24-H ) :   0.9321 B( 22-C , 25-C ) :   1.0497
B( 25-C , 26-H ) :   0.9554 B( 25-C , 27-H ) :   0.9585 B( 25-C , 28-C ) :   1.0855
B( 28-C , 29-H ) :   0.9768 B( 28-C , 30-H ) :   0.9741 B( 28-C , 31-H ) :   0.9734

Dispersion correction           -0.013787280
FINAL SINGLE POINT ENERGY     -1339.864297790151

DIPOLE MOMENT
-------------
                                X             Y             Z
Electronic contribution:      5.76662      -0.35551      29.56103
Nuclear contribution   :     -6.08012       0.43582     -30.07430
                        -----------------------------------------
Total Dipole Moment    :     -0.31351       0.08032      -0.51327
                        -----------------------------------------
Magnitude (a.u.)       :      0.60678
Magnitude (Debye)      :      1.54231

Rotational constants in cm-1:     0.017538     0.008334     0.006592
Rotational constants in MHz :   525.771965   249.840000   197.626093

                             ****ORCA TERMINATED NORMALLY****
TOTAL RUN TIME: 0 days 0 hours 0 minutes 34 seconds 643 msec
