                         Program Version 4.2.1 -  RELEASE  -
|  1> ! wB97X-D3 SP def2-SVP
|  2> %pal
|  3> nprocs 16
|  4> end
|  5>
|  6> * xyz 0 1
|  7> S 	 3.32066 	 -5.04512 	 76.9671
|  8> C 	 1.78844 	 -4.39443 	 76.3279
|  9> C 	 1.16599 	 -3.65029 	 77.2988
| 10> C 	 2.0272 	 -3.3378 	 78.4056
| 11> C 	 3.26099 	 -4.04705 	 78.3778
| 12> H 	 1.86044 	 -2.714 	 79.2957
| 13> C 	 -0.210633 	 -2.98363 	 77.3127
| 14> H 	 -0.705079 	 -3.37298 	 78.2082
| 15> H 	 -0.852217 	 -3.40943 	 76.4781
| 16> C 	 -0.174253 	 -1.47636 	 77.2613
| 17> H 	 -1.08377 	 -1.16021 	 77.8071
| 18> H 	 0.788315 	 -1.07035 	 77.7098
| 19> C 	 -0.16566 	 -0.935666 	 75.7763
| 20> H 	 -0.258512 	 0.146154 	 75.7515
| 21> H 	 0.776836 	 -1.11604 	 75.3255
| 22> H 	 -0.898625 	 -1.33379 	 75.1067
| 23> S 	 5.92718 	 -3.18892 	 78.6515
| 24> C 	 6.79319 	 -3.76744 	 80.0386
| 25> C 	 5.96196 	 -4.20233 	 81.0671
| 26> C 	 4.57983 	 -4.33007 	 80.6005
| 27> C 	 4.4468 	 -3.98667 	 79.2469
| 28> H 	 6.39913 	 -4.43886 	 82.0015
| 29> C 	 3.56546 	 -5.02034 	 81.4642
| 30> H 	 4.14779 	 -5.44194 	 82.3285
| 31> H 	 3.21056 	 -5.91748 	 80.8047
| 32> C 	 2.39968 	 -4.11698 	 81.9497
| 33> H 	 1.53701 	 -4.74535 	 82.2937
| 34> H 	 2.00943 	 -3.76284 	 80.9813
| 35> C 	 2.86541 	 -3.06215 	 82.9691
| 36> H 	 3.02694 	 -3.52672 	 83.9031
| 37> H 	 2.10256 	 -2.27811 	 83.1701
| 38> H 	 3.74466 	 -2.57993 	 82.56
| 39> H 	 1.18155 	 -4.84408 	 75.5742
| 40> H 	 7.77853 	 -3.58146 	 80.2738
| 41> *
| 42>
| 43>                          ****END OF INPUT****

CARTESIAN COORDINATES (ANGSTROEM)
---------------------------------
  S      3.320660   -5.045120   76.967100
  C      1.788440   -4.394430   76.327900
  C      1.165990   -3.650290   77.298800
  C      2.027200   -3.337800   78.405600
  C      3.260990   -4.047050   78.377800
  H      1.860440   -2.714000   79.295700
  C     -0.210633   -2.983630   77.312700
  H     -0.705079   -3.372980   78.208200
  H     -0.852217   -3.409430   76.478100
  C     -0.174253   -1.476360   77.261300
  H     -1.083770   -1.160210   77.807100
  H      0.788315   -1.070350   77.709800
  C     -0.165660   -0.935666   75.776300
  H     -0.258512    0.146154   75.751500
  H      0.776836   -1.116040   75.325500
  H     -0.898625   -1.333790   75.106700
  S      5.927180   -3.188920   78.651500
  C      6.793190   -3.767440   80.038600
  C      5.961960   -4.202330   81.067100
  C      4.579830   -4.330070   80.600500
  C      4.446800   -3.986670   79.246900
  H      6.399130   -4.438860   82.001500
  C      3.565460   -5.020340   81.464200
  H      4.147790   -5.441940   82.328500
  H      3.210560   -5.917480   80.804700
  C      2.399680   -4.116980   81.949700
  H      1.537010   -4.745350   82.293700
  H      2.009430   -3.762840   80.981300
  C      2.865410   -3.062150   82.969100
  H      3.026940   -3.526720   83.903100
  H      2.102560   -2.278110   83.170100
  H      3.744660   -2.579930   82.560000
  H      1.181550   -4.844080   75.574200
  H      7.778530   -3.581460   80.273800

 Total Charge           Charge          ....    0
 Multiplicity           Mult            ....    1
 Number of Electrons    NEL             ....  134
 Basis Dimension        Dim             ....  322

ORBITAL ENERGIES
----------------

  NO   OCC          E(Eh)            E(eV)
   0   2.0000     -88.967539     -2420.9298
   1   2.0000     -88.965619     -2420.8776
   2   2.0000     -10.334195      -281.2077
   3   2.0000     -10.330402      -281.1045
   4   2.0000     -10.314071      -280.6601
   5   2.0000     -10.311958      -280.6027
   6   2.0000     -10.308721      -280.5146
   7   2.0000     -10.304915      -280.4110
   8   2.0000     -10.300167      -280.2818
   9   2.0000     -10.299973      -280.2765
  10   2.0000     -10.297493      -280.2090
  11   2.0000     -10.296842      -280.1913
  12   2.0000     -10.294953      -280.1399
  13   2.0000     -10.290595      -280.0213
  14   2.0000     -10.278360      -279.6884
  15   2.0000     -10.273018      -279.5430
  16   2.0000      -8.081911      -219.9200
  17   2.0000      -8.080117      -219.8712
  18   2.0000      -6.040495      -164.3702
  19   2.0000      -6.038670      -164.3206
  20   2.0000      -6.036609      -164.2645
  21   2.0000      -6.034527      -164.2078
  22   2.0000      -6.032461      -164.1516
  23   2.0000      -6.030940      -164.1102
  24   2.0000      -1.002057       -27.2673
  25   2.0000      -0.980809       -26.6892
  26   2.0000      -0.911413       -24.8008
  27   2.0000      -0.906508       -24.6673
  28   2.0000      -0.866261       -23.5721
  29   2.0000      -0.846469       -23.0336
  30   2.0000      -0.840009       -22.8578
  31   2.0000      -0.812191       -22.1008
  32   2.0000      -0.785244       -21.3676
  33   2.0000      -0.773658       -21.0523
  34   2.0000      -0.713337       -19.4109
  35   2.0000      -0.698916       -19.0185
  36   2.0000      -0.687640       -18.7116
  37   2.0000      -0.661879       -18.0106
  38   2.0000      -0.641778       -17.4637
  39   2.0000      -0.615623       -16.7520
  40   2.0000      -0.582563       -15.8523
  41   2.0000      -0.573659       -15.6101
  42   2.0000      -0.552261       -15.0278
  43   2.0000      -0.550076       -14.9683
  44   2.0000      -0.544473       -14.8159
  45   2.0000      -0.531094       -14.4518
  46   2.0000      -0.515077       -14.0160
  47   2.0000      -0.511510       -13.9189
  48   2.0000      -0.499843       -13.6014
  49   2.0000      -0.490821       -13.3559
  50   2.0000      -0.484664       -13.1884
  51   2.0000      -0.479124       -13.0376
  52   2.0000      -0.471650       -12.8342
  53   2.0000      -0.470520       -12.8035
  54   2.0000      -0.456951       -12.4343
  55   2.0000      -0.450460       -12.2576
  56   2.0000      -0.443736       -12.0747
  57   2.0000      -0.440647       -11.9906
  58   2.0000      -0.429918       -11.6987
  59   2.0000      -0.422109       -11.4862
  60   2.0000      -0.419590       -11.4176
  61   2.0000      -0.414209       -11.2712
  62   2.0000      -0.410948       -11.1825
  63   2.0000      -0.335008        -9.1160
  64   2.0000      -0.332894        -9.0585
  65   2.0000      -0.323641        -8.8067
  66   2.0000      -0.302941        -8.2435
  67   0.0000       0.027446         0.7468
  68   0.0000       0.057742         1.5712
  69   0.0000       0.106774         2.9055
  70   0.0000       0.108389         2.9494
  71   0.0000       0.130647         3.5551

MULLIKEN ATOMIC CHARGES
-----------------------
   0 S :    0.108009
   1 C :   -0.091036
   2 C :   -0.116887
   3 C :    0.029503
   4 C :   -0.200961
   5 H :    0.043786
   6 C :    0.047236
   7 H :    0.037884
   8 H :    0.024946
   9 C :   -0.088561
  10 H :    0.039594
  11 H :    0.057309
  12 C :   -0.040925
  13 H :    0.030255
  14 H :    0.026465
  15 H :    0.023814
  16 S :    0.123877
  17 C :   -0.049550
  18 C :   -0.043791
  19 C :   -0.021615
  20 C :   -0.170502
  21 H :    0.010772
  22 C :    0.005645
  23 H :    0.025367
  24 H :    0.062600
  25 C :   -0.055306
  26 H :    0.030098
  27 H :   -0.002526
  28 C :   -0.024554
  29 H :    0.026995
  30 H :    0.038107
  31 H :    0.040906
  32 H :    0.046649
  33 H :    0.026400
Sum of atomic charges:    0.0000000

LOEWDIN ATOMIC CHARGES
----------------------
   0 S :    0.409721
   1 C :   -0.196192
   2 C :   -0.060976
   3 C :   -0.068027
   4 C :   -0.202179
   5 H :    0.033203
   6 C :   -0.039073
   7 H :    0.033459
   8 H :    0.032553
   9 C :   -0.041214
  10 H :    0.028361
  11 H :    0.037382
  12 C :   -0.063053
  13 H :    0.026339
  14 H :    0.022969
  15 H :    0.018908
  16 S :    0.403244
  17 C :   -0.174169
  18 C :   -0.066663
  19 C :   -0.050940
  20 C :   -0.206226
  21 H :    0.025920
  22 C :   -0.042231
  23 H :    0.028741
  24 H :    0.050292
  25 C :   -0.047674
  26 H :    0.027371
  27 H :    0.020080
  28 C :   -0.061217
  29 H :    0.021568
  30 H :    0.031705
  31 H :    0.028331
  32 H :    0.026624
  33 H :    0.013061

  Mayer bond orders larger than 0.100000
B(  0-S ,  1-C ) :   1.1256 B(  0-S ,  4-C ) :   1.1782 B(  1-C ,  2-C ) :   1.6334
B(  1-C , 32-H ) :   0.9607 B(  2-C ,  3-C ) :   1.2218 B(  2-C ,  6-C ) :   1.0217
B(  3-C ,  4-C ) :   1.5685 B(  3-C ,  5-H ) :   0.9713 B(  4-C , 20-C ) :   1.0259
B(  6-C ,  7-H ) :   0.9417 B(  6-C ,  8-H ) :   0.9433 B(  6-C ,  9-C ) :   1.0513
B(  9-C , 10-H ) :   0.9553 B(  9-C , 11-H ) :   0.9603 B(  9-C , 12-C ) :   1.0688
B( 12-C , 13-H ) :   0.9755 B( 12-C , 14-H ) :   0.9768 B( 12-C , 15-H ) :   0.9779
B( 16-S , 17-C ) :   1.1538 B( 16-S , 20-C ) :   1.1342 B( 17-C , 18-C ) :   1.6367
B( 17-C , 33-H ) :   0.9695 B( 18-C , 19-C ) :   1.2107 B( 18-C , 21-H ) :   0.9932
B( 19-C , 20-C ) :   1.5961 B( 19-C , 22-C ) :   1.0350 B( 22-C , 23-H ) :   0.9443
B( 22-C , 24-H ) :   0.9343 B( 22-C , 25-C ) :   1.0536 B( 25-C , 26-H ) :   0.9514
B( 25-C , 27-H ) :   0.9542 B( 25-C , 28-C ) :   1.0587 B( 28-C , 29-H ) :   0.9739
B( 28-C , 30-H ) :   0.9740 B( 28-C , 31-H ) :   0.9769

Dispersion correction           -0.014971364
FINAL SINGLE POINT ENERGY     -1339.863720261382

DIPOLE MOMENT
-------------
                                X             Y             Z
Electronic contribution:     20.40667      -9.65408      -9.62904
Nuclear contribution   :    -20.85102       9.78093      10.09981
                        -----------------------------------------
Total Dipole Moment    :     -0.44435       0.12684       0.47077
                        -----------------------------------------
Magnitude (a.u.)       :      0.65966
Magnitude (Debye)      :      1.67673

Rotational constants in cm-1:     0.019358     0.008669     0.007238
Rotational constants in MHz :   580.334734   259.884216   216.989428

                             ****ORCA TERMINATED NORMALLY****
TOTAL RUN TIME: 0 days 0 hours 0 minutes 35 seconds 917 msec
