                         Program Version 4.2.1 -  RELEASE  -
|  1> ! wB97X-D3 SP def2-SVP
|  2> %pal
|  3> nprocs 16
|  4> end
|  5>
|  6> * xyz 0 1
|  7> S 	 -33.0449 	 40.3158 	 96.0106
|  8> C 	 -31.6594 	 39.4639 	 95.4712
|  9> C 	 -31.7322 	 38.166 	 95.9354
| 10> C 	 -32.8196 	 37.9248 	 96.8935
| 11> C 	 -33.5508 	 39.0919 	 97.1649
| 12> H 	 -33.0349 	 37.0447 	 97.3831
| 13> C 	 -30.8619 	 37.0409 	 95.4945
| 14> H 	 -30.1905 	 36.6163 	 96.3332
| 15> H 	 -30.0455 	 37.5157 	 94.9391
| 16> C 	 -31.524 	 35.8456 	 94.6955
| 17> H 	 -32.1956 	 35.303 	 95.412
| 18> H 	 -32.1029 	 36.1635 	 93.8638
| 19> C 	 -30.4351 	 34.9112 	 94.2419
| 20> H 	 -29.9445 	 35.366 	 93.4161
| 21> H 	 -29.7026 	 34.6341 	 95.011
| 22> H 	 -30.7521 	 33.9434 	 93.8956
| 23> S 	 -35.3681 	 40.786 	 98.0533
| 24> C 	 -36.5904 	 40.3331 	 99.2643
| 25> C 	 -36.6095 	 38.938 	 99.4486
| 26> C 	 -35.4621 	 38.287 	 98.8063
| 27> C 	 -34.7529 	 39.1568 	 98.0064
| 28> H 	 -37.44 	 38.5893 	 100.003
| 29> C 	 -35.178 	 36.8099 	 99.099
| 30> H 	 -34.9477 	 36.2688 	 98.1445
| 31> H 	 -36.1509 	 36.4006 	 99.4622
| 32> C 	 -34.0487 	 36.3925 	 100.111
| 33> H 	 -33.1308 	 36.9537 	 99.8345
| 34> H 	 -33.8281 	 35.322 	 100.004
| 35> C 	 -34.3528 	 36.6095 	 101.622
| 36> H 	 -33.9761 	 37.5506 	 102.099
| 37> H 	 -33.8069 	 35.7785 	 102.086
| 38> H 	 -35.4114 	 36.6449 	 101.765
| 39> H 	 -30.7991 	 39.826 	 94.8264
| 40> H 	 -37.3529 	 41.0697 	 99.5863
| 41> *
| 42>
| 43>                          ****END OF INPUT****

CARTESIAN COORDINATES (ANGSTROEM)
---------------------------------
  S    -33.044900   40.315800   96.010600
  C    -31.659400   39.463900   95.471200
  C    -31.732200   38.166000   95.935400
  C    -32.819600   37.924800   96.893500
  C    -33.550800   39.091900   97.164900
  H    -33.034900   37.044700   97.383100
  C    -30.861900   37.040900   95.494500
  H    -30.190500   36.616300   96.333200
  H    -30.045500   37.515700   94.939100
  C    -31.524000   35.845600   94.695500
  H    -32.195600   35.303000   95.412000
  H    -32.102900   36.163500   93.863800
  C    -30.435100   34.911200   94.241900
  H    -29.944500   35.366000   93.416100
  H    -29.702600   34.634100   95.011000
  H    -30.752100   33.943400   93.895600
  S    -35.368100   40.786000   98.053300
  C    -36.590400   40.333100   99.264300
  C    -36.609500   38.938000   99.448600
  C    -35.462100   38.287000   98.806300
  C    -34.752900   39.156800   98.006400
  H    -37.440000   38.589300  100.003000
  C    -35.178000   36.809900   99.099000
  H    -34.947700   36.268800   98.144500
  H    -36.150900   36.400600   99.462200
  C    -34.048700   36.392500  100.111000
  H    -33.130800   36.953700   99.834500
  H    -33.828100   35.322000  100.004000
  C    -34.352800   36.609500  101.622000
  H    -33.976100   37.550600  102.099000
  H    -33.806900   35.778500  102.086000
  H    -35.411400   36.644900  101.765000
  H    -30.799100   39.826000   94.826400
  H    -37.352900   41.069700   99.586300

 Total Charge           Charge          ....    0
 Multiplicity           Mult            ....    1
 Number of Electrons    NEL             ....  134
 Basis Dimension        Dim             ....  322

ORBITAL ENERGIES
----------------

  NO   OCC          E(Eh)            E(eV)
   0   2.0000     -88.966341     -2420.8972
   1   2.0000     -88.963247     -2420.8130
   2   2.0000     -10.334643      -281.2199
   3   2.0000     -10.331936      -281.1463
   4   2.0000     -10.324997      -280.9575
   5   2.0000     -10.318573      -280.7826
   6   2.0000     -10.314068      -280.6601
   7   2.0000     -10.304078      -280.3882
   8   2.0000     -10.302845      -280.3547
   9   2.0000     -10.301747      -280.3248
  10   2.0000     -10.296859      -280.1918
  11   2.0000     -10.294534      -280.1285
  12   2.0000     -10.291926      -280.0576
  13   2.0000     -10.291500      -280.0460
  14   2.0000     -10.279063      -279.7075
  15   2.0000     -10.273148      -279.5466
  16   2.0000      -8.081391      -219.9058
  17   2.0000      -8.078189      -219.8187
  18   2.0000      -6.040130      -164.3603
  19   2.0000      -6.036708      -164.2672
  20   2.0000      -6.035866      -164.2443
  21   2.0000      -6.032754      -164.1596
  22   2.0000      -6.031839      -164.1347
  23   2.0000      -6.028837      -164.0530
  24   2.0000      -1.007076       -27.4039
  25   2.0000      -0.981803       -26.7162
  26   2.0000      -0.908904       -24.7325
  27   2.0000      -0.900324       -24.4991
  28   2.0000      -0.872651       -23.7460
  29   2.0000      -0.852210       -23.1898
  30   2.0000      -0.844356       -22.9761
  31   2.0000      -0.816399       -22.2153
  32   2.0000      -0.778849       -21.1936
  33   2.0000      -0.767948       -20.8969
  34   2.0000      -0.710750       -19.3405
  35   2.0000      -0.701010       -19.0754
  36   2.0000      -0.686275       -18.6745
  37   2.0000      -0.670369       -18.2417
  38   2.0000      -0.639302       -17.3963
  39   2.0000      -0.618312       -16.8251
  40   2.0000      -0.585494       -15.9321
  41   2.0000      -0.571624       -15.5547
  42   2.0000      -0.561905       -15.2902
  43   2.0000      -0.551716       -15.0130
  44   2.0000      -0.546045       -14.8586
  45   2.0000      -0.525806       -14.3079
  46   2.0000      -0.515503       -14.0275
  47   2.0000      -0.512314       -13.9408
  48   2.0000      -0.509920       -13.8756
  49   2.0000      -0.499146       -13.5825
  50   2.0000      -0.486001       -13.2248
  51   2.0000      -0.483129       -13.1466
  52   2.0000      -0.470726       -12.8091
  53   2.0000      -0.463369       -12.6089
  54   2.0000      -0.457105       -12.4385
  55   2.0000      -0.445087       -12.1114
  56   2.0000      -0.442146       -12.0314
  57   2.0000      -0.437758       -11.9120
  58   2.0000      -0.431200       -11.7335
  59   2.0000      -0.425683       -11.5834
  60   2.0000      -0.417240       -11.3537
  61   2.0000      -0.415793       -11.3143
  62   2.0000      -0.406633       -11.0650
  63   2.0000      -0.364695        -9.9239
  64   2.0000      -0.332414        -9.0455
  65   2.0000      -0.320325        -8.7165
  66   2.0000      -0.284763        -7.7488
  67   0.0000       0.017225         0.4687
  68   0.0000       0.080654         2.1947
  69   0.0000       0.094566         2.5733
  70   0.0000       0.113245         3.0815
  71   0.0000       0.128365         3.4930

MULLIKEN ATOMIC CHARGES
-----------------------
   0 S :    0.098151
   1 C :   -0.115249
   2 C :   -0.079289
   3 C :    0.021403
   4 C :   -0.062845
   5 H :   -0.034661
   6 C :    0.000162
   7 H :    0.038416
   8 H :   -0.000403
   9 C :   -0.039648
  10 H :    0.033546
  11 H :    0.033509
  12 C :   -0.034908
  13 H :    0.024509
  14 H :    0.025999
  15 H :    0.022212
  16 S :    0.074734
  17 C :   -0.114207
  18 C :   -0.026646
  19 C :   -0.050129
  20 C :   -0.110538
  21 H :    0.017406
  22 C :    0.003144
  23 H :    0.044201
  24 H :    0.026213
  25 C :   -0.085588
  26 H :    0.044478
  27 H :    0.034873
  28 C :   -0.049074
  29 H :    0.045311
  30 H :    0.039217
  31 H :    0.022886
  32 H :    0.077520
  33 H :    0.075294
Sum of atomic charges:   -0.0000000

LOEWDIN ATOMIC CHARGES
----------------------
   0 S :    0.409590
   1 C :   -0.220411
   2 C :   -0.067757
   3 C :   -0.054885
   4 C :   -0.187441
   5 H :    0.011295
   6 C :   -0.047557
   7 H :    0.038471
   8 H :    0.023748
   9 C :   -0.030197
  10 H :    0.026554
  11 H :    0.023316
  12 C :   -0.064915
  13 H :    0.022142
  14 H :    0.026581
  15 H :    0.022894
  16 S :    0.390601
  17 C :   -0.178822
  18 C :   -0.063452
  19 C :   -0.061076
  20 C :   -0.182843
  21 H :    0.029034
  22 C :   -0.040761
  23 H :    0.034058
  24 H :    0.031567
  25 C :   -0.043775
  26 H :    0.029006
  27 H :    0.026750
  28 C :   -0.069700
  29 H :    0.032296
  30 H :    0.031476
  31 H :    0.018449
  32 H :    0.051358
  33 H :    0.034404

  Mayer bond orders larger than 0.100000
B(  0-S ,  1-C ) :   1.1254 B(  0-S ,  4-C ) :   1.1468 B(  1-C ,  2-C ) :   1.6105
B(  1-C , 32-H ) :   0.9559 B(  2-C ,  3-C ) :   1.2255 B(  2-C ,  6-C ) :   1.0472
B(  3-C ,  4-C ) :   1.5492 B(  3-C ,  5-H ) :   1.0099 B(  4-C , 20-C ) :   1.0758
B(  6-C ,  7-H ) :   0.9365 B(  6-C ,  8-H ) :   0.9403 B(  6-C ,  9-C ) :   1.0442
B(  9-C , 10-H ) :   0.9546 B(  9-C , 11-H ) :   0.9584 B(  9-C , 12-C ) :   1.0851
B( 12-C , 13-H ) :   0.9761 B( 12-C , 14-H ) :   0.9723 B( 12-C , 15-H ) :   0.9717
B( 16-S , 17-C ) :   1.1488 B( 16-S , 20-C ) :   1.1313 B( 17-C , 18-C ) :   1.6306
B( 17-C , 33-H ) :   0.9628 B( 18-C , 19-C ) :   1.2012 B( 18-C , 21-H ) :   0.9952
B( 19-C , 20-C ) :   1.6140 B( 19-C , 22-C ) :   1.0369 B( 22-C , 23-H ) :   0.9383
B( 22-C , 24-H ) :   0.9367 B( 22-C , 25-C ) :   1.0675 B( 25-C , 26-H ) :   0.9528
B( 25-C , 27-H ) :   0.9646 B( 25-C , 28-C ) :   1.0587 B( 28-C , 29-H ) :   0.9774
B( 28-C , 30-H ) :   0.9792 B( 28-C , 31-H ) :   0.9801

Dispersion correction           -0.013831962
FINAL SINGLE POINT ENERGY     -1339.860844888209

DIPOLE MOMENT
-------------
                                X             Y             Z
Electronic contribution:    -10.61072      28.03160      -3.62582
Nuclear contribution   :     10.67809     -28.72302       3.69908
                        -----------------------------------------
Total Dipole Moment    :      0.06736      -0.69143       0.07326
                        -----------------------------------------
Magnitude (a.u.)       :      0.69855
Magnitude (Debye)      :      1.77558

Rotational constants in cm-1:     0.018331     0.008707     0.006350
Rotational constants in MHz :   549.552563   261.018071   190.368287

                             ****ORCA TERMINATED NORMALLY****
TOTAL RUN TIME: 0 days 0 hours 0 minutes 29 seconds 202 msec
