                         Program Version 4.2.1 -  RELEASE  -
|  1> ! wB97X-D3 SP def2-SVP
|  2> %pal
|  3> nprocs 16
|  4> end
|  5>
|  6> * xyz 0 1
|  7> S 	 0.766117 	 -19.04 	 61.1822
|  8> C 	 0.838045 	 -19.3044 	 59.4506
|  9> C 	 -0.101941 	 -20.2449 	 59.0867
| 10> C 	 -0.929193 	 -20.5891 	 60.1653
| 11> C 	 -0.703822 	 -19.8705 	 61.2859
| 12> H 	 -1.66975 	 -21.3911 	 60.2422
| 13> C 	 -0.161445 	 -20.8743 	 57.6958
| 14> H 	 -0.222724 	 -19.9599 	 57.1117
| 15> H 	 -1.17737 	 -21.3463 	 57.5876
| 16> C 	 0.992815 	 -21.8022 	 57.2279
| 17> H 	 0.75239 	 -22.1273 	 56.2148
| 18> H 	 1.94928 	 -21.2509 	 57.199
| 19> C 	 1.09361 	 -22.9689 	 58.1771
| 20> H 	 1.19775 	 -22.6377 	 59.2139
| 21> H 	 0.218416 	 -23.5627 	 58.1852
| 22> H 	 1.85735 	 -23.6247 	 57.8636
| 23> S 	 -0.162439 	 -21.0029 	 63.75
| 24> C 	 -1.43488 	 -21.0811 	 64.9272
| 25> C 	 -2.56996 	 -20.4496 	 64.5223
| 26> C 	 -2.50394 	 -19.9216 	 63.2087
| 27> C 	 -1.23261 	 -20.1372 	 62.6024
| 28> H 	 -3.40897 	 -20.4594 	 65.1346
| 29> C 	 -3.77981 	 -19.3339 	 62.5462
| 30> H 	 -4.55988 	 -19.7272 	 63.184
| 31> H 	 -3.82046 	 -19.848 	 61.5903
| 32> C 	 -3.86013 	 -17.8168 	 62.383
| 33> H 	 -3.58412 	 -17.3787 	 63.3502
| 34> H 	 -4.90863 	 -17.3678 	 62.1072
| 35> C 	 -2.78782 	 -17.3207 	 61.3374
| 36> H 	 -3.22372 	 -17.6599 	 60.3547
| 37> H 	 -1.7369 	 -17.5247 	 61.4378
| 38> H 	 -2.76278 	 -16.2452 	 61.173
| 39> H 	 1.56698 	 -18.9403 	 58.765
| 40> H 	 -1.26706 	 -21.4564 	 65.8636
| 41> *
| 42>
| 43>                          ****END OF INPUT****

CARTESIAN COORDINATES (ANGSTROEM)
---------------------------------
  S      0.766117  -19.040000   61.182200
  C      0.838045  -19.304400   59.450600
  C     -0.101941  -20.244900   59.086700
  C     -0.929193  -20.589100   60.165300
  C     -0.703822  -19.870500   61.285900
  H     -1.669750  -21.391100   60.242200
  C     -0.161445  -20.874300   57.695800
  H     -0.222724  -19.959900   57.111700
  H     -1.177370  -21.346300   57.587600
  C      0.992815  -21.802200   57.227900
  H      0.752390  -22.127300   56.214800
  H      1.949280  -21.250900   57.199000
  C      1.093610  -22.968900   58.177100
  H      1.197750  -22.637700   59.213900
  H      0.218416  -23.562700   58.185200
  H      1.857350  -23.624700   57.863600
  S     -0.162439  -21.002900   63.750000
  C     -1.434880  -21.081100   64.927200
  C     -2.569960  -20.449600   64.522300
  C     -2.503940  -19.921600   63.208700
  C     -1.232610  -20.137200   62.602400
  H     -3.408970  -20.459400   65.134600
  C     -3.779810  -19.333900   62.546200
  H     -4.559880  -19.727200   63.184000
  H     -3.820460  -19.848000   61.590300
  C     -3.860130  -17.816800   62.383000
  H     -3.584120  -17.378700   63.350200
  H     -4.908630  -17.367800   62.107200
  C     -2.787820  -17.320700   61.337400
  H     -3.223720  -17.659900   60.354700
  H     -1.736900  -17.524700   61.437800
  H     -2.762780  -16.245200   61.173000
  H      1.566980  -18.940300   58.765000
  H     -1.267060  -21.456400   65.863600

 Total Charge           Charge          ....    0
 Multiplicity           Mult            ....    1
 Number of Electrons    NEL             ....  134
 Basis Dimension        Dim             ....  322

ORBITAL ENERGIES
----------------

  NO   OCC          E(Eh)            E(eV)
   0   2.0000     -88.966129     -2420.8914
   1   2.0000     -88.964307     -2420.8419
   2   2.0000     -10.328857      -281.0625
   3   2.0000     -10.318461      -280.7796
   4   2.0000     -10.310300      -280.5575
   5   2.0000     -10.307973      -280.4942
   6   2.0000     -10.307019      -280.4682
   7   2.0000     -10.298530      -280.2373
   8   2.0000     -10.297057      -280.1972
   9   2.0000     -10.294418      -280.1254
  10   2.0000     -10.291855      -280.0556
  11   2.0000     -10.290563      -280.0205
  12   2.0000     -10.288204      -279.9563
  13   2.0000     -10.285488      -279.8824
  14   2.0000     -10.271379      -279.4984
  15   2.0000     -10.266072      -279.3540
  16   2.0000      -8.081558      -219.9104
  17   2.0000      -8.078809      -219.8356
  18   2.0000      -6.039962      -164.3557
  19   2.0000      -6.037242      -164.2817
  20   2.0000      -6.036059      -164.2495
  21   2.0000      -6.033266      -164.1735
  22   2.0000      -6.032253      -164.1460
  23   2.0000      -6.029763      -164.0782
  24   2.0000      -1.016170       -27.6514
  25   2.0000      -0.985148       -26.8072
  26   2.0000      -0.914122       -24.8745
  27   2.0000      -0.900734       -24.5102
  28   2.0000      -0.873146       -23.7595
  29   2.0000      -0.850071       -23.1316
  30   2.0000      -0.841463       -22.8974
  31   2.0000      -0.815430       -22.1890
  32   2.0000      -0.784623       -21.3507
  33   2.0000      -0.770937       -20.9783
  34   2.0000      -0.706637       -19.2286
  35   2.0000      -0.706025       -19.2119
  36   2.0000      -0.691578       -18.8188
  37   2.0000      -0.662787       -18.0353
  38   2.0000      -0.643623       -17.5139
  39   2.0000      -0.612728       -16.6732
  40   2.0000      -0.593494       -16.1498
  41   2.0000      -0.574573       -15.6349
  42   2.0000      -0.557059       -15.1584
  43   2.0000      -0.551525       -15.0078
  44   2.0000      -0.544350       -14.8125
  45   2.0000      -0.535983       -14.5848
  46   2.0000      -0.514733       -14.0066
  47   2.0000      -0.510289       -13.8857
  48   2.0000      -0.503122       -13.6906
  49   2.0000      -0.497426       -13.5356
  50   2.0000      -0.486799       -13.2465
  51   2.0000      -0.472801       -12.8656
  52   2.0000      -0.470112       -12.7924
  53   2.0000      -0.465261       -12.6604
  54   2.0000      -0.456017       -12.4089
  55   2.0000      -0.447755       -12.1840
  56   2.0000      -0.442750       -12.0478
  57   2.0000      -0.435879       -11.8609
  58   2.0000      -0.429752       -11.6942
  59   2.0000      -0.425351       -11.5744
  60   2.0000      -0.420252       -11.4356
  61   2.0000      -0.416000       -11.3199
  62   2.0000      -0.408151       -11.1063
  63   2.0000      -0.341038        -9.2801
  64   2.0000      -0.331307        -9.0153
  65   2.0000      -0.328449        -8.9376
  66   2.0000      -0.296689        -8.0733
  67   0.0000       0.034847         0.9482
  68   0.0000       0.055473         1.5095
  69   0.0000       0.114550         3.1171
  70   0.0000       0.122644         3.3373
  71   0.0000       0.129029         3.5111

MULLIKEN ATOMIC CHARGES
-----------------------
   0 S :    0.108905
   1 C :   -0.106765
   2 C :   -0.103112
   3 C :    0.035929
   4 C :   -0.166474
   5 H :    0.017491
   6 C :    0.032778
   7 H :    0.032514
   8 H :    0.028835
   9 C :   -0.038130
  10 H :    0.032266
  11 H :    0.030766
  12 C :   -0.021487
  13 H :    0.045524
  14 H :    0.008703
  15 H :    0.024038
  16 S :    0.105875
  17 C :   -0.052574
  18 C :   -0.013747
  19 C :   -0.053256
  20 C :   -0.185077
  21 H :   -0.007753
  22 C :    0.118322
  23 H :    0.013229
  24 H :    0.024604
  25 C :   -0.067747
  26 H :    0.028242
  27 H :    0.052382
  28 C :   -0.072443
  29 H :    0.025733
  30 H :    0.046568
  31 H :    0.020369
  32 H :    0.032656
  33 H :    0.022832
Sum of atomic charges:   -0.0000000

LOEWDIN ATOMIC CHARGES
----------------------
   0 S :    0.434276
   1 C :   -0.192974
   2 C :   -0.065669
   3 C :   -0.063840
   4 C :   -0.216885
   5 H :    0.035085
   6 C :   -0.037609
   7 H :    0.033425
   8 H :    0.033352
   9 C :   -0.034004
  10 H :    0.026364
  11 H :    0.025542
  12 C :   -0.060810
  13 H :    0.031463
  14 H :    0.019136
  15 H :    0.020821
  16 S :    0.396073
  17 C :   -0.169326
  18 C :   -0.067971
  19 C :   -0.048108
  20 C :   -0.193902
  21 H :    0.021723
  22 C :   -0.027957
  23 H :    0.027981
  24 H :    0.029908
  25 C :   -0.043589
  26 H :    0.021707
  27 H :    0.038314
  28 C :   -0.077210
  29 H :    0.028974
  30 H :    0.019988
  31 H :    0.023174
  32 H :    0.022576
  33 H :    0.009972

  Mayer bond orders larger than 0.100000
B(  0-S ,  1-C ) :   1.1436 B(  0-S ,  4-C ) :   1.1604 B(  1-C ,  2-C ) :   1.5884
B(  1-C , 32-H ) :   0.9769 B(  2-C ,  3-C ) :   1.2541 B(  2-C ,  6-C ) :   0.9964
B(  3-C ,  4-C ) :   1.5729 B(  3-C ,  5-H ) :   0.9951 B(  4-C , 20-C ) :   1.0193
B(  6-C ,  7-H ) :   0.9370 B(  6-C ,  8-H ) :   0.9478 B(  6-C ,  9-C ) :   1.0720
B(  9-C , 10-H ) :   0.9532 B(  9-C , 11-H ) :   0.9540 B(  9-C , 12-C ) :   1.0795
B( 12-C , 13-H ) :   0.9737 B( 12-C , 14-H ) :   0.9721 B( 12-C , 15-H ) :   0.9716
B( 16-S , 17-C ) :   1.1588 B( 16-S , 20-C ) :   1.1488 B( 17-C , 18-C ) :   1.6030
B( 17-C , 20-C ) :   0.1065 B( 17-C , 33-H ) :   0.9753 B( 18-C , 19-C ) :   1.2619
B( 18-C , 21-H ) :   0.9983 B( 19-C , 20-C ) :   1.5844 B( 19-C , 22-C ) :   1.0091
B( 22-C , 23-H ) :   0.9324 B( 22-C , 24-H ) :   0.9379 B( 22-C , 25-C ) :   1.0634
B( 25-C , 26-H ) :   0.9545 B( 25-C , 27-H ) :   0.9575 B( 25-C , 28-C ) :   1.0652
B( 28-C , 29-H ) :   0.9760 B( 28-C , 30-H ) :   0.9694 B( 28-C , 31-H ) :   0.9723

Dispersion correction           -0.015621768
FINAL SINGLE POINT ENERGY     -1339.865797511018

DIPOLE MOMENT
-------------
                                X             Y             Z
Electronic contribution:      8.79243       0.45248      16.52581
Nuclear contribution   :     -9.06887      -0.70505     -16.84194
                        -----------------------------------------
Total Dipole Moment    :     -0.27644      -0.25256      -0.31613
                        -----------------------------------------
Magnitude (a.u.)       :      0.49005
Magnitude (Debye)      :      1.24561

Rotational constants in cm-1:     0.021090     0.008926     0.007643
Rotational constants in MHz :   632.263859   267.600964   229.142855

                             ****ORCA TERMINATED NORMALLY****
TOTAL RUN TIME: 0 days 0 hours 0 minutes 36 seconds 524 msec
