                         Program Version 4.2.1 -  RELEASE  -
|  1> ! wB97X-D3 SP def2-SVP
|  2> %pal
|  3> nprocs 16
|  4> end
|  5>
|  6> * xyz 0 1
|  7> S 	 41.0239 	 8.57064 	 79.4038
|  8> C 	 40.6401 	 7.66148 	 80.8395
|  9> C 	 39.2281 	 7.59622 	 80.9256
| 10> C 	 38.5307 	 8.31963 	 79.8756
| 11> C 	 39.3741 	 9.03306 	 79.0579
| 12> H 	 37.4741 	 8.39502 	 79.7602
| 13> C 	 38.4864 	 6.65016 	 81.8687
| 14> H 	 39.1586 	 5.93321 	 82.3551
| 15> H 	 37.8536 	 6.04619 	 81.1392
| 16> C 	 37.5562 	 7.29654 	 82.9881
| 17> H 	 36.822 	 7.7963 	 82.3498
| 18> H 	 36.9649 	 6.48421 	 83.4173
| 19> C 	 38.4086 	 8.21773 	 83.9512
| 20> H 	 37.8559 	 8.76894 	 84.761
| 21> H 	 39.1509 	 7.58945 	 84.5021
| 22> H 	 38.8693 	 9.08806 	 83.4603
| 23> S 	 39.9748 	 11.5241 	 78.1811
| 24> C 	 39.0218 	 12.2616 	 76.9453
| 25> C 	 37.9396 	 11.4661 	 76.5925
| 26> C 	 37.91 	 10.1831 	 77.2592
| 27> C 	 38.9902 	 10.0921 	 78.1287
| 28> H 	 37.2182 	 11.9036 	 75.9345
| 29> C 	 36.7827 	 9.25362 	 77.0991
| 30> H 	 37.1185 	 8.3051 	 77.4241
| 31> H 	 36.5338 	 9.10838 	 76.0847
| 32> C 	 35.4522 	 9.56268 	 77.8551
| 33> H 	 35.4935 	 9.41449 	 78.9837
| 34> H 	 34.7398 	 8.75282 	 77.445
| 35> C 	 34.9301 	 10.9621 	 77.6431
| 36> H 	 35.6147 	 11.6464 	 78.1849
| 37> H 	 33.9096 	 11.1124 	 78.0715
| 38> H 	 34.9021 	 11.1966 	 76.5896
| 39> H 	 41.3196 	 6.97132 	 81.3105
| 40> H 	 39.3251 	 13.1961 	 76.5697
| 41> *
| 42>
| 43>                          ****END OF INPUT****

CARTESIAN COORDINATES (ANGSTROEM)
---------------------------------
  S     41.023900    8.570640   79.403800
  C     40.640100    7.661480   80.839500
  C     39.228100    7.596220   80.925600
  C     38.530700    8.319630   79.875600
  C     39.374100    9.033060   79.057900
  H     37.474100    8.395020   79.760200
  C     38.486400    6.650160   81.868700
  H     39.158600    5.933210   82.355100
  H     37.853600    6.046190   81.139200
  C     37.556200    7.296540   82.988100
  H     36.822000    7.796300   82.349800
  H     36.964900    6.484210   83.417300
  C     38.408600    8.217730   83.951200
  H     37.855900    8.768940   84.761000
  H     39.150900    7.589450   84.502100
  H     38.869300    9.088060   83.460300
  S     39.974800   11.524100   78.181100
  C     39.021800   12.261600   76.945300
  C     37.939600   11.466100   76.592500
  C     37.910000   10.183100   77.259200
  C     38.990200   10.092100   78.128700
  H     37.218200   11.903600   75.934500
  C     36.782700    9.253620   77.099100
  H     37.118500    8.305100   77.424100
  H     36.533800    9.108380   76.084700
  C     35.452200    9.562680   77.855100
  H     35.493500    9.414490   78.983700
  H     34.739800    8.752820   77.445000
  C     34.930100   10.962100   77.643100
  H     35.614700   11.646400   78.184900
  H     33.909600   11.112400   78.071500
  H     34.902100   11.196600   76.589600
  H     41.319600    6.971320   81.310500
  H     39.325100   13.196100   76.569700

 Total Charge           Charge          ....    0
 Multiplicity           Mult            ....    1
 Number of Electrons    NEL             ....  134
 Basis Dimension        Dim             ....  322

ORBITAL ENERGIES
----------------

  NO   OCC          E(Eh)            E(eV)
   0   2.0000     -88.965417     -2420.8721
   1   2.0000     -88.964038     -2420.8346
   2   2.0000     -10.330445      -281.1057
   3   2.0000     -10.328237      -281.0456
   4   2.0000     -10.316173      -280.7173
   5   2.0000     -10.312751      -280.6242
   6   2.0000     -10.308381      -280.5053
   7   2.0000     -10.304110      -280.3891
   8   2.0000     -10.301259      -280.3115
   9   2.0000     -10.298783      -280.2441
  10   2.0000     -10.296313      -280.1769
  11   2.0000     -10.294900      -280.1385
  12   2.0000     -10.293451      -280.0991
  13   2.0000     -10.288497      -279.9642
  14   2.0000     -10.286578      -279.9120
  15   2.0000     -10.280723      -279.7527
  16   2.0000      -8.080962      -219.8942
  17   2.0000      -8.078834      -219.8362
  18   2.0000      -6.039324      -164.3384
  19   2.0000      -6.037372      -164.2852
  20   2.0000      -6.035319      -164.2294
  21   2.0000      -6.033214      -164.1721
  22   2.0000      -6.031860      -164.1352
  23   2.0000      -6.029661      -164.0754
  24   2.0000      -1.009212       -27.4620
  25   2.0000      -0.984016       -26.7764
  26   2.0000      -0.916134       -24.9293
  27   2.0000      -0.898776       -24.4569
  28   2.0000      -0.868338       -23.6287
  29   2.0000      -0.852559       -23.1993
  30   2.0000      -0.838041       -22.8042
  31   2.0000      -0.814568       -22.1655
  32   2.0000      -0.788521       -21.4567
  33   2.0000      -0.769615       -20.9423
  34   2.0000      -0.707885       -19.2625
  35   2.0000      -0.698864       -19.0171
  36   2.0000      -0.689330       -18.7576
  37   2.0000      -0.667041       -18.1511
  38   2.0000      -0.640128       -17.4188
  39   2.0000      -0.619927       -16.8691
  40   2.0000      -0.599358       -16.3093
  41   2.0000      -0.566550       -15.4166
  42   2.0000      -0.557540       -15.1714
  43   2.0000      -0.543621       -14.7927
  44   2.0000      -0.542428       -14.7602
  45   2.0000      -0.536108       -14.5882
  46   2.0000      -0.522548       -14.2192
  47   2.0000      -0.510501       -13.8914
  48   2.0000      -0.500984       -13.6325
  49   2.0000      -0.496268       -13.5041
  50   2.0000      -0.489627       -13.3234
  51   2.0000      -0.483440       -13.1551
  52   2.0000      -0.469228       -12.7683
  53   2.0000      -0.464411       -12.6373
  54   2.0000      -0.462412       -12.5829
  55   2.0000      -0.446268       -12.1436
  56   2.0000      -0.440361       -11.9828
  57   2.0000      -0.438035       -11.9195
  58   2.0000      -0.429687       -11.6924
  59   2.0000      -0.427822       -11.6416
  60   2.0000      -0.417980       -11.3738
  61   2.0000      -0.416808       -11.3419
  62   2.0000      -0.408912       -11.1271
  63   2.0000      -0.353914        -9.6305
  64   2.0000      -0.331423        -9.0185
  65   2.0000      -0.322851        -8.7852
  66   2.0000      -0.289631        -7.8813
  67   0.0000       0.026551         0.7225
  68   0.0000       0.075493         2.0543
  69   0.0000       0.106450         2.8967
  70   0.0000       0.114470         3.1149
  71   0.0000       0.128528         3.4974

MULLIKEN ATOMIC CHARGES
-----------------------
   0 S :    0.100921
   1 C :   -0.107625
   2 C :   -0.095370
   3 C :    0.040691
   4 C :   -0.135858
   5 H :   -0.014105
   6 C :   -0.013615
   7 H :    0.021880
   8 H :    0.044275
   9 C :   -0.042830
  10 H :    0.020052
  11 H :    0.035723
  12 C :   -0.079328
  13 H :    0.036867
  14 H :    0.040549
  15 H :    0.054121
  16 S :    0.114890
  17 C :   -0.087620
  18 C :   -0.029731
  19 C :   -0.042067
  20 C :   -0.146755
  21 H :    0.013014
  22 C :    0.120531
  23 H :    0.006521
  24 H :    0.016582
  25 C :   -0.129205
  26 H :    0.046118
  27 H :    0.043244
  28 C :   -0.058063
  29 H :    0.055556
  30 H :    0.042769
  31 H :    0.026360
  32 H :    0.060135
  33 H :    0.041374
Sum of atomic charges:   -0.0000000

LOEWDIN ATOMIC CHARGES
----------------------
   0 S :    0.406702
   1 C :   -0.206709
   2 C :   -0.059310
   3 C :   -0.065997
   4 C :   -0.190960
   5 H :    0.022840
   6 C :   -0.039095
   7 H :    0.022181
   8 H :    0.038932
   9 C :   -0.041374
  10 H :    0.020449
  11 H :    0.026074
  12 C :   -0.078074
  13 H :    0.030488
  14 H :    0.030168
  15 H :    0.033906
  16 S :    0.424223
  17 C :   -0.184771
  18 C :   -0.064388
  19 C :   -0.057141
  20 C :   -0.194883
  21 H :    0.027772
  22 C :   -0.032689
  23 H :    0.027334
  24 H :    0.029892
  25 C :   -0.043684
  26 H :    0.025586
  27 H :    0.031630
  28 C :   -0.071543
  29 H :    0.033702
  30 H :    0.032294
  31 H :    0.018519
  32 H :    0.030813
  33 H :    0.017115

  Mayer bond orders larger than 0.100000
B(  0-S ,  1-C ) :   1.1339 B(  0-S ,  4-C ) :   1.1620 B(  1-C ,  2-C ) :   1.5783
B(  1-C , 32-H ) :   0.9706 B(  2-C ,  3-C ) :   1.2508 B(  2-C ,  6-C ) :   1.0179
B(  3-C ,  4-C ) :   1.5471 B(  3-C ,  5-H ) :   0.9964 B(  4-C , 20-C ) :   1.0413
B(  6-C ,  7-H ) :   0.9527 B(  6-C ,  8-H ) :   0.9483 B(  6-C ,  9-C ) :   1.0531
B(  9-C , 10-H ) :   0.9611 B(  9-C , 11-H ) :   0.9608 B(  9-C , 12-C ) :   1.0488
B( 12-C , 13-H ) :   0.9774 B( 12-C , 14-H ) :   0.9779 B( 12-C , 15-H ) :   0.9747
B( 16-S , 17-C ) :   1.1608 B( 16-S , 20-C ) :   1.1601 B( 17-C , 18-C ) :   1.5923
B( 17-C , 33-H ) :   0.9779 B( 18-C , 19-C ) :   1.2193 B( 18-C , 21-H ) :   0.9964
B( 19-C , 20-C ) :   1.5792 B( 19-C , 22-C ) :   1.0728 B( 22-C , 23-H ) :   0.9128
B( 22-C , 24-H ) :   0.9230 B( 22-C , 25-C ) :   1.0633 B( 25-C , 26-H ) :   0.9506
B( 25-C , 27-H ) :   0.9534 B( 25-C , 28-C ) :   1.0883 B( 28-C , 29-H ) :   0.9650
B( 28-C , 30-H ) :   0.9689 B( 28-C , 31-H ) :   0.9728

Dispersion correction           -0.014907616
FINAL SINGLE POINT ENERGY     -1339.878386531437

DIPOLE MOMENT
-------------
                                X             Y             Z
Electronic contribution:     23.16475       6.73649     -11.04155
Nuclear contribution   :    -23.82835      -6.89088      11.07219
                        -----------------------------------------
Total Dipole Moment    :     -0.66360      -0.15439       0.03064
                        -----------------------------------------
Magnitude (a.u.)       :      0.68201
Magnitude (Debye)      :      1.73353

Rotational constants in cm-1:     0.018743     0.009163     0.007113
Rotational constants in MHz :   561.914984   274.685301   213.247367

                             ****ORCA TERMINATED NORMALLY****
TOTAL RUN TIME: 0 days 0 hours 0 minutes 29 seconds 454 msec
