                         Program Version 4.2.1 -  RELEASE  -
|  1> ! wB97X-D3 SP def2-SVP
|  2> %pal
|  3> nprocs 16
|  4> end
|  5>
|  6> * xyz 0 1
|  7> S 	 48.5625 	 7.35136 	 92.2333
|  8> C 	 49.7663 	 8.62728 	 92.2094
|  9> C 	 50.6332 	 8.39829 	 91.1973
| 10> C 	 50.254 	 7.30731 	 90.3418
| 11> C 	 49.1643 	 6.59079 	 90.8131
| 12> H 	 50.688 	 6.99995 	 89.3575
| 13> C 	 51.7415 	 9.30321 	 90.8571
| 14> H 	 51.3413 	 10.2877 	 90.7886
| 15> H 	 52.0557 	 9.16666 	 89.8323
| 16> C 	 52.9247 	 9.48221 	 91.7495
| 17> H 	 53.3419 	 10.5116 	 91.4673
| 18> H 	 52.6622 	 9.40828 	 92.834
| 19> C 	 54.0619 	 8.47169 	 91.5998
| 20> H 	 53.7648 	 7.39495 	 91.754
| 21> H 	 54.3454 	 8.34953 	 90.5947
| 22> H 	 54.8628 	 8.65079 	 92.2935
| 23> S 	 49.4224 	 3.903 	 90.4317
| 24> C 	 48.0177 	 3.05544 	 89.7925
| 25> C 	 46.9407 	 3.85922 	 89.6542
| 26> C 	 47.273 	 5.23237 	 89.8182
| 27> C 	 48.5681 	 5.41308 	 90.2106
| 28> H 	 45.9462 	 3.47137 	 89.2668
| 29> C 	 46.1822 	 6.32787 	 89.6569
| 30> H 	 46.6113 	 7.29613 	 89.8782
| 31> H 	 45.2922 	 6.1092 	 90.2908
| 32> C 	 45.7235 	 6.63629 	 88.2259
| 33> H 	 45.4099 	 5.65646 	 87.8551
| 34> H 	 46.6599 	 7.03418 	 87.71
| 35> C 	 44.4418 	 7.50793 	 88.0248
| 36> H 	 43.6073 	 7.10784 	 88.4716
| 37> H 	 44.3027 	 7.60657 	 86.981
| 38> H 	 44.6836 	 8.46013 	 88.5166
| 39> H 	 49.7921 	 9.43117 	 92.9075
| 40> H 	 48.0722 	 2.03815 	 89.5403
| 41> *
| 42>
| 43>                          ****END OF INPUT****

CARTESIAN COORDINATES (ANGSTROEM)
---------------------------------
  S     48.562500    7.351360   92.233300
  C     49.766300    8.627280   92.209400
  C     50.633200    8.398290   91.197300
  C     50.254000    7.307310   90.341800
  C     49.164300    6.590790   90.813100
  H     50.688000    6.999950   89.357500
  C     51.741500    9.303210   90.857100
  H     51.341300   10.287700   90.788600
  H     52.055700    9.166660   89.832300
  C     52.924700    9.482210   91.749500
  H     53.341900   10.511600   91.467300
  H     52.662200    9.408280   92.834000
  C     54.061900    8.471690   91.599800
  H     53.764800    7.394950   91.754000
  H     54.345400    8.349530   90.594700
  H     54.862800    8.650790   92.293500
  S     49.422400    3.903000   90.431700
  C     48.017700    3.055440   89.792500
  C     46.940700    3.859220   89.654200
  C     47.273000    5.232370   89.818200
  C     48.568100    5.413080   90.210600
  H     45.946200    3.471370   89.266800
  C     46.182200    6.327870   89.656900
  H     46.611300    7.296130   89.878200
  H     45.292200    6.109200   90.290800
  C     45.723500    6.636290   88.225900
  H     45.409900    5.656460   87.855100
  H     46.659900    7.034180   87.710000
  C     44.441800    7.507930   88.024800
  H     43.607300    7.107840   88.471600
  H     44.302700    7.606570   86.981000
  H     44.683600    8.460130   88.516600
  H     49.792100    9.431170   92.907500
  H     48.072200    2.038150   89.540300

 Total Charge           Charge          ....    0
 Multiplicity           Mult            ....    1
 Number of Electrons    NEL             ....  134
 Basis Dimension        Dim             ....  322

ORBITAL ENERGIES
----------------

  NO   OCC          E(Eh)            E(eV)
   0   2.0000     -88.965028     -2420.8615
   1   2.0000     -88.961896     -2420.7763
   2   2.0000     -10.323262      -280.9102
   3   2.0000     -10.322522      -280.8901
   4   2.0000     -10.314517      -280.6723
   5   2.0000     -10.309566      -280.5376
   6   2.0000     -10.303839      -280.3817
   7   2.0000     -10.296973      -280.1949
   8   2.0000     -10.295518      -280.1553
   9   2.0000     -10.294610      -280.1306
  10   2.0000     -10.291541      -280.0471
  11   2.0000     -10.290950      -280.0310
  12   2.0000     -10.288343      -279.9600
  13   2.0000     -10.279297      -279.7139
  14   2.0000     -10.272912      -279.5402
  15   2.0000     -10.269988      -279.4606
  16   2.0000      -8.080068      -219.8698
  17   2.0000      -8.077004      -219.7864
  18   2.0000      -6.038581      -164.3181
  19   2.0000      -6.035516      -164.2347
  20   2.0000      -6.034673      -164.2118
  21   2.0000      -6.031237      -164.1183
  22   2.0000      -6.030650      -164.1023
  23   2.0000      -6.027948      -164.0288
  24   2.0000      -1.011582       -27.5265
  25   2.0000      -0.989623       -26.9290
  26   2.0000      -0.918377       -24.9903
  27   2.0000      -0.904256       -24.6061
  28   2.0000      -0.873165       -23.7600
  29   2.0000      -0.850755       -23.1502
  30   2.0000      -0.844544       -22.9812
  31   2.0000      -0.816629       -22.2216
  32   2.0000      -0.788431       -21.4543
  33   2.0000      -0.778228       -21.1767
  34   2.0000      -0.704711       -19.1762
  35   2.0000      -0.698370       -19.0036
  36   2.0000      -0.685396       -18.6506
  37   2.0000      -0.661061       -17.9884
  38   2.0000      -0.643047       -17.4982
  39   2.0000      -0.610182       -16.6039
  40   2.0000      -0.600608       -16.3434
  41   2.0000      -0.578814       -15.7503
  42   2.0000      -0.568616       -15.4728
  43   2.0000      -0.551051       -14.9949
  44   2.0000      -0.538592       -14.6558
  45   2.0000      -0.524107       -14.2617
  46   2.0000      -0.519829       -14.1453
  47   2.0000      -0.518730       -14.1154
  48   2.0000      -0.510032       -13.8787
  49   2.0000      -0.500449       -13.6179
  50   2.0000      -0.491646       -13.3784
  51   2.0000      -0.478454       -13.0194
  52   2.0000      -0.472537       -12.8584
  53   2.0000      -0.465485       -12.6665
  54   2.0000      -0.463536       -12.6134
  55   2.0000      -0.450618       -12.2619
  56   2.0000      -0.442823       -12.0498
  57   2.0000      -0.432954       -11.7813
  58   2.0000      -0.429382       -11.6841
  59   2.0000      -0.425078       -11.5670
  60   2.0000      -0.413375       -11.2485
  61   2.0000      -0.408400       -11.1131
  62   2.0000      -0.398017       -10.8306
  63   2.0000      -0.339744        -9.2449
  64   2.0000      -0.331101        -9.0097
  65   2.0000      -0.324755        -8.8370
  66   2.0000      -0.307562        -8.3692
  67   0.0000       0.036666         0.9977
  68   0.0000       0.067777         1.8443
  69   0.0000       0.108328         2.9478
  70   0.0000       0.118437         3.2228
  71   0.0000       0.135870         3.6972

MULLIKEN ATOMIC CHARGES
-----------------------
   0 S :    0.119808
   1 C :   -0.126963
   2 C :   -0.039371
   3 C :    0.003722
   4 C :   -0.171004
   5 H :    0.027989
   6 C :    0.087257
   7 H :    0.017619
   8 H :    0.003986
   9 C :   -0.096570
  10 H :    0.036739
  11 H :    0.036638
  12 C :   -0.033160
  13 H :    0.023700
  14 H :    0.005252
  15 H :    0.038199
  16 S :    0.111137
  17 C :   -0.079575
  18 C :   -0.035878
  19 C :   -0.031808
  20 C :   -0.164323
  21 H :    0.045248
  22 C :    0.070661
  23 H :    0.017742
  24 H :    0.037558
  25 C :   -0.140940
  26 H :    0.012961
  27 H :    0.046969
  28 C :    0.016948
  29 H :    0.015187
  30 H :    0.036456
  31 H :    0.027016
  32 H :    0.039497
  33 H :    0.041304
Sum of atomic charges:    0.0000000

LOEWDIN ATOMIC CHARGES
----------------------
   0 S :    0.421247
   1 C :   -0.185647
   2 C :   -0.067707
   3 C :   -0.069994
   4 C :   -0.209952
   5 H :    0.039248
   6 C :   -0.042376
   7 H :    0.034675
   8 H :    0.028883
   9 C :   -0.042884
  10 H :    0.033335
  11 H :    0.029311
  12 C :   -0.072464
  13 H :    0.031371
  14 H :    0.014100
  15 H :    0.024824
  16 S :    0.403121
  17 C :   -0.163334
  18 C :   -0.073916
  19 C :   -0.052954
  20 C :   -0.204107
  21 H :    0.043854
  22 C :   -0.037031
  23 H :    0.022669
  24 H :    0.033344
  25 C :   -0.044727
  26 H :    0.012589
  27 H :    0.032911
  28 C :   -0.048703
  29 H :    0.013814
  30 H :    0.026643
  31 H :    0.026834
  32 H :    0.024758
  33 H :    0.018266

  Mayer bond orders larger than 0.100000
B(  0-S ,  1-C ) :   1.1371 B(  0-S ,  4-C ) :   1.1573 B(  1-C ,  2-C ) :   1.6020
B(  1-C , 32-H ) :   0.9789 B(  2-C ,  3-C ) :   1.2272 B(  2-C ,  6-C ) :   1.0283
B(  3-C ,  4-C ) :   1.5728 B(  3-C ,  5-H ) :   0.9907 B(  4-C , 20-C ) :   1.0210
B(  6-C ,  7-H ) :   0.9314 B(  6-C ,  8-H ) :   0.9356 B(  6-C ,  9-C ) :   1.0702
B(  9-C , 10-H ) :   0.9530 B(  9-C , 11-H ) :   0.9573 B(  9-C , 12-C ) :   1.0838
B( 12-C , 13-H ) :   0.9714 B( 12-C , 14-H ) :   0.9703 B( 12-C , 15-H ) :   0.9749
B( 16-S , 17-C ) :   1.1475 B( 16-S , 20-C ) :   1.1420 B( 17-C , 18-C ) :   1.6277
B( 17-C , 33-H ) :   0.9747 B( 18-C , 19-C ) :   1.2241 B( 18-C , 21-H ) :   0.9773
B( 19-C , 20-C ) :   1.6280 B( 19-C , 22-C ) :   1.0387 B( 22-C , 23-H ) :   0.9307
B( 22-C , 24-H ) :   0.9415 B( 22-C , 25-C ) :   1.0556 B( 25-C , 26-H ) :   0.9609
B( 25-C , 27-H ) :   0.9574 B( 25-C , 28-C ) :   1.0782 B( 28-C , 29-H ) :   0.9729
B( 28-C , 30-H ) :   0.9739 B( 28-C , 31-H ) :   0.9758

Dispersion correction           -0.013787206
FINAL SINGLE POINT ENERGY     -1339.864414829480

DIPOLE MOMENT
-------------
                                X             Y             Z
Electronic contribution:     -1.69362     -15.02540       8.56160
Nuclear contribution   :      1.53385      15.25474      -8.87409
                        -----------------------------------------
Total Dipole Moment    :     -0.15977       0.22935      -0.31249
                        -----------------------------------------
Magnitude (a.u.)       :      0.41926
Magnitude (Debye)      :      1.06567

Rotational constants in cm-1:     0.020544     0.007650     0.006331
Rotational constants in MHz :   615.890525   229.334752   189.795477

                             ****ORCA TERMINATED NORMALLY****
TOTAL RUN TIME: 0 days 0 hours 0 minutes 28 seconds 760 msec
