                         Program Version 4.2.1 -  RELEASE  -
|  1> ! wB97X-D3 SP def2-SVP
|  2> %pal
|  3> nprocs 16
|  4> end
|  5>
|  6> * xyz 0 1
|  7> S 	 -75.3437 	 53.4057 	 123.462
|  8> C 	 -74.7146 	 55.0681 	 123.759
|  9> C 	 -74.0822 	 55.5232 	 122.619
| 10> C 	 -74.2479 	 54.6454 	 121.482
| 11> C 	 -75.0978 	 53.5397 	 121.765
| 12> H 	 -73.7945 	 54.8379 	 120.513
| 13> C 	 -73.3027 	 56.7523 	 122.614
| 14> H 	 -73.4198 	 57.3094 	 123.557
| 15> H 	 -73.7248 	 57.3312 	 121.75
| 16> C 	 -71.8219 	 56.5523 	 122.175
| 17> H 	 -71.3646 	 55.8939 	 122.866
| 18> H 	 -71.7588 	 56.1652 	 121.205
| 19> C 	 -70.9366 	 57.831 	 122.184
| 20> H 	 -69.8973 	 57.5856 	 122.123
| 21> H 	 -71.2615 	 58.5871 	 121.448
| 22> H 	 -70.9749 	 58.2737 	 123.17
| 23> S 	 -74.1037 	 52.1032 	 119.633
| 24> C 	 -75.1895 	 50.9582 	 118.869
| 25> C 	 -76.404 	 50.8894 	 119.438
| 26> C 	 -76.5668 	 51.7735 	 120.552
| 27> C 	 -75.399 	 52.4781 	 120.827
| 28> H 	 -77.0917 	 50.1505 	 118.986
| 29> C 	 -77.855 	 51.8677 	 121.264
| 30> H 	 -77.9725 	 52.8885 	 121.532
| 31> H 	 -77.7627 	 51.3324 	 122.193
| 32> C 	 -79.1817 	 51.6246 	 120.487
| 33> H 	 -79.2527 	 50.7513 	 119.845
| 34> H 	 -79.3171 	 52.4197 	 119.718
| 35> C 	 -80.3937 	 51.5063 	 121.427
| 36> H 	 -80.4427 	 52.4616 	 121.884
| 37> H 	 -80.2226 	 50.8436 	 122.297
| 38> H 	 -81.295 	 51.139 	 120.851
| 39> H 	 -74.6238 	 55.4837 	 124.73
| 40> H 	 -74.9923 	 50.6268 	 117.911
| 41> *
| 42>
| 43>                          ****END OF INPUT****

CARTESIAN COORDINATES (ANGSTROEM)
---------------------------------
  S    -75.343700   53.405700  123.462000
  C    -74.714600   55.068100  123.759000
  C    -74.082200   55.523200  122.619000
  C    -74.247900   54.645400  121.482000
  C    -75.097800   53.539700  121.765000
  H    -73.794500   54.837900  120.513000
  C    -73.302700   56.752300  122.614000
  H    -73.419800   57.309400  123.557000
  H    -73.724800   57.331200  121.750000
  C    -71.821900   56.552300  122.175000
  H    -71.364600   55.893900  122.866000
  H    -71.758800   56.165200  121.205000
  C    -70.936600   57.831000  122.184000
  H    -69.897300   57.585600  122.123000
  H    -71.261500   58.587100  121.448000
  H    -70.974900   58.273700  123.170000
  S    -74.103700   52.103200  119.633000
  C    -75.189500   50.958200  118.869000
  C    -76.404000   50.889400  119.438000
  C    -76.566800   51.773500  120.552000
  C    -75.399000   52.478100  120.827000
  H    -77.091700   50.150500  118.986000
  C    -77.855000   51.867700  121.264000
  H    -77.972500   52.888500  121.532000
  H    -77.762700   51.332400  122.193000
  C    -79.181700   51.624600  120.487000
  H    -79.252700   50.751300  119.845000
  H    -79.317100   52.419700  119.718000
  C    -80.393700   51.506300  121.427000
  H    -80.442700   52.461600  121.884000
  H    -80.222600   50.843600  122.297000
  H    -81.295000   51.139000  120.851000
  H    -74.623800   55.483700  124.730000
  H    -74.992300   50.626800  117.911000

 Total Charge           Charge          ....    0
 Multiplicity           Mult            ....    1
 Number of Electrons    NEL             ....  134
 Basis Dimension        Dim             ....  322

ORBITAL ENERGIES
----------------

  NO   OCC          E(Eh)            E(eV)
   0   2.0000     -88.965244     -2420.8674
   1   2.0000     -88.962747     -2420.7994
   2   2.0000     -10.332890      -281.1722
   3   2.0000     -10.328500      -281.0528
   4   2.0000     -10.312326      -280.6127
   5   2.0000     -10.307059      -280.4693
   6   2.0000     -10.305222      -280.4193
   7   2.0000     -10.300332      -280.2863
   8   2.0000     -10.297785      -280.2170
   9   2.0000     -10.293502      -280.1004
  10   2.0000     -10.291192      -280.0376
  11   2.0000     -10.289799      -279.9997
  12   2.0000     -10.286106      -279.8992
  13   2.0000     -10.282181      -279.7924
  14   2.0000     -10.280648      -279.7506
  15   2.0000     -10.277329      -279.6603
  16   2.0000      -8.079542      -219.8555
  17   2.0000      -8.076923      -219.7843
  18   2.0000      -6.038084      -164.3046
  19   2.0000      -6.035423      -164.2322
  20   2.0000      -6.034233      -164.1998
  21   2.0000      -6.031697      -164.1308
  22   2.0000      -6.030174      -164.0894
  23   2.0000      -6.027549      -164.0179
  24   2.0000      -1.003582       -27.3089
  25   2.0000      -0.981366       -26.7043
  26   2.0000      -0.915566       -24.9138
  27   2.0000      -0.910246       -24.7690
  28   2.0000      -0.871100       -23.7038
  29   2.0000      -0.852925       -23.2093
  30   2.0000      -0.846300       -23.0290
  31   2.0000      -0.811413       -22.0797
  32   2.0000      -0.784323       -21.3425
  33   2.0000      -0.771151       -20.9841
  34   2.0000      -0.713195       -19.4070
  35   2.0000      -0.705109       -19.1870
  36   2.0000      -0.696240       -18.9457
  37   2.0000      -0.659276       -17.9398
  38   2.0000      -0.633485       -17.2380
  39   2.0000      -0.616527       -16.7765
  40   2.0000      -0.603608       -16.4250
  41   2.0000      -0.574544       -15.6341
  42   2.0000      -0.564482       -15.3603
  43   2.0000      -0.563003       -15.3201
  44   2.0000      -0.534284       -14.5386
  45   2.0000      -0.522740       -14.2245
  46   2.0000      -0.517169       -14.0729
  47   2.0000      -0.516448       -14.0533
  48   2.0000      -0.507225       -13.8023
  49   2.0000      -0.501789       -13.6544
  50   2.0000      -0.486455       -13.2371
  51   2.0000      -0.478900       -13.0315
  52   2.0000      -0.470013       -12.7897
  53   2.0000      -0.466329       -12.6894
  54   2.0000      -0.458075       -12.4648
  55   2.0000      -0.450069       -12.2470
  56   2.0000      -0.449055       -12.2194
  57   2.0000      -0.436805       -11.8861
  58   2.0000      -0.432688       -11.7740
  59   2.0000      -0.426572       -11.6076
  60   2.0000      -0.423397       -11.5212
  61   2.0000      -0.417331       -11.3562
  62   2.0000      -0.407233       -11.0814
  63   2.0000      -0.345903        -9.4125
  64   2.0000      -0.331532        -9.0215
  65   2.0000      -0.323599        -8.8056
  66   2.0000      -0.288782        -7.8582
  67   0.0000       0.019266         0.5243
  68   0.0000       0.078408         2.1336
  69   0.0000       0.101086         2.7507
  70   0.0000       0.115989         3.1562
  71   0.0000       0.132316         3.6005

MULLIKEN ATOMIC CHARGES
-----------------------
   0 S :    0.095081
   1 C :   -0.122918
   2 C :   -0.062380
   3 C :   -0.008674
   4 C :   -0.130601
   5 H :    0.020449
   6 C :    0.053854
   7 H :    0.024450
   8 H :    0.035928
   9 C :   -0.069911
  10 H :    0.023035
  11 H :    0.023632
  12 C :   -0.040320
  13 H :    0.030937
  14 H :    0.039717
  15 H :    0.015701
  16 S :    0.081695
  17 C :   -0.057419
  18 C :   -0.049003
  19 C :   -0.030568
  20 C :   -0.140428
  21 H :    0.033329
  22 C :    0.094754
  23 H :    0.021881
  24 H :    0.039485
  25 C :   -0.107428
  26 H :    0.018905
  27 H :    0.036592
  28 C :   -0.044955
  29 H :    0.021242
  30 H :    0.031924
  31 H :    0.052361
  32 H :    0.037500
  33 H :    0.032152
Sum of atomic charges:   -0.0000000

LOEWDIN ATOMIC CHARGES
----------------------
   0 S :    0.398214
   1 C :   -0.186235
   2 C :   -0.057967
   3 C :   -0.072461
   4 C :   -0.197609
   5 H :    0.025343
   6 C :   -0.035272
   7 H :    0.031873
   8 H :    0.040150
   9 C :   -0.027970
  10 H :    0.019808
  11 H :    0.016478
  12 C :   -0.064359
  13 H :    0.025609
  14 H :    0.026930
  15 H :    0.021885
  16 S :    0.380055
  17 C :   -0.165784
  18 C :   -0.073396
  19 C :   -0.048772
  20 C :   -0.182627
  21 H :    0.041023
  22 C :   -0.035297
  23 H :    0.033318
  24 H :    0.034798
  25 C :   -0.043317
  26 H :    0.013801
  27 H :    0.029725
  28 C :   -0.065767
  29 H :    0.019827
  30 H :    0.027806
  31 H :    0.036635
  32 H :    0.020328
  33 H :    0.013230

  Mayer bond orders larger than 0.100000
B(  0-S ,  1-C ) :   1.1120 B(  0-S ,  4-C ) :   1.1720 B(  1-C ,  2-C ) :   1.5942
B(  1-C , 32-H ) :   0.9768 B(  2-C ,  3-C ) :   1.2401 B(  2-C ,  6-C ) :   1.0552
B(  3-C ,  4-C ) :   1.5188 B(  3-C ,  5-H ) :   0.9897 B(  4-C , 20-C ) :   1.0766
B(  6-C ,  7-H ) :   0.9438 B(  6-C ,  8-H ) :   0.9274 B(  6-C ,  9-C ) :   1.0566
B(  9-C , 10-H ) :   0.9580 B(  9-C , 11-H ) :   0.9544 B(  9-C , 12-C ) :   1.0926
B( 12-C , 13-H ) :   0.9739 B( 12-C , 14-H ) :   0.9759 B( 12-C , 15-H ) :   0.9725
B( 16-S , 17-C ) :   1.1414 B( 16-S , 20-C ) :   1.1178 B( 17-C , 18-C ) :   1.6554
B( 17-C , 33-H ) :   0.9654 B( 18-C , 19-C ) :   1.2103 B( 18-C , 21-H ) :   0.9852
B( 19-C , 20-C ) :   1.5957 B( 19-C , 22-C ) :   1.0480 B( 22-C , 23-H ) :   0.9205
B( 22-C , 24-H ) :   0.9288 B( 22-C , 25-C ) :   1.0525 B( 25-C , 26-H ) :   0.9579
B( 25-C , 27-H ) :   0.9570 B( 25-C , 28-C ) :   1.0741 B( 28-C , 29-H ) :   0.9752
B( 28-C , 30-H ) :   0.9758 B( 28-C , 31-H ) :   0.9738

Dispersion correction           -0.013409034
FINAL SINGLE POINT ENERGY     -1339.864944981558

DIPOLE MOMENT
-------------
                                X             Y             Z
Electronic contribution:      4.92694     -11.05580      -0.80735
Nuclear contribution   :     -4.99580      11.27893       0.66758
                        -----------------------------------------
Total Dipole Moment    :     -0.06886       0.22313      -0.13978
                        -----------------------------------------
Magnitude (a.u.)       :      0.27215
Magnitude (Debye)      :      0.69175

Rotational constants in cm-1:     0.023180     0.007061     0.005820
Rotational constants in MHz :   694.914484   211.668749   174.482111

                             ****ORCA TERMINATED NORMALLY****
TOTAL RUN TIME: 0 days 0 hours 0 minutes 31 seconds 855 msec
