                         Program Version 4.2.1 -  RELEASE  -
|  1> ! wB97X-D3 SP def2-SVP
|  2> %pal
|  3> nprocs 16
|  4> end
|  5>
|  6> * xyz 0 1
|  7> S 	 -4.08253 	 -24.3527 	 59.898
|  8> C 	 -4.74 	 -22.8135 	 60.294
|  9> C 	 -4.31737 	 -21.8116 	 59.4744
| 10> C 	 -3.52629 	 -22.3264 	 58.4231
| 11> C 	 -3.34918 	 -23.666 	 58.4428
| 12> H 	 -3.00418 	 -21.7678 	 57.6615
| 13> C 	 -4.42432 	 -20.2695 	 59.5581
| 14> H 	 -3.51285 	 -19.886 	 59.8252
| 15> H 	 -5.02268 	 -20.076 	 60.386
| 16> C 	 -4.9516 	 -19.5019 	 58.356
| 17> H 	 -4.85075 	 -18.4736 	 58.4477
| 18> H 	 -4.26891 	 -19.7711 	 57.5572
| 19> C 	 -6.32274 	 -19.7575 	 57.8135
| 20> H 	 -6.5734 	 -19.2753 	 56.8534
| 21> H 	 -6.41386 	 -20.8188 	 57.6102
| 22> H 	 -7.0906 	 -19.5621 	 58.5153
| 23> S 	 -1.36372 	 -25.4513 	 58.0729
| 24> C 	 -1.08189 	 -26.0955 	 56.4645
| 25> C 	 -2.00857 	 -25.7358 	 55.5798
| 26> C 	 -2.93879 	 -24.7991 	 56.1169
| 27> C 	 -2.71599 	 -24.489 	 57.4636
| 28> H 	 -1.99973 	 -26.1097 	 54.5519
| 29> C 	 -4.0018 	 -24.2085 	 55.2206
| 30> H 	 -4.85866 	 -23.9827 	 55.837
| 31> H 	 -4.37114 	 -24.9929 	 54.5427
| 32> C 	 -3.55625 	 -22.9798 	 54.2984
| 33> H 	 -2.83136 	 -23.2947 	 53.6352
| 34> H 	 -3.35585 	 -22.1539 	 54.9665
| 35> C 	 -4.79469 	 -22.5046 	 53.5272
| 36> H 	 -5.61139 	 -22.2304 	 54.2799
| 37> H 	 -5.18789 	 -23.2336 	 52.7881
| 38> H 	 -4.48052 	 -21.5872 	 52.9675
| 39> H 	 -5.3176 	 -22.538 	 61.1841
| 40> H 	 -0.269624 	 -26.7746 	 56.2624
| 41> *
| 42>
| 43>                          ****END OF INPUT****

CARTESIAN COORDINATES (ANGSTROEM)
---------------------------------
  S     -4.082530  -24.352700   59.898000
  C     -4.740000  -22.813500   60.294000
  C     -4.317370  -21.811600   59.474400
  C     -3.526290  -22.326400   58.423100
  C     -3.349180  -23.666000   58.442800
  H     -3.004180  -21.767800   57.661500
  C     -4.424320  -20.269500   59.558100
  H     -3.512850  -19.886000   59.825200
  H     -5.022680  -20.076000   60.386000
  C     -4.951600  -19.501900   58.356000
  H     -4.850750  -18.473600   58.447700
  H     -4.268910  -19.771100   57.557200
  C     -6.322740  -19.757500   57.813500
  H     -6.573400  -19.275300   56.853400
  H     -6.413860  -20.818800   57.610200
  H     -7.090600  -19.562100   58.515300
  S     -1.363720  -25.451300   58.072900
  C     -1.081890  -26.095500   56.464500
  C     -2.008570  -25.735800   55.579800
  C     -2.938790  -24.799100   56.116900
  C     -2.715990  -24.489000   57.463600
  H     -1.999730  -26.109700   54.551900
  C     -4.001800  -24.208500   55.220600
  H     -4.858660  -23.982700   55.837000
  H     -4.371140  -24.992900   54.542700
  C     -3.556250  -22.979800   54.298400
  H     -2.831360  -23.294700   53.635200
  H     -3.355850  -22.153900   54.966500
  C     -4.794690  -22.504600   53.527200
  H     -5.611390  -22.230400   54.279900
  H     -5.187890  -23.233600   52.788100
  H     -4.480520  -21.587200   52.967500
  H     -5.317600  -22.538000   61.184100
  H     -0.269624  -26.774600   56.262400

 Total Charge           Charge          ....    0
 Multiplicity           Mult            ....    1
 Number of Electrons    NEL             ....  134
 Basis Dimension        Dim             ....  322

ORBITAL ENERGIES
----------------

  NO   OCC          E(Eh)            E(eV)
   0   2.0000     -88.966240     -2420.8945
   1   2.0000     -88.960111     -2420.7277
   2   2.0000     -10.324329      -280.9393
   3   2.0000     -10.322994      -280.9029
   4   2.0000     -10.312925      -280.6290
   5   2.0000     -10.312000      -280.6038
   6   2.0000     -10.303527      -280.3732
   7   2.0000     -10.297370      -280.2057
   8   2.0000     -10.289802      -279.9997
   9   2.0000     -10.288760      -279.9714
  10   2.0000     -10.287213      -279.9293
  11   2.0000     -10.285894      -279.8934
  12   2.0000     -10.285883      -279.8931
  13   2.0000     -10.284329      -279.8508
  14   2.0000     -10.278167      -279.6832
  15   2.0000     -10.270163      -279.4653
  16   2.0000      -8.081344      -219.9045
  17   2.0000      -8.075123      -219.7353
  18   2.0000      -6.039857      -164.3529
  19   2.0000      -6.035911      -164.2455
  20   2.0000      -6.033612      -164.1829
  21   2.0000      -6.031946      -164.1376
  22   2.0000      -6.029667      -164.0756
  23   2.0000      -6.025817      -163.9708
  24   2.0000      -1.011185       -27.5157
  25   2.0000      -0.987991       -26.8846
  26   2.0000      -0.917265       -24.9601
  27   2.0000      -0.903874       -24.5957
  28   2.0000      -0.877803       -23.8862
  29   2.0000      -0.852969       -23.2105
  30   2.0000      -0.848301       -23.0834
  31   2.0000      -0.819463       -22.2987
  32   2.0000      -0.790296       -21.5050
  33   2.0000      -0.766057       -20.8455
  34   2.0000      -0.711219       -19.3533
  35   2.0000      -0.700684       -19.0666
  36   2.0000      -0.694413       -18.8959
  37   2.0000      -0.661545       -18.0015
  38   2.0000      -0.643740       -17.5170
  39   2.0000      -0.625952       -17.0330
  40   2.0000      -0.596209       -16.2237
  41   2.0000      -0.575379       -15.6568
  42   2.0000      -0.568028       -15.4568
  43   2.0000      -0.555489       -15.1156
  44   2.0000      -0.548450       -14.9241
  45   2.0000      -0.521472       -14.1900
  46   2.0000      -0.518914       -14.1204
  47   2.0000      -0.510991       -13.9048
  48   2.0000      -0.506175       -13.7737
  49   2.0000      -0.500635       -13.6230
  50   2.0000      -0.488945       -13.3049
  51   2.0000      -0.480382       -13.0719
  52   2.0000      -0.473298       -12.8791
  53   2.0000      -0.459543       -12.5048
  54   2.0000      -0.455821       -12.4035
  55   2.0000      -0.449474       -12.2308
  56   2.0000      -0.447330       -12.1725
  57   2.0000      -0.442461       -12.0400
  58   2.0000      -0.438678       -11.9370
  59   2.0000      -0.424419       -11.5490
  60   2.0000      -0.422794       -11.5048
  61   2.0000      -0.416788       -11.3414
  62   2.0000      -0.411371       -11.1940
  63   2.0000      -0.347496        -9.4558
  64   2.0000      -0.334090        -9.0910
  65   2.0000      -0.327630        -8.9153
  66   2.0000      -0.296205        -8.0602
  67   0.0000       0.037274         1.0143
  68   0.0000       0.065578         1.7845
  69   0.0000       0.110770         3.0142
  70   0.0000       0.118474         3.2238
  71   0.0000       0.132543         3.6067

MULLIKEN ATOMIC CHARGES
-----------------------
   0 S :    0.124962
   1 C :   -0.119379
   2 C :   -0.102308
   3 C :    0.010511
   4 C :   -0.146764
   5 H :    0.014026
   6 C :    0.170408
   7 H :    0.015859
   8 H :   -0.017053
   9 C :   -0.059774
  10 H :    0.014581
  11 H :    0.010615
  12 C :   -0.035628
  13 H :    0.036605
  14 H :    0.022023
  15 H :    0.017859
  16 S :    0.083373
  17 C :   -0.073117
  18 C :   -0.029215
  19 C :   -0.005750
  20 C :   -0.179052
  21 H :    0.023010
  22 C :    0.021680
  23 H :    0.023639
  24 H :    0.017385
  25 C :   -0.013954
  26 H :    0.021628
  27 H :    0.032202
  28 C :   -0.098872
  29 H :    0.044280
  30 H :    0.039496
  31 H :    0.041806
  32 H :    0.044663
  33 H :    0.050258
Sum of atomic charges:   -0.0000000

LOEWDIN ATOMIC CHARGES
----------------------
   0 S :    0.408035
   1 C :   -0.204542
   2 C :   -0.066398
   3 C :   -0.060237
   4 C :   -0.193499
   5 H :    0.030666
   6 C :   -0.011522
   7 H :    0.027086
   8 H :    0.017326
   9 C :   -0.038525
  10 H :    0.017895
  11 H :    0.021911
  12 C :   -0.063561
  13 H :    0.031740
  14 H :    0.024848
  15 H :    0.017190
  16 S :    0.386012
  17 C :   -0.169698
  18 C :   -0.076688
  19 C :   -0.050696
  20 C :   -0.195708
  21 H :    0.037574
  22 C :   -0.034621
  23 H :    0.027494
  24 H :    0.029658
  25 C :   -0.022717
  26 H :    0.014127
  27 H :    0.025777
  28 C :   -0.073887
  29 H :    0.032739
  30 H :    0.023623
  31 H :    0.028534
  32 H :    0.033479
  33 H :    0.026584

  Mayer bond orders larger than 0.100000
B(  0-S ,  1-C ) :   1.1383 B(  0-S ,  4-C ) :   1.1254 B(  1-C ,  2-C ) :   1.6544
B(  1-C , 32-H ) :   0.9542 B(  2-C ,  3-C ) :   1.2068 B(  2-C ,  6-C ) :   1.0071
B(  3-C ,  4-C ) :   1.6204 B(  3-C ,  5-H ) :   0.9988 B(  4-C , 20-C ) :   1.0431
B(  6-C ,  7-H ) :   0.9338 B(  6-C ,  8-H ) :   0.9262 B(  6-C ,  9-C ) :   1.0757
B(  9-C , 10-H ) :   0.9511 B(  9-C , 11-H ) :   0.9505 B(  9-C , 12-C ) :   1.0872
B( 12-C , 13-H ) :   0.9717 B( 12-C , 14-H ) :   0.9710 B( 12-C , 15-H ) :   0.9734
B( 16-S , 17-C ) :   1.1442 B( 16-S , 20-C ) :   1.1263 B( 17-C , 18-C ) :   1.6365
B( 17-C , 33-H ) :   0.9656 B( 18-C , 19-C ) :   1.2159 B( 18-C , 21-H ) :   0.9912
B( 19-C , 20-C ) :   1.6089 B( 19-C , 22-C ) :   1.0554 B( 22-C , 23-H ) :   0.9342
B( 22-C , 24-H ) :   0.9359 B( 22-C , 25-C ) :   1.0629 B( 25-C , 26-H ) :   0.9561
B( 25-C , 27-H ) :   0.9545 B( 25-C , 28-C ) :   1.0838 B( 28-C , 29-H ) :   0.9742
B( 28-C , 30-H ) :   0.9751 B( 28-C , 31-H ) :   0.9739

Dispersion correction           -0.014527256
FINAL SINGLE POINT ENERGY     -1339.872500263451

DIPOLE MOMENT
-------------
                                X             Y             Z
Electronic contribution:     14.23669     -22.22000      17.72403
Nuclear contribution   :    -14.32746      22.67350     -18.19380
                        -----------------------------------------
Total Dipole Moment    :     -0.09078       0.45350      -0.46977
                        -----------------------------------------
Magnitude (a.u.)       :      0.65923
Magnitude (Debye)      :      1.67563

Rotational constants in cm-1:     0.016509     0.010414     0.007026
Rotational constants in MHz :   494.940672   312.193847   210.644396

                             ****ORCA TERMINATED NORMALLY****
TOTAL RUN TIME: 0 days 0 hours 0 minutes 35 seconds 895 msec
