                         Program Version 4.2.1 -  RELEASE  -
|  1> ! wB97X-D3 SP def2-SVP
|  2> %pal
|  3> nprocs 16
|  4> end
|  5>
|  6> * xyz 0 1
|  7> S 	 0.923325 	 4.13214 	 81.7233
|  8> C 	 1.21285 	 2.48241 	 81.3192
|  9> C 	 0.034146 	 1.75063 	 81.3488
| 10> C 	 -1.04211 	 2.49256 	 81.8264
| 11> C 	 -0.780368 	 3.83542 	 81.8505
| 12> H 	 -2.01297 	 2.07745 	 82.0219
| 13> C 	 -0.00141954 	 0.18749 	 81.1924
| 14> H 	 0.102861 	 -0.260808 	 82.1925
| 15> H 	 0.798747 	 -0.00990562 	 80.5508
| 16> C 	 -1.25994 	 -0.285974 	 80.4867
| 17> H 	 -2.08611 	 0.167675 	 81.0587
| 18> H 	 -1.26698 	 0.0388708 	 79.4335
| 19> C 	 -1.3085 	 -1.88502 	 80.4589
| 20> H 	 -1.44575 	 -2.3149 	 81.4246
| 21> H 	 -2.09967 	 -2.37461 	 79.781
| 22> H 	 -0.329685 	 -2.1536 	 80.0341
| 23> S 	 -1.04621 	 5.98868 	 83.4628
| 24> C 	 -2.49414 	 6.84816 	 83.6147
| 25> C 	 -3.49545 	 6.35885 	 82.8368
| 26> C 	 -3.0686 	 5.15556 	 82.0874
| 27> C 	 -1.70203 	 4.90628 	 82.3075
| 28> H 	 -4.47006 	 6.78974 	 83.0038
| 29> C 	 -4.02959 	 4.40554 	 81.2053
| 30> H 	 -3.4376 	 3.64037 	 80.6279
| 31> H 	 -4.62449 	 4.96299 	 80.4858
| 32> C 	 -5.06882 	 3.65249 	 82.0981
| 33> H 	 -5.92791 	 4.30012 	 82.3589
| 34> H 	 -4.67861 	 3.41744 	 83.1044
| 35> C 	 -5.6779 	 2.42539 	 81.4932
| 36> H 	 -6.37342 	 2.79272 	 80.7721
| 37> H 	 -6.25893 	 1.86507 	 82.1832
| 38> H 	 -4.92235 	 1.71808 	 81.1118
| 39> H 	 2.12813 	 1.98565 	 80.9328
| 40> H 	 -2.57051 	 7.69862 	 84.3129
| 41> *
| 42>
| 43>                          ****END OF INPUT****

CARTESIAN COORDINATES (ANGSTROEM)
---------------------------------
  S      0.923325    4.132140   81.723300
  C      1.212850    2.482410   81.319200
  C      0.034146    1.750630   81.348800
  C     -1.042110    2.492560   81.826400
  C     -0.780368    3.835420   81.850500
  H     -2.012970    2.077450   82.021900
  C     -0.001420    0.187490   81.192400
  H      0.102861   -0.260808   82.192500
  H      0.798747   -0.009906   80.550800
  C     -1.259940   -0.285974   80.486700
  H     -2.086110    0.167675   81.058700
  H     -1.266980    0.038871   79.433500
  C     -1.308500   -1.885020   80.458900
  H     -1.445750   -2.314900   81.424600
  H     -2.099670   -2.374610   79.781000
  H     -0.329685   -2.153600   80.034100
  S     -1.046210    5.988680   83.462800
  C     -2.494140    6.848160   83.614700
  C     -3.495450    6.358850   82.836800
  C     -3.068600    5.155560   82.087400
  C     -1.702030    4.906280   82.307500
  H     -4.470060    6.789740   83.003800
  C     -4.029590    4.405540   81.205300
  H     -3.437600    3.640370   80.627900
  H     -4.624490    4.962990   80.485800
  C     -5.068820    3.652490   82.098100
  H     -5.927910    4.300120   82.358900
  H     -4.678610    3.417440   83.104400
  C     -5.677900    2.425390   81.493200
  H     -6.373420    2.792720   80.772100
  H     -6.258930    1.865070   82.183200
  H     -4.922350    1.718080   81.111800
  H      2.128130    1.985650   80.932800
  H     -2.570510    7.698620   84.312900

 Total Charge           Charge          ....    0
 Multiplicity           Mult            ....    1
 Number of Electrons    NEL             ....  134
 Basis Dimension        Dim             ....  322

ORBITAL ENERGIES
----------------

  NO   OCC          E(Eh)            E(eV)
   0   2.0000     -88.970004     -2420.9969
   1   2.0000     -88.961119     -2420.7551
   2   2.0000     -10.328850      -281.0623
   3   2.0000     -10.326965      -281.0110
   4   2.0000     -10.312933      -280.6292
   5   2.0000     -10.311318      -280.5852
   6   2.0000     -10.311083      -280.5788
   7   2.0000     -10.296918      -280.1934
   8   2.0000     -10.296211      -280.1742
   9   2.0000     -10.293448      -280.0990
  10   2.0000     -10.293123      -280.0901
  11   2.0000     -10.291559      -280.0476
  12   2.0000     -10.287938      -279.9490
  13   2.0000     -10.287817      -279.9457
  14   2.0000     -10.285069      -279.8710
  15   2.0000     -10.271941      -279.5137
  16   2.0000      -8.085140      -220.0079
  17   2.0000      -8.078049      -219.8149
  18   2.0000      -6.043579      -164.4541
  19   2.0000      -6.039639      -164.3469
  20   2.0000      -6.036445      -164.2600
  21   2.0000      -6.035899      -164.2452
  22   2.0000      -6.032189      -164.1442
  23   2.0000      -6.028858      -164.0536
  24   2.0000      -1.015053       -27.6210
  25   2.0000      -0.992330       -27.0027
  26   2.0000      -0.911437       -24.8014
  27   2.0000      -0.909762       -24.7559
  28   2.0000      -0.868367       -23.6295
  29   2.0000      -0.855401       -23.2766
  30   2.0000      -0.846120       -23.0241
  31   2.0000      -0.816300       -22.2127
  32   2.0000      -0.781881       -21.2761
  33   2.0000      -0.770530       -20.9672
  34   2.0000      -0.707845       -19.2614
  35   2.0000      -0.693496       -18.8710
  36   2.0000      -0.685565       -18.6552
  37   2.0000      -0.658726       -17.9248
  38   2.0000      -0.633440       -17.2368
  39   2.0000      -0.629224       -17.1220
  40   2.0000      -0.600359       -16.3366
  41   2.0000      -0.575237       -15.6530
  42   2.0000      -0.569376       -15.4935
  43   2.0000      -0.562437       -15.3047
  44   2.0000      -0.525037       -14.2870
  45   2.0000      -0.522174       -14.2091
  46   2.0000      -0.515165       -14.0184
  47   2.0000      -0.508162       -13.8278
  48   2.0000      -0.504660       -13.7325
  49   2.0000      -0.498981       -13.5780
  50   2.0000      -0.495595       -13.4858
  51   2.0000      -0.482178       -13.1207
  52   2.0000      -0.476384       -12.9631
  53   2.0000      -0.466205       -12.6861
  54   2.0000      -0.462369       -12.5817
  55   2.0000      -0.452936       -12.3250
  56   2.0000      -0.442023       -12.0280
  57   2.0000      -0.436493       -11.8776
  58   2.0000      -0.428431       -11.6582
  59   2.0000      -0.426903       -11.6166
  60   2.0000      -0.422954       -11.5092
  61   2.0000      -0.414248       -11.2723
  62   2.0000      -0.413184       -11.2433
  63   2.0000      -0.354752        -9.6533
  64   2.0000      -0.335770        -9.1368
  65   2.0000      -0.325855        -8.8670
  66   2.0000      -0.289378        -7.8744
  67   0.0000       0.032255         0.8777
  68   0.0000       0.080417         2.1883
  69   0.0000       0.111207         3.0261
  70   0.0000       0.118653         3.2287
  71   0.0000       0.127844         3.4788

MULLIKEN ATOMIC CHARGES
-----------------------
   0 S :    0.120018
   1 C :   -0.123940
   2 C :   -0.116549
   3 C :    0.025996
   4 C :   -0.130347
   5 H :    0.007567
   6 C :    0.094825
   7 H :    0.054565
   8 H :    0.001835
   9 C :   -0.118133
  10 H :    0.034505
  11 H :    0.042976
  12 C :   -0.062051
  13 H :    0.031824
  14 H :    0.047985
  15 H :    0.029174
  16 S :    0.102857
  17 C :   -0.103023
  18 C :   -0.024292
  19 C :   -0.054763
  20 C :   -0.136450
  21 H :    0.020386
  22 C :    0.077128
  23 H :    0.029754
  24 H :    0.035763
  25 C :   -0.129495
  26 H :    0.026092
  27 H :    0.032470
  28 C :   -0.017259
  29 H :    0.024118
  30 H :    0.020529
  31 H :    0.033817
  32 H :    0.056900
  33 H :    0.065217
Sum of atomic charges:   -0.0000000

LOEWDIN ATOMIC CHARGES
----------------------
   0 S :    0.427562
   1 C :   -0.218176
   2 C :   -0.065910
   3 C :   -0.065752
   4 C :   -0.192948
   5 H :    0.027207
   6 C :   -0.022251
   7 H :    0.037657
   8 H :    0.018273
   9 C :   -0.041549
  10 H :    0.018708
  11 H :    0.029889
  12 C :   -0.070392
  13 H :    0.017925
  14 H :    0.034363
  15 H :    0.025283
  16 S :    0.433734
  17 C :   -0.203574
  18 C :   -0.074555
  19 C :   -0.050914
  20 C :   -0.209261
  21 H :    0.032457
  22 C :   -0.032174
  23 H :    0.033582
  24 H :    0.032841
  25 C :   -0.048872
  26 H :    0.024644
  27 H :    0.021619
  28 C :   -0.062774
  29 H :    0.023711
  30 H :    0.022854
  31 H :    0.024926
  32 H :    0.038278
  33 H :    0.033592

  Mayer bond orders larger than 0.100000
B(  0-S ,  1-C ) :   1.1449 B(  0-S ,  4-C ) :   1.1688 B(  1-C ,  2-C ) :   1.6038
B(  1-C ,  4-C ) :   0.1001 B(  1-C , 32-H ) :   0.9598 B(  2-C ,  3-C ) :   1.2733
B(  2-C ,  6-C ) :   1.0107 B(  3-C ,  4-C ) :   1.5528 B(  3-C ,  5-H ) :   0.9873
B(  4-C , 20-C ) :   1.0179 B(  6-C ,  7-H ) :   0.9472 B(  6-C ,  8-H ) :   0.9331
B(  6-C ,  9-C ) :   1.0622 B(  9-C , 10-H ) :   0.9593 B(  9-C , 11-H ) :   0.9592
B(  9-C , 12-C ) :   1.0659 B( 12-C , 13-H ) :   0.9791 B( 12-C , 14-H ) :   0.9780
B( 12-C , 15-H ) :   0.9743 B( 16-S , 17-C ) :   1.1655 B( 16-S , 20-C ) :   1.1570
B( 17-C , 18-C ) :   1.6292 B( 17-C , 33-H ) :   0.9631 B( 18-C , 19-C ) :   1.2011
B( 18-C , 21-H ) :   0.9941 B( 19-C , 20-C ) :   1.6072 B( 19-C , 22-C ) :   1.0620
B( 22-C , 23-H ) :   0.9430 B( 22-C , 24-H ) :   0.9377 B( 22-C , 25-C ) :   1.0280
B( 25-C , 26-H ) :   0.9516 B( 25-C , 27-H ) :   0.9635 B( 25-C , 28-C ) :   1.0977
B( 28-C , 29-H ) :   0.9715 B( 28-C , 30-H ) :   0.9701 B( 28-C , 31-H ) :   0.9744

Dispersion correction           -0.014033088
FINAL SINGLE POINT ENERGY     -1339.875024854189

DIPOLE MOMENT
-------------
                                X             Y             Z
Electronic contribution:     19.16212      25.93253       8.70624
Nuclear contribution   :    -19.64477     -26.37604      -8.69743
                        -----------------------------------------
Total Dipole Moment    :     -0.48265      -0.44351       0.00881
                        -----------------------------------------
Magnitude (a.u.)       :      0.65553
Magnitude (Debye)      :      1.66624

Rotational constants in cm-1:     0.016996     0.009700     0.006434
Rotational constants in MHz :   509.515607   290.798032   192.877161

                             ****ORCA TERMINATED NORMALLY****
TOTAL RUN TIME: 0 days 0 hours 0 minutes 34 seconds 593 msec
