                         Program Version 4.2.1 -  RELEASE  -
|  1> ! wB97X-D3 SP def2-SVP
|  2> %pal
|  3> nprocs 16
|  4> end
|  5>
|  6> * xyz 0 1
|  7> S 	 -48.3049 	 61.8521 	 140.409
|  8> C 	 -47.2051 	 60.6081 	 140.766
|  9> C 	 -47.8444 	 59.5151 	 141.376
| 10> C 	 -49.1169 	 59.8793 	 141.77
| 11> C 	 -49.5263 	 61.0924 	 141.399
| 12> H 	 -49.6549 	 59.1917 	 142.419
| 13> C 	 -47.2554 	 58.2166 	 141.807
| 14> H 	 -46.383 	 58.0776 	 141.109
| 15> H 	 -48.0306 	 57.4853 	 141.689
| 16> C 	 -46.7703 	 58.176 	 143.248
| 17> H 	 -45.8796 	 58.7818 	 143.162
| 18> H 	 -47.3511 	 58.7779 	 143.877
| 19> C 	 -46.4881 	 56.8033 	 143.738
| 20> H 	 -47.4173 	 56.2782 	 143.908
| 21> H 	 -45.7511 	 56.2916 	 143.102
| 22> H 	 -46.0858 	 56.9325 	 144.72
| 23> S 	 -50.6793 	 63.0112 	 142.916
| 24> C 	 -52.4254 	 63.2332 	 142.863
| 25> C 	 -52.9732 	 62.3184 	 141.976
| 26> C 	 -52.0284 	 61.5169 	 141.317
| 27> C 	 -50.7396 	 61.6732 	 141.759
| 28> H 	 -54.0355 	 62.3338 	 141.775
| 29> C 	 -52.5073 	 60.4318 	 140.345
| 30> H 	 -51.6931 	 59.9724 	 139.775
| 31> H 	 -53.1349 	 60.9835 	 139.628
| 32> C 	 -53.3461 	 59.3004 	 140.973
| 33> H 	 -54.0559 	 59.8046 	 141.607
| 34> H 	 -52.639 	 58.7581 	 141.568
| 35> C 	 -53.8406 	 58.1733 	 140.087
| 36> H 	 -54.1999 	 57.3243 	 140.741
| 37> H 	 -53.1665 	 57.8819 	 139.262
| 38> H 	 -54.7061 	 58.4626 	 139.539
| 39> H 	 -46.1579 	 60.587 	 140.416
| 40> H 	 -53.0365 	 63.9557 	 143.376
| 41> *
| 42>
| 43>                          ****END OF INPUT****

CARTESIAN COORDINATES (ANGSTROEM)
---------------------------------
  S    -48.304900   61.852100  140.409000
  C    -47.205100   60.608100  140.766000
  C    -47.844400   59.515100  141.376000
  C    -49.116900   59.879300  141.770000
  C    -49.526300   61.092400  141.399000
  H    -49.654900   59.191700  142.419000
  C    -47.255400   58.216600  141.807000
  H    -46.383000   58.077600  141.109000
  H    -48.030600   57.485300  141.689000
  C    -46.770300   58.176000  143.248000
  H    -45.879600   58.781800  143.162000
  H    -47.351100   58.777900  143.877000
  C    -46.488100   56.803300  143.738000
  H    -47.417300   56.278200  143.908000
  H    -45.751100   56.291600  143.102000
  H    -46.085800   56.932500  144.720000
  S    -50.679300   63.011200  142.916000
  C    -52.425400   63.233200  142.863000
  C    -52.973200   62.318400  141.976000
  C    -52.028400   61.516900  141.317000
  C    -50.739600   61.673200  141.759000
  H    -54.035500   62.333800  141.775000
  C    -52.507300   60.431800  140.345000
  H    -51.693100   59.972400  139.775000
  H    -53.134900   60.983500  139.628000
  C    -53.346100   59.300400  140.973000
  H    -54.055900   59.804600  141.607000
  H    -52.639000   58.758100  141.568000
  C    -53.840600   58.173300  140.087000
  H    -54.199900   57.324300  140.741000
  H    -53.166500   57.881900  139.262000
  H    -54.706100   58.462600  139.539000
  H    -46.157900   60.587000  140.416000
  H    -53.036500   63.955700  143.376000

 Total Charge           Charge          ....    0
 Multiplicity           Mult            ....    1
 Number of Electrons    NEL             ....  134
 Basis Dimension        Dim             ....  322

ORBITAL ENERGIES
----------------

  NO   OCC          E(Eh)            E(eV)
   0   2.0000     -88.965321     -2420.8695
   1   2.0000     -88.961613     -2420.7685
   2   2.0000     -10.318366      -280.7770
   3   2.0000     -10.317931      -280.7652
   4   2.0000     -10.314262      -280.6653
   5   2.0000     -10.313338      -280.6402
   6   2.0000     -10.298831      -280.2454
   7   2.0000     -10.290234      -280.0115
   8   2.0000     -10.289854      -280.0012
   9   2.0000     -10.289358      -279.9877
  10   2.0000     -10.287763      -279.9443
  11   2.0000     -10.281817      -279.7825
  12   2.0000     -10.280651      -279.7507
  13   2.0000     -10.280486      -279.7462
  14   2.0000     -10.275355      -279.6066
  15   2.0000     -10.274530      -279.5842
  16   2.0000      -8.081143      -219.8991
  17   2.0000      -8.076067      -219.7610
  18   2.0000      -6.039463      -164.3421
  19   2.0000      -6.035557      -164.2359
  20   2.0000      -6.034605      -164.2099
  21   2.0000      -6.031972      -164.1383
  22   2.0000      -6.030492      -164.0980
  23   2.0000      -6.026917      -164.0008
  24   2.0000      -1.016797       -27.6685
  25   2.0000      -0.988378       -26.8951
  26   2.0000      -0.922534       -25.1034
  27   2.0000      -0.906452       -24.6658
  28   2.0000      -0.878222       -23.8976
  29   2.0000      -0.860506       -23.4155
  30   2.0000      -0.849347       -23.1119
  31   2.0000      -0.815865       -22.2008
  32   2.0000      -0.782824       -21.3017
  33   2.0000      -0.769890       -20.9498
  34   2.0000      -0.708764       -19.2864
  35   2.0000      -0.703310       -19.1380
  36   2.0000      -0.694893       -18.9090
  37   2.0000      -0.663372       -18.0513
  38   2.0000      -0.643065       -17.4987
  39   2.0000      -0.629772       -17.1370
  40   2.0000      -0.594975       -16.1901
  41   2.0000      -0.572877       -15.5888
  42   2.0000      -0.566604       -15.4181
  43   2.0000      -0.562667       -15.3109
  44   2.0000      -0.533639       -14.5210
  45   2.0000      -0.526271       -14.3206
  46   2.0000      -0.519303       -14.1310
  47   2.0000      -0.513389       -13.9700
  48   2.0000      -0.511166       -13.9095
  49   2.0000      -0.500524       -13.6200
  50   2.0000      -0.496620       -13.5137
  51   2.0000      -0.476132       -12.9562
  52   2.0000      -0.473679       -12.8895
  53   2.0000      -0.464520       -12.6402
  54   2.0000      -0.462361       -12.5815
  55   2.0000      -0.452165       -12.3040
  56   2.0000      -0.447402       -12.1744
  57   2.0000      -0.435851       -11.8601
  58   2.0000      -0.428288       -11.6543
  59   2.0000      -0.426825       -11.6145
  60   2.0000      -0.422488       -11.4965
  61   2.0000      -0.414465       -11.2782
  62   2.0000      -0.404943       -11.0191
  63   2.0000      -0.341665        -9.2972
  64   2.0000      -0.328698        -8.9443
  65   2.0000      -0.321070        -8.7368
  66   2.0000      -0.302728        -8.2376
  67   0.0000       0.038450         1.0463
  68   0.0000       0.060969         1.6591
  69   0.0000       0.115019         3.1298
  70   0.0000       0.125490         3.4148
  71   0.0000       0.131763         3.5854

MULLIKEN ATOMIC CHARGES
-----------------------
   0 S :    0.141304
   1 C :   -0.145067
   2 C :   -0.094572
   3 C :    0.027796
   4 C :   -0.153672
   5 H :    0.007750
   6 C :    0.061977
   7 H :    0.028826
   8 H :    0.013923
   9 C :   -0.057953
  10 H :    0.006533
  11 H :    0.011128
  12 C :    0.005600
  13 H :    0.030124
  14 H :    0.039585
  15 H :    0.023897
  16 S :    0.103637
  17 C :   -0.081018
  18 C :   -0.055561
  19 C :    0.006856
  20 C :   -0.191398
  21 H :    0.020325
  22 C :    0.059916
  23 H :    0.022408
  24 H :    0.021506
  25 C :   -0.058093
  26 H :    0.022817
  27 H :    0.017303
  28 C :   -0.042270
  29 H :    0.047724
  30 H :    0.037265
  31 H :    0.012930
  32 H :    0.055657
  33 H :    0.052819
Sum of atomic charges:   -0.0000000

LOEWDIN ATOMIC CHARGES
----------------------
   0 S :    0.433082
   1 C :   -0.214564
   2 C :   -0.071171
   3 C :   -0.052840
   4 C :   -0.212376
   5 H :    0.032963
   6 C :   -0.030626
   7 H :    0.035418
   8 H :    0.023769
   9 C :   -0.042091
  10 H :    0.024116
  11 H :    0.016455
  12 C :   -0.057827
  13 H :    0.025905
  14 H :    0.031366
  15 H :    0.027401
  16 S :    0.396232
  17 C :   -0.177113
  18 C :   -0.076605
  19 C :   -0.052114
  20 C :   -0.195206
  21 H :    0.030415
  22 C :   -0.028885
  23 H :    0.026761
  24 H :    0.027619
  25 C :   -0.042502
  26 H :    0.020897
  27 H :    0.022480
  28 C :   -0.069319
  29 H :    0.038100
  30 H :    0.032145
  31 H :    0.016166
  32 H :    0.031476
  33 H :    0.030473

  Mayer bond orders larger than 0.100000
B(  0-S ,  1-C ) :   1.1700 B(  0-S ,  4-C ) :   1.1409 B(  1-C ,  2-C ) :   1.5607
B(  1-C , 32-H ) :   0.9633 B(  2-C ,  3-C ) :   1.2828 B(  2-C ,  6-C ) :   1.0394
B(  3-C ,  4-C ) :   1.5640 B(  3-C ,  5-H ) :   0.9973 B(  4-C , 20-C ) :   1.0622
B(  6-C ,  7-H ) :   0.9348 B(  6-C ,  8-H ) :   0.9357 B(  6-C ,  9-C ) :   1.0602
B(  9-C , 10-H ) :   0.9437 B(  9-C , 11-H ) :   0.9570 B(  9-C , 12-C ) :   1.0903
B( 12-C , 13-H ) :   0.9716 B( 12-C , 14-H ) :   0.9706 B( 12-C , 15-H ) :   0.9668
B( 16-S , 17-C ) :   1.1586 B( 16-S , 20-C ) :   1.1271 B( 17-C , 18-C ) :   1.6029
B( 17-C , 20-C ) :   0.1077 B( 17-C , 33-H ) :   0.9687 B( 18-C , 19-C ) :   1.2431
B( 18-C , 21-H ) :   0.9853 B( 19-C , 20-C ) :   1.6084 B( 19-C , 22-C ) :   1.0458
B( 22-C , 23-H ) :   0.9336 B( 22-C , 24-H ) :   0.9314 B( 22-C , 25-C ) :   1.0673
B( 25-C , 26-H ) :   0.9554 B( 25-C , 27-H ) :   0.9557 B( 25-C , 28-C ) :   1.0772
B( 28-C , 29-H ) :   0.9742 B( 28-C , 30-H ) :   0.9704 B( 28-C , 31-H ) :   0.9721

Dispersion correction           -0.013857891
FINAL SINGLE POINT ENERGY     -1339.869148599754

DIPOLE MOMENT
-------------
                                X             Y             Z
Electronic contribution:      3.33581      26.61567      -1.34019
Nuclear contribution   :     -3.49041     -27.14816       1.40125
                        -----------------------------------------
Total Dipole Moment    :     -0.15460      -0.53248       0.06106
                        -----------------------------------------
Magnitude (a.u.)       :      0.55782
Magnitude (Debye)      :      1.41787

Rotational constants in cm-1:     0.016674     0.008513     0.006974
Rotational constants in MHz :   499.870406   255.221034   209.070400

                             ****ORCA TERMINATED NORMALLY****
TOTAL RUN TIME: 0 days 0 hours 0 minutes 34 seconds 628 msec
