                         Program Version 4.2.1 -  RELEASE  -
|  1> ! wB97X-D3 SP def2-SVP
|  2> %pal
|  3> nprocs 16
|  4> end
|  5>
|  6> * xyz 0 1
|  7> S 	 -72.2571 	 38.6888 	 113.765
|  8> C 	 -72.7953 	 38.6677 	 115.484
|  9> C 	 -72.1359 	 37.6431 	 116.175
| 10> C 	 -71.3129 	 36.8255 	 115.301
| 11> C 	 -71.1052 	 37.3473 	 114.028
| 12> H 	 -70.7561 	 35.9501 	 115.585
| 13> C 	 -72.1418 	 37.309 	 117.67
| 14> H 	 -72.1867 	 38.3041 	 118.148
| 15> H 	 -71.2459 	 36.8093 	 117.787
| 16> C 	 -73.2762 	 36.4041 	 118.036
| 17> H 	 -74.244 	 36.9552 	 118.049
| 18> H 	 -73.4521 	 35.6987 	 117.252
| 19> C 	 -73.1305 	 35.5831 	 119.301
| 20> H 	 -72.8763 	 36.1784 	 120.139
| 21> H 	 -74.0762 	 35.1677 	 119.626
| 22> H 	 -72.3614 	 34.807 	 119.025
| 23> S 	 -70.657 	 36.7298 	 111.411
| 24> C 	 -69.2751 	 35.6547 	 110.962
| 25> C 	 -68.3342 	 35.7534 	 111.957
| 26> C 	 -68.8387 	 36.2161 	 113.204
| 27> C 	 -70.1098 	 36.8242 	 113.076
| 28> H 	 -67.3814 	 35.3826 	 111.684
| 29> C 	 -67.9876 	 36.3741 	 114.416
| 30> H 	 -68.2499 	 35.4964 	 115.007
| 31> H 	 -68.4203 	 37.1923 	 115.03
| 32> C 	 -66.4606 	 36.4324 	 114.274
| 33> H 	 -66.0278 	 37.2674 	 113.793
| 34> H 	 -66.149 	 35.4918 	 113.834
| 35> C 	 -65.7163 	 36.5397 	 115.614
| 36> H 	 -64.6611 	 36.686 	 115.499
| 37> H 	 -65.9777 	 35.6876 	 116.225
| 38> H 	 -66.1492 	 37.4118 	 116.067
| 39> H 	 -73.4232 	 39.4105 	 115.978
| 40> H 	 -69.0121 	 35.4476 	 109.979
| 41> *
| 42>
| 43>                          ****END OF INPUT****

CARTESIAN COORDINATES (ANGSTROEM)
---------------------------------
  S    -72.257100   38.688800  113.765000
  C    -72.795300   38.667700  115.484000
  C    -72.135900   37.643100  116.175000
  C    -71.312900   36.825500  115.301000
  C    -71.105200   37.347300  114.028000
  H    -70.756100   35.950100  115.585000
  C    -72.141800   37.309000  117.670000
  H    -72.186700   38.304100  118.148000
  H    -71.245900   36.809300  117.787000
  C    -73.276200   36.404100  118.036000
  H    -74.244000   36.955200  118.049000
  H    -73.452100   35.698700  117.252000
  C    -73.130500   35.583100  119.301000
  H    -72.876300   36.178400  120.139000
  H    -74.076200   35.167700  119.626000
  H    -72.361400   34.807000  119.025000
  S    -70.657000   36.729800  111.411000
  C    -69.275100   35.654700  110.962000
  C    -68.334200   35.753400  111.957000
  C    -68.838700   36.216100  113.204000
  C    -70.109800   36.824200  113.076000
  H    -67.381400   35.382600  111.684000
  C    -67.987600   36.374100  114.416000
  H    -68.249900   35.496400  115.007000
  H    -68.420300   37.192300  115.030000
  C    -66.460600   36.432400  114.274000
  H    -66.027800   37.267400  113.793000
  H    -66.149000   35.491800  113.834000
  C    -65.716300   36.539700  115.614000
  H    -64.661100   36.686000  115.499000
  H    -65.977700   35.687600  116.225000
  H    -66.149200   37.411800  116.067000
  H    -73.423200   39.410500  115.978000
  H    -69.012100   35.447600  109.979000

 Total Charge           Charge          ....    0
 Multiplicity           Mult            ....    1
 Number of Electrons    NEL             ....  134
 Basis Dimension        Dim             ....  322

ORBITAL ENERGIES
----------------

  NO   OCC          E(Eh)            E(eV)
   0   2.0000     -88.968567     -2420.9578
   1   2.0000     -88.961803     -2420.7737
   2   2.0000     -10.338066      -281.3131
   3   2.0000     -10.334602      -281.2188
   4   2.0000     -10.322646      -280.8935
   5   2.0000     -10.315068      -280.6873
   6   2.0000     -10.309545      -280.5370
   7   2.0000     -10.307178      -280.4726
   8   2.0000     -10.295974      -280.1677
   9   2.0000     -10.294830      -280.1366
  10   2.0000     -10.294086      -280.1163
  11   2.0000     -10.289928      -280.0032
  12   2.0000     -10.285281      -279.8767
  13   2.0000     -10.280933      -279.7584
  14   2.0000     -10.277613      -279.6681
  15   2.0000     -10.274324      -279.5786
  16   2.0000      -8.081651      -219.9129
  17   2.0000      -8.075980      -219.7586
  18   2.0000      -6.040503      -164.3704
  19   2.0000      -6.036452      -164.2602
  20   2.0000      -6.034595      -164.2097
  21   2.0000      -6.032061      -164.1407
  22   2.0000      -6.030670      -164.1029
  23   2.0000      -6.026554      -163.9909
  24   2.0000      -1.000162       -27.2158
  25   2.0000      -0.976814       -26.5805
  26   2.0000      -0.918391       -24.9907
  27   2.0000      -0.913221       -24.8500
  28   2.0000      -0.871288       -23.7090
  29   2.0000      -0.855838       -23.2885
  30   2.0000      -0.845582       -23.0095
  31   2.0000      -0.818425       -22.2705
  32   2.0000      -0.781974       -21.2786
  33   2.0000      -0.771797       -21.0017
  34   2.0000      -0.707665       -19.2566
  35   2.0000      -0.705521       -19.1982
  36   2.0000      -0.699608       -19.0373
  37   2.0000      -0.657353       -17.8875
  38   2.0000      -0.638861       -17.3843
  39   2.0000      -0.619492       -16.8572
  40   2.0000      -0.596403       -16.2290
  41   2.0000      -0.579087       -15.7578
  42   2.0000      -0.576912       -15.6986
  43   2.0000      -0.563783       -15.3413
  44   2.0000      -0.537830       -14.6351
  45   2.0000      -0.528766       -14.3885
  46   2.0000      -0.520071       -14.1518
  47   2.0000      -0.515081       -14.0161
  48   2.0000      -0.507813       -13.8183
  49   2.0000      -0.503928       -13.7126
  50   2.0000      -0.493497       -13.4287
  51   2.0000      -0.478243       -13.0136
  52   2.0000      -0.472811       -12.8658
  53   2.0000      -0.467400       -12.7186
  54   2.0000      -0.459132       -12.4936
  55   2.0000      -0.450381       -12.2555
  56   2.0000      -0.443636       -12.0720
  57   2.0000      -0.436028       -11.8649
  58   2.0000      -0.431741       -11.7483
  59   2.0000      -0.424112       -11.5407
  60   2.0000      -0.419337       -11.4108
  61   2.0000      -0.414613       -11.2822
  62   2.0000      -0.412335       -11.2202
  63   2.0000      -0.354249        -9.6396
  64   2.0000      -0.329543        -8.9673
  65   2.0000      -0.323005        -8.7894
  66   2.0000      -0.287057        -7.8112
  67   0.0000       0.016420         0.4468
  68   0.0000       0.068724         1.8701
  69   0.0000       0.093780         2.5519
  70   0.0000       0.120392         3.2760
  71   0.0000       0.128742         3.5032

MULLIKEN ATOMIC CHARGES
-----------------------
   0 S :    0.097959
   1 C :   -0.117723
   2 C :   -0.140642
   3 C :    0.005436
   4 C :   -0.100347
   5 H :    0.009658
   6 C :    0.146875
   7 H :    0.037429
   8 H :   -0.005580
   9 C :   -0.089464
  10 H :    0.020750
  11 H :    0.022584
  12 C :   -0.027201
  13 H :    0.019903
  14 H :    0.029614
  15 H :    0.043404
  16 S :    0.072232
  17 C :   -0.058977
  18 C :   -0.045973
  19 C :   -0.023549
  20 C :   -0.147485
  21 H :    0.013546
  22 C :    0.027847
  23 H :    0.026775
  24 H :    0.037726
  25 C :   -0.056737
  26 H :    0.030293
  27 H :    0.028644
  28 C :   -0.033828
  29 H :    0.038691
  30 H :    0.023652
  31 H :    0.019616
  32 H :    0.055163
  33 H :    0.039706
Sum of atomic charges:   -0.0000000

LOEWDIN ATOMIC CHARGES
----------------------
   0 S :    0.366871
   1 C :   -0.191423
   2 C :   -0.052244
   3 C :   -0.067708
   4 C :   -0.179612
   5 H :    0.026742
   6 C :   -0.020575
   7 H :    0.038305
   8 H :    0.019381
   9 C :   -0.048348
  10 H :    0.025171
  11 H :    0.022590
  12 C :   -0.063098
  13 H :    0.017992
  14 H :    0.028077
  15 H :    0.033388
  16 S :    0.377582
  17 C :   -0.158336
  18 C :   -0.058768
  19 C :   -0.057456
  20 C :   -0.186464
  21 H :    0.028262
  22 C :   -0.040641
  23 H :    0.034283
  24 H :    0.034826
  25 C :   -0.035572
  26 H :    0.022340
  27 H :    0.021820
  28 C :   -0.053531
  29 H :    0.025168
  30 H :    0.020056
  31 H :    0.022183
  32 H :    0.033415
  33 H :    0.015324

  Mayer bond orders larger than 0.100000
B(  0-S ,  1-C ) :   1.1072 B(  0-S ,  4-C ) :   1.1285 B(  1-C ,  2-C ) :   1.6378
B(  1-C , 32-H ) :   0.9683 B(  2-C ,  3-C ) :   1.2176 B(  2-C ,  6-C ) :   1.0145
B(  3-C ,  4-C ) :   1.5857 B(  3-C ,  5-H ) :   0.9888 B(  4-C , 20-C ) :   1.0569
B(  6-C ,  7-H ) :   0.9340 B(  6-C ,  8-H ) :   0.9325 B(  6-C ,  9-C ) :   1.0687
B(  9-C , 10-H ) :   0.9488 B(  9-C , 11-H ) :   0.9592 B(  9-C , 12-C ) :   1.0856
B( 12-C , 13-H ) :   0.9732 B( 12-C , 14-H ) :   0.9713 B( 12-C , 15-H ) :   0.9775
B( 16-S , 17-C ) :   1.1437 B( 16-S , 20-C ) :   1.1383 B( 17-C , 18-C ) :   1.6264
B( 17-C , 20-C ) :   0.1068 B( 17-C , 33-H ) :   0.9642 B( 18-C , 19-C ) :   1.2356
B( 18-C , 21-H ) :   0.9890 B( 19-C , 20-C ) :   1.5683 B( 19-C , 22-C ) :   1.0327
B( 22-C , 23-H ) :   0.9119 B( 22-C , 24-H ) :   0.9430 B( 22-C , 25-C ) :   1.0798
B( 25-C , 26-H ) :   0.9614 B( 25-C , 27-H ) :   0.9428 B( 25-C , 28-C ) :   1.0830
B( 28-C , 29-H ) :   0.9754 B( 28-C , 30-H ) :   0.9762 B( 28-C , 31-H ) :   0.9762

Dispersion correction           -0.013346644
FINAL SINGLE POINT ENERGY     -1339.847180968165

DIPOLE MOMENT
-------------
                                X             Y             Z
Electronic contribution:    -10.86652       8.59932     -26.59681
Nuclear contribution   :     11.39357      -8.80014      27.22179
                        -----------------------------------------
Total Dipole Moment    :      0.52706      -0.20082       0.62498
                        -----------------------------------------
Magnitude (a.u.)       :      0.84185
Magnitude (Debye)      :      2.13982

Rotational constants in cm-1:     0.016272     0.008261     0.006220
Rotational constants in MHz :   487.820638   247.660427   186.470759

                             ****ORCA TERMINATED NORMALLY****
TOTAL RUN TIME: 0 days 0 hours 0 minutes 28 seconds 879 msec
