                         Program Version 4.2.1 -  RELEASE  -
|  1> ! wB97X-D3 SP def2-SVP
|  2> %pal
|  3> nprocs 16
|  4> end
|  5>
|  6> * xyz 0 1
|  7> S 	 -13.4281 	 37.9962 	 55.2605
|  8> C 	 -11.6874 	 38.474 	 55.4573
|  9> C 	 -11.0565 	 37.9823 	 54.3373
| 10> C 	 -11.8987 	 37.5258 	 53.2962
| 11> C 	 -13.2435 	 37.5604 	 53.5826
| 12> H 	 -11.4545 	 37.1799 	 52.3867
| 13> C 	 -9.58875 	 37.8266 	 54.0734
| 14> H 	 -9.40027 	 37.1725 	 53.2811
| 15> H 	 -9.21294 	 37.3974 	 55.0097
| 16> C 	 -8.86901 	 39.1694 	 53.857
| 17> H 	 -7.89508 	 38.948 	 53.3764
| 18> H 	 -9.49186 	 39.8442 	 53.3411
| 19> C 	 -8.44537 	 39.7991 	 55.2001
| 20> H 	 -9.3297 	 39.7872 	 55.9404
| 21> H 	 -7.5458 	 39.4666 	 55.6814
| 22> H 	 -8.25118 	 40.8421 	 55.0742
| 23> S 	 -15.5385 	 38.2207 	 52.2898
| 24> C 	 -16.4815 	 36.9292 	 51.6427
| 25> C 	 -15.8538 	 35.7054 	 51.8512
| 26> C 	 -14.61 	 35.8021 	 52.462
| 27> C 	 -14.3104 	 37.1031 	 52.7834
| 28> H 	 -16.3891 	 34.8966 	 51.3547
| 29> C 	 -13.6479 	 34.6095 	 52.6323
| 30> H 	 -14.2512 	 33.7687 	 52.9386
| 31> H 	 -12.9767 	 34.8736 	 53.4197
| 32> C 	 -12.8755 	 34.1702 	 51.3642
| 33> H 	 -12.2873 	 34.9894 	 50.9354
| 34> H 	 -13.4544 	 34.0465 	 50.4561
| 35> C 	 -12.0988 	 32.8536 	 51.5964
| 36> H 	 -11.3763 	 32.7711 	 50.736
| 37> H 	 -12.6733 	 31.9812 	 51.688
| 38> H 	 -11.5064 	 32.9011 	 52.4958
| 39> H 	 -11.1637 	 38.6888 	 56.3498
| 40> H 	 -17.5243 	 36.9507 	 51.5259
| 41> *
| 42>
| 43>                          ****END OF INPUT****

CARTESIAN COORDINATES (ANGSTROEM)
---------------------------------
  S    -13.428100   37.996200   55.260500
  C    -11.687400   38.474000   55.457300
  C    -11.056500   37.982300   54.337300
  C    -11.898700   37.525800   53.296200
  C    -13.243500   37.560400   53.582600
  H    -11.454500   37.179900   52.386700
  C     -9.588750   37.826600   54.073400
  H     -9.400270   37.172500   53.281100
  H     -9.212940   37.397400   55.009700
  C     -8.869010   39.169400   53.857000
  H     -7.895080   38.948000   53.376400
  H     -9.491860   39.844200   53.341100
  C     -8.445370   39.799100   55.200100
  H     -9.329700   39.787200   55.940400
  H     -7.545800   39.466600   55.681400
  H     -8.251180   40.842100   55.074200
  S    -15.538500   38.220700   52.289800
  C    -16.481500   36.929200   51.642700
  C    -15.853800   35.705400   51.851200
  C    -14.610000   35.802100   52.462000
  C    -14.310400   37.103100   52.783400
  H    -16.389100   34.896600   51.354700
  C    -13.647900   34.609500   52.632300
  H    -14.251200   33.768700   52.938600
  H    -12.976700   34.873600   53.419700
  C    -12.875500   34.170200   51.364200
  H    -12.287300   34.989400   50.935400
  H    -13.454400   34.046500   50.456100
  C    -12.098800   32.853600   51.596400
  H    -11.376300   32.771100   50.736000
  H    -12.673300   31.981200   51.688000
  H    -11.506400   32.901100   52.495800
  H    -11.163700   38.688800   56.349800
  H    -17.524300   36.950700   51.525900

 Total Charge           Charge          ....    0
 Multiplicity           Mult            ....    1
 Number of Electrons    NEL             ....  134
 Basis Dimension        Dim             ....  322

ORBITAL ENERGIES
----------------

  NO   OCC          E(Eh)            E(eV)
   0   2.0000     -88.966510     -2420.9018
   1   2.0000     -88.963594     -2420.8225
   2   2.0000     -10.325229      -280.9638
   3   2.0000     -10.318453      -280.7794
   4   2.0000     -10.314665      -280.6763
   5   2.0000     -10.308686      -280.5136
   6   2.0000     -10.300600      -280.2936
   7   2.0000     -10.295410      -280.1524
   8   2.0000     -10.290765      -280.0260
   9   2.0000     -10.289999      -280.0051
  10   2.0000     -10.288504      -279.9644
  11   2.0000     -10.286924      -279.9214
  12   2.0000     -10.286428      -279.9079
  13   2.0000     -10.284073      -279.8439
  14   2.0000     -10.279225      -279.7119
  15   2.0000     -10.278816      -279.7008
  16   2.0000      -8.082062      -219.9241
  17   2.0000      -8.077441      -219.7983
  18   2.0000      -6.040334      -164.3658
  19   2.0000      -6.036351      -164.2575
  20   2.0000      -6.036162      -164.2523
  21   2.0000      -6.033113      -164.1693
  22   2.0000      -6.032099      -164.1418
  23   2.0000      -6.027957      -164.0291
  24   2.0000      -1.014114       -27.5954
  25   2.0000      -0.986779       -26.8516
  26   2.0000      -0.916533       -24.9401
  27   2.0000      -0.906472       -24.6664
  28   2.0000      -0.873023       -23.7562
  29   2.0000      -0.854813       -23.2606
  30   2.0000      -0.844697       -22.9854
  31   2.0000      -0.813479       -22.1359
  32   2.0000      -0.784699       -21.3527
  33   2.0000      -0.776433       -21.1278
  34   2.0000      -0.715034       -19.4571
  35   2.0000      -0.706967       -19.2375
  36   2.0000      -0.701538       -19.0898
  37   2.0000      -0.661998       -18.0139
  38   2.0000      -0.640032       -17.4162
  39   2.0000      -0.624472       -16.9927
  40   2.0000      -0.595812       -16.2129
  41   2.0000      -0.579553       -15.7704
  42   2.0000      -0.561558       -15.2808
  43   2.0000      -0.546972       -14.8839
  44   2.0000      -0.542014       -14.7490
  45   2.0000      -0.524688       -14.2775
  46   2.0000      -0.523940       -14.2571
  47   2.0000      -0.515405       -14.0249
  48   2.0000      -0.510711       -13.8972
  49   2.0000      -0.501690       -13.6517
  50   2.0000      -0.491352       -13.3704
  51   2.0000      -0.486266       -13.2320
  52   2.0000      -0.473498       -12.8845
  53   2.0000      -0.468526       -12.7492
  54   2.0000      -0.459097       -12.4927
  55   2.0000      -0.447291       -12.1714
  56   2.0000      -0.441706       -12.0194
  57   2.0000      -0.438451       -11.9308
  58   2.0000      -0.429047       -11.6750
  59   2.0000      -0.426306       -11.6004
  60   2.0000      -0.422338       -11.4924
  61   2.0000      -0.411171       -11.1885
  62   2.0000      -0.409192       -11.1347
  63   2.0000      -0.338169        -9.2020
  64   2.0000      -0.329519        -8.9667
  65   2.0000      -0.324447        -8.8286
  66   2.0000      -0.305037        -8.3005
  67   0.0000       0.029025         0.7898
  68   0.0000       0.056917         1.5488
  69   0.0000       0.105320         2.8659
  70   0.0000       0.126349         3.4381
  71   0.0000       0.128687         3.5017

MULLIKEN ATOMIC CHARGES
-----------------------
   0 S :    0.102369
   1 C :   -0.109207
   2 C :   -0.114058
   3 C :    0.026406
   4 C :   -0.126439
   5 H :   -0.003010
   6 C :    0.081428
   7 H :    0.007540
   8 H :    0.028240
   9 C :   -0.030337
  10 H :    0.035843
  11 H :    0.031219
  12 C :   -0.080591
  13 H :    0.022115
  14 H :    0.034628
  15 H :    0.021490
  16 S :    0.129390
  17 C :   -0.087595
  18 C :   -0.076610
  19 C :    0.004873
  20 C :   -0.208022
  21 H :    0.025985
  22 C :    0.119768
  23 H :    0.017394
  24 H :    0.028316
  25 C :   -0.072823
  26 H :    0.015752
  27 H :    0.016364
  28 C :   -0.031901
  29 H :    0.038041
  30 H :    0.030033
  31 H :    0.023460
  32 H :    0.048262
  33 H :    0.051680
Sum of atomic charges:    0.0000000

LOEWDIN ATOMIC CHARGES
----------------------
   0 S :    0.389649
   1 C :   -0.187009
   2 C :   -0.057957
   3 C :   -0.063671
   4 C :   -0.192564
   5 H :    0.025571
   6 C :   -0.026033
   7 H :    0.019628
   8 H :    0.034473
   9 C :   -0.028657
  10 H :    0.030334
  11 H :    0.020622
  12 C :   -0.072388
  13 H :    0.027632
  14 H :    0.021918
  15 H :    0.022430
  16 S :    0.435569
  17 C :   -0.196055
  18 C :   -0.071772
  19 C :   -0.050130
  20 C :   -0.215271
  21 H :    0.035685
  22 C :   -0.019792
  23 H :    0.029790
  24 H :    0.027736
  25 C :   -0.045768
  26 H :    0.023214
  27 H :    0.024137
  28 C :   -0.060114
  29 H :    0.035252
  30 H :    0.018026
  31 H :    0.022076
  32 H :    0.021256
  33 H :    0.022183

  Mayer bond orders larger than 0.100000
B(  0-S ,  1-C ) :   1.1081 B(  0-S ,  4-C ) :   1.1623 B(  1-C ,  2-C ) :   1.6112
B(  1-C ,  4-C ) :   0.1012 B(  1-C , 32-H ) :   0.9638 B(  2-C ,  3-C ) :   1.2565
B(  2-C ,  6-C ) :   1.0224 B(  3-C ,  4-C ) :   1.5365 B(  3-C ,  5-H ) :   1.0071
B(  4-C , 20-C ) :   1.0509 B(  6-C ,  7-H ) :   0.9446 B(  6-C ,  8-H ) :   0.9370
B(  6-C ,  9-C ) :   1.0610 B(  9-C , 10-H ) :   0.9558 B(  9-C , 11-H ) :   0.9593
B(  9-C , 12-C ) :   1.0803 B( 12-C , 13-H ) :   0.9721 B( 12-C , 14-H ) :   0.9754
B( 12-C , 15-H ) :   0.9707 B( 16-S , 17-C ) :   1.1727 B( 16-S , 20-C ) :   1.1619
B( 17-C , 18-C ) :   1.6056 B( 17-C , 20-C ) :   0.1060 B( 17-C , 33-H ) :   0.9626
B( 18-C , 19-C ) :   1.2607 B( 18-C , 21-H ) :   0.9889 B( 19-C , 20-C ) :   1.5684
B( 19-C , 22-C ) :   1.0427 B( 22-C , 23-H ) :   0.9333 B( 22-C , 24-H ) :   0.9225
B( 22-C , 25-C ) :   1.0607 B( 25-C , 26-H ) :   0.9514 B( 25-C , 27-H ) :   0.9517
B( 25-C , 28-C ) :   1.0732 B( 28-C , 29-H ) :   0.9735 B( 28-C , 30-H ) :   0.9779
B( 28-C , 31-H ) :   0.9764

Dispersion correction           -0.014422014
FINAL SINGLE POINT ENERGY     -1339.852974955108

DIPOLE MOMENT
-------------
                                X             Y             Z
Electronic contribution:    -24.28221      10.56932       3.17357
Nuclear contribution   :     24.77057     -11.09557      -3.37635
                        -----------------------------------------
Total Dipole Moment    :      0.48837      -0.52625      -0.20278
                        -----------------------------------------
Magnitude (a.u.)       :      0.74603
Magnitude (Debye)      :      1.89625

Rotational constants in cm-1:     0.019048     0.008567     0.006651
Rotational constants in MHz :   571.059533   256.830289   199.397305

                             ****ORCA TERMINATED NORMALLY****
TOTAL RUN TIME: 0 days 0 hours 0 minutes 37 seconds 126 msec
