                         Program Version 4.2.1 -  RELEASE  -
|  1> ! wB97X-D3 SP def2-SVP
|  2> %pal
|  3> nprocs 16
|  4> end
|  5>
|  6> * xyz 0 1
|  7> S 	 -82.1157 	 47.103 	 126.932
|  8> C 	 -83.752 	 46.886 	 126.282
|  9> C 	 -84.6462 	 47.5537 	 127.162
| 10> C 	 -84.0894 	 47.9601 	 128.427
| 11> C 	 -82.7312 	 47.8132 	 128.427
| 12> H 	 -84.6805 	 48.4219 	 129.239
| 13> C 	 -86.0808 	 47.784 	 126.957
| 14> H 	 -86.4543 	 47.4329 	 127.959
| 15> H 	 -86.4529 	 46.9335 	 126.328
| 16> C 	 -86.5942 	 49.1746 	 126.613
| 17> H 	 -87.6912 	 49.1335 	 126.881
| 18> H 	 -86.2862 	 49.9141 	 127.347
| 19> C 	 -86.3052 	 49.6736 	 125.204
| 20> H 	 -85.249 	 49.4944 	 125.092
| 21> H 	 -86.8558 	 49.1041 	 124.422
| 22> H 	 -86.4985 	 50.7008 	 125.089
| 23> S 	 -80.5311 	 49.3759 	 129.018
| 24> C 	 -79.9649 	 49.4205 	 130.693
| 25> C 	 -80.7406 	 48.5628 	 131.491
| 26> C 	 -81.8486 	 47.9766 	 130.806
| 27> C 	 -81.8168 	 48.2727 	 129.479
| 28> H 	 -80.4205 	 48.5381 	 132.489
| 29> C 	 -82.7384 	 47.0111 	 131.456
| 30> H 	 -82.7935 	 46.0412 	 130.938
| 31> H 	 -83.7167 	 47.4361 	 131.435
| 32> C 	 -82.5343 	 46.8151 	 132.952
| 33> H 	 -83.4644 	 46.3881 	 133.235
| 34> H 	 -82.4615 	 47.7597 	 133.485
| 35> C 	 -81.5775 	 45.8016 	 133.593
| 36> H 	 -81.6745 	 45.9339 	 134.662
| 37> H 	 -80.6124 	 46.1379 	 133.251
| 38> H 	 -81.8219 	 44.6713 	 133.343
| 39> H 	 -84.012 	 46.3779 	 125.449
| 40> H 	 -79.0251 	 49.8227 	 131.095
| 41> *
| 42>
| 43>                          ****END OF INPUT****

CARTESIAN COORDINATES (ANGSTROEM)
---------------------------------
  S    -82.115700   47.103000  126.932000
  C    -83.752000   46.886000  126.282000
  C    -84.646200   47.553700  127.162000
  C    -84.089400   47.960100  128.427000
  C    -82.731200   47.813200  128.427000
  H    -84.680500   48.421900  129.239000
  C    -86.080800   47.784000  126.957000
  H    -86.454300   47.432900  127.959000
  H    -86.452900   46.933500  126.328000
  C    -86.594200   49.174600  126.613000
  H    -87.691200   49.133500  126.881000
  H    -86.286200   49.914100  127.347000
  C    -86.305200   49.673600  125.204000
  H    -85.249000   49.494400  125.092000
  H    -86.855800   49.104100  124.422000
  H    -86.498500   50.700800  125.089000
  S    -80.531100   49.375900  129.018000
  C    -79.964900   49.420500  130.693000
  C    -80.740600   48.562800  131.491000
  C    -81.848600   47.976600  130.806000
  C    -81.816800   48.272700  129.479000
  H    -80.420500   48.538100  132.489000
  C    -82.738400   47.011100  131.456000
  H    -82.793500   46.041200  130.938000
  H    -83.716700   47.436100  131.435000
  C    -82.534300   46.815100  132.952000
  H    -83.464400   46.388100  133.235000
  H    -82.461500   47.759700  133.485000
  C    -81.577500   45.801600  133.593000
  H    -81.674500   45.933900  134.662000
  H    -80.612400   46.137900  133.251000
  H    -81.821900   44.671300  133.343000
  H    -84.012000   46.377900  125.449000
  H    -79.025100   49.822700  131.095000

 Total Charge           Charge          ....    0
 Multiplicity           Mult            ....    1
 Number of Electrons    NEL             ....  134
 Basis Dimension        Dim             ....  322

ORBITAL ENERGIES
----------------

  NO   OCC          E(Eh)            E(eV)
   0   2.0000     -88.967224     -2420.9213
   1   2.0000     -88.966985     -2420.9147
   2   2.0000     -10.331112      -281.1239
   3   2.0000     -10.322171      -280.8806
   4   2.0000     -10.318357      -280.7768
   5   2.0000     -10.313323      -280.6398
   6   2.0000     -10.302343      -280.3410
   7   2.0000     -10.296848      -280.1915
   8   2.0000     -10.295757      -280.1618
   9   2.0000     -10.292077      -280.0617
  10   2.0000     -10.291085      -280.0347
  11   2.0000     -10.290786      -280.0265
  12   2.0000     -10.286420      -279.9077
  13   2.0000     -10.284546      -279.8567
  14   2.0000     -10.279143      -279.7097
  15   2.0000     -10.273604      -279.5590
  16   2.0000      -8.081321      -219.9039
  17   2.0000      -8.080902      -219.8925
  18   2.0000      -6.039855      -164.3528
  19   2.0000      -6.039558      -164.3447
  20   2.0000      -6.035958      -164.2468
  21   2.0000      -6.035489      -164.2340
  22   2.0000      -6.032051      -164.1404
  23   2.0000      -6.031588      -164.1278
  24   2.0000      -1.005366       -27.3574
  25   2.0000      -0.981087       -26.6967
  26   2.0000      -0.916160       -24.9300
  27   2.0000      -0.912804       -24.8387
  28   2.0000      -0.867875       -23.6161
  29   2.0000      -0.854289       -23.2464
  30   2.0000      -0.847846       -23.0711
  31   2.0000      -0.817537       -22.2463
  32   2.0000      -0.787197       -21.4207
  33   2.0000      -0.774438       -21.0735
  34   2.0000      -0.707519       -19.2526
  35   2.0000      -0.702647       -19.1200
  36   2.0000      -0.692327       -18.8392
  37   2.0000      -0.656368       -17.8607
  38   2.0000      -0.641150       -17.4466
  39   2.0000      -0.621531       -16.9127
  40   2.0000      -0.599917       -16.3246
  41   2.0000      -0.566777       -15.4228
  42   2.0000      -0.560639       -15.2558
  43   2.0000      -0.553451       -15.0602
  44   2.0000      -0.538033       -14.6406
  45   2.0000      -0.532320       -14.4852
  46   2.0000      -0.524030       -14.2596
  47   2.0000      -0.522841       -14.2272
  48   2.0000      -0.503224       -13.6934
  49   2.0000      -0.499607       -13.5950
  50   2.0000      -0.493309       -13.4236
  51   2.0000      -0.480573       -13.0771
  52   2.0000      -0.470991       -12.8163
  53   2.0000      -0.466566       -12.6959
  54   2.0000      -0.455644       -12.3987
  55   2.0000      -0.448476       -12.2036
  56   2.0000      -0.446643       -12.1538
  57   2.0000      -0.440784       -11.9943
  58   2.0000      -0.430876       -11.7247
  59   2.0000      -0.425310       -11.5733
  60   2.0000      -0.416762       -11.3407
  61   2.0000      -0.405774       -11.0417
  62   2.0000      -0.403340       -10.9754
  63   2.0000      -0.346071        -9.4171
  64   2.0000      -0.331273        -9.0144
  65   2.0000      -0.325248        -8.8504
  66   2.0000      -0.290675        -7.9097
  67   0.0000       0.030577         0.8321
  68   0.0000       0.063192         1.7195
  69   0.0000       0.112773         3.0687
  70   0.0000       0.115641         3.1467
  71   0.0000       0.130740         3.5576

MULLIKEN ATOMIC CHARGES
-----------------------
   0 S :    0.103833
   1 C :   -0.068497
   2 C :   -0.109852
   3 C :    0.008334
   4 C :   -0.141944
   5 H :    0.036277
   6 C :    0.014929
   7 H :    0.024582
   8 H :    0.022357
   9 C :   -0.053895
  10 H :    0.028680
  11 H :    0.019784
  12 C :   -0.009179
  13 H :    0.032640
  14 H :    0.033732
  15 H :    0.028973
  16 S :    0.115389
  17 C :   -0.096627
  18 C :   -0.050904
  19 C :   -0.023397
  20 C :   -0.162768
  21 H :    0.002136
  22 C :    0.139045
  23 H :    0.045028
  24 H :    0.014039
  25 C :   -0.124541
  26 H :    0.009139
  27 H :    0.025794
  28 C :   -0.042675
  29 H :    0.037741
  30 H :    0.024073
  31 H :    0.051455
  32 H :    0.005679
  33 H :    0.060638
Sum of atomic charges:   -0.0000000

LOEWDIN ATOMIC CHARGES
----------------------
   0 S :    0.390173
   1 C :   -0.182679
   2 C :   -0.057978
   3 C :   -0.066474
   4 C :   -0.180531
   5 H :    0.040121
   6 C :   -0.050538
   7 H :    0.039136
   8 H :    0.033645
   9 C :   -0.045659
  10 H :    0.029618
  11 H :    0.024726
  12 C :   -0.059014
  13 H :    0.028193
  14 H :    0.029827
  15 H :    0.021410
  16 S :    0.398422
  17 C :   -0.189530
  18 C :   -0.065560
  19 C :   -0.062855
  20 C :   -0.195755
  21 H :    0.022640
  22 C :   -0.030562
  23 H :    0.041476
  24 H :    0.035227
  25 C :   -0.050227
  26 H :    0.021541
  27 H :    0.024809
  28 C :   -0.066742
  29 H :    0.027209
  30 H :    0.016773
  31 H :    0.038328
  32 H :    0.005816
  33 H :    0.035014

  Mayer bond orders larger than 0.100000
B(  0-S ,  1-C ) :   1.1159 B(  0-S ,  4-C ) :   1.1504 B(  1-C ,  2-C ) :   1.5837
B(  1-C , 32-H ) :   0.9910 B(  2-C ,  3-C ) :   1.2314 B(  2-C ,  6-C ) :   1.0324
B(  3-C ,  4-C ) :   1.5799 B(  3-C ,  5-H ) :   0.9849 B(  4-C , 20-C ) :   1.0274
B(  6-C ,  7-H ) :   0.9343 B(  6-C ,  8-H ) :   0.9402 B(  6-C ,  9-C ) :   1.0668
B(  9-C , 10-H ) :   0.9492 B(  9-C , 11-H ) :   0.9508 B(  9-C , 12-C ) :   1.0706
B( 12-C , 13-H ) :   0.9753 B( 12-C , 14-H ) :   0.9740 B( 12-C , 15-H ) :   0.9732
B( 16-S , 17-C ) :   1.1430 B( 16-S , 20-C ) :   1.1395 B( 17-C , 18-C ) :   1.6325
B( 17-C , 33-H ) :   0.9573 B( 18-C , 19-C ) :   1.2206 B( 18-C , 21-H ) :   0.9884
B( 19-C , 20-C ) :   1.6157 B( 19-C , 22-C ) :   1.0511 B( 22-C , 23-H ) :   0.9228
B( 22-C , 24-H ) :   0.9032 B( 22-C , 25-C ) :   1.0949 B( 25-C , 26-H ) :   0.9520
B( 25-C , 27-H ) :   0.9447 B( 25-C , 28-C ) :   1.0791 B( 28-C , 29-H ) :   0.9704
B( 28-C , 30-H ) :   0.9767 B( 28-C , 31-H ) :   0.9727

Dispersion correction           -0.014122536
FINAL SINGLE POINT ENERGY     -1339.852694785729

DIPOLE MOMENT
-------------
                                X             Y             Z
Electronic contribution:     18.07528       3.20946      -9.66879
Nuclear contribution   :    -18.63683      -3.27186      10.09431
                        -----------------------------------------
Total Dipole Moment    :     -0.56155      -0.06240       0.42552
                        -----------------------------------------
Magnitude (a.u.)       :      0.70732
Magnitude (Debye)      :      1.79786

Rotational constants in cm-1:     0.021529     0.007514     0.006612
Rotational constants in MHz :   645.412793   225.256194   198.224467

                             ****ORCA TERMINATED NORMALLY****
TOTAL RUN TIME: 0 days 0 hours 0 minutes 31 seconds 426 msec
