                         Program Version 4.2.1 -  RELEASE  -
|  1> ! wB97X-D3 SP def2-SVP
|  2> %pal
|  3> nprocs 16
|  4> end
|  5>
|  6> * xyz 0 1
|  7> S 	 -57.5346 	 33.4403 	 99.5777
|  8> C 	 -58.7211 	 33.1302 	 98.3602
|  9> C 	 -58.3332 	 32.3049 	 97.3842
| 10> C 	 -56.9952 	 31.8239 	 97.5872
| 11> C 	 -56.332 	 32.4735 	 98.6524
| 12> H 	 -56.5439 	 30.9895 	 96.9942
| 13> C 	 -59.1325 	 31.9334 	 96.1992
| 14> H 	 -59.5976 	 32.8816 	 95.7774
| 15> H 	 -59.9793 	 31.3483 	 96.6286
| 16> C 	 -58.4845 	 31.2056 	 95.0948
| 17> H 	 -57.68 	 31.8339 	 94.7613
| 18> H 	 -58.102 	 30.2383 	 95.4113
| 19> C 	 -59.381 	 30.8597 	 93.9451
| 20> H 	 -58.7296 	 30.2566 	 93.2802
| 21> H 	 -60.3799 	 30.3943 	 94.2954
| 22> H 	 -59.6759 	 31.83 	 93.4859
| 23> S 	 -54.98 	 31.7487 	 100.851
| 24> C 	 -53.2231 	 31.5051 	 100.753
| 25> C 	 -52.7681 	 31.7948 	 99.4431
| 26> C 	 -53.7819 	 32.2747 	 98.5151
| 27> C 	 -55.0492 	 32.1823 	 99.1595
| 28> H 	 -51.7654 	 31.7204 	 99.2003
| 29> C 	 -53.5366 	 32.558 	 97.0725
| 30> H 	 -54.4415 	 32.8816 	 96.6668
| 31> H 	 -53.3947 	 31.5785 	 96.5561
| 32> C 	 -52.4192 	 33.5788 	 96.7136
| 33> H 	 -51.5724 	 33.3576 	 97.2863
| 34> H 	 -52.9141 	 34.4699 	 97.1677
| 35> C 	 -52.1532 	 33.8766 	 95.1984
| 36> H 	 -53.0896 	 33.9806 	 94.7409
| 37> H 	 -51.5075 	 33.1396 	 94.8009
| 38> H 	 -51.6167 	 34.7911 	 95.1143
| 39> H 	 -59.667 	 33.6501 	 98.4626
| 40> H 	 -52.6952 	 31.1125 	 101.571
| 41> *
| 42>
| 43>                          ****END OF INPUT****

CARTESIAN COORDINATES (ANGSTROEM)
---------------------------------
  S    -57.534600   33.440300   99.577700
  C    -58.721100   33.130200   98.360200
  C    -58.333200   32.304900   97.384200
  C    -56.995200   31.823900   97.587200
  C    -56.332000   32.473500   98.652400
  H    -56.543900   30.989500   96.994200
  C    -59.132500   31.933400   96.199200
  H    -59.597600   32.881600   95.777400
  H    -59.979300   31.348300   96.628600
  C    -58.484500   31.205600   95.094800
  H    -57.680000   31.833900   94.761300
  H    -58.102000   30.238300   95.411300
  C    -59.381000   30.859700   93.945100
  H    -58.729600   30.256600   93.280200
  H    -60.379900   30.394300   94.295400
  H    -59.675900   31.830000   93.485900
  S    -54.980000   31.748700  100.851000
  C    -53.223100   31.505100  100.753000
  C    -52.768100   31.794800   99.443100
  C    -53.781900   32.274700   98.515100
  C    -55.049200   32.182300   99.159500
  H    -51.765400   31.720400   99.200300
  C    -53.536600   32.558000   97.072500
  H    -54.441500   32.881600   96.666800
  H    -53.394700   31.578500   96.556100
  C    -52.419200   33.578800   96.713600
  H    -51.572400   33.357600   97.286300
  H    -52.914100   34.469900   97.167700
  C    -52.153200   33.876600   95.198400
  H    -53.089600   33.980600   94.740900
  H    -51.507500   33.139600   94.800900
  H    -51.616700   34.791100   95.114300
  H    -59.667000   33.650100   98.462600
  H    -52.695200   31.112500  101.571000

 Total Charge           Charge          ....    0
 Multiplicity           Mult            ....    1
 Number of Electrons    NEL             ....  134
 Basis Dimension        Dim             ....  322

ORBITAL ENERGIES
----------------

  NO   OCC          E(Eh)            E(eV)
   0   2.0000     -88.965072     -2420.8627
   1   2.0000     -88.962800     -2420.8009
   2   2.0000     -10.328507      -281.0530
   3   2.0000     -10.324193      -280.9356
   4   2.0000     -10.318701      -280.7861
   5   2.0000     -10.307698      -280.4867
   6   2.0000     -10.305526      -280.4276
   7   2.0000     -10.299774      -280.2711
   8   2.0000     -10.295437      -280.1531
   9   2.0000     -10.293491      -280.1001
  10   2.0000     -10.291621      -280.0492
  11   2.0000     -10.289381      -279.9883
  12   2.0000     -10.286950      -279.9221
  13   2.0000     -10.285360      -279.8789
  14   2.0000     -10.280170      -279.7377
  15   2.0000     -10.273525      -279.5568
  16   2.0000      -8.079459      -219.8533
  17   2.0000      -8.077519      -219.8005
  18   2.0000      -6.037957      -164.3012
  19   2.0000      -6.036073      -164.2499
  20   2.0000      -6.034003      -164.1936
  21   2.0000      -6.032119      -164.1423
  22   2.0000      -6.030267      -164.0919
  23   2.0000      -6.028154      -164.0344
  24   2.0000      -1.003337       -27.3022
  25   2.0000      -0.978108       -26.6157
  26   2.0000      -0.924621       -25.1602
  27   2.0000      -0.906735       -24.6735
  28   2.0000      -0.874823       -23.8052
  29   2.0000      -0.853005       -23.2115
  30   2.0000      -0.846980       -23.0475
  31   2.0000      -0.811518       -22.0825
  32   2.0000      -0.785046       -21.3622
  33   2.0000      -0.770245       -20.9594
  34   2.0000      -0.713952       -19.4276
  35   2.0000      -0.704132       -19.1604
  36   2.0000      -0.685915       -18.6647
  37   2.0000      -0.658696       -17.9240
  38   2.0000      -0.637859       -17.3570
  39   2.0000      -0.619877       -16.8677
  40   2.0000      -0.600582       -16.3427
  41   2.0000      -0.584082       -15.8937
  42   2.0000      -0.566604       -15.4181
  43   2.0000      -0.564241       -15.3538
  44   2.0000      -0.532025       -14.4771
  45   2.0000      -0.527814       -14.3625
  46   2.0000      -0.517771       -14.0893
  47   2.0000      -0.508672       -13.8417
  48   2.0000      -0.503744       -13.7076
  49   2.0000      -0.497899       -13.5485
  50   2.0000      -0.493851       -13.4384
  51   2.0000      -0.482247       -13.1226
  52   2.0000      -0.473629       -12.8881
  53   2.0000      -0.466998       -12.7077
  54   2.0000      -0.457794       -12.4572
  55   2.0000      -0.450274       -12.2526
  56   2.0000      -0.445181       -12.1140
  57   2.0000      -0.435399       -11.8478
  58   2.0000      -0.431496       -11.7416
  59   2.0000      -0.427241       -11.6258
  60   2.0000      -0.422126       -11.4866
  61   2.0000      -0.416110       -11.3229
  62   2.0000      -0.412549       -11.2260
  63   2.0000      -0.345421        -9.3994
  64   2.0000      -0.327172        -8.9028
  65   2.0000      -0.325642        -8.8612
  66   2.0000      -0.284044        -7.7292
  67   0.0000       0.025689         0.6990
  68   0.0000       0.066461         1.8085
  69   0.0000       0.106947         2.9102
  70   0.0000       0.119099         3.2409
  71   0.0000       0.134931         3.6717

MULLIKEN ATOMIC CHARGES
-----------------------
   0 S :    0.099143
   1 C :   -0.147665
   2 C :   -0.047183
   3 C :   -0.002652
   4 C :   -0.153980
   5 H :    0.039827
   6 C :    0.036921
   7 H :    0.034552
   8 H :    0.036558
   9 C :   -0.084620
  10 H :    0.028056
  11 H :    0.026668
  12 C :   -0.046508
  13 H :    0.048923
  14 H :    0.044149
  15 H :    0.026874
  16 S :    0.105422
  17 C :   -0.088213
  18 C :   -0.000497
  19 C :   -0.036474
  20 C :   -0.168759
  21 H :   -0.005625
  22 C :    0.093004
  23 H :   -0.005349
  24 H :    0.034739
  25 C :   -0.117271
  26 H :    0.018669
  27 H :    0.035041
  28 C :    0.022684
  29 H :    0.024184
  30 H :    0.028903
  31 H :    0.028129
  32 H :    0.044628
  33 H :    0.047723
Sum of atomic charges:   -0.0000000

LOEWDIN ATOMIC CHARGES
----------------------
   0 S :    0.387764
   1 C :   -0.195673
   2 C :   -0.074519
   3 C :   -0.060245
   4 C :   -0.185669
   5 H :    0.040171
   6 C :   -0.042410
   7 H :    0.039214
   8 H :    0.037950
   9 C :   -0.053876
  10 H :    0.025157
  11 H :    0.022096
  12 C :   -0.064808
  13 H :    0.033791
  14 H :    0.035017
  15 H :    0.024120
  16 S :    0.400513
  17 C :   -0.173725
  18 C :   -0.053771
  19 C :   -0.047178
  20 C :   -0.201430
  21 H :    0.015552
  22 C :   -0.036411
  23 H :    0.018348
  24 H :    0.033467
  25 C :   -0.034275
  26 H :    0.010383
  27 H :    0.032721
  28 C :   -0.047587
  29 H :    0.021804
  30 H :    0.022321
  31 H :    0.027487
  32 H :    0.025745
  33 H :    0.017956

  Mayer bond orders larger than 0.100000
B(  0-S ,  1-C ) :   1.1332 B(  0-S ,  4-C ) :   1.1350 B(  1-C ,  2-C ) :   1.6298
B(  1-C , 32-H ) :   0.9720 B(  2-C ,  3-C ) :   1.2481 B(  2-C ,  6-C ) :   1.0072
B(  3-C ,  4-C ) :   1.5432 B(  3-C ,  5-H ) :   0.9779 B(  4-C , 20-C ) :   1.0936
B(  6-C ,  7-H ) :   0.9389 B(  6-C ,  8-H ) :   0.9204 B(  6-C ,  9-C ) :   1.1122
B(  9-C , 10-H ) :   0.9443 B(  9-C , 11-H ) :   0.9360 B(  9-C , 12-C ) :   1.0879
B( 12-C , 13-H ) :   0.9716 B( 12-C , 14-H ) :   0.9713 B( 12-C , 15-H ) :   0.9713
B( 16-S , 17-C ) :   1.1408 B( 16-S , 20-C ) :   1.1554 B( 17-C , 18-C ) :   1.5899
B( 17-C , 20-C ) :   0.1036 B( 17-C , 33-H ) :   0.9796 B( 18-C , 19-C ) :   1.2316
B( 18-C , 21-H ) :   0.9964 B( 19-C , 20-C ) :   1.5469 B( 19-C , 22-C ) :   1.0635
B( 22-C , 23-H ) :   0.9175 B( 22-C , 24-H ) :   0.9297 B( 22-C , 25-C ) :   1.0361
B( 25-C , 26-H ) :   0.9680 B( 25-C , 27-H ) :   0.9593 B( 25-C , 28-C ) :   1.0786
B( 28-C , 29-H ) :   0.9737 B( 28-C , 30-H ) :   0.9759 B( 28-C , 31-H ) :   0.9742

Dispersion correction           -0.013386210
FINAL SINGLE POINT ENERGY     -1339.863322198188

DIPOLE MOMENT
-------------
                                X             Y             Z
Electronic contribution:     -2.11622       1.38031      30.27771
Nuclear contribution   :      2.19125      -1.54536     -30.95461
                        -----------------------------------------
Total Dipole Moment    :      0.07503      -0.16505      -0.67690
                        -----------------------------------------
Magnitude (a.u.)       :      0.70076
Magnitude (Debye)      :      1.78118

Rotational constants in cm-1:     0.015615     0.008925     0.006492
Rotational constants in MHz :   468.138671   267.576191   194.620758

                             ****ORCA TERMINATED NORMALLY****
TOTAL RUN TIME: 0 days 0 hours 0 minutes 28 seconds 50 msec
