                         Program Version 4.2.1 -  RELEASE  -
|  1> ! wB97X-D3 SP def2-SVP
|  2> %pal
|  3> nprocs 16
|  4> end
|  5>
|  6> * xyz 0 1
|  7> S 	 -1.73867 	 -25.2196 	 60.9927
|  8> C 	 -2.88268 	 -24.5322 	 59.9169
|  9> C 	 -2.82643 	 -23.1736 	 59.8162
| 10> C 	 -1.64866 	 -22.6663 	 60.3969
| 11> C 	 -0.88037 	 -23.626 	 61.0476
| 12> H 	 -1.30791 	 -21.6472 	 60.2441
| 13> C 	 -3.65975 	 -22.2999 	 58.8687
| 14> H 	 -4.14454 	 -22.832 	 58.0844
| 15> H 	 -2.91008 	 -21.5418 	 58.4416
| 16> C 	 -4.65782 	 -21.5142 	 59.669
| 17> H 	 -5.27442 	 -20.9349 	 58.979
| 18> H 	 -5.26084 	 -22.2941 	 60.0764
| 19> C 	 -4.1481 	 -20.6617 	 60.7975
| 20> H 	 -3.38438 	 -19.9609 	 60.6024
| 21> H 	 -4.9874 	 -19.9495 	 61.091
| 22> H 	 -3.91062 	 -21.1558 	 61.7782
| 23> S 	 0.605288 	 -24.2711 	 63.1941
| 24> C 	 2.2063 	 -23.6857 	 63.3581
| 25> C 	 2.6174 	 -22.9359 	 62.2521
| 26> C 	 1.63261 	 -22.8982 	 61.2136
| 27> C 	 0.473247 	 -23.5434 	 61.6253
| 28> H 	 3.55354 	 -22.3666 	 62.2281
| 29> C 	 1.84487 	 -21.9517 	 60.0033
| 30> H 	 0.951588 	 -21.9571 	 59.4113
| 31> H 	 2.58306 	 -22.4052 	 59.3161
| 32> C 	 2.12092 	 -20.5283 	 60.3634
| 33> H 	 2.08486 	 -19.9996 	 59.4242
| 34> H 	 3.09863 	 -20.3731 	 60.7888
| 35> C 	 1.02173 	 -19.8765 	 61.2267
| 36> H 	 0.890632 	 -20.33 	 62.182
| 37> H 	 0.106826 	 -19.9848 	 60.6054
| 38> H 	 1.15975 	 -18.7891 	 61.3
| 39> H 	 -3.72235 	 -25.0915 	 59.5658
| 40> H 	 2.70789 	 -23.7071 	 64.3426
| 41> *
| 42>
| 43>                          ****END OF INPUT****

CARTESIAN COORDINATES (ANGSTROEM)
---------------------------------
  S     -1.738670  -25.219600   60.992700
  C     -2.882680  -24.532200   59.916900
  C     -2.826430  -23.173600   59.816200
  C     -1.648660  -22.666300   60.396900
  C     -0.880370  -23.626000   61.047600
  H     -1.307910  -21.647200   60.244100
  C     -3.659750  -22.299900   58.868700
  H     -4.144540  -22.832000   58.084400
  H     -2.910080  -21.541800   58.441600
  C     -4.657820  -21.514200   59.669000
  H     -5.274420  -20.934900   58.979000
  H     -5.260840  -22.294100   60.076400
  C     -4.148100  -20.661700   60.797500
  H     -3.384380  -19.960900   60.602400
  H     -4.987400  -19.949500   61.091000
  H     -3.910620  -21.155800   61.778200
  S      0.605288  -24.271100   63.194100
  C      2.206300  -23.685700   63.358100
  C      2.617400  -22.935900   62.252100
  C      1.632610  -22.898200   61.213600
  C      0.473247  -23.543400   61.625300
  H      3.553540  -22.366600   62.228100
  C      1.844870  -21.951700   60.003300
  H      0.951588  -21.957100   59.411300
  H      2.583060  -22.405200   59.316100
  C      2.120920  -20.528300   60.363400
  H      2.084860  -19.999600   59.424200
  H      3.098630  -20.373100   60.788800
  C      1.021730  -19.876500   61.226700
  H      0.890632  -20.330000   62.182000
  H      0.106826  -19.984800   60.605400
  H      1.159750  -18.789100   61.300000
  H     -3.722350  -25.091500   59.565800
  H      2.707890  -23.707100   64.342600

 Total Charge           Charge          ....    0
 Multiplicity           Mult            ....    1
 Number of Electrons    NEL             ....  134
 Basis Dimension        Dim             ....  322

ORBITAL ENERGIES
----------------

  NO   OCC          E(Eh)            E(eV)
   0   2.0000     -88.965701     -2420.8798
   1   2.0000     -88.963936     -2420.8318
   2   2.0000     -10.332479      -281.1610
   3   2.0000     -10.326230      -280.9910
   4   2.0000     -10.317130      -280.7434
   5   2.0000     -10.306587      -280.4565
   6   2.0000     -10.304295      -280.3941
   7   2.0000     -10.296252      -280.1753
   8   2.0000     -10.293953      -280.1127
   9   2.0000     -10.293430      -280.0985
  10   2.0000     -10.293085      -280.0891
  11   2.0000     -10.292305      -280.0678
  12   2.0000     -10.284211      -279.8476
  13   2.0000     -10.280613      -279.7497
  14   2.0000     -10.279178      -279.7107
  15   2.0000     -10.278680      -279.6971
  16   2.0000      -8.081625      -219.9122
  17   2.0000      -8.078693      -219.8324
  18   2.0000      -6.039941      -164.3552
  19   2.0000      -6.037177      -164.2799
  20   2.0000      -6.036001      -164.2479
  21   2.0000      -6.033351      -164.1758
  22   2.0000      -6.032476      -164.1520
  23   2.0000      -6.029331      -164.0664
  24   2.0000      -1.007351       -27.4114
  25   2.0000      -0.986935       -26.8559
  26   2.0000      -0.918002       -24.9801
  27   2.0000      -0.915912       -24.9232
  28   2.0000      -0.865037       -23.5388
  29   2.0000      -0.851364       -23.1668
  30   2.0000      -0.845055       -22.9951
  31   2.0000      -0.811136       -22.0721
  32   2.0000      -0.787876       -21.4392
  33   2.0000      -0.775324       -21.0977
  34   2.0000      -0.705185       -19.1891
  35   2.0000      -0.697916       -18.9913
  36   2.0000      -0.690078       -18.7780
  37   2.0000      -0.660469       -17.9723
  38   2.0000      -0.639078       -17.3902
  39   2.0000      -0.621854       -16.9215
  40   2.0000      -0.601293       -16.3620
  41   2.0000      -0.573596       -15.6083
  42   2.0000      -0.556900       -15.1540
  43   2.0000      -0.550957       -14.9923
  44   2.0000      -0.546862       -14.8809
  45   2.0000      -0.539217       -14.6728
  46   2.0000      -0.515100       -14.0166
  47   2.0000      -0.506623       -13.7859
  48   2.0000      -0.495605       -13.4861
  49   2.0000      -0.494842       -13.4653
  50   2.0000      -0.491960       -13.3869
  51   2.0000      -0.479166       -13.0388
  52   2.0000      -0.468514       -12.7489
  53   2.0000      -0.465504       -12.6670
  54   2.0000      -0.459229       -12.4962
  55   2.0000      -0.449809       -12.2399
  56   2.0000      -0.447354       -12.1731
  57   2.0000      -0.442915       -12.0523
  58   2.0000      -0.438626       -11.9356
  59   2.0000      -0.419118       -11.4048
  60   2.0000      -0.418733       -11.3943
  61   2.0000      -0.417944       -11.3728
  62   2.0000      -0.411491       -11.1972
  63   2.0000      -0.348477        -9.4825
  64   2.0000      -0.333870        -9.0851
  65   2.0000      -0.331037        -9.0080
  66   2.0000      -0.286022        -7.7831
  67   0.0000       0.032835         0.8935
  68   0.0000       0.065719         1.7883
  69   0.0000       0.105100         2.8599
  70   0.0000       0.112634         3.0649
  71   0.0000       0.130708         3.5567

MULLIKEN ATOMIC CHARGES
-----------------------
   0 S :    0.102348
   1 C :   -0.112196
   2 C :   -0.091260
   3 C :    0.041326
   4 C :   -0.126293
   5 H :   -0.016710
   6 C :    0.055455
   7 H :    0.021289
   8 H :    0.030845
   9 C :   -0.032308
  10 H :    0.028813
  11 H :    0.014915
  12 C :   -0.073142
  13 H :    0.016821
  14 H :    0.030319
  15 H :    0.054954
  16 S :    0.112973
  17 C :   -0.099667
  18 C :   -0.056075
  19 C :   -0.046686
  20 C :   -0.167923
  21 H :    0.028379
  22 C :    0.083666
  23 H :    0.002489
  24 H :    0.040052
  25 C :   -0.061598
  26 H :    0.024982
  27 H :    0.027219
  28 C :   -0.054054
  29 H :    0.052628
  30 H :    0.023075
  31 H :    0.036306
  32 H :    0.037533
  33 H :    0.071527
Sum of atomic charges:   -0.0000000

LOEWDIN ATOMIC CHARGES
----------------------
   0 S :    0.387848
   1 C :   -0.198144
   2 C :   -0.070235
   3 C :   -0.057272
   4 C :   -0.173103
   5 H :    0.024848
   6 C :   -0.023668
   7 H :    0.025400
   8 H :    0.032978
   9 C :   -0.044697
  10 H :    0.024091
  11 H :    0.023923
  12 C :   -0.077176
  13 H :    0.014344
  14 H :    0.037198
  15 H :    0.036733
  16 S :    0.429776
  17 C :   -0.204454
  18 C :   -0.071700
  19 C :   -0.058116
  20 C :   -0.204488
  21 H :    0.033865
  22 C :   -0.029651
  23 H :    0.024275
  24 H :    0.038395
  25 C :   -0.039170
  26 H :    0.028142
  27 H :    0.016527
  28 C :   -0.059159
  29 H :    0.023915
  30 H :    0.024528
  31 H :    0.029435
  32 H :    0.021016
  33 H :    0.033795

  Mayer bond orders larger than 0.100000
B(  0-S ,  1-C ) :   1.1460 B(  0-S ,  4-C ) :   1.1356 B(  1-C ,  2-C ) :   1.6354
B(  1-C ,  4-C ) :   0.1016 B(  1-C , 32-H ) :   0.9610 B(  2-C ,  3-C ) :   1.2365
B(  2-C ,  6-C ) :   1.0059 B(  3-C ,  4-C ) :   1.5864 B(  3-C ,  5-H ) :   0.9894
B(  4-C , 20-C ) :   1.0174 B(  6-C ,  7-H ) :   0.9505 B(  6-C ,  8-H ) :   0.9477
B(  6-C ,  9-C ) :   1.0728 B(  9-C , 10-H ) :   0.9564 B(  9-C , 11-H ) :   0.9457
B(  9-C , 12-C ) :   1.0900 B( 12-C , 13-H ) :   0.9730 B( 12-C , 14-H ) :   0.9677
B( 12-C , 15-H ) :   0.9672 B( 16-S , 17-C ) :   1.1667 B( 16-S , 20-C ) :   1.1669
B( 17-C , 18-C ) :   1.5917 B( 17-C , 33-H ) :   0.9652 B( 18-C , 19-C ) :   1.2415
B( 18-C , 21-H ) :   0.9878 B( 19-C , 20-C ) :   1.5928 B( 19-C , 22-C ) :   1.0374
B( 22-C , 23-H ) :   0.9347 B( 22-C , 24-H ) :   0.9285 B( 22-C , 25-C ) :   1.0828
B( 25-C , 26-H ) :   0.9509 B( 25-C , 27-H ) :   0.9522 B( 25-C , 28-C ) :   1.0732
B( 28-C , 29-H ) :   0.9765 B( 28-C , 30-H ) :   0.9701 B( 28-C , 31-H ) :   0.9699

Dispersion correction           -0.015698759
FINAL SINGLE POINT ENERGY     -1339.879975000431

DIPOLE MOMENT
-------------
                                X             Y             Z
Electronic contribution:      5.85854     -25.32395      10.00103
Nuclear contribution   :     -5.89653      26.04239     -10.29712
                        -----------------------------------------
Total Dipole Moment    :     -0.03799       0.71845      -0.29609
                        -----------------------------------------
Magnitude (a.u.)       :      0.77800
Magnitude (Debye)      :      1.97751

Rotational constants in cm-1:     0.019086     0.009880     0.007555
Rotational constants in MHz :   572.197474   296.201122   226.484596

                             ****ORCA TERMINATED NORMALLY****
TOTAL RUN TIME: 0 days 0 hours 0 minutes 37 seconds 415 msec
