                         Program Version 4.2.1 -  RELEASE  -
|  1> ! wB97X-D3 SP def2-SVP
|  2> %pal
|  3> nprocs 16
|  4> end
|  5>
|  6> * xyz 0 1
|  7> S 	 -4.40406 	 66.1589 	 52.5943
|  8> C 	 -4.90471 	 64.4913 	 52.2391
|  9> C 	 -6.16298 	 64.5268 	 51.6327
| 10> C 	 -6.78542 	 65.7992 	 51.6436
| 11> C 	 -6.0246 	 66.7749 	 52.3533
| 12> H 	 -7.76107 	 66.1305 	 51.3369
| 13> C 	 -6.85366 	 63.4409 	 50.9033
| 14> H 	 -7.86446 	 63.4524 	 51.1827
| 15> H 	 -6.45076 	 62.4907 	 51.377
| 16> C 	 -6.68753 	 63.2611 	 49.4145
| 17> H 	 -5.57744 	 63.2621 	 49.3074
| 18> H 	 -7.07896 	 62.3642 	 48.9781
| 19> C 	 -7.28922 	 64.4423 	 48.5425
| 20> H 	 -6.76866 	 64.4708 	 47.5981
| 21> H 	 -8.31431 	 64.2713 	 48.3021
| 22> H 	 -7.15735 	 65.4272 	 49.0619
| 23> S 	 -5.16717 	 69.4009 	 52.0797
| 24> C 	 -6.14242 	 70.6519 	 52.7568
| 25> C 	 -7.38959 	 70.1759 	 53.2098
| 26> C 	 -7.47423 	 68.7699 	 53.1431
| 27> C 	 -6.34132 	 68.1408 	 52.6048
| 28> H 	 -8.07702 	 70.8994 	 53.5634
| 29> C 	 -8.68166 	 67.9882 	 53.7827
| 30> H 	 -8.41284 	 67.3188 	 54.5884
| 31> H 	 -8.93395 	 67.2147 	 52.9926
| 32> C 	 -9.95946 	 68.8435 	 54.1165
| 33> H 	 -10.3774 	 69.3883 	 53.2475
| 34> H 	 -9.90011 	 69.5552 	 54.9658
| 35> C 	 -11.1586 	 67.8778 	 54.3775
| 36> H 	 -12.033 	 68.4843 	 54.4893
| 37> H 	 -11.0306 	 67.2681 	 55.3001
| 38> H 	 -11.3315 	 67.2589 	 53.4572
| 39> H 	 -4.33549 	 63.5946 	 52.2723
| 40> H 	 -5.91862 	 71.6916 	 52.7282
| 41> *
| 42>
| 43>                          ****END OF INPUT****

CARTESIAN COORDINATES (ANGSTROEM)
---------------------------------
  S     -4.404060   66.158900   52.594300
  C     -4.904710   64.491300   52.239100
  C     -6.162980   64.526800   51.632700
  C     -6.785420   65.799200   51.643600
  C     -6.024600   66.774900   52.353300
  H     -7.761070   66.130500   51.336900
  C     -6.853660   63.440900   50.903300
  H     -7.864460   63.452400   51.182700
  H     -6.450760   62.490700   51.377000
  C     -6.687530   63.261100   49.414500
  H     -5.577440   63.262100   49.307400
  H     -7.078960   62.364200   48.978100
  C     -7.289220   64.442300   48.542500
  H     -6.768660   64.470800   47.598100
  H     -8.314310   64.271300   48.302100
  H     -7.157350   65.427200   49.061900
  S     -5.167170   69.400900   52.079700
  C     -6.142420   70.651900   52.756800
  C     -7.389590   70.175900   53.209800
  C     -7.474230   68.769900   53.143100
  C     -6.341320   68.140800   52.604800
  H     -8.077020   70.899400   53.563400
  C     -8.681660   67.988200   53.782700
  H     -8.412840   67.318800   54.588400
  H     -8.933950   67.214700   52.992600
  C     -9.959460   68.843500   54.116500
  H    -10.377400   69.388300   53.247500
  H     -9.900110   69.555200   54.965800
  C    -11.158600   67.877800   54.377500
  H    -12.033000   68.484300   54.489300
  H    -11.030600   67.268100   55.300100
  H    -11.331500   67.258900   53.457200
  H     -4.335490   63.594600   52.272300
  H     -5.918620   71.691600   52.728200

 Total Charge           Charge          ....    0
 Multiplicity           Mult            ....    1
 Number of Electrons    NEL             ....  134
 Basis Dimension        Dim             ....  322

ORBITAL ENERGIES
----------------

  NO   OCC          E(Eh)            E(eV)
   0   2.0000     -88.968876     -2420.9662
   1   2.0000     -88.968415     -2420.9537
   2   2.0000     -10.332508      -281.1618
   3   2.0000     -10.328559      -281.0544
   4   2.0000     -10.317708      -280.7591
   5   2.0000     -10.317057      -280.7414
   6   2.0000     -10.310393      -280.5601
   7   2.0000     -10.303273      -280.3663
   8   2.0000     -10.302151      -280.3358
   9   2.0000     -10.297910      -280.2204
  10   2.0000     -10.296270      -280.1757
  11   2.0000     -10.293025      -280.0874
  12   2.0000     -10.288891      -279.9750
  13   2.0000     -10.286076      -279.8984
  14   2.0000     -10.283430      -279.8263
  15   2.0000     -10.275206      -279.6026
  16   2.0000      -8.082916      -219.9473
  17   2.0000      -8.082667      -219.9405
  18   2.0000      -6.041517      -164.3980
  19   2.0000      -6.041145      -164.3879
  20   2.0000      -6.037579      -164.2909
  21   2.0000      -6.037186      -164.2802
  22   2.0000      -6.033552      -164.1813
  23   2.0000      -6.033550      -164.1813
  24   2.0000      -1.004056       -27.3217
  25   2.0000      -0.980946       -26.6929
  26   2.0000      -0.913838       -24.8668
  27   2.0000      -0.899919       -24.4880
  28   2.0000      -0.869098       -23.6494
  29   2.0000      -0.851389       -23.1675
  30   2.0000      -0.841800       -22.9065
  31   2.0000      -0.811294       -22.0764
  32   2.0000      -0.783204       -21.3121
  33   2.0000      -0.770315       -20.9613
  34   2.0000      -0.708507       -19.2795
  35   2.0000      -0.704232       -19.1631
  36   2.0000      -0.698274       -19.0010
  37   2.0000      -0.655054       -17.8249
  38   2.0000      -0.642068       -17.4716
  39   2.0000      -0.612637       -16.6707
  40   2.0000      -0.594372       -16.1737
  41   2.0000      -0.576471       -15.6866
  42   2.0000      -0.563461       -15.3325
  43   2.0000      -0.552259       -15.0277
  44   2.0000      -0.543873       -14.7995
  45   2.0000      -0.526641       -14.3306
  46   2.0000      -0.513922       -13.9845
  47   2.0000      -0.510679       -13.8963
  48   2.0000      -0.502114       -13.6632
  49   2.0000      -0.500968       -13.6320
  50   2.0000      -0.488433       -13.2909
  51   2.0000      -0.481278       -13.0963
  52   2.0000      -0.468601       -12.7513
  53   2.0000      -0.461238       -12.5509
  54   2.0000      -0.460358       -12.5270
  55   2.0000      -0.450775       -12.2662
  56   2.0000      -0.446187       -12.1414
  57   2.0000      -0.436381       -11.8745
  58   2.0000      -0.430629       -11.7180
  59   2.0000      -0.428466       -11.6592
  60   2.0000      -0.419365       -11.4115
  61   2.0000      -0.413955       -11.2643
  62   2.0000      -0.404135       -10.9971
  63   2.0000      -0.346847        -9.4382
  64   2.0000      -0.334231        -9.0949
  65   2.0000      -0.329812        -8.9747
  66   2.0000      -0.282436        -7.6855
  67   0.0000       0.015449         0.4204
  68   0.0000       0.061904         1.6845
  69   0.0000       0.104073         2.8320
  70   0.0000       0.121652         3.3103
  71   0.0000       0.128470         3.4958

MULLIKEN ATOMIC CHARGES
-----------------------
   0 S :    0.109688
   1 C :   -0.086082
   2 C :   -0.097359
   3 C :    0.029684
   4 C :   -0.181383
   5 H :    0.019995
   6 C :    0.069666
   7 H :    0.010574
   8 H :    0.017983
   9 C :   -0.042818
  10 H :    0.024598
  11 H :    0.031784
  12 C :   -0.074980
  13 H :    0.031676
  14 H :    0.027769
  15 H :    0.046728
  16 S :    0.109215
  17 C :   -0.073312
  18 C :   -0.052708
  19 C :   -0.000259
  20 C :   -0.150675
  21 H :    0.011694
  22 C :    0.060868
  23 H :    0.044207
  24 H :    0.015111
  25 C :   -0.113087
  26 H :    0.039197
  27 H :    0.048920
  28 C :   -0.067682
  29 H :    0.025702
  30 H :    0.043356
  31 H :    0.040214
  32 H :    0.034299
  33 H :    0.047415
Sum of atomic charges:   -0.0000000

LOEWDIN ATOMIC CHARGES
----------------------
   0 S :    0.404233
   1 C :   -0.188320
   2 C :   -0.061895
   3 C :   -0.060931
   4 C :   -0.191291
   5 H :    0.027557
   6 C :   -0.038613
   7 H :    0.019689
   8 H :    0.036804
   9 C :   -0.033729
  10 H :    0.027362
  11 H :    0.023294
  12 C :   -0.069777
  13 H :    0.025619
  14 H :    0.018397
  15 H :    0.031494
  16 S :    0.401903
  17 C :   -0.183606
  18 C :   -0.071971
  19 C :   -0.050320
  20 C :   -0.196835
  21 H :    0.028158
  22 C :   -0.033241
  23 H :    0.034507
  24 H :    0.035498
  25 C :   -0.048356
  26 H :    0.030158
  27 H :    0.026803
  28 C :   -0.066095
  29 H :    0.020029
  30 H :    0.025729
  31 H :    0.028871
  32 H :    0.025101
  33 H :    0.023774

  Mayer bond orders larger than 0.100000
B(  0-S ,  1-C ) :   1.1282 B(  0-S ,  4-C ) :   1.1604 B(  1-C ,  2-C ) :   1.5826
B(  1-C ,  4-C ) :   0.1106 B(  1-C , 32-H ) :   0.9733 B(  2-C ,  3-C ) :   1.2519
B(  2-C ,  6-C ) :   1.0381 B(  3-C ,  4-C ) :   1.5188 B(  3-C ,  5-H ) :   0.9850
B(  4-C , 20-C ) :   1.1009 B(  6-C ,  7-H ) :   0.9364 B(  6-C ,  8-H ) :   0.9308
B(  6-C ,  9-C ) :   1.0709 B(  9-C , 10-H ) :   0.9547 B(  9-C , 11-H ) :   0.9579
B(  9-C , 12-C ) :   1.0711 B( 12-C , 13-H ) :   0.9753 B( 12-C , 14-H ) :   0.9777
B( 12-C , 15-H ) :   0.9736 B( 16-S , 17-C ) :   1.1754 B( 16-S , 20-C ) :   1.1271
B( 17-C , 18-C ) :   1.5762 B( 17-C , 20-C ) :   0.1098 B( 17-C , 33-H ) :   0.9663
B( 18-C , 19-C ) :   1.2696 B( 18-C , 21-H ) :   0.9970 B( 19-C , 20-C ) :   1.5736
B( 19-C , 22-C ) :   1.0105 B( 22-C , 23-H ) :   0.9404 B( 22-C , 24-H ) :   0.9348
B( 22-C , 25-C ) :   1.0640 B( 25-C , 26-H ) :   0.9589 B( 25-C , 27-H ) :   0.9531
B( 25-C , 28-C ) :   1.0781 B( 28-C , 29-H ) :   0.9756 B( 28-C , 30-H ) :   0.9759
B( 28-C , 31-H ) :   0.9769

Dispersion correction           -0.013831346
FINAL SINGLE POINT ENERGY     -1339.859679902004

DIPOLE MOMENT
-------------
                                X             Y             Z
Electronic contribution:     24.46384      10.99662       4.66260
Nuclear contribution   :    -25.11904     -11.10569      -4.75635
                        -----------------------------------------
Total Dipole Moment    :     -0.65520      -0.10907      -0.09375
                        -----------------------------------------
Magnitude (a.u.)       :      0.67080
Magnitude (Debye)      :      1.70504

Rotational constants in cm-1:     0.016531     0.008756     0.006795
Rotational constants in MHz :   495.585017   262.509823   203.698310

                             ****ORCA TERMINATED NORMALLY****
TOTAL RUN TIME: 0 days 0 hours 0 minutes 33 seconds 612 msec
