                         Program Version 4.2.1 -  RELEASE  -
|  1> ! wB97X-D3 SP def2-SVP
|  2> %pal
|  3> nprocs 16
|  4> end
|  5>
|  6> * xyz 0 1
|  7> S 	 -71.5235 	 42.2454 	 127.111
|  8> C 	 -71.0281 	 42.6804 	 128.764
|  9> C 	 -71.4663 	 41.6943 	 129.683
| 10> C 	 -72.0918 	 40.5557 	 129.052
| 11> C 	 -72.2608 	 40.7268 	 127.696
| 12> H 	 -72.5878 	 39.7043 	 129.552
| 13> C 	 -71.3451 	 41.7912 	 131.248
| 14> H 	 -71.9544 	 40.9826 	 131.63
| 15> H 	 -71.8138 	 42.692 	 131.479
| 16> C 	 -69.9933 	 41.7803 	 131.898
| 17> H 	 -69.4256 	 40.8368 	 131.798
| 18> H 	 -69.317 	 42.3369 	 131.268
| 19> C 	 -70.0807 	 42.5501 	 133.261
| 20> H 	 -69.0585 	 42.3473 	 133.615
| 21> H 	 -70.1019 	 43.6278 	 133.162
| 22> H 	 -70.8065 	 42.0942 	 133.9
| 23> S 	 -74.5521 	 39.4446 	 126.976
| 24> C 	 -74.4794 	 38.124 	 125.881
| 25> C 	 -73.324 	 38.1942 	 125.15
| 26> C 	 -72.3805 	 39.1515 	 125.62
| 27> C 	 -72.8964 	 39.7809 	 126.778
| 28> H 	 -73.2484 	 37.4471 	 124.365
| 29> C 	 -71.0459 	 39.3985 	 124.988
| 30> H 	 -70.9903 	 40.4229 	 124.892
| 31> H 	 -70.9327 	 39.0109 	 123.991
| 32> C 	 -69.8548 	 38.9054 	 125.722
| 33> H 	 -69.7594 	 37.8454 	 125.767
| 34> H 	 -69.8892 	 39.215 	 126.775
| 35> C 	 -68.5979 	 39.5754 	 125.097
| 36> H 	 -68.4163 	 40.5107 	 125.542
| 37> H 	 -68.824 	 39.7999 	 124.082
| 38> H 	 -67.648 	 39.1665 	 125.268
| 39> H 	 -70.6195 	 43.6706 	 129.035
| 40> H 	 -75.3387 	 37.4039 	 125.627
| 41> *
| 42>
| 43>                          ****END OF INPUT****

CARTESIAN COORDINATES (ANGSTROEM)
---------------------------------
  S    -71.523500   42.245400  127.111000
  C    -71.028100   42.680400  128.764000
  C    -71.466300   41.694300  129.683000
  C    -72.091800   40.555700  129.052000
  C    -72.260800   40.726800  127.696000
  H    -72.587800   39.704300  129.552000
  C    -71.345100   41.791200  131.248000
  H    -71.954400   40.982600  131.630000
  H    -71.813800   42.692000  131.479000
  C    -69.993300   41.780300  131.898000
  H    -69.425600   40.836800  131.798000
  H    -69.317000   42.336900  131.268000
  C    -70.080700   42.550100  133.261000
  H    -69.058500   42.347300  133.615000
  H    -70.101900   43.627800  133.162000
  H    -70.806500   42.094200  133.900000
  S    -74.552100   39.444600  126.976000
  C    -74.479400   38.124000  125.881000
  C    -73.324000   38.194200  125.150000
  C    -72.380500   39.151500  125.620000
  C    -72.896400   39.780900  126.778000
  H    -73.248400   37.447100  124.365000
  C    -71.045900   39.398500  124.988000
  H    -70.990300   40.422900  124.892000
  H    -70.932700   39.010900  123.991000
  C    -69.854800   38.905400  125.722000
  H    -69.759400   37.845400  125.767000
  H    -69.889200   39.215000  126.775000
  C    -68.597900   39.575400  125.097000
  H    -68.416300   40.510700  125.542000
  H    -68.824000   39.799900  124.082000
  H    -67.648000   39.166500  125.268000
  H    -70.619500   43.670600  129.035000
  H    -75.338700   37.403900  125.627000

 Total Charge           Charge          ....    0
 Multiplicity           Mult            ....    1
 Number of Electrons    NEL             ....  134
 Basis Dimension        Dim             ....  322

ORBITAL ENERGIES
----------------

  NO   OCC          E(Eh)            E(eV)
   0   2.0000     -88.969016     -2420.9700
   1   2.0000     -88.964634     -2420.8508
   2   2.0000     -10.332337      -281.1572
   3   2.0000     -10.323417      -280.9145
   4   2.0000     -10.322519      -280.8900
   5   2.0000     -10.314407      -280.6693
   6   2.0000     -10.309866      -280.5457
   7   2.0000     -10.302693      -280.3505
   8   2.0000     -10.299021      -280.2506
   9   2.0000     -10.289132      -279.9815
  10   2.0000     -10.285912      -279.8939
  11   2.0000     -10.285369      -279.8791
  12   2.0000     -10.282251      -279.7943
  13   2.0000     -10.276914      -279.6491
  14   2.0000     -10.274282      -279.5774
  15   2.0000     -10.260006      -279.1890
  16   2.0000      -8.082217      -219.9283
  17   2.0000      -8.080658      -219.8859
  18   2.0000      -6.040810      -164.3788
  19   2.0000      -6.038968      -164.3287
  20   2.0000      -6.036891      -164.2722
  21   2.0000      -6.034991      -164.2205
  22   2.0000      -6.033035      -164.1672
  23   2.0000      -6.031552      -164.1269
  24   2.0000      -1.009312       -27.4648
  25   2.0000      -0.978963       -26.6389
  26   2.0000      -0.917828       -24.9754
  27   2.0000      -0.910519       -24.7765
  28   2.0000      -0.866935       -23.5905
  29   2.0000      -0.850261       -23.1368
  30   2.0000      -0.844231       -22.9727
  31   2.0000      -0.812527       -22.1100
  32   2.0000      -0.783572       -21.3221
  33   2.0000      -0.769498       -20.9391
  34   2.0000      -0.708843       -19.2886
  35   2.0000      -0.707154       -19.2426
  36   2.0000      -0.690825       -18.7983
  37   2.0000      -0.657823       -17.9003
  38   2.0000      -0.637238       -17.3401
  39   2.0000      -0.618180       -16.8215
  40   2.0000      -0.599664       -16.3177
  41   2.0000      -0.569941       -15.5089
  42   2.0000      -0.565978       -15.4011
  43   2.0000      -0.553099       -15.0506
  44   2.0000      -0.527452       -14.3527
  45   2.0000      -0.524633       -14.2760
  46   2.0000      -0.517382       -14.0787
  47   2.0000      -0.512352       -13.9418
  48   2.0000      -0.501655       -13.6507
  49   2.0000      -0.496104       -13.4997
  50   2.0000      -0.493927       -13.4404
  51   2.0000      -0.483354       -13.1527
  52   2.0000      -0.471734       -12.8365
  53   2.0000      -0.467241       -12.7143
  54   2.0000      -0.466129       -12.6840
  55   2.0000      -0.447525       -12.1778
  56   2.0000      -0.444530       -12.0963
  57   2.0000      -0.436288       -11.8720
  58   2.0000      -0.432961       -11.7815
  59   2.0000      -0.423742       -11.5306
  60   2.0000      -0.419695       -11.4205
  61   2.0000      -0.410585       -11.1726
  62   2.0000      -0.401803       -10.9336
  63   2.0000      -0.339939        -9.2502
  64   2.0000      -0.333828        -9.0839
  65   2.0000      -0.325282        -8.8514
  66   2.0000      -0.294073        -8.0021
  67   0.0000       0.028522         0.7761
  68   0.0000       0.067161         1.8275
  69   0.0000       0.106042         2.8855
  70   0.0000       0.116974         3.1830
  71   0.0000       0.128602         3.4994

MULLIKEN ATOMIC CHARGES
-----------------------
   0 S :    0.103502
   1 C :   -0.140913
   2 C :   -0.108061
   3 C :    0.028199
   4 C :   -0.165272
   5 H :    0.034111
   6 C :    0.113743
   7 H :    0.017823
   8 H :    0.013056
   9 C :   -0.084094
  10 H :    0.032315
  11 H :    0.005105
  12 C :   -0.045580
  13 H :    0.029135
  14 H :    0.045719
  15 H :    0.045536
  16 S :    0.132246
  17 C :   -0.134481
  18 C :   -0.052790
  19 C :   -0.004050
  20 C :   -0.185407
  21 H :    0.015328
  22 C :    0.117951
  23 H :   -0.002825
  24 H :    0.013727
  25 C :   -0.064640
  26 H :    0.021191
  27 H :    0.032943
  28 C :    0.000783
  29 H :    0.009471
  30 H :    0.015512
  31 H :    0.014241
  32 H :    0.065142
  33 H :    0.081335
Sum of atomic charges:    0.0000000

LOEWDIN ATOMIC CHARGES
----------------------
   0 S :    0.383507
   1 C :   -0.200538
   2 C :   -0.055126
   3 C :   -0.066370
   4 C :   -0.183813
   5 H :    0.040552
   6 C :   -0.027059
   7 H :    0.027915
   8 H :    0.024634
   9 C :   -0.049621
  10 H :    0.029928
  11 H :    0.020257
  12 C :   -0.058546
  13 H :    0.032470
  14 H :    0.028765
  15 H :    0.022836
  16 S :    0.445437
  17 C :   -0.218018
  18 C :   -0.076051
  19 C :   -0.047904
  20 C :   -0.220143
  21 H :    0.031803
  22 C :   -0.031332
  23 H :    0.016292
  24 H :    0.031936
  25 C :   -0.030643
  26 H :    0.017590
  27 H :    0.026274
  28 C :   -0.058935
  29 H :    0.023433
  30 H :    0.019313
  31 H :    0.019479
  32 H :    0.033977
  33 H :    0.047701

  Mayer bond orders larger than 0.100000
B(  0-S ,  1-C ) :   1.1290 B(  0-S ,  4-C ) :   1.1406 B(  1-C ,  2-C ) :   1.6101
B(  1-C , 32-H ) :   0.9671 B(  2-C ,  3-C ) :   1.2342 B(  2-C ,  6-C ) :   1.0043
B(  3-C ,  4-C ) :   1.5973 B(  3-C ,  5-H ) :   0.9821 B(  4-C , 20-C ) :   1.0296
B(  6-C ,  7-H ) :   0.9397 B(  6-C ,  8-H ) :   0.9381 B(  6-C ,  9-C ) :   1.0661
B(  9-C , 10-H ) :   0.9562 B(  9-C , 11-H ) :   0.9519 B(  9-C , 12-C ) :   1.0618
B( 12-C , 13-H ) :   0.9732 B( 12-C , 14-H ) :   0.9746 B( 12-C , 15-H ) :   0.9808
B( 16-S , 17-C ) :   1.1628 B( 16-S , 20-C ) :   1.1850 B( 17-C , 18-C ) :   1.5926
B( 17-C , 20-C ) :   0.1011 B( 17-C , 33-H ) :   0.9572 B( 18-C , 19-C ) :   1.2614
B( 18-C , 21-H ) :   0.9937 B( 19-C , 20-C ) :   1.5222 B( 19-C , 22-C ) :   1.0410
B( 22-C , 23-H ) :   0.9211 B( 22-C , 24-H ) :   0.9232 B( 22-C , 25-C ) :   1.0732
B( 25-C , 26-H ) :   0.9582 B( 25-C , 27-H ) :   0.9581 B( 25-C , 28-C ) :   1.0675
B( 28-C , 29-H ) :   0.9692 B( 28-C , 30-H ) :   0.9735 B( 28-C , 31-H ) :   0.9712

Dispersion correction           -0.014298200
FINAL SINGLE POINT ENERGY     -1339.850518574104

DIPOLE MOMENT
-------------
                                X             Y             Z
Electronic contribution:    -20.49443      -0.32694     -11.59794
Nuclear contribution   :     20.75078       0.28138      11.85918
                        -----------------------------------------
Total Dipole Moment    :      0.25636      -0.04556       0.26124
                        -----------------------------------------
Magnitude (a.u.)       :      0.36884
Magnitude (Debye)      :      0.93751

Rotational constants in cm-1:     0.020165     0.007856     0.006502
Rotational constants in MHz :   604.541280   235.511477   194.918928

                             ****ORCA TERMINATED NORMALLY****
TOTAL RUN TIME: 0 days 0 hours 0 minutes 31 seconds 379 msec
