                         Program Version 4.2.1 -  RELEASE  -
|  1> ! wB97X-D3 SP def2-SVP
|  2> %pal
|  3> nprocs 16
|  4> end
|  5>
|  6> * xyz 0 1
|  7> S 	 -52.8349 	 13.7817 	 90.0771
|  8> C 	 -51.9825 	 15.2396 	 90.7192
|  9> C 	 -51.7958 	 16.1779 	 89.7467
| 10> C 	 -52.3737 	 15.7911 	 88.5041
| 11> C 	 -52.8906 	 14.4729 	 88.4283
| 12> H 	 -52.2636 	 16.3431 	 87.5222
| 13> C 	 -51.2519 	 17.4896 	 89.9892
| 14> H 	 -51.984 	 18.273 	 89.738
| 15> H 	 -50.4613 	 17.7229 	 89.3152
| 16> C 	 -50.9122 	 17.9874 	 91.3594
| 17> H 	 -51.7149 	 18.1003 	 92.0588
| 18> H 	 -50.1348 	 17.2842 	 91.7758
| 19> C 	 -50.0677 	 19.2289 	 91.3724
| 20> H 	 -49.1881 	 18.9977 	 90.7419
| 21> H 	 -50.6563 	 20.0978 	 91.0492
| 22> H 	 -49.6651 	 19.3826 	 92.3677
| 23> S 	 -52.3121 	 12.0537 	 87.2648
| 24> C 	 -52.9162 	 11.7604 	 85.578
| 25> C 	 -53.9077 	 12.6894 	 85.2489
| 26> C 	 -54.0285 	 13.7412 	 86.1787
| 27> C 	 -53.1624 	 13.5646 	 87.2641
| 28> H 	 -54.4044 	 12.6508 	 84.3096
| 29> C 	 -55.0995 	 14.8307 	 85.9779
| 30> H 	 -55.2293 	 15.5089 	 86.8375
| 31> H 	 -56.0728 	 14.4199 	 85.6994
| 32> C 	 -54.7964 	 15.7472 	 84.8078
| 33> H 	 -55.6284 	 16.4241 	 84.5686
| 34> H 	 -54.7645 	 15.1182 	 83.8597
| 35> C 	 -53.5103 	 16.6455 	 84.9881
| 36> H 	 -52.5649 	 16.0276 	 85.2525
| 37> H 	 -53.7002 	 17.4665 	 85.7173
| 38> H 	 -53.3183 	 17.0834 	 83.9559
| 39> H 	 -51.807 	 15.49 	 91.7658
| 40> H 	 -52.7105 	 10.8341 	 85.0251
| 41> *
| 42>
| 43>                          ****END OF INPUT****

CARTESIAN COORDINATES (ANGSTROEM)
---------------------------------
  S    -52.834900   13.781700   90.077100
  C    -51.982500   15.239600   90.719200
  C    -51.795800   16.177900   89.746700
  C    -52.373700   15.791100   88.504100
  C    -52.890600   14.472900   88.428300
  H    -52.263600   16.343100   87.522200
  C    -51.251900   17.489600   89.989200
  H    -51.984000   18.273000   89.738000
  H    -50.461300   17.722900   89.315200
  C    -50.912200   17.987400   91.359400
  H    -51.714900   18.100300   92.058800
  H    -50.134800   17.284200   91.775800
  C    -50.067700   19.228900   91.372400
  H    -49.188100   18.997700   90.741900
  H    -50.656300   20.097800   91.049200
  H    -49.665100   19.382600   92.367700
  S    -52.312100   12.053700   87.264800
  C    -52.916200   11.760400   85.578000
  C    -53.907700   12.689400   85.248900
  C    -54.028500   13.741200   86.178700
  C    -53.162400   13.564600   87.264100
  H    -54.404400   12.650800   84.309600
  C    -55.099500   14.830700   85.977900
  H    -55.229300   15.508900   86.837500
  H    -56.072800   14.419900   85.699400
  C    -54.796400   15.747200   84.807800
  H    -55.628400   16.424100   84.568600
  H    -54.764500   15.118200   83.859700
  C    -53.510300   16.645500   84.988100
  H    -52.564900   16.027600   85.252500
  H    -53.700200   17.466500   85.717300
  H    -53.318300   17.083400   83.955900
  H    -51.807000   15.490000   91.765800
  H    -52.710500   10.834100   85.025100

 Total Charge           Charge          ....    0
 Multiplicity           Mult            ....    1
 Number of Electrons    NEL             ....  134
 Basis Dimension        Dim             ....  322

ORBITAL ENERGIES
----------------

  NO   OCC          E(Eh)            E(eV)
   0   2.0000     -88.970449     -2421.0090
   1   2.0000     -88.963717     -2420.8258
   2   2.0000     -10.339726      -281.3583
   3   2.0000     -10.334725      -281.2222
   4   2.0000     -10.325602      -280.9739
   5   2.0000     -10.314610      -280.6748
   6   2.0000     -10.307104      -280.4706
   7   2.0000     -10.301359      -280.3142
   8   2.0000     -10.297707      -280.2149
   9   2.0000     -10.296615      -280.1851
  10   2.0000     -10.295491      -280.1545
  11   2.0000     -10.294090      -280.1164
  12   2.0000     -10.293772      -280.1078
  13   2.0000     -10.284747      -279.8622
  14   2.0000     -10.284452      -279.8542
  15   2.0000     -10.280838      -279.7558
  16   2.0000      -8.084347      -219.9863
  17   2.0000      -8.076959      -219.7852
  18   2.0000      -6.042866      -164.4347
  19   2.0000      -6.039132      -164.3331
  20   2.0000      -6.035689      -164.2394
  21   2.0000      -6.034946      -164.2192
  22   2.0000      -6.031657      -164.1297
  23   2.0000      -6.027584      -164.0189
  24   2.0000      -0.999948       -27.2100
  25   2.0000      -0.979717       -26.6595
  26   2.0000      -0.925371       -25.1806
  27   2.0000      -0.906494       -24.6670
  28   2.0000      -0.871468       -23.7138
  29   2.0000      -0.846438       -23.0328
  30   2.0000      -0.840013       -22.8579
  31   2.0000      -0.810910       -22.0660
  32   2.0000      -0.782547       -21.2942
  33   2.0000      -0.773377       -21.0447
  34   2.0000      -0.708898       -19.2901
  35   2.0000      -0.694633       -18.9019
  36   2.0000      -0.685541       -18.6545
  37   2.0000      -0.661973       -18.0132
  38   2.0000      -0.633534       -17.2393
  39   2.0000      -0.609604       -16.5882
  40   2.0000      -0.598158       -16.2767
  41   2.0000      -0.587103       -15.9759
  42   2.0000      -0.575599       -15.6628
  43   2.0000      -0.549010       -14.9393
  44   2.0000      -0.541486       -14.7346
  45   2.0000      -0.520077       -14.1520
  46   2.0000      -0.518460       -14.1080
  47   2.0000      -0.511457       -13.9174
  48   2.0000      -0.508585       -13.8393
  49   2.0000      -0.494116       -13.4456
  50   2.0000      -0.487685       -13.2706
  51   2.0000      -0.480462       -13.0740
  52   2.0000      -0.471306       -12.8249
  53   2.0000      -0.459189       -12.4952
  54   2.0000      -0.454684       -12.3726
  55   2.0000      -0.447343       -12.1728
  56   2.0000      -0.443915       -12.0796
  57   2.0000      -0.437045       -11.8926
  58   2.0000      -0.433684       -11.8011
  59   2.0000      -0.425275       -11.5723
  60   2.0000      -0.418934       -11.3998
  61   2.0000      -0.414228       -11.2717
  62   2.0000      -0.401506       -10.9255
  63   2.0000      -0.347038        -9.4434
  64   2.0000      -0.332213        -9.0400
  65   2.0000      -0.326642        -8.8884
  66   2.0000      -0.290935        -7.9168
  67   0.0000       0.026345         0.7169
  68   0.0000       0.060416         1.6440
  69   0.0000       0.100911         2.7459
  70   0.0000       0.116772         3.1775
  71   0.0000       0.126363         3.4385

MULLIKEN ATOMIC CHARGES
-----------------------
   0 S :    0.075826
   1 C :   -0.118316
   2 C :   -0.057530
   3 C :    0.021629
   4 C :   -0.148134
   5 H :    0.018396
   6 C :    0.072034
   7 H :    0.026132
   8 H :    0.016391
   9 C :   -0.122495
  10 H :    0.036663
  11 H :    0.024476
  12 C :   -0.043418
  13 H :    0.032206
  14 H :    0.034910
  15 H :    0.032919
  16 S :    0.114687
  17 C :   -0.112796
  18 C :   -0.018677
  19 C :   -0.018923
  20 C :   -0.157205
  21 H :    0.015661
  22 C :    0.100203
  23 H :    0.030944
  24 H :    0.033467
  25 C :   -0.128562
  26 H :    0.032346
  27 H :    0.027300
  28 C :   -0.114787
  29 H :    0.071680
  30 H :    0.053317
  31 H :    0.044904
  32 H :    0.056534
  33 H :    0.068219
Sum of atomic charges:   -0.0000000

LOEWDIN ATOMIC CHARGES
----------------------
   0 S :    0.358768
   1 C :   -0.180220
   2 C :   -0.069402
   3 C :   -0.068289
   4 C :   -0.174612
   5 H :    0.038129
   6 C :   -0.042480
   7 H :    0.041740
   8 H :    0.031187
   9 C :   -0.049283
  10 H :    0.019926
  11 H :    0.026348
  12 C :   -0.057517
  13 H :    0.028860
  14 H :    0.021654
  15 H :    0.027330
  16 S :    0.398340
  17 C :   -0.171022
  18 C :   -0.058578
  19 C :   -0.058594
  20 C :   -0.201112
  21 H :    0.028126
  22 C :   -0.030854
  23 H :    0.032601
  24 H :    0.035871
  25 C :   -0.051401
  26 H :    0.024277
  27 H :    0.022288
  28 C :   -0.084020
  29 H :    0.035724
  30 H :    0.027467
  31 H :    0.034013
  32 H :    0.032442
  33 H :    0.032295

  Mayer bond orders larger than 0.100000
B(  0-S ,  1-C ) :   1.1057 B(  0-S ,  4-C ) :   1.1375 B(  1-C ,  2-C ) :   1.6470
B(  1-C , 32-H ) :   0.9498 B(  2-C ,  3-C ) :   1.2368 B(  2-C ,  6-C ) :   1.0349
B(  3-C ,  4-C ) :   1.5859 B(  3-C ,  5-H ) :   0.9744 B(  4-C , 20-C ) :   1.0155
B(  6-C ,  7-H ) :   0.9275 B(  6-C ,  8-H ) :   0.9227 B(  6-C ,  9-C ) :   1.0786
B(  9-C , 10-H ) :   0.9524 B(  9-C , 11-H ) :   0.9468 B(  9-C , 12-C ) :   1.0871
B( 12-C , 13-H ) :   0.9754 B( 12-C , 14-H ) :   0.9733 B( 12-C , 15-H ) :   0.9732
B( 16-S , 17-C ) :   1.1364 B( 16-S , 20-C ) :   1.1561 B( 17-C , 18-C ) :   1.6047
B( 17-C , 20-C ) :   0.1028 B( 17-C , 33-H ) :   0.9666 B( 18-C , 19-C ) :   1.2478
B( 18-C , 21-H ) :   0.9883 B( 19-C , 20-C ) :   1.5808 B( 19-C , 22-C ) :   1.0404
B( 22-C , 23-H ) :   0.9379 B( 22-C , 24-H ) :   0.9388 B( 22-C , 25-C ) :   1.0664
B( 25-C , 26-H ) :   0.9549 B( 25-C , 27-H ) :   0.9586 B( 25-C , 28-C ) :   1.0629
B( 28-C , 29-H ) :   0.9648 B( 28-C , 30-H ) :   0.9705 B( 28-C , 31-H ) :   0.9704

Dispersion correction           -0.014220451
FINAL SINGLE POINT ENERGY     -1339.861044964654

DIPOLE MOMENT
-------------
                                X             Y             Z
Electronic contribution:     -2.30881     -27.85404       3.22874
Nuclear contribution   :      2.19983      28.45946      -3.57079
                        -----------------------------------------
Total Dipole Moment    :     -0.10898       0.60542      -0.34205
                        -----------------------------------------
Magnitude (a.u.)       :      0.70385
Magnitude (Debye)      :      1.78904

Rotational constants in cm-1:     0.021462     0.007752     0.006218
Rotational constants in MHz :   643.429273   232.408055   186.425535

                             ****ORCA TERMINATED NORMALLY****
TOTAL RUN TIME: 0 days 0 hours 0 minutes 29 seconds 542 msec
