                         Program Version 4.2.1 -  RELEASE  -
|  1> ! wB97X-D3 SP def2-SVP
|  2> %pal
|  3> nprocs 16
|  4> end
|  5>
|  6> * xyz 0 1
|  7> S 	 -47.7249 	 30.9331 	 88.378
|  8> C 	 -48.442 	 29.3927 	 88.374
|  9> C 	 -49.5811 	 29.3566 	 87.5586
| 10> C 	 -49.8796 	 30.6232 	 87.0035
| 11> C 	 -48.9555 	 31.5866 	 87.3792
| 12> H 	 -50.538 	 30.961 	 86.1921
| 13> C 	 -50.2802 	 28.1124 	 87.222
| 14> H 	 -49.6464 	 27.2861 	 86.8621
| 15> H 	 -51.0019 	 28.3384 	 86.4559
| 16> C 	 -51.2238 	 27.6385 	 88.3477
| 17> H 	 -50.8488 	 27.8964 	 89.3296
| 18> H 	 -52.1582 	 28.2324 	 88.2694
| 19> C 	 -51.5528 	 26.15 	 88.3653
| 20> H 	 -50.6591 	 25.6418 	 88.2257
| 21> H 	 -51.9881 	 25.7529 	 89.2475
| 22> H 	 -52.2457 	 25.985 	 87.5724
| 23> S 	 -48.5494 	 33.1479 	 85.0717
| 24> C 	 -48.5836 	 34.8657 	 85.1967
| 25> C 	 -48.3611 	 35.2131 	 86.5282
| 26> C 	 -48.6314 	 34.1523 	 87.4505
| 27> C 	 -48.8435 	 32.9487 	 86.8078
| 28> H 	 -48.0291 	 36.2116 	 86.8253
| 29> C 	 -48.5403 	 34.3312 	 88.9467
| 30> H 	 -48.211 	 33.493 	 89.5513
| 31> H 	 -49.5933 	 34.2718 	 89.2286
| 32> C 	 -47.9329 	 35.6142 	 89.6349
| 33> H 	 -48.1129 	 36.6378 	 89.2427
| 34> H 	 -46.8888 	 35.2987 	 89.5154
| 35> C 	 -48.2294 	 35.6087 	 91.161
| 36> H 	 -47.7055 	 36.4019 	 91.7076
| 37> H 	 -47.8478 	 34.7057 	 91.5596
| 38> H 	 -49.265 	 35.7574 	 91.4137
| 39> H 	 -47.9762 	 28.5439 	 88.8604
| 40> H 	 -48.2497 	 35.4794 	 84.3984
| 41> *
| 42>
| 43>                          ****END OF INPUT****

CARTESIAN COORDINATES (ANGSTROEM)
---------------------------------
  S    -47.724900   30.933100   88.378000
  C    -48.442000   29.392700   88.374000
  C    -49.581100   29.356600   87.558600
  C    -49.879600   30.623200   87.003500
  C    -48.955500   31.586600   87.379200
  H    -50.538000   30.961000   86.192100
  C    -50.280200   28.112400   87.222000
  H    -49.646400   27.286100   86.862100
  H    -51.001900   28.338400   86.455900
  C    -51.223800   27.638500   88.347700
  H    -50.848800   27.896400   89.329600
  H    -52.158200   28.232400   88.269400
  C    -51.552800   26.150000   88.365300
  H    -50.659100   25.641800   88.225700
  H    -51.988100   25.752900   89.247500
  H    -52.245700   25.985000   87.572400
  S    -48.549400   33.147900   85.071700
  C    -48.583600   34.865700   85.196700
  C    -48.361100   35.213100   86.528200
  C    -48.631400   34.152300   87.450500
  C    -48.843500   32.948700   86.807800
  H    -48.029100   36.211600   86.825300
  C    -48.540300   34.331200   88.946700
  H    -48.211000   33.493000   89.551300
  H    -49.593300   34.271800   89.228600
  C    -47.932900   35.614200   89.634900
  H    -48.112900   36.637800   89.242700
  H    -46.888800   35.298700   89.515400
  C    -48.229400   35.608700   91.161000
  H    -47.705500   36.401900   91.707600
  H    -47.847800   34.705700   91.559600
  H    -49.265000   35.757400   91.413700
  H    -47.976200   28.543900   88.860400
  H    -48.249700   35.479400   84.398400

 Total Charge           Charge          ....    0
 Multiplicity           Mult            ....    1
 Number of Electrons    NEL             ....  134
 Basis Dimension        Dim             ....  322

ORBITAL ENERGIES
----------------

  NO   OCC          E(Eh)            E(eV)
   0   2.0000     -88.968770     -2420.9633
   1   2.0000     -88.963546     -2420.8212
   2   2.0000     -10.324695      -280.9492
   3   2.0000     -10.323806      -280.9251
   4   2.0000     -10.312504      -280.6175
   5   2.0000     -10.311898      -280.6010
   6   2.0000     -10.304351      -280.3956
   7   2.0000     -10.300529      -280.2916
   8   2.0000     -10.295860      -280.1646
   9   2.0000     -10.295813      -280.1633
  10   2.0000     -10.294090      -280.1164
  11   2.0000     -10.291877      -280.0562
  12   2.0000     -10.286173      -279.9010
  13   2.0000     -10.280630      -279.7502
  14   2.0000     -10.276330      -279.6332
  15   2.0000     -10.264838      -279.3204
  16   2.0000      -8.084526      -219.9911
  17   2.0000      -8.078347      -219.8230
  18   2.0000      -6.042746      -164.4315
  19   2.0000      -6.038739      -164.3224
  20   2.0000      -6.036777      -164.2691
  21   2.0000      -6.035698      -164.2397
  22   2.0000      -6.033081      -164.1685
  23   2.0000      -6.028940      -164.0558
  24   2.0000      -1.011782       -27.5320
  25   2.0000      -0.989525       -26.9264
  26   2.0000      -0.915998       -24.9256
  27   2.0000      -0.905404       -24.6373
  28   2.0000      -0.867939       -23.6178
  29   2.0000      -0.856726       -23.3127
  30   2.0000      -0.849994       -23.1295
  31   2.0000      -0.814022       -22.1507
  32   2.0000      -0.783851       -21.3297
  33   2.0000      -0.772812       -21.0293
  34   2.0000      -0.706022       -19.2118
  35   2.0000      -0.699126       -19.0242
  36   2.0000      -0.694674       -18.9030
  37   2.0000      -0.659841       -17.9552
  38   2.0000      -0.643532       -17.5114
  39   2.0000      -0.614444       -16.7199
  40   2.0000      -0.603114       -16.4116
  41   2.0000      -0.576586       -15.6897
  42   2.0000      -0.567178       -15.4337
  43   2.0000      -0.558900       -15.2084
  44   2.0000      -0.524946       -14.2845
  45   2.0000      -0.521724       -14.1968
  46   2.0000      -0.516838       -14.0639
  47   2.0000      -0.515051       -14.0153
  48   2.0000      -0.508560       -13.8386
  49   2.0000      -0.500292       -13.6136
  50   2.0000      -0.491841       -13.3837
  51   2.0000      -0.480368       -13.0715
  52   2.0000      -0.469358       -12.7719
  53   2.0000      -0.466497       -12.6940
  54   2.0000      -0.464612       -12.6427
  55   2.0000      -0.451675       -12.2907
  56   2.0000      -0.443540       -12.0693
  57   2.0000      -0.439751       -11.9662
  58   2.0000      -0.433267       -11.7898
  59   2.0000      -0.430074       -11.7029
  60   2.0000      -0.423652       -11.5281
  61   2.0000      -0.409543       -11.1442
  62   2.0000      -0.408213       -11.1080
  63   2.0000      -0.339072        -9.2266
  64   2.0000      -0.331428        -9.0186
  65   2.0000      -0.322830        -8.7846
  66   2.0000      -0.295295        -8.0354
  67   0.0000       0.030015         0.8168
  68   0.0000       0.061905         1.6845
  69   0.0000       0.105102         2.8600
  70   0.0000       0.121027         3.2933
  71   0.0000       0.130625         3.5545

MULLIKEN ATOMIC CHARGES
-----------------------
   0 S :    0.138508
   1 C :   -0.124192
   2 C :   -0.083350
   3 C :    0.028339
   4 C :   -0.191458
   5 H :    0.026401
   6 C :    0.083580
   7 H :    0.039797
   8 H :    0.013069
   9 C :   -0.110392
  10 H :    0.019948
  11 H :    0.026402
  12 C :    0.009116
  13 H :    0.011054
  14 H :    0.024824
  15 H :    0.021925
  16 S :    0.106142
  17 C :   -0.066923
  18 C :   -0.070823
  19 C :    0.007070
  20 C :   -0.155652
  21 H :    0.026147
  22 C :    0.024713
  23 H :    0.011363
  24 H :    0.029049
  25 C :   -0.087056
  26 H :    0.049352
  27 H :    0.040386
  28 C :   -0.040085
  29 H :    0.030193
  30 H :    0.021180
  31 H :    0.034943
  32 H :    0.050869
  33 H :    0.055559
Sum of atomic charges:    0.0000000

LOEWDIN ATOMIC CHARGES
----------------------
   0 S :    0.458281
   1 C :   -0.210823
   2 C :   -0.063641
   3 C :   -0.064005
   4 C :   -0.212842
   5 H :    0.039679
   6 C :   -0.034800
   7 H :    0.033217
   8 H :    0.032052
   9 C :   -0.038577
  10 H :    0.015025
  11 H :    0.024927
  12 C :   -0.055341
  13 H :    0.014904
  14 H :    0.024051
  15 H :    0.022703
  16 S :    0.411227
  17 C :   -0.196541
  18 C :   -0.066189
  19 C :   -0.055652
  20 C :   -0.199760
  21 H :    0.030654
  22 C :   -0.047384
  23 H :    0.022946
  24 H :    0.037827
  25 C :   -0.042097
  26 H :    0.026100
  27 H :    0.030312
  28 C :   -0.059849
  29 H :    0.028963
  30 H :    0.019676
  31 H :    0.023030
  32 H :    0.028139
  33 H :    0.023788

  Mayer bond orders larger than 0.100000
B(  0-S ,  1-C ) :   1.1764 B(  0-S ,  4-C ) :   1.1867 B(  1-C ,  2-C ) :   1.5449
B(  1-C , 32-H ) :   0.9740 B(  2-C ,  3-C ) :   1.2686 B(  2-C ,  6-C ) :   1.0435
B(  3-C ,  4-C ) :   1.5467 B(  3-C ,  5-H ) :   0.9930 B(  4-C , 20-C ) :   1.0287
B(  6-C ,  7-H ) :   0.9482 B(  6-C ,  8-H ) :   0.9329 B(  6-C ,  9-C ) :   1.0357
B(  9-C , 10-H ) :   0.9694 B(  9-C , 11-H ) :   0.9587 B(  9-C , 12-C ) :   1.0766
B( 12-C , 13-H ) :   0.9760 B( 12-C , 14-H ) :   0.9733 B( 12-C , 15-H ) :   0.9748
B( 16-S , 17-C ) :   1.1695 B( 16-S , 20-C ) :   1.1462 B( 17-C , 18-C ) :   1.5762
B( 17-C , 20-C ) :   0.1018 B( 17-C , 33-H ) :   0.9640 B( 18-C , 19-C ) :   1.2759
B( 18-C , 21-H ) :   0.9816 B( 19-C , 20-C ) :   1.5689 B( 19-C , 22-C ) :   1.0237
B( 22-C , 23-H ) :   0.9362 B( 22-C , 24-H ) :   0.9215 B( 22-C , 25-C ) :   1.0411
B( 25-C , 26-H ) :   0.9573 B( 25-C , 27-H ) :   0.9609 B( 25-C , 28-C ) :   1.0816
B( 28-C , 29-H ) :   0.9732 B( 28-C , 30-H ) :   0.9750 B( 28-C , 31-H ) :   0.9785

Dispersion correction           -0.013416719
FINAL SINGLE POINT ENERGY     -1339.857700851498

DIPOLE MOMENT
-------------
                                X             Y             Z
Electronic contribution:      9.20752       6.08444     -16.02521
Nuclear contribution   :     -9.12038      -6.15980      16.30509
                        -----------------------------------------
Total Dipole Moment    :      0.08714      -0.07536       0.27988
                        -----------------------------------------
Magnitude (a.u.)       :      0.30266
Magnitude (Debye)      :      0.76930

Rotational constants in cm-1:     0.021404     0.007085     0.005824
Rotational constants in MHz :   641.684472   212.390143   174.609299

                             ****ORCA TERMINATED NORMALLY****
TOTAL RUN TIME: 0 days 0 hours 0 minutes 28 seconds 592 msec
