                         Program Version 4.2.1 -  RELEASE  -
|  1> ! wB97X-D3 SP def2-SVP
|  2> %pal
|  3> nprocs 16
|  4> end
|  5>
|  6> * xyz 0 1
|  7> S 	 7.61802 	 -4.20822 	 88.78
|  8> C 	 7.96331 	 -2.99685 	 90.0115
|  9> C 	 8.75757 	 -1.9412 	 89.5812
| 10> C 	 9.04437 	 -2.08715 	 88.2275
| 11> C 	 8.50298 	 -3.24213 	 87.6149
| 12> H 	 9.55474 	 -1.38957 	 87.6024
| 13> C 	 9.26548 	 -0.787968 	 90.3796
| 14> H 	 8.58778 	 -0.229567 	 91.0233
| 15> H 	 9.42363 	 -0.0351628 	 89.6667
| 16> C 	 10.5875 	 -1.0998 	 90.9722
| 17> H 	 10.3738 	 -1.73627 	 91.9339
| 18> H 	 11.1103 	 -1.67646 	 90.1915
| 19> C 	 11.3872 	 0.158924 	 91.4199
| 20> H 	 12.3448 	 -0.126259 	 91.875
| 21> H 	 11.6742 	 0.693685 	 90.5937
| 22> H 	 10.8477 	 0.93103 	 91.9994
| 23> S 	 9.60828 	 -5.05643 	 85.9996
| 24> C 	 9.47374 	 -4.80537 	 84.2557
| 25> C 	 8.50993 	 -3.87919 	 83.9005
| 26> C 	 8.16179 	 -3.12938 	 85.04
| 27> C 	 8.61627 	 -3.63403 	 86.2532
| 28> H 	 8.24671 	 -3.65096 	 82.8296
| 29> C 	 7.1852 	 -2.0325 	 84.9259
| 30> H 	 7.39935 	 -1.65149 	 83.9696
| 31> H 	 7.44368 	 -1.29419 	 85.7598
| 32> C 	 5.69558 	 -2.42966 	 85.1821
| 33> H 	 5.53783 	 -2.93572 	 86.1425
| 34> H 	 5.35454 	 -3.16926 	 84.4567
| 35> C 	 4.69911 	 -1.26372 	 85.0736
| 36> H 	 3.76716 	 -1.61367 	 85.439
| 37> H 	 4.69533 	 -0.961198 	 84.0163
| 38> H 	 4.97081 	 -0.384644 	 85.629
| 39> H 	 7.59971 	 -3.02039 	 91.0298
| 40> H 	 9.87871 	 -5.43781 	 83.4851
| 41> *
| 42>
| 43>                          ****END OF INPUT****

CARTESIAN COORDINATES (ANGSTROEM)
---------------------------------
  S      7.618020   -4.208220   88.780000
  C      7.963310   -2.996850   90.011500
  C      8.757570   -1.941200   89.581200
  C      9.044370   -2.087150   88.227500
  C      8.502980   -3.242130   87.614900
  H      9.554740   -1.389570   87.602400
  C      9.265480   -0.787968   90.379600
  H      8.587780   -0.229567   91.023300
  H      9.423630   -0.035163   89.666700
  C     10.587500   -1.099800   90.972200
  H     10.373800   -1.736270   91.933900
  H     11.110300   -1.676460   90.191500
  C     11.387200    0.158924   91.419900
  H     12.344800   -0.126259   91.875000
  H     11.674200    0.693685   90.593700
  H     10.847700    0.931030   91.999400
  S      9.608280   -5.056430   85.999600
  C      9.473740   -4.805370   84.255700
  C      8.509930   -3.879190   83.900500
  C      8.161790   -3.129380   85.040000
  C      8.616270   -3.634030   86.253200
  H      8.246710   -3.650960   82.829600
  C      7.185200   -2.032500   84.925900
  H      7.399350   -1.651490   83.969600
  H      7.443680   -1.294190   85.759800
  C      5.695580   -2.429660   85.182100
  H      5.537830   -2.935720   86.142500
  H      5.354540   -3.169260   84.456700
  C      4.699110   -1.263720   85.073600
  H      3.767160   -1.613670   85.439000
  H      4.695330   -0.961198   84.016300
  H      4.970810   -0.384644   85.629000
  H      7.599710   -3.020390   91.029800
  H      9.878710   -5.437810   83.485100

 Total Charge           Charge          ....    0
 Multiplicity           Mult            ....    1
 Number of Electrons    NEL             ....  134
 Basis Dimension        Dim             ....  322

ORBITAL ENERGIES
----------------

  NO   OCC          E(Eh)            E(eV)
   0   2.0000     -88.971299     -2421.0321
   1   2.0000     -88.965225     -2420.8668
   2   2.0000     -10.327518      -281.0261
   3   2.0000     -10.318823      -280.7895
   4   2.0000     -10.317006      -280.7400
   5   2.0000     -10.313429      -280.6427
   6   2.0000     -10.297653      -280.2134
   7   2.0000     -10.296920      -280.1934
   8   2.0000     -10.296279      -280.1760
   9   2.0000     -10.294075      -280.1160
  10   2.0000     -10.291644      -280.0499
  11   2.0000     -10.286821      -279.9186
  12   2.0000     -10.284010      -279.8421
  13   2.0000     -10.282695      -279.8064
  14   2.0000     -10.275546      -279.6118
  15   2.0000     -10.270652      -279.4787
  16   2.0000      -8.085435      -220.0159
  17   2.0000      -8.079819      -219.8631
  18   2.0000      -6.043846      -164.4614
  19   2.0000      -6.039981      -164.3562
  20   2.0000      -6.038308      -164.3107
  21   2.0000      -6.036386      -164.2584
  22   2.0000      -6.034409      -164.2046
  23   2.0000      -6.030535      -164.0992
  24   2.0000      -1.008203       -27.4346
  25   2.0000      -0.984882       -26.8000
  26   2.0000      -0.922486       -25.1021
  27   2.0000      -0.905567       -24.6417
  28   2.0000      -0.871559       -23.7163
  29   2.0000      -0.852261       -23.1912
  30   2.0000      -0.850636       -23.1470
  31   2.0000      -0.811629       -22.0855
  32   2.0000      -0.787704       -21.4345
  33   2.0000      -0.766738       -20.8640
  34   2.0000      -0.707391       -19.2491
  35   2.0000      -0.701004       -19.0753
  36   2.0000      -0.692578       -18.8460
  37   2.0000      -0.666440       -18.1348
  38   2.0000      -0.645007       -17.5515
  39   2.0000      -0.621958       -16.9243
  40   2.0000      -0.588849       -16.0234
  41   2.0000      -0.569789       -15.5048
  42   2.0000      -0.561881       -15.2896
  43   2.0000      -0.557178       -15.1616
  44   2.0000      -0.531602       -14.4656
  45   2.0000      -0.527544       -14.3552
  46   2.0000      -0.523201       -14.2370
  47   2.0000      -0.507432       -13.8079
  48   2.0000      -0.498417       -13.5626
  49   2.0000      -0.496107       -13.4998
  50   2.0000      -0.490804       -13.3554
  51   2.0000      -0.482114       -13.1190
  52   2.0000      -0.465478       -12.6663
  53   2.0000      -0.461158       -12.5487
  54   2.0000      -0.459669       -12.5082
  55   2.0000      -0.450884       -12.2692
  56   2.0000      -0.445813       -12.1312
  57   2.0000      -0.441879       -12.0241
  58   2.0000      -0.436092       -11.8667
  59   2.0000      -0.432179       -11.7602
  60   2.0000      -0.418735       -11.3943
  61   2.0000      -0.413425       -11.2499
  62   2.0000      -0.408235       -11.1086
  63   2.0000      -0.341136        -9.2828
  64   2.0000      -0.335455        -9.1282
  65   2.0000      -0.324621        -8.8334
  66   2.0000      -0.291003        -7.9186
  67   0.0000       0.035740         0.9725
  68   0.0000       0.052181         1.4199
  69   0.0000       0.110781         3.0145
  70   0.0000       0.119220         3.2441
  71   0.0000       0.126644         3.4462

MULLIKEN ATOMIC CHARGES
-----------------------
   0 S :    0.129935
   1 C :   -0.116758
   2 C :   -0.084978
   3 C :    0.056788
   4 C :   -0.188961
   5 H :    0.001014
   6 C :    0.114125
   7 H :    0.023033
   8 H :   -0.014326
   9 C :   -0.105271
  10 H :    0.043956
  11 H :    0.043479
  12 C :   -0.019717
  13 H :    0.038950
  14 H :    0.002211
  15 H :    0.033608
  16 S :    0.111337
  17 C :   -0.078011
  18 C :   -0.065577
  19 C :   -0.036760
  20 C :   -0.170730
  21 H :    0.045265
  22 C :    0.081372
  23 H :    0.004791
  24 H :    0.031087
  25 C :   -0.078393
  26 H :    0.028513
  27 H :    0.018863
  28 C :   -0.013664
  29 H :    0.028838
  30 H :    0.027325
  31 H :    0.022280
  32 H :    0.038663
  33 H :    0.047716
Sum of atomic charges:   -0.0000000

LOEWDIN ATOMIC CHARGES
----------------------
   0 S :    0.410877
   1 C :   -0.191467
   2 C :   -0.062259
   3 C :   -0.053977
   4 C :   -0.203819
   5 H :    0.026717
   6 C :   -0.038789
   7 H :    0.030712
   8 H :    0.022519
   9 C :   -0.038505
  10 H :    0.032980
  11 H :    0.031668
  12 C :   -0.068184
  13 H :    0.031636
  14 H :    0.011687
  15 H :    0.030036
  16 S :    0.404649
  17 C :   -0.173515
  18 C :   -0.076868
  19 C :   -0.056672
  20 C :   -0.210026
  21 H :    0.044970
  22 C :   -0.033171
  23 H :    0.020242
  24 H :    0.039734
  25 C :   -0.036769
  26 H :    0.024440
  27 H :    0.021629
  28 C :   -0.058928
  29 H :    0.022927
  30 H :    0.026291
  31 H :    0.019698
  32 H :    0.025229
  33 H :    0.024310

  Mayer bond orders larger than 0.100000
B(  0-S ,  1-C ) :   1.1458 B(  0-S ,  4-C ) :   1.1575 B(  1-C ,  2-C ) :   1.5937
B(  1-C ,  4-C ) :   0.1114 B(  1-C , 32-H ) :   0.9653 B(  2-C ,  3-C ) :   1.2692
B(  2-C ,  6-C ) :   1.0175 B(  3-C ,  4-C ) :   1.5536 B(  3-C ,  5-H ) :   0.9942
B(  4-C , 20-C ) :   1.0418 B(  6-C ,  7-H ) :   0.9329 B(  6-C ,  8-H ) :   0.9254
B(  6-C ,  9-C ) :   1.0614 B(  9-C , 10-H ) :   0.9553 B(  9-C , 11-H ) :   0.9542
B(  9-C , 12-C ) :   1.0751 B( 12-C , 13-H ) :   0.9733 B( 12-C , 14-H ) :   0.9701
B( 12-C , 15-H ) :   0.9735 B( 16-S , 17-C ) :   1.1640 B( 16-S , 20-C ) :   1.1327
B( 17-C , 18-C ) :   1.6151 B( 17-C , 20-C ) :   0.1094 B( 17-C , 33-H ) :   0.9626
B( 18-C , 19-C ) :   1.2468 B( 18-C , 21-H ) :   0.9757 B( 19-C , 20-C ) :   1.5882
B( 19-C , 22-C ) :   1.0646 B( 22-C , 23-H ) :   0.9246 B( 22-C , 24-H ) :   0.9259
B( 22-C , 25-C ) :   1.0629 B( 25-C , 26-H ) :   0.9571 B( 25-C , 27-H ) :   0.9543
B( 25-C , 28-C ) :   1.0824 B( 28-C , 29-H ) :   0.9737 B( 28-C , 30-H ) :   0.9764
B( 28-C , 31-H ) :   0.9766

Dispersion correction           -0.014157640
FINAL SINGLE POINT ENERGY     -1339.860861292140

DIPOLE MOMENT
-------------
                                X             Y             Z
Electronic contribution:      3.15221     -22.34172      -4.67374
Nuclear contribution   :     -3.21232      22.90389       4.52739
                        -----------------------------------------
Total Dipole Moment    :     -0.06011       0.56218      -0.14636
                        -----------------------------------------
Magnitude (a.u.)       :      0.58402
Magnitude (Debye)      :      1.48445

Rotational constants in cm-1:     0.018758     0.007948     0.006918
Rotational constants in MHz :   562.352351   238.285288   207.401381

                             ****ORCA TERMINATED NORMALLY****
TOTAL RUN TIME: 0 days 0 hours 0 minutes 33 seconds 723 msec
