                         Program Version 4.2.1 -  RELEASE  -
|  1> ! wB97X-D3 SP def2-SVP
|  2> %pal
|  3> nprocs 16
|  4> end
|  5>
|  6> * xyz 0 1
|  7> S 	 -89.5293 	 49.3077 	 132.236
|  8> C 	 -91.1891 	 49.9387 	 132.32
|  9> C 	 -91.2502 	 51.2167 	 131.822
| 10> C 	 -90.0675 	 51.6849 	 131.266
| 11> C 	 -89.0159 	 50.7518 	 131.332
| 12> H 	 -89.9713 	 52.6061 	 130.692
| 13> C 	 -92.5839 	 51.9538 	 131.779
| 14> H 	 -93.1993 	 51.0737 	 131.771
| 15> H 	 -92.7675 	 52.4327 	 130.784
| 16> C 	 -92.8294 	 52.8962 	 132.965
| 17> H 	 -93.8169 	 53.2896 	 132.832
| 18> H 	 -92.9548 	 52.272 	 133.897
| 19> C 	 -91.844 	 54.0339 	 133.147
| 20> H 	 -91.9198 	 54.9239 	 132.418
| 21> H 	 -92.0235 	 54.5295 	 134.08
| 22> H 	 -90.8385 	 53.6132 	 133.324
| 23> S 	 -86.9074 	 49.1636 	 130.551
| 24> C 	 -85.4531 	 49.8193 	 129.857
| 25> C 	 -85.5585 	 51.21 	 129.767
| 26> C 	 -86.7066 	 51.7819 	 130.417
| 27> C 	 -87.6167 	 50.7836 	 130.892
| 28> H 	 -84.7677 	 51.7585 	 129.327
| 29> C 	 -86.9383 	 53.307 	 130.456
| 30> H 	 -87.9889 	 53.6544 	 130.318
| 31> H 	 -86.4168 	 53.6113 	 129.549
| 32> C 	 -86.3317 	 53.9559 	 131.687
| 33> H 	 -86.6115 	 54.9832 	 131.69
| 34> H 	 -85.2457 	 53.9273 	 131.614
| 35> C 	 -86.6097 	 53.3225 	 133.043
| 36> H 	 -86.1887 	 52.2631 	 133.175
| 37> H 	 -87.7182 	 53.2479 	 133.081
| 38> H 	 -86.3697 	 53.9845 	 133.826
| 39> H 	 -91.9305 	 49.41 	 132.909
| 40> H 	 -84.6267 	 49.1906 	 129.461
| 41> *
| 42>
| 43>                          ****END OF INPUT****

CARTESIAN COORDINATES (ANGSTROEM)
---------------------------------
  S    -89.529300   49.307700  132.236000
  C    -91.189100   49.938700  132.320000
  C    -91.250200   51.216700  131.822000
  C    -90.067500   51.684900  131.266000
  C    -89.015900   50.751800  131.332000
  H    -89.971300   52.606100  130.692000
  C    -92.583900   51.953800  131.779000
  H    -93.199300   51.073700  131.771000
  H    -92.767500   52.432700  130.784000
  C    -92.829400   52.896200  132.965000
  H    -93.816900   53.289600  132.832000
  H    -92.954800   52.272000  133.897000
  C    -91.844000   54.033900  133.147000
  H    -91.919800   54.923900  132.418000
  H    -92.023500   54.529500  134.080000
  H    -90.838500   53.613200  133.324000
  S    -86.907400   49.163600  130.551000
  C    -85.453100   49.819300  129.857000
  C    -85.558500   51.210000  129.767000
  C    -86.706600   51.781900  130.417000
  C    -87.616700   50.783600  130.892000
  H    -84.767700   51.758500  129.327000
  C    -86.938300   53.307000  130.456000
  H    -87.988900   53.654400  130.318000
  H    -86.416800   53.611300  129.549000
  C    -86.331700   53.955900  131.687000
  H    -86.611500   54.983200  131.690000
  H    -85.245700   53.927300  131.614000
  C    -86.609700   53.322500  133.043000
  H    -86.188700   52.263100  133.175000
  H    -87.718200   53.247900  133.081000
  H    -86.369700   53.984500  133.826000
  H    -91.930500   49.410000  132.909000
  H    -84.626700   49.190600  129.461000

 Total Charge           Charge          ....    0
 Multiplicity           Mult            ....    1
 Number of Electrons    NEL             ....  134
 Basis Dimension        Dim             ....  322

ORBITAL ENERGIES
----------------

  NO   OCC          E(Eh)            E(eV)
   0   2.0000     -88.964816     -2420.8557
   1   2.0000     -88.964693     -2420.8524
   2   2.0000     -10.338395      -281.3220
   3   2.0000     -10.336827      -281.2794
   4   2.0000     -10.324391      -280.9410
   5   2.0000     -10.313662      -280.6490
   6   2.0000     -10.313251      -280.6378
   7   2.0000     -10.297395      -280.2064
   8   2.0000     -10.297073      -280.1976
   9   2.0000     -10.296728      -280.1882
  10   2.0000     -10.294745      -280.1343
  11   2.0000     -10.290980      -280.0318
  12   2.0000     -10.289521      -279.9921
  13   2.0000     -10.283277      -279.8222
  14   2.0000     -10.279338      -279.7150
  15   2.0000     -10.273373      -279.5527
  16   2.0000      -8.078894      -219.8379
  17   2.0000      -8.078855      -219.8368
  18   2.0000      -6.037430      -164.2868
  19   2.0000      -6.037340      -164.2844
  20   2.0000      -6.033525      -164.1806
  21   2.0000      -6.033328      -164.1752
  22   2.0000      -6.029775      -164.0785
  23   2.0000      -6.029623      -164.0744
  24   2.0000      -1.000503       -27.2251
  25   2.0000      -0.978645       -26.6303
  26   2.0000      -0.911609       -24.8061
  27   2.0000      -0.908829       -24.7305
  28   2.0000      -0.866593       -23.5812
  29   2.0000      -0.847945       -23.0738
  30   2.0000      -0.840975       -22.8841
  31   2.0000      -0.815122       -22.1806
  32   2.0000      -0.784800       -21.3555
  33   2.0000      -0.771549       -20.9949
  34   2.0000      -0.706308       -19.2196
  35   2.0000      -0.698242       -19.0001
  36   2.0000      -0.687199       -18.6996
  37   2.0000      -0.659629       -17.9494
  38   2.0000      -0.636982       -17.3332
  39   2.0000      -0.619135       -16.8475
  40   2.0000      -0.594493       -16.1770
  41   2.0000      -0.570924       -15.5356
  42   2.0000      -0.553773       -15.0689
  43   2.0000      -0.551418       -15.0049
  44   2.0000      -0.549175       -14.9438
  45   2.0000      -0.532860       -14.4999
  46   2.0000      -0.512605       -13.9487
  47   2.0000      -0.505910       -13.7665
  48   2.0000      -0.498412       -13.5625
  49   2.0000      -0.494671       -13.4607
  50   2.0000      -0.488828       -13.3017
  51   2.0000      -0.482860       -13.1393
  52   2.0000      -0.473470       -12.8838
  53   2.0000      -0.460719       -12.5368
  54   2.0000      -0.456485       -12.4216
  55   2.0000      -0.448008       -12.1909
  56   2.0000      -0.444901       -12.1064
  57   2.0000      -0.438229       -11.9248
  58   2.0000      -0.432642       -11.7728
  59   2.0000      -0.421197       -11.4614
  60   2.0000      -0.412355       -11.2208
  61   2.0000      -0.411203       -11.1894
  62   2.0000      -0.400516       -10.8986
  63   2.0000      -0.356772        -9.7083
  64   2.0000      -0.336728        -9.1628
  65   2.0000      -0.329769        -8.9735
  66   2.0000      -0.278387        -7.5753
  67   0.0000       0.012111         0.3295
  68   0.0000       0.078253         2.1294
  69   0.0000       0.096003         2.6124
  70   0.0000       0.116444         3.1686
  71   0.0000       0.131917         3.5896

MULLIKEN ATOMIC CHARGES
-----------------------
   0 S :    0.082895
   1 C :   -0.125928
   2 C :   -0.104152
   3 C :    0.015627
   4 C :   -0.112247
   5 H :    0.013408
   6 C :    0.061170
   7 H :    0.014900
   8 H :    0.034938
   9 C :   -0.049117
  10 H :    0.020710
  11 H :    0.029442
  12 C :   -0.063802
  13 H :    0.046793
  14 H :    0.021347
  15 H :    0.049267
  16 S :    0.080502
  17 C :   -0.099474
  18 C :   -0.025952
  19 C :   -0.077049
  20 C :   -0.119104
  21 H :    0.009616
  22 C :    0.062324
  23 H :    0.034773
  24 H :    0.021743
  25 C :   -0.056566
  26 H :    0.021637
  27 H :    0.019852
  28 C :   -0.056099
  29 H :    0.066356
  30 H :    0.021207
  31 H :    0.026967
  32 H :    0.053951
  33 H :    0.080066
Sum of atomic charges:   -0.0000000

LOEWDIN ATOMIC CHARGES
----------------------
   0 S :    0.381128
   1 C :   -0.191174
   2 C :   -0.066365
   3 C :   -0.071604
   4 C :   -0.169999
   5 H :    0.032245
   6 C :   -0.032726
   7 H :    0.030301
   8 H :    0.033407
   9 C :   -0.043958
  10 H :    0.020674
  11 H :    0.031856
  12 C :   -0.078932
  13 H :    0.036626
  14 H :    0.025344
  15 H :    0.031583
  16 S :    0.390627
  17 C :   -0.192100
  18 C :   -0.072507
  19 C :   -0.051708
  20 C :   -0.185970
  21 H :    0.024936
  22 C :   -0.031389
  23 H :    0.030956
  24 H :    0.034105
  25 C :   -0.042981
  26 H :    0.020967
  27 H :    0.021623
  28 C :   -0.068734
  29 H :    0.040139
  30 H :    0.025075
  31 H :    0.019821
  32 H :    0.027363
  33 H :    0.041373

  Mayer bond orders larger than 0.100000
B(  0-S ,  1-C ) :   1.1249 B(  0-S ,  4-C ) :   1.1631 B(  1-C ,  2-C ) :   1.6117
B(  1-C ,  4-C ) :   0.1099 B(  1-C , 32-H ) :   0.9657 B(  2-C ,  3-C ) :   1.2687
B(  2-C ,  6-C ) :   0.9919 B(  3-C ,  4-C ) :   1.5354 B(  3-C ,  5-H ) :   0.9929
B(  4-C , 20-C ) :   1.0714 B(  6-C ,  7-H ) :   0.9424 B(  6-C ,  8-H ) :   0.9473
B(  6-C ,  9-C ) :   1.0714 B(  9-C , 10-H ) :   0.9523 B(  9-C , 11-H ) :   0.9519
B(  9-C , 12-C ) :   1.0864 B( 12-C , 13-H ) :   0.9715 B( 12-C , 14-H ) :   0.9662
B( 12-C , 15-H ) :   0.9680 B( 16-S , 17-C ) :   1.1638 B( 16-S , 20-C ) :   1.1384
B( 17-C , 18-C ) :   1.5773 B( 17-C , 20-C ) :   0.1054 B( 17-C , 33-H ) :   0.9642
B( 18-C , 19-C ) :   1.2743 B( 18-C , 21-H ) :   0.9916 B( 19-C , 20-C ) :   1.5460
B( 19-C , 22-C ) :   1.0218 B( 22-C , 23-H ) :   0.9457 B( 22-C , 24-H ) :   0.9316
B( 22-C , 25-C ) :   1.0781 B( 25-C , 26-H ) :   0.9530 B( 25-C , 27-H ) :   0.9517
B( 25-C , 28-C ) :   1.0884 B( 28-C , 29-H ) :   0.9657 B( 28-C , 30-H ) :   0.9747
B( 28-C , 31-H ) :   0.9702

Dispersion correction           -0.015287467
FINAL SINGLE POINT ENERGY     -1339.874167403309

DIPOLE MOMENT
-------------
                                X             Y             Z
Electronic contribution:      7.82679     -25.34840      -7.47791
Nuclear contribution   :     -7.95345      26.01443       7.41101
                        -----------------------------------------
Total Dipole Moment    :     -0.12665       0.66602      -0.06690
                        -----------------------------------------
Magnitude (a.u.)       :      0.68125
Magnitude (Debye)      :      1.73160

Rotational constants in cm-1:     0.020141     0.009530     0.007163
Rotational constants in MHz :   603.813289   285.709512   214.737629

                             ****ORCA TERMINATED NORMALLY****
TOTAL RUN TIME: 0 days 0 hours 0 minutes 35 seconds 450 msec
