                         Program Version 4.2.1 -  RELEASE  -
|  1> ! wB97X-D3 SP def2-SVP
|  2> %pal
|  3> nprocs 16
|  4> end
|  5>
|  6> * xyz 0 1
|  7> S 	 -106.549 	 53.28 	 118.645
|  8> C 	 -106.489 	 52.3597 	 120.186
|  9> C 	 -105.333 	 52.5965 	 120.837
| 10> C 	 -104.465 	 53.4916 	 120.082
| 11> C 	 -105.076 	 53.985 	 118.962
| 12> H 	 -103.512 	 53.8958 	 120.256
| 13> C 	 -105.011 	 51.9932 	 122.265
| 14> H 	 -103.893 	 51.9419 	 122.285
| 15> H 	 -105.311 	 50.9211 	 122.243
| 16> C 	 -105.626 	 52.7243 	 123.451
| 17> H 	 -106.714 	 52.7634 	 123.284
| 18> H 	 -105.496 	 52.1396 	 124.369
| 19> C 	 -104.957 	 54.1069 	 123.565
| 20> H 	 -105.396 	 54.6412 	 124.44
| 21> H 	 -103.892 	 54.0194 	 123.544
| 22> H 	 -105.164 	 54.8379 	 122.787
| 23> S 	 -105.318 	 56.5153 	 117.857
| 24> C 	 -103.95 	 57.2742 	 117.023
| 25> C 	 -102.909 	 56.3521 	 116.849
| 26> C 	 -103.195 	 55.095 	 117.537
| 27> C 	 -104.441 	 55.0456 	 118.211
| 28> H 	 -102.067 	 56.7631 	 116.372
| 29> C 	 -102.325 	 53.897 	 117.247
| 30> H 	 -102.104 	 53.8469 	 116.219
| 31> H 	 -103.001 	 53.0728 	 117.335
| 32> C 	 -101.136 	 53.6125 	 118.175
| 33> H 	 -101.133 	 52.505 	 118.229
| 34> H 	 -101.46 	 54.0322 	 119.143
| 35> C 	 -99.8797 	 54.2806 	 117.624
| 36> H 	 -100.075 	 55.4204 	 117.783
| 37> H 	 -99.7656 	 54.0608 	 116.603
| 38> H 	 -98.984 	 54.0569 	 118.177
| 39> H 	 -107.16 	 51.6455 	 120.607
| 40> H 	 -104.024 	 58.1815 	 116.563
| 41> *
| 42>
| 43>                          ****END OF INPUT****

CARTESIAN COORDINATES (ANGSTROEM)
---------------------------------
  S    -106.549000   53.280000  118.645000
  C    -106.489000   52.359700  120.186000
  C    -105.333000   52.596500  120.837000
  C    -104.465000   53.491600  120.082000
  C    -105.076000   53.985000  118.962000
  H    -103.512000   53.895800  120.256000
  C    -105.011000   51.993200  122.265000
  H    -103.893000   51.941900  122.285000
  H    -105.311000   50.921100  122.243000
  C    -105.626000   52.724300  123.451000
  H    -106.714000   52.763400  123.284000
  H    -105.496000   52.139600  124.369000
  C    -104.957000   54.106900  123.565000
  H    -105.396000   54.641200  124.440000
  H    -103.892000   54.019400  123.544000
  H    -105.164000   54.837900  122.787000
  S    -105.318000   56.515300  117.857000
  C    -103.950000   57.274200  117.023000
  C    -102.909000   56.352100  116.849000
  C    -103.195000   55.095000  117.537000
  C    -104.441000   55.045600  118.211000
  H    -102.067000   56.763100  116.372000
  C    -102.325000   53.897000  117.247000
  H    -102.104000   53.846900  116.219000
  H    -103.001000   53.072800  117.335000
  C    -101.136000   53.612500  118.175000
  H    -101.133000   52.505000  118.229000
  H    -101.460000   54.032200  119.143000
  C    -99.879700   54.280600  117.624000
  H    -100.075000   55.420400  117.783000
  H    -99.765600   54.060800  116.603000
  H    -98.984000   54.056900  118.177000
  H    -107.160000   51.645500  120.607000
  H    -104.024000   58.181500  116.563000

 Total Charge           Charge          ....    0
 Multiplicity           Mult            ....    1
 Number of Electrons    NEL             ....  134
 Basis Dimension        Dim             ....  322

ORBITAL ENERGIES
----------------

  NO   OCC          E(Eh)            E(eV)
   0   2.0000     -88.969843     -2420.9925
   1   2.0000     -88.963698     -2420.8253
   2   2.0000     -10.330310      -281.1020
   3   2.0000     -10.322468      -280.8886
   4   2.0000     -10.314952      -280.6841
   5   2.0000     -10.312118      -280.6070
   6   2.0000     -10.307943      -280.4934
   7   2.0000     -10.305247      -280.4200
   8   2.0000     -10.301786      -280.3259
   9   2.0000     -10.296449      -280.1806
  10   2.0000     -10.292080      -280.0617
  11   2.0000     -10.290024      -280.0058
  12   2.0000     -10.286809      -279.9183
  13   2.0000     -10.279888      -279.7300
  14   2.0000     -10.276212      -279.6299
  15   2.0000     -10.276119      -279.6274
  16   2.0000      -8.085324      -220.0128
  17   2.0000      -8.078190      -219.8187
  18   2.0000      -6.043876      -164.4622
  19   2.0000      -6.039750      -164.3499
  20   2.0000      -6.036703      -164.2670
  21   2.0000      -6.035935      -164.2461
  22   2.0000      -6.032633      -164.1563
  23   2.0000      -6.029068      -164.0593
  24   2.0000      -1.013001       -27.5652
  25   2.0000      -0.980931       -26.6925
  26   2.0000      -0.911601       -24.8059
  27   2.0000      -0.909688       -24.7539
  28   2.0000      -0.873625       -23.7725
  29   2.0000      -0.847952       -23.0740
  30   2.0000      -0.841917       -22.9097
  31   2.0000      -0.818795       -22.2805
  32   2.0000      -0.782474       -21.2922
  33   2.0000      -0.772917       -21.0321
  34   2.0000      -0.710393       -19.3308
  35   2.0000      -0.704750       -19.1772
  36   2.0000      -0.692268       -18.8376
  37   2.0000      -0.665362       -18.1054
  38   2.0000      -0.644192       -17.5293
  39   2.0000      -0.609892       -16.5960
  40   2.0000      -0.596454       -16.2304
  41   2.0000      -0.577000       -15.7010
  42   2.0000      -0.554812       -15.0972
  43   2.0000      -0.547552       -14.8997
  44   2.0000      -0.545490       -14.8436
  45   2.0000      -0.537427       -14.6241
  46   2.0000      -0.522246       -14.2110
  47   2.0000      -0.513015       -13.9599
  48   2.0000      -0.509804       -13.8725
  49   2.0000      -0.502073       -13.6621
  50   2.0000      -0.487674       -13.2703
  51   2.0000      -0.478308       -13.0154
  52   2.0000      -0.471377       -12.8268
  53   2.0000      -0.463164       -12.6033
  54   2.0000      -0.459744       -12.5103
  55   2.0000      -0.444901       -12.1064
  56   2.0000      -0.441007       -12.0004
  57   2.0000      -0.436076       -11.8662
  58   2.0000      -0.431166       -11.7326
  59   2.0000      -0.426853       -11.6152
  60   2.0000      -0.417578       -11.3629
  61   2.0000      -0.411572       -11.1994
  62   2.0000      -0.407853       -11.0983
  63   2.0000      -0.347534        -9.4569
  64   2.0000      -0.335603        -9.1322
  65   2.0000      -0.325376        -8.8539
  66   2.0000      -0.296125        -8.0580
  67   0.0000       0.032692         0.8896
  68   0.0000       0.068448         1.8626
  69   0.0000       0.109905         2.9907
  70   0.0000       0.117786         3.2051
  71   0.0000       0.129795         3.5319

MULLIKEN ATOMIC CHARGES
-----------------------
   0 S :    0.126481
   1 C :   -0.106179
   2 C :   -0.078688
   3 C :    0.042710
   4 C :   -0.149753
   5 H :   -0.020839
   6 C :    0.017133
   7 H :    0.031464
   8 H :    0.031476
   9 C :   -0.027383
  10 H :    0.031254
  11 H :    0.038241
  12 C :   -0.062497
  13 H :    0.036476
  14 H :    0.026481
  15 H :    0.040826
  16 S :    0.095000
  17 C :   -0.075886
  18 C :   -0.015680
  19 C :   -0.049204
  20 C :   -0.151129
  21 H :    0.014483
  22 C :    0.051288
  23 H :    0.012473
  24 H :    0.010622
  25 C :   -0.058315
  26 H :    0.034421
  27 H :    0.029532
  28 C :   -0.033723
  29 H :    0.039306
  30 H :    0.024234
  31 H :    0.035453
  32 H :    0.030910
  33 H :    0.029008
Sum of atomic charges:    0.0000000

LOEWDIN ATOMIC CHARGES
----------------------
   0 S :    0.424732
   1 C :   -0.184299
   2 C :   -0.055721
   3 C :   -0.059061
   4 C :   -0.223609
   5 H :    0.019885
   6 C :   -0.034085
   7 H :    0.030418
   8 H :    0.030443
   9 C :   -0.039844
  10 H :    0.027439
  11 H :    0.028239
  12 C :   -0.069445
  13 H :    0.031497
  14 H :    0.021369
  15 H :    0.029367
  16 S :    0.396686
  17 C :   -0.162483
  18 C :   -0.063988
  19 C :   -0.055191
  20 C :   -0.198007
  21 H :    0.027154
  22 C :   -0.035073
  23 H :    0.023930
  24 H :    0.028620
  25 C :   -0.038965
  26 H :    0.026351
  27 H :    0.022956
  28 C :   -0.063617
  29 H :    0.039531
  30 H :    0.016551
  31 H :    0.021892
  32 H :    0.027336
  33 H :    0.008992

  Mayer bond orders larger than 0.100000
B(  0-S ,  1-C ) :   1.1057 B(  0-S ,  4-C ) :   1.1579 B(  1-C ,  2-C ) :   1.6709
B(  1-C , 32-H ) :   0.9677 B(  2-C ,  3-C ) :   1.1949 B(  2-C ,  6-C ) :   0.9971
B(  3-C ,  4-C ) :   1.5822 B(  3-C ,  5-H ) :   1.0056 B(  4-C , 20-C ) :   1.0389
B(  6-C ,  7-H ) :   0.9492 B(  6-C ,  8-H ) :   0.9429 B(  6-C ,  9-C ) :   1.0712
B(  9-C , 10-H ) :   0.9525 B(  9-C , 11-H ) :   0.9546 B(  9-C , 12-C ) :   1.0679
B( 12-C , 13-H ) :   0.9723 B( 12-C , 14-H ) :   0.9771 B( 12-C , 15-H ) :   0.9741
B( 16-S , 17-C ) :   1.1597 B( 16-S , 20-C ) :   1.1371 B( 17-C , 18-C ) :   1.6073
B( 17-C , 20-C ) :   0.1005 B( 17-C , 33-H ) :   0.9774 B( 18-C , 19-C ) :   1.2202
B( 18-C , 21-H ) :   0.9993 B( 19-C , 20-C ) :   1.5774 B( 19-C , 22-C ) :   1.0508
B( 22-C , 23-H ) :   0.9419 B( 22-C , 24-H ) :   0.9284 B( 22-C , 25-C ) :   1.0475
B( 25-C , 26-H ) :   0.9570 B( 25-C , 27-H ) :   0.9560 B( 25-C , 28-C ) :   1.0746
B( 28-C , 29-H ) :   0.9722 B( 28-C , 30-H ) :   0.9782 B( 28-C , 31-H ) :   0.9737

Dispersion correction           -0.014981798
FINAL SINGLE POINT ENERGY     -1339.855368606305

DIPOLE MOMENT
-------------
                                X             Y             Z
Electronic contribution:    -18.26119       7.17142     -14.09887
Nuclear contribution   :     18.65288      -7.41023      14.29230
                        -----------------------------------------
Total Dipole Moment    :      0.39169      -0.23881       0.19343
                        -----------------------------------------
Magnitude (a.u.)       :      0.49786
Magnitude (Debye)      :      1.26545

Rotational constants in cm-1:     0.018216     0.008754     0.007338
Rotational constants in MHz :   546.087502   262.432750   219.988647

                             ****ORCA TERMINATED NORMALLY****
TOTAL RUN TIME: 0 days 0 hours 0 minutes 34 seconds 231 msec
