                         Program Version 4.2.1 -  RELEASE  -
|  1> ! wB97X-D3 SP def2-SVP
|  2> %pal
|  3> nprocs 16
|  4> end
|  5>
|  6> * xyz 0 1
|  7> S 	 32.7767 	 12.1096 	 69.7997
|  8> C 	 31.2954 	 12.9286 	 69.537
|  9> C 	 30.291 	 12.0348 	 69.0737
| 10> C 	 30.7453 	 10.695 	 68.8722
| 11> C 	 32.0551 	 10.6117 	 69.3312
| 12> H 	 30.0335 	 9.95323 	 68.5201
| 13> C 	 28.8495 	 12.4501 	 68.8009
| 14> H 	 28.6361 	 13.2503 	 69.6245
| 15> H 	 28.2524 	 11.5831 	 69.0332
| 16> C 	 28.5532 	 12.8383 	 67.3963
| 17> H 	 29.0774 	 13.7442 	 67.1184
| 18> H 	 28.7864 	 12.0039 	 66.7293
| 19> C 	 27.0437 	 13.1469 	 67.2376
| 20> H 	 26.797 	 13.2507 	 66.1426
| 21> H 	 26.4521 	 12.3033 	 67.7214
| 22> H 	 26.8026 	 13.9623 	 67.8464
| 23> S 	 34.6983 	 9.82118 	 69.148
| 24> C 	 35.1301 	 8.11921 	 69.2627
| 25> C 	 34.0064 	 7.36651 	 69.3365
| 26> C 	 32.7659 	 8.10823 	 69.3914
| 27> C 	 32.9886 	 9.48484 	 69.2233
| 28> H 	 34.247 	 6.33006 	 69.3894
| 29> C 	 31.3973 	 7.40252 	 69.4054
| 30> H 	 30.5953 	 8.1235 	 69.5659
| 31> H 	 31.392 	 6.72645 	 70.2131
| 32> C 	 31.1069 	 6.52978 	 68.194
| 33> H 	 31.8466 	 5.70966 	 68.005
| 34> H 	 31.1692 	 7.03884 	 67.2675
| 35> C 	 29.6736 	 5.85364 	 68.1703
| 36> H 	 29.6778 	 4.87706 	 68.7395
| 37> H 	 29.3012 	 5.64578 	 67.1699
| 38> H 	 28.851 	 6.29733 	 68.7131
| 39> H 	 31.3072 	 13.985 	 69.7133
| 40> H 	 36.1337 	 7.68908 	 69.4037
| 41> *
| 42>
| 43>                          ****END OF INPUT****

CARTESIAN COORDINATES (ANGSTROEM)
---------------------------------
  S     32.776700   12.109600   69.799700
  C     31.295400   12.928600   69.537000
  C     30.291000   12.034800   69.073700
  C     30.745300   10.695000   68.872200
  C     32.055100   10.611700   69.331200
  H     30.033500    9.953230   68.520100
  C     28.849500   12.450100   68.800900
  H     28.636100   13.250300   69.624500
  H     28.252400   11.583100   69.033200
  C     28.553200   12.838300   67.396300
  H     29.077400   13.744200   67.118400
  H     28.786400   12.003900   66.729300
  C     27.043700   13.146900   67.237600
  H     26.797000   13.250700   66.142600
  H     26.452100   12.303300   67.721400
  H     26.802600   13.962300   67.846400
  S     34.698300    9.821180   69.148000
  C     35.130100    8.119210   69.262700
  C     34.006400    7.366510   69.336500
  C     32.765900    8.108230   69.391400
  C     32.988600    9.484840   69.223300
  H     34.247000    6.330060   69.389400
  C     31.397300    7.402520   69.405400
  H     30.595300    8.123500   69.565900
  H     31.392000    6.726450   70.213100
  C     31.106900    6.529780   68.194000
  H     31.846600    5.709660   68.005000
  H     31.169200    7.038840   67.267500
  C     29.673600    5.853640   68.170300
  H     29.677800    4.877060   68.739500
  H     29.301200    5.645780   67.169900
  H     28.851000    6.297330   68.713100
  H     31.307200   13.985000   69.713300
  H     36.133700    7.689080   69.403700

 Total Charge           Charge          ....    0
 Multiplicity           Mult            ....    1
 Number of Electrons    NEL             ....  134
 Basis Dimension        Dim             ....  322

ORBITAL ENERGIES
----------------

  NO   OCC          E(Eh)            E(eV)
   0   2.0000     -88.968636     -2420.9597
   1   2.0000     -88.962428     -2420.7907
   2   2.0000     -10.332570      -281.1635
   3   2.0000     -10.327618      -281.0288
   4   2.0000     -10.313911      -280.6558
   5   2.0000     -10.312129      -280.6073
   6   2.0000     -10.307068      -280.4696
   7   2.0000     -10.304185      -280.3911
   8   2.0000     -10.299473      -280.2629
   9   2.0000     -10.294493      -280.1274
  10   2.0000     -10.291455      -280.0447
  11   2.0000     -10.289973      -280.0044
  12   2.0000     -10.289513      -279.9919
  13   2.0000     -10.283971      -279.8411
  14   2.0000     -10.283034      -279.8156
  15   2.0000     -10.281572      -279.7758
  16   2.0000      -8.084531      -219.9913
  17   2.0000      -8.077260      -219.7934
  18   2.0000      -6.042815      -164.4333
  19   2.0000      -6.038839      -164.3252
  20   2.0000      -6.035905      -164.2453
  21   2.0000      -6.035503      -164.2344
  22   2.0000      -6.031752      -164.1323
  23   2.0000      -6.027865      -164.0265
  24   2.0000      -1.010570       -27.4990
  25   2.0000      -0.983920       -26.7738
  26   2.0000      -0.917792       -24.9744
  27   2.0000      -0.904897       -24.6235
  28   2.0000      -0.869768       -23.6676
  29   2.0000      -0.857741       -23.3403
  30   2.0000      -0.840528       -22.8719
  31   2.0000      -0.815272       -22.1847
  32   2.0000      -0.780781       -21.2461
  33   2.0000      -0.768255       -20.9053
  34   2.0000      -0.707425       -19.2500
  35   2.0000      -0.698520       -19.0077
  36   2.0000      -0.695946       -18.9377
  37   2.0000      -0.661619       -18.0036
  38   2.0000      -0.639916       -17.4130
  39   2.0000      -0.626594       -17.0505
  40   2.0000      -0.593220       -16.1423
  41   2.0000      -0.575406       -15.6576
  42   2.0000      -0.565105       -15.3773
  43   2.0000      -0.555522       -15.1165
  44   2.0000      -0.530844       -14.4450
  45   2.0000      -0.524316       -14.2674
  46   2.0000      -0.512974       -13.9587
  47   2.0000      -0.510153       -13.8820
  48   2.0000      -0.505825       -13.7642
  49   2.0000      -0.499995       -13.6055
  50   2.0000      -0.489482       -13.3195
  51   2.0000      -0.478612       -13.0237
  52   2.0000      -0.468934       -12.7603
  53   2.0000      -0.467205       -12.7133
  54   2.0000      -0.458024       -12.4635
  55   2.0000      -0.453024       -12.3274
  56   2.0000      -0.447262       -12.1706
  57   2.0000      -0.441912       -12.0250
  58   2.0000      -0.437311       -11.8998
  59   2.0000      -0.425507       -11.5786
  60   2.0000      -0.416297       -11.3280
  61   2.0000      -0.411409       -11.1950
  62   2.0000      -0.408481       -11.1153
  63   2.0000      -0.358143        -9.7456
  64   2.0000      -0.336573        -9.1586
  65   2.0000      -0.326489        -8.8842
  66   2.0000      -0.282140        -7.6774
  67   0.0000       0.022555         0.6138
  68   0.0000       0.083245         2.2652
  69   0.0000       0.100147         2.7251
  70   0.0000       0.118824         3.2334
  71   0.0000       0.133357         3.6288

MULLIKEN ATOMIC CHARGES
-----------------------
   0 S :    0.109421
   1 C :   -0.130580
   2 C :   -0.089145
   3 C :    0.007325
   4 C :   -0.103117
   5 H :    0.027416
   6 C :    0.014719
   7 H :    0.044637
   8 H :    0.010652
   9 C :   -0.045260
  10 H :    0.030019
  11 H :    0.030344
  12 C :   -0.044318
  13 H :    0.053742
  14 H :    0.023365
  15 H :    0.017339
  16 S :    0.080636
  17 C :   -0.107151
  18 C :   -0.027022
  19 C :   -0.046734
  20 C :   -0.119361
  21 H :    0.009259
  22 C :    0.126060
  23 H :    0.015251
  24 H :    0.012384
  25 C :   -0.073957
  26 H :    0.034918
  27 H :    0.019333
  28 C :   -0.081311
  29 H :    0.029152
  30 H :    0.038009
  31 H :    0.021848
  32 H :    0.046327
  33 H :    0.065800
Sum of atomic charges:   -0.0000000

LOEWDIN ATOMIC CHARGES
----------------------
   0 S :    0.439233
   1 C :   -0.215278
   2 C :   -0.055575
   3 C :   -0.067012
   4 C :   -0.185926
   5 H :    0.036750
   6 C :   -0.041713
   7 H :    0.041836
   8 H :    0.023937
   9 C :   -0.040014
  10 H :    0.024337
  11 H :    0.026785
  12 C :   -0.065198
  13 H :    0.033870
  14 H :    0.027421
  15 H :    0.014443
  16 S :    0.388045
  17 C :   -0.188821
  18 C :   -0.071967
  19 C :   -0.054775
  20 C :   -0.197465
  21 H :    0.029393
  22 C :   -0.025260
  23 H :    0.028437
  24 H :    0.026950
  25 C :   -0.040410
  26 H :    0.030948
  27 H :    0.017859
  28 C :   -0.078358
  29 H :    0.029761
  30 H :    0.026610
  31 H :    0.021215
  32 H :    0.020831
  33 H :    0.039109

  Mayer bond orders larger than 0.100000
B(  0-S ,  1-C ) :   1.1570 B(  0-S ,  4-C ) :   1.1834 B(  1-C ,  2-C ) :   1.5509
B(  1-C , 32-H ) :   0.9812 B(  2-C ,  3-C ) :   1.2912 B(  2-C ,  6-C ) :   1.0190
B(  3-C ,  4-C ) :   1.5077 B(  3-C ,  5-H ) :   0.9875 B(  4-C , 20-C ) :   1.0600
B(  6-C ,  7-H ) :   0.9437 B(  6-C ,  8-H ) :   0.9347 B(  6-C ,  9-C ) :   1.0804
B(  9-C , 10-H ) :   0.9526 B(  9-C , 11-H ) :   0.9515 B(  9-C , 12-C ) :   1.0792
B( 12-C , 13-H ) :   0.9745 B( 12-C , 14-H ) :   0.9726 B( 12-C , 15-H ) :   0.9741
B( 16-S , 17-C ) :   1.1294 B( 16-S , 20-C ) :   1.1356 B( 17-C , 18-C ) :   1.6542
B( 17-C , 33-H ) :   0.9627 B( 18-C , 19-C ) :   1.2047 B( 18-C , 21-H ) :   0.9936
B( 19-C , 20-C ) :   1.5902 B( 19-C , 22-C ) :   1.0521 B( 22-C , 23-H ) :   0.9347
B( 22-C , 24-H ) :   0.9235 B( 22-C , 25-C ) :   1.0594 B( 25-C , 26-H ) :   0.9538
B( 25-C , 27-H ) :   0.9624 B( 25-C , 28-C ) :   1.0603 B( 28-C , 29-H ) :   0.9761
B( 28-C , 30-H ) :   0.9798 B( 28-C , 31-H ) :   0.9789

Dispersion correction           -0.013393768
FINAL SINGLE POINT ENERGY     -1339.868933985099

DIPOLE MOMENT
-------------
                                X             Y             Z
Electronic contribution:     29.23442       8.54113       9.40528
Nuclear contribution   :    -29.71633      -8.80561      -9.48305
                        -----------------------------------------
Total Dipole Moment    :     -0.48191      -0.26448      -0.07777
                        -----------------------------------------
Magnitude (a.u.)       :      0.55519
Magnitude (Debye)      :      1.41117

Rotational constants in cm-1:     0.017158     0.008774     0.006076
Rotational constants in MHz :   514.398723   263.051389   182.142144

                             ****ORCA TERMINATED NORMALLY****
TOTAL RUN TIME: 0 days 0 hours 0 minutes 27 seconds 658 msec
