                         Program Version 4.2.1 -  RELEASE  -
|  1> ! wB97X-D3 SP def2-SVP
|  2> %pal
|  3> nprocs 16
|  4> end
|  5>
|  6> * xyz 0 1
|  7> S 	 8.37708 	 -8.26467 	 62.9201
|  8> C 	 7.19687 	 -7.4544 	 61.9204
|  9> C 	 7.72235 	 -6.15979 	 61.6673
| 10> C 	 9.10149 	 -5.96322 	 62.0547
| 11> C 	 9.64949 	 -7.02606 	 62.7059
| 12> H 	 9.55143 	 -5.01311 	 62.0175
| 13> C 	 6.88616 	 -5.02051 	 61.1725
| 14> H 	 6.4968 	 -5.23455 	 60.0846
| 15> H 	 7.61856 	 -4.23382 	 60.9846
| 16> C 	 5.66006 	 -4.49855 	 61.9657
| 17> H 	 5.35414 	 -3.62916 	 61.4147
| 18> H 	 5.00961 	 -5.32364 	 61.9974
| 19> C 	 5.96919 	 -4.14848 	 63.4209
| 20> H 	 6.58567 	 -4.84052 	 63.9431
| 21> H 	 6.56227 	 -3.20594 	 63.6385
| 22> H 	 5.01372 	 -3.99527 	 64.0059
| 23> S 	 11.8282 	 -5.6205 	 63.6152
| 24> C 	 12.97 	 -6.28376 	 64.7199
| 25> C 	 12.68 	 -7.60638 	 64.9567
| 26> C 	 11.5465 	 -8.03959 	 64.2047
| 27> C 	 10.8637 	 -7.03222 	 63.4976
| 28> H 	 13.3799 	 -8.22672 	 65.5442
| 29> C 	 11.0976 	 -9.5041 	 64.2952
| 30> H 	 10.0918 	 -9.67809 	 64.7002
| 31> H 	 11.731 	 -9.89644 	 65.0626
| 32> C 	 11.3286 	 -10.4053 	 63.1157
| 33> H 	 12.381 	 -10.4492 	 62.7502
| 34> H 	 10.6632 	 -9.94619 	 62.3918
| 35> C 	 10.908 	 -11.9174 	 63.2506
| 36> H 	 11.7205 	 -12.4492 	 63.7394
| 37> H 	 10.871 	 -12.2344 	 62.1968
| 38> H 	 9.95112 	 -12.0766 	 63.6572
| 39> H 	 6.23803 	 -7.85658 	 61.6376
| 40> H 	 13.8301 	 -5.79606 	 65.0671
| 41> *
| 42>
| 43>                          ****END OF INPUT****

CARTESIAN COORDINATES (ANGSTROEM)
---------------------------------
  S      8.377080   -8.264670   62.920100
  C      7.196870   -7.454400   61.920400
  C      7.722350   -6.159790   61.667300
  C      9.101490   -5.963220   62.054700
  C      9.649490   -7.026060   62.705900
  H      9.551430   -5.013110   62.017500
  C      6.886160   -5.020510   61.172500
  H      6.496800   -5.234550   60.084600
  H      7.618560   -4.233820   60.984600
  C      5.660060   -4.498550   61.965700
  H      5.354140   -3.629160   61.414700
  H      5.009610   -5.323640   61.997400
  C      5.969190   -4.148480   63.420900
  H      6.585670   -4.840520   63.943100
  H      6.562270   -3.205940   63.638500
  H      5.013720   -3.995270   64.005900
  S     11.828200   -5.620500   63.615200
  C     12.970000   -6.283760   64.719900
  C     12.680000   -7.606380   64.956700
  C     11.546500   -8.039590   64.204700
  C     10.863700   -7.032220   63.497600
  H     13.379900   -8.226720   65.544200
  C     11.097600   -9.504100   64.295200
  H     10.091800   -9.678090   64.700200
  H     11.731000   -9.896440   65.062600
  C     11.328600  -10.405300   63.115700
  H     12.381000  -10.449200   62.750200
  H     10.663200   -9.946190   62.391800
  C     10.908000  -11.917400   63.250600
  H     11.720500  -12.449200   63.739400
  H     10.871000  -12.234400   62.196800
  H      9.951120  -12.076600   63.657200
  H      6.238030   -7.856580   61.637600
  H     13.830100   -5.796060   65.067100

 Total Charge           Charge          ....    0
 Multiplicity           Mult            ....    1
 Number of Electrons    NEL             ....  134
 Basis Dimension        Dim             ....  322

ORBITAL ENERGIES
----------------

  NO   OCC          E(Eh)            E(eV)
   0   2.0000     -88.968899     -2420.9668
   1   2.0000     -88.967606     -2420.9316
   2   2.0000     -10.338253      -281.3182
   3   2.0000     -10.330521      -281.1078
   4   2.0000     -10.320841      -280.8444
   5   2.0000     -10.315347      -280.6949
   6   2.0000     -10.307688      -280.4864
   7   2.0000     -10.307145      -280.4717
   8   2.0000     -10.297998      -280.2228
   9   2.0000     -10.295347      -280.1506
  10   2.0000     -10.294483      -280.1271
  11   2.0000     -10.286842      -279.9192
  12   2.0000     -10.282103      -279.7902
  13   2.0000     -10.279107      -279.7087
  14   2.0000     -10.277839      -279.6742
  15   2.0000     -10.272708      -279.5346
  16   2.0000      -8.083328      -219.9585
  17   2.0000      -8.082291      -219.9303
  18   2.0000      -6.041811      -164.4060
  19   2.0000      -6.041082      -164.3862
  20   2.0000      -6.037523      -164.2893
  21   2.0000      -6.036819      -164.2702
  22   2.0000      -6.034247      -164.2002
  23   2.0000      -6.032987      -164.1659
  24   2.0000      -1.013661       -27.5831
  25   2.0000      -0.987896       -26.8820
  26   2.0000      -0.910171       -24.7670
  27   2.0000      -0.905413       -24.6375
  28   2.0000      -0.877317       -23.8730
  29   2.0000      -0.850293       -23.1377
  30   2.0000      -0.843934       -22.9646
  31   2.0000      -0.819361       -22.2959
  32   2.0000      -0.781406       -21.2631
  33   2.0000      -0.770177       -20.9576
  34   2.0000      -0.708638       -19.2830
  35   2.0000      -0.707902       -19.2630
  36   2.0000      -0.684733       -18.6325
  37   2.0000      -0.669428       -18.2161
  38   2.0000      -0.642432       -17.4815
  39   2.0000      -0.614512       -16.7217
  40   2.0000      -0.596990       -16.2449
  41   2.0000      -0.580995       -15.8097
  42   2.0000      -0.565964       -15.4007
  43   2.0000      -0.553876       -15.0717
  44   2.0000      -0.536615       -14.6020
  45   2.0000      -0.524202       -14.2643
  46   2.0000      -0.521321       -14.1859
  47   2.0000      -0.514298       -13.9948
  48   2.0000      -0.506506       -13.7827
  49   2.0000      -0.500760       -13.6264
  50   2.0000      -0.491981       -13.3875
  51   2.0000      -0.486717       -13.2442
  52   2.0000      -0.474245       -12.9049
  53   2.0000      -0.469705       -12.7813
  54   2.0000      -0.464546       -12.6409
  55   2.0000      -0.444856       -12.1052
  56   2.0000      -0.439356       -11.9555
  57   2.0000      -0.429981       -11.7004
  58   2.0000      -0.428788       -11.6679
  59   2.0000      -0.422040       -11.4843
  60   2.0000      -0.413076       -11.2404
  61   2.0000      -0.408990       -11.1292
  62   2.0000      -0.396702       -10.7948
  63   2.0000      -0.368115       -10.0169
  64   2.0000      -0.332818        -9.0564
  65   2.0000      -0.327060        -8.8997
  66   2.0000      -0.283275        -7.7083
  67   0.0000       0.012866         0.3501
  68   0.0000       0.078269         2.1298
  69   0.0000       0.112078         3.0498
  70   0.0000       0.120306         3.2737
  71   0.0000       0.129283         3.5180

MULLIKEN ATOMIC CHARGES
-----------------------
   0 S :    0.077060
   1 C :   -0.097435
   2 C :   -0.119532
   3 C :   -0.001056
   4 C :   -0.063252
   5 H :    0.008658
   6 C :   -0.014829
   7 H :    0.046428
   8 H :    0.012077
   9 C :    0.021451
  10 H :    0.038725
  11 H :    0.020558
  12 C :   -0.096975
  13 H :    0.036352
  14 H :    0.026966
  15 H :    0.039884
  16 S :    0.090171
  17 C :   -0.062427
  18 C :   -0.034906
  19 C :   -0.077958
  20 C :   -0.096598
  21 H :    0.035288
  22 C :    0.063095
  23 H :    0.037321
  24 H :   -0.010742
  25 C :   -0.095229
  26 H :    0.032999
  27 H :    0.019175
  28 C :   -0.031319
  29 H :    0.036879
  30 H :    0.035475
  31 H :    0.025082
  32 H :    0.057616
  33 H :    0.040998
Sum of atomic charges:   -0.0000000

LOEWDIN ATOMIC CHARGES
----------------------
   0 S :    0.409875
   1 C :   -0.199136
   2 C :   -0.061162
   3 C :   -0.069084
   4 C :   -0.167339
   5 H :    0.022245
   6 C :   -0.048030
   7 H :    0.042295
   8 H :    0.023503
   9 C :   -0.027753
  10 H :    0.030638
  11 H :    0.019605
  12 C :   -0.079203
  13 H :    0.021628
  14 H :    0.028981
  15 H :    0.031906
  16 S :    0.438429
  17 C :   -0.183495
  18 C :   -0.073440
  19 C :   -0.056139
  20 C :   -0.207330
  21 H :    0.039719
  22 C :   -0.049219
  23 H :    0.026630
  24 H :    0.021596
  25 C :   -0.044016
  26 H :    0.028049
  27 H :    0.010807
  28 C :   -0.058061
  29 H :    0.023882
  30 H :    0.033813
  31 H :    0.015965
  32 H :    0.031223
  33 H :    0.022618

  Mayer bond orders larger than 0.100000
B(  0-S ,  1-C ) :   1.1342 B(  0-S ,  4-C ) :   1.1448 B(  1-C ,  2-C ) :   1.5548
B(  1-C , 32-H ) :   0.9789 B(  2-C ,  3-C ) :   1.2750 B(  2-C ,  6-C ) :   1.0375
B(  3-C ,  4-C ) :   1.5356 B(  3-C ,  5-H ) :   0.9915 B(  4-C , 20-C ) :   1.1016
B(  6-C ,  7-H ) :   0.9365 B(  6-C ,  8-H ) :   0.9421 B(  6-C ,  9-C ) :   1.0640
B(  9-C , 10-H ) :   0.9534 B(  9-C , 11-H ) :   0.9533 B(  9-C , 12-C ) :   1.0748
B( 12-C , 13-H ) :   0.9755 B( 12-C , 14-H ) :   0.9746 B( 12-C , 15-H ) :   0.9756
B( 16-S , 17-C ) :   1.1781 B( 16-S , 20-C ) :   1.1458 B( 17-C , 18-C ) :   1.5692
B( 17-C , 33-H ) :   0.9741 B( 18-C , 19-C ) :   1.2989 B( 18-C , 21-H ) :   0.9838
B( 19-C , 20-C ) :   1.5129 B( 19-C , 22-C ) :   1.0388 B( 22-C , 23-H ) :   0.9338
B( 22-C , 24-H ) :   0.9213 B( 22-C , 25-C ) :   1.0629 B( 25-C , 26-H ) :   0.9551
B( 25-C , 27-H ) :   0.9545 B( 25-C , 28-C ) :   1.0804 B( 28-C , 29-H ) :   0.9795
B( 28-C , 30-H ) :   0.9755 B( 28-C , 31-H ) :   0.9749

Dispersion correction           -0.014354121
FINAL SINGLE POINT ENERGY     -1339.862429606037

DIPOLE MOMENT
-------------
                                X             Y             Z
Electronic contribution:      9.95821       4.89797       1.29008
Nuclear contribution   :    -10.02003      -4.81879      -1.20849
                        -----------------------------------------
Total Dipole Moment    :     -0.06182       0.07917       0.08159
                        -----------------------------------------
Magnitude (a.u.)       :      0.12941
Magnitude (Debye)      :      0.32893

Rotational constants in cm-1:     0.020293     0.008795     0.006635
Rotational constants in MHz :   608.381277   263.675791   198.915686

                             ****ORCA TERMINATED NORMALLY****
TOTAL RUN TIME: 0 days 0 hours 0 minutes 32 seconds 72 msec
