                         Program Version 4.2.1 -  RELEASE  -
|  1> ! wB97X-D3 SP def2-SVP
|  2> %pal
|  3> nprocs 16
|  4> end
|  5>
|  6> * xyz 0 1
|  7> S 	 7.19496 	 -19.7324 	 85.9765
|  8> C 	 5.85807 	 -19.0241 	 85.11
|  9> C 	 5.94579 	 -19.3272 	 83.7484
| 10> C 	 7.14844 	 -20.001 	 83.4376
| 11> C 	 7.91508 	 -20.3045 	 84.5451
| 12> H 	 7.44066 	 -20.4347 	 82.5037
| 13> C 	 5.03901 	 -18.8011 	 82.6664
| 14> H 	 5.57286 	 -18.0445 	 82.0972
| 15> H 	 4.26384 	 -18.2977 	 83.2427
| 16> C 	 4.45058 	 -19.8878 	 81.7397
| 17> H 	 5.32656 	 -20.1525 	 81.1912
| 18> H 	 4.22095 	 -20.8345 	 82.2545
| 19> C 	 3.24662 	 -19.3365 	 80.9656
| 20> H 	 3.06511 	 -20.1292 	 80.2249
| 21> H 	 2.35924 	 -18.928 	 81.4706
| 22> H 	 3.56932 	 -18.4448 	 80.3986
| 23> S 	 9.38057 	 -22.7834 	 84.3329
| 24> C 	 11.0751 	 -22.7458 	 84.6604
| 25> C 	 11.5516 	 -21.436 	 84.6555
| 26> C 	 10.5059 	 -20.498 	 84.63
| 27> C 	 9.1759 	 -21.0139 	 84.6068
| 28> H 	 12.617 	 -21.2738 	 84.707
| 29> C 	 10.8935 	 -19.034 	 84.5069
| 30> H 	 9.98594 	 -18.3932 	 84.3735
| 31> H 	 11.4405 	 -18.908 	 83.5825
| 32> C 	 11.711 	 -18.5787 	 85.7451
| 33> H 	 12.6355 	 -19.095 	 85.7581
| 34> H 	 11.1987 	 -18.7782 	 86.7012
| 35> C 	 12.134 	 -17.1173 	 85.7101
| 36> H 	 12.3394 	 -16.6965 	 84.6965
| 37> H 	 12.8766 	 -16.7644 	 86.4183
| 38> H 	 11.1999 	 -16.5896 	 85.9152
| 39> H 	 5.05204 	 -18.4573 	 85.6212
| 40> H 	 11.7082 	 -23.5613 	 84.811
| 41> *
| 42>
| 43>                          ****END OF INPUT****

CARTESIAN COORDINATES (ANGSTROEM)
---------------------------------
  S      7.194960  -19.732400   85.976500
  C      5.858070  -19.024100   85.110000
  C      5.945790  -19.327200   83.748400
  C      7.148440  -20.001000   83.437600
  C      7.915080  -20.304500   84.545100
  H      7.440660  -20.434700   82.503700
  C      5.039010  -18.801100   82.666400
  H      5.572860  -18.044500   82.097200
  H      4.263840  -18.297700   83.242700
  C      4.450580  -19.887800   81.739700
  H      5.326560  -20.152500   81.191200
  H      4.220950  -20.834500   82.254500
  C      3.246620  -19.336500   80.965600
  H      3.065110  -20.129200   80.224900
  H      2.359240  -18.928000   81.470600
  H      3.569320  -18.444800   80.398600
  S      9.380570  -22.783400   84.332900
  C     11.075100  -22.745800   84.660400
  C     11.551600  -21.436000   84.655500
  C     10.505900  -20.498000   84.630000
  C      9.175900  -21.013900   84.606800
  H     12.617000  -21.273800   84.707000
  C     10.893500  -19.034000   84.506900
  H      9.985940  -18.393200   84.373500
  H     11.440500  -18.908000   83.582500
  C     11.711000  -18.578700   85.745100
  H     12.635500  -19.095000   85.758100
  H     11.198700  -18.778200   86.701200
  C     12.134000  -17.117300   85.710100
  H     12.339400  -16.696500   84.696500
  H     12.876600  -16.764400   86.418300
  H     11.199900  -16.589600   85.915200
  H      5.052040  -18.457300   85.621200
  H     11.708200  -23.561300   84.811000

 Total Charge           Charge          ....    0
 Multiplicity           Mult            ....    1
 Number of Electrons    NEL             ....  134
 Basis Dimension        Dim             ....  322

ORBITAL ENERGIES
----------------

  NO   OCC          E(Eh)            E(eV)
   0   2.0000     -88.965432     -2420.8725
   1   2.0000     -88.965327     -2420.8696
   2   2.0000     -10.329510      -281.0803
   3   2.0000     -10.323901      -280.9276
   4   2.0000     -10.316870      -280.7363
   5   2.0000     -10.315128      -280.6889
   6   2.0000     -10.304508      -280.3999
   7   2.0000     -10.299277      -280.2576
   8   2.0000     -10.291117      -280.0355
   9   2.0000     -10.290393      -280.0158
  10   2.0000     -10.289060      -279.9795
  11   2.0000     -10.288020      -279.9513
  12   2.0000     -10.287382      -279.9339
  13   2.0000     -10.283939      -279.8402
  14   2.0000     -10.281791      -279.7818
  15   2.0000     -10.273817      -279.5648
  16   2.0000      -8.081095      -219.8978
  17   2.0000      -8.079418      -219.8521
  18   2.0000      -6.039384      -164.3400
  19   2.0000      -6.037903      -164.2997
  20   2.0000      -6.035321      -164.2294
  21   2.0000      -6.034022      -164.1941
  22   2.0000      -6.032176      -164.1438
  23   2.0000      -6.030229      -164.0909
  24   2.0000      -1.007771       -27.4228
  25   2.0000      -0.984584       -26.7919
  26   2.0000      -0.913921       -24.8691
  27   2.0000      -0.905585       -24.6422
  28   2.0000      -0.869065       -23.6485
  29   2.0000      -0.849772       -23.1235
  30   2.0000      -0.847498       -23.0616
  31   2.0000      -0.812790       -22.1172
  32   2.0000      -0.781557       -21.2672
  33   2.0000      -0.766145       -20.8479
  34   2.0000      -0.713211       -19.4075
  35   2.0000      -0.698083       -18.9958
  36   2.0000      -0.693679       -18.8760
  37   2.0000      -0.656577       -17.8664
  38   2.0000      -0.643587       -17.5129
  39   2.0000      -0.618542       -16.8314
  40   2.0000      -0.595252       -16.1976
  41   2.0000      -0.574561       -15.6346
  42   2.0000      -0.560957       -15.2644
  43   2.0000      -0.559311       -15.2196
  44   2.0000      -0.533871       -14.5274
  45   2.0000      -0.527032       -14.3413
  46   2.0000      -0.516176       -14.0459
  47   2.0000      -0.508025       -13.8241
  48   2.0000      -0.504602       -13.7309
  49   2.0000      -0.500830       -13.6283
  50   2.0000      -0.496326       -13.5057
  51   2.0000      -0.483982       -13.1698
  52   2.0000      -0.470354       -12.7990
  53   2.0000      -0.465463       -12.6659
  54   2.0000      -0.457459       -12.4481
  55   2.0000      -0.444489       -12.0952
  56   2.0000      -0.439989       -11.9727
  57   2.0000      -0.437535       -11.9059
  58   2.0000      -0.434814       -11.8319
  59   2.0000      -0.424827       -11.5601
  60   2.0000      -0.416521       -11.3341
  61   2.0000      -0.407663       -11.0931
  62   2.0000      -0.406803       -11.0697
  63   2.0000      -0.334198        -9.0940
  64   2.0000      -0.327943        -8.9238
  65   2.0000      -0.323963        -8.8155
  66   2.0000      -0.303049        -8.2464
  67   0.0000       0.040417         1.0998
  68   0.0000       0.050535         1.3751
  69   0.0000       0.107647         2.9292
  70   0.0000       0.128338         3.4922
  71   0.0000       0.130412         3.5487

MULLIKEN ATOMIC CHARGES
-----------------------
   0 S :    0.129605
   1 C :   -0.151594
   2 C :   -0.081910
   3 C :    0.045566
   4 C :   -0.204545
   5 H :    0.004884
   6 C :    0.067591
   7 H :    0.043236
   8 H :    0.005119
   9 C :   -0.087072
  10 H :    0.024543
  11 H :    0.037657
  12 C :   -0.041969
  13 H :    0.041592
  14 H :    0.049308
  15 H :    0.021174
  16 S :    0.109262
  17 C :   -0.070591
  18 C :   -0.036289
  19 C :   -0.021238
  20 C :   -0.149706
  21 H :    0.024696
  22 C :    0.062015
  23 H :    0.030807
  24 H :    0.033488
  25 C :   -0.082264
  26 H :    0.018726
  27 H :    0.041969
  28 C :   -0.048572
  29 H :    0.023142
  30 H :    0.042193
  31 H :    0.017031
  32 H :    0.064190
  33 H :    0.037955
Sum of atomic charges:    0.0000000

LOEWDIN ATOMIC CHARGES
----------------------
   0 S :    0.441043
   1 C :   -0.209803
   2 C :   -0.064108
   3 C :   -0.062428
   4 C :   -0.213759
   5 H :    0.028087
   6 C :   -0.030230
   7 H :    0.033218
   8 H :    0.023524
   9 C :   -0.041113
  10 H :    0.022149
  11 H :    0.027884
  12 C :   -0.070935
  13 H :    0.032100
  14 H :    0.031839
  15 H :    0.027134
  16 S :    0.399390
  17 C :   -0.174499
  18 C :   -0.075372
  19 C :   -0.045850
  20 C :   -0.207405
  21 H :    0.032483
  22 C :   -0.028721
  23 H :    0.030876
  24 H :    0.032502
  25 C :   -0.039338
  26 H :    0.014158
  27 H :    0.031197
  28 C :   -0.076028
  29 H :    0.026838
  30 H :    0.025551
  31 H :    0.024742
  32 H :    0.035038
  33 H :    0.019833

  Mayer bond orders larger than 0.100000
B(  0-S ,  1-C ) :   1.1563 B(  0-S ,  4-C ) :   1.1829 B(  1-C ,  2-C ) :   1.5787
B(  1-C ,  4-C ) :   0.1016 B(  1-C , 32-H ) :   0.9646 B(  2-C ,  3-C ) :   1.2481
B(  2-C ,  6-C ) :   1.0282 B(  3-C ,  4-C ) :   1.5741 B(  3-C ,  5-H ) :   0.9974
B(  4-C , 20-C ) :   1.0289 B(  6-C ,  7-H ) :   0.9420 B(  6-C ,  8-H ) :   0.9427
B(  6-C ,  9-C ) :   1.0403 B(  9-C , 10-H ) :   0.9542 B(  9-C , 11-H ) :   0.9630
B(  9-C , 12-C ) :   1.0755 B( 12-C , 13-H ) :   0.9740 B( 12-C , 14-H ) :   0.9774
B( 12-C , 15-H ) :   0.9694 B( 16-S , 17-C ) :   1.1878 B( 16-S , 20-C ) :   1.1172
B( 17-C , 18-C ) :   1.5669 B( 17-C , 20-C ) :   0.1113 B( 17-C , 33-H ) :   0.9733
B( 18-C , 19-C ) :   1.2714 B( 18-C , 21-H ) :   0.9938 B( 19-C , 20-C ) :   1.5523
B( 19-C , 22-C ) :   1.0473 B( 22-C , 23-H ) :   0.9364 B( 22-C , 24-H ) :   0.9366
B( 22-C , 25-C ) :   1.0547 B( 25-C , 26-H ) :   0.9568 B( 25-C , 27-H ) :   0.9592
B( 25-C , 28-C ) :   1.0799 B( 28-C , 29-H ) :   0.9705 B( 28-C , 30-H ) :   0.9758
B( 28-C , 31-H ) :   0.9726

Dispersion correction           -0.013792442
FINAL SINGLE POINT ENERGY     -1339.869211347999

DIPOLE MOMENT
-------------
                                X             Y             Z
Electronic contribution:      2.62441     -16.93552      10.51877
Nuclear contribution   :     -2.51046      17.27288     -10.88051
                        -----------------------------------------
Total Dipole Moment    :      0.11395       0.33736      -0.36175
                        -----------------------------------------
Magnitude (a.u.)       :      0.50760
Magnitude (Debye)      :      1.29022

Rotational constants in cm-1:     0.019783     0.007381     0.006300
Rotational constants in MHz :   593.084372   221.283622   188.857290

                             ****ORCA TERMINATED NORMALLY****
TOTAL RUN TIME: 0 days 0 hours 0 minutes 32 seconds 484 msec
