                         Program Version 4.2.1 -  RELEASE  -
|  1> ! wB97X-D3 SP def2-SVP
|  2> %pal
|  3> nprocs 16
|  4> end
|  5>
|  6> * xyz 0 1
|  7> S 	 43.3262 	 12.1511 	 48.558
|  8> C 	 43.6766 	 10.9239 	 49.6953
|  9> C 	 43.6694 	 11.3234 	 51.022
| 10> C 	 43.6602 	 12.7253 	 51.0618
| 11> C 	 43.485 	 13.332 	 49.8779
| 12> H 	 43.8935 	 13.2674 	 51.9028
| 13> C 	 43.9234 	 10.4107 	 52.2449
| 14> H 	 43.5553 	 9.43668 	 51.8814
| 15> H 	 43.1846 	 10.7722 	 53.0316
| 16> C 	 45.3721 	 10.4507 	 52.7525
| 17> H 	 45.9166 	 10.1484 	 51.842
| 18> H 	 45.6436 	 11.4428 	 53.0487
| 19> C 	 45.7415 	 9.54663 	 53.8839
| 20> H 	 45.0767 	 9.55889 	 54.766
| 21> H 	 45.8169 	 8.52855 	 53.5386
| 22> H 	 46.7327 	 9.74677 	 54.2526
| 23> S 	 44.9725 	 15.1235 	 48.4761
| 24> C 	 44.7252 	 16.7852 	 48.7549
| 25> C 	 43.8474 	 17.0159 	 49.7541
| 26> C 	 43.2391 	 15.8388 	 50.2684
| 27> C 	 43.6947 	 14.7247 	 49.5773
| 28> H 	 43.7963 	 17.96 	 50.1535
| 29> C 	 42.1375 	 15.6727 	 51.2378
| 30> H 	 42.6125 	 15.7885 	 52.2053
| 31> H 	 41.8445 	 14.6381 	 51.2892
| 32> C 	 40.9603 	 16.6815 	 50.9528
| 33> H 	 41.2719 	 17.6868 	 50.8505
| 34> H 	 40.2378 	 16.7402 	 51.7896
| 35> C 	 40.2763 	 16.3444 	 49.625
| 36> H 	 39.5287 	 17.1155 	 49.4126
| 37> H 	 39.7818 	 15.3651 	 49.7418
| 38> H 	 40.9369 	 16.4099 	 48.7409
| 39> H 	 43.7964 	 9.87464 	 49.4377
| 40> H 	 45.2859 	 17.5142 	 48.2423
| 41> *
| 42>
| 43>                          ****END OF INPUT****

CARTESIAN COORDINATES (ANGSTROEM)
---------------------------------
  S     43.326200   12.151100   48.558000
  C     43.676600   10.923900   49.695300
  C     43.669400   11.323400   51.022000
  C     43.660200   12.725300   51.061800
  C     43.485000   13.332000   49.877900
  H     43.893500   13.267400   51.902800
  C     43.923400   10.410700   52.244900
  H     43.555300    9.436680   51.881400
  H     43.184600   10.772200   53.031600
  C     45.372100   10.450700   52.752500
  H     45.916600   10.148400   51.842000
  H     45.643600   11.442800   53.048700
  C     45.741500    9.546630   53.883900
  H     45.076700    9.558890   54.766000
  H     45.816900    8.528550   53.538600
  H     46.732700    9.746770   54.252600
  S     44.972500   15.123500   48.476100
  C     44.725200   16.785200   48.754900
  C     43.847400   17.015900   49.754100
  C     43.239100   15.838800   50.268400
  C     43.694700   14.724700   49.577300
  H     43.796300   17.960000   50.153500
  C     42.137500   15.672700   51.237800
  H     42.612500   15.788500   52.205300
  H     41.844500   14.638100   51.289200
  C     40.960300   16.681500   50.952800
  H     41.271900   17.686800   50.850500
  H     40.237800   16.740200   51.789600
  C     40.276300   16.344400   49.625000
  H     39.528700   17.115500   49.412600
  H     39.781800   15.365100   49.741800
  H     40.936900   16.409900   48.740900
  H     43.796400    9.874640   49.437700
  H     45.285900   17.514200   48.242300

 Total Charge           Charge          ....    0
 Multiplicity           Mult            ....    1
 Number of Electrons    NEL             ....  134
 Basis Dimension        Dim             ....  322

ORBITAL ENERGIES
----------------

  NO   OCC          E(Eh)            E(eV)
   0   2.0000     -88.964874     -2420.8573
   1   2.0000     -88.958713     -2420.6896
   2   2.0000     -10.319436      -280.8061
   3   2.0000     -10.313394      -280.6417
   4   2.0000     -10.309850      -280.5453
   5   2.0000     -10.305198      -280.4187
   6   2.0000     -10.301521      -280.3186
   7   2.0000     -10.296149      -280.1725
   8   2.0000     -10.294709      -280.1333
   9   2.0000     -10.286767      -279.9172
  10   2.0000     -10.285532      -279.8835
  11   2.0000     -10.284852      -279.8650
  12   2.0000     -10.282047      -279.7887
  13   2.0000     -10.281395      -279.7710
  14   2.0000     -10.275413      -279.6082
  15   2.0000     -10.273233      -279.5489
  16   2.0000      -8.080147      -219.8720
  17   2.0000      -8.075047      -219.7332
  18   2.0000      -6.038516      -164.3164
  19   2.0000      -6.034742      -164.2137
  20   2.0000      -6.033345      -164.1757
  21   2.0000      -6.030867      -164.1082
  22   2.0000      -6.029383      -164.0679
  23   2.0000      -6.025879      -163.9725
  24   2.0000      -1.014718       -27.6119
  25   2.0000      -0.991418       -26.9779
  26   2.0000      -0.912164       -24.8212
  27   2.0000      -0.909124       -24.7385
  28   2.0000      -0.874131       -23.7863
  29   2.0000      -0.857802       -23.3420
  30   2.0000      -0.846348       -23.0303
  31   2.0000      -0.819168       -22.2907
  32   2.0000      -0.784181       -21.3386
  33   2.0000      -0.768681       -20.9169
  34   2.0000      -0.705859       -19.2074
  35   2.0000      -0.701524       -19.0894
  36   2.0000      -0.695003       -18.9120
  37   2.0000      -0.657900       -17.9024
  38   2.0000      -0.643776       -17.5180
  39   2.0000      -0.626944       -17.0600
  40   2.0000      -0.602476       -16.3942
  41   2.0000      -0.572839       -15.5877
  42   2.0000      -0.561020       -15.2661
  43   2.0000      -0.552029       -15.0215
  44   2.0000      -0.541012       -14.7217
  45   2.0000      -0.529773       -14.4159
  46   2.0000      -0.517597       -14.0845
  47   2.0000      -0.512875       -13.9560
  48   2.0000      -0.505019       -13.7423
  49   2.0000      -0.495099       -13.4723
  50   2.0000      -0.484143       -13.1742
  51   2.0000      -0.478154       -13.0112
  52   2.0000      -0.472746       -12.8641
  53   2.0000      -0.462567       -12.5871
  54   2.0000      -0.459846       -12.5131
  55   2.0000      -0.454106       -12.3568
  56   2.0000      -0.444104       -12.0847
  57   2.0000      -0.435826       -11.8594
  58   2.0000      -0.434288       -11.8176
  59   2.0000      -0.425241       -11.5714
  60   2.0000      -0.420804       -11.4506
  61   2.0000      -0.418879       -11.3983
  62   2.0000      -0.413157       -11.2426
  63   2.0000      -0.350024        -9.5246
  64   2.0000      -0.329068        -8.9544
  65   2.0000      -0.326249        -8.8777
  66   2.0000      -0.290188        -7.8964
  67   0.0000       0.034083         0.9274
  68   0.0000       0.078497         2.1360
  69   0.0000       0.113078         3.0770
  70   0.0000       0.123921         3.3721
  71   0.0000       0.141124         3.8402

MULLIKEN ATOMIC CHARGES
-----------------------
   0 S :    0.119721
   1 C :   -0.125329
   2 C :   -0.100374
   3 C :    0.057894
   4 C :   -0.173096
   5 H :   -0.021467
   6 C :    0.046904
   7 H :    0.024709
   8 H :    0.035476
   9 C :   -0.052949
  10 H :    0.032061
  11 H :    0.025288
  12 C :   -0.021815
  13 H :    0.032267
  14 H :    0.021043
  15 H :    0.026262
  16 S :    0.112917
  17 C :   -0.067243
  18 C :   -0.014183
  19 C :   -0.059039
  20 C :   -0.148664
  21 H :   -0.015167
  22 C :    0.107033
  23 H :    0.021450
  24 H :    0.022948
  25 C :   -0.061576
  26 H :    0.017143
  27 H :    0.028662
  28 C :   -0.068253
  29 H :    0.027709
  30 H :    0.040513
  31 H :    0.050992
  32 H :    0.041045
  33 H :    0.037119
Sum of atomic charges:    0.0000000

LOEWDIN ATOMIC CHARGES
----------------------
   0 S :    0.404903
   1 C :   -0.202103
   2 C :   -0.067768
   3 C :   -0.047756
   4 C :   -0.186459
   5 H :    0.018834
   6 C :   -0.031619
   7 H :    0.029721
   8 H :    0.034519
   9 C :   -0.041945
  10 H :    0.032445
  11 H :    0.022122
  12 C :   -0.066692
  13 H :    0.027258
  14 H :    0.023515
  15 H :    0.026726
  16 S :    0.426330
  17 C :   -0.183566
  18 C :   -0.067528
  19 C :   -0.051899
  20 C :   -0.210597
  21 H :    0.018032
  22 C :   -0.031210
  23 H :    0.030967
  24 H :    0.029764
  25 C :   -0.037015
  26 H :    0.015960
  27 H :    0.025502
  28 C :   -0.067164
  29 H :    0.024907
  30 H :    0.027534
  31 H :    0.031041
  32 H :    0.023716
  33 H :    0.019528

  Mayer bond orders larger than 0.100000
B(  0-S ,  1-C ) :   1.1550 B(  0-S ,  4-C ) :   1.1286 B(  1-C ,  2-C ) :   1.6152
B(  1-C , 32-H ) :   0.9612 B(  2-C ,  3-C ) :   1.2337 B(  2-C ,  6-C ) :   1.0235
B(  3-C ,  4-C ) :   1.5969 B(  3-C ,  5-H ) :   1.0038 B(  4-C , 20-C ) :   1.0353
B(  6-C ,  7-H ) :   0.9423 B(  6-C ,  8-H ) :   0.9345 B(  6-C ,  9-C ) :   1.0577
B(  9-C , 10-H ) :   0.9526 B(  9-C , 11-H ) :   0.9560 B(  9-C , 12-C ) :   1.0946
B( 12-C , 13-H ) :   0.9722 B( 12-C , 14-H ) :   0.9728 B( 12-C , 15-H ) :   0.9705
B( 16-S , 17-C ) :   1.1657 B( 16-S , 20-C ) :   1.1556 B( 17-C , 18-C ) :   1.5943
B( 17-C , 33-H ) :   0.9734 B( 18-C , 19-C ) :   1.2320 B( 18-C , 21-H ) :   1.0104
B( 19-C , 20-C ) :   1.5718 B( 19-C , 22-C ) :   1.0483 B( 22-C , 23-H ) :   0.9161
B( 22-C , 24-H ) :   0.9334 B( 22-C , 25-C ) :   1.0556 B( 25-C , 26-H ) :   0.9590
B( 25-C , 27-H ) :   0.9573 B( 25-C , 28-C ) :   1.0744 B( 28-C , 29-H ) :   0.9732
B( 28-C , 30-H ) :   0.9774 B( 28-C , 31-H ) :   0.9733

Dispersion correction           -0.014531540
FINAL SINGLE POINT ENERGY     -1339.876999596260

DIPOLE MOMENT
-------------
                                X             Y             Z
Electronic contribution:      6.03837       3.75384     -19.95317
Nuclear contribution   :     -5.91627      -3.71535      20.57412
                        -----------------------------------------
Total Dipole Moment    :      0.12210       0.03849       0.62095
                        -----------------------------------------
Magnitude (a.u.)       :      0.63401
Magnitude (Debye)      :      1.61152

Rotational constants in cm-1:     0.020899     0.007670     0.007150
Rotational constants in MHz :   626.547620   229.949639   214.345379

                             ****ORCA TERMINATED NORMALLY****
TOTAL RUN TIME: 0 days 0 hours 0 minutes 33 seconds 649 msec
