                         Program Version 4.2.1 -  RELEASE  -
|  1> ! wB97X-D3 SP def2-SVP
|  2> %pal
|  3> nprocs 16
|  4> end
|  5>
|  6> * xyz 0 1
|  7> S 	 -71.8525 	 37.9458 	 119.056
|  8> C 	 -71.18 	 36.6381 	 120.109
|  9> C 	 -71.5044 	 36.9135 	 121.387
| 10> C 	 -72.2107 	 38.1664 	 121.534
| 11> C 	 -72.4796 	 38.8065 	 120.414
| 12> H 	 -72.6496 	 38.4444 	 122.534
| 13> C 	 -71.3723 	 35.9534 	 122.549
| 14> H 	 -71.5359 	 34.9268 	 122.077
| 15> H 	 -72.1093 	 36.2314 	 123.263
| 16> C 	 -69.9919 	 35.8745 	 123.17
| 17> H 	 -69.8275 	 35.058 	 123.956
| 18> H 	 -69.3313 	 35.8446 	 122.338
| 19> C 	 -69.6361 	 37.2101 	 123.841
| 20> H 	 -69.9372 	 38.07 	 123.321
| 21> H 	 -69.9905 	 37.2656 	 124.826
| 22> H 	 -68.5617 	 37.2491 	 124.029
| 23> S 	 -74.7206 	 40.4561 	 120.231
| 24> C 	 -74.4508 	 42.246 	 120.347
| 25> C 	 -73.1065 	 42.505 	 120.405
| 26> C 	 -72.3083 	 41.3364 	 120.36
| 27> C 	 -73.0007 	 40.1289 	 120.271
| 28> H 	 -72.8476 	 43.5537 	 120.555
| 29> C 	 -70.8378 	 41.4954 	 120.571
| 30> H 	 -70.5947 	 40.9975 	 121.477
| 31> H 	 -70.6204 	 42.5214 	 120.797
| 32> C 	 -69.9515 	 41.1634 	 119.39
| 33> H 	 -70.2729 	 41.5512 	 118.421
| 34> H 	 -69.9889 	 40.0778 	 119.248
| 35> C 	 -68.4913 	 41.6243 	 119.601
| 36> H 	 -68.02 	 41.7421 	 118.622
| 37> H 	 -67.7961 	 40.9435 	 120.206
| 38> H 	 -68.4818 	 42.7048 	 119.974
| 39> H 	 -70.882 	 35.676 	 119.76
| 40> H 	 -75.1434 	 43.043 	 120.407
| 41> *
| 42>
| 43>                          ****END OF INPUT****

CARTESIAN COORDINATES (ANGSTROEM)
---------------------------------
  S    -71.852500   37.945800  119.056000
  C    -71.180000   36.638100  120.109000
  C    -71.504400   36.913500  121.387000
  C    -72.210700   38.166400  121.534000
  C    -72.479600   38.806500  120.414000
  H    -72.649600   38.444400  122.534000
  C    -71.372300   35.953400  122.549000
  H    -71.535900   34.926800  122.077000
  H    -72.109300   36.231400  123.263000
  C    -69.991900   35.874500  123.170000
  H    -69.827500   35.058000  123.956000
  H    -69.331300   35.844600  122.338000
  C    -69.636100   37.210100  123.841000
  H    -69.937200   38.070000  123.321000
  H    -69.990500   37.265600  124.826000
  H    -68.561700   37.249100  124.029000
  S    -74.720600   40.456100  120.231000
  C    -74.450800   42.246000  120.347000
  C    -73.106500   42.505000  120.405000
  C    -72.308300   41.336400  120.360000
  C    -73.000700   40.128900  120.271000
  H    -72.847600   43.553700  120.555000
  C    -70.837800   41.495400  120.571000
  H    -70.594700   40.997500  121.477000
  H    -70.620400   42.521400  120.797000
  C    -69.951500   41.163400  119.390000
  H    -70.272900   41.551200  118.421000
  H    -69.988900   40.077800  119.248000
  C    -68.491300   41.624300  119.601000
  H    -68.020000   41.742100  118.622000
  H    -67.796100   40.943500  120.206000
  H    -68.481800   42.704800  119.974000
  H    -70.882000   35.676000  119.760000
  H    -75.143400   43.043000  120.407000

 Total Charge           Charge          ....    0
 Multiplicity           Mult            ....    1
 Number of Electrons    NEL             ....  134
 Basis Dimension        Dim             ....  322

ORBITAL ENERGIES
----------------

  NO   OCC          E(Eh)            E(eV)
   0   2.0000     -88.967263     -2420.9223
   1   2.0000     -88.963842     -2420.8292
   2   2.0000     -10.324792      -280.9519
   3   2.0000     -10.324068      -280.9322
   4   2.0000     -10.318690      -280.7858
   5   2.0000     -10.316478      -280.7256
   6   2.0000     -10.300604      -280.2937
   7   2.0000     -10.300330      -280.2862
   8   2.0000     -10.295098      -280.1439
   9   2.0000     -10.294472      -280.1268
  10   2.0000     -10.292215      -280.0654
  11   2.0000     -10.288717      -279.9702
  12   2.0000     -10.283860      -279.8381
  13   2.0000     -10.278828      -279.7011
  14   2.0000     -10.277712      -279.6708
  15   2.0000     -10.264583      -279.3135
  16   2.0000      -8.080740      -219.8881
  17   2.0000      -8.078169      -219.8182
  18   2.0000      -6.039428      -164.3412
  19   2.0000      -6.036910      -164.2727
  20   2.0000      -6.035365      -164.2306
  21   2.0000      -6.032672      -164.1574
  22   2.0000      -6.031429      -164.1235
  23   2.0000      -6.028705      -164.0494
  24   2.0000      -1.012982       -27.5647
  25   2.0000      -0.984896       -26.8004
  26   2.0000      -0.920407       -25.0455
  27   2.0000      -0.906279       -24.6611
  28   2.0000      -0.877363       -23.8743
  29   2.0000      -0.844998       -22.9936
  30   2.0000      -0.843282       -22.9469
  31   2.0000      -0.822890       -22.3920
  32   2.0000      -0.786162       -21.3926
  33   2.0000      -0.767563       -20.8865
  34   2.0000      -0.714040       -19.4300
  35   2.0000      -0.704426       -19.1684
  36   2.0000      -0.690679       -18.7943
  37   2.0000      -0.660932       -17.9849
  38   2.0000      -0.642873       -17.4935
  39   2.0000      -0.618067       -16.8185
  40   2.0000      -0.593340       -16.1456
  41   2.0000      -0.581786       -15.8312
  42   2.0000      -0.563502       -15.3337
  43   2.0000      -0.553755       -15.0684
  44   2.0000      -0.547347       -14.8941
  45   2.0000      -0.524208       -14.2644
  46   2.0000      -0.517963       -14.0945
  47   2.0000      -0.514682       -14.0052
  48   2.0000      -0.505466       -13.7544
  49   2.0000      -0.502779       -13.6813
  50   2.0000      -0.491490       -13.3741
  51   2.0000      -0.479465       -13.0469
  52   2.0000      -0.470393       -12.8000
  53   2.0000      -0.463233       -12.6052
  54   2.0000      -0.458537       -12.4774
  55   2.0000      -0.449149       -12.2220
  56   2.0000      -0.438907       -11.9433
  57   2.0000      -0.430349       -11.7104
  58   2.0000      -0.427203       -11.6248
  59   2.0000      -0.423891       -11.5346
  60   2.0000      -0.416573       -11.3355
  61   2.0000      -0.414923       -11.2906
  62   2.0000      -0.404650       -11.0111
  63   2.0000      -0.337999        -9.1974
  64   2.0000      -0.333934        -9.0868
  65   2.0000      -0.327933        -8.9235
  66   2.0000      -0.311165        -8.4672
  67   0.0000       0.045858         1.2479
  68   0.0000       0.047234         1.2853
  69   0.0000       0.105617         2.8740
  70   0.0000       0.116689         3.1753
  71   0.0000       0.128526         3.4974

MULLIKEN ATOMIC CHARGES
-----------------------
   0 S :    0.090318
   1 C :   -0.108435
   2 C :   -0.121112
   3 C :    0.039099
   4 C :   -0.157296
   5 H :    0.032022
   6 C :    0.075143
   7 H :    0.038956
   8 H :    0.017404
   9 C :   -0.052172
  10 H :    0.051102
  11 H :    0.017698
  12 C :   -0.043452
  13 H :    0.026882
  14 H :    0.009215
  15 H :    0.023416
  16 S :    0.101395
  17 C :   -0.079040
  18 C :   -0.043753
  19 C :   -0.028857
  20 C :   -0.156104
  21 H :    0.027493
  22 C :    0.140533
  23 H :    0.020578
  24 H :   -0.012374
  25 C :   -0.071027
  26 H :    0.025655
  27 H :    0.033294
  28 C :   -0.089474
  29 H :    0.028876
  30 H :    0.053102
  31 H :    0.031085
  32 H :    0.041944
  33 H :    0.037886
Sum of atomic charges:   -0.0000000

LOEWDIN ATOMIC CHARGES
----------------------
   0 S :    0.398262
   1 C :   -0.170289
   2 C :   -0.064293
   3 C :   -0.065091
   4 C :   -0.200928
   5 H :    0.041387
   6 C :   -0.028227
   7 H :    0.040843
   8 H :    0.023134
   9 C :   -0.039126
  10 H :    0.035934
  11 H :    0.019496
  12 C :   -0.063802
  13 H :    0.016987
  14 H :    0.015880
  15 H :    0.027702
  16 S :    0.385640
  17 C :   -0.160199
  18 C :   -0.071771
  19 C :   -0.047232
  20 C :   -0.209680
  21 H :    0.037777
  22 C :   -0.030115
  23 H :    0.030259
  24 H :    0.022367
  25 C :   -0.044300
  26 H :    0.026490
  27 H :    0.016938
  28 C :   -0.079780
  29 H :    0.024908
  30 H :    0.033185
  31 H :    0.028050
  32 H :    0.025107
  33 H :    0.024490

  Mayer bond orders larger than 0.100000
B(  0-S ,  1-C ) :   1.1094 B(  0-S ,  4-C ) :   1.1401 B(  1-C ,  2-C ) :   1.6641
B(  1-C , 32-H ) :   0.9683 B(  2-C ,  3-C ) :   1.2018 B(  2-C ,  6-C ) :   1.0091
B(  3-C ,  4-C ) :   1.6514 B(  3-C ,  5-H ) :   0.9830 B(  4-C , 20-C ) :   0.9974
B(  6-C ,  7-H ) :   0.9411 B(  6-C ,  8-H ) :   0.9438 B(  6-C ,  9-C ) :   1.0701
B(  9-C , 10-H ) :   0.9571 B(  9-C , 11-H ) :   0.9551 B(  9-C , 12-C ) :   1.0771
B( 12-C , 13-H ) :   0.9764 B( 12-C , 14-H ) :   0.9729 B( 12-C , 15-H ) :   0.9718
B( 16-S , 17-C ) :   1.1442 B( 16-S , 20-C ) :   1.1272 B( 17-C , 18-C ) :   1.6349
B( 17-C , 33-H ) :   0.9669 B( 18-C , 19-C ) :   1.2477 B( 18-C , 21-H ) :   0.9864
B( 19-C , 20-C ) :   1.5936 B( 19-C , 22-C ) :   1.0457 B( 22-C , 23-H ) :   0.9184
B( 22-C , 24-H ) :   0.9269 B( 22-C , 25-C ) :   1.0632 B( 25-C , 26-H ) :   0.9572
B( 25-C , 27-H ) :   0.9466 B( 25-C , 28-C ) :   1.0837 B( 28-C , 29-H ) :   0.9764
B( 28-C , 30-H ) :   0.9749 B( 28-C , 31-H ) :   0.9714

Dispersion correction           -0.015077838
FINAL SINGLE POINT ENERGY     -1339.861561336410

DIPOLE MOMENT
-------------
                                X             Y             Z
Electronic contribution:    -23.14451       0.79455     -12.25462
Nuclear contribution   :     23.44006      -0.76084      12.76405
                        -----------------------------------------
Total Dipole Moment    :      0.29555       0.03372       0.50944
                        -----------------------------------------
Magnitude (a.u.)       :      0.58992
Magnitude (Debye)      :      1.49947

Rotational constants in cm-1:     0.017921     0.009294     0.007843
Rotational constants in MHz :   537.243535   278.612867   235.115609

                             ****ORCA TERMINATED NORMALLY****
TOTAL RUN TIME: 0 days 0 hours 0 minutes 35 seconds 403 msec
