                         Program Version 4.2.1 -  RELEASE  -
|  1> ! wB97X-D3 SP def2-SVP
|  2> %pal
|  3> nprocs 16
|  4> end
|  5>
|  6> * xyz 0 1
|  7> S 	 8.1022 	 78.0011 	 45.8645
|  8> C 	 8.88993 	 76.4935 	 46.4633
|  9> C 	 7.98523 	 75.7092 	 47.0816
| 10> C 	 6.78135 	 76.3804 	 47.4313
| 11> C 	 6.6669 	 77.6296 	 46.8419
| 12> H 	 5.96634 	 76.0003 	 48.0263
| 13> C 	 8.43678 	 74.3385 	 47.5877
| 14> H 	 7.91347 	 73.8731 	 48.4274
| 15> H 	 9.47619 	 74.3578 	 47.8784
| 16> C 	 8.40366 	 73.3472 	 46.4357
| 17> H 	 7.33998 	 73.3355 	 46.142
| 18> H 	 8.98321 	 73.6556 	 45.6123
| 19> C 	 8.94841 	 71.9396 	 46.7437
| 20> H 	 8.7887 	 71.3153 	 45.8533
| 21> H 	 10.0587 	 72.0188 	 46.9055
| 22> H 	 8.46131 	 71.5084 	 47.6353
| 23> S 	 6.14411 	 80.2362 	 47.5849
| 24> C 	 4.49474 	 80.6463 	 48.0102
| 25> C 	 3.58799 	 79.6009 	 47.6436
| 26> C 	 4.23149 	 78.4221 	 47.1597
| 27> C 	 5.61307 	 78.5956 	 47.0456
| 28> H 	 2.49134 	 79.7147 	 47.6735
| 29> C 	 3.39947 	 77.1976 	 46.7467
| 30> H 	 4.01551 	 76.4351 	 46.2654
| 31> H 	 2.69145 	 77.5659 	 45.9975
| 32> C 	 2.56156 	 76.5133 	 47.8105
| 33> H 	 1.72461 	 76.088 	 47.2225
| 34> H 	 2.18788 	 77.1952 	 48.5273
| 35> C 	 3.25319 	 75.345 	 48.607
| 36> H 	 3.91208 	 74.7983 	 47.9904
| 37> H 	 2.67716 	 74.6591 	 49.2157
| 38> H 	 4.02118 	 75.7221 	 49.3227
| 39> H 	 9.74978 	 76.1453 	 46.0562
| 40> H 	 4.06873 	 81.614 	 48.4302
| 41> *
| 42>
| 43>                          ****END OF INPUT****

CARTESIAN COORDINATES (ANGSTROEM)
---------------------------------
  S      8.102200   78.001100   45.864500
  C      8.889930   76.493500   46.463300
  C      7.985230   75.709200   47.081600
  C      6.781350   76.380400   47.431300
  C      6.666900   77.629600   46.841900
  H      5.966340   76.000300   48.026300
  C      8.436780   74.338500   47.587700
  H      7.913470   73.873100   48.427400
  H      9.476190   74.357800   47.878400
  C      8.403660   73.347200   46.435700
  H      7.339980   73.335500   46.142000
  H      8.983210   73.655600   45.612300
  C      8.948410   71.939600   46.743700
  H      8.788700   71.315300   45.853300
  H     10.058700   72.018800   46.905500
  H      8.461310   71.508400   47.635300
  S      6.144110   80.236200   47.584900
  C      4.494740   80.646300   48.010200
  C      3.587990   79.600900   47.643600
  C      4.231490   78.422100   47.159700
  C      5.613070   78.595600   47.045600
  H      2.491340   79.714700   47.673500
  C      3.399470   77.197600   46.746700
  H      4.015510   76.435100   46.265400
  H      2.691450   77.565900   45.997500
  C      2.561560   76.513300   47.810500
  H      1.724610   76.088000   47.222500
  H      2.187880   77.195200   48.527300
  C      3.253190   75.345000   48.607000
  H      3.912080   74.798300   47.990400
  H      2.677160   74.659100   49.215700
  H      4.021180   75.722100   49.322700
  H      9.749780   76.145300   46.056200
  H      4.068730   81.614000   48.430200

 Total Charge           Charge          ....    0
 Multiplicity           Mult            ....    1
 Number of Electrons    NEL             ....  134
 Basis Dimension        Dim             ....  322

ORBITAL ENERGIES
----------------

  NO   OCC          E(Eh)            E(eV)
   0   2.0000     -88.971570     -2421.0395
   1   2.0000     -88.963538     -2420.8209
   2   2.0000     -10.331592      -281.1369
   3   2.0000     -10.331093      -281.1233
   4   2.0000     -10.330581      -281.1094
   5   2.0000     -10.308929      -280.5202
   6   2.0000     -10.305714      -280.4327
   7   2.0000     -10.301614      -280.3212
   8   2.0000     -10.300749      -280.2976
   9   2.0000     -10.297392      -280.2063
  10   2.0000     -10.294305      -280.1223
  11   2.0000     -10.292224      -280.0656
  12   2.0000     -10.289687      -279.9966
  13   2.0000     -10.284640      -279.8593
  14   2.0000     -10.280812      -279.7551
  15   2.0000     -10.279940      -279.7314
  16   2.0000      -8.084997      -220.0039
  17   2.0000      -8.077368      -219.7964
  18   2.0000      -6.043591      -164.4545
  19   2.0000      -6.039663      -164.3476
  20   2.0000      -6.035987      -164.2476
  21   2.0000      -6.035733      -164.2406
  22   2.0000      -6.032119      -164.1423
  23   2.0000      -6.027949      -164.0288
  24   2.0000      -1.001484       -27.2518
  25   2.0000      -0.978084       -26.6150
  26   2.0000      -0.914660       -24.8892
  27   2.0000      -0.910228       -24.7686
  28   2.0000      -0.868115       -23.6226
  29   2.0000      -0.850389       -23.1403
  30   2.0000      -0.841314       -22.8933
  31   2.0000      -0.811409       -22.0796
  32   2.0000      -0.788616       -21.4593
  33   2.0000      -0.773524       -21.0487
  34   2.0000      -0.712727       -19.3943
  35   2.0000      -0.698079       -18.9957
  36   2.0000      -0.692174       -18.8350
  37   2.0000      -0.658683       -17.9237
  38   2.0000      -0.647190       -17.6109
  39   2.0000      -0.618090       -16.8191
  40   2.0000      -0.598569       -16.2879
  41   2.0000      -0.576364       -15.6837
  42   2.0000      -0.559703       -15.2303
  43   2.0000      -0.553922       -15.0730
  44   2.0000      -0.536546       -14.6002
  45   2.0000      -0.521313       -14.1857
  46   2.0000      -0.519087       -14.1251
  47   2.0000      -0.515176       -14.0187
  48   2.0000      -0.501804       -13.6548
  49   2.0000      -0.498148       -13.5553
  50   2.0000      -0.496170       -13.5015
  51   2.0000      -0.475486       -12.9386
  52   2.0000      -0.468410       -12.7461
  53   2.0000      -0.464868       -12.6497
  54   2.0000      -0.460911       -12.5420
  55   2.0000      -0.448877       -12.2146
  56   2.0000      -0.445136       -12.1128
  57   2.0000      -0.439746       -11.9661
  58   2.0000      -0.434222       -11.8158
  59   2.0000      -0.429827       -11.6962
  60   2.0000      -0.422638       -11.5006
  61   2.0000      -0.414300       -11.2737
  62   2.0000      -0.412302       -11.2193
  63   2.0000      -0.347026        -9.4430
  64   2.0000      -0.334229        -9.0948
  65   2.0000      -0.331775        -9.0281
  66   2.0000      -0.287968        -7.8360
  67   0.0000       0.021999         0.5986
  68   0.0000       0.063750         1.7347
  69   0.0000       0.102518         2.7896
  70   0.0000       0.118215         3.2168
  71   0.0000       0.124959         3.4003

MULLIKEN ATOMIC CHARGES
-----------------------
   0 S :    0.082040
   1 C :   -0.070997
   2 C :   -0.061428
   3 C :    0.054161
   4 C :   -0.149059
   5 H :   -0.031439
   6 C :    0.075399
   7 H :    0.022192
   8 H :    0.015740
   9 C :   -0.111344
  10 H :    0.027082
  11 H :    0.018837
  12 C :   -0.050360
  13 H :    0.044262
  14 H :    0.035854
  15 H :    0.034763
  16 S :    0.119334
  17 C :   -0.114903
  18 C :   -0.058001
  19 C :   -0.019634
  20 C :   -0.150884
  21 H :    0.031046
  22 C :    0.047444
  23 H :    0.029105
  24 H :    0.039913
  25 C :   -0.055083
  26 H :    0.036446
  27 H :    0.027623
  28 C :   -0.057963
  29 H :    0.012174
  30 H :    0.039193
  31 H :    0.039732
  32 H :    0.014289
  33 H :    0.084466
Sum of atomic charges:    0.0000000

LOEWDIN ATOMIC CHARGES
----------------------
   0 S :    0.363411
   1 C :   -0.157578
   2 C :   -0.053305
   3 C :   -0.062240
   4 C :   -0.176769
   5 H :    0.028001
   6 C :   -0.028550
   7 H :    0.028494
   8 H :    0.026767
   9 C :   -0.043144
  10 H :    0.023203
  11 H :    0.014793
  12 C :   -0.068529
  13 H :    0.030475
  14 H :    0.028994
  15 H :    0.023444
  16 S :    0.397132
  17 C :   -0.198335
  18 C :   -0.076842
  19 C :   -0.052815
  20 C :   -0.189123
  21 H :    0.033425
  22 C :   -0.029391
  23 H :    0.031334
  24 H :    0.039707
  25 C :   -0.032741
  26 H :    0.031310
  27 H :    0.018990
  28 C :   -0.073299
  29 H :    0.013212
  30 H :    0.028123
  31 H :    0.029521
  32 H :    0.005124
  33 H :    0.047202

  Mayer bond orders larger than 0.100000
B(  0-S ,  1-C ) :   1.1071 B(  0-S ,  4-C ) :   1.1416 B(  1-C ,  2-C ) :   1.6479
B(  1-C , 32-H ) :   0.9703 B(  2-C ,  3-C ) :   1.2125 B(  2-C ,  6-C ) :   1.0184
B(  3-C ,  4-C ) :   1.5821 B(  3-C ,  5-H ) :   0.9914 B(  4-C , 20-C ) :   1.0497
B(  6-C ,  7-H ) :   0.9498 B(  6-C ,  8-H ) :   0.9451 B(  6-C ,  9-C ) :   1.0507
B(  9-C , 10-H ) :   0.9553 B(  9-C , 11-H ) :   0.9607 B(  9-C , 12-C ) :   1.0830
B( 12-C , 13-H ) :   0.9739 B( 12-C , 14-H ) :   0.9728 B( 12-C , 15-H ) :   0.9741
B( 16-S , 17-C ) :   1.1615 B( 16-S , 20-C ) :   1.1222 B( 17-C , 18-C ) :   1.5909
B( 17-C , 20-C ) :   0.1045 B( 17-C , 33-H ) :   0.9577 B( 18-C , 19-C ) :   1.2519
B( 18-C , 21-H ) :   0.9791 B( 19-C , 20-C ) :   1.5882 B( 19-C , 22-C ) :   1.0373
B( 22-C , 23-H ) :   0.9395 B( 22-C , 24-H ) :   0.9375 B( 22-C , 25-C ) :   1.0646
B( 25-C , 26-H ) :   0.9574 B( 25-C , 27-H ) :   0.9599 B( 25-C , 28-C ) :   1.0702
B( 28-C , 29-H ) :   0.9710 B( 28-C , 30-H ) :   0.9720 B( 28-C , 31-H ) :   0.9674

Dispersion correction           -0.014361388
FINAL SINGLE POINT ENERGY     -1339.866901841897

DIPOLE MOMENT
-------------
                                X             Y             Z
Electronic contribution:      6.85785      30.09071      -4.41117
Nuclear contribution   :     -7.32502     -30.64814       4.54086
                        -----------------------------------------
Total Dipole Moment    :     -0.46717      -0.55743       0.12969
                        -----------------------------------------
Magnitude (a.u.)       :      0.73877
Magnitude (Debye)      :      1.87781

Rotational constants in cm-1:     0.019528     0.008590     0.006350
Rotational constants in MHz :   585.445700   257.509816   190.358581

                             ****ORCA TERMINATED NORMALLY****
TOTAL RUN TIME: 0 days 0 hours 0 minutes 33 seconds 789 msec
