                         Program Version 4.2.1 -  RELEASE  -
|  1> ! wB97X-D3 SP def2-SVP
|  2> %pal
|  3> nprocs 16
|  4> end
|  5>
|  6> * xyz 0 1
|  7> S 	 -49.9131 	 69.0433 	 125.958
|  8> C 	 -49.1471 	 68.2785 	 124.579
|  9> C 	 -48.8459 	 66.9785 	 124.832
| 10> C 	 -49.427 	 66.5826 	 126.021
| 11> C 	 -50.1965 	 67.5425 	 126.712
| 12> H 	 -49.3307 	 65.56 	 126.448
| 13> C 	 -47.9148 	 66.1097 	 123.953
| 14> H 	 -47.4179 	 65.3556 	 124.557
| 15> H 	 -47.0592 	 66.7394 	 123.556
| 16> C 	 -48.6926 	 65.6593 	 122.725
| 17> H 	 -49.4634 	 64.8825 	 122.852
| 18> H 	 -49.2064 	 66.4438 	 122.259
| 19> C 	 -47.9068 	 65.1487 	 121.519
| 20> H 	 -47.4178 	 64.1578 	 121.674
| 21> H 	 -48.5868 	 65.0608 	 120.7
| 22> H 	 -47.1815 	 65.9577 	 121.303
| 23> S 	 -50.2674 	 68.745 	 129.185
| 24> C 	 -50.6576 	 67.8109 	 130.559
| 25> C 	 -51.1152 	 66.5635 	 130.201
| 26> C 	 -51.1965 	 66.3187 	 128.767
| 27> C 	 -50.7014 	 67.452 	 128.086
| 28> H 	 -51.3506 	 65.905 	 131.005
| 29> C 	 -51.6258 	 65.0207 	 128.106
| 30> H 	 -51.6538 	 65.2068 	 127.009
| 31> H 	 -52.648 	 64.8521 	 128.423
| 32> C 	 -50.6635 	 63.8663 	 128.455
| 33> H 	 -50.6259 	 63.6164 	 129.521
| 34> H 	 -49.619 	 64.2619 	 128.293
| 35> C 	 -50.8097 	 62.6491 	 127.624
| 36> H 	 -50.0326 	 61.9164 	 127.717
| 37> H 	 -50.8575 	 63.0142 	 126.631
| 38> H 	 -51.8107 	 62.242 	 127.763
| 39> H 	 -48.8205 	 68.7776 	 123.674
| 40> H 	 -50.3694 	 68.0551 	 131.573
| 41> *
| 42>
| 43>                          ****END OF INPUT****

CARTESIAN COORDINATES (ANGSTROEM)
---------------------------------
  S    -49.913100   69.043300  125.958000
  C    -49.147100   68.278500  124.579000
  C    -48.845900   66.978500  124.832000
  C    -49.427000   66.582600  126.021000
  C    -50.196500   67.542500  126.712000
  H    -49.330700   65.560000  126.448000
  C    -47.914800   66.109700  123.953000
  H    -47.417900   65.355600  124.557000
  H    -47.059200   66.739400  123.556000
  C    -48.692600   65.659300  122.725000
  H    -49.463400   64.882500  122.852000
  H    -49.206400   66.443800  122.259000
  C    -47.906800   65.148700  121.519000
  H    -47.417800   64.157800  121.674000
  H    -48.586800   65.060800  120.700000
  H    -47.181500   65.957700  121.303000
  S    -50.267400   68.745000  129.185000
  C    -50.657600   67.810900  130.559000
  C    -51.115200   66.563500  130.201000
  C    -51.196500   66.318700  128.767000
  C    -50.701400   67.452000  128.086000
  H    -51.350600   65.905000  131.005000
  C    -51.625800   65.020700  128.106000
  H    -51.653800   65.206800  127.009000
  H    -52.648000   64.852100  128.423000
  C    -50.663500   63.866300  128.455000
  H    -50.625900   63.616400  129.521000
  H    -49.619000   64.261900  128.293000
  C    -50.809700   62.649100  127.624000
  H    -50.032600   61.916400  127.717000
  H    -50.857500   63.014200  126.631000
  H    -51.810700   62.242000  127.763000
  H    -48.820500   68.777600  123.674000
  H    -50.369400   68.055100  131.573000

 Total Charge           Charge          ....    0
 Multiplicity           Mult            ....    1
 Number of Electrons    NEL             ....  134
 Basis Dimension        Dim             ....  322

ORBITAL ENERGIES
----------------

  NO   OCC          E(Eh)            E(eV)
   0   2.0000     -88.966786     -2420.9093
   1   2.0000     -88.964782     -2420.8548
   2   2.0000     -10.329151      -281.0705
   3   2.0000     -10.328305      -281.0475
   4   2.0000     -10.313048      -280.6323
   5   2.0000     -10.309808      -280.5441
   6   2.0000     -10.308773      -280.5160
   7   2.0000     -10.303579      -280.3746
   8   2.0000     -10.297387      -280.2061
   9   2.0000     -10.296341      -280.1777
  10   2.0000     -10.293232      -280.0931
  11   2.0000     -10.292849      -280.0827
  12   2.0000     -10.288916      -279.9756
  13   2.0000     -10.281531      -279.7747
  14   2.0000     -10.278757      -279.6992
  15   2.0000     -10.271374      -279.4983
  16   2.0000      -8.082237      -219.9289
  17   2.0000      -8.080450      -219.8802
  18   2.0000      -6.040614      -164.3735
  19   2.0000      -6.038945      -164.3281
  20   2.0000      -6.036709      -164.2672
  21   2.0000      -6.034829      -164.2160
  22   2.0000      -6.033040      -164.1674
  23   2.0000      -6.031159      -164.1162
  24   2.0000      -1.013462       -27.5777
  25   2.0000      -0.989140       -26.9159
  26   2.0000      -0.916453       -24.9379
  27   2.0000      -0.915670       -24.9166
  28   2.0000      -0.873410       -23.7667
  29   2.0000      -0.858666       -23.3655
  30   2.0000      -0.845571       -23.0092
  31   2.0000      -0.812941       -22.1212
  32   2.0000      -0.787481       -21.4284
  33   2.0000      -0.774906       -21.0863
  34   2.0000      -0.703349       -19.1391
  35   2.0000      -0.699129       -19.0243
  36   2.0000      -0.695093       -18.9145
  37   2.0000      -0.660226       -17.9657
  38   2.0000      -0.634821       -17.2744
  39   2.0000      -0.621747       -16.9186
  40   2.0000      -0.596804       -16.2399
  41   2.0000      -0.573476       -15.6051
  42   2.0000      -0.567606       -15.4453
  43   2.0000      -0.561345       -15.2750
  44   2.0000      -0.540246       -14.7009
  45   2.0000      -0.533419       -14.5151
  46   2.0000      -0.522767       -14.2252
  47   2.0000      -0.512560       -13.9475
  48   2.0000      -0.505579       -13.7575
  49   2.0000      -0.498871       -13.5750
  50   2.0000      -0.494849       -13.4655
  51   2.0000      -0.484230       -13.1766
  52   2.0000      -0.471239       -12.8231
  53   2.0000      -0.465275       -12.6608
  54   2.0000      -0.458456       -12.4752
  55   2.0000      -0.450881       -12.2691
  56   2.0000      -0.444657       -12.0997
  57   2.0000      -0.440333       -11.9821
  58   2.0000      -0.435283       -11.8446
  59   2.0000      -0.425360       -11.5746
  60   2.0000      -0.419820       -11.4239
  61   2.0000      -0.417526       -11.3614
  62   2.0000      -0.411102       -11.1867
  63   2.0000      -0.355367        -9.6700
  64   2.0000      -0.335413        -9.1270
  65   2.0000      -0.328226        -8.9315
  66   2.0000      -0.281551        -7.6614
  67   0.0000       0.024032         0.6539
  68   0.0000       0.075218         2.0468
  69   0.0000       0.103643         2.8203
  70   0.0000       0.126717         3.4481
  71   0.0000       0.133622         3.6360

MULLIKEN ATOMIC CHARGES
-----------------------
   0 S :    0.106227
   1 C :   -0.123982
   2 C :   -0.065335
   3 C :   -0.009820
   4 C :   -0.133037
   5 H :   -0.000125
   6 C :    0.095751
   7 H :    0.030494
   8 H :    0.029601
   9 C :   -0.076152
  10 H :    0.028133
  11 H :    0.012308
  12 C :   -0.056249
  13 H :    0.039382
  14 H :    0.028825
  15 H :    0.026032
  16 S :    0.100748
  17 C :   -0.087887
  18 C :   -0.039698
  19 C :   -0.068496
  20 C :   -0.123184
  21 H :    0.009293
  22 C :    0.080814
  23 H :    0.035926
  24 H :    0.034863
  25 C :   -0.124598
  26 H :    0.028697
  27 H :    0.032076
  28 C :    0.024477
  29 H :    0.040198
  30 H :    0.004206
  31 H :    0.019585
  32 H :    0.040770
  33 H :    0.060155
Sum of atomic charges:    0.0000000

LOEWDIN ATOMIC CHARGES
----------------------
   0 S :    0.428189
   1 C :   -0.193491
   2 C :   -0.067552
   3 C :   -0.071372
   4 C :   -0.211117
   5 H :    0.030299
   6 C :   -0.022172
   7 H :    0.030969
   8 H :    0.037592
   9 C :   -0.046678
  10 H :    0.026236
  11 H :    0.019866
  12 C :   -0.063586
  13 H :    0.024592
  14 H :    0.022368
  15 H :    0.022744
  16 S :    0.416410
  17 C :   -0.200650
  18 C :   -0.070214
  19 C :   -0.050337
  20 C :   -0.198462
  21 H :    0.025678
  22 C :   -0.029828
  23 H :    0.035667
  24 H :    0.032528
  25 C :   -0.047572
  26 H :    0.022412
  27 H :    0.025871
  28 C :   -0.060469
  29 H :    0.026746
  30 H :    0.019982
  31 H :    0.026210
  32 H :    0.026554
  33 H :    0.032586

  Mayer bond orders larger than 0.100000
B(  0-S ,  1-C ) :   1.1590 B(  0-S ,  4-C ) :   1.1771 B(  1-C ,  2-C ) :   1.5746
B(  1-C ,  4-C ) :   0.1050 B(  1-C , 32-H ) :   0.9650 B(  2-C ,  3-C ) :   1.3245
B(  2-C ,  6-C ) :   1.0069 B(  3-C ,  4-C ) :   1.4918 B(  3-C ,  5-H ) :   0.9843
B(  4-C , 20-C ) :   1.0536 B(  6-C ,  7-H ) :   0.9450 B(  6-C ,  8-H ) :   0.9428
B(  6-C ,  9-C ) :   1.0549 B(  9-C , 10-H ) :   0.9531 B(  9-C , 11-H ) :   0.9604
B(  9-C , 12-C ) :   1.0850 B( 12-C , 13-H ) :   0.9750 B( 12-C , 14-H ) :   0.9758
B( 12-C , 15-H ) :   0.9752 B( 16-S , 17-C ) :   1.1582 B( 16-S , 20-C ) :   1.1475
B( 17-C , 18-C ) :   1.6215 B( 17-C , 33-H ) :   0.9662 B( 18-C , 19-C ) :   1.2256
B( 18-C , 21-H ) :   0.9965 B( 19-C , 20-C ) :   1.5839 B( 19-C , 22-C ) :   1.0493
B( 22-C , 23-H ) :   0.9353 B( 22-C , 24-H ) :   0.9243 B( 22-C , 25-C ) :   1.0490
B( 25-C , 26-H ) :   0.9498 B( 25-C , 27-H ) :   0.9525 B( 25-C , 28-C ) :   1.0932
B( 28-C , 29-H ) :   0.9728 B( 28-C , 30-H ) :   0.9667 B( 28-C , 31-H ) :   0.9656

Dispersion correction           -0.014050794
FINAL SINGLE POINT ENERGY     -1339.871422157380

DIPOLE MOMENT
-------------
                                X             Y             Z
Electronic contribution:     -4.92075      27.47598      15.99029
Nuclear contribution   :      5.20640     -28.16051     -16.08047
                        -----------------------------------------
Total Dipole Moment    :      0.28565      -0.68452      -0.09018
                        -----------------------------------------
Magnitude (a.u.)       :      0.74719
Magnitude (Debye)      :      1.89922

Rotational constants in cm-1:     0.018705     0.008860     0.006297
Rotational constants in MHz :   560.767388   265.613487   188.778062

                             ****ORCA TERMINATED NORMALLY****
TOTAL RUN TIME: 0 days 0 hours 0 minutes 35 seconds 383 msec
