                         Program Version 4.2.1 -  RELEASE  -
|  1> ! wB97X-D3 SP def2-SVP
|  2> %pal
|  3> nprocs 16
|  4> end
|  5>
|  6> * xyz 0 1
|  7> S 	 -2.14507 	 76.0058 	 50.6275
|  8> C 	 -1.1996 	 76.3617 	 49.1679
|  9> C 	 0.121125 	 76.5821 	 49.4808
| 10> C 	 0.325516 	 76.6892 	 50.8802
| 11> C 	 -0.837221 	 76.5238 	 51.6132
| 12> H 	 1.31639 	 76.8204 	 51.3723
| 13> C 	 1.22297 	 76.8347 	 48.4471
| 14> H 	 2.00452 	 77.3081 	 48.9931
| 15> H 	 0.790619 	 77.6352 	 47.7908
| 16> C 	 1.77136 	 75.66 	 47.6962
| 17> H 	 2.14528 	 74.9492 	 48.3863
| 18> H 	 0.984317 	 75.2357 	 47.0737
| 19> C 	 2.88187 	 76.1507 	 46.7175
| 20> H 	 3.12037 	 75.2956 	 46.0659
| 21> H 	 2.65588 	 77.0363 	 46.1125
| 22> H 	 3.88732 	 76.2074 	 47.1846
| 23> S 	 -1.69866 	 77.9581 	 53.8719
| 24> C 	 -1.64092 	 77.1372 	 55.3918
| 25> C 	 -1.1177 	 75.8958 	 55.3152
| 26> C 	 -0.83175 	 75.4855 	 53.9769
| 27> C 	 -0.97303 	 76.5695 	 53.0743
| 28> H 	 -0.97681 	 75.4023 	 56.188
| 29> C 	 -0.415135 	 74.0952 	 53.6685
| 30> H 	 -0.656454 	 73.9421 	 52.5863
| 31> H 	 -1.07036 	 73.5528 	 54.2924
| 32> C 	 1.02594 	 73.8524 	 54.0587
| 33> H 	 1.16391 	 72.7569 	 53.9332
| 34> H 	 1.32256 	 74.0586 	 55.1406
| 35> C 	 2.02052 	 74.6077 	 53.1602
| 36> H 	 1.72946 	 74.571 	 52.1312
| 37> H 	 3.0122 	 74.2516 	 53.303
| 38> H 	 1.87859 	 75.6167 	 53.5479
| 39> H 	 -1.45619 	 76.2112 	 48.168
| 40> H 	 -1.94061 	 77.6479 	 56.2808
| 41> *
| 42>
| 43>                          ****END OF INPUT****

CARTESIAN COORDINATES (ANGSTROEM)
---------------------------------
  S     -2.145070   76.005800   50.627500
  C     -1.199600   76.361700   49.167900
  C      0.121125   76.582100   49.480800
  C      0.325516   76.689200   50.880200
  C     -0.837221   76.523800   51.613200
  H      1.316390   76.820400   51.372300
  C      1.222970   76.834700   48.447100
  H      2.004520   77.308100   48.993100
  H      0.790619   77.635200   47.790800
  C      1.771360   75.660000   47.696200
  H      2.145280   74.949200   48.386300
  H      0.984317   75.235700   47.073700
  C      2.881870   76.150700   46.717500
  H      3.120370   75.295600   46.065900
  H      2.655880   77.036300   46.112500
  H      3.887320   76.207400   47.184600
  S     -1.698660   77.958100   53.871900
  C     -1.640920   77.137200   55.391800
  C     -1.117700   75.895800   55.315200
  C     -0.831750   75.485500   53.976900
  C     -0.973030   76.569500   53.074300
  H     -0.976810   75.402300   56.188000
  C     -0.415135   74.095200   53.668500
  H     -0.656454   73.942100   52.586300
  H     -1.070360   73.552800   54.292400
  C      1.025940   73.852400   54.058700
  H      1.163910   72.756900   53.933200
  H      1.322560   74.058600   55.140600
  C      2.020520   74.607700   53.160200
  H      1.729460   74.571000   52.131200
  H      3.012200   74.251600   53.303000
  H      1.878590   75.616700   53.547900
  H     -1.456190   76.211200   48.168000
  H     -1.940610   77.647900   56.280800

 Total Charge           Charge          ....    0
 Multiplicity           Mult            ....    1
 Number of Electrons    NEL             ....  134
 Basis Dimension        Dim             ....  322

ORBITAL ENERGIES
----------------

  NO   OCC          E(Eh)            E(eV)
   0   2.0000     -88.967080     -2420.9173
   1   2.0000     -88.961292     -2420.7598
   2   2.0000     -10.323785      -280.9245
   3   2.0000     -10.322683      -280.8945
   4   2.0000     -10.309979      -280.5488
   5   2.0000     -10.306708      -280.4598
   6   2.0000     -10.301198      -280.3099
   7   2.0000     -10.295554      -280.1563
   8   2.0000     -10.292914      -280.0844
   9   2.0000     -10.290746      -280.0254
  10   2.0000     -10.288371      -279.9608
  11   2.0000     -10.286644      -279.9138
  12   2.0000     -10.286595      -279.9125
  13   2.0000     -10.283467      -279.8274
  14   2.0000     -10.281357      -279.7699
  15   2.0000     -10.268842      -279.4294
  16   2.0000      -8.081569      -219.9107
  17   2.0000      -8.076573      -219.7747
  18   2.0000      -6.040068      -164.3586
  19   2.0000      -6.036178      -164.2528
  20   2.0000      -6.035019      -164.2212
  21   2.0000      -6.032283      -164.1468
  22   2.0000      -6.031014      -164.1122
  23   2.0000      -6.027370      -164.0131
  24   2.0000      -1.006118       -27.3779
  25   2.0000      -0.985684       -26.8218
  26   2.0000      -0.916490       -24.9390
  27   2.0000      -0.914685       -24.8898
  28   2.0000      -0.868441       -23.6315
  29   2.0000      -0.849230       -23.1087
  30   2.0000      -0.844606       -22.9829
  31   2.0000      -0.815433       -22.1891
  32   2.0000      -0.784669       -21.3519
  33   2.0000      -0.772438       -21.0191
  34   2.0000      -0.705725       -19.2038
  35   2.0000      -0.704959       -19.1829
  36   2.0000      -0.691589       -18.8191
  37   2.0000      -0.658271       -17.9125
  38   2.0000      -0.637030       -17.3345
  39   2.0000      -0.616859       -16.7856
  40   2.0000      -0.596920       -16.2430
  41   2.0000      -0.574047       -15.6206
  42   2.0000      -0.570137       -15.5142
  43   2.0000      -0.558636       -15.2013
  44   2.0000      -0.542844       -14.7715
  45   2.0000      -0.526408       -14.3243
  46   2.0000      -0.523221       -14.2376
  47   2.0000      -0.513260       -13.9665
  48   2.0000      -0.496862       -13.5203
  49   2.0000      -0.492217       -13.3939
  50   2.0000      -0.489399       -13.3172
  51   2.0000      -0.477792       -13.0014
  52   2.0000      -0.469892       -12.7864
  53   2.0000      -0.464654       -12.6439
  54   2.0000      -0.460172       -12.5219
  55   2.0000      -0.450793       -12.2667
  56   2.0000      -0.445653       -12.1268
  57   2.0000      -0.440905       -11.9976
  58   2.0000      -0.439328       -11.9547
  59   2.0000      -0.425983       -11.5916
  60   2.0000      -0.419119       -11.4048
  61   2.0000      -0.416466       -11.3326
  62   2.0000      -0.404974       -11.0199
  63   2.0000      -0.334695        -9.1075
  64   2.0000      -0.328108        -8.9283
  65   2.0000      -0.315116        -8.5747
  66   2.0000      -0.310995        -8.4626
  67   0.0000       0.044901         1.2218
  68   0.0000       0.055980         1.5233
  69   0.0000       0.113553         3.0899
  70   0.0000       0.124026         3.3749
  71   0.0000       0.129938         3.5358

MULLIKEN ATOMIC CHARGES
-----------------------
   0 S :    0.127075
   1 C :   -0.085237
   2 C :   -0.109090
   3 C :    0.036573
   4 C :   -0.188110
   5 H :    0.027251
   6 C :    0.050672
   7 H :    0.005297
   8 H :    0.039705
   9 C :   -0.030737
  10 H :    0.025958
  11 H :    0.028401
  12 C :   -0.070525
  13 H :    0.026274
  14 H :    0.046734
  15 H :    0.032655
  16 S :    0.110534
  17 C :   -0.084845
  18 C :    0.014599
  19 C :   -0.076074
  20 C :   -0.182199
  21 H :   -0.026136
  22 C :    0.136283
  23 H :    0.039523
  24 H :    0.015763
  25 C :   -0.119438
  26 H :    0.028938
  27 H :    0.040798
  28 C :   -0.032060
  29 H :    0.033214
  30 H :    0.031285
  31 H :    0.043216
  32 H :    0.015590
  33 H :    0.048111
Sum of atomic charges:   -0.0000000

LOEWDIN ATOMIC CHARGES
----------------------
   0 S :    0.416568
   1 C :   -0.185846
   2 C :   -0.063846
   3 C :   -0.065535
   4 C :   -0.209907
   5 H :    0.038543
   6 C :   -0.034561
   7 H :    0.023282
   8 H :    0.038638
   9 C :   -0.032236
  10 H :    0.023662
  11 H :    0.024103
  12 C :   -0.073911
  13 H :    0.028194
  14 H :    0.028139
  15 H :    0.028948
  16 S :    0.408280
  17 C :   -0.174769
  18 C :   -0.066266
  19 C :   -0.044094
  20 C :   -0.217818
  21 H :    0.015023
  22 C :   -0.030917
  23 H :    0.038588
  24 H :    0.029542
  25 C :   -0.042064
  26 H :    0.020778
  27 H :    0.030755
  28 C :   -0.059356
  29 H :    0.019603
  30 H :    0.021655
  31 H :    0.028608
  32 H :    0.014820
  33 H :    0.023395

  Mayer bond orders larger than 0.100000
B(  0-S ,  1-C ) :   1.1301 B(  0-S ,  4-C ) :   1.1670 B(  1-C ,  2-C ) :   1.6198
B(  1-C , 32-H ) :   0.9721 B(  2-C ,  3-C ) :   1.2579 B(  2-C ,  6-C ) :   1.0044
B(  3-C ,  4-C ) :   1.5749 B(  3-C ,  5-H ) :   0.9832 B(  4-C , 20-C ) :   1.0117
B(  6-C ,  7-H ) :   0.9413 B(  6-C ,  8-H ) :   0.9421 B(  6-C ,  9-C ) :   1.0744
B(  9-C , 10-H ) :   0.9508 B(  9-C , 11-H ) :   0.9571 B(  9-C , 12-C ) :   1.0821
B( 12-C , 13-H ) :   0.9728 B( 12-C , 14-H ) :   0.9755 B( 12-C , 15-H ) :   0.9734
B( 16-S , 17-C ) :   1.1656 B( 16-S , 20-C ) :   1.1447 B( 17-C , 18-C ) :   1.6175
B( 17-C , 33-H ) :   0.9677 B( 18-C , 19-C ) :   1.2198 B( 18-C , 21-H ) :   1.0105
B( 19-C , 20-C ) :   1.5817 B( 19-C , 22-C ) :   1.0363 B( 22-C , 23-H ) :   0.9248
B( 22-C , 24-H ) :   0.9197 B( 22-C , 25-C ) :   1.0760 B( 25-C , 26-H ) :   0.9549
B( 25-C , 27-H ) :   0.9597 B( 25-C , 28-C ) :   1.0634 B( 28-C , 29-H ) :   0.9719
B( 28-C , 30-H ) :   0.9702 B( 28-C , 31-H ) :   0.9739

Dispersion correction           -0.015432535
FINAL SINGLE POINT ENERGY     -1339.873280120083

DIPOLE MOMENT
-------------
                                X             Y             Z
Electronic contribution:    -23.31237      10.90194      11.93905
Nuclear contribution   :     23.82402     -11.30345     -11.95930
                        -----------------------------------------
Total Dipole Moment    :      0.51165      -0.40151      -0.02025
                        -----------------------------------------
Magnitude (a.u.)       :      0.65069
Magnitude (Debye)      :      1.65393

Rotational constants in cm-1:     0.022531     0.008063     0.006846
Rotational constants in MHz :   675.468404   241.736620   205.225621

                             ****ORCA TERMINATED NORMALLY****
TOTAL RUN TIME: 0 days 0 hours 0 minutes 35 seconds 26 msec
