                         Program Version 4.2.1 -  RELEASE  -
|  1> ! wB97X-D3 SP def2-SVP
|  2> %pal
|  3> nprocs 16
|  4> end
|  5>
|  6> * xyz 0 1
|  7> S 	 66.3992 	 18.5203 	 72.2555
|  8> C 	 66.3953 	 16.7848 	 71.826
|  9> C 	 65.6174 	 16.0432 	 72.7049
| 10> C 	 65.195 	 16.8754 	 73.804
| 11> C 	 65.7503 	 18.14 	 73.8153
| 12> H 	 64.593 	 16.5161 	 74.6056
| 13> C 	 65.5304 	 14.5396 	 72.7748
| 14> H 	 65.352 	 14.2502 	 71.7273
| 15> H 	 64.6566 	 14.2964 	 73.4637
| 16> C 	 66.664 	 13.893 	 73.5395
| 17> H 	 66.5911 	 14.3226 	 74.488
| 18> H 	 66.4349 	 12.8748 	 73.7631
| 19> C 	 68.0153 	 14.0447 	 72.8363
| 20> H 	 67.9569 	 13.6478 	 71.8202
| 21> H 	 68.3688 	 15.0671 	 72.7592
| 22> H 	 68.8335 	 13.5278 	 73.3407
| 23> S 	 65.1033 	 20.8548 	 74.097
| 24> C 	 64.5569 	 21.4383 	 75.7023
| 25> C 	 64.6587 	 20.4683 	 76.6329
| 26> C 	 65.2258 	 19.2122 	 76.1226
| 27> C 	 65.5085 	 19.216 	 74.7551
| 28> H 	 64.2649 	 20.6796 	 77.6046
| 29> C 	 65.2242 	 17.9614 	 77.0531
| 30> H 	 65.9461 	 17.1868 	 76.6188
| 31> H 	 64.2574 	 17.4548 	 76.9512
| 32> C 	 65.5379 	 18.0125 	 78.5873
| 33> H 	 65.682 	 17.0487 	 79.0585
| 34> H 	 64.7255 	 18.6165 	 79.1144
| 35> C 	 66.8608 	 18.6994 	 78.7954
| 36> H 	 66.9139 	 19.6529 	 78.2803
| 37> H 	 67.6627 	 18.1034 	 78.3455
| 38> H 	 67.1005 	 19.0271 	 79.7929
| 39> H 	 66.8715 	 16.3272 	 70.9619
| 40> H 	 64.1123 	 22.4157 	 75.8716
| 41> *
| 42>
| 43>                          ****END OF INPUT****

CARTESIAN COORDINATES (ANGSTROEM)
---------------------------------
  S     66.399200   18.520300   72.255500
  C     66.395300   16.784800   71.826000
  C     65.617400   16.043200   72.704900
  C     65.195000   16.875400   73.804000
  C     65.750300   18.140000   73.815300
  H     64.593000   16.516100   74.605600
  C     65.530400   14.539600   72.774800
  H     65.352000   14.250200   71.727300
  H     64.656600   14.296400   73.463700
  C     66.664000   13.893000   73.539500
  H     66.591100   14.322600   74.488000
  H     66.434900   12.874800   73.763100
  C     68.015300   14.044700   72.836300
  H     67.956900   13.647800   71.820200
  H     68.368800   15.067100   72.759200
  H     68.833500   13.527800   73.340700
  S     65.103300   20.854800   74.097000
  C     64.556900   21.438300   75.702300
  C     64.658700   20.468300   76.632900
  C     65.225800   19.212200   76.122600
  C     65.508500   19.216000   74.755100
  H     64.264900   20.679600   77.604600
  C     65.224200   17.961400   77.053100
  H     65.946100   17.186800   76.618800
  H     64.257400   17.454800   76.951200
  C     65.537900   18.012500   78.587300
  H     65.682000   17.048700   79.058500
  H     64.725500   18.616500   79.114400
  C     66.860800   18.699400   78.795400
  H     66.913900   19.652900   78.280300
  H     67.662700   18.103400   78.345500
  H     67.100500   19.027100   79.792900
  H     66.871500   16.327200   70.961900
  H     64.112300   22.415700   75.871600

 Total Charge           Charge          ....    0
 Multiplicity           Mult            ....    1
 Number of Electrons    NEL             ....  134
 Basis Dimension        Dim             ....  322

ORBITAL ENERGIES
----------------

  NO   OCC          E(Eh)            E(eV)
   0   2.0000     -88.966753     -2420.9084
   1   2.0000     -88.963147     -2420.8103
   2   2.0000     -10.335954      -281.2556
   3   2.0000     -10.331276      -281.1283
   4   2.0000     -10.321912      -280.8735
   5   2.0000     -10.318216      -280.7729
   6   2.0000     -10.317101      -280.7426
   7   2.0000     -10.303938      -280.3844
   8   2.0000     -10.301619      -280.3213
   9   2.0000     -10.298324      -280.2316
  10   2.0000     -10.296796      -280.1901
  11   2.0000     -10.295166      -280.1457
  12   2.0000     -10.294616      -280.1308
  13   2.0000     -10.282242      -279.7940
  14   2.0000     -10.275853      -279.6202
  15   2.0000     -10.268323      -279.4153
  16   2.0000      -8.081394      -219.9059
  17   2.0000      -8.076711      -219.7785
  18   2.0000      -6.040055      -164.3582
  19   2.0000      -6.036132      -164.2515
  20   2.0000      -6.035556      -164.2358
  21   2.0000      -6.031784      -164.1332
  22   2.0000      -6.031514      -164.1259
  23   2.0000      -6.027033      -164.0039
  24   2.0000      -1.004841       -27.3431
  25   2.0000      -0.977720       -26.6051
  26   2.0000      -0.920661       -25.0525
  27   2.0000      -0.904174       -24.6038
  28   2.0000      -0.871879       -23.7250
  29   2.0000      -0.849916       -23.1274
  30   2.0000      -0.837855       -22.7992
  31   2.0000      -0.815056       -22.1788
  32   2.0000      -0.785894       -21.3853
  33   2.0000      -0.773695       -21.0533
  34   2.0000      -0.717143       -19.5144
  35   2.0000      -0.702139       -19.1062
  36   2.0000      -0.691486       -18.8163
  37   2.0000      -0.656769       -17.8716
  38   2.0000      -0.636664       -17.3245
  39   2.0000      -0.622533       -16.9400
  40   2.0000      -0.592866       -16.1327
  41   2.0000      -0.569625       -15.5003
  42   2.0000      -0.556970       -15.1559
  43   2.0000      -0.552283       -15.0284
  44   2.0000      -0.549837       -14.9618
  45   2.0000      -0.541144       -14.7253
  46   2.0000      -0.521414       -14.1884
  47   2.0000      -0.513329       -13.9684
  48   2.0000      -0.504590       -13.7306
  49   2.0000      -0.493147       -13.4192
  50   2.0000      -0.487994       -13.2790
  51   2.0000      -0.478704       -13.0262
  52   2.0000      -0.467822       -12.7301
  53   2.0000      -0.462929       -12.5969
  54   2.0000      -0.458431       -12.4745
  55   2.0000      -0.450480       -12.2582
  56   2.0000      -0.444794       -12.1035
  57   2.0000      -0.435136       -11.8407
  58   2.0000      -0.429592       -11.6898
  59   2.0000      -0.424831       -11.5602
  60   2.0000      -0.419722       -11.4212
  61   2.0000      -0.414693       -11.2844
  62   2.0000      -0.410203       -11.1622
  63   2.0000      -0.357633        -9.7317
  64   2.0000      -0.332019        -9.0347
  65   2.0000      -0.325989        -8.8706
  66   2.0000      -0.288415        -7.8482
  67   0.0000       0.019008         0.5172
  68   0.0000       0.070784         1.9261
  69   0.0000       0.089055         2.4233
  70   0.0000       0.118607         3.2275
  71   0.0000       0.125583         3.4173

MULLIKEN ATOMIC CHARGES
-----------------------
   0 S :    0.094993
   1 C :   -0.109835
   2 C :   -0.087021
   3 C :    0.010524
   4 C :   -0.124672
   5 H :   -0.002275
   6 C :    0.012986
   7 H :    0.037137
   8 H :    0.032039
   9 C :    0.011972
  10 H :    0.002653
  11 H :    0.022644
  12 C :   -0.061545
  13 H :    0.025630
  14 H :    0.044729
  15 H :    0.031843
  16 S :    0.064769
  17 C :   -0.090923
  18 C :   -0.011889
  19 C :   -0.046387
  20 C :   -0.098105
  21 H :    0.017265
  22 C :   -0.023617
  23 H :    0.039355
  24 H :    0.052947
  25 C :   -0.060342
  26 H :    0.040843
  27 H :    0.037447
  28 C :   -0.050541
  29 H :    0.022533
  30 H :    0.028755
  31 H :    0.025903
  32 H :    0.046322
  33 H :    0.063861
Sum of atomic charges:    0.0000000

LOEWDIN ATOMIC CHARGES
----------------------
   0 S :    0.393129
   1 C :   -0.182307
   2 C :   -0.062728
   3 C :   -0.055620
   4 C :   -0.190608
   5 H :    0.022972
   6 C :   -0.033180
   7 H :    0.030249
   8 H :    0.040310
   9 C :   -0.033159
  10 H :    0.018905
  11 H :    0.023765
  12 C :   -0.067840
  13 H :    0.024880
  14 H :    0.027367
  15 H :    0.026981
  16 S :    0.347094
  17 C :   -0.161511
  18 C :   -0.070860
  19 C :   -0.051807
  20 C :   -0.175243
  21 H :    0.031051
  22 C :   -0.044216
  23 H :    0.035773
  24 H :    0.031289
  25 C :   -0.044042
  26 H :    0.030241
  27 H :    0.027037
  28 C :   -0.072805
  29 H :    0.023807
  30 H :    0.026980
  31 H :    0.021726
  32 H :    0.027995
  33 H :    0.034377

  Mayer bond orders larger than 0.100000
B(  0-S ,  1-C ) :   1.1246 B(  0-S ,  4-C ) :   1.1370 B(  1-C ,  2-C ) :   1.6246
B(  1-C , 32-H ) :   0.9658 B(  2-C ,  3-C ) :   1.2227 B(  2-C ,  6-C ) :   1.0337
B(  3-C ,  4-C ) :   1.5639 B(  3-C ,  5-H ) :   0.9949 B(  4-C , 20-C ) :   1.0732
B(  6-C ,  7-H ) :   0.9410 B(  6-C ,  8-H ) :   0.9394 B(  6-C ,  9-C ) :   1.0660
B(  9-C , 10-H ) :   0.9444 B(  9-C , 11-H ) :   0.9531 B(  9-C , 12-C ) :   1.0773
B( 12-C , 13-H ) :   0.9753 B( 12-C , 14-H ) :   0.9717 B( 12-C , 15-H ) :   0.9722
B( 16-S , 17-C ) :   1.1231 B( 16-S , 20-C ) :   1.0988 B( 17-C , 18-C ) :   1.6723
B( 17-C , 33-H ) :   0.9640 B( 18-C , 19-C ) :   1.1792 B( 18-C , 21-H ) :   0.9931
B( 19-C , 20-C ) :   1.6511 B( 19-C , 22-C ) :   1.0319 B( 22-C , 23-H ) :   0.9388
B( 22-C , 24-H ) :   0.9362 B( 22-C , 25-C ) :   1.0683 B( 25-C , 26-H ) :   0.9566
B( 25-C , 27-H ) :   0.9496 B( 25-C , 28-C ) :   1.0814 B( 28-C , 29-H ) :   0.9705
B( 28-C , 30-H ) :   0.9729 B( 28-C , 31-H ) :   0.9729

Dispersion correction           -0.014641391
FINAL SINGLE POINT ENERGY     -1339.864306920889

DIPOLE MOMENT
-------------
                                X             Y             Z
Electronic contribution:     -5.95845      21.40241     -15.73368
Nuclear contribution   :      5.73990     -21.99117      16.26984
                        -----------------------------------------
Total Dipole Moment    :     -0.21855      -0.58876       0.53616
                        -----------------------------------------
Magnitude (a.u.)       :      0.82575
Magnitude (Debye)      :      2.09889

Rotational constants in cm-1:     0.018988     0.009005     0.006684
Rotational constants in MHz :   569.254370   269.954140   200.391733

                             ****ORCA TERMINATED NORMALLY****
TOTAL RUN TIME: 0 days 0 hours 0 minutes 30 seconds 589 msec
