                         Program Version 4.2.1 -  RELEASE  -
|  1> ! wB97X-D3 SP def2-SVP
|  2> %pal
|  3> nprocs 16
|  4> end
|  5>
|  6> * xyz 0 1
|  7> S 	 -41.819 	 15.4026 	 76.9494
|  8> C 	 -40.3907 	 15.5394 	 75.9347
|  9> C 	 -40.3877 	 14.5595 	 74.9911
| 10> C 	 -41.5086 	 13.6622 	 75.0525
| 11> C 	 -42.4132 	 14.0338 	 76.0176
| 12> H 	 -41.7024 	 12.8759 	 74.3413
| 13> C 	 -39.3516 	 14.5088 	 73.8902
| 14> H 	 -38.6657 	 13.643 	 74.1204
| 15> H 	 -38.7245 	 15.3827 	 73.8836
| 16> C 	 -39.8899 	 14.4072 	 72.453
| 17> H 	 -39.0862 	 14.3471 	 71.7421
| 18> H 	 -40.5117 	 13.585 	 72.3988
| 19> C 	 -40.6914 	 15.6782 	 71.9422
| 20> H 	 -41.2048 	 15.5914 	 70.9998
| 21> H 	 -41.4269 	 15.8614 	 72.8331
| 22> H 	 -40.0109 	 16.5873 	 71.8455
| 23> S 	 -45.0598 	 14.5342 	 75.8921
| 24> C 	 -46.2376 	 13.3573 	 76.3364
| 25> C 	 -45.6386 	 12.1937 	 76.7118
| 26> C 	 -44.2013 	 12.1988 	 76.5879
| 27> C 	 -43.7452 	 13.455 	 76.2471
| 28> H 	 -46.2714 	 11.4219 	 77.0526
| 29> C 	 -43.2461 	 11.0419 	 76.9489
| 30> H 	 -43.3467 	 10.8843 	 78.0505
| 31> H 	 -42.1742 	 11.2178 	 76.7267
| 32> C 	 -43.4595 	 9.72293 	 76.2591
| 33> H 	 -44.5027 	 9.37764 	 76.4118
| 34> H 	 -42.8993 	 8.83642 	 76.7101
| 35> C 	 -43.2459 	 9.74633 	 74.7285
| 36> H 	 -42.1897 	 10.0949 	 74.5813
| 37> H 	 -43.9641 	 10.3995 	 74.2187
| 38> H 	 -43.3318 	 8.78479 	 74.2598
| 39> H 	 -39.694 	 16.276 	 76.0149
| 40> H 	 -47.2678 	 13.5576 	 76.3728
| 41> *
| 42>
| 43>                          ****END OF INPUT****

CARTESIAN COORDINATES (ANGSTROEM)
---------------------------------
  S    -41.819000   15.402600   76.949400
  C    -40.390700   15.539400   75.934700
  C    -40.387700   14.559500   74.991100
  C    -41.508600   13.662200   75.052500
  C    -42.413200   14.033800   76.017600
  H    -41.702400   12.875900   74.341300
  C    -39.351600   14.508800   73.890200
  H    -38.665700   13.643000   74.120400
  H    -38.724500   15.382700   73.883600
  C    -39.889900   14.407200   72.453000
  H    -39.086200   14.347100   71.742100
  H    -40.511700   13.585000   72.398800
  C    -40.691400   15.678200   71.942200
  H    -41.204800   15.591400   70.999800
  H    -41.426900   15.861400   72.833100
  H    -40.010900   16.587300   71.845500
  S    -45.059800   14.534200   75.892100
  C    -46.237600   13.357300   76.336400
  C    -45.638600   12.193700   76.711800
  C    -44.201300   12.198800   76.587900
  C    -43.745200   13.455000   76.247100
  H    -46.271400   11.421900   77.052600
  C    -43.246100   11.041900   76.948900
  H    -43.346700   10.884300   78.050500
  H    -42.174200   11.217800   76.726700
  C    -43.459500    9.722930   76.259100
  H    -44.502700    9.377640   76.411800
  H    -42.899300    8.836420   76.710100
  C    -43.245900    9.746330   74.728500
  H    -42.189700   10.094900   74.581300
  H    -43.964100   10.399500   74.218700
  H    -43.331800    8.784790   74.259800
  H    -39.694000   16.276000   76.014900
  H    -47.267800   13.557600   76.372800

 Total Charge           Charge          ....    0
 Multiplicity           Mult            ....    1
 Number of Electrons    NEL             ....  134
 Basis Dimension        Dim             ....  322

ORBITAL ENERGIES
----------------

  NO   OCC          E(Eh)            E(eV)
   0   2.0000     -88.965239     -2420.8672
   1   2.0000     -88.961608     -2420.7684
   2   2.0000     -10.331892      -281.1451
   3   2.0000     -10.325390      -280.9681
   4   2.0000     -10.311792      -280.5981
   5   2.0000     -10.309842      -280.5451
   6   2.0000     -10.306748      -280.4609
   7   2.0000     -10.299349      -280.2595
   8   2.0000     -10.297282      -280.2033
   9   2.0000     -10.294985      -280.1408
  10   2.0000     -10.293741      -280.1069
  11   2.0000     -10.292893      -280.0839
  12   2.0000     -10.290537      -280.0198
  13   2.0000     -10.286789      -279.9178
  14   2.0000     -10.282341      -279.7967
  15   2.0000     -10.279073      -279.7078
  16   2.0000      -8.079838      -219.8636
  17   2.0000      -8.077544      -219.8012
  18   2.0000      -6.038387      -164.3129
  19   2.0000      -6.036034      -164.2488
  20   2.0000      -6.034347      -164.2029
  21   2.0000      -6.031780      -164.1331
  22   2.0000      -6.030573      -164.1002
  23   2.0000      -6.028332      -164.0392
  24   2.0000      -1.010319       -27.4922
  25   2.0000      -0.988287       -26.8927
  26   2.0000      -0.908847       -24.7310
  27   2.0000      -0.908729       -24.7278
  28   2.0000      -0.871642       -23.7186
  29   2.0000      -0.846777       -23.0420
  30   2.0000      -0.840492       -22.8710
  31   2.0000      -0.820162       -22.3177
  32   2.0000      -0.782525       -21.2936
  33   2.0000      -0.772263       -21.0143
  34   2.0000      -0.711106       -19.3502
  35   2.0000      -0.693519       -18.8716
  36   2.0000      -0.691995       -18.8301
  37   2.0000      -0.657275       -17.8854
  38   2.0000      -0.645341       -17.5606
  39   2.0000      -0.627481       -17.0746
  40   2.0000      -0.603172       -16.4131
  41   2.0000      -0.571293       -15.5457
  42   2.0000      -0.555664       -15.1204
  43   2.0000      -0.551028       -14.9942
  44   2.0000      -0.542991       -14.7755
  45   2.0000      -0.540170       -14.6988
  46   2.0000      -0.519613       -14.1394
  47   2.0000      -0.515322       -14.0226
  48   2.0000      -0.501316       -13.6415
  49   2.0000      -0.493824       -13.4376
  50   2.0000      -0.488030       -13.2800
  51   2.0000      -0.474525       -12.9125
  52   2.0000      -0.470782       -12.8106
  53   2.0000      -0.465936       -12.6788
  54   2.0000      -0.463056       -12.6004
  55   2.0000      -0.449275       -12.2254
  56   2.0000      -0.445654       -12.1269
  57   2.0000      -0.438675       -11.9370
  58   2.0000      -0.433459       -11.7950
  59   2.0000      -0.425884       -11.5889
  60   2.0000      -0.416831       -11.3425
  61   2.0000      -0.407778       -11.0962
  62   2.0000      -0.401519       -10.9259
  63   2.0000      -0.344458        -9.3732
  64   2.0000      -0.331552        -9.0220
  65   2.0000      -0.327988        -8.9250
  66   2.0000      -0.304435        -8.2841
  67   0.0000       0.037929         1.0321
  68   0.0000       0.069400         1.8885
  69   0.0000       0.119758         3.2588
  70   0.0000       0.125750         3.4218
  71   0.0000       0.127110         3.4588

MULLIKEN ATOMIC CHARGES
-----------------------
   0 S :    0.109089
   1 C :   -0.082823
   2 C :   -0.097114
   3 C :    0.052157
   4 C :   -0.155879
   5 H :    0.012899
   6 C :    0.067321
   7 H :    0.049033
   8 H :    0.008721
   9 C :   -0.045479
  10 H :    0.028331
  11 H :    0.015498
  12 C :   -0.118943
  13 H :    0.045825
  14 H :    0.057046
  15 H :    0.036464
  16 S :    0.108769
  17 C :   -0.071064
  18 C :   -0.031221
  19 C :    0.002720
  20 C :   -0.181235
  21 H :    0.005521
  22 C :    0.065437
  23 H :    0.048681
  24 H :    0.034779
  25 C :   -0.117710
  26 H :    0.017387
  27 H :    0.039812
  28 C :   -0.059745
  29 H :    0.028382
  30 H :    0.046809
  31 H :    0.031749
  32 H :    0.006771
  33 H :    0.042014
Sum of atomic charges:   -0.0000000

LOEWDIN ATOMIC CHARGES
----------------------
   0 S :    0.398137
   1 C :   -0.176360
   2 C :   -0.064944
   3 C :   -0.060423
   4 C :   -0.187690
   5 H :    0.031184
   6 C :   -0.031019
   7 H :    0.041136
   8 H :    0.024412
   9 C :   -0.033617
  10 H :    0.023008
  11 H :    0.008711
  12 C :   -0.077222
  13 H :    0.022403
  14 H :    0.038177
  15 H :    0.027185
  16 S :    0.420864
  17 C :   -0.179995
  18 C :   -0.068210
  19 C :   -0.053308
  20 C :   -0.201716
  21 H :    0.025796
  22 C :   -0.035434
  23 H :    0.041516
  24 H :    0.034906
  25 C :   -0.055745
  26 H :    0.017180
  27 H :    0.032673
  28 C :   -0.068875
  29 H :    0.024750
  30 H :    0.028158
  31 H :    0.023637
  32 H :    0.009125
  33 H :    0.021600

  Mayer bond orders larger than 0.100000
B(  0-S ,  1-C ) :   1.1221 B(  0-S ,  4-C ) :   1.1594 B(  1-C ,  2-C ) :   1.6296
B(  1-C , 32-H ) :   0.9838 B(  2-C ,  3-C ) :   1.2144 B(  2-C ,  6-C ) :   1.0254
B(  3-C ,  4-C ) :   1.5913 B(  3-C ,  5-H ) :   0.9966 B(  4-C , 20-C ) :   0.9994
B(  6-C ,  7-H ) :   0.9335 B(  6-C ,  8-H ) :   0.9469 B(  6-C ,  9-C ) :   1.0690
B(  9-C , 10-H ) :   0.9564 B(  9-C , 11-H ) :   0.9596 B(  9-C , 12-C ) :   1.0605
B( 12-C , 13-H ) :   0.9773 B( 12-C , 14-H ) :   0.9777 B( 12-C , 15-H ) :   0.9760
B( 16-S , 17-C ) :   1.1546 B( 16-S , 20-C ) :   1.1631 B( 17-C , 18-C ) :   1.6214
B( 17-C , 33-H ) :   0.9751 B( 18-C , 19-C ) :   1.2044 B( 18-C , 21-H ) :   1.0008
B( 19-C , 20-C ) :   1.6110 B( 19-C , 22-C ) :   1.0322 B( 22-C , 23-H ) :   0.9348
B( 22-C , 24-H ) :   0.9435 B( 22-C , 25-C ) :   1.0674 B( 25-C , 26-H ) :   0.9526
B( 25-C , 27-H ) :   0.9558 B( 25-C , 28-C ) :   1.0727 B( 28-C , 29-H ) :   0.9728
B( 28-C , 30-H ) :   0.9747 B( 28-C , 31-H ) :   0.9731

Dispersion correction           -0.015008538
FINAL SINGLE POINT ENERGY     -1339.883820164627

DIPOLE MOMENT
-------------
                                X             Y             Z
Electronic contribution:    -10.49722      14.43185      15.73349
Nuclear contribution   :     10.60940     -14.88717     -15.98754
                        -----------------------------------------
Total Dipole Moment    :      0.11219      -0.45533      -0.25405
                        -----------------------------------------
Magnitude (a.u.)       :      0.53334
Magnitude (Debye)      :      1.35565

Rotational constants in cm-1:     0.018308     0.009087     0.007711
Rotational constants in MHz :   548.847887   272.433260   231.164322

                             ****ORCA TERMINATED NORMALLY****
TOTAL RUN TIME: 0 days 0 hours 0 minutes 30 seconds 480 msec
