                         Program Version 4.2.1 -  RELEASE  -
|  1> ! wB97X-D3 SP def2-SVP
|  2> %pal
|  3> nprocs 16
|  4> end
|  5>
|  6> * xyz 0 1
|  7> S 	 33.8558 	 18.7666 	 65.1757
|  8> C 	 32.7521 	 18.1504 	 66.4499
|  9> C 	 33.3556 	 18.121 	 67.6128
| 10> C 	 34.7264 	 18.5192 	 67.5783
| 11> C 	 35.1037 	 18.8818 	 66.3149
| 12> H 	 35.3169 	 18.6081 	 68.5442
| 13> C 	 32.6103 	 17.8657 	 68.9162
| 14> H 	 33.1839 	 17.2863 	 69.703
| 15> H 	 31.7228 	 17.2745 	 68.695
| 16> C 	 32.0247 	 18.9991 	 69.6537
| 17> H 	 31.2206 	 19.5661 	 69.1504
| 18> H 	 31.4443 	 18.5183 	 70.4153
| 19> C 	 33.1133 	 19.9635 	 70.3374
| 20> H 	 32.5139 	 20.6612 	 71.0181
| 21> H 	 33.7887 	 19.5033 	 71.1061
| 22> H 	 33.69 	 20.6722 	 69.7177
| 23> S 	 36.4828 	 20.6091 	 64.6013
| 24> C 	 38.2042 	 20.6879 	 64.6849
| 25> C 	 38.6878 	 19.8278 	 65.6207
| 26> C 	 37.7011 	 18.9443 	 66.1933
| 27> C 	 36.3809 	 19.363 	 65.8161
| 28> H 	 39.7919 	 19.831 	 65.8327
| 29> C 	 38.0635 	 17.8707 	 67.2382
| 30> H 	 37.218 	 17.8753 	 67.9551
| 31> H 	 38.9555 	 18.074 	 67.7918
| 32> C 	 38.0905 	 16.5109 	 66.623
| 33> H 	 38.9086 	 16.4656 	 65.8965
| 34> H 	 37.1974 	 16.3285 	 66.0571
| 35> C 	 38.2441 	 15.4752 	 67.7503
| 36> H 	 38.1385 	 14.5141 	 67.2648
| 37> H 	 37.4484 	 15.5253 	 68.5672
| 38> H 	 39.2462 	 15.5093 	 68.1544
| 39> H 	 31.6918 	 18.1333 	 66.3241
| 40> H 	 38.9122 	 21.2781 	 64.1729
| 41> *
| 42>
| 43>                          ****END OF INPUT****

CARTESIAN COORDINATES (ANGSTROEM)
---------------------------------
  S     33.855800   18.766600   65.175700
  C     32.752100   18.150400   66.449900
  C     33.355600   18.121000   67.612800
  C     34.726400   18.519200   67.578300
  C     35.103700   18.881800   66.314900
  H     35.316900   18.608100   68.544200
  C     32.610300   17.865700   68.916200
  H     33.183900   17.286300   69.703000
  H     31.722800   17.274500   68.695000
  C     32.024700   18.999100   69.653700
  H     31.220600   19.566100   69.150400
  H     31.444300   18.518300   70.415300
  C     33.113300   19.963500   70.337400
  H     32.513900   20.661200   71.018100
  H     33.788700   19.503300   71.106100
  H     33.690000   20.672200   69.717700
  S     36.482800   20.609100   64.601300
  C     38.204200   20.687900   64.684900
  C     38.687800   19.827800   65.620700
  C     37.701100   18.944300   66.193300
  C     36.380900   19.363000   65.816100
  H     39.791900   19.831000   65.832700
  C     38.063500   17.870700   67.238200
  H     37.218000   17.875300   67.955100
  H     38.955500   18.074000   67.791800
  C     38.090500   16.510900   66.623000
  H     38.908600   16.465600   65.896500
  H     37.197400   16.328500   66.057100
  C     38.244100   15.475200   67.750300
  H     38.138500   14.514100   67.264800
  H     37.448400   15.525300   68.567200
  H     39.246200   15.509300   68.154400
  H     31.691800   18.133300   66.324100
  H     38.912200   21.278100   64.172900

 Total Charge           Charge          ....    0
 Multiplicity           Mult            ....    1
 Number of Electrons    NEL             ....  134
 Basis Dimension        Dim             ....  322

ORBITAL ENERGIES
----------------

  NO   OCC          E(Eh)            E(eV)
   0   2.0000     -88.968921     -2420.9674
   1   2.0000     -88.962166     -2420.7836
   2   2.0000     -10.328932      -281.0645
   3   2.0000     -10.328403      -281.0501
   4   2.0000     -10.309628      -280.5392
   5   2.0000     -10.307117      -280.4709
   6   2.0000     -10.304899      -280.4106
   7   2.0000     -10.296210      -280.1741
   8   2.0000     -10.293480      -280.0998
   9   2.0000     -10.293235      -280.0932
  10   2.0000     -10.293155      -280.0910
  11   2.0000     -10.292092      -280.0621
  12   2.0000     -10.290893      -280.0294
  13   2.0000     -10.285957      -279.8951
  14   2.0000     -10.277993      -279.6784
  15   2.0000     -10.277346      -279.6608
  16   2.0000      -8.083670      -219.9678
  17   2.0000      -8.077961      -219.8125
  18   2.0000      -6.042224      -164.4173
  19   2.0000      -6.038060      -164.3040
  20   2.0000      -6.036509      -164.2617
  21   2.0000      -6.034515      -164.2075
  22   2.0000      -6.032416      -164.1504
  23   2.0000      -6.028515      -164.0442
  24   2.0000      -1.014225       -27.5985
  25   2.0000      -0.988170       -26.8895
  26   2.0000      -0.918236       -24.9865
  27   2.0000      -0.913182       -24.8489
  28   2.0000      -0.872901       -23.7528
  29   2.0000      -0.847408       -23.0591
  30   2.0000      -0.838001       -22.8032
  31   2.0000      -0.816620       -22.2214
  32   2.0000      -0.784648       -21.3514
  33   2.0000      -0.771212       -20.9858
  34   2.0000      -0.709561       -19.3081
  35   2.0000      -0.702231       -19.1087
  36   2.0000      -0.691622       -18.8200
  37   2.0000      -0.654434       -17.8080
  38   2.0000      -0.633821       -17.2471
  39   2.0000      -0.622295       -16.9335
  40   2.0000      -0.594392       -16.1742
  41   2.0000      -0.575623       -15.6635
  42   2.0000      -0.568603       -15.4725
  43   2.0000      -0.545620       -14.8471
  44   2.0000      -0.539783       -14.6883
  45   2.0000      -0.519212       -14.1285
  46   2.0000      -0.514190       -13.9918
  47   2.0000      -0.507137       -13.7999
  48   2.0000      -0.505349       -13.7512
  49   2.0000      -0.496755       -13.5174
  50   2.0000      -0.492358       -13.3977
  51   2.0000      -0.481003       -13.0888
  52   2.0000      -0.480672       -13.0798
  53   2.0000      -0.463181       -12.6038
  54   2.0000      -0.456328       -12.4173
  55   2.0000      -0.449829       -12.2405
  56   2.0000      -0.441412       -12.0114
  57   2.0000      -0.437736       -11.9114
  58   2.0000      -0.434343       -11.8191
  59   2.0000      -0.418409       -11.3855
  60   2.0000      -0.416881       -11.3439
  61   2.0000      -0.412310       -11.2195
  62   2.0000      -0.410352       -11.1662
  63   2.0000      -0.353869        -9.6293
  64   2.0000      -0.333377        -9.0717
  65   2.0000      -0.330309        -8.9882
  66   2.0000      -0.289261        -7.8712
  67   0.0000       0.025449         0.6925
  68   0.0000       0.084835         2.3085
  69   0.0000       0.103477         2.8158
  70   0.0000       0.119174         3.2429
  71   0.0000       0.141654         3.8546

MULLIKEN ATOMIC CHARGES
-----------------------
   0 S :    0.087704
   1 C :   -0.128041
   2 C :   -0.035607
   3 C :   -0.014303
   4 C :   -0.128007
   5 H :    0.050497
   6 C :    0.035102
   7 H :    0.033453
   8 H :    0.016735
   9 C :   -0.039500
  10 H :    0.028830
  11 H :    0.021215
  12 C :   -0.116136
  13 H :    0.029537
  14 H :    0.037154
  15 H :    0.059592
  16 S :    0.120968
  17 C :   -0.058648
  18 C :   -0.068745
  19 C :   -0.049068
  20 C :   -0.136445
  21 H :    0.034824
  22 C :    0.091486
  23 H :   -0.002163
  24 H :    0.016289
  25 C :   -0.078453
  26 H :    0.024037
  27 H :    0.032853
  28 C :   -0.040011
  29 H :    0.027793
  30 H :    0.043719
  31 H :    0.029089
  32 H :    0.038797
  33 H :    0.035456
Sum of atomic charges:   -0.0000000

LOEWDIN ATOMIC CHARGES
----------------------
   0 S :    0.401732
   1 C :   -0.177825
   2 C :   -0.064278
   3 C :   -0.077838
   4 C :   -0.195609
   5 H :    0.044314
   6 C :   -0.038800
   7 H :    0.037039
   8 H :    0.031917
   9 C :   -0.038610
  10 H :    0.026815
  11 H :    0.026173
  12 C :   -0.089459
  13 H :    0.032338
  14 H :    0.027712
  15 H :    0.029232
  16 S :    0.421121
  17 C :   -0.196306
  18 C :   -0.079641
  19 C :   -0.045710
  20 C :   -0.211428
  21 H :    0.038778
  22 C :   -0.030789
  23 H :    0.028327
  24 H :    0.024824
  25 C :   -0.037524
  26 H :    0.024046
  27 H :    0.024389
  28 C :   -0.065759
  29 H :    0.024563
  30 H :    0.032574
  31 H :    0.022486
  32 H :    0.024038
  33 H :    0.027158

  Mayer bond orders larger than 0.100000
B(  0-S ,  1-C ) :   1.0941 B(  0-S ,  4-C ) :   1.1685 B(  1-C ,  2-C ) :   1.6797
B(  1-C , 32-H ) :   0.9677 B(  2-C ,  3-C ) :   1.2243 B(  2-C ,  6-C ) :   1.0204
B(  3-C ,  4-C ) :   1.5771 B(  3-C ,  5-H ) :   0.9747 B(  4-C , 20-C ) :   1.0419
B(  6-C ,  7-H ) :   0.9398 B(  6-C ,  8-H ) :   0.9345 B(  6-C ,  9-C ) :   1.0938
B(  9-C , 10-H ) :   0.9531 B(  9-C , 11-H ) :   0.9498 B(  9-C , 12-C ) :   1.0602
B( 12-C , 13-H ) :   0.9736 B( 12-C , 14-H ) :   0.9753 B( 12-C , 15-H ) :   0.9766
B( 16-S , 17-C ) :   1.1487 B( 16-S , 20-C ) :   1.1475 B( 17-C , 18-C ) :   1.6197
B( 17-C , 33-H ) :   0.9680 B( 18-C , 19-C ) :   1.2631 B( 18-C , 21-H ) :   0.9777
B( 19-C , 20-C ) :   1.5473 B( 19-C , 22-C ) :   1.0346 B( 22-C , 23-H ) :   0.9328
B( 22-C , 24-H ) :   0.9404 B( 22-C , 25-C ) :   1.0625 B( 25-C , 26-H ) :   0.9513
B( 25-C , 27-H ) :   0.9568 B( 25-C , 28-C ) :   1.0830 B( 28-C , 29-H ) :   0.9738
B( 28-C , 30-H ) :   0.9740 B( 28-C , 31-H ) :   0.9724

Dispersion correction           -0.014361463
FINAL SINGLE POINT ENERGY     -1339.866740507493

DIPOLE MOMENT
-------------
                                X             Y             Z
Electronic contribution:     -0.90960      11.63146     -24.06672
Nuclear contribution   :      0.99237     -11.75301      24.69683
                        -----------------------------------------
Total Dipole Moment    :      0.08278      -0.12154       0.63012
                        -----------------------------------------
Magnitude (a.u.)       :      0.64705
Magnitude (Debye)      :      1.64467

Rotational constants in cm-1:     0.017417     0.009225     0.007511
Rotational constants in MHz :   522.154020   276.559975   225.160833

                             ****ORCA TERMINATED NORMALLY****
TOTAL RUN TIME: 0 days 0 hours 0 minutes 30 seconds 698 msec
