                         Program Version 4.2.1 -  RELEASE  -
|  1> ! wB97X-D3 SP def2-SVP
|  2> %pal
|  3> nprocs 16
|  4> end
|  5>
|  6> * xyz 0 1
|  7> S 	 -59.1935 	 40.2055 	 114.513
|  8> C 	 -59.0008 	 39.6629 	 112.854
|  9> C 	 -57.6688 	 39.8049 	 112.474
| 10> C 	 -56.8709 	 39.9818 	 113.643
| 11> C 	 -57.5017 	 39.981 	 114.831
| 12> H 	 -55.8003 	 40.0784 	 113.64
| 13> C 	 -57.0714 	 39.6604 	 111.138
| 14> H 	 -56.3885 	 40.4915 	 110.918
| 15> H 	 -57.8685 	 39.8363 	 110.398
| 16> C 	 -56.4402 	 38.2649 	 110.851
| 17> H 	 -56.0251 	 38.5 	 109.913
| 18> H 	 -55.5768 	 38.0152 	 111.424
| 19> C 	 -57.4871 	 37.1375 	 110.555
| 20> H 	 -57.2534 	 36.4045 	 109.767
| 21> H 	 -57.782 	 36.6047 	 111.5
| 22> H 	 -58.4505 	 37.5737 	 110.296
| 23> S 	 -57.5968 	 41.1413 	 117.267
| 24> C 	 -56.302 	 40.8643 	 118.458
| 25> C 	 -55.3646 	 39.8834 	 118.013
| 26> C 	 -55.7836 	 39.3927 	 116.762
| 27> C 	 -56.9578 	 39.9742 	 116.205
| 28> H 	 -54.5369 	 39.7236 	 118.657
| 29> C 	 -54.885 	 38.4562 	 116.09
| 30> H 	 -53.9088 	 38.887 	 116.224
| 31> H 	 -55.0306 	 38.5376 	 115.044
| 32> C 	 -54.8887 	 36.9841 	 116.504
| 33> H 	 -54.4898 	 36.9573 	 117.475
| 34> H 	 -54.1242 	 36.5345 	 115.922
| 35> C 	 -56.2296 	 36.3213 	 116.382
| 36> H 	 -56.8076 	 36.3584 	 115.38
| 37> H 	 -56.951 	 36.7021 	 117.15
| 38> H 	 -56.1595 	 35.2705 	 116.647
| 39> H 	 -59.7935 	 39.3772 	 112.214
| 40> H 	 -56.1545 	 41.2919 	 119.365
| 41> *
| 42>
| 43>                          ****END OF INPUT****

CARTESIAN COORDINATES (ANGSTROEM)
---------------------------------
  S    -59.193500   40.205500  114.513000
  C    -59.000800   39.662900  112.854000
  C    -57.668800   39.804900  112.474000
  C    -56.870900   39.981800  113.643000
  C    -57.501700   39.981000  114.831000
  H    -55.800300   40.078400  113.640000
  C    -57.071400   39.660400  111.138000
  H    -56.388500   40.491500  110.918000
  H    -57.868500   39.836300  110.398000
  C    -56.440200   38.264900  110.851000
  H    -56.025100   38.500000  109.913000
  H    -55.576800   38.015200  111.424000
  C    -57.487100   37.137500  110.555000
  H    -57.253400   36.404500  109.767000
  H    -57.782000   36.604700  111.500000
  H    -58.450500   37.573700  110.296000
  S    -57.596800   41.141300  117.267000
  C    -56.302000   40.864300  118.458000
  C    -55.364600   39.883400  118.013000
  C    -55.783600   39.392700  116.762000
  C    -56.957800   39.974200  116.205000
  H    -54.536900   39.723600  118.657000
  C    -54.885000   38.456200  116.090000
  H    -53.908800   38.887000  116.224000
  H    -55.030600   38.537600  115.044000
  C    -54.888700   36.984100  116.504000
  H    -54.489800   36.957300  117.475000
  H    -54.124200   36.534500  115.922000
  C    -56.229600   36.321300  116.382000
  H    -56.807600   36.358400  115.380000
  H    -56.951000   36.702100  117.150000
  H    -56.159500   35.270500  116.647000
  H    -59.793500   39.377200  112.214000
  H    -56.154500   41.291900  119.365000

 Total Charge           Charge          ....    0
 Multiplicity           Mult            ....    1
 Number of Electrons    NEL             ....  134
 Basis Dimension        Dim             ....  322

ORBITAL ENERGIES
----------------

  NO   OCC          E(Eh)            E(eV)
   0   2.0000     -88.969989     -2420.9965
   1   2.0000     -88.958402     -2420.6812
   2   2.0000     -10.327898      -281.0364
   3   2.0000     -10.325996      -280.9846
   4   2.0000     -10.315594      -280.7016
   5   2.0000     -10.311635      -280.5939
   6   2.0000     -10.300997      -280.3044
   7   2.0000     -10.297843      -280.2185
   8   2.0000     -10.295463      -280.1538
   9   2.0000     -10.295401      -280.1521
  10   2.0000     -10.287161      -279.9279
  11   2.0000     -10.285712      -279.8884
  12   2.0000     -10.284893      -279.8662
  13   2.0000     -10.278042      -279.6798
  14   2.0000     -10.276146      -279.6282
  15   2.0000     -10.273864      -279.5661
  16   2.0000      -8.084644      -219.9943
  17   2.0000      -8.073964      -219.7037
  18   2.0000      -6.043103      -164.4412
  19   2.0000      -6.038993      -164.3293
  20   2.0000      -6.035642      -164.2382
  21   2.0000      -6.032593      -164.1552
  22   2.0000      -6.028665      -164.0483
  23   2.0000      -6.024246      -163.9281
  24   2.0000      -1.010375       -27.4937
  25   2.0000      -0.986480       -26.8435
  26   2.0000      -0.916779       -24.9468
  27   2.0000      -0.911744       -24.8098
  28   2.0000      -0.868994       -23.6465
  29   2.0000      -0.850695       -23.1486
  30   2.0000      -0.843159       -22.9435
  31   2.0000      -0.817290       -22.2396
  32   2.0000      -0.782075       -21.2813
  33   2.0000      -0.772046       -21.0085
  34   2.0000      -0.716226       -19.4895
  35   2.0000      -0.704628       -19.1739
  36   2.0000      -0.697951       -18.9922
  37   2.0000      -0.664464       -18.0810
  38   2.0000      -0.645041       -17.5525
  39   2.0000      -0.625716       -17.0266
  40   2.0000      -0.594398       -16.1744
  41   2.0000      -0.575023       -15.6472
  42   2.0000      -0.555666       -15.1205
  43   2.0000      -0.548638       -14.9292
  44   2.0000      -0.540256       -14.7011
  45   2.0000      -0.532599       -14.4927
  46   2.0000      -0.522086       -14.2067
  47   2.0000      -0.513445       -13.9716
  48   2.0000      -0.505807       -13.7637
  49   2.0000      -0.499957       -13.6045
  50   2.0000      -0.488189       -13.2843
  51   2.0000      -0.477333       -12.9889
  52   2.0000      -0.475319       -12.9341
  53   2.0000      -0.462473       -12.5845
  54   2.0000      -0.453982       -12.3535
  55   2.0000      -0.450724       -12.2648
  56   2.0000      -0.442419       -12.0388
  57   2.0000      -0.437043       -11.8925
  58   2.0000      -0.432029       -11.7561
  59   2.0000      -0.427018       -11.6197
  60   2.0000      -0.417963       -11.3734
  61   2.0000      -0.412525       -11.2254
  62   2.0000      -0.411408       -11.1950
  63   2.0000      -0.351030        -9.5520
  64   2.0000      -0.331112        -9.0100
  65   2.0000      -0.320691        -8.7264
  66   2.0000      -0.281928        -7.6717
  67   0.0000       0.024328         0.6620
  68   0.0000       0.066446         1.8081
  69   0.0000       0.093452         2.5430
  70   0.0000       0.119510         3.2520
  71   0.0000       0.132026         3.5926

MULLIKEN ATOMIC CHARGES
-----------------------
   0 S :    0.087800
   1 C :   -0.115376
   2 C :   -0.053201
   3 C :    0.004242
   4 C :   -0.123253
   5 H :    0.005796
   6 C :    0.018983
   7 H :    0.038028
   8 H :    0.019101
   9 C :   -0.019362
  10 H :    0.012253
  11 H :    0.029958
  12 C :   -0.067994
  13 H :    0.050472
  14 H :    0.043821
  15 H :    0.012860
  16 S :    0.110664
  17 C :   -0.060427
  18 C :   -0.046266
  19 C :   -0.062806
  20 C :   -0.090216
  21 H :    0.017868
  22 C :    0.062620
  23 H :    0.013369
  24 H :   -0.011740
  25 C :    0.020879
  26 H :    0.003105
  27 H :    0.013954
  28 C :   -0.086573
  29 H :    0.053080
  30 H :    0.045408
  31 H :    0.027572
  32 H :    0.032839
  33 H :    0.012543
Sum of atomic charges:   -0.0000000

LOEWDIN ATOMIC CHARGES
----------------------
   0 S :    0.387144
   1 C :   -0.183955
   2 C :   -0.063459
   3 C :   -0.067202
   4 C :   -0.188224
   5 H :    0.025546
   6 C :   -0.034629
   7 H :    0.037776
   8 H :    0.032283
   9 C :   -0.033005
  10 H :    0.021891
  11 H :    0.021631
  12 C :   -0.071976
  13 H :    0.030670
  14 H :    0.032560
  15 H :    0.022086
  16 S :    0.427549
  17 C :   -0.163126
  18 C :   -0.057522
  19 C :   -0.056705
  20 C :   -0.215762
  21 H :    0.032433
  22 C :   -0.036349
  23 H :    0.030604
  24 H :    0.018456
  25 C :   -0.031148
  26 H :    0.017862
  27 H :    0.021875
  28 C :   -0.078050
  29 H :    0.038570
  30 H :    0.033686
  31 H :    0.024144
  32 H :    0.019117
  33 H :    0.005227

  Mayer bond orders larger than 0.100000
B(  0-S ,  1-C ) :   1.1331 B(  0-S ,  4-C ) :   1.1325 B(  1-C ,  2-C ) :   1.5962
B(  1-C , 32-H ) :   0.9807 B(  2-C ,  3-C ) :   1.2080 B(  2-C ,  6-C ) :   1.0487
B(  3-C ,  4-C ) :   1.6054 B(  3-C ,  5-H ) :   0.9981 B(  4-C , 20-C ) :   1.0187
B(  6-C ,  7-H ) :   0.9377 B(  6-C ,  8-H ) :   0.9352 B(  6-C ,  9-C ) :   1.0744
B(  9-C , 10-H ) :   0.9516 B(  9-C , 11-H ) :   0.9618 B(  9-C , 12-C ) :   1.0543
B( 12-C , 13-H ) :   0.9795 B( 12-C , 14-H ) :   0.9757 B( 12-C , 15-H ) :   0.9738
B( 16-S , 17-C ) :   1.1750 B( 16-S , 20-C ) :   1.1541 B( 17-C , 18-C ) :   1.5750
B( 17-C , 20-C ) :   0.1106 B( 17-C , 33-H ) :   0.9771 B( 18-C , 19-C ) :   1.2626
B( 18-C , 21-H ) :   1.0021 B( 19-C , 20-C ) :   1.5415 B( 19-C , 22-C ) :   1.0527
B( 22-C , 23-H ) :   0.9278 B( 22-C , 24-H ) :   0.9252 B( 22-C , 25-C ) :   1.0819
B( 25-C , 26-H ) :   0.9474 B( 25-C , 27-H ) :   0.9484 B( 25-C , 28-C ) :   1.0791
B( 28-C , 29-H ) :   0.9749 B( 28-C , 30-H ) :   0.9687 B( 28-C , 31-H ) :   0.9707

Dispersion correction           -0.014927870
FINAL SINGLE POINT ENERGY     -1339.841013977192

DIPOLE MOMENT
-------------
                                X             Y             Z
Electronic contribution:    -12.15971      20.29689      15.02627
Nuclear contribution   :     12.84184     -20.53701     -15.38224
                        -----------------------------------------
Total Dipole Moment    :      0.68213      -0.24012      -0.35597
                        -----------------------------------------
Magnitude (a.u.)       :      0.80602
Magnitude (Debye)      :      2.04875

Rotational constants in cm-1:     0.019761     0.009407     0.007284
Rotational constants in MHz :   592.411402   282.025501   218.357402

                             ****ORCA TERMINATED NORMALLY****
TOTAL RUN TIME: 0 days 0 hours 0 minutes 31 seconds 722 msec
