                         Program Version 4.2.1 -  RELEASE  -
|  1> ! wB97X-D3 SP def2-SVP
|  2> %pal
|  3> nprocs 16
|  4> end
|  5>
|  6> * xyz 0 1
|  7> S 	 -35.0251 	 68.7661 	 170.724
|  8> C 	 -33.6563 	 69.8538 	 170.926
|  9> C 	 -34.0242 	 71.1732 	 170.658
| 10> C 	 -35.4189 	 71.2728 	 170.366
| 11> C 	 -36.1429 	 70.0809 	 170.566
| 12> H 	 -35.9833 	 72.1773 	 170.273
| 13> C 	 -33.0332 	 72.3653 	 170.605
| 14> H 	 -32.0948 	 72.1268 	 171.121
| 15> H 	 -33.5161 	 73.1989 	 171.174
| 16> C 	 -32.6248 	 72.8911 	 169.283
| 17> H 	 -32.0677 	 72.1201 	 168.731
| 18> H 	 -33.5494 	 72.9822 	 168.721
| 19> C 	 -31.9581 	 74.2703 	 169.299
| 20> H 	 -31.6445 	 74.7133 	 168.333
| 21> H 	 -32.6684 	 74.9716 	 169.695
| 22> H 	 -31.1386 	 74.339 	 170.035
| 23> S 	 -38.052 	 68.9549 	 168.979
| 24> C 	 -39.7325 	 69.2316 	 169.142
| 25> C 	 -39.9733 	 69.9796 	 170.285
| 26> C 	 -38.777 	 70.3956 	 170.907
| 27> C 	 -37.5647 	 69.8502 	 170.369
| 28> H 	 -40.9316 	 70.2775 	 170.573
| 29> C 	 -38.8073 	 71.3054 	 172.1
| 30> H 	 -37.7312 	 71.3314 	 172.42
| 31> H 	 -39.3374 	 70.8043 	 172.9
| 32> C 	 -39.3926 	 72.7137 	 172.056
| 33> H 	 -39.6326 	 73.1852 	 172.979
| 34> H 	 -40.3271 	 72.6081 	 171.463
| 35> C 	 -38.4729 	 73.6812 	 171.262
| 36> H 	 -38.1899 	 73.4808 	 170.316
| 37> H 	 -37.5921 	 73.8588 	 171.847
| 38> H 	 -38.9729 	 74.5947 	 171.207
| 39> H 	 -32.6792 	 69.4176 	 170.972
| 40> H 	 -40.4498 	 69.0488 	 168.355
| 41> *
| 42>
| 43>                          ****END OF INPUT****

CARTESIAN COORDINATES (ANGSTROEM)
---------------------------------
  S    -35.025100   68.766100  170.724000
  C    -33.656300   69.853800  170.926000
  C    -34.024200   71.173200  170.658000
  C    -35.418900   71.272800  170.366000
  C    -36.142900   70.080900  170.566000
  H    -35.983300   72.177300  170.273000
  C    -33.033200   72.365300  170.605000
  H    -32.094800   72.126800  171.121000
  H    -33.516100   73.198900  171.174000
  C    -32.624800   72.891100  169.283000
  H    -32.067700   72.120100  168.731000
  H    -33.549400   72.982200  168.721000
  C    -31.958100   74.270300  169.299000
  H    -31.644500   74.713300  168.333000
  H    -32.668400   74.971600  169.695000
  H    -31.138600   74.339000  170.035000
  S    -38.052000   68.954900  168.979000
  C    -39.732500   69.231600  169.142000
  C    -39.973300   69.979600  170.285000
  C    -38.777000   70.395600  170.907000
  C    -37.564700   69.850200  170.369000
  H    -40.931600   70.277500  170.573000
  C    -38.807300   71.305400  172.100000
  H    -37.731200   71.331400  172.420000
  H    -39.337400   70.804300  172.900000
  C    -39.392600   72.713700  172.056000
  H    -39.632600   73.185200  172.979000
  H    -40.327100   72.608100  171.463000
  C    -38.472900   73.681200  171.262000
  H    -38.189900   73.480800  170.316000
  H    -37.592100   73.858800  171.847000
  H    -38.972900   74.594700  171.207000
  H    -32.679200   69.417600  170.972000
  H    -40.449800   69.048800  168.355000

 Total Charge           Charge          ....    0
 Multiplicity           Mult            ....    1
 Number of Electrons    NEL             ....  134
 Basis Dimension        Dim             ....  322

ORBITAL ENERGIES
----------------

  NO   OCC          E(Eh)            E(eV)
   0   2.0000     -88.966529     -2420.9023
   1   2.0000     -88.964657     -2420.8514
   2   2.0000     -10.334555      -281.2175
   3   2.0000     -10.329055      -281.0679
   4   2.0000     -10.317885      -280.7639
   5   2.0000     -10.317675      -280.7582
   6   2.0000     -10.310142      -280.5532
   7   2.0000     -10.306613      -280.4572
   8   2.0000     -10.297766      -280.2165
   9   2.0000     -10.296425      -280.1800
  10   2.0000     -10.290221      -280.0111
  11   2.0000     -10.288101      -279.9535
  12   2.0000     -10.285031      -279.8699
  13   2.0000     -10.283636      -279.8320
  14   2.0000     -10.282439      -279.7994
  15   2.0000     -10.260559      -279.2040
  16   2.0000      -8.081560      -219.9104
  17   2.0000      -8.080534      -219.8825
  18   2.0000      -6.039949      -164.3554
  19   2.0000      -6.038853      -164.3255
  20   2.0000      -6.035947      -164.2465
  21   2.0000      -6.034545      -164.2083
  22   2.0000      -6.032509      -164.1529
  23   2.0000      -6.031731      -164.1317
  24   2.0000      -1.010639       -27.5009
  25   2.0000      -0.987817       -26.8799
  26   2.0000      -0.917106       -24.9557
  27   2.0000      -0.909611       -24.7518
  28   2.0000      -0.873933       -23.7809
  29   2.0000      -0.851993       -23.1839
  30   2.0000      -0.847082       -23.0503
  31   2.0000      -0.816021       -22.2050
  32   2.0000      -0.785795       -21.3826
  33   2.0000      -0.775787       -21.1102
  34   2.0000      -0.712248       -19.3813
  35   2.0000      -0.699988       -19.0476
  36   2.0000      -0.696230       -18.9454
  37   2.0000      -0.660290       -17.9674
  38   2.0000      -0.648704       -17.6521
  39   2.0000      -0.622165       -16.9300
  40   2.0000      -0.596001       -16.2180
  41   2.0000      -0.573375       -15.6023
  42   2.0000      -0.565473       -15.3873
  43   2.0000      -0.557861       -15.1802
  44   2.0000      -0.545244       -14.8369
  45   2.0000      -0.524625       -14.2758
  46   2.0000      -0.522701       -14.2234
  47   2.0000      -0.514915       -14.0116
  48   2.0000      -0.507738       -13.8163
  49   2.0000      -0.500933       -13.6311
  50   2.0000      -0.499056       -13.5800
  51   2.0000      -0.480542       -13.0762
  52   2.0000      -0.469639       -12.7795
  53   2.0000      -0.465756       -12.6739
  54   2.0000      -0.462327       -12.5805
  55   2.0000      -0.456062       -12.4101
  56   2.0000      -0.452653       -12.3173
  57   2.0000      -0.435750       -11.8574
  58   2.0000      -0.427517       -11.6333
  59   2.0000      -0.422157       -11.4875
  60   2.0000      -0.417019       -11.3477
  61   2.0000      -0.412408       -11.2222
  62   2.0000      -0.411136       -11.1876
  63   2.0000      -0.344889        -9.3849
  64   2.0000      -0.332747        -9.0545
  65   2.0000      -0.325751        -8.8641
  66   2.0000      -0.296610        -8.0712
  67   0.0000       0.030806         0.8383
  68   0.0000       0.056432         1.5356
  69   0.0000       0.115830         3.1519
  70   0.0000       0.119265         3.2454
  71   0.0000       0.124578         3.3899

MULLIKEN ATOMIC CHARGES
-----------------------
   0 S :    0.105299
   1 C :   -0.114437
   2 C :   -0.075536
   3 C :    0.067436
   4 C :   -0.184634
   5 H :   -0.003676
   6 C :    0.039366
   7 H :    0.022122
   8 H :    0.028712
   9 C :   -0.050740
  10 H :    0.027385
  11 H :    0.017503
  12 C :   -0.041609
  13 H :    0.046420
  14 H :    0.017343
  15 H :    0.026561
  16 S :    0.114096
  17 C :   -0.093249
  18 C :   -0.003161
  19 C :   -0.061092
  20 C :   -0.133799
  21 H :   -0.002475
  22 C :    0.045946
  23 H :    0.023261
  24 H :    0.029898
  25 C :   -0.056565
  26 H :    0.029531
  27 H :    0.021907
  28 C :   -0.006347
  29 H :    0.019553
  30 H :    0.017887
  31 H :    0.008256
  32 H :    0.051802
  33 H :    0.067033
Sum of atomic charges:   -0.0000000

LOEWDIN ATOMIC CHARGES
----------------------
   0 S :    0.415555
   1 C :   -0.187724
   2 C :   -0.059546
   3 C :   -0.057397
   4 C :   -0.203637
   5 H :    0.026687
   6 C :   -0.032965
   7 H :    0.029278
   8 H :    0.033285
   9 C :   -0.048217
  10 H :    0.024524
  11 H :    0.022867
  12 C :   -0.067011
  13 H :    0.033055
  14 H :    0.022807
  15 H :    0.024878
  16 S :    0.447354
  17 C :   -0.194577
  18 C :   -0.068218
  19 C :   -0.053084
  20 C :   -0.223085
  21 H :    0.021889
  22 C :   -0.043201
  23 H :    0.032188
  24 H :    0.031925
  25 C :   -0.030126
  26 H :    0.024147
  27 H :    0.024047
  28 C :   -0.053357
  29 H :    0.008071
  30 H :    0.022373
  31 H :    0.020568
  32 H :    0.023865
  33 H :    0.032784

  Mayer bond orders larger than 0.100000
B(  0-S ,  1-C ) :   1.1542 B(  0-S ,  4-C ) :   1.1719 B(  1-C ,  2-C ) :   1.5816
B(  1-C ,  4-C ) :   0.1061 B(  1-C , 32-H ) :   0.9735 B(  2-C ,  3-C ) :   1.2623
B(  2-C ,  6-C ) :   1.0208 B(  3-C ,  4-C ) :   1.5465 B(  3-C ,  5-H ) :   0.9907
B(  4-C , 20-C ) :   1.0237 B(  6-C ,  7-H ) :   0.9414 B(  6-C ,  8-H ) :   0.9395
B(  6-C ,  9-C ) :   1.0705 B(  9-C , 10-H ) :   0.9510 B(  9-C , 11-H ) :   0.9530
B(  9-C , 12-C ) :   1.0741 B( 12-C , 13-H ) :   0.9744 B( 12-C , 14-H ) :   0.9706
B( 12-C , 15-H ) :   0.9755 B( 16-S , 17-C ) :   1.2039 B( 16-S , 20-C ) :   1.1704
B( 17-C , 18-C ) :   1.5230 B( 17-C , 20-C ) :   0.1099 B( 17-C , 33-H ) :   0.9689
B( 18-C , 19-C ) :   1.3037 B( 18-C , 21-H ) :   1.0034 B( 19-C , 20-C ) :   1.5213
B( 19-C , 22-C ) :   1.0532 B( 22-C , 23-H ) :   0.9364 B( 22-C , 24-H ) :   0.9323
B( 22-C , 25-C ) :   1.0683 B( 25-C , 26-H ) :   0.9557 B( 25-C , 27-H ) :   0.9550
B( 25-C , 28-C ) :   1.0818 B( 28-C , 29-H ) :   0.9753 B( 28-C , 30-H ) :   0.9728
B( 28-C , 31-H ) :   0.9665

Dispersion correction           -0.014286892
FINAL SINGLE POINT ENERGY     -1339.868082245449

DIPOLE MOMENT
-------------
                                X             Y             Z
Electronic contribution:     -6.52203     -28.27942      -4.01903
Nuclear contribution   :      6.41403      28.96262       4.00788
                        -----------------------------------------
Total Dipole Moment    :     -0.10800       0.68320      -0.01115
                        -----------------------------------------
Magnitude (a.u.)       :      0.69177
Magnitude (Debye)      :      1.75835

Rotational constants in cm-1:     0.018582     0.008390     0.006713
Rotational constants in MHz :   557.083021   251.518222   201.247588

                             ****ORCA TERMINATED NORMALLY****
TOTAL RUN TIME: 0 days 0 hours 0 minutes 33 seconds 947 msec
